/*--------------------------------*- C++ -*----------------------------------*\
  =========                 |
  \\      /  F ield         | OpenFOAM: The Open Source CFD Toolbox
   \\    /   O peration     | Website:  https://openfoam.org
    \\  /    A nd           | Version:  6
     \\/     M anipulation  |
\*---------------------------------------------------------------------------*/
FoamFile
{
    version     2.0;
    format      ascii;
    class       volScalarField;
    location    "20";
    object      nut;
}
// * * * * * * * * * * * * * * * * * * * * * * * * * * * * * * * * * * * * * //

dimensions      [0 2 -1 0 0 0 0];

internalField   nonuniform List<scalar> 
459
(
0.00217288
0.00251843
0.00248998
0.00236726
0.00221876
0.00206914
0.00193075
0.00179566
0.00165988
0.00152351
0.00139296
0.00128206
0.00120338
0.00114673
0.00109219
0.000876666
0.00103135
0.00108995
0.00111353
0.00109586
0.00100617
0.000832529
0.000710938
0.000651021
0.000628173
0.000621237
0.000620309
0.000623575
0.00063616
0.000674594
0.000764284
0.000832636
0.000872199
0.000838452
0.00252995
0.00791209
0.00756166
0.0071589
0.00674862
0.00630087
0.00575628
0.00519502
0.00469329
0.0043338
0.00418782
0.00426396
0.00444502
0.00444851
0.00379271
0.00132658
0.00098197
0.00122518
0.00522278
0.00635808
0.00690013
0.00653659
0.0052499
0.0029716
0.00217374
0.00180156
0.00164937
0.00159834
0.001591
0.00161487
0.00169439
0.00194289
0.00287751
0.00346921
0.00369155
0.00109272
0.00267339
0.01005
0.00889963
0.00850128
0.00831928
0.00812007
0.00781547
0.00746446
0.00719111
0.00713263
0.00736136
0.00780895
0.00825495
0.00836393
0.0075716
0.00491943
0.00133162
0.00151165
0.00731378
0.00972716
0.0105147
0.00973249
0.00698451
0.00119197
0.00080875
0.000672116
0.000632353
0.00062231
0.000620958
0.000626887
0.000663956
0.000860106
0.00378175
0.00509326
0.0050617
0.00130824
0.00269167
0.0105109
0.00936403
0.00955455
0.00995495
0.0101082
0.0100349
0.00994884
0.0100195
0.0103442
0.0109031
0.0115441
0.0120299
0.0120663
0.0112181
0.00894656
0.00545036
0.00168012
0.0058576
0.00968299
0.0123422
0.0131743
0.0122033
0.00862498
0.00154931
0.00136503
0.00130874
0.00128347
0.00126982
0.00126274
0.00126101
0.00126881
0.00133388
0.00500886
0.00679825
0.0061909
0.00147954
0.00268072
0.00981029
0.00986467
0.011346
0.0124676
0.0128588
0.0128895
0.0129926
0.0133075
0.0138385
0.0144867
0.0150864
0.0154484
0.0153686
0.0146067
0.0129922
0.0108433
0.00952638
0.0111574
0.0134934
0.0150887
0.0156038
0.0149477
0.0129677
0.00975265
0.00903975
0.00873975
0.00856594
0.00845172
0.00837326
0.00831969
0.00829567
0.0083859
0.0094818
0.00956073
0.00791631
0.0039486
0.00140378
0.00156479
0.00178574
0.00263453
0.00861995
0.00979756
0.0124634
0.0144939
0.0155108
0.0158678
0.0161506
0.0165547
0.017076
0.0176164
0.0180447
0.0182253
0.0180454
0.0174184
0.0163753
0.0152436
0.0147271
0.0153853
0.016432
0.0171745
0.0173706
0.016944
0.0159163
0.0145537
0.0137993
0.0133636
0.0130872
0.0128974
0.0127576
0.0126456
0.0125482
0.0124679
0.0124158
0.0117018
0.00965371
0.00618769
0.00411189
0.004594
0.00231043
0.00254293
0.00715756
0.00898467
0.0125277
0.0153089
0.0171568
0.0180596
0.0185793
0.0190159
0.0194342
0.0197899
0.0200043
0.0200021
0.01973
0.0191836
0.0184563
0.0177699
0.0174224
0.0175312
0.0178332
0.0180434
0.0180135
0.0176916
0.0171103
0.016411
0.0158571
0.0154563
0.015167
0.0149514
0.0147805
0.0146293
0.0144706
0.0142598
0.0138807
0.0129872
0.0111791
0.0083276
0.00653333
0.00761665
0.00288523
0.00241208
0.00521389
0.00729061
0.0115927
0.0146106
0.0170505
0.018623
0.0194619
0.0199708
0.0203056
0.0204922
0.0205103
0.020336
0.0199638
0.0194206
0.0187921
0.0182128
0.0177975
0.017579
0.0174745
0.017377
0.0172132
0.0169417
0.0165719
0.0161593
0.0157833
0.0154719
0.0152223
0.0150209
0.0148496
0.0146876
0.0145087
0.0142723
0.0138935
0.0131639
0.0117761
0.00948085
0.00758405
0.00982408
0.0036188
0.00219652
0.00238975
0.00490693
0.0103635
0.0128627
0.0151904
0.0171013
0.018272
0.018887
0.0191837
0.0192492
0.0191165
0.0188062
0.0183455
0.0177766
0.0171561
0.0165772
0.0160908
0.015718
0.0154385
0.0152128
0.0150033
0.0147859
0.0145471
0.0142954
0.014054
0.0138388
0.0136552
0.0134998
0.013361
0.0132239
0.013069
0.0128761
0.0126174
0.0122139
0.0114819
0.0101581
0.00879304
0.0107613
0.00381077
0.0028318
0.00911879
0.010752
0.0123876
0.0140532
0.0153445
0.0159464
0.0161691
0.0161447
0.015938
0.0155931
0.0151516
0.0146557
0.0141448
0.0136765
0.0132847
0.0129762
0.0127428
0.0125645
0.0124184
0.0122858
0.0121561
0.0120273
0.0119038
0.0117908
0.0116919
0.0116078
0.0115362
0.0114702
0.011391
0.0112907
0.0111639
0.0110024
0.0107754
0.0104364
0.0101298
0.0101637
0.00304771
0.00247865
0.00838076
0.00898354
0.0099294
0.0110254
0.0117929
0.0119851
0.0119664
0.0118975
0.0118048
0.0116959
0.0115812
0.0114726
0.0113721
0.0112864
0.0112262
0.0111918
0.0111747
0.0111642
0.0111516
0.0111313
0.011102
0.011066
0.0110283
0.0109942
0.0109683
0.0109528
0.0109476
0.0109485
0.0109467
0.0109237
0.0108372
0.010705
0.0105329
0.0103851
0.0102148
0.00806998
0.00250872
0.00108678
0.000906587
0.00124009
0.00185045
0.0020047
0.00206916
0.00211001
0.00213321
0.00216703
0.00219023
0.00220575
0.00221769
0.00222786
0.00223699
0.0022446
0.00224912
0.00225206
0.00225519
0.00225753
0.00225974
0.00226173
0.00226332
0.00226436
0.00226487
0.00226494
0.00226476
0.00226453
0.0022644
0.0022644
0.00226434
0.0022641
0.0022633
0.00226087
0.00225779
0.00225356
0.00225924
0.00229587
0.00234819
0.0023315
0.00207077
)
;

boundaryField
{
    floor
    {
        type            nutkWallFunction;
        Cmu             0.09;
        kappa           0.41;
        E               9.8;
        value           nonuniform List<scalar> 
29
(
0.00013169
0.000106166
0.000124512
0.000131398
0.000134154
0.000132091
0.000121581
0.000100918
8.61589e-05
7.8784e-05
7.59532e-05
7.50922e-05
7.49774e-05
7.53845e-05
7.69503e-05
8.17091e-05
9.26872e-05
0.000100931
0.000105637
0.000101575
0.000101575
0.000131645
0.000156514
0.000175964
0.00013169
0.000106166
0.000147011
0.00017961
0.000198517
)
;
    }
    ceiling
    {
        type            nutkWallFunction;
        Cmu             0.09;
        kappa           0.41;
        E               9.8;
        value           nonuniform List<scalar> 
43
(
0.000130947
0.000109717
0.000148684
0.000217168
0.000234056
0.000241088
0.000245531
0.000248056
0.000251734
0.000254243
0.000255918
0.000257204
0.000258298
0.000259277
0.00026009
0.000260569
0.00026088
0.000261211
0.000261459
0.000261693
0.000261905
0.000262074
0.000262185
0.000262238
0.000262245
0.000262224
0.000262199
0.000262184
0.000262183
0.000262176
0.00026215
0.000262063
0.0002618
0.000261468
0.000261013
0.000261624
0.000265565
0.000271184
0.000269388
0.000241237
0.000254713
0.000275459
0.000285057
)
;
    }
    sWall
    {
        type            nutkWallFunction;
        Cmu             0.09;
        kappa           0.41;
        E               9.8;
        value           uniform 0.000130943;
    }
    nWall
    {
        type            nutkWallFunction;
        Cmu             0.09;
        kappa           0.41;
        E               9.8;
        value           nonuniform List<scalar> 6(0.00021005 0.000267153 0.000328158 0.000345133 0.000288327 0.000241232);
    }
    sideWalls
    {
        type            empty;
    }
    glass1
    {
        type            nutkWallFunction;
        Cmu             0.09;
        kappa           0.41;
        E               9.8;
        value           nonuniform List<scalar> 9(0.000252108 0.000290371 0.000305587 0.000307524 0.00030636 0.000301465 0.000291733 0.000277764 0.000254583);
    }
    glass2
    {
        type            nutkWallFunction;
        Cmu             0.09;
        kappa           0.41;
        E               9.8;
        value           nonuniform List<scalar> 2(0.000403973 0.000423592);
    }
    sun
    {
        type            nutkWallFunction;
        Cmu             0.09;
        kappa           0.41;
        E               9.8;
        value           nonuniform List<scalar> 
14
(
0.000252256
0.000289264
0.000286222
0.000273097
0.000257114
0.000240904
0.000225792
0.000210926
0.000195866
0.000180625
0.000165932
0.000153391
0.000144474
0.00013801
)
;
    }
    heatsource1
    {
        type            nutkWallFunction;
        Cmu             0.09;
        kappa           0.41;
        E               9.8;
        value           nonuniform List<scalar> 3(0.000167412 0.00018552 0.000210078);
    }
    heatsource2
    {
        type            nutkWallFunction;
        Cmu             0.09;
        kappa           0.41;
        E               9.8;
        value           nonuniform List<scalar> 4(0.000158752 0.000118686 0.000118686 0.00015934);
    }
    Table_master
    {
        type            nutkWallFunction;
        Cmu             0.09;
        kappa           0.41;
        E               9.8;
        value           nonuniform List<scalar> 9(0.000143254 9.80507e-05 8.13813e-05 7.64621e-05 7.52149e-05 7.50474e-05 7.57861e-05 8.03868e-05 0.000104267);
    }
    Table_slave
    {
        type            nutkWallFunction;
        Cmu             0.09;
        kappa           0.41;
        E               9.8;
        value           nonuniform List<scalar> 9(0.000183921 0.000163098 0.000156679 0.000153789 0.000152224 0.00015141 0.000151211 0.000152105 0.000159554);
    }
    inlet
    {
        type            calculated;
        value           uniform 6.7082e-05;
    }
    outlet
    {
        type            calculated;
        value           nonuniform List<scalar> 2(0.00108678 0.000906587);
    }
}


// ************************************************************************* //
