/*--------------------------------*- C++ -*----------------------------------*\
  =========                 |
  \\      /  F ield         | OpenFOAM: The Open Source CFD Toolbox
   \\    /   O peration     | Website:  https://openfoam.org
    \\  /    A nd           | Version:  6
     \\/     M anipulation  |
\*---------------------------------------------------------------------------*/
FoamFile
{
    version     2.0;
    format      ascii;
    class       surfaceScalarField;
    location    "20";
    object      phi;
}
// * * * * * * * * * * * * * * * * * * * * * * * * * * * * * * * * * * * * * //

dimensions      [1 0 -1 0 0 0 0];

internalField   nonuniform List<scalar> 
852
(
0.00344167
-0.00346583
0.00470948
-0.0012703
0.00584446
-0.00113777
0.00660028
-0.000758864
0.00690065
-0.000303657
0.00685922
3.79917e-05
0.00656575
0.000289954
0.00607022
0.000492099
0.00541295
0.000654065
0.00463294
0.00077724
0.00377136
0.000859417
0.00287523
0.000894672
0.00198556
0.000888858
0.0010891
0.000896085
0.00108298
0.000214536
-0.000221653
0.000151129
6.33333e-05
6.78638e-05
8.32037e-05
6.13735e-05
6.44053e-06
9.66902e-05
-3.53611e-05
0.000137715
-4.10704e-05
0.000156398
-1.87367e-05
0.000155566
7.70557e-07
0.000151029
4.46972e-06
0.000147712
3.2482e-06
0.000145921
1.72064e-06
0.000144939
9.11527e-07
0.000141734
3.13387e-06
0.00012362
1.80436e-05
5.78582e-05
6.56908e-05
-7.25075e-05
0.000130293
-0.000254541
0.000181954
-0.000373741
0.000119127
-0.000381087
0.00179447
-0.00532176
0.00328629
-0.00276362
0.0043393
-0.0021926
0.00488462
-0.00130636
0.00509276
-0.00051434
0.00503776
9.01462e-05
0.00476948
0.000555246
0.00434388
0.000914775
0.00381492
0.00118038
0.00323434
0.00135565
0.00265062
0.00144156
0.00210389
0.0014404
0.00162638
0.00136581
0.00128572
0.00123645
0.00124965
0.00111888
0.000449562
0.000799922
0.000449453
-0.000219368
-1.89205e-05
-0.000115571
-4.05001e-05
-1.32443e-05
-1.91546e-05
4.87604e-05
-5.55897e-05
9.60739e-05
-8.26971e-05
0.000138344
-8.3362e-05
0.000151929
-3.23464e-05
0.000150944
1.73034e-06
0.000150576
4.81218e-06
0.000150265
3.53527e-06
0.000149919
2.04249e-06
0.000149334
1.47269e-06
0.000148081
4.3625e-06
0.00014707
1.90272e-05
0.000136001
7.67254e-05
0.000135278
0.000130978
0.000121662
0.000195526
0.000147862
9.28837e-05
-0.00025138
0.000885523
-0.00630426
0.00210583
-0.00398452
0.00288997
-0.00297762
0.00323001
-0.00164767
0.0033407
-0.000626727
0.00327082
0.000157948
0.0030591
0.000764721
0.00275572
0.00121597
0.00240806
0.00152612
0.00205577
0.00170644
0.00172805
0.00176824
0.00143997
0.00172785
0.00119441
0.001611
0.000981606
0.00144904
0.000794236
0.00130611
0.000456374
0.00113769
0.00090578
-0.000183434
0.00014093
-8.79118e-05
-0.000136043
2.03235e-05
-0.000127409
8.03107e-05
-0.000115593
0.000115306
-0.000117707
0.000161912
-0.000129981
0.000129702
0.000131571
0.000136523
0.0001402
0.000142385
0.000144
0.000148505
0.000167672
0.000244532
0.000366719
8.77208e-06
0.000481682
8.05405e-05
0.000471838
0.000102706
0.000194053
0.00023851
-0.00667626
0.00102009
-0.00476598
0.00144369
-0.00340128
0.0016154
-0.00181979
0.00167529
-0.000687454
0.00163801
0.000194018
0.00153576
0.000865556
0.00139854
0.00135178
0.0012512
0.00167225
0.00111194
0.00184477
0.000990042
0.00188951
0.000885301
0.00183219
0.000791116
0.00170494
0.000697799
0.00154221
0.000618888
0.00138491
0.000549993
0.00120652
0.000540674
0.000915058
0.000334234
0.000180258
0.000322911
0.000152235
0.00020991
-2.30572e-05
0.000167704
-8.52158e-05
0.000155919
-0.00010382
0.000147596
-0.000109394
0.000116269
-9.86624e-05
0.000167613
-5.15008e-05
0.000193106
-2.56481e-05
0.000207626
-1.46733e-05
0.0002175
-1.00263e-05
0.000227363
-1.00159e-05
0.000241199
-1.39879e-05
0.00026324
-2.21936e-05
0.00029888
-3.57928e-05
0.000360293
-6.15648e-05
0.000434738
-6.56785e-05
0.000568971
-5.37e-05
0.000646109
2.55597e-05
0.000806567
-0.000351433
-0.00649538
-0.000180971
-0.00493582
3.84211e-05
-0.00362016
0.000166714
-0.00194786
0.000241451
-0.000762368
0.000287064
0.000147878
0.000316386
0.000835485
0.000338086
0.00132929
0.000358991
0.00165065
0.000382756
0.00182047
0.000408607
0.00186329
0.00043259
0.00180797
0.000450415
0.00168696
0.000462387
0.00153013
0.000486904
0.00136032
0.000537199
0.00115617
0.000601997
0.000850223
0.000423175
0.000359056
0.000368424
0.000206968
0.000295279
5.00747e-05
0.000244838
-3.47858e-05
0.000215338
-7.43291e-05
0.000194846
-8.89097e-05
0.000179966
-8.3789e-05
0.000187639
-5.91778e-05
0.00019925
-3.72629e-05
0.00020818
-2.36064e-05
0.000215416
-1.72642e-05
0.000222451
-1.70529e-05
0.000230544
-2.20825e-05
0.000240304
-3.19552e-05
0.000251415
-4.69048e-05
0.000253391
-6.35422e-05
0.000250276
-6.25652e-05
0.000231224
-3.46501e-05
0.000173015
8.37675e-05
0.000297536
0.000682044
-0.000667411
0.000964786
-0.00124709
0.000579603
-0.00129183
-0.00102084
-0.00568289
-0.00119613
-0.00475962
-0.00109159
-0.00372383
-0.00101912
-0.00201974
-0.00090074
-0.000880529
-0.000757428
4.47735e-06
-0.000610025
0.000687776
-0.000462581
0.00118145
-0.000318293
0.00150599
-0.000180025
0.0016819
-5.14314e-05
0.00173447
6.35259e-05
0.00169285
0.000163244
0.00158714
0.000251928
0.00144137
0.000342349
0.00126984
0.000438099
0.00106037
0.000505358
0.000782933
0.000419893
0.000444499
0.000378136
0.00024871
0.000329131
9.90673e-05
0.000286798
7.53811e-06
0.000254615
-4.2154e-05
0.000229822
-6.41229e-05
0.000211904
-6.58765e-05
0.000205385
-5.26631e-05
0.000205215
-3.70964e-05
0.00020713
-2.5524e-05
0.000209559
-1.96961e-05
0.000212049
-1.9545e-05
0.000214157
-2.41917e-05
0.000214351
-3.2151e-05
0.000207944
-4.04999e-05
0.000185474
-4.10729e-05
0.000138543
-1.56344e-05
4.0714e-05
6.31812e-05
-0.000149912
0.0002744
-0.000286067
0.000818219
-0.000497095
0.00117588
-0.00070143
0.000784048
-0.00203786
-0.00166431
-0.00426522
-0.00215236
-0.00427058
-0.00209281
-0.00378242
-0.00199302
-0.00211879
-0.0017909
-0.00108222
-0.0015511
-0.000235148
-0.00130685
0.000443484
-0.00106804
0.000942497
-0.000838455
0.00127623
-0.000621846
0.00146513
-0.000421769
0.00153427
-0.000241047
0.00151203
-7.99324e-05
0.00142595
6.4281e-05
0.0012971
0.000197227
0.00113685
0.000316086
0.000941479
0.000393944
0.000705049
0.000387072
0.000451351
0.000370119
0.000265649
0.000340255
0.000128921
0.000308012
3.97728e-05
0.000278403
-1.25521e-05
0.000252654
-3.83797e-05
0.000231927
-4.51547e-05
0.000218485
-3.92252e-05
0.00021065
-2.92646e-05
0.000206067
-2.09447e-05
0.000203156
-1.67872e-05
0.00020094
-1.73316e-05
0.000198557
-2.1811e-05
0.000194634
-2.82292e-05
0.000186562
-3.24298e-05
0.000170734
-2.52453e-05
0.000144683
1.04176e-05
0.000105485
0.000102382
6.80229e-05
0.000311871
0.000119839
0.000766425
9.00934e-05
0.00120569
8.59738e-05
0.000788262
-0.00199618
-0.00228231
-0.00226721
-0.00333523
-0.00321672
-0.00313038
-0.00398639
-0.00275812
-0.00249027
-0.0024222
-0.00141763
-0.00211398
-0.000543097
-0.00181245
0.000142051
-0.00151927
0.000649303
-0.00123691
0.000993808
-0.000969338
0.00119748
-0.000719651
0.0012845
-0.000490446
0.00128276
-0.000282955
0.0012184
-9.7119e-05
0.00111121
6.73494e-05
0.000972343
0.000205652
0.000803147
0.000301379
0.000609301
0.00033964
0.000413073
0.000348542
0.000256734
0.000337445
0.000140008
0.000316398
6.08115e-05
0.00029171
1.21296e-05
0.000266947
-1.36217e-05
0.000244655
-2.28677e-05
0.000226898
-2.14725e-05
0.000213505
-1.58753e-05
0.000203376
-1.0818e-05
0.000195426
-8.84075e-06
0.000188843
-1.07515e-05
0.000183122
-1.60926e-05
0.000178239
-2.33476e-05
0.000175458
-2.96512e-05
0.000178614
-2.84023e-05
0.000197527
-8.49359e-06
0.000256856
4.30575e-05
0.000421035
0.000147701
0.000842124
0.000345357
0.00152839
0.000519467
0.00205696
0.000259763
-0.000254234
-0.00263171
-0.00588531
-0.00377694
-0.0060941
-0.00288018
-0.0033863
-0.00265924
-0.00163808
-0.00242774
-0.0007743
-0.00214307
-0.000142459
-0.00183903
0.00034532
-0.00153493
0.000689703
-0.0012395
0.000902017
-0.000957052
0.00100202
-0.000692023
0.00101769
-0.000448466
0.000974802
-0.000229913
0.000892626
-4.01956e-05
0.000782596
0.000115416
0.000647511
0.000228848
0.000495851
0.000294288
0.000347618
0.000324449
0.000226562
0.000329255
0.000135193
0.000318193
7.18663e-05
0.000298413
3.1904e-05
0.000274966
9.81994e-06
0.000251463
6.30832e-07
0.000230365
-3.78866e-07
0.000212446
2.0396e-06
0.000197422
4.20181e-06
0.000184653
3.92465e-06
0.000173539
3.59527e-07
0.000163799
-6.35585e-06
0.000156036
-1.55874e-05
0.000153806
-2.74235e-05
0.000164217
-3.88144e-05
0.000200105
-4.43812e-05
0.000292323
-4.91557e-05
0.000507195
-6.71598e-05
0.000970443
-0.000117868
0.00171898
-0.000229029
0.0022764
-0.000297601
0.00167453
-0.000248549
-0.00144623
-0.00214024
-0.00149398
-0.00254883
-0.00122906
-0.00251267
-0.000810184
-0.00232326
-0.000331716
-0.00205255
7.46824e-05
-0.00175762
0.000394802
-0.00145387
0.000598251
-0.00115042
0.00069855
-0.00085719
0.000724427
-0.000582908
0.000700491
-0.000335052
0.000644742
-0.000121345
0.000568865
5.19848e-05
0.000474161
0.000181859
0.000365961
0.000265216
0.000264249
0.000309447
0.000182322
0.000324298
0.000120334
0.000319194
7.69632e-05
0.000301927
4.91654e-05
0.000278415
3.33261e-05
0.000253019
2.60213e-05
0.000228642
2.39939e-05
0.000206567
2.411e-05
0.000186904
2.38596e-05
0.000169198
2.16268e-05
0.000152901
1.6652e-05
0.000137755
8.78614e-06
0.000123817
-1.65337e-06
0.00011277
-1.63805e-05
0.0001088
-3.48466e-05
0.00011494
-5.05198e-05
0.000138961
-7.31708e-05
0.000184928
-0.00011311
0.000231298
-0.000164205
0.000184724
-0.000182401
-6.38056e-05
-4.89973e-05
0.00154882
-0.00120817
-0.000296728
-0.00205428
-0.000647367
-0.00218532
-0.00109768
-0.00228339
-0.000711908
-0.00229808
-0.000316905
-0.00217705
-4.6281e-05
-0.00194094
0.000158723
-0.00164543
0.000302734
-0.00132577
0.000378884
-0.00100485
0.000403486
-0.0006988
0.000394415
-0.000418546
0.000364467
-0.000170499
0.0003208
3.8252e-05
0.000265395
0.000189151
0.00021505
0.000278149
0.000175241
0.000322772
0.000137692
0.000335807
0.000107292
0.000328041
8.47229e-05
0.000307941
6.92586e-05
0.000281655
5.96066e-05
0.000253376
5.42949e-05
0.000225607
5.1757e-05
0.000199335
5.03768e-05
0.000174495
4.86948e-05
0.00015057
4.55464e-05
0.000127165
4.0051e-05
0.000104544
3.14025e-05
8.22378e-05
2.06475e-05
5.62071e-05
9.64571e-06
2.41062e-05
-2.74875e-06
-6.61858e-06
-1.97946e-05
-4.08251e-05
-3.89557e-05
-8.42281e-05
-6.96833e-05
-0.000142153
-0.000106234
-0.000276652
-4.78323e-05
-0.000716556
0.000390998
0.000752616
-0.00190876
0.00174958
0.00132285
0.000583285
-0.000600746
-0.00139818
-0.00179985
-0.00193045
-0.00185516
-0.00163531
-0.001339
-0.00101786
-0.000705601
-0.000423119
-0.000184157
-5.27423e-07
0.000132826
0.000226473
0.000282649
0.000308494
0.000311831
0.000299748
0.000278042
0.000251033
0.000221484
0.000190543
0.000157908
0.000122114
8.08183e-05
3.08637e-05
-2.98575e-05
-0.000101599
-0.000185797
-0.000287125
-0.000407749
-0.000558979
-0.000745807
-0.000872978
-0.000562141
)
;

boundaryField
{
    floor
    {
        type            calculated;
        value           nonuniform List<scalar> 
29
(
0
0
0
0
0
0
0
0
0
0
0
0
0
0
0
0
0
0
0
0
7.29551e-06
1.81261e-05
2.63912e-05
3.35897e-05
5.994e-06
7.04894e-06
1.65993e-05
2.35637e-05
2.6162e-05
)
;
    }
    ceiling
    {
        type            calculated;
        value           nonuniform List<scalar> 
43
(
0.000148737
0.00016956
0.000130425
9.27162e-05
8.66819e-05
8.56769e-05
8.48355e-05
8.43571e-05
8.34483e-05
8.28819e-05
8.25557e-05
8.23303e-05
8.2143e-05
8.19695e-05
8.18237e-05
8.17528e-05
8.16869e-05
8.15842e-05
8.15074e-05
8.14378e-05
8.13776e-05
8.13321e-05
8.13044e-05
8.12939e-05
8.1297e-05
8.1308e-05
8.13206e-05
8.13305e-05
8.13374e-05
8.1347e-05
8.13586e-05
8.13773e-05
8.14411e-05
8.153e-05
8.16752e-05
8.15745e-05
8.06513e-05
7.94237e-05
8.02668e-05
8.91423e-05
4.1834e-05
3.76662e-05
5.91943e-05
)
;
    }
    sWall
    {
        type            calculated;
        value           uniform 0.000191352;
    }
    nWall
    {
        type            calculated;
        value           nonuniform List<scalar> 6(4.46648e-05 4.4715e-05 4.44023e-05 6.19986e-05 7.97529e-05 0.000101454);
    }
    sideWalls
    {
        type            empty;
        value           nonuniform 0();
    }
    glass1
    {
        type            calculated;
        value           nonuniform List<scalar> 9(2.2116e-05 6.0425e-05 9.67136e-05 0.00013376 0.000171175 0.000209192 0.000247589 0.000285248 0.000323573);
    }
    glass2
    {
        type            calculated;
        value           nonuniform List<scalar> 2(0.000315116 0.000347731);
    }
    sun
    {
        type            calculated;
        value           uniform 0;
    }
    heatsource1
    {
        type            calculated;
        value           nonuniform List<scalar> 3(2.01105e-07 2.00941e-07 2.01001e-07);
    }
    heatsource2
    {
        type            calculated;
        value           nonuniform List<scalar> 4(5.02865e-08 5.04186e-08 0 0);
    }
    Table_master
    {
        type            calculated;
        value           nonuniform List<scalar> 9(-1.51157e-07 -1.51316e-07 -1.51337e-07 -1.51343e-07 -1.51344e-07 -1.51344e-07 -1.51341e-07 -1.51329e-07 -1.51235e-07);
    }
    Table_slave
    {
        type            calculated;
        value           nonuniform List<scalar> 9(1.50953e-07 1.51101e-07 1.51109e-07 1.51112e-07 1.51112e-07 1.5111e-07 1.51104e-07 1.51091e-07 1.50998e-07);
    }
    inlet
    {
        type            calculated;
        value           uniform -0.00439898;
    }
    outlet
    {
        type            calculated;
        value           nonuniform List<scalar> 2(0.00156904 -0.00382754);
    }
}


// ************************************************************************* //
