/*--------------------------------*- C++ -*----------------------------------*\
  =========                 |
  \\      /  F ield         | OpenFOAM: The Open Source CFD Toolbox
   \\    /   O peration     | Website:  https://openfoam.org
    \\  /    A nd           | Version:  6
     \\/     M anipulation  |
\*---------------------------------------------------------------------------*/
FoamFile
{
    version     2.0;
    format      ascii;
    class       volScalarField;
    location    "20";
    object      T;
}
// * * * * * * * * * * * * * * * * * * * * * * * * * * * * * * * * * * * * * //

dimensions      [0 0 0 1 0 0 0];

internalField   nonuniform List<scalar> 
459
(
303.604
303.764
303.913
304.059
304.206
304.356
304.512
304.672
304.833
304.989
305.129
305.242
305.32
305.361
305.352
305.308
305.359
305.386
305.397
305.399
305.395
305.384
305.376
305.372
305.371
305.37
305.37
305.37
305.371
305.372
305.375
305.365
305.345
305.322
303.473
303.668
303.844
304.026
304.208
304.391
304.579
304.764
304.938
305.091
305.216
305.306
305.363
305.393
305.399
305.427
305.456
305.398
305.423
305.434
305.44
305.443
305.443
305.442
305.442
305.443
305.444
305.445
305.445
305.444
305.442
305.437
305.432
305.424
305.416
305.4
303.4
303.614
303.84
304.076
304.296
304.504
304.704
304.889
305.05
305.181
305.279
305.346
305.388
305.411
305.422
305.438
305.455
305.432
305.446
305.451
305.455
305.457
305.458
305.459
305.462
305.464
305.465
305.466
305.466
305.465
305.464
305.458
305.454
305.449
305.444
305.43
303.356
303.586
303.892
304.21
304.465
304.677
304.861
305.019
305.15
305.251
305.324
305.372
305.403
305.422
305.434
305.445
305.454
305.45
305.454
305.458
305.46
305.462
305.463
305.465
305.47
305.472
305.473
305.474
305.474
305.474
305.474
305.473
305.471
305.466
305.463
305.459
305.448
303.323
303.564
303.968
304.386
304.656
304.848
305
305.125
305.224
305.3
305.353
305.39
305.414
305.429
305.44
305.449
305.455
305.459
305.461
305.463
305.464
305.466
305.467
305.468
305.47
305.472
305.472
305.473
305.473
305.473
305.473
305.473
305.472
305.47
305.469
305.469
305.471
305.527
305.583
305.615
303.278
303.53
304.007
304.517
304.798
304.971
305.096
305.195
305.272
305.33
305.372
305.401
305.421
305.435
305.445
305.452
305.457
305.461
305.463
305.465
305.466
305.467
305.468
305.469
305.47
305.471
305.472
305.472
305.472
305.472
305.472
305.472
305.472
305.472
305.473
305.477
305.488
305.529
305.584
305.65
303.195
303.41
303.923
304.599
304.902
305.061
305.165
305.244
305.305
305.351
305.385
305.409
305.426
305.439
305.448
305.454
305.459
305.462
305.465
305.466
305.467
305.468
305.469
305.47
305.47
305.471
305.471
305.471
305.472
305.472
305.472
305.472
305.472
305.473
305.475
305.479
305.49
305.522
305.573
305.686
303.055
303.153
303.588
304.627
304.977
305.13
305.217
305.28
305.329
305.367
305.395
305.416
305.431
305.442
305.45
305.456
305.46
305.463
305.465
305.466
305.467
305.468
305.469
305.469
305.47
305.47
305.47
305.47
305.47
305.471
305.471
305.471
305.471
305.473
305.475
305.48
305.491
305.516
305.566
305.746
302.843
302.707
302.709
304.603
305.033
305.185
305.261
305.311
305.35
305.381
305.404
305.422
305.435
305.445
305.452
305.457
305.461
305.463
305.465
305.466
305.467
305.467
305.468
305.468
305.468
305.469
305.469
305.469
305.469
305.469
305.469
305.469
305.47
305.472
305.474
305.48
305.491
305.515
305.564
305.746
301.293
304.614
305.088
305.233
305.299
305.339
305.37
305.394
305.413
305.428
305.439
305.447
305.453
305.458
305.461
305.463
305.464
305.465
305.465
305.466
305.466
305.466
305.466
305.466
305.466
305.466
305.466
305.467
305.467
305.467
305.468
305.469
305.473
305.479
305.493
305.519
305.567
305.675
304.574
304.991
305.167
305.273
305.329
305.363
305.387
305.406
305.422
305.433
305.442
305.449
305.454
305.457
305.459
305.461
305.461
305.462
305.462
305.462
305.462
305.462
305.463
305.463
305.463
305.463
305.463
305.463
305.463
305.463
305.464
305.465
305.469
305.477
305.492
305.521
305.567
305.631
305.619
305.546
305.384
305.195
305.178
305.295
305.352
305.382
305.401
305.415
305.426
305.434
305.44
305.445
305.448
305.449
305.45
305.451
305.451
305.451
305.451
305.451
305.45
305.45
305.45
305.45
305.45
305.45
305.45
305.45
305.45
305.45
305.45
305.451
305.455
305.464
305.482
305.51
305.546
305.591
)
;

boundaryField
{
    floor
    {
        type            wallHeatTransfer;
        Tinf            uniform 297.65;
        alphaWall       uniform 0.24;
        value           nonuniform List<scalar> 
29
(
304.545
304.362
304.515
304.573
304.596
304.589
304.532
304.392
304.266
304.192
304.161
304.152
304.151
304.155
304.172
304.221
304.321
304.376
304.391
304.343
304.343
304.587
304.718
304.8
304.545
304.362
304.653
304.797
304.865
)
;
    }
    ceiling
    {
        type            wallHeatTransfer;
        Tinf            uniform 297.65;
        alphaWall       uniform 0.24;
        value           nonuniform List<scalar> 
43
(
304.779
304.593
304.647
304.67
304.687
304.809
304.87
304.902
304.926
304.943
304.956
304.966
304.974
304.979
304.983
304.986
304.987
304.988
304.988
304.989
304.989
304.989
304.989
304.989
304.989
304.989
304.989
304.989
304.989
304.989
304.988
304.988
304.988
304.989
304.992
305.001
305.024
305.058
305.09
305.086
302.53
302.422
304.195
)
;
    }
    sWall
    {
        type            wallHeatTransfer;
        Tinf            uniform 298.15;
        alphaWall       uniform 0.36;
        value           uniform 304.498;
    }
    nWall
    {
        type            wallHeatTransfer;
        Tinf            uniform 299.15;
        alphaWall       uniform 0.36;
        value           nonuniform List<scalar> 6(304.944 305.098 305.222 305.232 305.116 304.996);
    }
    sideWalls
    {
        type            empty;
    }
    glass1
    {
        type            wallHeatTransfer;
        Tinf            uniform 298.15;
        alphaWall       uniform 4.3;
        value           nonuniform List<scalar> 9(300.685 300.799 300.825 300.81 300.788 300.746 300.665 300.539 300.342);
    }
    glass2
    {
        type            wallHeatTransfer;
        Tinf            uniform 299.15;
        alphaWall       uniform 4.3;
        value           nonuniform List<scalar> 2(302.932 303.005);
    }
    sun
    {
        type            wallHeatTransfer;
        Tinf            uniform 297.65;
        alphaWall       uniform 0.24;
        value           nonuniform List<scalar> 
14
(
303.243
303.436
303.573
303.697
303.815
303.933
304.053
304.174
304.29
304.394
304.478
304.537
304.573
304.582
)
;
    }
    heatsource1
    {
        type            fixedGradient;
        gradient        uniform 0;
    }
    heatsource2
    {
        type            fixedGradient;
        gradient        uniform 0;
    }
    Table_master
    {
        type            zeroGradient;
    }
    Table_slave
    {
        type            zeroGradient;
    }
    inlet
    {
        type            fixedValue;
        value           uniform 299.15;
    }
    outlet
    {
        type            zeroGradient;
    }
}


// ************************************************************************* //
