/*--------------------------------*- C++ -*----------------------------------*\
  =========                 |
  \\      /  F ield         | OpenFOAM: The Open Source CFD Toolbox
   \\    /   O peration     | Website:  https://openfoam.org
    \\  /    A nd           | Version:  6
     \\/     M anipulation  |
\*---------------------------------------------------------------------------*/
FoamFile
{
    version     2.0;
    format      ascii;
    class       volVectorField;
    location    "20";
    object      U;
}
// * * * * * * * * * * * * * * * * * * * * * * * * * * * * * * * * * * * * * //

dimensions      [0 1 -1 0 0 0 0];

internalField   nonuniform List<vector> 
459
(
(-0.0967406 -0.141723 0)
(0.194312 -0.0714901 0)
(0.253134 -0.0504479 0)
(0.274446 -0.0358958 0)
(0.292685 -0.0222633 0)
(0.300468 -0.0113996 0)
(0.29383 -0.00246072 0)
(0.276242 0.00527003 0)
(0.250707 0.0121887 0)
(0.219116 0.0184045 0)
(0.182966 0.0236501 0)
(0.144017 0.0271338 0)
(0.10426 0.0282503 0)
(0.0627728 0.0287291 0)
(0.0694219 0.0331509 0)
(-0.0933428 -0.00699087 0)
(0.0246831 -0.00133367 0)
(0.0108413 0.00343201 0)
(0.00210047 0.000561141 0)
(0.00305553 -0.00119603 0)
(0.00520705 -0.0014413 0)
(0.00649748 -0.00052969 0)
(0.00683961 7.41116e-05 0)
(0.0066776 0.000217118 0)
(0.00647438 0.000201524 0)
(0.00635539 0.000159824 0)
(0.00629848 0.000124996 0)
(0.00623094 0.0001607 0)
(0.00587668 0.000542843 0)
(0.004726 0.00195306 0)
(0.00126866 0.00482666 0)
(-0.0191745 0.00694303 0)
(-0.0347262 -0.000452898 0)
(0.10033 -0.014917 0)
(-0.264332 -0.198155 0)
(0.183521 -0.0909989 0)
(0.182772 -0.0702046 0)
(0.198468 -0.0429698 0)
(0.216347 -0.0158557 0)
(0.222273 0.00541775 0)
(0.215181 0.0212814 0)
(0.199398 0.0334166 0)
(0.178062 0.0425387 0)
(0.153427 0.0488432 0)
(0.127568 0.0522949 0)
(0.102478 0.0528149 0)
(0.0797799 0.0508436 0)
(0.0595046 0.0473515 0)
(0.056101 0.0471002 0)
(0.0406674 0.0334775 0)
(0.0108614 0.0151506 0)
(-0.123723 -0.00481411 0)
(0.00742456 -0.00301633 0)
(0.000139838 0.000730388 0)
(0.000587549 -0.0010536 0)
(0.00299783 -0.00260081 0)
(0.0051698 -0.00276243 0)
(0.00642077 -0.000999537 0)
(0.00669826 6.30626e-05 0)
(0.006581 0.000341395 0)
(0.00652364 0.00034128 0)
(0.00650804 0.000284198 0)
(0.00649319 0.000265575 0)
(0.00645524 0.000446384 0)
(0.00632221 0.00131119 0)
(0.00641604 0.00359097 0)
(0.00726016 0.00669296 0)
(0.00171494 0.00929193 0)
(-0.023424 0.00309048 0)
(0.156804 -0.0132332 0)
(-0.38215 -0.257338 0)
(0.185909 -0.150357 0)
(0.111848 -0.115698 0)
(0.127427 -0.0678071 0)
(0.143326 -0.0274747 0)
(0.146054 0.00370037 0)
(0.139202 0.0280511 0)
(0.127238 0.0466049 0)
(0.112564 0.0598174 0)
(0.0969069 0.0679444 0)
(0.0817712 0.0712584 0)
(0.0681906 0.0702444 0)
(0.0565061 0.0658771 0)
(0.0459164 0.0594228 0)
(0.0394053 0.0537891 0)
(0.0293089 0.0435768 0)
(0.00942051 0.0353608 0)
(-0.116684 0.0104302 0)
(0.00417756 -0.00200638 0)
(0.000815031 -0.00373273 0)
(0.00230347 -0.00420972 0)
(0.00421671 -0.00468609 0)
(0.00582603 -0.00505486 0)
(0.00672645 -0.00392334 0)
(0.00599112 -0.00254155 0)
(0.00576725 -0.00260059 0)
(0.0059789 -0.00278974 0)
(0.00613586 -0.00289672 0)
(0.0062141 -0.00294263 0)
(0.00625952 -0.00287317 0)
(0.00639801 -0.0022555 0)
(0.00946642 0.00158592 0)
(0.0144576 0.00351339 0)
(0.0151423 0.00583958 0)
(-0.00220499 0.00313751 0)
(0.171951 -0.00116656 0)
(-0.472086 -0.286607 0)
(0.185577 -0.193065 0)
(0.0396722 -0.141621 0)
(0.0614532 -0.0773636 0)
(0.0728962 -0.0290274 0)
(0.0738522 0.00800046 0)
(0.0700886 0.0363204 0)
(0.0643321 0.0570693 0)
(0.057776 0.0709818 0)
(0.0512629 0.0786909 0)
(0.0454177 0.0809119 0)
(0.0404491 0.0786148 0)
(0.0361506 0.0731209 0)
(0.0319127 0.0659398 0)
(0.0286892 0.0592399 0)
(0.025467 0.0514467 0)
(0.0220887 0.0373587 0)
(0.0248046 -0.0703902 0)
(0.00596448 -0.0020791 0)
(0.0137875 -0.00473679 0)
(0.00837262 -0.00522513 0)
(0.00681194 -0.00518599 0)
(0.00648515 -0.00521883 0)
(0.00600987 -0.00505296 0)
(0.00566243 -0.00318456 0)
(0.00761566 -0.00197887 0)
(0.00874629 -0.00152122 0)
(0.00926033 -0.00134483 0)
(0.00965377 -0.00133605 0)
(0.0101536 -0.0014641 0)
(0.0108991 -0.00173677 0)
(0.0119856 -0.00221716 0)
(0.0148607 -0.00359044 0)
(0.0174049 -0.00252697 0)
(0.0185243 -0.000502782 0)
(0.00750786 0.00313151 0)
(0.175017 0.0246566 0)
(-0.525988 -0.289454 0)
(0.159194 -0.213716 0)
(-0.0286773 -0.153628 0)
(0.00351289 -0.0809424 0)
(0.0100089 -0.0299903 0)
(0.012676 0.00918967 0)
(0.0138905 0.0387157 0)
(0.0146606 0.0599072 0)
(0.0153601 0.0736906 0)
(0.0161755 0.0809339 0)
(0.0171776 0.082641 0)
(0.0182474 0.0800332 0)
(0.0191495 0.074525 0)
(0.0196765 0.0675205 0)
(0.0205092 0.0603519 0)
(0.0222787 0.0520595 0)
(0.0244253 0.0393061 0)
(0.0231991 0.0157863 0)
(0.0165862 0.0101185 0)
(0.0145862 0.00109654 0)
(0.0115263 -0.00254599 0)
(0.00980724 -0.00391921 0)
(0.00880338 -0.00434627 0)
(0.00803367 -0.00397731 0)
(0.00789046 -0.00255264 0)
(0.00835635 -0.00151648 0)
(0.00884626 -0.000890864 0)
(0.00919713 -0.00060487 0)
(0.0094947 -0.000591929 0)
(0.00981985 -0.000808253 0)
(0.0102181 -0.00125472 0)
(0.010643 -0.00199482 0)
(0.0110837 -0.00291779 0)
(0.0112637 -0.00328022 0)
(0.00962285 -0.00259581 0)
(-0.000157945 0.00208894 0)
(0.0448752 0.0305611 0)
(-0.0639873 0.0335127 0)
(-0.0953576 -0.00208276 0)
(0.245116 -0.0657934 0)
(-0.560684 -0.265782 0)
(0.109778 -0.211108 0)
(-0.073673 -0.156966 0)
(-0.0452166 -0.0843997 0)
(-0.0413029 -0.0344522 0)
(-0.0353172 0.00450768 0)
(-0.0291426 0.034246 0)
(-0.0229189 0.0556367 0)
(-0.0166931 0.0695656 0)
(-0.0106306 0.0769579 0)
(-0.00487643 0.0789149 0)
(0.000406305 0.0766993 0)
(0.00502411 0.0716945 0)
(0.00900705 0.0650715 0)
(0.0128506 0.0575593 0)
(0.0170877 0.048414 0)
(0.0209115 0.0357666 0)
(0.0205794 0.0193296 0)
(0.0172964 0.0105022 0)
(0.0153426 0.00343316 0)
(0.0132657 -0.000528477 0)
(0.0116489 -0.00253269 0)
(0.0104316 -0.00335234 0)
(0.00948904 -0.00328067 0)
(0.00897818 -0.00248767 0)
(0.00886192 -0.00169375 0)
(0.00892874 -0.00114539 0)
(0.00903337 -0.000874417 0)
(0.0091437 -0.000861491 0)
(0.00925318 -0.00107009 0)
(0.00932873 -0.00145554 0)
(0.00923686 -0.00193808 0)
(0.00870564 -0.00224398 0)
(0.00733295 -0.00166332 0)
(0.0040026 0.000785559 0)
(-0.00337342 0.00874455 0)
(0.00419484 0.0349316 0)
(-0.0399456 0.0480984 0)
(-0.115131 0.0254801 0)
(0.301339 -0.084424 0)
(-0.60255 -0.214698 0)
(0.0619419 -0.189384 0)
(-0.115902 -0.158525 0)
(-0.0853929 -0.0870141 0)
(-0.082202 -0.0412376 0)
(-0.0723256 -0.00416621 0)
(-0.061485 0.0252266 0)
(-0.051185 0.0467075 0)
(-0.0410881 0.0609552 0)
(-0.031437 0.0688388 0)
(-0.022414 0.0714518 0)
(-0.014168 0.0700467 0)
(-0.00679552 0.0658576 0)
(-0.000226603 0.0598239 0)
(0.00576749 0.0525007 0)
(0.0113908 0.0435652 0)
(0.0159399 0.0323555 0)
(0.0173773 0.0198732 0)
(0.016554 0.0113242 0)
(0.0154766 0.0050592 0)
(0.0140615 0.00108168 0)
(0.012685 -0.0011936 0)
(0.0114709 -0.00227106 0)
(0.0104455 -0.00248031 0)
(0.00970572 -0.00209077 0)
(0.00926143 -0.00155085 0)
(0.00901218 -0.00112145 0)
(0.00886232 -0.000900513 0)
(0.00875942 -0.000902289 0)
(0.00866947 -0.00109015 0)
(0.0085494 -0.00138032 0)
(0.00831514 -0.0015986 0)
(0.00782629 -0.00133856 0)
(0.00689041 0.000196291 0)
(0.00523518 0.00425233 0)
(0.00342195 0.0138187 0)
(0.011098 0.0363799 0)
(0.00381642 0.0551571 0)
(-0.136693 0.034817 0)
(0.41825 -0.0888845 0)
(-0.651293 -0.130742 0)
(0.00714743 -0.150414 0)
(-0.168678 -0.176854 0)
(-0.115578 -0.100721 0)
(-0.113177 -0.0533113 0)
(-0.0986918 -0.016163 0)
(-0.0847954 0.0133126 0)
(-0.0719557 0.0350701 0)
(-0.0595214 0.0497936 0)
(-0.0476054 0.0583388 0)
(-0.0363906 0.0617632 0)
(-0.0260101 0.0612787 0)
(-0.0165575 0.0580363 0)
(-0.00805923 0.0529119 0)
(-0.000437753 0.0463594 0)
(0.00625698 0.0383837 0)
(0.0114895 0.0290477 0)
(0.0143211 0.0193698 0)
(0.0151581 0.0119236 0)
(0.0150249 0.00639844 0)
(0.0142501 0.00269585 0)
(0.0132058 0.000456729 0)
(0.0121011 -0.000693036 0)
(0.0110568 -0.00105454 0)
(0.0101793 -0.00090203 0)
(0.00951031 -0.000561074 0)
(0.00901227 -0.000260545 0)
(0.00863029 -0.000113676 0)
(0.00832178 -0.000151044 0)
(0.0080576 -0.000343527 0)
(0.00782333 -0.000606603 0)
(0.00763909 -0.000768205 0)
(0.00759236 -0.000459436 0)
(0.00788847 0.000969085 0)
(0.00913643 0.00445835 0)
(0.0137609 0.0118148 0)
(0.029655 0.026519 0)
(0.049114 0.0409209 0)
(-0.059697 0.0228748 0)
(0.720818 -0.039244 0)
(-0.716735 -0.0042505 0)
(-0.0760161 -0.135643 0)
(-0.247639 -0.220514 0)
(-0.111824 -0.127853 0)
(-0.123444 -0.0667752 0)
(-0.111968 -0.0277733 0)
(-0.0993849 0.00129344 0)
(-0.0862371 0.0228674 0)
(-0.0730166 0.0377695 0)
(-0.0599845 0.0467651 0)
(-0.0474275 0.0508322 0)
(-0.035536 0.051155 0)
(-0.0244934 0.0488389 0)
(-0.0144656 0.0447228 0)
(-0.00559225 0.0392982 0)
(0.00202863 0.0326763 0)
(0.00793225 0.0252684 0)
(0.0117566 0.0179219 0)
(0.0137116 0.0119681 0)
(0.0143807 0.00748118 0)
(0.014163 0.00439463 0)
(0.0134318 0.00247098 0)
(0.0124501 0.00143335 0)
(0.0114003 0.00103878 0)
(0.0104168 0.00105764 0)
(0.00956933 0.00124723 0)
(0.0088611 0.00142275 0)
(0.00826558 0.00147984 0)
(0.00775215 0.00138219 0)
(0.00729743 0.00114353 0)
(0.00690281 0.000820206 0)
(0.00664901 0.000504892 0)
(0.00673882 0.000392337 0)
(0.00749978 0.000785073 0)
(0.00979388 0.00184756 0)
(0.0165549 0.00365668 0)
(0.0336885 0.00630852 0)
(0.0541411 0.00635015 0)
(-0.0464527 0.00105431 0)
(0.746244 0.0269497 0)
(-0.312038 -0.160305 0)
(-0.0471799 -0.124233 0)
(-0.101456 -0.0764242 0)
(-0.11165 -0.042645 0)
(-0.106035 -0.0138454 0)
(-0.0952944 0.00856594 0)
(-0.0827558 0.0233113 0)
(-0.0696198 0.032018 0)
(-0.0563521 0.0359403 0)
(-0.0433469 0.0363558 0)
(-0.0309904 0.0343602 0)
(-0.019633 0.0307686 0)
(-0.00959115 0.026105 0)
(-0.00107397 0.0206457 0)
(0.00556712 0.014919 0)
(0.0101214 0.00961989 0)
(0.0127928 0.00529821 0)
(0.0139855 0.00200534 0)
(0.0141129 -0.000325279 0)
(0.013559 -0.00185382 0)
(0.0126227 -0.00276506 0)
(0.0115253 -0.00323119 0)
(0.0104253 -0.00341433 0)
(0.00941219 -0.00347538 0)
(0.00851034 -0.00354382 0)
(0.00770594 -0.00370227 0)
(0.00697243 -0.00398692 0)
(0.00628954 -0.00439273 0)
(0.00565376 -0.00490815 0)
(0.00509663 -0.00562548 0)
(0.00472346 -0.00651838 0)
(0.0046016 -0.00750028 0)
(0.00504022 -0.00892962 0)
(0.00777257 -0.0114956 0)
(0.0136257 -0.0151586 0)
(0.0045148 -0.0174231 0)
(-0.122731 -0.00927972 0)
(0.421877 0.0730691 0)
(-0.221708 -0.168511 0)
(-0.0524166 -0.126937 0)
(-0.0869266 -0.101294 0)
(-0.100529 -0.0883272 0)
(-0.101764 -0.075877 0)
(-0.0980995 -0.061542 0)
(-0.0896501 -0.0441677 0)
(-0.077971 -0.0321162 0)
(-0.0644535 -0.0258579 0)
(-0.0504173 -0.0237834 0)
(-0.036726 -0.0245241 0)
(-0.0239508 -0.0271524 0)
(-0.0124458 -0.0311302 0)
(-0.0024096 -0.0363419 0)
(0.00545685 -0.0424388 0)
(0.0105718 -0.0483857 0)
(0.0133871 -0.053451 0)
(0.0145425 -0.0574337 0)
(0.0145694 -0.0603583 0)
(0.0138947 -0.0623927 0)
(0.0128365 -0.0637558 0)
(0.0116177 -0.0646563 0)
(0.0103825 -0.0652741 0)
(0.00920432 -0.0657622 0)
(0.00809846 -0.0662394 0)
(0.0070471 -0.066792 0)
(0.00602638 -0.0674849 0)
(0.00503034 -0.0683778 0)
(0.00405826 -0.0695568 0)
(0.00300265 -0.0710945 0)
(0.00174614 -0.0729317 0)
(0.00024124 -0.0743624 0)
(-0.0011333 -0.0760266 0)
(-0.000674049 -0.0782626 0)
(-0.00104408 -0.0817607 0)
(-0.0271247 -0.0853596 0)
(-0.108745 -0.0730455 0)
(0.355317 -0.0473358 0)
(-0.756324 -0.0606387 0)
(0.178131 0.173385 0)
(0.0890669 0.5095 0)
(0.0366462 0.3876 0)
(-0.00733265 0.281224 0)
(-0.0510049 0.280753 0)
(-0.072459 0.289626 0)
(-0.082786 0.291264 0)
(-0.0831716 0.282596 0)
(-0.0759828 0.279704 0)
(-0.0644535 0.281474 0)
(-0.0509417 0.285935 0)
(-0.037162 0.292032 0)
(-0.0242536 0.299139 0)
(-0.0128985 0.306857 0)
(-0.00352516 0.313997 0)
(0.00342398 0.318483 0)
(0.00816566 0.321241 0)
(0.0113211 0.324035 0)
(0.0130315 0.326616 0)
(0.0135983 0.328883 0)
(0.013351 0.330867 0)
(0.012573 0.332649 0)
(0.0114844 0.334304 0)
(0.01024 0.335873 0)
(0.00892436 0.337381 0)
(0.00755223 0.338847 0)
(0.00608041 0.340303 0)
(0.0044205 0.341812 0)
(0.00245518 0.343479 0)
(0.000100739 0.34528 0)
(-0.00271009 0.346736 0)
(-0.00614964 0.347999 0)
(-0.0106323 0.348199 0)
(-0.0149807 0.3482 0)
(-0.014828 0.346608 0)
(-0.0177309 0.343807 0)
(-0.0688185 0.349678 0)
(-0.179312 0.368103 0)
(0.523224 0.431056 0)
)
;

boundaryField
{
    floor
    {
        type            noSlip;
    }
    ceiling
    {
        type            noSlip;
    }
    sWall
    {
        type            noSlip;
    }
    nWall
    {
        type            noSlip;
    }
    sideWalls
    {
        type            empty;
    }
    glass1
    {
        type            noSlip;
    }
    glass2
    {
        type            noSlip;
    }
    sun
    {
        type            noSlip;
    }
    heatsource1
    {
        type            noSlip;
    }
    heatsource2
    {
        type            noSlip;
    }
    Table_master
    {
        type            noSlip;
    }
    Table_slave
    {
        type            noSlip;
    }
    inlet
    {
        type            fixedValue;
        value           uniform (0.2 0 0);
    }
    outlet
    {
        type            zeroGradient;
    }
}


// ************************************************************************* //
