/*--------------------------------*- C++ -*----------------------------------*\
  =========                 |
  \\      /  F ield         | OpenFOAM: The Open Source CFD Toolbox
   \\    /   O peration     | Website:  https://openfoam.org
    \\  /    A nd           | Version:  6
     \\/     M anipulation  |
\*---------------------------------------------------------------------------*/
FoamFile
{
    version     2.0;
    format      ascii;
    class       volScalarField;
    location    "300";
    object      nut;
}
// * * * * * * * * * * * * * * * * * * * * * * * * * * * * * * * * * * * * * //

dimensions      [0 2 -1 0 0 0 0];

internalField   nonuniform List<scalar> 
459
(
0.00137003
0.00161399
0.00166023
0.00116072
0.000997843
0.000887092
0.000783675
0.000700713
0.000616782
0.000571967
0.000550375
0.000541417
0.000539156
0.000539804
0.000536868
0.0002848
0.000312551
0.000325751
0.000270635
0.000210701
0.000184537
0.000174784
0.000166443
0.000169618
0.00018103
0.000184765
0.000202004
0.000231237
0.000260824
0.000293295
0.000331682
0.000359892
0.000361767
0.000324279
0.00149128
0.00244586
0.00296168
0.00332933
0.00320548
0.00310223
0.00288999
0.00213501
0.00200052
0.00226609
0.00223717
0.0020874
0.00190734
0.00163616
0.00119885
0.000605354
0.000437894
0.000417092
0.00081472
0.000959426
0.0010069
0.000926191
0.000666967
0.000337335
0.000229696
0.000217632
0.000246824
0.000302878
0.000444674
0.000679501
0.000932829
0.00114272
0.00138851
0.00132835
0.00128063
0.000423071
0.00300633
0.00336458
0.00338845
0.00339912
0.00340694
0.00343361
0.0034802
0.00320129
0.00256561
0.00283004
0.00301456
0.00282168
0.00254892
0.00218588
0.00170289
0.0011714
0.000685521
0.00069463
0.00193767
0.00182448
0.00163668
0.00131368
0.000911989
0.000343772
0.00025656
0.000231243
0.0002764
0.000317934
0.000362333
0.000413444
0.0004758
0.000558969
0.00145656
0.00129499
0.000998897
0.000534175
0.00346199
0.00407091
0.0039039
0.00365413
0.00353206
0.00355753
0.00369958
0.00372785
0.00330536
0.00336484
0.00378298
0.00366917
0.00339033
0.00299588
0.00244186
0.00177949
0.0011885
0.000876812
0.00230855
0.00229724
0.00208209
0.00168886
0.00129073
0.000907782
0.000602354
0.000605089
0.000608881
0.000613242
0.000619751
0.000630797
0.000649334
0.000678989
0.000734883
0.0022097
0.00252006
0.00241209
0.000840228
0.00372243
0.00471256
0.00443026
0.00386648
0.00360013
0.00360551
0.00382722
0.00403363
0.00382131
0.00395234
0.00457672
0.00470479
0.00467046
0.00460757
0.00449149
0.00430604
0.00408052
0.00390152
0.00399041
0.00386257
0.00367155
0.00349835
0.00334591
0.00321538
0.00310687
0.00304658
0.00297523
0.0028955
0.00282432
0.00278507
0.00279531
0.00285902
0.00297295
0.0031422
0.00322398
0.00315013
0.00267021
0.00119461
0.00106854
0.000937106
0.00396408
0.00494989
0.00469192
0.00390579
0.00356087
0.00359914
0.00392854
0.00421274
0.00409719
0.00427137
0.00501509
0.00529655
0.00538983
0.00547285
0.00553503
0.0055482
0.00549215
0.00536907
0.00520459
0.00500708
0.00481962
0.00466649
0.00454577
0.0044451
0.00434479
0.00422566
0.00407064
0.00387825
0.00367122
0.00349387
0.00338473
0.00334935
0.00336293
0.0033866
0.00339324
0.0033503
0.00313077
0.00261317
0.00200609
0.000997664
0.00423899
0.00475526
0.00396434
0.00379082
0.00351886
0.00363363
0.00400645
0.00429202
0.00422321
0.00443869
0.00518429
0.00552523
0.0056762
0.00581429
0.00594229
0.00602893
0.00604279
0.00597192
0.005833
0.00565915
0.0054865
0.00534032
0.00522921
0.00514923
0.00508515
0.00501372
0.00490318
0.00471897
0.00445008
0.00413806
0.00385571
0.00364209
0.00349021
0.00336359
0.00321719
0.00300222
0.00266588
0.00222544
0.00174537
0.00097893
0.00460789
0.00482565
0.00374974
0.00337457
0.00358393
0.0037782
0.0041077
0.00433568
0.00429006
0.00452667
0.00517974
0.00552658
0.00568869
0.00583496
0.00597881
0.00609588
0.00615697
0.00614403
0.00606168
0.00593291
0.00578815
0.00565542
0.00555435
0.00549629
0.00548497
0.00551572
0.00556586
0.0055819
0.00548873
0.00525259
0.00493089
0.00456585
0.00418429
0.00379646
0.00340902
0.00304365
0.00267691
0.00235292
0.00206808
0.00127536
0.00521673
0.00616966
0.0084164
0.00336247
0.00357597
0.00416618
0.00433747
0.00447775
0.00443006
0.00453517
0.00497407
0.00532747
0.0054902
0.00561648
0.00572992
0.00582918
0.00590008
0.00592612
0.00590085
0.00583159
0.00573558
0.00563376
0.00554605
0.00549031
0.005484
0.00554648
0.00569478
0.00592549
0.00617556
0.00631255
0.00626412
0.00608482
0.00587881
0.00574382
0.00566083
0.00532962
0.00458484
0.0038501
0.00385274
0.0015095
0.0147033
0.00778116
0.00295517
0.00462175
0.00481214
0.00482892
0.00460476
0.00455383
0.00477285
0.00501424
0.00515055
0.00523629
0.00530241
0.00536217
0.00541564
0.00545486
0.00547108
0.00546049
0.00542595
0.00537591
0.00532212
0.00527834
0.00526053
0.00528878
0.00538832
0.00558332
0.00587094
0.00616782
0.00639482
0.00649345
0.00646053
0.00636003
0.0062365
0.00603969
0.00554931
0.00475355
0.00418568
0.00151069
0.00606346
0.00428328
0.00449131
0.00476499
0.00477677
0.00451709
0.00421595
0.00409186
0.00414915
0.00427958
0.00441993
0.00455686
0.00468154
0.00478852
0.00487509
0.00494006
0.0049834
0.00500658
0.00501303
0.00500793
0.00499762
0.00498901
0.00498929
0.00500613
0.00504787
0.0051226
0.00523132
0.00532691
0.00540522
0.00545692
0.00546656
0.00542987
0.00534961
0.00511226
0.00467412
0.00396927
0.0037981
0.00141134
0.00184639
0.00270969
0.0043158
0.00256957
0.00174221
0.00174906
0.00165184
0.00154842
0.00145447
0.00137836
0.00131658
0.00126749
0.00123189
0.0012072
0.00119116
0.00118152
0.00117618
0.00117323
0.00117114
0.00116881
0.00116563
0.00116144
0.00115642
0.00115097
0.00114559
0.00114082
0.00113709
0.00113468
0.00113372
0.00113966
0.00114883
0.00115696
0.00116009
0.00115406
0.00113413
0.0011072
0.00107681
0.00103835
0.00106312
0.00100849
)
;

boundaryField
{
    floor
    {
        type            nutkWallFunction;
        Cmu             0.09;
        kappa           0.41;
        E               9.8;
        value           nonuniform List<scalar> 
29
(
6.4396e-05
3.12951e-05
3.50843e-05
3.68703e-05
2.93425e-05
2.09194e-05
1.7143e-05
1.57161e-05
1.44862e-05
1.49534e-05
1.6631e-05
1.71746e-05
1.96693e-05
2.38362e-05
2.79815e-05
3.24587e-05
3.7669e-05
4.14488e-05
4.16997e-05
3.66733e-05
3.66732e-05
4.9779e-05
6.406e-05
0.000101742
6.4396e-05
3.12951e-05
4.89925e-05
8.40666e-05
0.000106126
)
;
    }
    ceiling
    {
        type            nutkWallFunction;
        Cmu             0.09;
        kappa           0.41;
        E               9.8;
        value           nonuniform List<scalar> 
43
(
0.000216772
0.000309702
0.000475009
0.000294772
0.000205212
0.000205982
0.000195191
0.000183635
0.000173063
0.000164446
0.00015741
0.000151795
0.000147706
0.000144863
0.000143011
0.000141897
0.000141279
0.000140937
0.000140694
0.000140424
0.000140055
0.00013957
0.000138988
0.000138356
0.000137733
0.000137179
0.000136746
0.000136466
0.000136354
0.000137042
0.000138106
0.000139048
0.00013941
0.000138712
0.000136401
0.000133273
0.000129731
0.000125232
0.000128131
0.000121728
0.000564984
0.000658419
0.000648016
)
;
    }
    sWall
    {
        type            nutkWallFunction;
        Cmu             0.09;
        kappa           0.41;
        E               9.8;
        value           uniform 0.000216821;
    }
    nWall
    {
        type            nutkWallFunction;
        Cmu             0.09;
        kappa           0.41;
        E               9.8;
        value           nonuniform List<scalar> 6(0.000113307 0.000120464 0.000118255 0.00017938 0.000168171 0.000121734);
    }
    sideWalls
    {
        type            empty;
    }
    glass1
    {
        type            nutkWallFunction;
        Cmu             0.09;
        kappa           0.41;
        E               9.8;
        value           nonuniform List<scalar> 9(0.000163658 0.000177403 0.000341246 0.000388573 0.000415324 0.000439973 0.000467831 0.000504931 0.000565532);
    }
    glass2
    {
        type            nutkWallFunction;
        Cmu             0.09;
        kappa           0.41;
        E               9.8;
        value           nonuniform List<scalar> 2(0.000152723 0.000179294);
    }
    sun
    {
        type            nutkWallFunction;
        Cmu             0.09;
        kappa           0.41;
        E               9.8;
        value           nonuniform List<scalar> 
14
(
0.000163511
0.000190973
0.000196116
0.000139492
0.000120489
0.000107361
9.49272e-05
8.48133e-05
7.4436e-05
6.88266e-05
6.61049e-05
6.49718e-05
6.46855e-05
6.47677e-05
)
;
    }
    heatsource1
    {
        type            nutkWallFunction;
        Cmu             0.09;
        kappa           0.41;
        E               9.8;
        value           nonuniform List<scalar> 3(0.000143402 0.00012877 0.000113303);
    }
    heatsource2
    {
        type            nutkWallFunction;
        Cmu             0.09;
        kappa           0.41;
        E               9.8;
        value           nonuniform List<scalar> 4(7.3012e-05 5.17043e-05 5.17042e-05 8.29467e-05);
    }
    Table_master
    {
        type            nutkWallFunction;
        Cmu             0.09;
        kappa           0.41;
        E               9.8;
        value           nonuniform List<scalar> 9(3.9304e-05 2.74073e-05 2.38497e-05 3.01474e-05 3.58199e-05 4.17776e-05 4.85215e-05 5.66088e-05 6.71952e-05);
    }
    Table_slave
    {
        type            nutkWallFunction;
        Cmu             0.09;
        kappa           0.41;
        E               9.8;
        value           nonuniform List<scalar> 9(7.26364e-05 7.29782e-05 7.34517e-05 7.39957e-05 7.48067e-05 7.61806e-05 7.84796e-05 8.21413e-05 8.89926e-05);
    }
    inlet
    {
        type            calculated;
        value           uniform 3.3541e-05;
    }
    outlet
    {
        type            calculated;
        value           nonuniform List<scalar> 2(0.00184639 0.00270969);
    }
}


// ************************************************************************* //
