// -*- C++ -*-
// File generated by PyFoam - sorry for the ugliness

FoamFile
{
 version 2.0;
 format ascii;
 class volScalarField;
 location "300";
 object T;
}

dimensions [ 0 0 0 1 0 0 0 ];

internalField nonuniform List<scalar> 459
(
  306.132
  305.977
  305.831
  304.793
  304.198
  303.962
  303.852
  303.802
  303.77
  303.753
  303.744
  303.739
  303.736
  303.734
  303.734
  303.059
  303.055
  303.061
  303.039
  303.013
  303.009
  303.018
  303.032
  303.05
  303.055
  303.044
  303.038
  303.039
  303.045
  303.063
  303.097
  303.125
  303.125
  303.125
  306.404
  306.258
  306.198
  306.038
  305.621
  305.162
  304.564
  303.999
  303.861
  303.813
  303.797
  303.789
  303.782
  303.772
  303.755
  303.731
  303.65
  303.143
  303.15
  303.159
  303.172
  303.175
  303.143
  303.07
  303.095
  303.104
  303.121
  303.121
  303.123
  303.141
  303.184
  303.251
  303.322
  303.308
  303.228
  303.155
  306.35
  306.202
  306.165
  306.134
  305.977
  305.66
  305.183
  304.588
  303.996
  303.877
  303.854
  303.846
  303.838
  303.823
  303.798
  303.765
  303.73
  303.407
  303.377
  303.379
  303.407
  303.436
  303.451
  303.302
  303.216
  303.159
  303.218
  303.272
  303.317
  303.359
  303.404
  303.457
  303.508
  303.411
  303.353
  303.309
  306.201
  305.991
  305.97
  306.005
  305.98
  305.792
  305.404
  304.839
  304.145
  303.946
  303.915
  303.912
  303.907
  303.893
  303.866
  303.825
  303.772
  303.723
  303.677
  303.686
  303.735
  303.795
  303.846
  303.883
  303.912
  303.919
  303.924
  303.93
  303.936
  303.943
  303.949
  303.954
  303.944
  303.867
  303.818
  303.774
  303.772
  306.099
  305.802
  305.801
  305.891
  305.935
  305.811
  305.458
  304.878
  304.196
  304.008
  303.98
  303.986
  303.993
  303.993
  303.983
  303.965
  303.941
  303.919
  303.903
  303.905
  303.921
  303.94
  303.955
  303.965
  303.972
  303.976
  303.982
  303.989
  303.998
  304.008
  304.019
  304.03
  304.036
  304.034
  304.038
  304.042
  304.034
  304.06
  304.054
  304.059
  306.005
  305.667
  305.715
  305.835
  305.905
  305.782
  305.402
  304.812
  304.224
  304.058
  304.042
  304.056
  304.073
  304.084
  304.084
  304.075
  304.06
  304.044
  304.03
  304.024
  304.022
  304.023
  304.023
  304.023
  304.023
  304.024
  304.026
  304.032
  304.042
  304.055
  304.071
  304.088
  304.105
  304.121
  304.136
  304.15
  304.162
  304.166
  304.122
  304.089
  305.904
  305.603
  305.709
  305.821
  305.845
  305.691
  305.302
  304.739
  304.246
  304.105
  304.098
  304.123
  304.15
  304.171
  304.181
  304.18
  304.17
  304.156
  304.141
  304.128
  304.117
  304.107
  304.099
  304.09
  304.082
  304.075
  304.071
  304.07
  304.076
  304.088
  304.106
  304.126
  304.146
  304.164
  304.179
  304.191
  304.2
  304.2
  304.181
  304.1
  305.794
  305.568
  305.669
  305.773
  305.745
  305.567
  305.193
  304.688
  304.282
  304.162
  304.16
  304.19
  304.226
  304.256
  304.274
  304.281
  304.278
  304.268
  304.254
  304.237
  304.221
  304.205
  304.19
  304.174
  304.158
  304.141
  304.126
  304.113
  304.107
  304.109
  304.121
  304.138
  304.157
  304.175
  304.191
  304.206
  304.22
  304.234
  304.248
  304.267
  305.681
  305.486
  305.476
  305.657
  305.612
  305.439
  305.111
  304.685
  304.355
  304.258
  304.253
  304.279
  304.316
  304.347
  304.369
  304.38
  304.383
  304.377
  304.366
  304.351
  304.333
  304.315
  304.295
  304.275
  304.253
  304.229
  304.204
  304.179
  304.157
  304.143
  304.135
  304.136
  304.142
  304.148
  304.153
  304.159
  304.171
  304.189
  304.215
  304.284
  305.218
  305.412
  305.456
  305.339
  305.086
  304.725
  304.517
  304.44
  304.421
  304.429
  304.447
  304.465
  304.479
  304.487
  304.488
  304.484
  304.475
  304.461
  304.445
  304.426
  304.405
  304.383
  304.359
  304.332
  304.303
  304.272
  304.24
  304.21
  304.185
  304.168
  304.158
  304.152
  304.15
  304.149
  304.151
  304.156
  304.164
  304.186
  305.254
  305.313
  305.328
  305.29
  305.085
  304.863
  304.741
  304.68
  304.651
  304.637
  304.629
  304.624
  304.619
  304.614
  304.606
  304.596
  304.583
  304.567
  304.549
  304.529
  304.507
  304.484
  304.459
  304.432
  304.403
  304.371
  304.337
  304.302
  304.267
  304.236
  304.211
  304.194
  304.182
  304.176
  304.172
  304.17
  304.169
  304.19
  306.579
  306.096
  305.326
  305.287
  305.27
  305.263
  305.132
  305.028
  304.965
  304.925
  304.897
  304.874
  304.851
  304.829
  304.806
  304.783
  304.76
  304.737
  304.713
  304.69
  304.665
  304.64
  304.615
  304.589
  304.562
  304.534
  304.506
  304.476
  304.445
  304.412
  304.376
  304.341
  304.308
  304.28
  304.257
  304.238
  304.22
  304.203
  304.187
  304.202
)
;

boundaryField
{
  floor
  {
    type wallHeatTransfer;
    Tinf uniform 305.2;
    alphaWall uniform 0.24;
    value nonuniform List<scalar> 29
(
  303.99
  303.615
  303.582
  303.574
  303.617
  303.684
  303.729
  303.754
  303.781
  303.786
  303.766
  303.752
  303.716
  303.67
  303.633
  303.608
  303.596
  303.594
  303.592
  303.624
  303.624
  303.572
  303.64
  303.953
  303.99
  303.615
  303.566
  303.669
  303.905
)
;
  }
  ceiling
  {
    type wallHeatTransfer;
    Tinf uniform 303.2;
    alphaWall uniform 0.24;
    value nonuniform List<scalar> 43
(
  306.342
  305.947
  305.252
  305.175
  305.119
  305.113
  304.984
  304.882
  304.816
  304.773
  304.743
  304.717
  304.693
  304.67
  304.648
  304.626
  304.605
  304.584
  304.563
  304.541
  304.519
  304.496
  304.473
  304.449
  304.424
  304.399
  304.373
  304.346
  304.318
  304.288
  304.257
  304.226
  304.197
  304.171
  304.149
  304.13
  304.112
  304.094
  304.081
  304.09
  305.608
  305.428
  305.201
)
;
  }
  sWall
  {
    type wallHeatTransfer;
    Tinf uniform 315.2;
    alphaWall uniform 0.36;
    value uniform 307.456;
  }
  nWall
  {
    type wallHeatTransfer;
    Tinf uniform 307.2;
    alphaWall uniform 0.36;
    value nonuniform List<scalar> 6
(
  304.583
  304.585
  304.602
  304.54
  304.563
  304.677
)
;
  }
  sideWalls
  {
    type empty;
  }
  glass1
  {
    type wallHeatTransfer;
    Tinf uniform 315.2;
    alphaWall uniform 4.3;
    value nonuniform List<scalar> 9
(
  311.925
  311.874
  310.527
  310.171
  309.971
  309.792
  309.599
  309.367
  309.053
)
;
  }
  glass2
  {
    type wallHeatTransfer;
    Tinf uniform 307.2;
    alphaWall uniform 4.3;
    value nonuniform List<scalar> 2
(
  306.171
  306.079
)
;
  }
  sun
  {
    type wallHeatTransfer;
    Tinf uniform 305.2;
    alphaWall uniform 0.24;
    value nonuniform List<scalar> 14
(
  306.05
  305.916
  305.783
  304.833
  304.31
  304.113
  304.032
  304.005
  303.997
  303.995
  303.994
  303.992
  303.99
  303.989
)
;
  }
  heatsource1
  {
    type fixedGradient;
    gradient uniform 0;
  }
  heatsource2
  {
    type fixedGradient;
    gradient uniform 0;
  }
  Table_master
  {
    type zeroGradient;
  }
  Table_slave
  {
    type zeroGradient;
  }
  inlet
  {
    type fixedValue;
    value uniform 290.15;
  }
  outlet
  {
    type zeroGradient;
  }
} 	// ************************************************************************* //

