/*--------------------------------*- C++ -*----------------------------------*\
  =========                 |
  \\      /  F ield         | OpenFOAM: The Open Source CFD Toolbox
   \\    /   O peration     | Website:  https://openfoam.org
    \\  /    A nd           | Version:  6
     \\/     M anipulation  |
\*---------------------------------------------------------------------------*/
FoamFile
{
    version     2.0;
    format      ascii;
    class       volScalarField;
    location    "20";
    object      epsilon;
}
// * * * * * * * * * * * * * * * * * * * * * * * * * * * * * * * * * * * * * //

dimensions      [0 2 -3 0 0 0 0];

internalField   nonuniform List<scalar> 
459
(
0.000783693
0.00123224
0.00139106
0.00166787
0.0019386
0.00213812
0.00218522
0.00196751
0.00167805
0.00137975
0.00110959
0.000935467
0.000798072
0.000665156
0.000524849
0.000198038
0.00034536
0.000438362
0.000471513
0.000437989
0.000332341
0.000184213
0.000116226
9.25599e-05
8.55338e-05
8.37844e-05
8.38208e-05
8.56085e-05
9.23926e-05
0.000114802
0.000172875
0.000205156
0.000203934
0.000166561
0.0017281
0.00165513
0.00107992
0.00104565
0.00111465
0.00118641
0.00120259
0.00111464
0.000972775
0.000839188
0.000731731
0.000660728
0.000605494
0.000552785
0.000521309
0.000922336
0.000326343
0.000537727
0.000475288
0.000412257
0.000401951
0.000379254
0.000329905
0.000239819
0.000140765
0.000102361
9.09363e-05
8.8155e-05
8.82237e-05
9.11736e-05
0.000102876
0.000140587
0.000195444
0.000238426
0.000348502
0.000363453
0.00275003
0.00275421
0.00135326
0.00110529
0.00109765
0.00114101
0.00116147
0.00109991
0.00097044
0.00083964
0.00073464
0.000661415
0.000610415
0.000572105
0.000554335
0.000630391
0.000911811
0.00104667
0.000610134
0.000489871
0.000460657
0.000446232
0.000440957
0.000533697
0.000160695
9.85942e-05
8.65943e-05
8.42414e-05
8.44096e-05
8.77635e-05
0.000107412
0.000248913
0.000285285
0.000323146
0.000478643
0.000630691
0.0038272
0.00428052
0.00177134
0.00125071
0.00115402
0.0011701
0.00120847
0.00117445
0.00104897
0.00090503
0.000784815
0.000699414
0.000642947
0.00060649
0.000589961
0.000616499
0.000754429
0.00161164
0.0009296
0.00063633
0.000550231
0.000522614
0.00052173
0.000581568
0.00120298
0.000823068
0.00074225
0.000711282
0.000697778
0.000695181
0.000702783
0.00072921
0.000870138
0.000467764
0.000432137
0.000585831
0.000974393
0.00488832
0.00600524
0.00226792
0.00142044
0.00123289
0.00121587
0.00127974
0.00127895
0.00115367
0.000987829
0.000844756
0.000743581
0.000679239
0.000641329
0.000624444
0.000635321
0.000694879
0.000838541
0.000724462
0.000635207
0.000589634
0.000569566
0.000566032
0.000584152
0.000641299
0.000589993
0.000555729
0.000536454
0.000526037
0.000521344
0.000521152
0.000525613
0.0005332
0.000484259
0.000468127
0.000504867
0.000641099
0.000904527
0.000467518
0.000216425
0.00583269
0.00758006
0.00296571
0.00173874
0.00142055
0.00132537
0.00139269
0.00141317
0.00127727
0.0010772
0.000903879
0.000785179
0.000713827
0.000675194
0.000658633
0.000661637
0.000684408
0.000712249
0.000681963
0.000647415
0.000623628
0.000609824
0.000603402
0.000603455
0.000606026
0.000587226
0.000568226
0.000554322
0.000545292
0.000539923
0.000536949
0.000534741
0.000529558
0.000511376
0.000495578
0.000488927
0.000501793
0.000490185
0.000379973
0.000360892
0.00625966
0.00846768
0.00418178
0.00254801
0.00187759
0.00159651
0.00158493
0.00159138
0.00142177
0.00116952
0.000958521
0.000823275
0.000749016
0.000712751
0.000698142
0.000697342
0.000704635
0.000708789
0.000695957
0.000680064
0.000667129
0.000657727
0.000650772
0.000645016
0.00063822
0.000625904
0.000612946
0.000602196
0.000594301
0.000588708
0.000584223
0.000579003
0.000570226
0.000554591
0.000534568
0.000511287
0.000486774
0.000451906
0.000400591
0.00043899
0.00593387
0.0088489
0.00532466
0.00358191
0.00253104
0.00199976
0.00186379
0.00181968
0.00158644
0.00126049
0.0010089
0.000865548
0.000797335
0.000768621
0.000758677
0.000758087
0.000761064
0.00076174
0.000756863
0.000750554
0.000744695
0.000739281
0.000733644
0.000727148
0.000719173
0.00070928
0.000699289
0.000690665
0.000683761
0.000678328
0.000673058
0.000665924
0.000654212
0.000635502
0.000609363
0.000577118
0.000541149
0.000518253
0.000538368
0.000480024
0.00512563
0.00701805
0.004974
0.00341752
0.0024886
0.00212423
0.00208126
0.00204354
0.00173813
0.00133231
0.00106271
0.000943748
0.00089672
0.000882227
0.000882371
0.000889181
0.00089841
0.000906937
0.000913216
0.000917787
0.000920701
0.000921539
0.000919944
0.000915942
0.000909936
0.000902697
0.00089554
0.000889462
0.000884644
0.000880203
0.000874788
0.000866188
0.000850901
0.000826663
0.000791552
0.000745486
0.000695335
0.000664739
0.000705291
0.000870977
0.000493111
0.000926388
0.00189758
0.00249656
0.00257752
0.00226745
0.00173535
0.0013964
0.00123264
0.00116874
0.00115598
0.00116932
0.00119681
0.00123293
0.00127408
0.00131636
0.00135523
0.00138711
0.0014117
0.00142913
0.00144004
0.00144568
0.00144767
0.00144778
0.00144768
0.0014485
0.00145045
0.0014524
0.00145188
0.00144489
0.00142652
0.00138962
0.00132966
0.00125005
0.0011682
0.00110951
0.00115356
0.00152972
0.00162546
0.00757502
0.00774208
0.0059377
0.00420221
0.00301201
0.00235138
0.00203123
0.00188585
0.00184504
0.00187226
0.00194875
0.00206489
0.00221447
0.00238914
0.00257232
0.00273909
0.00287212
0.00297361
0.00304921
0.00310395
0.00314348
0.00317312
0.00319761
0.00322071
0.00324489
0.00327097
0.00329636
0.0033158
0.00332111
0.00329904
0.00323098
0.00309337
0.00287789
0.00264606
0.00261116
0.00334085
0.00321499
0.00151894
0.00198053
0.00256868
0.00378436
0.00364635
0.00343507
0.00329196
0.00317446
0.00307111
0.00296985
0.00289485
0.00284579
0.00281485
0.00279534
0.00278321
0.00277606
0.00277143
0.00276491
0.00275651
0.00275109
0.00274691
0.00274141
0.00273513
0.00272825
0.00272113
0.00271429
0.0027082
0.00270301
0.00269831
0.00269377
0.00268709
0.00267487
0.00265385
0.00261756
0.002556
0.00245691
0.00230765
0.00211247
0.00192296
0.00127723
)
;

boundaryField
{
    floor
    {
        Cmu             0.09;
        kappa           0.41;
        E               9.8;
        type            epsilonWallFunction;
        value           nonuniform List<scalar> 
29
(
0.000524849
0.000198038
0.00034536
0.000438362
0.000471513
0.000437989
0.000332341
0.000184213
0.000116226
9.25599e-05
8.55338e-05
8.37844e-05
8.38208e-05
8.56085e-05
9.23926e-05
0.000114802
0.000172875
0.000205156
0.000203934
0.000166561
0.000166561
0.000363453
0.000630691
0.000974393
0.000524849
0.000198038
0.000537727
0.00104667
0.00161164
)
;
    }
    ceiling
    {
        Cmu             0.09;
        kappa           0.41;
        E               9.8;
        type            epsilonWallFunction;
        value           nonuniform List<scalar> 
43
(
0.00151894
0.00198053
0.00256868
0.00378436
0.00364635
0.00343507
0.00329196
0.00317446
0.00307111
0.00296985
0.00289485
0.00284579
0.00281485
0.00279534
0.00278321
0.00277606
0.00277143
0.00276491
0.00275651
0.00275109
0.00274691
0.00274141
0.00273513
0.00272825
0.00272113
0.00271429
0.0027082
0.00270301
0.00269831
0.00269377
0.00268709
0.00267487
0.00265385
0.00261756
0.002556
0.00245691
0.00230765
0.00211247
0.00192296
0.00127723
0.00512563
0.00701805
0.00162546
)
;
    }
    sWall
    {
        Cmu             0.09;
        kappa           0.41;
        E               9.8;
        type            epsilonWallFunction;
        value           uniform 0.00151894;
    }
    nWall
    {
        Cmu             0.09;
        kappa           0.41;
        E               9.8;
        type            epsilonWallFunction;
        value           nonuniform List<scalar> 6(0.000216425 0.000360892 0.00043899 0.00152972 0.00321499 0.00127723);
    }
    sideWalls
    {
        type            empty;
    }
    glass1
    {
        Cmu             0.09;
        kappa           0.41;
        E               9.8;
        type            epsilonWallFunction;
        value           nonuniform List<scalar> 9(0.000783693 0.0017281 0.00275003 0.0038272 0.00488832 0.00583269 0.00625966 0.00593387 0.00512563);
    }
    glass2
    {
        Cmu             0.09;
        kappa           0.41;
        E               9.8;
        type            epsilonWallFunction;
        value           nonuniform List<scalar> 2(0.000480024 0.000870977);
    }
    sun
    {
        Cmu             0.09;
        kappa           0.41;
        E               9.8;
        type            epsilonWallFunction;
        value           nonuniform List<scalar> 
14
(
0.000783693
0.00123224
0.00139106
0.00166787
0.0019386
0.00213812
0.00218522
0.00196751
0.00167805
0.00137975
0.00110959
0.000935467
0.000798072
0.000665156
)
;
    }
    heatsource1
    {
        Cmu             0.09;
        kappa           0.41;
        E               9.8;
        type            epsilonWallFunction;
        value           nonuniform List<scalar> 3(0.000904527 0.000467518 0.000216425);
    }
    heatsource2
    {
        Cmu             0.09;
        kappa           0.41;
        E               9.8;
        type            epsilonWallFunction;
        value           nonuniform List<scalar> 4(0.000922336 0.000326343 0.000326343 0.000911811);
    }
    Table_master
    {
        Cmu             0.09;
        kappa           0.41;
        E               9.8;
        type            epsilonWallFunction;
        value           nonuniform List<scalar> 9(0.000533697 0.000160695 9.85942e-05 8.65943e-05 8.42414e-05 8.44096e-05 8.77635e-05 0.000107412 0.000248913);
    }
    Table_slave
    {
        Cmu             0.09;
        kappa           0.41;
        E               9.8;
        type            epsilonWallFunction;
        value           nonuniform List<scalar> 9(0.00120298 0.000823068 0.00074225 0.000711282 0.000697778 0.000695181 0.000702783 0.00072921 0.000870138);
    }
    inlet
    {
        type            turbulentMixingLengthDissipationRateInlet;
        mixingLength    0.01;
        phi             phi;
        k               k;
        value           uniform 0.000101881;
    }
    outlet
    {
        type            zeroGradient;
    }
}


// ************************************************************************* //
