/*--------------------------------*- C++ -*----------------------------------*\
  =========                 |
  \\      /  F ield         | OpenFOAM: The Open Source CFD Toolbox
   \\    /   O peration     | Website:  https://openfoam.org
    \\  /    A nd           | Version:  6
     \\/     M anipulation  |
\*---------------------------------------------------------------------------*/
FoamFile
{
    version     2.0;
    format      ascii;
    class       surfaceScalarField;
    location    "20";
    object      phi;
}
// * * * * * * * * * * * * * * * * * * * * * * * * * * * * * * * * * * * * * //

dimensions      [1 0 -1 0 0 0 0];

internalField   nonuniform List<scalar> 
852
(
-0.00185197
0.00187236
-0.00247785
0.000625387
-0.00257836
9.99798e-05
-0.00232193
-0.000256986
-0.00171917
-0.000603369
-0.000848438
-0.000871415
9.2738e-05
-0.000941934
0.000834001
-0.000741925
0.00130821
-0.000474766
0.00153316
-0.000225403
0.00154149
-8.68266e-06
0.00137698
0.000164259
0.00107628
0.000300524
0.000646571
0.000429601
0.00064272
0.000183895
-0.000188748
0.0001398
4.40436e-05
7.19545e-05
6.78045e-05
5.47018e-05
1.72193e-05
6.60834e-05
-1.14123e-05
8.2143e-05
-1.60919e-05
8.82307e-05
-6.1249e-06
8.73756e-05
8.13476e-07
8.50451e-05
2.28614e-06
8.32722e-05
1.72731e-06
8.20572e-05
1.1691e-06
8.03389e-05
1.67229e-06
7.47923e-05
5.50054e-06
5.41577e-05
2.05886e-05
-7.40215e-06
6.15139e-05
-0.000109457
0.000102009
-0.000247559
0.000138048
-0.000322279
7.4666e-05
-0.000327332
-0.00135175
0.00328056
-0.00197048
0.00124359
-0.00218775
0.000316694
-0.00205833
-0.000387018
-0.00161785
-0.00104453
-0.000948317
-0.00154175
-0.000214874
-0.00167628
0.000427386
-0.00138505
0.000876789
-0.000924889
0.00112982
-0.000479014
0.00121289
-9.21945e-05
0.00116431
0.000212521
0.00103315
0.000431461
0.000897232
0.000565369
0.000891596
0.000648249
0.000345696
0.000545771
0.000345609
-0.000165289
-3.48443e-05
-8.54806e-05
-3.57898e-05
-1.15608e-05
-6.13659e-06
2.85422e-05
-2.29012e-05
5.54761e-05
-3.83619e-05
7.85405e-05
-3.91716e-05
8.55356e-05
-1.31364e-05
8.50482e-05
1.28422e-06
8.48108e-05
2.50721e-06
8.4715e-05
1.80744e-06
8.45884e-05
1.28047e-06
8.41662e-05
2.07906e-06
8.30612e-05
6.58935e-06
8.27152e-05
2.09164e-05
7.69392e-05
6.72678e-05
9.1496e-05
8.74279e-05
9.92884e-05
0.000130229
0.000119398
5.4528e-05
-0.000220495
-0.00103037
0.00439946
-0.00162983
0.00184255
-0.00193079
0.000617113
-0.0019003
-0.000418097
-0.00155419
-0.00139134
-0.000965066
-0.00213175
-0.000310916
-0.00233148
0.000255163
-0.00195217
0.000660922
-0.00133151
0.000898262
-0.000717033
0.000993908
-0.000188355
0.000983407
0.000222649
0.00090523
0.000509378
0.000788155
0.000682269
0.000654631
0.000781654
0.000399402
0.000800922
0.00074497
-0.000117012
6.61472e-05
-6.56252e-05
-8.7192e-05
2.77421e-06
-7.45493e-05
3.97459e-05
-5.98845e-05
5.96375e-05
-5.82638e-05
8.72632e-05
-6.68068e-05
7.42683e-05
7.56957e-05
7.83472e-05
8.02999e-05
8.17259e-05
8.39505e-05
9.06848e-05
0.000111745
0.000179153
0.000291198
-2.46291e-05
0.000393898
2.75149e-05
0.000390026
5.83864e-05
0.000151282
-0.00082994
0.00534758
-0.00139161
0.00240378
-0.00172035
0.000945416
-0.00174554
-0.000393397
-0.001443
-0.00169445
-0.000884139
-0.00269145
-0.000271461
-0.00294534
0.000233133
-0.00245799
0.000581229
-0.00168062
0.000773115
-0.000909706
0.000842379
-0.000258203
0.000827588
0.000237023
0.000763632
0.000573047
0.000675742
0.000769966
0.000592112
0.000865157
0.000527395
0.000865557
0.000553618
0.0007187
0.000327627
0.000208671
0.000255245
0.000138511
0.000149773
1.82667e-05
0.00010243
-2.72166e-05
8.34183e-05
-4.08812e-05
7.05779e-05
-4.54309e-05
4.43866e-05
-4.06218e-05
6.07115e-05
-1.64796e-05
6.58071e-05
-5.24875e-06
6.77124e-05
-2.05772e-06
7.04522e-05
-2.89179e-06
7.78931e-05
-7.59286e-06
9.45852e-05
-1.68439e-05
0.000126469
-3.2036e-05
0.000181318
-5.50005e-05
0.000271043
-8.98782e-05
0.000351842
-0.000105432
0.00047827
-9.89184e-05
0.000538376
-1.72644e-06
0.000666808
-0.000684644
0.00617839
-0.00115765
0.00287646
-0.00140455
0.00119204
-0.00139781
-0.000400384
-0.00109568
-0.00199682
-0.000590515
-0.00319721
-6.76187e-05
-0.00346944
0.000345533
-0.00287252
0.000602571
-0.00193883
0.000714599
-0.00102263
0.000725515
-0.000269769
0.000679921
0.000282162
0.000613163
0.000639496
0.000548452
0.000834474
0.000506903
0.000906574
0.000501064
0.000871313
0.000514199
0.000705513
0.000362529
0.00036031
0.000277408
0.000223614
0.000199038
9.66242e-05
0.000145354
2.64583e-05
0.000112367
-7.90252e-06
8.96015e-05
-2.26713e-05
7.24876e-05
-2.35128e-05
6.89334e-05
-1.29291e-05
6.89713e-05
-5.28941e-06
6.95962e-05
-2.68463e-06
7.18168e-05
-5.11404e-06
7.73147e-05
-1.30923e-05
8.80811e-05
-2.76117e-05
0.000106282
-5.02385e-05
0.000134202
-8.29219e-05
0.000166609
-0.000122287
0.000211561
-0.000150386
0.000278642
-0.000166003
0.000415475
-0.000138564
0.000938541
0.000143733
0.000706004
0.000232327
0.000479731
0.000226065
0.000484142
-0.00057945
0.0069309
-0.000844297
0.00314108
-0.000778373
0.00112603
-0.000573276
-0.000605383
-0.000261913
-0.0023079
7.30563e-05
-0.00353224
0.000381356
-0.00377873
0.000610559
-0.00310318
0.000708236
-0.00203783
0.000690575
-0.00100597
0.000609947
-0.000189846
0.000515416
0.000376216
0.000437119
0.000717479
0.000387244
0.000884145
0.000371166
0.000922522
0.000384918
0.000857478
0.00039785
0.00069253
0.000312573
0.000445554
0.000255822
0.000280346
0.000200972
0.00015146
0.000157065
7.03567e-05
0.000124882
2.42738e-05
0.000101089
1.11603e-06
8.40118e-05
-6.44052e-06
7.51293e-05
-4.05018e-06
7.06071e-05
-7.70088e-07
6.82366e-05
-3.16523e-07
6.74212e-05
-4.30082e-06
6.81633e-05
-1.38362e-05
7.04684e-05
-2.99187e-05
7.36858e-05
-5.34577e-05
7.52243e-05
-8.44622e-05
7.15859e-05
-0.000118651
6.69279e-05
-0.00014573
6.09491e-05
-0.000160026
6.51958e-05
-0.000142813
0.000232252
-2.33272e-05
0.000397479
6.70965e-05
0.00033784
0.0002857
0.000826978
-0.000312758
0.00744381
-0.000133652
0.00296182
0.000526459
0.00046589
0.00099816
-0.00107685
0.00123997
-0.00254913
0.00125564
-0.00354744
0.00117434
-0.00369795
0.00105387
-0.0029841
0.000872168
-0.00185756
0.000654908
-0.000789798
0.000451961
1.23709e-05
0.000305106
0.000522598
0.00022154
0.000800744
0.000191529
0.000913964
0.000201825
0.000912105
0.000235426
0.0008238
0.000262205
0.000665703
0.000239685
0.000468044
0.000212926
0.000307086
0.000180844
0.000183529
0.000150748
0.000100444
0.000125376
4.96392e-05
0.00010472
2.17673e-05
8.87513e-05
9.52354e-06
7.79887e-05
6.70864e-06
7.06292e-05
6.58622e-06
6.51096e-05
5.20029e-06
6.03898e-05
4.16365e-07
5.55479e-05
-8.99664e-06
4.93109e-05
-2.3684e-05
3.94722e-05
-4.36212e-05
2.22821e-05
-6.72742e-05
-6.40563e-06
-8.99651e-05
-4.78352e-05
-0.000104302
-0.000102665
-0.000105197
-0.000156363
-8.91165e-05
-0.000117541
-6.21496e-05
4.17099e-05
-9.21536e-05
0.000198172
0.000129237
0.00103076
0.00174501
0.00592727
0.00244941
0.00225727
0.00297002
-5.47863e-05
0.00342997
-0.00153665
0.0034304
-0.00254913
0.00297803
-0.00309454
0.00229415
-0.00301424
0.00159715
-0.00228832
0.000985613
-0.00124748
0.000505767
-0.000311049
0.000186209
0.000331231
1.81037e-05
0.000690275
-4.20862e-05
0.000860669
-3.3402e-05
0.00090511
1.50926e-05
0.000863502
7.88795e-05
0.000759945
0.000132187
0.000612353
0.000153848
0.000446355
0.000157576
0.00030334
0.000148855
0.000192238
0.00013443
0.00011486
0.000118412
6.56506e-05
0.000102886
3.72876e-05
8.91563e-05
2.32488e-05
7.80316e-05
1.78293e-05
6.89015e-05
1.57127e-05
6.07699e-05
1.33285e-05
5.25476e-05
8.63558e-06
4.28945e-05
6.53382e-07
2.99342e-05
-1.07266e-05
1.08223e-05
-2.45121e-05
-1.88194e-05
-3.76353e-05
-6.50924e-05
-4.36945e-05
-0.000136119
-3.32771e-05
-0.000245314
3.99676e-06
-0.000412787
7.83565e-05
-0.000665101
0.000190167
-0.00104955
0.000292299
-0.0012232
0.000302895
-0.000164601
0.0061465
0.00836882
0.00772826
0.000585675
0.00702279
-0.000831101
0.00600814
-0.00153424
0.0046698
-0.00175594
0.00317126
-0.00151593
0.00178837
-0.000906551
0.000721189
-0.000181633
6.3376e-05
0.000345804
-0.000254356
0.000648414
-0.000360868
0.000796443
-0.000350578
0.00085016
-0.000278051
0.000832441
-0.000177104
0.000762463
-7.28617e-05
0.000655644
1.3831e-05
0.000525622
7.00132e-05
0.000390149
0.000101421
0.000271917
0.000114194
0.000179454
0.00011469
0.000114356
0.000107992
7.23423e-05
9.77478e-05
4.75259e-05
8.64665e-05
3.4525e-05
7.5639e-05
2.86521e-05
6.55154e-05
2.58319e-05
5.56086e-05
2.32312e-05
4.49769e-05
1.92631e-05
3.22387e-05
1.33877e-05
1.55421e-05
5.96611e-06
-7.55022e-06
-1.42357e-06
-4.03138e-05
-4.87533e-06
-8.76558e-05
3.64415e-06
-0.000157279
3.63434e-05
-0.000262712
0.000109428
-0.000429368
0.000245013
-0.000704182
0.000464984
-0.00110986
0.000697983
-0.00128935
0.000482387
-0.00142415
0.00607834
0.000922009
0.00507848
0.000169034
0.00404499
-0.000500316
0.00278021
-0.000490743
0.00140512
-0.00014105
0.000233463
0.000264107
-0.00049415
0.000545175
-0.000800667
0.000651758
-0.000870418
0.000717788
-0.0008151
0.000740874
-0.000688693
0.000723585
-0.000528941
0.000672578
-0.00036288
0.00059633
-0.000210606
0.000503323
-8.72043e-05
0.00040219
-4.50995e-07
0.000303375
5.4898e-05
0.000216554
8.56422e-05
0.000148699
9.79882e-05
0.000102002
9.83674e-05
7.1956e-05
9.19586e-05
5.39283e-05
8.23777e-05
4.40999e-05
7.18088e-05
3.9215e-05
6.10902e-05
3.65448e-05
5.01313e-05
3.41844e-05
3.82717e-05
3.11173e-05
2.4467e-05
2.71869e-05
7.30651e-06
2.31212e-05
-1.42546e-05
2.01322e-05
-4.01257e-05
2.09906e-05
-6.94163e-05
3.29299e-05
-9.96771e-05
6.65999e-05
-0.000125392
0.00013514
-0.000134608
0.000254228
-9.81585e-05
0.000428534
2.70568e-05
0.00057277
0.000150395
0.000359051
-0.00126772
2.59921e-05
0.000881197
-0.000202471
0.000397042
-0.00081682
0.000113803
-0.00141616
0.000108449
-0.00178569
0.000228279
-0.00190204
0.000380155
-0.00185196
0.000494718
-0.00172491
0.000524381
-0.00152797
0.000520613
-0.00128574
0.000498478
-0.00102437
0.000462097
-0.00076628
0.000414406
-0.000529005
0.000359002
-0.000325439
0.000299722
-0.000163895
0.000240622
-4.58398e-05
0.000185304
3.25016e-05
0.0001382
7.58038e-05
0.000105387
9.36488e-05
8.41485e-05
9.66431e-05
6.89536e-05
9.14685e-05
5.90951e-05
8.22685e-05
5.32921e-05
7.13683e-05
5.01077e-05
5.9738e-05
4.81675e-05
4.7535e-05
4.63799e-05
3.45949e-05
4.40498e-05
2.09489e-05
4.08254e-05
6.24548e-06
3.78171e-05
-9.52104e-06
3.58913e-05
-2.44131e-05
3.58754e-05
-3.17294e-05
4.02392e-05
-1.66652e-05
5.15295e-05
4.59135e-05
7.2556e-05
0.000196453
0.000103684
0.000495166
0.00012982
0.000964971
0.000102965
0.00134107
-1.70503e-05
7.89253e-05
-0.0047474
-0.00535664
-0.00451302
-0.00415475
-0.00408399
-0.00402203
-0.00384305
-0.00351468
-0.0030739
-0.00260513
-0.00214127
-0.00170029
-0.00129618
-0.000940067
-0.000639559
-0.000398457
-0.000216535
-9.00028e-05
-1.06421e-05
3.58678e-05
6.11164e-05
7.11399e-05
7.12683e-05
6.55529e-05
5.66101e-05
4.56859e-05
3.29374e-05
1.78283e-05
-5.33865e-07
-2.19304e-05
-4.52894e-05
-6.87349e-05
-8.79425e-05
-9.60838e-05
-8.35915e-05
-4.06313e-05
2.74096e-05
6.70972e-05
-1.48396e-05
)
;

boundaryField
{
    floor
    {
        type            calculated;
        value           nonuniform List<scalar> 
29
(
0
0
0
0
0
0
0
0
0
0
0
0
0
0
0
0
0
0
0
0
5.01356e-06
1.25402e-05
1.8238e-05
2.28423e-05
3.78502e-06
4.80209e-06
1.13594e-05
1.60033e-05
1.72942e-05
)
;
    }
    ceiling
    {
        type            calculated;
        value           nonuniform List<scalar> 
43
(
4.3841e-05
4.04045e-05
3.76291e-05
3.88475e-05
4.31341e-05
4.65411e-05
4.92643e-05
5.16612e-05
5.37612e-05
5.54499e-05
5.66278e-05
5.74057e-05
5.79131e-05
5.82446e-05
5.84596e-05
5.85955e-05
5.86822e-05
5.87564e-05
5.88263e-05
5.88647e-05
5.8887e-05
5.89172e-05
5.89535e-05
5.89943e-05
5.9037e-05
5.90782e-05
5.91147e-05
5.91455e-05
5.9174e-05
5.91999e-05
5.92365e-05
5.93072e-05
5.94335e-05
5.96582e-05
6.00524e-05
6.07146e-05
6.17716e-05
6.32703e-05
6.48766e-05
7.24173e-05
3.89872e-05
3.4778e-05
1.41922e-05
)
;
    }
    sWall
    {
        type            calculated;
        value           uniform -0.000118074;
    }
    nWall
    {
        type            calculated;
        value           nonuniform List<scalar> 6(-4.61737e-06 -4.9985e-06 -5.60746e-06 -6.03185e-06 -5.58154e-06 -8.34651e-06);
    }
    sideWalls
    {
        type            empty;
        value           nonuniform 0();
    }
    glass1
    {
        type            calculated;
        value           nonuniform List<scalar> 9(-2.08502e-05 -5.69007e-05 -8.89887e-05 -0.000118589 -0.000146531 -0.000173359 -0.000200393 -0.000228689 -0.000258401);
    }
    glass2
    {
        type            calculated;
        value           nonuniform List<scalar> 2(-2.78442e-05 -2.98113e-05);
    }
    sun
    {
        type            calculated;
        value           uniform 0;
    }
    heatsource1
    {
        type            calculated;
        value           nonuniform List<scalar> 3(2.00784e-07 2.01027e-07 2.01247e-07);
    }
    heatsource2
    {
        type            calculated;
        value           nonuniform List<scalar> 4(5.02106e-08 5.03321e-08 0 0);
    }
    Table_master
    {
        type            calculated;
        value           nonuniform List<scalar> 9(-1.509e-07 -1.5105e-07 -1.51069e-07 -1.51075e-07 -1.51076e-07 -1.51075e-07 -1.51071e-07 -1.51057e-07 -1.50957e-07);
    }
    Table_slave
    {
        type            calculated;
        value           nonuniform List<scalar> 9(1.50714e-07 1.50865e-07 1.50876e-07 1.5088e-07 1.5088e-07 1.50875e-07 1.50865e-07 1.50845e-07 1.50733e-07);
    }
    inlet
    {
        type            calculated;
        value           uniform -0.00641439;
    }
    outlet
    {
        type            calculated;
        value           nonuniform List<scalar> 2(0.00482159 0.000568841);
    }
}


// ************************************************************************* //
