// -*- C++ -*-
// File generated by PyFoam - sorry for the ugliness

FoamFile
{
 version 2.0;
 format ascii;
 class volScalarField;
 location "400";
 object T;
}

dimensions [ 0 0 0 1 0 0 0 ];

internalField nonuniform List<scalar> 459
(
  305.031
  304.77
  304.767
  304.774
  304.78
  304.784
  304.787
  304.79
  304.792
  304.792
  304.789
  304.783
  304.772
  304.757
  304.737
  303.488
  303.506
  303.522
  303.498
  303.481
  303.487
  303.498
  303.493
  303.485
  303.481
  303.483
  303.484
  303.479
  303.481
  303.497
  303.537
  303.609
  303.609
  303.592
  305.234
  304.843
  304.826
  304.841
  304.855
  304.868
  304.878
  304.886
  304.891
  304.892
  304.886
  304.87
  304.844
  304.804
  304.751
  304.698
  304.562
  303.612
  303.645
  303.677
  303.688
  303.667
  303.651
  303.653
  303.645
  303.642
  303.649
  303.667
  303.706
  303.761
  303.817
  303.885
  303.953
  303.932
  303.881
  303.803
  305.422
  304.918
  304.881
  304.903
  304.928
  304.951
  304.972
  304.988
  305
  305.005
  305
  304.981
  304.944
  304.886
  304.806
  304.713
  304.633
  304.017
  303.999
  304.029
  304.08
  304.116
  304.072
  303.817
  303.85
  303.897
  303.945
  303.995
  304.048
  304.111
  304.196
  304.314
  304.454
  304.436
  304.413
  304.448
  305.595
  304.998
  304.932
  304.957
  304.993
  305.028
  305.062
  305.091
  305.115
  305.128
  305.129
  305.112
  305.073
  305.008
  304.915
  304.793
  304.643
  304.505
  304.399
  304.461
  304.535
  304.611
  304.665
  304.697
  304.722
  304.726
  304.73
  304.735
  304.741
  304.748
  304.754
  304.758
  304.755
  304.725
  304.723
  304.719
  304.698
  305.753
  305.085
  304.985
  305.002
  305.046
  305.091
  305.136
  305.179
  305.216
  305.243
  305.255
  305.249
  305.22
  305.168
  305.094
  305.005
  304.911
  304.828
  304.769
  304.752
  304.761
  304.775
  304.783
  304.785
  304.785
  304.785
  304.786
  304.789
  304.796
  304.805
  304.816
  304.828
  304.84
  304.848
  304.862
  304.876
  304.89
  304.905
  304.892
  304.89
  305.89
  305.183
  305.057
  305.046
  305.085
  305.134
  305.186
  305.237
  305.286
  305.327
  305.353
  305.36
  305.346
  305.309
  305.251
  305.177
  305.096
  305.021
  304.961
  304.922
  304.898
  304.883
  304.87
  304.859
  304.849
  304.841
  304.835
  304.834
  304.836
  304.844
  304.856
  304.872
  304.889
  304.907
  304.924
  304.939
  304.95
  304.954
  304.924
  304.901
  306.003
  305.328
  305.205
  305.145
  305.142
  305.176
  305.221
  305.271
  305.328
  305.38
  305.416
  305.435
  305.436
  305.418
  305.379
  305.323
  305.256
  305.186
  305.123
  305.071
  305.03
  304.997
  304.971
  304.948
  304.928
  304.91
  304.895
  304.884
  304.878
  304.877
  304.884
  304.898
  304.916
  304.935
  304.952
  304.966
  304.975
  304.977
  304.963
  304.909
  306.185
  305.663
  305.546
  305.434
  305.349
  305.318
  305.323
  305.35
  305.395
  305.437
  305.467
  305.484
  305.491
  305.485
  305.467
  305.434
  305.387
  305.33
  305.271
  305.215
  305.166
  305.123
  305.086
  305.054
  305.025
  304.999
  304.974
  304.952
  304.934
  304.92
  304.915
  304.918
  304.928
  304.944
  304.962
  304.979
  304.995
  305.01
  305.025
  305.05
  306.435
  306.213
  306.065
  305.918
  305.771
  305.671
  305.611
  305.58
  305.562
  305.551
  305.546
  305.542
  305.537
  305.53
  305.517
  305.498
  305.47
  305.432
  305.388
  305.341
  305.294
  305.25
  305.209
  305.172
  305.137
  305.104
  305.073
  305.043
  305.014
  304.988
  304.968
  304.954
  304.947
  304.947
  304.951
  304.956
  304.963
  304.969
  304.979
  305.041
  304.985
  305.669
  305.703
  305.68
  305.654
  305.633
  305.619
  305.606
  305.593
  305.581
  305.57
  305.558
  305.545
  305.529
  305.511
  305.487
  305.459
  305.426
  305.39
  305.352
  305.315
  305.279
  305.244
  305.21
  305.176
  305.143
  305.11
  305.078
  305.047
  305.019
  304.998
  304.984
  304.976
  304.974
  304.974
  304.974
  304.973
  304.98
  305.086
  305.538
  305.607
  305.625
  305.624
  305.617
  305.609
  305.6
  305.59
  305.58
  305.57
  305.559
  305.547
  305.534
  305.52
  305.503
  305.484
  305.461
  305.436
  305.409
  305.38
  305.35
  305.32
  305.289
  305.258
  305.226
  305.194
  305.162
  305.129
  305.096
  305.067
  305.044
  305.027
  305.015
  305.006
  304.997
  304.983
  304.981
  306.536
  305.943
  305.165
  305.381
  305.516
  305.557
  305.567
  305.567
  305.563
  305.557
  305.55
  305.542
  305.534
  305.525
  305.515
  305.505
  305.493
  305.481
  305.468
  305.453
  305.437
  305.42
  305.4
  305.38
  305.357
  305.334
  305.309
  305.284
  305.257
  305.229
  305.2
  305.17
  305.141
  305.114
  305.088
  305.065
  305.042
  305.016
  304.979
  304.957
)
;

boundaryField
{
  floor
  {
    type wallHeatTransfer;
    Tinf uniform 305.2;
    alphaWall uniform 0.24;
    value nonuniform List<scalar> 29
(
  304.793
  303.921
  303.906
  303.921
  303.962
  303.994
  304.018
  304.037
  304.011
  303.982
  303.958
  303.942
  303.936
  303.936
  303.937
  303.943
  303.957
  303.99
  303.999
  304.013
  304.013
  304.109
  304.571
  304.764
  304.793
  303.921
  303.936
  304.192
  304.582
)
;
  }
  ceiling
  {
    type wallHeatTransfer;
    Tinf uniform 303.2;
    alphaWall uniform 0.24;
    value nonuniform List<scalar> 43
(
  306.293
  305.781
  305.078
  305.276
  305.396
  305.425
  305.423
  305.411
  305.395
  305.377
  305.36
  305.344
  305.329
  305.315
  305.303
  305.292
  305.282
  305.272
  305.262
  305.25
  305.237
  305.221
  305.204
  305.184
  305.164
  305.142
  305.12
  305.096
  305.071
  305.045
  305.019
  304.991
  304.964
  304.937
  304.912
  304.889
  304.864
  304.835
  304.798
  304.79
  306.284
  306.091
  305.018
)
;
  }
  sWall
  {
    type wallHeatTransfer;
    Tinf uniform 315.2;
    alphaWall uniform 0.36;
    value uniform 307.452;
  }
  nWall
  {
    type wallHeatTransfer;
    Tinf uniform 307.2;
    alphaWall uniform 0.36;
    value nonuniform List<scalar> 6
(
  305.296
  305.292
  305.297
  305.238
  305.24
  305.262
)
;
  }
  sideWalls
  {
    type empty;
  }
  glass1
  {
    type wallHeatTransfer;
    Tinf uniform 315.2;
    alphaWall uniform 4.3;
    value nonuniform List<scalar> 9
(
  312.723
  311.905
  311.376
  310.986
  310.697
  310.472
  310.299
  310.355
  310.554
)
;
  }
  glass2
  {
    type wallHeatTransfer;
    Tinf uniform 307.2;
    alphaWall uniform 4.3;
    value nonuniform List<scalar> 2
(
  306.406
  306.357
)
;
  }
  sun
  {
    type wallHeatTransfer;
    Tinf uniform 305.2;
    alphaWall uniform 0.24;
    value nonuniform List<scalar> 14
(
  305.055
  304.83
  304.831
  304.836
  304.839
  304.841
  304.843
  304.844
  304.844
  304.843
  304.84
  304.833
  304.823
  304.81
)
;
  }
  heatsource1
  {
    type fixedGradient;
    gradient uniform 0;
  }
  heatsource2
  {
    type fixedGradient;
    gradient uniform 0;
  }
  Table_master
  {
    type zeroGradient;
  }
  Table_slave
  {
    type zeroGradient;
  }
  inlet
  {
    type fixedValue;
    value uniform 299.15;
  }
  outlet
  {
    type zeroGradient;
  }
} 	// ************************************************************************* //

