// -*- C++ -*-
// File generated by PyFoam - sorry for the ugliness

FoamFile
{
 version 2.0;
 format ascii;
 class volScalarField;
 location "500";
 object T;
}

dimensions [ 0 0 0 1 0 0 0 ];

internalField nonuniform List<scalar> 459
(
  303.582
  303.323
  303.31
  303.306
  303.303
  303.298
  303.294
  303.288
  303.28
  303.269
  303.257
  303.245
  303.237
  303.232
  303.233
  303.323
  303.301
  303.293
  303.296
  303.299
  303.303
  303.307
  303.31
  303.314
  303.318
  303.322
  303.325
  303.329
  303.333
  303.336
  303.34
  303.344
  303.35
  303.368
  303.756
  303.366
  303.343
  303.345
  303.348
  303.349
  303.347
  303.34
  303.326
  303.304
  303.278
  303.253
  303.234
  303.222
  303.217
  303.214
  303.214
  303.323
  303.286
  303.28
  303.282
  303.286
  303.29
  303.292
  303.294
  303.295
  303.297
  303.298
  303.3
  303.301
  303.303
  303.305
  303.309
  303.315
  303.324
  303.352
  303.938
  303.417
  303.378
  303.388
  303.402
  303.413
  303.417
  303.413
  303.391
  303.353
  303.308
  303.267
  303.236
  303.218
  303.212
  303.212
  303.214
  303.264
  303.264
  303.27
  303.28
  303.289
  303.296
  303.296
  303.297
  303.297
  303.297
  303.298
  303.298
  303.299
  303.299
  303.3
  303.303
  303.307
  303.315
  303.345
  304.122
  303.479
  303.414
  303.43
  303.457
  303.484
  303.503
  303.502
  303.469
  303.409
  303.34
  303.279
  303.236
  303.213
  303.207
  303.21
  303.216
  303.226
  303.239
  303.257
  303.276
  303.293
  303.308
  303.32
  303.329
  303.338
  303.345
  303.352
  303.357
  303.362
  303.365
  303.368
  303.369
  303.347
  303.329
  303.321
  303.344
  304.3
  303.558
  303.456
  303.466
  303.504
  303.548
  303.588
  303.589
  303.539
  303.452
  303.357
  303.28
  303.229
  303.204
  303.199
  303.208
  303.221
  303.238
  303.258
  303.282
  303.305
  303.326
  303.343
  303.358
  303.37
  303.381
  303.389
  303.396
  303.401
  303.402
  303.401
  303.398
  303.392
  303.375
  303.351
  303.333
  303.342
  303.411
  303.458
  303.463
  304.461
  303.661
  303.529
  303.517
  303.553
  303.607
  303.66
  303.645
  303.57
  303.462
  303.352
  303.264
  303.209
  303.187
  303.19
  303.208
  303.233
  303.261
  303.29
  303.319
  303.345
  303.368
  303.386
  303.4
  303.411
  303.421
  303.428
  303.433
  303.436
  303.435
  303.43
  303.423
  303.412
  303.395
  303.372
  303.348
  303.345
  303.374
  303.391
  303.425
  304.608
  303.824
  303.692
  303.661
  303.677
  303.722
  303.731
  303.668
  303.552
  303.417
  303.296
  303.21
  303.166
  303.16
  303.181
  303.218
  303.259
  303.299
  303.336
  303.368
  303.394
  303.415
  303.43
  303.442
  303.451
  303.458
  303.463
  303.466
  303.466
  303.462
  303.454
  303.444
  303.43
  303.413
  303.392
  303.369
  303.358
  303.366
  303.376
  303.404
  304.822
  304.235
  304.09
  304.003
  303.958
  303.905
  303.786
  303.616
  303.433
  303.275
  303.164
  303.109
  303.105
  303.136
  303.189
  303.251
  303.309
  303.357
  303.396
  303.424
  303.444
  303.459
  303.471
  303.479
  303.485
  303.489
  303.491
  303.491
  303.489
  303.485
  303.477
  303.465
  303.453
  303.437
  303.421
  303.404
  303.398
  303.41
  303.428
  303.551
  305.128
  304.852
  304.595
  304.361
  304.136
  303.853
  303.529
  303.247
  303.052
  302.954
  302.936
  302.979
  303.061
  303.151
  303.241
  303.328
  303.387
  303.425
  303.453
  303.472
  303.486
  303.497
  303.504
  303.509
  303.512
  303.513
  303.513
  303.512
  303.51
  303.507
  303.506
  303.506
  303.507
  303.514
  303.527
  303.549
  303.58
  303.612
  303.633
  303.686
  296.377
  298.295
  299.509
  300.311
  301
  301.59
  302.077
  302.458
  302.749
  302.978
  303.172
  303.291
  303.369
  303.424
  303.459
  303.483
  303.499
  303.511
  303.519
  303.526
  303.53
  303.532
  303.534
  303.535
  303.536
  303.536
  303.537
  303.538
  303.54
  303.542
  303.546
  303.554
  303.567
  303.585
  303.608
  303.63
  303.649
  303.669
  297.032
  298.885
  300.306
  301.257
  301.859
  302.307
  302.651
  302.91
  303.1
  303.237
  303.339
  303.408
  303.454
  303.485
  303.506
  303.52
  303.53
  303.537
  303.542
  303.545
  303.548
  303.55
  303.552
  303.553
  303.554
  303.556
  303.557
  303.558
  303.559
  303.561
  303.565
  303.571
  303.579
  303.592
  303.607
  303.624
  303.623
  303.652
  299.719
  299.641
  299.637
  301.465
  302.274
  302.665
  302.895
  303.065
  303.195
  303.294
  303.368
  303.423
  303.463
  303.49
  303.508
  303.52
  303.528
  303.533
  303.537
  303.54
  303.542
  303.544
  303.547
  303.549
  303.551
  303.553
  303.556
  303.558
  303.56
  303.562
  303.564
  303.567
  303.57
  303.573
  303.578
  303.588
  303.597
  303.603
  303.604
  303.643
)
;

boundaryField
{
  floor
  {
    type wallHeatTransfer;
    Tinf uniform 305.2;
    alphaWall uniform 0.24;
    value nonuniform List<scalar> 29
(
  303.423
  303.679
  303.615
  303.584
  303.588
  303.599
  303.612
  303.629
  303.647
  303.665
  303.683
  303.699
  303.716
  303.731
  303.746
  303.761
  303.777
  303.794
  303.808
  303.847
  303.847
  303.765
  303.723
  303.699
  303.423
  303.679
  303.66
  303.476
  303.391
)
;
  }
  ceiling
  {
    type wallHeatTransfer;
    Tinf uniform 303.2;
    alphaWall uniform 0.24;
    value nonuniform List<scalar> 43
(
  299.967
  299.882
  299.871
  301.573
  302.333
  302.7
  302.916
  303.074
  303.195
  303.287
  303.354
  303.402
  303.435
  303.457
  303.47
  303.477
  303.482
  303.485
  303.487
  303.488
  303.49
  303.491
  303.493
  303.495
  303.498
  303.5
  303.503
  303.506
  303.509
  303.513
  303.517
  303.521
  303.525
  303.53
  303.537
  303.548
  303.557
  303.561
  303.56
  303.593
  305.039
  304.786
  297.429
)
;
  }
  sWall
  {
    type wallHeatTransfer;
    Tinf uniform 315.2;
    alphaWall uniform 0.36;
    value uniform 301.317;
  }
  nWall
  {
    type wallHeatTransfer;
    Tinf uniform 307.2;
    alphaWall uniform 0.36;
    value nonuniform List<scalar> 6
(
  304.167
  304.116
  304.04
  304.181
  304.158
  304.222
)
;
  }
  sideWalls
  {
    type empty;
  }
  glass1
  {
    type wallHeatTransfer;
    Tinf uniform 315.2;
    alphaWall uniform 4.3;
    value nonuniform List<scalar> 9
(
  311.533
  310.902
  310.504
  310.201
  309.948
  309.719
  309.55
  309.621
  309.846
)
;
  }
  glass2
  {
    type wallHeatTransfer;
    Tinf uniform 307.2;
    alphaWall uniform 4.3;
    value nonuniform List<scalar> 2
(
  305.824
  305.917
)
;
  }
  sun
  {
    type wallHeatTransfer;
    Tinf uniform 305.2;
    alphaWall uniform 0.24;
    value nonuniform List<scalar> 14
(
  303.753
  303.509
  303.495
  303.485
  303.476
  303.467
  303.458
  303.449
  303.438
  303.427
  303.416
  303.409
  303.407
  303.412
)
;
  }
  heatsource1
  {
    type fixedGradient;
    gradient uniform 0;
  }
  heatsource2
  {
    type fixedGradient;
    gradient uniform 0;
  }
  Table_master
  {
    type zeroGradient;
  }
  Table_slave
  {
    type zeroGradient;
  }
  inlet
  {
    type fixedValue;
    value uniform 293.15;
  }
  outlet
  {
    type zeroGradient;
  }
} 	// ************************************************************************* //

