/*--------------------------------*- C++ -*----------------------------------*\
  =========                 |
  \\      /  F ield         | OpenFOAM: The Open Source CFD Toolbox
   \\    /   O peration     | Website:  https://openfoam.org
    \\  /    A nd           | Version:  6
     \\/     M anipulation  |
\*---------------------------------------------------------------------------*/
FoamFile
{
    version     2.0;
    format      ascii;
    class       volScalarField;
    location    "1500";
    object      epsilon;
}
// * * * * * * * * * * * * * * * * * * * * * * * * * * * * * * * * * * * * * //

dimensions      [0 2 -3 0 0 0 0];

internalField   nonuniform List<scalar> 
459
(
0.000137422
0.000158096
0.000151066
0.000167237
0.000182293
0.000195929
0.000208408
0.00022015
0.000231716
0.000243479
0.000252259
0.000256858
0.000256946
0.000254001
0.000248804
4.38797e-05
4.09723e-05
4.04004e-05
4.18243e-05
4.23082e-05
4.04524e-05
3.57038e-05
3.07644e-05
2.65791e-05
2.30698e-05
2.01059e-05
1.75874e-05
1.54302e-05
1.35595e-05
1.19015e-05
1.03819e-05
8.9114e-06
7.92068e-06
6.05373e-06
0.000481042
0.00100152
0.000147786
0.000128165
0.000127279
0.000128422
0.000131108
0.000136349
0.000145289
0.000158651
0.000172887
0.000185695
0.00019496
0.0002016
0.000216499
0.00027201
0.000209617
9.33289e-05
5.54581e-05
4.20724e-05
3.6641e-05
3.23187e-05
2.90085e-05
2.8253e-05
2.40516e-05
2.04493e-05
1.73958e-05
1.47769e-05
1.25539e-05
1.06761e-05
9.09304e-06
7.81439e-06
7.0895e-06
6.93589e-06
1.81229e-05
1.26007e-05
0.00108727
0.00319971
0.000244528
0.000131519
0.00012699
0.000131529
0.000139156
0.000150277
0.000165269
0.000183747
0.000202257
0.000215839
0.000221052
0.000219907
0.000222514
0.000248658
0.000367946
0.000167926
6.63868e-05
5.06598e-05
3.92963e-05
3.1987e-05
2.92225e-05
6.46409e-05
4.33372e-05
3.06941e-05
2.30032e-05
1.8089e-05
1.47719e-05
1.24334e-05
1.07688e-05
9.69622e-06
7.939e-06
7.47362e-06
3.58133e-05
1.99109e-05
0.00210088
0.00749703
0.000532537
0.0001488
0.000133473
0.000142619
0.000155925
0.00017314
0.000195175
0.000222278
0.00024943
0.00026653
0.00026838
0.000257715
0.000243296
0.000240013
0.000276368
0.000373826
0.000141813
7.71199e-05
5.25376e-05
3.58461e-05
2.76569e-05
2.4858e-05
5.20248e-05
4.53297e-05
4.43255e-05
4.47731e-05
4.48229e-05
4.32354e-05
3.93251e-05
3.53499e-05
3.07819e-05
2.05274e-05
1.43559e-05
6.36943e-05
2.86242e-05
0.00365557
0.0140436
0.00131681
0.00020107
0.000142157
0.000150633
0.000168614
0.000194024
0.0002295
0.000277161
0.000323531
0.000348781
0.00034814
0.000327571
0.000296253
0.000264056
0.000237138
0.000194553
0.000118363
7.66887e-05
5.11097e-05
3.58282e-05
2.82503e-05
2.56101e-05
2.76618e-05
3.00712e-05
3.29202e-05
3.54179e-05
3.66776e-05
3.57223e-05
3.21817e-05
2.84204e-05
2.55972e-05
2.19197e-05
1.79052e-05
4.42376e-05
3.47579e-05
6.31508e-05
0.000111109
0.000154759
0.00591674
0.0209927
0.00347245
0.000472418
0.000209964
0.000182239
0.000191332
0.000218305
0.000268517
0.000360642
0.000433895
0.000462042
0.000451221
0.000414824
0.000364733
0.00030979
0.000251635
0.000186133
0.000124817
8.39242e-05
5.63633e-05
4.07405e-05
3.35227e-05
3.13635e-05
3.30878e-05
3.71895e-05
4.2266e-05
4.74317e-05
5.15096e-05
5.26458e-05
4.88312e-05
3.97049e-05
3.16846e-05
2.54913e-05
2.18693e-05
3.17626e-05
3.46615e-05
4.52182e-05
0.000204971
0.00017217
0.00889436
0.0250361
0.00856781
0.00220853
0.000933518
0.000515625
0.000389414
0.000366439
0.000405772
0.000553757
0.000620268
0.000619994
0.00057806
0.00051335
0.000438363
0.000361
0.000283552
0.000207592
0.000144333
0.000100411
6.82825e-05
5.05681e-05
4.29192e-05
4.1007e-05
4.28272e-05
4.74995e-05
5.42061e-05
6.24972e-05
7.14238e-05
7.87498e-05
8.15203e-05
7.22171e-05
5.70194e-05
4.53878e-05
4.07337e-05
4.57847e-05
5.72569e-05
8.78952e-05
0.000235269
0.000218705
0.00974132
0.0300414
0.0158357
0.0101417
0.00577709
0.00314645
0.00189075
0.00133112
0.00113418
0.00104292
0.000950263
0.000843968
0.000730236
0.000616144
0.000506639
0.000405122
0.000313745
0.000234761
0.000171639
0.000124875
8.65632e-05
6.63071e-05
5.79183e-05
5.5693e-05
5.72677e-05
6.19164e-05
6.9492e-05
8.02096e-05
9.43026e-05
0.000111634
0.000131465
0.000151592
0.000153321
0.000156113
0.000186127
0.0002713
0.000469394
0.000881023
0.00327483
0.000858077
0.00912843
0.0159175
0.0141694
0.0107573
0.00791111
0.0055922
0.00393552
0.00285626
0.00217349
0.00169029
0.00134113
0.00107677
0.000867385
0.000695382
0.000550964
0.000429717
0.000330954
0.00025475
0.000197126
0.000152601
0.000112274
9.13973e-05
8.23931e-05
7.89127e-05
7.86015e-05
8.10085e-05
8.67067e-05
9.68966e-05
0.000113163
0.00013735
0.000171608
0.00021867
0.00028224
0.000367435
0.000499745
0.000687388
0.000914793
0.00113467
0.00130362
0.000706419
0.00678252
0.0126224
0.00806779
0.00572854
0.00419383
0.00313436
0.00239278
0.00185134
0.00144126
0.00112923
0.000888118
0.000697807
0.000545059
0.00042352
0.000333323
0.000274373
0.000232741
0.000196369
0.00016013
0.000142319
0.000132924
0.000126722
0.000121522
0.000116951
0.000113973
0.000114361
0.000120315
0.000134322
0.000159258
0.000198691
0.000256441
0.000336378
0.000445604
0.000583755
0.000731703
0.000849679
0.000813166
0.000374606
0.00499831
0.0099444
0.00661219
0.00484188
0.00365614
0.00280178
0.00215183
0.00166333
0.00129732
0.00102029
0.00080782
0.000641655
0.000511014
0.000414695
0.000363888
0.000362515
0.000359894
0.000344427
0.000321812
0.000308467
0.000299167
0.000289606
0.000277278
0.000261297
0.000242935
0.000225016
0.000210841
0.000203451
0.000205581
0.000219926
0.000251484
0.000303871
0.000377003
0.000463567
0.000544331
0.000650789
0.000390599
0.000399751
0.00249664
0.00321308
0.00391434
0.00482298
0.00407448
0.00347629
0.00266416
0.00207338
0.00158932
0.00119403
0.000912798
0.000706704
0.000543399
0.000408805
0.000297298
0.000209853
0.000154994
0.000144015
0.000153131
0.000156362
0.000152927
0.000148156
0.000142802
0.000136756
0.000130457
0.000124911
0.000121437
0.000121279
0.000125433
0.000134805
0.000150719
0.00017592
0.000210258
0.000252993
0.000304874
0.000365207
0.000375605
0.000268349
0.000246835
0.000444724
)
;

boundaryField
{
    floor
    {
        Cmu             0.09;
        kappa           0.41;
        E               9.8;
        type            epsilonWallFunction;
        value           nonuniform List<scalar> 
29
(
0.000248804
4.38797e-05
4.09723e-05
4.04004e-05
4.18243e-05
4.23082e-05
4.04524e-05
3.57038e-05
3.07644e-05
2.65791e-05
2.30698e-05
2.01059e-05
1.75874e-05
1.54302e-05
1.35595e-05
1.19015e-05
1.03819e-05
8.9114e-06
7.92068e-06
6.05373e-06
6.05373e-06
1.26007e-05
1.99109e-05
2.86242e-05
0.000248804
4.38797e-05
9.33289e-05
0.000167926
0.000373826
)
;
    }
    ceiling
    {
        Cmu             0.09;
        kappa           0.41;
        E               9.8;
        type            epsilonWallFunction;
        value           nonuniform List<scalar> 
43
(
0.00249664
0.00321308
0.00391434
0.00482298
0.00407448
0.00347629
0.00266416
0.00207338
0.00158932
0.00119403
0.000912798
0.000706704
0.000543399
0.000408805
0.000297298
0.000209853
0.000154994
0.000144015
0.000153131
0.000156362
0.000152927
0.000148156
0.000142802
0.000136756
0.000130457
0.000124911
0.000121437
0.000121279
0.000125433
0.000134805
0.000150719
0.00017592
0.000210258
0.000252993
0.000304874
0.000365207
0.000375605
0.000268349
0.000246835
0.000444724
0.00912843
0.0159175
0.00499831
)
;
    }
    sWall
    {
        Cmu             0.09;
        kappa           0.41;
        E               9.8;
        type            epsilonWallFunction;
        value           uniform 0.00249664;
    }
    nWall
    {
        Cmu             0.09;
        kappa           0.41;
        E               9.8;
        type            epsilonWallFunction;
        value           nonuniform List<scalar> 6(0.000154759 0.00017217 0.000218705 0.000374606 0.000399751 0.000444724);
    }
    sideWalls
    {
        type            empty;
    }
    glass1
    {
        Cmu             0.09;
        kappa           0.41;
        E               9.8;
        type            epsilonWallFunction;
        value           nonuniform List<scalar> 9(0.000137422 0.000481042 0.00108727 0.00210088 0.00365557 0.00591674 0.00889436 0.00974132 0.00912843);
    }
    glass2
    {
        Cmu             0.09;
        kappa           0.41;
        E               9.8;
        type            epsilonWallFunction;
        value           nonuniform List<scalar> 2(0.000858077 0.000706419);
    }
    sun
    {
        Cmu             0.09;
        kappa           0.41;
        E               9.8;
        type            epsilonWallFunction;
        value           nonuniform List<scalar> 
14
(
0.000137422
0.000158096
0.000151066
0.000167237
0.000182293
0.000195929
0.000208408
0.00022015
0.000231716
0.000243479
0.000252259
0.000256858
0.000256946
0.000254001
)
;
    }
    heatsource1
    {
        Cmu             0.09;
        kappa           0.41;
        E               9.8;
        type            epsilonWallFunction;
        value           nonuniform List<scalar> 3(6.31508e-05 0.000111109 0.000154759);
    }
    heatsource2
    {
        Cmu             0.09;
        kappa           0.41;
        E               9.8;
        type            epsilonWallFunction;
        value           nonuniform List<scalar> 4(0.00027201 0.000209617 0.000209617 0.000367946);
    }
    Table_master
    {
        Cmu             0.09;
        kappa           0.41;
        E               9.8;
        type            epsilonWallFunction;
        value           nonuniform List<scalar> 9(6.46409e-05 4.33372e-05 3.06941e-05 2.30032e-05 1.8089e-05 1.47719e-05 1.24334e-05 1.07688e-05 9.69622e-06);
    }
    Table_slave
    {
        Cmu             0.09;
        kappa           0.41;
        E               9.8;
        type            epsilonWallFunction;
        value           nonuniform List<scalar> 9(5.20248e-05 4.53297e-05 4.43255e-05 4.47731e-05 4.48229e-05 4.32354e-05 3.93251e-05 3.53499e-05 3.07819e-05);
    }
    inlet
    {
        type            turbulentMixingLengthDissipationRateInlet;
        mixingLength    0.01;
        phi             phi;
        k               k;
        value           uniform 0.000101881;
    }
    outlet
    {
        type            zeroGradient;
    }
}


// ************************************************************************* //
