/*--------------------------------*- C++ -*----------------------------------*\
  =========                 |
  \\      /  F ield         | OpenFOAM: The Open Source CFD Toolbox
   \\    /   O peration     | Website:  https://openfoam.org
    \\  /    A nd           | Version:  6
     \\/     M anipulation  |
\*---------------------------------------------------------------------------*/
FoamFile
{
    version     2.0;
    format      ascii;
    class       volScalarField;
    location    "80";
    object      epsilon;
}
// * * * * * * * * * * * * * * * * * * * * * * * * * * * * * * * * * * * * * //

dimensions      [0 2 -3 0 0 0 0];

internalField   nonuniform List<scalar> 
459
(
0.00083567
0.00175548
0.00247064
0.00205918
0.00175429
0.00150736
0.00131069
0.00114933
0.00101536
0.000902363
0.000801001
0.000704526
0.000607157
0.000501955
0.000391808
0.000168609
0.000317841
0.000477415
0.000552684
0.000559109
0.0005299
0.000462954
0.000395454
0.000338998
0.000293235
0.000255996
0.000225392
0.000199869
0.000178389
0.000159559
0.000142146
0.000124637
0.000103287
8.01205e-05
0.00151931
0.00262813
0.00208366
0.00146265
0.0011315
0.000898013
0.000754794
0.000670229
0.000617928
0.000579536
0.000541308
0.000496347
0.000443368
0.000385409
0.000328148
0.000388151
0.000274048
0.00022853
0.000664223
0.000441375
0.000403295
0.00038725
0.00037192
0.00039928
0.000348445
0.000293122
0.000245694
0.000206878
0.000175514
0.000149969
0.000129126
0.000112325
0.000103225
0.000105106
9.27104e-05
9.46347e-05
0.00218589
0.00467015
0.00222554
0.00127242
0.000945707
0.000702916
0.000570446
0.000510251
0.000481288
0.000459653
0.000432374
0.000395823
0.000353366
0.000310853
0.000273582
0.000268107
0.000298936
0.000259937
0.000434053
0.00038937
0.000383373
0.000375947
0.000388515
0.000982163
0.000702532
0.000514701
0.00038809
0.000301056
0.000239633
0.000195045
0.000163198
0.000142456
0.000109052
9.97467e-05
8.59316e-05
0.000100243
0.00292393
0.00661954
0.00221934
0.00113772
0.00088525
0.000585896
0.000430126
0.00037363
0.000359026
0.000352327
0.000338409
0.00031534
0.000287383
0.00026057
0.000240339
0.000232342
0.000252831
0.000363839
0.000337648
0.000344734
0.00038001
0.000407776
0.000413158
0.000437687
0.0013008
0.00101743
0.000820283
0.000677867
0.000565708
0.000471422
0.000388209
0.000311951
0.000238425
0.000138264
0.000100893
9.31552e-05
0.000109007
0.00370038
0.00772774
0.0021198
0.00115928
0.000990934
0.00053935
0.000325378
0.000260699
0.000256623
0.000262264
0.000262013
0.000254751
0.000244324
0.000236467
0.000237277
0.000249641
0.00030742
0.000388257
0.000438721
0.00049381
0.000538677
0.000551434
0.000528118
0.000487613
0.000494172
0.000474231
0.000451495
0.000425424
0.000390824
0.000348246
0.000299687
0.000247206
0.000189966
0.000128936
9.37729e-05
9.46549e-05
0.000101664
0.00011079
8.25183e-05
0.000115284
0.00426956
0.00790753
0.00198459
0.00132065
0.00120918
0.000567795
0.000296138
0.00021823
0.000208159
0.000215365
0.000223282
0.00022909
0.000235461
0.000248523
0.000277098
0.000331531
0.000432911
0.000547804
0.000654989
0.000731271
0.000756361
0.000724487
0.000650091
0.000558937
0.000486204
0.000440873
0.00040894
0.000376584
0.000338079
0.000293988
0.000246513
0.000198159
0.000149872
0.000107553
8.14442e-05
8.30028e-05
9.60292e-05
0.000110055
0.000118617
0.000149185
0.00413696
0.00772872
0.00196625
0.00152826
0.00149797
0.000676673
0.000345712
0.00024921
0.000229933
0.000234552
0.000246244
0.000261933
0.000284725
0.00032126
0.00038079
0.000475575
0.000614514
0.000777221
0.000897451
0.000947017
0.000917562
0.000824108
0.000697435
0.000570179
0.00047237
0.000411073
0.000369093
0.00032816
0.000283307
0.000236351
0.000190445
0.000148281
0.000110759
8.25092e-05
6.56823e-05
6.80516e-05
8.33993e-05
0.000104575
0.000234919
0.000277771
0.00360898
0.00774542
0.00218581
0.00171117
0.00176875
0.000818706
0.000468326
0.00037438
0.000359979
0.000366786
0.000383158
0.000409051
0.00044707
0.000504116
0.000591152
0.000719933
0.00087759
0.00102687
0.00110356
0.00108688
0.000981179
0.000827251
0.000672163
0.00054279
0.000450425
0.000387718
0.000337362
0.000287777
0.000237545
0.000189374
0.000146354
0.000110499
8.24713e-05
6.39999e-05
5.51115e-05
5.87274e-05
7.96324e-05
0.000132032
0.00101801
0.000941317
0.00287898
0.00240802
0.00175135
0.00186934
0.00188195
0.00103616
0.000755892
0.000702275
0.000711746
0.000734654
0.000760451
0.00079187
0.000836399
0.000901781
0.000992454
0.00110352
0.00121447
0.00128342
0.00127696
0.00119202
0.00105412
0.000901238
0.000764251
0.000658459
0.000576366
0.000508769
0.000445416
0.000380883
0.000315443
0.000252114
0.000194662
0.000146417
0.000109723
8.62601e-05
7.67326e-05
8.36616e-05
0.000121309
0.000318687
0.00283841
0.00178526
0.0014587
0.00233583
0.0020601
0.00158328
0.00153329
0.00157484
0.00162401
0.00166281
0.00169126
0.00171663
0.0017451
0.00178021
0.00182407
0.00186253
0.00187662
0.00184698
0.00177503
0.00167973
0.00158453
0.00150427
0.00144034
0.00138456
0.00133215
0.00127596
0.00121098
0.00113453
0.00104551
0.000944313
0.000833225
0.000717264
0.000605257
0.000510574
0.00045142
0.000457051
0.000599689
0.00120254
0.0040337
0.00166633
0.00530258
0.00595354
0.0048698
0.00402433
0.00380595
0.00382469
0.00386277
0.00387471
0.00386553
0.00384791
0.00383428
0.00383343
0.00384847
0.00388122
0.00391899
0.00394135
0.00392819
0.00387894
0.00381031
0.00374002
0.00367715
0.00362201
0.00356788
0.00350888
0.0034389
0.00335115
0.00323747
0.00308894
0.00289776
0.0026602
0.00238133
0.00208151
0.00180343
0.00161803
0.00163633
0.00207466
0.0028244
0.00132699
0.00116452
0.0014823
0.00216342
0.00272589
0.00272155
0.00265766
0.00263243
0.00262117
0.00262334
0.00263674
0.00266007
0.00269228
0.00273055
0.00276967
0.00280239
0.0028177
0.00280744
0.00277037
0.00271447
0.00265152
0.00259101
0.00253727
0.00248977
0.00244467
0.00239693
0.00234072
0.002271
0.00218421
0.002079
0.00195691
0.00182325
0.00168755
0.00156339
0.00146749
0.00141974
0.00144418
0.00156488
0.00177807
0.00182879
0.00111732
)
;

boundaryField
{
    floor
    {
        Cmu             0.09;
        kappa           0.41;
        E               9.8;
        type            epsilonWallFunction;
        value           nonuniform List<scalar> 
29
(
0.000391808
0.000168609
0.000317841
0.000477415
0.000552684
0.000559109
0.0005299
0.000462954
0.000395454
0.000338998
0.000293235
0.000255996
0.000225392
0.000199869
0.000178389
0.000159559
0.000142146
0.000124637
0.000103287
8.01205e-05
8.01205e-05
9.46347e-05
0.000100243
0.000109007
0.000391808
0.000168609
0.00022853
0.000259937
0.000363839
)
;
    }
    ceiling
    {
        Cmu             0.09;
        kappa           0.41;
        E               9.8;
        type            epsilonWallFunction;
        value           nonuniform List<scalar> 
43
(
0.00116452
0.0014823
0.00216342
0.00272589
0.00272155
0.00265766
0.00263243
0.00262117
0.00262334
0.00263674
0.00266007
0.00269228
0.00273055
0.00276967
0.00280239
0.0028177
0.00280744
0.00277037
0.00271447
0.00265152
0.00259101
0.00253727
0.00248977
0.00244467
0.00239693
0.00234072
0.002271
0.00218421
0.002079
0.00195691
0.00182325
0.00168755
0.00156339
0.00146749
0.00141974
0.00144418
0.00156488
0.00177807
0.00182879
0.00111732
0.00287898
0.00240802
0.00530258
)
;
    }
    sWall
    {
        Cmu             0.09;
        kappa           0.41;
        E               9.8;
        type            epsilonWallFunction;
        value           uniform 0.00116452;
    }
    nWall
    {
        Cmu             0.09;
        kappa           0.41;
        E               9.8;
        type            epsilonWallFunction;
        value           nonuniform List<scalar> 6(0.000115284 0.000149185 0.000277771 0.00166633 0.00132699 0.00111732);
    }
    sideWalls
    {
        type            empty;
    }
    glass1
    {
        Cmu             0.09;
        kappa           0.41;
        E               9.8;
        type            epsilonWallFunction;
        value           nonuniform List<scalar> 9(0.00083567 0.00151931 0.00218589 0.00292393 0.00370038 0.00426956 0.00413696 0.00360898 0.00287898);
    }
    glass2
    {
        Cmu             0.09;
        kappa           0.41;
        E               9.8;
        type            epsilonWallFunction;
        value           nonuniform List<scalar> 2(0.000941317 0.00178526);
    }
    sun
    {
        Cmu             0.09;
        kappa           0.41;
        E               9.8;
        type            epsilonWallFunction;
        value           nonuniform List<scalar> 
14
(
0.00083567
0.00175548
0.00247064
0.00205918
0.00175429
0.00150736
0.00131069
0.00114933
0.00101536
0.000902363
0.000801001
0.000704526
0.000607157
0.000501955
)
;
    }
    heatsource1
    {
        Cmu             0.09;
        kappa           0.41;
        E               9.8;
        type            epsilonWallFunction;
        value           nonuniform List<scalar> 3(0.00011079 8.25183e-05 0.000115284);
    }
    heatsource2
    {
        Cmu             0.09;
        kappa           0.41;
        E               9.8;
        type            epsilonWallFunction;
        value           nonuniform List<scalar> 4(0.000388151 0.000274048 0.000274048 0.000298936);
    }
    Table_master
    {
        Cmu             0.09;
        kappa           0.41;
        E               9.8;
        type            epsilonWallFunction;
        value           nonuniform List<scalar> 9(0.000982163 0.000702532 0.000514701 0.00038809 0.000301056 0.000239633 0.000195045 0.000163198 0.000142456);
    }
    Table_slave
    {
        Cmu             0.09;
        kappa           0.41;
        E               9.8;
        type            epsilonWallFunction;
        value           nonuniform List<scalar> 9(0.0013008 0.00101743 0.000820283 0.000677867 0.000565708 0.000471422 0.000388209 0.000311951 0.000238425);
    }
    inlet
    {
        type            turbulentMixingLengthDissipationRateInlet;
        mixingLength    0.01;
        phi             phi;
        k               k;
        value           uniform 0.000101881;
    }
    outlet
    {
        type            zeroGradient;
    }
}


// ************************************************************************* //
