// -*- C++ -*-
// File generated by PyFoam - sorry for the ugliness

FoamFile
{
 version 2.0;
 format ascii;
 class volVectorField;
 location "80";
 object U;
}

dimensions [ 0 1 -1 0 0 0 0 ];

internalField nonuniform List<vector> 459
(
  (0.00697303 0.0230032 0)
  (-0.0631903 -0.0366147 0)
  (0.0278855 -0.0994941 0)
  (0.117353 -0.0857494 0)
  (0.19183 -0.0600065 0)
  (0.24274 -0.0397351 0)
  (0.269816 -0.0257949 0)
  (0.279948 -0.0162606 0)
  (0.279245 -0.00918258 0)
  (0.271065 -0.00320245 0)
  (0.256757 0.00248775 0)
  (0.235684 0.00892345 0)
  (0.205395 0.0180983 0)
  (0.157865 0.036299 0)
  (0.127917 0.0859508 0)
  (-0.0845861 0.0135571 0)
  (-0.0316967 -0.00737746 0)
  (-0.00805457 -0.0335231 0)
  (0.0329176 -0.0402683 0)
  (0.0661857 -0.0330629 0)
  (0.096713 -0.0240472 0)
  (0.11802 -0.0147211 0)
  (0.130117 -0.00950687 0)
  (0.135882 -0.00742935 0)
  (0.138833 -0.0065489 0)
  (0.140782 -0.0059645 0)
  (0.142045 -0.00544039 0)
  (0.142432 -0.00479533 0)
  (0.141336 -0.00355065 0)
  (0.137337 -0.000810883 0)
  (0.12741 0.00479928 0)
  (0.10786 0.0127612 0)
  (0.0705453 0.0249349 0)
  (0.0785321 0.03507 0)
  (0.0997628 0.072725 0)
  (-0.0480705 -0.0372683 0)
  (0.0389053 -0.142443 0)
  (0.0983246 -0.132693 0)
  (0.156108 -0.0855263 0)
  (0.192987 -0.0467312 0)
  (0.210909 -0.0203875 0)
  (0.216334 -0.00278392 0)
  (0.213666 0.00955061 0)
  (0.206141 0.0189561 0)
  (0.195203 0.0273731 0)
  (0.181251 0.0368017 0)
  (0.164989 0.0497534 0)
  (0.147737 0.0701623 0)
  (0.145113 0.108789 0)
  (0.136095 0.0968611 0)
  (0.0858535 0.0846274 0)
  (-0.129833 0.0360913 0)
  (0.0393475 -0.0273986 0)
  (0.0542058 -0.0538676 0)
  (0.076414 -0.0583488 0)
  (0.0989397 -0.0491312 0)
  (0.117798 -0.0347855 0)
  (0.127431 -0.0157788 0)
  (0.129869 -0.00422122 0)
  (0.129893 0.000494759 0)
  (0.130248 0.00242978 0)
  (0.131002 0.00354655 0)
  (0.131655 0.0044034 0)
  (0.132073 0.00552727 0)
  (0.131997 0.00778146 0)
  (0.130315 0.013263 0)
  (0.122005 0.0273176 0)
  (0.102119 0.0427748 0)
  (0.0588059 0.0621893 0)
  (0.108891 0.0710385 0)
  (0.18461 0.103711 0)
  (-0.0568857 -0.0631425 0)
  (0.0306658 -0.194727 0)
  (0.0708343 -0.191888 0)
  (0.113209 -0.123947 0)
  (0.135269 -0.068967 0)
  (0.143151 -0.0324039 0)
  (0.143614 -0.0084292 0)
  (0.140202 0.00856832 0)
  (0.135862 0.0215695 0)
  (0.131204 0.032918 0)
  (0.126495 0.044925 0)
  (0.122383 0.0597754 0)
  (0.118995 0.0791434 0)
  (0.120749 0.10433 0)
  (0.110689 0.101354 0)
  (0.0870085 0.131216 0)
  (-0.0705678 -0.0232246 0)
  (0.0833699 -0.0685718 0)
  (0.107104 -0.0834621 0)
  (0.11836 -0.0799133 0)
  (0.128807 -0.0665481 0)
  (0.137895 -0.0517191 0)
  (0.138061 -0.0397833 0)
  (0.124863 -0.0270149 0)
  (0.113836 -0.0197517 0)
  (0.108502 -0.0153824 0)
  (0.106151 -0.0123542 0)
  (0.104787 -0.0100978 0)
  (0.104079 -0.00811786 0)
  (0.105397 -0.00521985 0)
  (0.112027 0.00284906 0)
  (0.110448 0.0366791 0)
  (0.0924355 0.0643449 0)
  (0.0446563 0.0959063 0)
  (0.140362 0.11553 0)
  (0.250857 0.125071 0)
  (-0.0789491 -0.0758625 0)
  (0.0124902 -0.230983 0)
  (0.0375432 -0.234305 0)
  (0.0653137 -0.142651 0)
  (0.074443 -0.0739734 0)
  (0.0738946 -0.0306781 0)
  (0.0710814 -0.00407743 0)
  (0.0700556 0.0128651 0)
  (0.0710319 0.0247442 0)
  (0.0732938 0.0349572 0)
  (0.0767235 0.0457876 0)
  (0.0816938 0.0587922 0)
  (0.0885859 0.0748924 0)
  (0.102011 0.0951727 0)
  (0.121849 0.107235 0)
  (0.148463 0.13757 0)
  (0.19787 0.0549087 0)
  (0.190458 -0.00765386 0)
  (0.180085 -0.0569423 0)
  (0.166367 -0.0788437 0)
  (0.154429 -0.0783628 0)
  (0.145802 -0.0660265 0)
  (0.138658 -0.0478203 0)
  (0.139697 -0.0286594 0)
  (0.149804 -0.0179282 0)
  (0.154864 -0.0114365 0)
  (0.152673 -0.00687487 0)
  (0.14614 -0.00319496 0)
  (0.136789 7.58882e-05 0)
  (0.12453 0.00333439 0)
  (0.108208 0.00718872 0)
  (0.0815817 0.0127971 0)
  (0.0701511 0.0510329 0)
  (0.0695793 0.0816182 0)
  (0.0312512 0.119572 0)
  (0.173259 0.165305 0)
  (0.29218 0.146923 0)
  (-0.105729 -0.079639 0)
  (-0.0104122 -0.256061 0)
  (0.00422638 -0.262606 0)
  (0.0176175 -0.147683 0)
  (0.0205068 -0.0707879 0)
  (0.016873 -0.0263184 0)
  (0.0147854 -0.00225696 0)
  (0.0175757 0.0113519 0)
  (0.0225502 0.0208405 0)
  (0.0292415 0.0293875 0)
  (0.0376747 0.038501 0)
  (0.0483364 0.0490399 0)
  (0.062248 0.0614107 0)
  (0.0830169 0.0756592 0)
  (0.111035 0.0833759 0)
  (0.146624 0.0811498 0)
  (0.176512 0.0151933 0)
  (0.181684 -0.031358 0)
  (0.173548 -0.0584437 0)
  (0.159243 -0.0685727 0)
  (0.143125 -0.0656303 0)
  (0.128398 -0.0543213 0)
  (0.116555 -0.037527 0)
  (0.11059 -0.015821 0)
  (0.109389 -0.00186229 0)
  (0.106147 0.00572163 0)
  (0.100634 0.010259 0)
  (0.0938224 0.013802 0)
  (0.0862275 0.0172816 0)
  (0.0776834 0.0213318 0)
  (0.0680282 0.0266818 0)
  (0.0556951 0.034591 0)
  (0.0485038 0.0570596 0)
  (0.0579627 0.0833075 0)
  (0.0419449 0.115966 0)
  (0.132077 0.165951 0)
  (0.120822 0.130746 0)
  (-0.0461134 0.0725483 0)
  (0.242286 -0.00854065 0)
  (0.317936 0.172416 0)
  (-0.129963 -0.0844093 0)
  (-0.0278268 -0.281564 0)
  (-0.0175141 -0.280909 0)
  (-0.0189545 -0.149833 0)
  (-0.0156002 -0.0691831 0)
  (-0.0178657 -0.026182 0)
  (-0.0178549 -0.0053354 0)
  (-0.014173 0.00563639 0)
  (-0.00838291 0.0131497 0)
  (-0.000435544 0.0199183 0)
  (0.00982037 0.0269885 0)
  (0.0225006 0.0345308 0)
  (0.0385361 0.0423087 0)
  (0.0597357 0.049047 0)
  (0.085786 0.0486267 0)
  (0.11622 0.0360707 0)
  (0.1373 0.00110977 0)
  (0.141144 -0.0271221 0)
  (0.132878 -0.0444615 0)
  (0.118306 -0.0512408 0)
  (0.101669 -0.0487052 0)
  (0.0857676 -0.039465 0)
  (0.0724448 -0.0259006 0)
  (0.0633997 -0.0101831 0)
  (0.0577548 0.00133959 0)
  (0.0533649 0.00840827 0)
  (0.0491038 0.0130908 0)
  (0.0447066 0.0171517 0)
  (0.040179 0.0214683 0)
  (0.0355283 0.0265698 0)
  (0.0310745 0.0329273 0)
  (0.0263636 0.0410708 0)
  (0.0249646 0.0554147 0)
  (0.0376392 0.0736738 0)
  (0.0306235 0.0926318 0)
  (0.0787817 0.128999 0)
  (0.0825524 0.0938606 0)
  (-0.0362488 0.065953 0)
  (0.223607 0.0122778 0)
  (0.378567 0.205937 0)
  (-0.126867 -0.095218 0)
  (-0.0260855 -0.304752 0)
  (-0.0139189 -0.294377 0)
  (-0.0334562 -0.149719 0)
  (-0.0319475 -0.0677529 0)
  (-0.0350339 -0.0265195 0)
  (-0.0355466 -0.00815495 0)
  (-0.032917 0.000500733 0)
  (-0.0279047 0.00590174 0)
  (-0.020852 0.0103973 0)
  (-0.0116562 0.0148527 0)
  (0.000178276 0.0194435 0)
  (0.0149511 0.0235264 0)
  (0.0327551 0.0257225 0)
  (0.0529574 0.0229216 0)
  (0.073287 0.0131948 0)
  (0.0841322 -0.00514548 0)
  (0.0846192 -0.0221186 0)
  (0.0758337 -0.0329866 0)
  (0.0617267 -0.0363637 0)
  (0.0458008 -0.0330761 0)
  (0.0305397 -0.0251242 0)
  (0.0178105 -0.0144467 0)
  (0.00903136 -0.00288371 0)
  (0.00341055 0.00620439 0)
  (0.00086392 0.0120317 0)
  (-0.00107412 0.0162602 0)
  (-0.00277149 0.0202251 0)
  (-0.00426544 0.0245428 0)
  (-0.00535511 0.029456 0)
  (-0.00562354 0.0350524 0)
  (-0.00537668 0.0412692 0)
  (-0.00308638 0.0498654 0)
  (0.0106761 0.062027 0)
  (0.00530164 0.0748043 0)
  (0.0374134 0.108766 0)
  (0.0550876 0.0966838 0)
  (-0.0666768 0.0954567 0)
  (0.249647 -0.00729626 0)
  (0.467263 0.20391 0)
  (0.00728694 -0.0417144 0)
  (0.00413381 -0.28071 0)
  (0.0206309 -0.286476 0)
  (-0.0254771 -0.13577 0)
  (-0.0368944 -0.0572508 0)
  (-0.046131 -0.0221198 0)
  (-0.0499078 -0.00826995 0)
  (-0.0494726 -0.00271408 0)
  (-0.046158 0.000327059 0)
  (-0.0409133 0.00282714 0)
  (-0.0340523 0.00521471 0)
  (-0.0254969 0.00744916 0)
  (-0.0152116 0.00924236 0)
  (-0.00324679 0.0098846 0)
  (0.00948494 0.00786918 0)
  (0.0198713 0.0024678 0)
  (0.0234776 -0.00694258 0)
  (0.0205097 -0.0162693 0)
  (0.0111027 -0.0217463 0)
  (-0.00244361 -0.0221477 0)
  (-0.0167506 -0.0183296 0)
  (-0.0295034 -0.0120374 0)
  (-0.039364 -0.00453915 0)
  (-0.0459868 0.00290133 0)
  (-0.0485261 0.00871994 0)
  (-0.0491249 0.0130877 0)
  (-0.048913 0.0168832 0)
  (-0.0481538 0.0206306 0)
  (-0.0467947 0.0245435 0)
  (-0.0446056 0.0286456 0)
  (-0.0413717 0.0328557 0)
  (-0.0372929 0.0371425 0)
  (-0.0315919 0.0425581 0)
  (-0.020563 0.0515437 0)
  (-0.0205583 0.0642627 0)
  (0.00810487 0.0978654 0)
  (0.0451894 0.100382 0)
  (-0.0959121 0.108948 0)
  (0.451646 0.0545597 0)
  (0.56449 0.225897 0)
  (0.183329 0.152879 0)
  (0.0501734 -0.179122 0)
  (0.0587218 -0.226476 0)
  (-0.0113686 -0.0996639 0)
  (-0.0471264 -0.032771 0)
  (-0.06379 -0.00983372 0)
  (-0.0706483 -0.00289663 0)
  (-0.0724532 -0.0010596 0)
  (-0.0716146 -0.000332834 0)
  (-0.0691324 0.000435997 0)
  (-0.0654594 0.00137405 0)
  (-0.0609368 0.00235272 0)
  (-0.0558391 0.0031585 0)
  (-0.0504746 0.00344897 0)
  (-0.0455163 0.00274607 0)
  (-0.0425314 0.000546238 0)
  (-0.0430483 -0.00342197 0)
  (-0.0479712 -0.00728576 0)
  (-0.0567221 -0.00894745 0)
  (-0.0673688 -0.00813416 0)
  (-0.077876 -0.00563756 0)
  (-0.0868253 -0.00220829 0)
  (-0.0933594 0.00160971 0)
  (-0.0964263 0.00511518 0)
  (-0.0969294 0.00813297 0)
  (-0.0959535 0.0108439 0)
  (-0.0939544 0.0134488 0)
  (-0.0910538 0.0160692 0)
  (-0.0872067 0.0187895 0)
  (-0.0823211 0.0216759 0)
  (-0.0764161 0.0248269 0)
  (-0.0696847 0.0285583 0)
  (-0.0618239 0.0339208 0)
  (-0.0519955 0.0425836 0)
  (-0.0441049 0.0550137 0)
  (-0.0191113 0.0786348 0)
  (0.0323538 0.0906416 0)
  (-0.125667 0.092087 0)
  (0.482238 0.0698165 0)
  (0.000392624 -0.16215 0)
  (0.038595 -0.146039 0)
  (-0.0419619 -0.0339172 0)
  (-0.0820635 0.00362268 0)
  (-0.0963434 0.0121344 0)
  (-0.101131 0.0123544 0)
  (-0.103183 0.0108252 0)
  (-0.104182 0.00967386 0)
  (-0.104563 0.00936686 0)
  (-0.104512 0.00973076 0)
  (-0.104166 0.010545 0)
  (-0.103672 0.0115597 0)
  (-0.103359 0.0124084 0)
  (-0.103575 0.0131413 0)
  (-0.104934 0.0135484 0)
  (-0.107977 0.0136207 0)
  (-0.113093 0.0141635 0)
  (-0.119595 0.0158052 0)
  (-0.126243 0.018411 0)
  (-0.131968 0.0214864 0)
  (-0.136084 0.0246123 0)
  (-0.138247 0.0275682 0)
  (-0.138787 0.0305444 0)
  (-0.137978 0.0336676 0)
  (-0.136053 0.0370018 0)
  (-0.13309 0.0405077 0)
  (-0.129074 0.0440851 0)
  (-0.123952 0.0475653 0)
  (-0.117693 0.0506965 0)
  (-0.110378 0.0531802 0)
  (-0.102187 0.0548158 0)
  (-0.0931328 0.0557766 0)
  (-0.0829299 0.0568089 0)
  (-0.0706978 0.0595051 0)
  (-0.0482053 0.0689332 0)
  (-0.024125 0.0802645 0)
  (-0.139293 0.068388 0)
  (0.319603 0.0833184 0)
  (-0.197668 -0.125756 0)
  (-0.0862222 -0.106106 0)
  (-0.122162 -0.097307 0)
  (-0.13233 -0.0948946 0)
  (-0.133721 -0.0954263 0)
  (-0.134496 -0.097885 0)
  (-0.136012 -0.0994393 0)
  (-0.138162 -0.0997726 0)
  (-0.140553 -0.099246 0)
  (-0.142835 -0.0981076 0)
  (-0.144808 -0.0966023 0)
  (-0.146393 -0.0950086 0)
  (-0.147656 -0.0936466 0)
  (-0.148924 -0.0932816 0)
  (-0.150501 -0.0943282 0)
  (-0.152698 -0.0967435 0)
  (-0.155487 -0.0999089 0)
  (-0.158408 -0.103205 0)
  (-0.160917 -0.106315 0)
  (-0.162665 -0.109135 0)
  (-0.163543 -0.111654 0)
  (-0.163604 -0.113948 0)
  (-0.162922 -0.116147 0)
  (-0.16153 -0.118511 0)
  (-0.159471 -0.121266 0)
  (-0.156802 -0.124532 0)
  (-0.153591 -0.128259 0)
  (-0.149907 -0.132171 0)
  (-0.145801 -0.135696 0)
  (-0.141288 -0.137885 0)
  (-0.136266 -0.137372 0)
  (-0.130266 -0.132538 0)
  (-0.121901 -0.12181 0)
  (-0.10828 -0.103486 0)
  (-0.0869964 -0.0766403 0)
  (-0.071535 -0.0530017 0)
  (-0.107161 -0.0669331 0)
  (0.236678 -0.0581222 0)
  (-0.184226 -0.176238 0)
  (-0.167518 0.044052 0)
  (-0.151727 0.368244 0)
  (-0.160105 0.305266 0)
  (-0.172536 0.303689 0)
  (-0.174944 0.307639 0)
  (-0.174977 0.309235 0)
  (-0.175674 0.310535 0)
  (-0.17752 0.310438 0)
  (-0.180166 0.309263 0)
  (-0.183192 0.307513 0)
  (-0.186227 0.305543 0)
  (-0.188958 0.303734 0)
  (-0.191118 0.302519 0)
  (-0.192476 0.302347 0)
  (-0.19301 0.303854 0)
  (-0.192924 0.307186 0)
  (-0.192541 0.312019 0)
  (-0.192084 0.317642 0)
  (-0.1916 0.323369 0)
  (-0.191058 0.328778 0)
  (-0.190414 0.333749 0)
  (-0.189615 0.338417 0)
  (-0.188578 0.343099 0)
  (-0.187166 0.348165 0)
  (-0.185221 0.354026 0)
  (-0.182621 0.360999 0)
  (-0.179282 0.369234 0)
  (-0.175161 0.378664 0)
  (-0.170239 0.388935 0)
  (-0.164523 0.399318 0)
  (-0.158053 0.408628 0)
  (-0.150859 0.415236 0)
  (-0.142648 0.417269 0)
  (-0.132175 0.413003 0)
  (-0.117531 0.401693 0)
  (-0.10069 0.386514 0)
  (-0.0949401 0.38009 0)
  (-0.0974517 0.405797 0)
  (0.247223 0.463287 0)
)
;

boundaryField
{
  floor
  {
    type noSlip;
  }
  ceiling
  {
    type noSlip;
  }
  sWall
  {
    type noSlip;
  }
  nWall
  {
    type noSlip;
  }
  sideWalls
  {
    type empty;
  }
  glass1
  {
    type noSlip;
  }
  glass2
  {
    type noSlip;
  }
  sun
  {
    type noSlip;
  }
  heatsource1
  {
    type noSlip;
  }
  heatsource2
  {
    type noSlip;
  }
  Table_master
  {
    type noSlip;
  }
  Table_slave
  {
    type noSlip;
  }
  inlet
  {
    type fixedValue;
    value uniform (0.277164 -0.114805 0);
  }
  outlet
  {
    type zeroGradient;
  }
} 	// ************************************************************************* //

