/*--------------------------------*- C++ -*----------------------------------*\
  =========                 |
  \\      /  F ield         | OpenFOAM: The Open Source CFD Toolbox
   \\    /   O peration     | Website:  https://openfoam.org
    \\  /    A nd           | Version:  6
     \\/     M anipulation  |
\*---------------------------------------------------------------------------*/
FoamFile
{
    version     2.0;
    format      ascii;
    class       volScalarField;
    location    "1100";
    object      nut;
}
// * * * * * * * * * * * * * * * * * * * * * * * * * * * * * * * * * * * * * //

dimensions      [0 2 -1 0 0 0 0];

internalField   nonuniform List<scalar> 
459
(
0.00108104
0.0011811
0.00120319
0.00126105
0.00131464
0.0013648
0.001414
0.00146197
0.00149571
0.00150974
0.001499
0.0014604
0.0013938
0.00130475
0.00120701
0.000474319
0.000579797
0.000652145
0.000648031
0.000625674
0.000596346
0.000559594
0.000523184
0.000490129
0.000460767
0.000434755
0.000411633
0.00039106
0.00037258
0.000355535
0.000339068
0.000321924
0.000309638
0.000281988
0.00147251
0.00359771
0.00344493
0.00401012
0.00456589
0.0051215
0.00561127
0.00598039
0.00631365
0.0065839
0.00675343
0.00677967
0.00659765
0.00604367
0.00452295
0.00123102
0.000723433
0.000512746
0.00107577
0.00148467
0.00177599
0.00192926
0.00192081
0.00154457
0.0013325
0.0011806
0.00106393
0.000971164
0.000895725
0.000830808
0.000770362
0.000711754
0.000659652
0.000614361
0.000719274
0.00036816
0.00179828
0.00491465
0.00427663
0.00536167
0.00590455
0.0063082
0.00662222
0.00687335
0.00714482
0.00742686
0.00768607
0.0078756
0.00794335
0.00781188
0.00727524
0.00560824
0.00122544
0.00102225
0.0014681
0.00187902
0.00224299
0.00248715
0.00241544
0.000801148
0.000707468
0.000632211
0.000571485
0.00052201
0.00048127
0.000447459
0.000419426
0.000396691
0.000427416
0.000494128
0.000808378
0.000425641
0.00211091
0.00628047
0.0042915
0.00567595
0.00615266
0.00631737
0.00642646
0.00655826
0.00677579
0.00706501
0.00739102
0.00769565
0.00792476
0.0080172
0.00790161
0.00732613
0.00535609
0.00146588
0.00181695
0.00234318
0.0028474
0.00324178
0.00347745
0.00325099
0.000904005
0.000822915
0.000764829
0.000720582
0.000683065
0.000648696
0.000615736
0.000581181
0.000541132
0.000507588
0.000518809
0.000922698
0.000470266
0.00242974
0.00803417
0.00471947
0.0054687
0.00609882
0.00614505
0.00609847
0.00617222
0.00636435
0.00665804
0.0070231
0.00737952
0.00765207
0.00778057
0.00774397
0.00750024
0.00688069
0.00569225
0.00528297
0.00514459
0.00509265
0.00505654
0.00499473
0.00479582
0.00404714
0.0036879
0.00348037
0.00332156
0.00315465
0.00291308
0.00258482
0.00218426
0.00173777
0.00128718
0.000948833
0.000949309
0.000631152
0.000579309
0.000701507
0.000787435
0.00276772
0.00994479
0.00649577
0.00545285
0.00592853
0.00614554
0.0060142
0.00607317
0.00621702
0.006479
0.00684699
0.00723705
0.00753655
0.00765912
0.00758556
0.00736331
0.0070686
0.00676206
0.00658704
0.00645397
0.006303
0.00613264
0.00594495
0.00571454
0.00537875
0.00508073
0.00481781
0.00456586
0.00430831
0.00402672
0.00366959
0.00322365
0.00268906
0.00209659
0.00157175
0.00117314
0.000882407
0.000748727
0.00106688
0.00082151
0.00307511
0.0112826
0.00909934
0.00703463
0.00665899
0.00657412
0.00635084
0.00621049
0.00625615
0.00651151
0.00691926
0.00735415
0.00766937
0.00776324
0.00762668
0.0073578
0.00712713
0.00704667
0.00704994
0.00697706
0.0067865
0.00651582
0.00619809
0.00584934
0.00548341
0.00514368
0.00483127
0.0045385
0.0042656
0.00401917
0.00379956
0.00350191
0.00308302
0.00256988
0.00207503
0.00163061
0.00130379
0.00119946
0.00122226
0.000934511
0.00313455
0.0100379
0.00892179
0.00824297
0.00763369
0.0069321
0.00638765
0.00617454
0.006312
0.00672371
0.00726772
0.00776378
0.00804443
0.00803101
0.00776501
0.00741477
0.00720413
0.00719834
0.007194
0.00696839
0.00658595
0.00612182
0.0056346
0.00517197
0.0047654
0.00442172
0.0041281
0.0038776
0.00367371
0.00352502
0.00344007
0.00339569
0.00318817
0.00285464
0.00255813
0.00239758
0.00247378
0.00284288
0.0035008
0.001458
0.00305128
0.00361758
0.00401456
0.00411113
0.00419592
0.00443166
0.00490549
0.00562462
0.00650414
0.00739116
0.00812167
0.00854156
0.00855071
0.00820074
0.00767998
0.00732384
0.00711558
0.00692936
0.00662565
0.00615457
0.00558528
0.00500278
0.00447608
0.00403931
0.00369148
0.00341184
0.00317917
0.00298075
0.00280895
0.00265656
0.00251613
0.00238735
0.00228607
0.00221144
0.00218109
0.00218797
0.00217508
0.0020899
0.00195577
0.00137207
0.00147976
0.00305391
0.00498954
0.00660174
0.00786056
0.00882023
0.00942488
0.0096631
0.00957016
0.00913962
0.00846385
0.00762612
0.00691544
0.00646964
0.00610272
0.00565841
0.00512529
0.00456441
0.00403694
0.00358259
0.00322242
0.00294334
0.00272363
0.00254635
0.00240213
0.00228688
0.00219932
0.00213946
0.00210975
0.0021085
0.00212167
0.00214528
0.00217182
0.00217787
0.00212538
0.00200184
0.0018151
0.00114238
0.00198383
0.00513307
0.00767677
0.00866035
0.00915571
0.00931163
0.00910461
0.00859737
0.00789498
0.00710097
0.00634883
0.00567753
0.00513338
0.00466735
0.00419988
0.00374556
0.00334813
0.00302875
0.00278405
0.00259856
0.00244881
0.0023219
0.00221211
0.00212173
0.00205388
0.0020084
0.0019845
0.00198106
0.00200319
0.00204826
0.0021129
0.00218981
0.00226314
0.00231388
0.00229543
0.0023225
0.0023577
0.00116446
0.00177623
0.00188208
0.00195701
0.00210823
0.00203981
0.00195729
0.00190335
0.0018263
0.00171545
0.00157761
0.00142249
0.00126113
0.00110455
0.000970329
0.000868951
0.000796923
0.000745922
0.000709272
0.000682855
0.000664259
0.000651943
0.000644952
0.000642662
0.000645215
0.000653038
0.000665927
0.000683664
0.000706606
0.000735325
0.000770557
0.000811417
0.000857962
0.000910691
0.000970038
0.00103553
0.00111337
0.00113836
0.00110922
0.00104254
0.00097184
)
;

boundaryField
{
    floor
    {
        type            nutkWallFunction;
        Cmu             0.09;
        kappa           0.41;
        E               9.8;
        value           nonuniform List<scalar> 
29
(
0.000144816
5.64149e-05
6.98135e-05
7.88287e-05
7.83194e-05
7.5545e-05
7.18871e-05
6.72722e-05
6.26635e-05
5.8445e-05
5.46681e-05
5.12969e-05
4.82788e-05
4.55753e-05
4.31314e-05
4.08634e-05
3.8659e-05
3.6349e-05
3.46837e-05
3.09033e-05
3.09032e-05
4.25441e-05
5.01091e-05
5.58925e-05
0.000144817
5.64149e-05
6.13348e-05
0.00012334
0.000174303
)
;
    }
    ceiling
    {
        type            nutkWallFunction;
        Cmu             0.09;
        kappa           0.41;
        E               9.8;
        value           nonuniform List<scalar> 
43
(
0.000208763
0.000220393
0.000228585
0.000245112
0.000237729
0.000228756
0.000222867
0.000214415
0.000202181
0.000186844
0.000169404
0.000151037
0.000132958
0.000117228
0.000105182
9.65236e-05
9.03377e-05
8.58615e-05
8.26182e-05
8.0326e-05
7.88037e-05
7.79381e-05
7.76542e-05
7.79706e-05
7.89391e-05
8.05318e-05
8.27176e-05
8.55348e-05
8.90461e-05
9.33317e-05
9.8273e-05
0.000103867
0.00011016
0.000117194
0.000124899
0.000133985
0.000136887
0.000133503
0.000125721
0.000117408
0.000345484
0.000404016
0.000231381
)
;
    }
    sWall
    {
        type            nutkWallFunction;
        Cmu             0.09;
        kappa           0.41;
        E               9.8;
        value           uniform 0.000208821;
    }
    nWall
    {
        type            nutkWallFunction;
        Cmu             0.09;
        kappa           0.41;
        E               9.8;
        value           nonuniform List<scalar> 6(9.53766e-05 9.949e-05 0.000112993 0.000137362 0.000139919 0.000117413);
    }
    sideWalls
    {
        type            empty;
    }
    glass1
    {
        type            nutkWallFunction;
        Cmu             0.09;
        kappa           0.41;
        E               9.8;
        value           nonuniform List<scalar> 9(0.000130323 0.00017527 0.000211641 0.00024587 0.00028022 0.000316117 0.000348369 0.000354577 0.000345908);
    }
    glass2
    {
        type            nutkWallFunction;
        Cmu             0.09;
        kappa           0.41;
        E               9.8;
        value           nonuniform List<scalar> 2(0.000173487 0.000163756);
    }
    sun
    {
        type            nutkWallFunction;
        Cmu             0.09;
        kappa           0.41;
        E               9.8;
        value           nonuniform List<scalar> 
14
(
0.000130222
0.00014183
0.000144378
0.000151027
0.000157154
0.000162866
0.000168444
0.000173862
0.000177661
0.000179238
0.00017803
0.000173685
0.000166155
0.000156025
)
;
    }
    heatsource1
    {
        type            nutkWallFunction;
        Cmu             0.09;
        kappa           0.41;
        E               9.8;
        value           nonuniform List<scalar> 3(6.9754e-05 8.491e-05 9.53764e-05);
    }
    heatsource2
    {
        type            nutkWallFunction;
        Cmu             0.09;
        kappa           0.41;
        E               9.8;
        value           nonuniform List<scalar> 4(0.000147575 8.75952e-05 8.75952e-05 0.000146933);
    }
    Table_master
    {
        type            nutkWallFunction;
        Cmu             0.09;
        kappa           0.41;
        E               9.8;
        value           nonuniform List<scalar> 9(9.70337e-05 8.56415e-05 7.63594e-05 6.87724e-05 6.25184e-05 5.73137e-05 5.29527e-05 4.93055e-05 4.6325e-05);
    }
    Table_slave
    {
        type            nutkWallFunction;
        Cmu             0.09;
        kappa           0.41;
        E               9.8;
        value           nonuniform List<scalar> 9(0.000109363 9.96577e-05 9.26367e-05 8.72463e-05 8.26449e-05 7.8403e-05 7.43096e-05 6.99894e-05 6.49429e-05);
    }
    inlet
    {
        type            calculated;
        value           uniform 0.000100623;
    }
    outlet
    {
        type            calculated;
        value           nonuniform List<scalar> 2(0.00177623 0.00188208);
    }
}


// ************************************************************************* //
