// -*- C++ -*-
// File generated by PyFoam - sorry for the ugliness

FoamFile
{
 version 2.0;
 format ascii;
 class volVectorField;
 location "1100";
 object U;
}

dimensions [ 0 1 -1 0 0 0 0 ];

internalField nonuniform List<vector> 459
(
  (0.0329595 0.0854502 0)
  (-0.166102 0.025671 0)
  (-0.190693 0.0178438 0)
  (-0.221295 0.0123217 0)
  (-0.243604 0.00628784 0)
  (-0.256778 -3.92528e-05 0)
  (-0.25948 -0.00671376 0)
  (-0.250511 -0.0137377 0)
  (-0.230541 -0.0206305 0)
  (-0.20104 -0.0263378 0)
  (-0.165013 -0.0300183 0)
  (-0.125892 -0.0314091 0)
  (-0.0869313 -0.0310353 0)
  (-0.0528773 -0.0305435 0)
  (-0.0373584 -0.0316768 0)
  (-0.00270986 0.00743691 0)
  (-0.0224374 -0.0174697 0)
  (0.00123219 -0.0262147 0)
  (0.0221642 -0.0194647 0)
  (0.0378786 -0.0130952 0)
  (0.0495262 -0.00837253 0)
  (0.056426 -0.00501378 0)
  (0.0598749 -0.00325889 0)
  (0.0614432 -0.00250365 0)
  (0.0622644 -0.00214097 0)
  (0.0627838 -0.00190678 0)
  (0.0630579 -0.00171496 0)
  (0.0630205 -0.00147769 0)
  (0.0624614 -0.00102239 0)
  (0.0608106 3.40971e-05 0)
  (0.0568622 0.00223433 0)
  (0.0492922 0.00462889 0)
  (0.0414288 0.00671888 0)
  (-0.0103307 0.0203951 0)
  (0.205239 0.174581 0)
  (-0.154293 0.0671736 0)
  (-0.152645 0.05216 0)
  (-0.18389 0.0406613 0)
  (-0.205676 0.0277972 0)
  (-0.218816 0.0135593 0)
  (-0.221954 -0.00230649 0)
  (-0.213697 -0.0193446 0)
  (-0.195247 -0.0354229 0)
  (-0.168448 -0.0480354 0)
  (-0.136523 -0.0554056 0)
  (-0.10289 -0.0570875 0)
  (-0.0707646 -0.0537689 0)
  (-0.0438795 -0.0470393 0)
  (-0.0268103 -0.038092 0)
  (-0.0132879 -0.0186257 0)
  (-0.00711273 0.0134658 0)
  (0.0599581 0.0313588 0)
  (0.0313995 -0.0198302 0)
  (0.038458 -0.0305862 0)
  (0.0492384 -0.0259627 0)
  (0.0576955 -0.0179092 0)
  (0.063315 -0.0105363 0)
  (0.0655449 -0.00434747 0)
  (0.0658659 -0.000913956 0)
  (0.0657765 0.000551301 0)
  (0.0658563 0.0012291 0)
  (0.0660198 0.00165516 0)
  (0.0661367 0.00202552 0)
  (0.0661645 0.00250913 0)
  (0.0660499 0.0034446 0)
  (0.0652597 0.0057398 0)
  (0.0613691 0.0120681 0)
  (0.0515914 0.0174729 0)
  (0.0452047 0.0213535 0)
  (-0.0437708 0.0440465 0)
  (0.363089 0.260862 0)
  (-0.169982 0.106509 0)
  (-0.114021 0.083928 0)
  (-0.143814 0.0634888 0)
  (-0.162766 0.0423868 0)
  (-0.174536 0.0193571 0)
  (-0.176938 -0.00636577 0)
  (-0.167773 -0.03357 0)
  (-0.149321 -0.0584547 0)
  (-0.124183 -0.076973 0)
  (-0.0958595 -0.0867538 0)
  (-0.0673015 -0.0877242 0)
  (-0.040788 -0.081052 0)
  (-0.0185204 -0.0683213 0)
  (-0.00228119 -0.050545 0)
  (0.0100829 -0.024974 0)
  (0.0167734 0.0093772 0)
  (0.105522 -0.0389375 0)
  (0.0729079 -0.0430309 0)
  (0.0689665 -0.0394088 0)
  (0.0711442 -0.0316467 0)
  (0.0727002 -0.0225643 0)
  (0.0735701 -0.014952 0)
  (0.0719009 -0.0121589 0)
  (0.0678756 -0.0086909 0)
  (0.0650864 -0.00681219 0)
  (0.0638265 -0.00574283 0)
  (0.0632773 -0.00506528 0)
  (0.0630097 -0.00459266 0)
  (0.063057 -0.00413358 0)
  (0.0638921 -0.00332458 0)
  (0.0667276 -0.000186645 0)
  (0.0646887 0.0170581 0)
  (0.0514186 0.0292866 0)
  (0.0508053 0.037976 0)
  (-0.0732285 0.0691579 0)
  (0.505119 0.330055 0)
  (-0.203309 0.141171 0)
  (-0.0737829 0.110494 0)
  (-0.101317 0.0823803 0)
  (-0.11444 0.0553124 0)
  (-0.122242 0.025186 0)
  (-0.120922 -0.0100636 0)
  (-0.108428 -0.0478024 0)
  (-0.0891935 -0.0806883 0)
  (-0.0664862 -0.103535 0)
  (-0.0435402 -0.114184 0)
  (-0.0221041 -0.113714 0)
  (-0.00293822 -0.103911 0)
  (0.0133717 -0.086583 0)
  (0.0267575 -0.06459 0)
  (0.041073 -0.0385923 0)
  (0.0631133 -0.011904 0)
  (0.0936263 0.000354544 0)
  (0.10121 -0.032757 0)
  (0.0876675 -0.0381743 0)
  (0.0791047 -0.0340659 0)
  (0.0749162 -0.0278631 0)
  (0.0721593 -0.0205361 0)
  (0.0708064 -0.0120235 0)
  (0.0725081 -0.00706537 0)
  (0.0766655 -0.00556231 0)
  (0.0801159 -0.00472323 0)
  (0.0824571 -0.00407677 0)
  (0.0838952 -0.00324874 0)
  (0.0838786 -0.0019811 0)
  (0.0813361 -5.04005e-05 0)
  (0.0750213 0.00283148 0)
  (0.0621398 0.00719583 0)
  (0.0511512 0.0274728 0)
  (0.0404636 0.0442903 0)
  (0.0537011 0.0578544 0)
  (-0.103586 0.0919843 0)
  (0.627114 0.383555 0)
  (-0.24405 0.169394 0)
  (-0.0347227 0.125161 0)
  (-0.0572006 0.0925633 0)
  (-0.0619563 0.0621578 0)
  (-0.0626346 0.0270733 0)
  (-0.0514507 -0.0169027 0)
  (-0.0334295 -0.0638707 0)
  (-0.0144817 -0.101255 0)
  (0.00320963 -0.124813 0)
  (0.0176194 -0.133261 0)
  (0.0289306 -0.12977 0)
  (0.0376437 -0.117344 0)
  (0.0444832 -0.0985309 0)
  (0.0505916 -0.0759939 0)
  (0.0579353 -0.0523891 0)
  (0.0691067 -0.0331644 0)
  (0.0795421 -0.0286601 0)
  (0.0810907 -0.0345301 0)
  (0.0745512 -0.0333812 0)
  (0.0665338 -0.0285048 0)
  (0.0603965 -0.0230063 0)
  (0.0560534 -0.0173171 0)
  (0.0537212 -0.0114537 0)
  (0.053799 -0.00627607 0)
  (0.0559418 -0.0039016 0)
  (0.0583415 -0.00305806 0)
  (0.0606785 -0.00235953 0)
  (0.0628558 -0.000862465 0)
  (0.0645016 0.00199553 0)
  (0.0644337 0.00633798 0)
  (0.0620549 0.0123293 0)
  (0.0566649 0.0206109 0)
  (0.0500974 0.0360622 0)
  (0.0410741 0.0545893 0)
  (0.0619553 0.0750792 0)
  (-0.0170276 0.104272 0)
  (0.0453259 0.0339961 0)
  (-0.0612952 -0.0344047 0)
  (-0.268855 -0.0566829 0)
  (0.714837 0.428084 0)
  (-0.28335 0.188191 0)
  (-0.00562596 0.119995 0)
  (-0.0117203 0.0916615 0)
  (-0.00488477 0.0621285 0)
  (0.00549807 0.0201968 0)
  (0.034498 -0.0344205 0)
  (0.0555608 -0.082509 0)
  (0.0703238 -0.116649 0)
  (0.078777 -0.135556 0)
  (0.0817161 -0.140465 0)
  (0.08065 -0.134125 0)
  (0.0769483 -0.119571 0)
  (0.0720242 -0.0997905 0)
  (0.0673556 -0.0776748 0)
  (0.064298 -0.0559076 0)
  (0.0637323 -0.0382109 0)
  (0.0632719 -0.0291655 0)
  (0.0592422 -0.0268941 0)
  (0.051637 -0.0247998 0)
  (0.0434001 -0.0212492 0)
  (0.0367886 -0.0173229 0)
  (0.0322299 -0.0134911 0)
  (0.0299002 -0.00982219 0)
  (0.0297941 -0.00697103 0)
  (0.031447 -0.00603157 0)
  (0.0339276 -0.00602859 0)
  (0.0368923 -0.00576679 0)
  (0.0401808 -0.00427816 0)
  (0.04357 -0.000699083 0)
  (0.0466054 0.00527471 0)
  (0.048217 0.0133332 0)
  (0.0485981 0.0236657 0)
  (0.0491532 0.0380201 0)
  (0.0484625 0.0559806 0)
  (0.0703673 0.078821 0)
  (0.0522641 0.0973577 0)
  (0.0913901 0.0683383 0)
  (0.114407 0.0445503 0)
  (-0.128323 -0.00743562 0)
  (0.76779 0.468684 0)
  (-0.301926 0.173541 0)
  (0.0221405 0.0677657 0)
  (0.0496628 0.0628429 0)
  (0.0704835 0.0436125 0)
  (0.10393 -0.00448236 0)
  (0.135555 -0.0581018 0)
  (0.153731 -0.0989196 0)
  (0.159597 -0.124426 0)
  (0.155251 -0.135657 0)
  (0.143342 -0.134784 0)
  (0.126738 -0.124664 0)
  (0.107981 -0.108203 0)
  (0.0892252 -0.088317 0)
  (0.0722188 -0.0675788 0)
  (0.0580573 -0.0480427 0)
  (0.0472417 -0.0323622 0)
  (0.0386424 -0.0229064 0)
  (0.0302643 -0.0186815 0)
  (0.0217403 -0.0163692 0)
  (0.0140711 -0.0141259 0)
  (0.00822542 -0.0120131 0)
  (0.00440737 -0.0101997 0)
  (0.00262203 -0.00871071 0)
  (0.00271624 -0.00791348 0)
  (0.00419351 -0.00820206 0)
  (0.00643807 -0.00894549 0)
  (0.00923113 -0.00928697 0)
  (0.0126234 -0.00837201 0)
  (0.0167454 -0.00519723 0)
  (0.0225075 0.00123067 0)
  (0.0283117 0.0100657 0)
  (0.0338155 0.0205228 0)
  (0.0408307 0.0332231 0)
  (0.0486588 0.0479153 0)
  (0.0704079 0.0663373 0)
  (0.0839746 0.0747141 0)
  (0.115793 0.0526701 0)
  (0.155349 0.0439593 0)
  (-0.0363872 0.0925142 0)
  (0.872604 0.469978 0)
  (-0.0642016 0.152162 0)
  (0.110119 -0.0139753 0)
  (0.181991 -0.0415758 0)
  (0.213258 -0.0534605 0)
  (0.244676 -0.0759558 0)
  (0.262222 -0.098096 0)
  (0.262748 -0.113761 0)
  (0.247892 -0.121025 0)
  (0.221756 -0.119978 0)
  (0.188849 -0.11187 0)
  (0.153203 -0.098511 0)
  (0.117967 -0.081669 0)
  (0.0855214 -0.0635277 0)
  (0.0574712 -0.0459909 0)
  (0.0344181 -0.0302476 0)
  (0.0171582 -0.0184523 0)
  (0.00473019 -0.01189 0)
  (-0.0048031 -0.00935574 0)
  (-0.0121152 -0.00861721 0)
  (-0.0179385 -0.00822454 0)
  (-0.0221981 -0.00801763 0)
  (-0.0249925 -0.0080221 0)
  (-0.0264611 -0.00827717 0)
  (-0.0268282 -0.00893487 0)
  (-0.0264996 -0.0100611 0)
  (-0.025863 -0.0113448 0)
  (-0.025029 -0.0123336 0)
  (-0.0238428 -0.0125282 0)
  (-0.0219136 -0.0113375 0)
  (-0.0182814 -0.0080135 0)
  (-0.00973891 -0.00184683 0)
  (-0.00127734 0.00622873 0)
  (0.00929988 0.01451 0)
  (0.0210372 0.0216352 0)
  (0.040868 0.0290204 0)
  (0.0599726 0.0226485 0)
  (0.0800547 -0.00455247 0)
  (0.139011 0.0390441 0)
  (-0.405608 0.202554 0)
  (1.01956 0.423016 0)
  (0.485024 0.279554 0)
  (0.49991 0.182918 0)
  (0.52657 0.111441 0)
  (0.50757 0.0598698 0)
  (0.465439 0.0126218 0)
  (0.416491 -0.0265636 0)
  (0.362741 -0.0532462 0)
  (0.304508 -0.0667343 0)
  (0.244715 -0.0691045 0)
  (0.186837 -0.0637564 0)
  (0.133456 -0.0538296 0)
  (0.0861678 -0.0412142 0)
  (0.0464957 -0.0281164 0)
  (0.0145152 -0.0163268 0)
  (-0.010838 -0.00690231 0)
  (-0.0256276 -0.00274099 0)
  (-0.034768 -0.00173652 0)
  (-0.0409102 -0.00225082 0)
  (-0.0456997 -0.00324351 0)
  (-0.0496316 -0.00425529 0)
  (-0.052837 -0.00525658 0)
  (-0.0554191 -0.00627108 0)
  (-0.0575318 -0.00733313 0)
  (-0.0594135 -0.00849207 0)
  (-0.0614151 -0.00972839 0)
  (-0.0638921 -0.0108361 0)
  (-0.0671445 -0.0114461 0)
  (-0.0714923 -0.0110259 0)
  (-0.0773671 -0.00886543 0)
  (-0.0853178 -0.00413304 0)
  (-0.0953434 0.00374896 0)
  (-0.105572 0.0142625 0)
  (-0.120357 0.0276083 0)
  (-0.143571 0.0438956 0)
  (-0.177716 0.0620589 0)
  (-0.226138 0.0782312 0)
  (-0.281865 0.089839 0)
  (-0.349833 0.0968218 0)
  (-0.609401 0.0996922 0)
  (-0.1502 0.00168541 0)
  (0.121022 0.000974653 0)
  (0.199637 -0.0325215 0)
  (0.186751 -0.0422619 0)
  (0.170625 -0.0400828 0)
  (0.148479 -0.0350466 0)
  (0.118989 -0.0287347 0)
  (0.0852502 -0.0212894 0)
  (0.0507331 -0.0131728 0)
  (0.0158351 -0.00499263 0)
  (-0.0173845 0.00248941 0)
  (-0.0395768 0.00672155 0)
  (-0.0548581 0.00901527 0)
  (-0.0639431 0.00947737 0)
  (-0.0689769 0.00863633 0)
  (-0.0724755 0.00770722 0)
  (-0.0752493 0.00694636 0)
  (-0.0776972 0.0063485 0)
  (-0.0801506 0.00583423 0)
  (-0.0827435 0.00514652 0)
  (-0.0854586 0.00434979 0)
  (-0.0883709 0.0034744 0)
  (-0.0916028 0.00257827 0)
  (-0.0952996 0.00178595 0)
  (-0.0995464 0.00133433 0)
  (-0.104341 0.00153851 0)
  (-0.109609 0.00273255 0)
  (-0.11517 0.00522348 0)
  (-0.120412 0.00952544 0)
  (-0.124569 0.0165313 0)
  (-0.128012 0.027378 0)
  (-0.130937 0.0424539 0)
  (-0.13402 0.0609379 0)
  (-0.137696 0.0794038 0)
  (-0.138931 0.0883288 0)
  (-0.121422 0.0672189 0)
  (-0.078208 -0.023046 0)
  (-0.273913 -0.198464 0)
  (0.0162854 0.194424 0)
  (0.0410997 0.0700477 0)
  (0.000357243 0.00567712 0)
  (-0.0129907 -0.00239872 0)
  (-0.026643 -0.000315271 0)
  (-0.0417305 0.000101854 0)
  (-0.0580354 0.0012795 0)
  (-0.0734458 0.00356377 0)
  (-0.0854806 0.00565887 0)
  (-0.0920548 0.0059431 0)
  (-0.0962752 0.00395241 0)
  (-0.0979877 -8.24548e-05 0)
  (-0.0982287 -0.00462642 0)
  (-0.0976395 -0.00949604 0)
  (-0.0971209 -0.0146803 0)
  (-0.0971895 -0.0197027 0)
  (-0.0978689 -0.0242807 0)
  (-0.0990654 -0.028169 0)
  (-0.100661 -0.0311972 0)
  (-0.102582 -0.0332782 0)
  (-0.104895 -0.0345721 0)
  (-0.107522 -0.0350581 0)
  (-0.110368 -0.0346825 0)
  (-0.11334 -0.0335696 0)
  (-0.116315 -0.0317761 0)
  (-0.119054 -0.0290697 0)
  (-0.121182 -0.0250268 0)
  (-0.12222 -0.0190414 0)
  (-0.121734 -0.0111607 0)
  (-0.11884 -0.00107868 0)
  (-0.11217 0.0119277 0)
  (-0.100439 0.0284988 0)
  (-0.0832025 0.0481355 0)
  (-0.0612253 0.0668945 0)
  (-0.0374058 0.0778322 0)
  (0.00251419 0.0618317 0)
  (0.142992 -0.00837789 0)
  (-0.204755 -0.10849 0)
  (-0.0432276 -0.319757 0)
  (-0.413145 -0.123257 0)
  (-0.301199 0.0641815 0)
  (-0.250194 -0.0171831 0)
  (-0.210471 -0.0224242 0)
  (-0.199368 -0.0114056 0)
  (-0.194955 -0.00175169 0)
  (-0.191459 0.00623838 0)
  (-0.186866 0.0137395 0)
  (-0.180295 0.0212062 0)
  (-0.171592 0.0287169 0)
  (-0.161101 0.0361697 0)
  (-0.149982 0.0434054 0)
  (-0.13938 0.0504206 0)
  (-0.130075 0.0574774 0)
  (-0.122328 0.0645138 0)
  (-0.116175 0.0714587 0)
  (-0.111442 0.0780709 0)
  (-0.107891 0.0839446 0)
  (-0.105318 0.0887217 0)
  (-0.103543 0.0921828 0)
  (-0.102408 0.0942377 0)
  (-0.101825 0.0949724 0)
  (-0.101753 0.0943561 0)
  (-0.102151 0.0923493 0)
  (-0.102946 0.0892515 0)
  (-0.104011 0.0853928 0)
  (-0.105136 0.0808604 0)
  (-0.105942 0.0756956 0)
  (-0.10576 0.0700079 0)
  (-0.103331 0.0650232 0)
  (-0.0968152 0.0616616 0)
  (-0.0838375 0.0608224 0)
  (-0.0625955 0.0634823 0)
  (-0.0335469 0.0701786 0)
  (0.0121956 0.0799761 0)
  (0.0551662 0.0809038 0)
  (0.0959673 0.0681301 0)
  (0.160906 0.0425055 0)
  (-0.23198 -0.00754007 0)
)
;

boundaryField
{
  floor
  {
    type noSlip;
  }
  ceiling
  {
    type noSlip;
  }
  sWall
  {
    type noSlip;
  }
  nWall
  {
    type noSlip;
  }
  sideWalls
  {
    type empty;
  }
  glass1
  {
    type noSlip;
  }
  glass2
  {
    type noSlip;
  }
  sun
  {
    type noSlip;
  }
  heatsource1
  {
    type noSlip;
  }
  heatsource2
  {
    type noSlip;
  }
  Table_master
  {
    type noSlip;
  }
  Table_slave
  {
    type noSlip;
  }
  inlet
  {
    type fixedValue;
    value uniform (0.277164 -0.114805 0);
  }
  outlet
  {
    type zeroGradient;
  }
} 	// ************************************************************************* //

