/*--------------------------------*- C++ -*----------------------------------*\
  =========                 |
  \\      /  F ield         | OpenFOAM: The Open Source CFD Toolbox
   \\    /   O peration     | Website:  https://openfoam.org
    \\  /    A nd           | Version:  6
     \\/     M anipulation  |
\*---------------------------------------------------------------------------*/
FoamFile
{
    version     2.0;
    format      ascii;
    class       volScalarField;
    location    "100";
    object      alphat;
}
// * * * * * * * * * * * * * * * * * * * * * * * * * * * * * * * * * * * * * //

dimensions      [1 -1 -1 0 0 0 0];

internalField   nonuniform List<scalar> 
459
(
0.000839405
0.000870306
0.000849187
0.000876271
0.000899884
0.000919927
0.000937188
0.00095253
0.000966866
0.000981172
0.000992054
0.000998614
0.00100089
0.0010007
0.000998494
0.000810356
0.000767653
0.000730987
0.000712303
0.00070132
0.000685265
0.000656169
0.000626502
0.000597977
0.000570814
0.000545288
0.000521536
0.000499562
0.000479236
0.000460226
0.000441953
0.000423781
0.000419588
0.000393174
0.00131265
0.00200671
0.00164661
0.00195147
0.00207966
0.00221671
0.00235364
0.0024779
0.00257223
0.00261709
0.00262301
0.0025609
0.0023933
0.00207003
0.00155717
0.00103711
0.000965207
0.000969936
0.00182307
0.00243789
0.00286657
0.00302844
0.00286376
0.00224316
0.00190841
0.00166367
0.00147669
0.00132826
0.0012076
0.00110681
0.0010183
0.000934886
0.000862644
0.000802797
0.00101476
0.00052586
0.00175071
0.00312091
0.00174566
0.00274557
0.00294947
0.00308405
0.00318962
0.00327088
0.00333004
0.00336158
0.00336506
0.00331067
0.00316082
0.00287014
0.00240921
0.00182663
0.00116432
0.00112495
0.0033196
0.00412457
0.00429864
0.00419045
0.00345182
0.000856269
0.000740399
0.000659463
0.000600757
0.000556406
0.000521651
0.00049373
0.00047131
0.000454812
0.000526729
0.000638482
0.00120432
0.000628525
0.0022
0.0048101
0.0017267
0.0030718
0.00344077
0.00355132
0.00361291
0.0036535
0.00368522
0.00370877
0.0037252
0.003717
0.00365634
0.00350024
0.00318177
0.00262834
0.00187387
0.00125651
0.003739
0.00425503
0.00452686
0.0045833
0.00441641
0.00364557
0.000873668
0.000823796
0.000807466
0.000800366
0.000791362
0.000773194
0.000742503
0.000710294
0.000671308
0.000658997
0.000702227
0.00150549
0.000700274
0.00265069
0.00698649
0.00216386
0.00291159
0.00365301
0.00377727
0.00381124
0.00382324
0.00383555
0.00385653
0.00388585
0.00392526
0.00395295
0.00394263
0.00386804
0.00372831
0.00358684
0.00354143
0.00377953
0.00414779
0.00435785
0.00440518
0.00436465
0.00418508
0.00366993
0.00361235
0.00361793
0.00360451
0.00354236
0.00341561
0.00319288
0.00277758
0.00226801
0.00176063
0.00133411
0.00139856
0.000991155
0.000836223
0.000985878
0.00110863
0.00310113
0.0092424
0.0036544
0.00251198
0.00349041
0.00380067
0.00389025
0.00390962
0.00389598
0.00388483
0.00390884
0.00397616
0.00404659
0.0040876
0.00405201
0.00388463
0.00357064
0.00325184
0.00327563
0.00385763
0.00417216
0.0042201
0.0042209
0.00423107
0.00423589
0.00428769
0.00432068
0.00430314
0.004232
0.00411547
0.00396476
0.00369517
0.00326419
0.0026993
0.00211447
0.00154828
0.00129902
0.00114962
0.00162563
0.0011761
0.00355408
0.0110603
0.00674919
0.0033121
0.00265155
0.0030364
0.00351559
0.00384458
0.00400735
0.00387716
0.0038876
0.0039591
0.00404099
0.00411195
0.0041278
0.0040065
0.00364115
0.00306657
0.00283619
0.00363737
0.00412908
0.00416837
0.00415164
0.00417635
0.0042313
0.00428525
0.0043009
0.00426129
0.00418319
0.00409207
0.00401372
0.00395222
0.00368601
0.00320962
0.00267774
0.00213664
0.00181676
0.00179812
0.00190303
0.00140895
0.00367391
0.0112753
0.00887441
0.0065946
0.00462683
0.00353273
0.00329762
0.00354149
0.00388675
0.00389418
0.00388222
0.00390785
0.00396194
0.00402368
0.00406399
0.00402844
0.00377901
0.00308248
0.00249255
0.00343212
0.00420243
0.00424023
0.00418763
0.00418348
0.00419851
0.00419176
0.00414047
0.00404979
0.00395181
0.00389151
0.0039055
0.00400822
0.00410458
0.00377305
0.00347638
0.00341886
0.00382546
0.00473443
0.00579762
0.0020421
0.0036026
0.00439163
0.0048945
0.00503099
0.00478012
0.0043222
0.00393223
0.00371821
0.00365254
0.00364067
0.00367889
0.00374463
0.00381574
0.00387412
0.00390831
0.00390176
0.0037547
0.00315946
0.00224508
0.00317252
0.00435531
0.00440711
0.00431602
0.0042838
0.00425189
0.00417494
0.00403653
0.00384517
0.00363393
0.00344663
0.00331177
0.00322885
0.00318115
0.00315411
0.00317021
0.00320975
0.00317542
0.00299085
0.00274148
0.0018587
0.00268798
0.00426723
0.00460427
0.0045081
0.00430725
0.00412803
0.004004
0.0039173
0.00386216
0.00382271
0.0037827
0.00373381
0.00368135
0.0036393
0.00353788
0.00298861
0.00201842
0.00285077
0.00456459
0.00462136
0.00450563
0.00450371
0.00449017
0.00441459
0.00426711
0.00405284
0.00379858
0.00355272
0.00336941
0.00328291
0.00326494
0.00327825
0.00329197
0.00325362
0.00309604
0.00279311
0.00237756
0.00151932
0.00280837
0.00486732
0.00509547
0.00489583
0.00468166
0.00446025
0.00424781
0.00404967
0.003827
0.00357212
0.0033132
0.00307247
0.0028721
0.00273472
0.0026282
0.00230821
0.00166365
0.00246686
0.00432291
0.00424989
0.00418116
0.00422723
0.00424848
0.0042183
0.00414549
0.0040412
0.00391821
0.00378752
0.00365242
0.00359111
0.00359628
0.0036411
0.0036872
0.00371905
0.00368384
0.00360961
0.00299651
0.00154446
0.00246562
0.00258505
0.00268967
0.00284003
0.00268608
0.00243615
0.00226528
0.00211049
0.00196808
0.00183715
0.00172106
0.00161903
0.00152522
0.00143699
0.00135371
0.00127633
0.00120612
0.00114092
0.00107394
0.00110372
0.00116824
0.00116832
0.0011681
0.00117103
0.00117286
0.00117442
0.00117829
0.00118736
0.00120476
0.00123417
0.00128052
0.00133841
0.0014097
0.00149239
0.00158378
0.00170639
0.00173506
0.00169037
0.00157514
0.00145137
)
;

boundaryField
{
    floor
    {
        type            compressible::alphatWallFunction;
        Prt             0.85;
        value           nonuniform List<scalar> 
29
(
0.000142005
0.000115199
0.000109013
0.000103671
0.000100936
9.9324e-05
9.69625e-05
9.26664e-05
8.8262e-05
8.40027e-05
7.99233e-05
7.60678e-05
7.246e-05
6.91039e-05
6.59829e-05
6.3049e-05
6.02144e-05
5.73806e-05
5.67224e-05
5.25696e-05
5.25689e-05
7.31038e-05
8.85418e-05
9.91484e-05
0.000142003
0.000115198
0.00013798
0.000159692
0.000177837
)
;
    }
    ceiling
    {
        type            compressible::alphatWallFunction;
        Prt             0.85;
        value           nonuniform List<scalar> 
43
(
0.000336976
0.000352148
0.00036538
0.000384384
0.000365038
0.000333347
0.000311474
0.000291503
0.00027299
0.000255838
0.000240519
0.000226961
0.000214412
0.000202531
0.000191241
0.000180681
0.000171036
0.000162019
0.000152697
0.000156872
0.000165812
0.000165823
0.000165794
0.000166198
0.000166451
0.000166667
0.000167202
0.000168454
0.000170854
0.000174902
0.00018126
0.000189165
0.000198845
0.000210005
0.00022226
0.000238581
0.000242379
0.000236458
0.000221109
0.000204483
0.000479089
0.000574694
0.00038026
)
;
    }
    sWall
    {
        type            compressible::alphatWallFunction;
        Prt             0.85;
        value           uniform 0.000335738;
    }
    nWall
    {
        type            compressible::alphatWallFunction;
        Prt             0.85;
        value           nonuniform List<scalar> 6(0.000157151 0.000166499 0.000198331 0.000213246 0.000216617 0.000204099);
    }
    sideWalls
    {
        type            empty;
    }
    glass1
    {
        type            compressible::alphatWallFunction;
        Prt             0.85;
        value           nonuniform List<scalar> 9(0.000115752 0.000180729 0.000238709 0.000296687 0.000353691 0.00040973 0.00046528 0.000480002 0.000471573);
    }
    glass2
    {
        type            compressible::alphatWallFunction;
        Prt             0.85;
        value           nonuniform List<scalar> 2(0.000279954 0.000256235);
    }
    sun
    {
        type            compressible::alphatWallFunction;
        Prt             0.85;
        value           nonuniform List<scalar> 
14
(
0.0001194
0.000123813
0.000120785
0.000124666
0.000128037
0.000130891
0.000133343
0.000135517
0.000137546
0.000139566
0.0001411
0.000142024
0.000142343
0.000142315
)
;
    }
    heatsource1
    {
        type            compressible::alphatWallFunction;
        Prt             0.85;
        value           nonuniform List<scalar> 3(0.000119114 0.000140429 0.000157627);
    }
    heatsource2
    {
        type            compressible::alphatWallFunction;
        Prt             0.85;
        value           nonuniform List<scalar> 4(0.000147634 0.00013751 0.000137509 0.000165348);
    }
    Table_master
    {
        type            compressible::alphatWallFunction;
        Prt             0.85;
        value           nonuniform List<scalar> 9(0.000122004 0.000105243 9.33493e-05 8.46105e-05 7.79386e-05 7.26643e-05 6.83952e-05 6.49452e-05 6.23932e-05);
    }
    Table_slave
    {
        type            compressible::alphatWallFunction;
        Prt             0.85;
        value           nonuniform List<scalar> 9(0.0001245 0.000117337 0.000114979 0.000113951 0.000112647 0.000110012 0.000105545 0.000100832 9.50936e-05);
    }
    inlet
    {
        type            fixedValue;
        value           uniform 1.94e-05;
    }
    outlet
    {
        type            zeroGradient;
    }
}


// ************************************************************************* //
