/*--------------------------------*- C++ -*----------------------------------*\
  =========                 |
  \\      /  F ield         | OpenFOAM: The Open Source CFD Toolbox
   \\    /   O peration     | Website:  https://openfoam.org
    \\  /    A nd           | Version:  6
     \\/     M anipulation  |
\*---------------------------------------------------------------------------*/
FoamFile
{
    version     2.0;
    format      ascii;
    class       volScalarField;
    location    "100";
    object      epsilon;
}
// * * * * * * * * * * * * * * * * * * * * * * * * * * * * * * * * * * * * * //

dimensions      [0 2 -3 0 0 0 0];

internalField   nonuniform List<scalar> 
459
(
0.000132101
0.000146732
0.000136298
0.000149762
0.0001622
0.000173282
0.000183221
0.000192367
0.000201184
0.000210246
0.000217314
0.000221645
0.00022315
0.000223007
0.000221525
0.000118399
0.000100627
8.68784e-05
8.03766e-05
7.67065e-05
7.15509e-05
6.28144e-05
5.467e-05
4.75332e-05
4.13411e-05
3.60353e-05
3.15247e-05
2.77022e-05
2.44536e-05
2.16552e-05
1.9175e-05
1.69041e-05
1.64039e-05
1.34975e-05
0.000506447
0.00116967
0.000135907
0.000113175
0.000111222
0.000111561
0.000113582
0.000118138
0.000126142
0.000138312
0.00015189
0.000165267
0.000176751
0.000186091
0.000200747
0.000248187
0.000200045
0.000203002
0.000112349
8.13514e-05
7.00309e-05
6.25452e-05
5.6499e-05
5.32782e-05
4.59205e-05
3.91166e-05
3.31186e-05
2.80138e-05
2.37729e-05
2.02903e-05
1.74537e-05
1.52528e-05
1.39553e-05
1.40266e-05
4.88484e-05
3.2274e-05
0.00120449
0.00389634
0.000242074
0.00011698
0.000110274
0.000112873
0.000118568
0.000127498
0.000139753
0.00015491
0.000170454
0.000183013
0.000190693
0.000195665
0.000206935
0.000242337
0.000351155
0.000316706
0.00011733
9.30084e-05
7.86012e-05
6.84178e-05
6.60428e-05
0.000139561
9.02128e-05
6.37324e-05
4.8172e-05
3.82631e-05
3.15251e-05
2.67241e-05
2.32424e-05
2.08831e-05
1.6994e-05
1.70405e-05
0.000111498
5.50937e-05
0.00239577
0.00921417
0.000550633
0.000134838
0.000117535
0.000124121
0.000134531
0.000148217
0.000165414
0.000185979
0.000206351
0.000219293
0.000221762
0.000216876
0.000213455
0.000228302
0.000296182
0.000441279
0.00021836
0.000136706
0.000104694
8.12597e-05
6.81582e-05
6.633e-05
0.000148295
0.000124304
0.000117042
0.000113968
0.000110153
0.000102728
9.09658e-05
7.9625e-05
6.72099e-05
4.2493e-05
3.27633e-05
0.000236949
7.62019e-05
0.00419937
0.0172126
0.00132887
0.000176096
0.000124326
0.000133201
0.000149838
0.000172274
0.000201337
0.000237014
0.000271504
0.000289861
0.000288578
0.000272199
0.000247265
0.000221544
0.000205267
0.000197611
0.000164411
0.000146351
0.000112985
8.82608e-05
7.43757e-05
6.95931e-05
7.48085e-05
7.71724e-05
8.00512e-05
8.23294e-05
8.22602e-05
7.81759e-05
6.98409e-05
6.20307e-05
5.58476e-05
4.74183e-05
4.12103e-05
0.000145343
9.93295e-05
0.000129857
0.000212891
0.000302764
0.00673708
0.0254726
0.00324591
0.000338262
0.000151432
0.000146537
0.000164385
0.000194953
0.000241413
0.000310049
0.000368504
0.000391392
0.000383306
0.000355197
0.000314844
0.000265666
0.000211264
0.000167484
0.000157044
0.000163401
0.000131607
0.00010357
8.93054e-05
8.40123e-05
8.5859e-05
9.12806e-05
9.85536e-05
0.000105898
0.000110865
0.000110269
0.000100666
8.32164e-05
6.83151e-05
5.64674e-05
5.13553e-05
9.13647e-05
9.86841e-05
0.000107884
0.000403593
0.000361322
0.0101555
0.0298213
0.00789092
0.00150753
0.000484827
0.00028859
0.00025418
0.000270903
0.000325117
0.000455839
0.000525048
0.000531345
0.000501039
0.000452885
0.000396579
0.000332823
0.000258481
0.000184823
0.000161035
0.00018938
0.000164393
0.000131537
0.000114776
0.00010879
0.000110112
0.000116882
0.00012779
0.000141664
0.00015618
0.00016827
0.000171387
0.000150368
0.00012442
0.00010475
9.88971e-05
0.000122668
0.000170636
0.000298994
0.000680551
0.000621168
0.0112452
0.0378572
0.0179868
0.00933523
0.00439531
0.00205268
0.00115813
0.000852982
0.000796426
0.000823015
0.000788006
0.000718641
0.000637566
0.000556584
0.000479613
0.000405638
0.000326034
0.00022597
0.000172684
0.000221211
0.000215722
0.000178198
0.000157521
0.000149554
0.000149501
0.000155778
0.000168049
0.000186891
0.00021345
0.000248678
0.000291376
0.000335587
0.000341117
0.000369559
0.000460242
0.000747306
0.00150299
0.00300885
0.00844876
0.00189635
0.0106389
0.0192051
0.0153829
0.0113463
0.00791173
0.00525657
0.00349789
0.00244366
0.00184198
0.00142446
0.00113307
0.000924118
0.000768394
0.000646962
0.000548528
0.000466839
0.000390618
0.000287378
0.000195922
0.000257077
0.000295817
0.00025785
0.000232175
0.000220871
0.000216532
0.00021736
0.000224172
0.000239624
0.00026838
0.000316808
0.000391966
0.00050109
0.000652003
0.000857196
0.00116599
0.00157177
0.00200471
0.00233634
0.0025765
0.00143303
0.0064786
0.00823167
0.00655831
0.00487097
0.00355777
0.00262747
0.00199244
0.00154968
0.00123429
0.00100417
0.0008305
0.000695293
0.00058917
0.000509177
0.000442574
0.000334595
0.000226909
0.000299474
0.000431136
0.000403291
0.000374012
0.000363927
0.000357555
0.000351127
0.000345553
0.00034328
0.000348823
0.000369521
0.000415815
0.000500726
0.000631494
0.000814166
0.00104883
0.00129646
0.00146687
0.00144967
0.00116867
0.000782195
0.00477192
0.00751717
0.00599579
0.00444652
0.00335579
0.00254551
0.00194645
0.00150549
0.00117777
0.000930951
0.000743799
0.000602045
0.00049671
0.000422339
0.000368665
0.000320674
0.000254227
0.000361213
0.000581359
0.000581044
0.000572194
0.00057117
0.000565758
0.00055304
0.000535606
0.000518387
0.000507907
0.000511647
0.000537788
0.000599859
0.000705978
0.000861022
0.00105979
0.00129146
0.0014752
0.00156932
0.00102966
0.000821567
0.00326706
0.00376332
0.00423885
0.00505027
0.00429308
0.0032136
0.00258603
0.00209221
0.00169699
0.00138044
0.00113498
0.000944883
0.000789987
0.000660676
0.000552343
0.000462933
0.000390654
0.000330636
0.000275771
0.000299656
0.000355204
0.000355279
0.00035509
0.000357764
0.000359441
0.000360881
0.000364458
0.000372938
0.000389574
0.000418804
0.000467778
0.00053414
0.000624119
0.000740528
0.000885131
0.00110724
0.00116415
0.00107659
0.000871119
0.000681741
)
;

boundaryField
{
    floor
    {
        Cmu             0.09;
        kappa           0.41;
        E               9.8;
        type            epsilonWallFunction;
        value           nonuniform List<scalar> 
29
(
0.000221525
0.000118399
0.000100627
8.68784e-05
8.03766e-05
7.67065e-05
7.15509e-05
6.28144e-05
5.467e-05
4.75332e-05
4.13411e-05
3.60353e-05
3.15247e-05
2.77022e-05
2.44536e-05
2.16552e-05
1.9175e-05
1.69041e-05
1.64039e-05
1.34975e-05
1.34975e-05
3.2274e-05
5.50937e-05
7.62019e-05
0.000221525
0.000118399
0.000203002
0.000316706
0.000441279
)
;
    }
    ceiling
    {
        Cmu             0.09;
        kappa           0.41;
        E               9.8;
        type            epsilonWallFunction;
        value           nonuniform List<scalar> 
43
(
0.00326706
0.00376332
0.00423885
0.00505027
0.00429308
0.0032136
0.00258603
0.00209221
0.00169699
0.00138044
0.00113498
0.000944883
0.000789987
0.000660676
0.000552343
0.000462933
0.000390654
0.000330636
0.000275771
0.000299656
0.000355204
0.000355279
0.00035509
0.000357764
0.000359441
0.000360881
0.000364458
0.000372938
0.000389574
0.000418804
0.000467778
0.00053414
0.000624119
0.000740528
0.000885131
0.00110724
0.00116415
0.00107659
0.000871119
0.000681741
0.0106389
0.0192051
0.00477192
)
;
    }
    sWall
    {
        Cmu             0.09;
        kappa           0.41;
        E               9.8;
        type            epsilonWallFunction;
        value           uniform 0.00326706;
    }
    nWall
    {
        Cmu             0.09;
        kappa           0.41;
        E               9.8;
        type            epsilonWallFunction;
        value           nonuniform List<scalar> 6(0.000302764 0.000361322 0.000621168 0.000782195 0.000821567 0.000681741);
    }
    sideWalls
    {
        type            empty;
    }
    glass1
    {
        Cmu             0.09;
        kappa           0.41;
        E               9.8;
        type            epsilonWallFunction;
        value           nonuniform List<scalar> 9(0.000132101 0.000506447 0.00120449 0.00239577 0.00419937 0.00673708 0.0101555 0.0112452 0.0106389);
    }
    glass2
    {
        Cmu             0.09;
        kappa           0.41;
        E               9.8;
        type            epsilonWallFunction;
        value           nonuniform List<scalar> 2(0.00189635 0.00143303);
    }
    sun
    {
        Cmu             0.09;
        kappa           0.41;
        E               9.8;
        type            epsilonWallFunction;
        value           nonuniform List<scalar> 
14
(
0.000132101
0.000146732
0.000136298
0.000149762
0.0001622
0.000173282
0.000183221
0.000192367
0.000201184
0.000210246
0.000217314
0.000221645
0.00022315
0.000223007
)
;
    }
    heatsource1
    {
        Cmu             0.09;
        kappa           0.41;
        E               9.8;
        type            epsilonWallFunction;
        value           nonuniform List<scalar> 3(0.000129857 0.000212891 0.000302764);
    }
    heatsource2
    {
        Cmu             0.09;
        kappa           0.41;
        E               9.8;
        type            epsilonWallFunction;
        value           nonuniform List<scalar> 4(0.000248187 0.000200045 0.000200045 0.000351155);
    }
    Table_master
    {
        Cmu             0.09;
        kappa           0.41;
        E               9.8;
        type            epsilonWallFunction;
        value           nonuniform List<scalar> 9(0.000139561 9.02128e-05 6.37324e-05 4.8172e-05 3.82631e-05 3.15251e-05 2.67241e-05 2.32424e-05 2.08831e-05);
    }
    Table_slave
    {
        Cmu             0.09;
        kappa           0.41;
        E               9.8;
        type            epsilonWallFunction;
        value           nonuniform List<scalar> 9(0.000148295 0.000124304 0.000117042 0.000113968 0.000110153 0.000102728 9.09658e-05 7.9625e-05 6.72099e-05);
    }
    inlet
    {
        type            turbulentMixingLengthDissipationRateInlet;
        mixingLength    0.01;
        phi             phi;
        k               k;
        value           uniform 0.000101881;
    }
    outlet
    {
        type            zeroGradient;
    }
}


// ************************************************************************* //
