/*--------------------------------*- C++ -*----------------------------------*\
  =========                 |
  \\      /  F ield         | OpenFOAM: The Open Source CFD Toolbox
   \\    /   O peration     | Website:  https://openfoam.org
    \\  /    A nd           | Version:  6
     \\/     M anipulation  |
\*---------------------------------------------------------------------------*/
FoamFile
{
    version     2.0;
    format      ascii;
    class       volScalarField;
    location    "100";
    object      nut;
}
// * * * * * * * * * * * * * * * * * * * * * * * * * * * * * * * * * * * * * //

dimensions      [0 2 -1 0 0 0 0];

internalField   nonuniform List<scalar> 
459
(
0.000720006
0.000745661
0.000727549
0.000750759
0.000770994
0.00078817
0.000802961
0.000816108
0.000828392
0.000840651
0.000849971
0.000855584
0.000857522
0.000857344
0.000855444
0.000694143
0.000657521
0.000626087
0.000610058
0.000600626
0.000586853
0.000561914
0.000536487
0.000512039
0.000488756
0.000466877
0.000446518
0.000427683
0.000410261
0.000393969
0.000378311
0.000362741
0.000359139
0.000336545
0.00112689
0.00171949
0.00141082
0.00167206
0.00178194
0.00189941
0.00201677
0.00212327
0.00220413
0.00224259
0.00224764
0.00219438
0.00205068
0.0017736
0.00133408
0.000888482
0.000826833
0.000830824
0.00156146
0.00208793
0.00245496
0.00259347
0.00245234
0.0019208
0.00163407
0.00142443
0.00126426
0.00113711
0.00103374
0.000947413
0.000871594
0.00080016
0.000738299
0.000687057
0.000868448
0.000450093
0.00150419
0.00267467
0.00149582
0.00235272
0.00252757
0.00264303
0.00273361
0.00280336
0.00285414
0.00288121
0.00288418
0.00283746
0.00270884
0.0024595
0.0020643
0.00156498
0.000997466
0.000963625
0.00284332
0.00353261
0.00368154
0.00358874
0.00295606
0.000733242
0.000633969
0.000564623
0.000514319
0.000476312
0.000446527
0.000422599
0.000403383
0.000389242
0.000450779
0.000546405
0.00103063
0.000537957
0.00189169
0.00412327
0.00147972
0.00263256
0.00294901
0.003044
0.00309703
0.00313204
0.0031594
0.00317968
0.00319375
0.00318657
0.00313426
0.00300003
0.00272665
0.00225204
0.0016054
0.00107642
0.00320291
0.00364478
0.00387746
0.00392562
0.00378253
0.00312222
0.000748222
0.000705491
0.000691489
0.000685394
0.000677668
0.000662094
0.000635793
0.000608192
0.000574784
0.000564147
0.000601055
0.00128845
0.000599384
0.00228085
0.00599065
0.00185455
0.00249548
0.00313127
0.00323813
0.00326762
0.00327825
0.0032891
0.00330728
0.00333248
0.00336612
0.00338946
0.00338002
0.00331541
0.00319502
0.00307329
0.00303406
0.00323785
0.00355318
0.00373297
0.00377335
0.00373849
0.00358458
0.00314327
0.00309388
0.00309859
0.00308704
0.00303374
0.0029251
0.00273426
0.0023785
0.00194203
0.00150741
0.00114205
0.00119704
0.000848356
0.000715937
0.000844176
0.000949329
0.00267009
0.00792787
0.0031326
0.00215315
0.0029921
0.00325847
0.0033357
0.00335276
0.0033415
0.00333229
0.00335307
0.0034107
0.00347068
0.00350517
0.00347384
0.00332955
0.00305979
0.00278618
0.00280634
0.00330483
0.00357414
0.00361507
0.00361564
0.00362424
0.00362829
0.00367259
0.00370078
0.00368569
0.00362467
0.00352475
0.00339553
0.00316447
0.00279519
0.00231125
0.00181025
0.00132532
0.0011119
0.000984111
0.00139165
0.00100697
0.00306153
0.0094929
0.00578854
0.00283971
0.00227327
0.00260341
0.00301461
0.00329714
0.00343722
0.00332617
0.00333549
0.00339676
0.00346659
0.00352675
0.00353948
0.00343458
0.0031206
0.00262763
0.00242998
0.00311631
0.00353743
0.00357098
0.00355655
0.00357763
0.00362464
0.00367079
0.00368413
0.00365014
0.00358316
0.003505
0.00343773
0.00338483
0.00315659
0.00274838
0.00229268
0.00182916
0.0015552
0.00153927
0.00162912
0.0012063
0.00316733
0.00969414
0.0076238
0.005661
0.00396983
0.00303038
0.00282853
0.00303784
0.00333437
0.00334135
0.00333133
0.00335317
0.00339911
0.0034514
0.00348517
0.00345382
0.00323913
0.00264144
0.00213565
0.00294062
0.00360046
0.00363275
0.00358761
0.00358398
0.0035968
0.00359098
0.003547
0.00346926
0.00338527
0.00333352
0.00334538
0.00343318
0.00351539
0.00323118
0.00297688
0.0029274
0.00327549
0.00405411
0.00496502
0.00174992
0.00310935
0.00378598
0.00421564
0.00432905
0.00410972
0.00371368
0.00337722
0.00319263
0.00313587
0.00312525
0.00315752
0.0032133
0.00327364
0.003323
0.0033516
0.00334523
0.00321841
0.00270757
0.00192369
0.00271834
0.00373164
0.00377595
0.00369784
0.00367018
0.0036428
0.00357686
0.00345825
0.00329429
0.00311328
0.00295279
0.00283725
0.00276621
0.00272541
0.00270233
0.00271635
0.00275058
0.00272162
0.00256385
0.00235032
0.00159391
0.00227471
0.00364113
0.00394302
0.0038654
0.00369477
0.00354152
0.00343517
0.00336068
0.00331312
0.00327892
0.00324418
0.0032018
0.00315635
0.00311982
0.00303239
0.00256114
0.00172951
0.00244278
0.00391116
0.00395976
0.00386056
0.00385889
0.00384727
0.0037825
0.00365615
0.00347258
0.00325476
0.00304413
0.00288712
0.00281306
0.00279773
0.00280927
0.00282123
0.00278866
0.0026539
0.00239446
0.00203833
0.00130262
0.00238015
0.0041526
0.00435869
0.00419308
0.00401197
0.00382319
0.00364144
0.00347162
0.00328072
0.00306215
0.00284008
0.00263361
0.00246172
0.00234383
0.00225236
0.00197796
0.00142554
0.00211395
0.00370431
0.00364176
0.00358286
0.00362232
0.00364051
0.00361466
0.00355227
0.00346293
0.00335757
0.00324562
0.0031299
0.00307742
0.00308192
0.00312045
0.00316013
0.00318767
0.00315775
0.00309434
0.00256871
0.00132412
0.00209777
0.00219903
0.002288
0.00242556
0.00229771
0.00208627
0.00194052
0.00180819
0.0016863
0.00157416
0.00147471
0.0013873
0.00130693
0.00123133
0.00115998
0.00109367
0.0010335
0.000977619
0.000920242
0.00094592
0.00100122
0.00100129
0.0010011
0.00100361
0.00100518
0.00100652
0.00100984
0.00101761
0.00103252
0.00105773
0.00109745
0.00114707
0.00120818
0.00127906
0.00135742
0.00146261
0.00148724
0.00144898
0.00135022
0.00124428
)
;

boundaryField
{
    floor
    {
        type            nutkWallFunction;
        Cmu             0.09;
        kappa           0.41;
        E               9.8;
        value           nonuniform List<scalar> 
29
(
0.000103559
8.4018e-05
7.95073e-05
7.56129e-05
7.36179e-05
7.24411e-05
7.07185e-05
6.75871e-05
6.43767e-05
6.12719e-05
5.82981e-05
5.54874e-05
5.28571e-05
5.04103e-05
4.8135e-05
4.5996e-05
4.39296e-05
4.18639e-05
4.13832e-05
3.83591e-05
3.8359e-05
5.33149e-05
6.45559e-05
7.22798e-05
0.000103559
8.4018e-05
0.000100612
0.000116428
0.000129654
)
;
    }
    ceiling
    {
        type            nutkWallFunction;
        Cmu             0.09;
        kappa           0.41;
        E               9.8;
        value           nonuniform List<scalar> 
43
(
0.000243883
0.000254817
0.000264384
0.000279175
0.000265525
0.000242738
0.000226878
0.000212365
0.000198895
0.000186408
0.000175252
0.000165379
0.000156239
0.000147585
0.000139361
0.000131668
0.000124642
0.000118073
0.000111284
0.000114342
0.000120855
0.000120864
0.000120843
0.000121137
0.000121321
0.000121479
0.000121868
0.000122781
0.00012453
0.000127479
0.000132111
0.000137871
0.000144924
0.000153057
0.000161989
0.000173891
0.000176665
0.000172355
0.000161172
0.000149074
0.000351437
0.000421107
0.000274181
)
;
    }
    sWall
    {
        type            nutkWallFunction;
        Cmu             0.09;
        kappa           0.41;
        E               9.8;
        value           uniform 0.000243949;
    }
    nWall
    {
        type            nutkWallFunction;
        Cmu             0.09;
        kappa           0.41;
        E               9.8;
        value           nonuniform List<scalar> 6(0.000114737 0.000121533 0.000144712 0.000155764 0.000158216 0.000149086);
    }
    sideWalls
    {
        type            empty;
    }
    glass1
    {
        type            nutkWallFunction;
        Cmu             0.09;
        kappa           0.41;
        E               9.8;
        value           nonuniform List<scalar> 9(8.7149e-05 0.000135669 0.000178833 0.000221912 0.000264214 0.000305758 0.000346897 0.000357931 0.000351913);
    }
    glass2
    {
        type            nutkWallFunction;
        Cmu             0.09;
        kappa           0.41;
        E               9.8;
        value           nonuniform List<scalar> 2(0.000206066 0.000188728);
    }
    sun
    {
        type            nutkWallFunction;
        Cmu             0.09;
        kappa           0.41;
        E               9.8;
        value           nonuniform List<scalar> 
14
(
8.71799e-05
9.03098e-05
8.81022e-05
9.09301e-05
9.33869e-05
9.54664e-05
9.72528e-05
9.88373e-05
0.000100315
0.000101787
0.000102905
0.000103577
0.000103808
0.000103787
)
;
    }
    heatsource1
    {
        type            nutkWallFunction;
        Cmu             0.09;
        kappa           0.41;
        E               9.8;
        value           nonuniform List<scalar> 3(8.66824e-05 0.000102207 0.000114729);
    }
    heatsource2
    {
        type            nutkWallFunction;
        Cmu             0.09;
        kappa           0.41;
        E               9.8;
        value           nonuniform List<scalar> 4(0.000107503 0.000100126 0.000100126 0.000120405);
    }
    Table_master
    {
        type            nutkWallFunction;
        Cmu             0.09;
        kappa           0.41;
        E               9.8;
        value           nonuniform List<scalar> 9(8.88044e-05 7.65987e-05 6.79364e-05 6.15717e-05 5.67122e-05 5.28704e-05 4.97608e-05 4.72478e-05 4.53889e-05);
    }
    Table_slave
    {
        type            nutkWallFunction;
        Cmu             0.09;
        kappa           0.41;
        E               9.8;
        value           nonuniform List<scalar> 9(9.06293e-05 8.54122e-05 8.36939e-05 8.2944e-05 8.1993e-05 8.00728e-05 7.68189e-05 7.33866e-05 6.92066e-05);
    }
    inlet
    {
        type            calculated;
        value           uniform 0.000100623;
    }
    outlet
    {
        type            calculated;
        value           nonuniform List<scalar> 2(0.00209777 0.00219903);
    }
}


// ************************************************************************* //
