/*--------------------------------*- C++ -*----------------------------------*\
  =========                 |
  \\      /  F ield         | OpenFOAM: The Open Source CFD Toolbox
   \\    /   O peration     | Website:  https://openfoam.org
    \\  /    A nd           | Version:  6
     \\/     M anipulation  |
\*---------------------------------------------------------------------------*/
FoamFile
{
    version     2.0;
    format      ascii;
    class       surfaceScalarField;
    location    "1400";
    object      phi;
}
// * * * * * * * * * * * * * * * * * * * * * * * * * * * * * * * * * * * * * //

dimensions      [1 0 -1 0 0 0 0];

internalField   nonuniform List<scalar> 
852
(
-0.00293613
0.00299239
-0.00397341
0.00103728
-0.00476217
0.000788763
-0.00537954
0.000617369
-0.00579637
0.000416833
-0.00599007
0.000193696
-0.00593876
-5.13067e-05
-0.00562476
-0.000314
-0.00506001
-0.000564747
-0.00429599
-0.000764029
-0.00341304
-0.000882944
-0.00249986
-0.000913182
-0.00163112
-0.000868741
-0.0008286
-0.000802519
-0.00082716
-0.000674603
0.00067729
-0.000343806
-0.000330797
0.000263493
-0.000607299
0.000735348
-0.000471855
0.00104744
-0.000312089
0.00124085
-0.000193413
0.00134586
-0.000105006
0.00139805
-5.21913e-05
0.00142749
-2.94422e-05
0.00144542
-1.79348e-05
0.00145526
-9.83127e-06
0.00145805
-2.79128e-06
0.00145213
5.91497e-06
0.00142895
2.31838e-05
0.00136631
6.26381e-05
0.00122659
0.000139721
0.000994921
0.000231668
0.0007053
0.000289621
0.000708914
-0.00209455
0.00523844
-0.00309893
0.00204166
-0.00390459
0.00159441
-0.00450865
0.00122144
-0.0049155
0.000823677
-0.00511159
0.000389792
-0.0050717
-9.12041e-05
-0.00478111
-0.000604589
-0.0042628
-0.00108305
-0.00357782
-0.00144902
-0.00280816
-0.0016526
-0.00203438
-0.00168695
-0.00132882
-0.00157431
-0.000780037
-0.0013513
-0.000577157
-0.00103004
-8.0147e-05
-0.000497061
-8.01982e-05
0.000380819
0.000304117
0.00080415
-0.000754129
0.00105156
-0.000854714
0.00125905
-0.000679335
0.00141298
-0.000466021
0.0015024
-0.000282837
0.00151602
-0.000118622
0.00151975
-5.59292e-05
0.00152439
-3.40748e-05
0.00152816
-2.17048e-05
0.00153062
-1.22902e-05
0.00153186
-4.03464e-06
0.00153097
6.808e-06
0.00152435
2.97984e-05
0.00148328
0.000103706
0.00130876
0.000314249
0.00100732
0.000533109
0.000627182
0.000669755
0.0013454
-0.00146594
0.00693607
-0.00232863
0.00290436
-0.00303698
0.00230276
-0.0035482
0.00173267
-0.00389821
0.00117368
-0.00406911
0.000560693
-0.00401625
-0.000144058
-0.00371722
-0.000903626
-0.00321654
-0.00158372
-0.00258983
-0.00207573
-0.00191878
-0.00232365
-0.0012677
-0.00233804
-0.000687494
-0.00215452
-0.000230045
-0.00180875
7.44981e-05
-0.00133458
0.000276173
-0.000698736
0.000195975
0.00148287
-0.00117075
0.00169674
-0.000967994
0.00167586
-0.000833835
0.0016761
-0.000679577
0.00169727
-0.000487184
0.00170705
-0.000292616
0.00158858
0.0015328
0.00149888
0.00147733
0.00146519
0.00146131
0.00146827
0.00149822
0.00160208
0.00132186
0.000594472
0.000981442
0.000873524
0.000548515
0.00110268
0.00190812
-0.00102394
0.00825998
-0.0017056
0.00358602
-0.00216657
0.00276373
-0.00249367
0.00205977
-0.00271738
0.0013974
-0.00280577
0.000649074
-0.0026841
-0.000265729
-0.00233942
-0.00124831
-0.0018549
-0.00206824
-0.00131384
-0.00261679
-0.000783515
-0.00285397
-0.000299725
-0.00282183
0.000119625
-0.00257387
0.000469253
-0.00215837
0.000776068
-0.0016414
0.00114462
-0.00106728
0.00190252
-0.00056193
0.00243958
-0.000529787
0.00203784
-0.000769005
0.0019118
-0.000841952
0.00180297
-0.000725005
0.00171045
-0.000587055
0.00166085
-0.000437586
0.00164263
-0.000274404
0.00175539
-0.000112904
0.00182729
-7.20542e-05
0.00188568
-5.85414e-05
0.00193084
-4.53163e-05
0.00194889
-1.82009e-05
0.00191873
3.0008e-05
0.00181579
0.000102784
0.00160771
0.00020793
0.00124032
0.000367232
0.00110968
0.000725117
0.000823575
0.00115963
0.00038628
0.00153998
0.00231302
-0.000718134
0.00933605
-0.00123463
0.00410252
-0.00132099
0.00285009
-0.00137245
0.00211122
-0.0013935
0.00141845
-0.00130481
0.000560391
-0.00102547
-0.000545074
-0.000616986
-0.00165679
-0.000185043
-0.00250018
0.000203785
-0.00300562
0.000522545
-0.00317273
0.000768516
-0.0030678
0.000954494
-0.00275984
0.00110874
-0.00231262
0.00126178
-0.00179444
0.00146519
-0.0012707
0.00174906
-0.000845792
0.00188704
-0.000667774
0.00179013
-0.000672095
0.00161617
-0.000667988
0.0014703
-0.000579134
0.00135162
-0.000468375
0.00127092
-0.000356884
0.00124109
-0.000244575
0.00128264
-0.000154458
0.00133023
-0.000119645
0.00138273
-0.000111036
0.00143675
-9.9341e-05
0.00148184
-6.32854e-05
0.00149852
1.33275e-05
0.00146628
0.000135021
0.0013731
0.000301105
0.00121967
0.000520668
0.00108573
0.000859051
0.000942059
0.0013033
0.000623242
0.00185879
0.000552678
0.00238358
-0.000965929
0.0015184
-0.0014294
0.000463262
-0.00138241
-0.000626956
0.0103698
-0.000980778
0.00445635
-0.000553448
0.00242276
-0.000187533
0.0017453
9.42028e-05
0.00113671
0.000483602
0.000170991
0.000981863
-0.00104333
0.00140283
-0.00207775
0.00168921
-0.00278657
0.00183665
-0.00315306
0.00187453
-0.00321062
0.00183127
-0.00302453
0.00173698
-0.00266556
0.00162778
-0.00220342
0.00153675
-0.00170341
0.00148963
-0.00122358
0.00148059
-0.00083675
0.00142624
-0.000613426
0.00128252
-0.000528375
0.00109278
-0.000478247
0.000926185
-0.00041254
0.000799564
-0.000341754
0.000718787
-0.000276107
0.000691172
-0.00021696
0.000713643
-0.000176928
0.000762026
-0.000168028
0.000825564
-0.000174574
0.000899686
-0.000173463
0.000978933
-0.000142532
0.00105134
-5.90841e-05
0.00109927
8.70957e-05
0.00111835
0.000282024
0.00111679
0.000522225
0.00114176
0.000834085
0.00124075
0.00120431
0.0014273
0.00167225
0.00187034
0.00194054
0.00213248
0.00125626
0.00174351
0.000852229
0.000417664
-0.000681885
0.0115028
-0.000561117
0.00433558
0.000575465
0.00128617
0.00137153
0.000949238
0.00205693
0.00045131
0.00275833
-0.000530407
0.00330273
-0.00158774
0.00359012
-0.00236514
0.00362518
-0.00282162
0.00345326
-0.00298114
0.00313638
-0.00289373
0.00273562
-0.00262378
0.00230419
-0.00223413
0.0018888
-0.00178803
0.00152496
-0.00133956
0.00122888
-0.000927501
0.000999128
-0.000606999
0.000800661
-0.000414959
0.000600778
-0.000328492
0.000410804
-0.000288273
0.000255805
-0.000257541
0.000145476
-0.000231425
8.0802e-05
-0.000211433
6.19519e-05
-0.00019811
8.22369e-05
-0.000197213
0.000126748
-0.000212539
0.000186249
-0.000234075
0.000259689
-0.000246903
0.000351252
-0.000234095
0.000465703
-0.000173536
0.000590888
-3.80892e-05
0.000716214
0.000156698
0.000852833
0.000385606
0.0010383
0.000648621
0.00132085
0.000921759
0.00176231
0.00123079
0.00242924
0.00127361
0.00297087
0.000714632
0.00299171
0.000831392
0.00347043
0.00259548
0.009412
0.00329995
0.00363111
0.00370255
0.000883571
0.00439306
0.00025873
0.00520882
-0.000364451
0.00583852
-0.00116011
0.00606011
-0.00180933
0.00590249
-0.00220752
0.00544241
-0.00236153
0.00477195
-0.00231068
0.00398641
-0.00210819
0.00316978
-0.00180714
0.00238355
-0.0014479
0.00167676
-0.00108124
0.00108226
-0.000745059
0.000606541
-0.000451785
0.000255006
-0.000255464
-7.24047e-07
-0.000159229
-0.000197166
-0.00013205
-0.000350946
-0.000134493
-0.000466846
-0.000141641
-0.000547337
-0.000150934
-0.000596151
-0.000162619
-0.000616881
-0.000177379
-0.000616317
-0.000197778
-0.000604473
-0.000224382
-0.000586913
-0.000251636
-0.000562756
-0.00027106
-0.000523874
-0.000272977
-0.000451578
-0.000245833
-0.000316977
-0.00017269
-0.000135562
-2.47165e-05
7.7781e-05
0.000172263
0.000346392
0.00038001
0.000681593
0.000586557
0.00112388
0.000788496
0.00161014
0.000787355
0.00181693
0.00050784
0.00108097
0.00156736
0.00480068
0.00996558
0.0135887
0.0124578
0.00201443
0.0117512
0.000965295
0.0110957
0.000291066
0.0102156
-0.000280013
0.0090707
-0.000664408
0.00776555
-0.000902377
0.00639422
-0.000990196
0.00503014
-0.000946607
0.00374033
-0.000818388
0.00257751
-0.000644324
0.00156262
-0.000433009
0.000720274
-0.000238896
5.7259e-05
-8.20444e-05
-0.00041039
1.58646e-05
-0.00069955
3.36953e-05
-0.000878611
1.9832e-05
-0.00100505
-5.61459e-06
-0.00110618
-3.3363e-05
-0.00118844
-5.93768e-05
-0.00125472
-8.46513e-05
-0.00130887
-0.000108473
-0.0013551
-0.000131151
-0.0014
-0.000152871
-0.00145185
-0.000172531
-0.00151804
-0.000185456
-0.00160566
-0.000183438
-0.00172343
-0.000155209
-0.00188158
-8.76785e-05
-0.00208583
3.15642e-05
-0.00232312
0.000212571
-0.00262018
0.000469326
-0.00305861
0.000818433
-0.00373004
0.00125799
-0.004701
0.00175946
-0.00608821
0.00217456
-0.00777285
0.00219248
-0.00730112
0.00109563
-0.0022246
0.00467923
0.0035126
0.00379274
0.00185178
0.00417493
-9.11209e-05
0.00418175
-0.00028683
0.00377803
-0.000260688
0.00314731
-0.000271663
0.00239618
-0.000239062
0.00159252
-0.000142953
0.000778486
-4.3509e-06
6.26904e-06
0.000127893
-0.000633339
0.000206599
-0.00108544
0.000213202
-0.00137262
0.000205143
-0.00153641
0.000179648
-0.0016392
0.000136482
-0.00171276
9.33994e-05
-0.00177378
5.53981e-05
-0.00183104
2.38976e-05
-0.00188948
-9.35494e-07
-0.00195104
-2.3091e-05
-0.00201655
-4.29585e-05
-0.00208783
-5.9877e-05
-0.00216803
-7.26656e-05
-0.00225961
-8.09512e-05
-0.00236346
-8.1604e-05
-0.00247855
-6.83504e-05
-0.00260093
-3.28257e-05
-0.00272299
3.4379e-05
-0.00283272
0.000141294
-0.0029269
0.000306755
-0.00301327
0.000555696
-0.0030972
0.00090236
-0.00317447
0.00133526
-0.00319989
0.00178488
-0.00312118
0.00209585
-0.00275893
0.00183022
-0.00149826
-0.000165041
-0.00365087
-0.000539542
0.00411687
0.000297076
0.00101516
-8.11381e-05
0.000287093
-0.000454597
8.66296e-05
-0.00078447
6.91843e-05
-0.00114503
8.89021e-05
-0.00151168
0.000127588
-0.00183145
0.000176817
-0.00205756
0.000221755
-0.0021837
0.000254029
-0.00224049
0.000263397
-0.00226556
0.000238271
-0.00226381
0.000203389
-0.0022517
0.000167536
-0.0022481
0.000132889
-0.00225789
0.000103188
-0.00228088
7.83877e-05
-0.00231487
5.78837e-05
-0.00235667
4.08699e-05
-0.0024074
2.76368e-05
-0.00246587
1.55091e-05
-0.00252987
4.1253e-06
-0.00259674
-5.79392e-06
-0.00266431
-1.33845e-05
-0.002729
-1.69171e-05
-0.00278418
-1.31613e-05
-0.00281904
2.03181e-06
-0.00282324
3.85765e-05
-0.00278663
0.000104686
-0.00268761
0.000207729
-0.00249493
0.000363017
-0.00218187
0.000589307
-0.00172943
0.000882813
-0.00110951
0.00116496
-0.000151408
0.00113775
0.00114169
0.000537121
0.00157805
-0.000601396
-0.00199398
-0.00723161
-0.010133
-0.00597331
-0.0049382
-0.00463993
-0.00454638
-0.00447289
-0.00438167
-0.00425337
-0.0040772
-0.00385731
-0.00360629
-0.00334703
-0.00311393
-0.0029166
-0.00275585
-0.0026303
-0.00253488
-0.00246458
-0.00241504
-0.0023827
-0.00236372
-0.00235696
-0.00236161
-0.00237617
-0.00239824
-0.00242372
-0.00244527
-0.00245143
-0.00242079
-0.00232377
-0.00212343
-0.00176752
-0.00118504
-0.000308799
0.000849806
0.00198117
0.00251167
0.00190325
)
;

boundaryField
{
    floor
    {
        type            calculated;
        value           nonuniform List<scalar> 
29
(
0
0
0
0
0
0
0
0
0
0
0
0
0
0
0
0
0
0
0
0
-3.61406e-06
-9.30896e-06
-1.41961e-05
-1.86193e-05
-1.43997e-06
-2.68652e-06
-7.64579e-06
-8.0122e-06
-7.27188e-06
)
;
    }
    ceiling
    {
        type            calculated;
        value           nonuniform List<scalar> 
43
(
-4.54152e-05
-4.40971e-05
-4.27903e-05
-1.99517e-05
-1.11739e-05
-6.92137e-06
-4.30084e-06
-2.32238e-06
-7.16957e-07
6.47468e-07
1.8675e-06
3.01276e-06
4.13027e-06
5.17229e-06
6.06579e-06
6.78159e-06
7.33786e-06
7.76678e-06
8.09342e-06
8.34317e-06
8.52761e-06
8.65938e-06
8.7442e-06
8.78016e-06
8.76172e-06
8.68857e-06
8.56099e-06
8.39185e-06
8.18638e-06
7.93888e-06
7.66849e-06
7.38755e-06
7.10465e-06
6.82738e-06
6.5732e-06
6.35661e-06
6.38833e-06
6.62696e-06
7.01941e-06
8.24856e-06
1.10889e-05
8.03932e-06
-6.47273e-05
)
;
    }
    sWall
    {
        type            calculated;
        value           uniform -0.000274899;
    }
    nWall
    {
        type            calculated;
        value           nonuniform List<scalar> 6(-4.71892e-05 -5.65636e-05 -6.10558e-05 -7.19852e-05 -7.88436e-05 -9.898e-05);
    }
    sideWalls
    {
        type            empty;
        value           nonuniform 0();
    }
    glass1
    {
        type            calculated;
        value           nonuniform List<scalar> 9(-5.62643e-05 -0.0001515 -0.000231695 -0.000299972 -0.000357938 -0.000406825 -0.000451074 -0.000504691 -0.000564671);
    }
    glass2
    {
        type            calculated;
        value           nonuniform List<scalar> 2(-0.000249289 -0.000275838);
    }
    sun
    {
        type            calculated;
        value           uniform 0;
    }
    heatsource1
    {
        type            calculated;
        value           nonuniform List<scalar> 3(2.03964e-07 2.0392e-07 2.03937e-07);
    }
    heatsource2
    {
        type            calculated;
        value           nonuniform List<scalar> 4(5.10985e-08 5.12207e-08 0 0);
    }
    Table_master
    {
        type            calculated;
        value           nonuniform List<scalar> 9(-1.52972e-07 -1.53053e-07 -1.53082e-07 -1.53102e-07 -1.53115e-07 -1.53125e-07 -1.53129e-07 -1.53122e-07 -1.5309e-07);
    }
    Table_slave
    {
        type            calculated;
        value           nonuniform List<scalar> 9(1.52849e-07 1.52874e-07 1.52858e-07 1.52844e-07 1.52839e-07 1.52842e-07 1.52858e-07 1.52901e-07 1.5298e-07);
    }
    inlet
    {
        type            calculated;
        value           uniform -0.0061774;
    }
    outlet
    {
        type            calculated;
        value           nonuniform List<scalar> 2(0.00755193 0.00294546);
    }
}


// ************************************************************************* //
