/*--------------------------------*- C++ -*----------------------------------*\
  =========                 |
  \\      /  F ield         | OpenFOAM: The Open Source CFD Toolbox
   \\    /   O peration     | Website:  https://openfoam.org
    \\  /    A nd           | Version:  6
     \\/     M anipulation  |
\*---------------------------------------------------------------------------*/
FoamFile
{
    version     2.0;
    format      ascii;
    class       volScalarField;
    location    "440";
    object      alphat;
}
// * * * * * * * * * * * * * * * * * * * * * * * * * * * * * * * * * * * * * //

dimensions      [1 -1 -1 0 0 0 0];

internalField   nonuniform List<scalar> 
459
(
0.000913423
0.00110644
0.00120646
0.00119442
0.00115627
0.00111373
0.00107248
0.00103299
0.000996936
0.000962485
0.000927824
0.000891043
0.000849554
0.000798406
0.000739245
0.000606016
0.000791031
0.0008069
0.000793665
0.000763229
0.000726367
0.000681653
0.000638335
0.000599661
0.000565726
0.000535937
0.000509599
0.00048599
0.000464713
0.000444645
0.000424424
0.000403227
0.000371608
0.000370861
0.00114581
0.00371783
0.00321578
0.00312448
0.00302425
0.00290037
0.0027957
0.00271213
0.00259617
0.00244703
0.00226257
0.0020357
0.00176035
0.00143063
0.00107772
0.000729523
0.000652148
0.000931729
0.00289628
0.00238342
0.00243163
0.00253174
0.00246431
0.00190519
0.00161488
0.00141655
0.00126944
0.00115595
0.00106661
0.000995538
0.000921133
0.000837957
0.000759743
0.000752416
0.000708687
0.000473576
0.00124812
0.00423856
0.003025
0.00306567
0.00314079
0.00313084
0.00315139
0.00320988
0.00323185
0.00317387
0.00301348
0.00274772
0.00239014
0.00196519
0.0015185
0.00110423
0.000665489
0.000869263
0.0025592
0.0024777
0.00280898
0.00311842
0.00298101
0.000897972
0.00079391
0.000708532
0.000638734
0.000581397
0.000533976
0.000494675
0.000463545
0.000441152
0.000497102
0.000667328
0.000876927
0.000546996
0.00131418
0.0039799
0.00249281
0.00289449
0.00324789
0.00330699
0.0034145
0.00358056
0.00366931
0.00363318
0.00346727
0.00318536
0.00281172
0.00237602
0.00191251
0.00145954
0.000979446
0.000689717
0.00138287
0.00196495
0.00278738
0.00353641
0.00400524
0.00376939
0.000982559
0.000902181
0.000838469
0.000782824
0.000730435
0.000678406
0.000624681
0.000567312
0.000501606
0.000483872
0.000628965
0.00105168
0.000637931
0.00134792
0.00345126
0.00212401
0.002882
0.00359799
0.00368615
0.00387019
0.00405478
0.0040783
0.00399292
0.00381084
0.0035386
0.00319806
0.00281568
0.00242154
0.00205795
0.00176994
0.00192601
0.00266446
0.00361783
0.00445326
0.00503922
0.00535067
0.00532169
0.00454903
0.00408571
0.00362527
0.00317976
0.00273839
0.00229651
0.00185143
0.00140569
0.000960894
0.000675461
0.000681707
0.00104235
0.000904012
0.000701056
0.000751104
0.00107025
0.0013701
0.00312138
0.00187242
0.00290338
0.00399658
0.00414141
0.00439412
0.004523
0.00448005
0.00438259
0.0042351
0.00402327
0.00378016
0.00352958
0.00331705
0.0032233
0.00335313
0.00404772
0.00491018
0.00562563
0.00612027
0.00638283
0.00644548
0.00632724
0.00597599
0.00547269
0.00487471
0.00423486
0.00358066
0.00292683
0.00228037
0.00166338
0.00119815
0.000970119
0.000951041
0.00106968
0.00104932
0.00111447
0.00163491
0.00142778
0.00140096
0.00313566
0.00156504
0.00290688
0.00435123
0.00450114
0.00467326
0.00477524
0.0047511
0.00470966
0.00465497
0.004583
0.00451263
0.00447026
0.00452637
0.00475961
0.00524432
0.0060012
0.00661111
0.00698237
0.00713084
0.00708481
0.00690111
0.00659611
0.00615134
0.00560587
0.00498898
0.00433148
0.00366635
0.00302896
0.00245987
0.00200972
0.0017365
0.0016345
0.00159592
0.00150201
0.00127297
0.00157549
0.0029811
0.00194443
0.0013778
0.00295275
0.00118406
0.00279614
0.00471374
0.0049608
0.00495897
0.00486286
0.00482366
0.00484567
0.00489395
0.00496127
0.00506228
0.00522579
0.00549318
0.00591573
0.00645797
0.00699905
0.00731221
0.00736619
0.00720507
0.00685819
0.00639806
0.00591047
0.00541877
0.00492315
0.00441718
0.00391485
0.00344987
0.00306485
0.00279905
0.00267391
0.00267331
0.00271557
0.00266837
0.00246002
0.00196582
0.00223228
0.00539624
0.00268097
0.00139685
0.0014257
0.000941249
0.00256155
0.004892
0.00552753
0.00543721
0.00530912
0.00532452
0.00540444
0.00550518
0.00562295
0.00576984
0.00596274
0.0062158
0.00652781
0.00684129
0.0070467
0.00703978
0.00681329
0.00642051
0.00595519
0.00549255
0.00507465
0.00471558
0.00441238
0.00416056
0.00396858
0.00385397
0.00383309
0.00391095
0.00407139
0.00426561
0.00440456
0.00438175
0.00414202
0.00357777
0.00358941
0.00717579
0.00301433
0.00076069
0.00260708
0.00524537
0.00607629
0.00621282
0.00636124
0.00653826
0.00669121
0.00681022
0.00690443
0.00698572
0.00706278
0.00713748
0.00719979
0.00722178
0.00716716
0.00701971
0.00679993
0.00654528
0.00628995
0.00605591
0.00585461
0.00569129
0.00557067
0.00549961
0.00548785
0.00554519
0.00567671
0.00587676
0.00612113
0.00635895
0.00651011
0.00647268
0.0062401
0.00574781
0.00555132
0.00747474
0.00255333
0.00240109
0.00684206
0.00703567
0.0069272
0.00711714
0.00740264
0.00765249
0.00782968
0.00794182
0.00800614
0.00803743
0.0080461
0.00803903
0.00801994
0.00798818
0.00793845
0.00786389
0.00776488
0.00765056
0.00753217
0.0074177
0.00731323
0.00722544
0.00716304
0.007136
0.00715471
0.00722847
0.00736301
0.00755646
0.00779237
0.00802906
0.00818754
0.00814656
0.00787038
0.00731708
0.00672972
0.00597344
0.00214206
0.00151257
0.00160269
0.00179379
0.00190519
0.00192827
0.00192784
0.00193374
0.00194172
0.00194786
0.00195175
0.00195405
0.00195558
0.001957
0.00195878
0.00196099
0.00196317
0.00196418
0.00196272
0.00195833
0.00195161
0.00194368
0.00193561
0.00192825
0.00192229
0.00191835
0.00191706
0.001919
0.0019247
0.00193443
0.00194796
0.00196416
0.00198035
0.00199167
0.00199149
0.00197954
0.00195953
0.00196518
0.00201343
0.00203666
0.00180937
)
;

boundaryField
{
    floor
    {
        type            compressible::alphatWallFunction;
        Prt             0.85;
        value           nonuniform List<scalar> 
29
(
0.000105238
8.55682e-05
0.000112787
0.000115083
0.00011317
0.000108754
0.000103376
9.68083e-05
9.03949e-05
8.46237e-05
7.95218e-05
7.50115e-05
7.09977e-05
6.73776e-05
6.40957e-05
6.09828e-05
5.7828e-05
5.45e-05
4.94925e-05
4.93741e-05
4.93734e-05
6.54681e-05
7.66943e-05
9.03417e-05
0.000105237
8.55672e-05
0.000132961
0.000124047
9.79811e-05
)
;
    }
    ceiling
    {
        type            compressible::alphatWallFunction;
        Prt             0.85;
        value           nonuniform List<scalar> 
43
(
0.000213054
0.000225124
0.000250477
0.000265119
0.000268143
0.000268088
0.000268862
0.000269905
0.000270709
0.000271217
0.000271518
0.000271719
0.000271905
0.000272137
0.000272427
0.000272712
0.000272843
0.000272654
0.00027208
0.000271202
0.000270165
0.00026911
0.000268147
0.000267367
0.000266851
0.000266681
0.000266935
0.00026768
0.000268952
0.000270721
0.000272835
0.000274946
0.000276422
0.000276397
0.000274837
0.000272224
0.000272962
0.000279252
0.000282276
0.000252532
0.000197368
0.000201258
0.000329225
)
;
    }
    sWall
    {
        type            compressible::alphatWallFunction;
        Prt             0.85;
        value           uniform 0.000212968;
    }
    nWall
    {
        type            compressible::alphatWallFunction;
        Prt             0.85;
        value           nonuniform List<scalar> 6(0.000152508 0.000201625 0.000270253 0.000348634 0.000295952 0.000252537);
    }
    sideWalls
    {
        type            empty;
    }
    glass1
    {
        type            compressible::alphatWallFunction;
        Prt             0.85;
        value           nonuniform List<scalar> 9(0.000130373 0.000163034 0.000177155 0.000186199 0.000190797 0.000193807 0.000197984 0.000194834 0.000197411);
    }
    glass2
    {
        type            compressible::alphatWallFunction;
        Prt             0.85;
        value           nonuniform List<scalar> 2(0.000366144 0.000408076);
    }
    sun
    {
        type            compressible::alphatWallFunction;
        Prt             0.85;
        value           nonuniform List<scalar> 
14
(
0.00013034
0.000157511
0.00017136
0.000169699
0.000164425
0.000158521
0.00015277
0.00014724
0.00014217
0.000137305
0.00013239
0.00012715
0.000121209
0.000113837
)
;
    }
    heatsource1
    {
        type            compressible::alphatWallFunction;
        Prt             0.85;
        value           nonuniform List<scalar> 3(9.94736e-05 0.000106796 0.000152278);
    }
    heatsource2
    {
        type            compressible::alphatWallFunction;
        Prt             0.85;
        value           nonuniform List<scalar> 4(0.000103649 9.2259e-05 9.22579e-05 9.42328e-05);
    }
    Table_master
    {
        type            compressible::alphatWallFunction;
        Prt             0.85;
        value           nonuniform List<scalar> 9(0.000127962 0.000113012 0.000100572 9.02662e-05 8.16972e-05 7.45311e-05 6.85319e-05 6.37372e-05 6.0263e-05);
    }
    Table_slave
    {
        type            compressible::alphatWallFunction;
        Prt             0.85;
        value           nonuniform List<scalar> 9(0.000139966 0.000128565 0.000119443 0.000111409 0.000103782 9.61418e-05 8.81772e-05 7.95787e-05 6.9596e-05);
    }
    inlet
    {
        type            fixedValue;
        value           uniform 1.94e-05;
    }
    outlet
    {
        type            zeroGradient;
    }
}


// ************************************************************************* //
