// -*- C++ -*-
// File generated by PyFoam - sorry for the ugliness

FoamFile
{
 version 2.0;
 format ascii;
 class volVectorField;
 location "300";
 object U;
}

dimensions [ 0 1 -1 0 0 0 0 ];

internalField nonuniform List<vector> 459
(
  (0.0348754 0.0855095 0)
  (-0.166267 0.0252395 0)
  (-0.189972 0.0175056 0)
  (-0.220129 0.0120331 0)
  (-0.241939 0.00596076 0)
  (-0.254451 -0.000441826 0)
  (-0.256255 -0.00719572 0)
  (-0.246324 -0.0142795 0)
  (-0.225406 -0.0210993 0)
  (-0.195207 -0.0265686 0)
  (-0.158912 -0.0298612 0)
  (-0.120069 -0.0307294 0)
  (-0.0819823 -0.0296995 0)
  (-0.0493903 -0.028432 0)
  (-0.0361433 -0.0287833 0)
  (-0.000279136 0.00761708 0)
  (-0.0241641 -0.0174321 0)
  (-0.00130443 -0.0258075 0)
  (0.0196865 -0.0189273 0)
  (0.0344808 -0.0125813 0)
  (0.0454472 -0.00791036 0)
  (0.0518802 -0.00461186 0)
  (0.0550046 -0.00289699 0)
  (0.0563091 -0.00217548 0)
  (0.0568944 -0.00184964 0)
  (0.0572095 -0.00165571 0)
  (0.0573224 -0.00150881 0)
  (0.0571884 -0.00132341 0)
  (0.0566239 -0.000947994 0)
  (0.0551249 -2.30667e-05 0)
  (0.0515974 0.00194691 0)
  (0.0449106 0.00382579 0)
  (0.0400195 0.00495942 0)
  (-0.0165989 0.0195712 0)
  (0.208361 0.174951 0)
  (-0.155223 0.0665654 0)
  (-0.152805 0.0515474 0)
  (-0.183882 0.0400412 0)
  (-0.205374 0.0270072 0)
  (-0.218007 0.012498 0)
  (-0.22035 -0.00365612 0)
  (-0.211235 -0.0208374 0)
  (-0.191949 -0.0367624 0)
  (-0.164561 -0.0489003 0)
  (-0.132404 -0.0555866 0)
  (-0.0989242 -0.0564782 0)
  (-0.0672774 -0.0523389 0)
  (-0.0410339 -0.0448456 0)
  (-0.0246135 -0.0354998 0)
  (-0.0118087 -0.0166407 0)
  (-0.00636661 0.0131689 0)
  (0.0690968 0.0312772 0)
  (0.02935 -0.0176245 0)
  (0.0355578 -0.0290557 0)
  (0.0460022 -0.0248178 0)
  (0.0539213 -0.0170332 0)
  (0.0591298 -0.00991083 0)
  (0.0611653 -0.00395454 0)
  (0.0614406 -0.000629757 0)
  (0.0613341 0.000791402 0)
  (0.0613888 0.00143963 0)
  (0.0615267 0.00183391 0)
  (0.0616246 0.00215919 0)
  (0.061639 0.00255715 0)
  (0.061536 0.00334992 0)
  (0.060808 0.0053814 0)
  (0.0571223 0.0112032 0)
  (0.0478286 0.0155499 0)
  (0.0449806 0.017686 0)
  (-0.0542323 0.0424919 0)
  (0.366896 0.261628 0)
  (-0.171484 0.106036 0)
  (-0.114833 0.0833128 0)
  (-0.144783 0.0627558 0)
  (-0.163731 0.041339 0)
  (-0.175214 0.0178389 0)
  (-0.176905 -0.00836122 0)
  (-0.166965 -0.0357966 0)
  (-0.147812 -0.0603902 0)
  (-0.122251 -0.0781157 0)
  (-0.093803 -0.0868629 0)
  (-0.0654062 -0.0867423 0)
  (-0.0392415 -0.0790764 0)
  (-0.0173502 -0.0656126 0)
  (-0.00135177 -0.047578 0)
  (0.0106679 -0.0229281 0)
  (0.0179158 0.00932372 0)
  (0.108659 -0.0362475 0)
  (0.0707088 -0.040193 0)
  (0.0655062 -0.036904 0)
  (0.0673169 -0.0297104 0)
  (0.0685597 -0.0211949 0)
  (0.0692702 -0.0140593 0)
  (0.0678547 -0.0115192 0)
  (0.064272 -0.00825821 0)
  (0.0618565 -0.00651039 0)
  (0.0608704 -0.00553331 0)
  (0.060537 -0.00492784 0)
  (0.0604436 -0.00451878 0)
  (0.0606044 -0.00412715 0)
  (0.0614402 -0.00343946 0)
  (0.0640353 -0.000551354 0)
  (0.0616252 0.0161086 0)
  (0.0478644 0.0268186 0)
  (0.0519295 0.0327941 0)
  (-0.0875815 0.0660505 0)
  (0.509252 0.331311 0)
  (-0.204996 0.141174 0)
  (-0.07496 0.110196 0)
  (-0.102934 0.0818238 0)
  (-0.116399 0.0542424 0)
  (-0.124189 0.0233146 0)
  (-0.122235 -0.012758 0)
  (-0.109131 -0.050818 0)
  (-0.0894582 -0.0832108 0)
  (-0.0665814 -0.104928 0)
  (-0.0436165 -0.114258 0)
  (-0.0223559 -0.11247 0)
  (-0.0034707 -0.101565 0)
  (0.0125837 -0.0835194 0)
  (0.0257311 -0.0614153 0)
  (0.0396143 -0.0359776 0)
  (0.060613 -0.00972961 0)
  (0.0893593 0.00604056 0)
  (0.0959248 -0.0289903 0)
  (0.0820814 -0.0349973 0)
  (0.0738658 -0.0312937 0)
  (0.0700045 -0.0257684 0)
  (0.067421 -0.0191613 0)
  (0.0662321 -0.0113384 0)
  (0.0681118 -0.00687127 0)
  (0.0725807 -0.00569315 0)
  (0.0765985 -0.00505531 0)
  (0.0797278 -0.00452785 0)
  (0.0820275 -0.003736 0)
  (0.0828883 -0.00240495 0)
  (0.0808871 -0.000273721 0)
  (0.0746811 0.00292498 0)
  (0.0615147 0.0077214 0)
  (0.0493856 0.0272714 0)
  (0.0369746 0.0423493 0)
  (0.0556697 0.0528116 0)
  (-0.127238 0.0863894 0)
  (0.631514 0.385337 0)
  (-0.245653 0.169998 0)
  (-0.0359055 0.125393 0)
  (-0.0589285 0.0924057 0)
  (-0.0643122 0.0612909 0)
  (-0.0652034 0.0249917 0)
  (-0.0534147 -0.0202831 0)
  (-0.0352609 -0.0674703 0)
  (-0.016338 -0.104069 0)
  (0.00117973 -0.126197 0)
  (0.0155464 -0.133222 0)
  (0.0266767 -0.128317 0)
  (0.0352167 -0.114759 0)
  (0.0419051 -0.0952379 0)
  (0.0478457 -0.0724855 0)
  (0.0548427 -0.0491675 0)
  (0.0653116 -0.0304805 0)
  (0.0748736 -0.0260995 0)
  (0.0759419 -0.0319249 0)
  (0.069482 -0.0307324 0)
  (0.0616849 -0.0261409 0)
  (0.0557749 -0.0212282 0)
  (0.0516371 -0.0162247 0)
  (0.0495156 -0.0110393 0)
  (0.0498047 -0.00653473 0)
  (0.0522751 -0.0046782 0)
  (0.0551983 -0.00418437 0)
  (0.0582413 -0.00368778 0)
  (0.0612243 -0.00221701 0)
  (0.0636351 0.000922611 0)
  (0.0642783 0.00582546 0)
  (0.0622288 0.0125133 0)
  (0.056866 0.0214227 0)
  (0.0499073 0.0365948 0)
  (0.0392506 0.0535655 0)
  (0.0634705 0.0715882 0)
  (-0.0289172 0.0973021 0)
  (0.0460361 0.0268103 0)
  (-0.0613947 -0.0332027 0)
  (-0.272965 -0.0562214 0)
  (0.719567 0.430354 0)
  (-0.284934 0.18931 0)
  (-0.00644832 0.120803 0)
  (-0.0130167 0.0921163 0)
  (-0.00700935 0.0620636 0)
  (0.00321681 0.0182262 0)
  (0.0326755 -0.0380182 0)
  (0.0531705 -0.086082 0)
  (0.0673988 -0.119306 0)
  (0.0754394 -0.136847 0)
  (0.0780879 -0.140271 0)
  (0.0768105 -0.132525 0)
  (0.0729977 -0.116867 0)
  (0.0680488 -0.0964011 0)
  (0.0633913 -0.0740164 0)
  (0.0602719 -0.0523254 0)
  (0.0594966 -0.0349 0)
  (0.0587811 -0.0260346 0)
  (0.0546781 -0.0238841 0)
  (0.047223 -0.0220809 0)
  (0.0392394 -0.0190234 0)
  (0.032891 -0.0157475 0)
  (0.0285585 -0.0126234 0)
  (0.0264258 -0.00965625 0)
  (0.0265067 -0.00748734 0)
  (0.0284175 -0.00714932 0)
  (0.0312807 -0.00762868 0)
  (0.0347711 -0.00770068 0)
  (0.0387159 -0.00632881 0)
  (0.0427914 -0.00252789 0)
  (0.0467741 0.00421143 0)
  (0.0490122 0.0133058 0)
  (0.0497309 0.0245075 0)
  (0.0504248 0.0389021 0)
  (0.049054 0.0555988 0)
  (0.0725482 0.0765945 0)
  (0.0504986 0.0912485 0)
  (0.0931579 0.0634311 0)
  (0.116046 0.0429858 0)
  (-0.127733 -0.00608912 0)
  (0.772942 0.471401 0)
  (-0.303577 0.174898 0)
  (0.0218529 0.0689256 0)
  (0.0491066 0.0637517 0)
  (0.0693847 0.0435081 0)
  (0.10349 -0.00649424 0)
  (0.134143 -0.060983 0)
  (0.151268 -0.101714 0)
  (0.156194 -0.126407 0)
  (0.151132 -0.136432 0)
  (0.138759 -0.134245 0)
  (0.121918 -0.12288 0)
  (0.103129 -0.105457 0)
  (0.0845044 -0.0849981 0)
  (0.0677281 -0.0640308 0)
  (0.0537893 -0.0444992 0)
  (0.0431606 -0.0289956 0)
  (0.0347134 -0.0197644 0)
  (0.026604 -0.0158478 0)
  (0.0184145 -0.013944 0)
  (0.0110916 -0.0122073 0)
  (0.00551496 -0.010682 0)
  (0.00184946 -0.0095004 0)
  (0.000131414 -0.00866595 0)
  (0.000256715 -0.0085531 0)
  (0.00178907 -0.00952873 0)
  (0.00415076 -0.0108944 0)
  (0.00714813 -0.0117286 0)
  (0.0108524 -0.0110972 0)
  (0.0154329 -0.00789432 0)
  (0.0216651 -0.00093571 0)
  (0.0289067 0.00928182 0)
  (0.0353189 0.0208635 0)
  (0.0429877 0.0337939 0)
  (0.0510759 0.0474837 0)
  (0.0736476 0.0642317 0)
  (0.0869873 0.0691105 0)
  (0.119682 0.0465344 0)
  (0.15886 0.0413943 0)
  (-0.0309688 0.0933078 0)
  (0.87859 0.472937 0)
  (-0.064593 0.153653 0)
  (0.110529 -0.0121248 0)
  (0.182179 -0.0398657 0)
  (0.212818 -0.0530757 0)
  (0.243964 -0.0767104 0)
  (0.260673 -0.0995043 0)
  (0.260112 -0.115195 0)
  (0.244231 -0.121937 0)
  (0.217322 -0.120054 0)
  (0.183966 -0.110993 0)
  (0.148176 -0.0966709 0)
  (0.113068 -0.0790845 0)
  (0.0809448 -0.0605157 0)
  (0.0533233 -0.0428069 0)
  (0.0306532 -0.0270407 0)
  (0.0138759 -0.0154088 0)
  (0.00186502 -0.00912455 0)
  (-0.00696018 -0.00700035 0)
  (-0.0137942 -0.00659082 0)
  (-0.0192699 -0.00655568 0)
  (-0.0233468 -0.00675586 0)
  (-0.0261221 -0.00724084 0)
  (-0.0276829 -0.00805949 0)
  (-0.0282116 -0.00937019 0)
  (-0.0280869 -0.0111981 0)
  (-0.0276822 -0.0131523 0)
  (-0.027095 -0.0147048 0)
  (-0.0261454 -0.0152868 0)
  (-0.0243878 -0.0142573 0)
  (-0.0208279 -0.0108837 0)
  (-0.0123811 -0.00442563 0)
  (-0.00141599 0.00452535 0)
  (0.0099881 0.0134075 0)
  (0.0219282 0.0198663 0)
  (0.0411864 0.0260188 0)
  (0.0579092 0.0176805 0)
  (0.0747616 -0.00782929 0)
  (0.132293 0.0425347 0)
  (-0.422405 0.210024 0)
  (1.02673 0.424401 0)
  (0.488721 0.280021 0)
  (0.502889 0.184419 0)
  (0.528105 0.112725 0)
  (0.508082 0.0605112 0)
  (0.464969 0.0123821 0)
  (0.414803 -0.0274627 0)
  (0.359944 -0.0542522 0)
  (0.300857 -0.0673432 0)
  (0.240533 -0.0690721 0)
  (0.18242 -0.0630227 0)
  (0.129093 -0.0523538 0)
  (0.0822306 -0.0391799 0)
  (0.0430951 -0.0256934 0)
  (0.0115804 -0.0135767 0)
  (-0.0136826 -0.00407437 0)
  (-0.0273812 -0.000440296 0)
  (-0.0357293 0.000221879 0)
  (-0.0411721 -0.000510968 0)
  (-0.0453483 -0.00162747 0)
  (-0.0489487 -0.00273733 0)
  (-0.0519902 -0.00392616 0)
  (-0.0545872 -0.00526246 0)
  (-0.0568513 -0.006778 0)
  (-0.0590089 -0.00850427 0)
  (-0.0614023 -0.0103522 0)
  (-0.0643833 -0.0120182 0)
  (-0.0682508 -0.0130568 0)
  (-0.0733169 -0.0128851 0)
  (-0.0800004 -0.0107619 0)
  (-0.0888092 -0.00583563 0)
  (-0.100083 0.00264087 0)
  (-0.111853 0.0140873 0)
  (-0.127614 0.0282332 0)
  (-0.152831 0.0447855 0)
  (-0.189897 0.062399 0)
  (-0.241636 0.0769656 0)
  (-0.29881 0.0857433 0)
  (-0.365338 0.0890966 0)
  (-0.622047 0.0885081 0)
  (-0.148968 0.00589879 0)
  (0.122632 0.00513134 0)
  (0.200482 -0.0299083 0)
  (0.186433 -0.0411249 0)
  (0.169387 -0.0396972 0)
  (0.146545 -0.0348481 0)
  (0.116524 -0.0283448 0)
  (0.0824584 -0.0205013 0)
  (0.0472317 -0.0118963 0)
  (0.0118445 -0.00328558 0)
  (-0.0201813 0.00402479 0)
  (-0.0413343 0.00801115 0)
  (-0.0553055 0.00989185 0)
  (-0.0627471 0.00963011 0)
  (-0.0669281 0.00818152 0)
  (-0.0698252 0.00671883 0)
  (-0.072208 0.00544168 0)
  (-0.0744389 0.00437853 0)
  (-0.0765582 0.00338288 0)
  (-0.0788021 0.00226185 0)
  (-0.0813163 0.000873605 0)
  (-0.084129 -0.000646544 0)
  (-0.0873811 -0.00214681 0)
  (-0.091214 -0.00341053 0)
  (-0.0957185 -0.00412451 0)
  (-0.100899 -0.0039187 0)
  (-0.106644 -0.00238429 0)
  (-0.112698 0.000899274 0)
  (-0.118506 0.00633838 0)
  (-0.123057 0.0145592 0)
  (-0.126809 0.0267369 0)
  (-0.129991 0.0431351 0)
  (-0.133628 0.062458 0)
  (-0.138218 0.0806794 0)
  (-0.140299 0.0882465 0)
  (-0.120865 0.0653963 0)
  (-0.0646905 -0.0280251 0)
  (-0.279625 -0.207828 0)
  (0.00961313 0.199553 0)
  (0.0373374 0.0743486 0)
  (-0.00467925 0.00893725 0)
  (-0.0157377 0.000966343 0)
  (-0.0289384 0.00258079 0)
  (-0.0439679 0.00316325 0)
  (-0.0602684 0.00492566 0)
  (-0.0753516 0.00799578 0)
  (-0.0863438 0.0107506 0)
  (-0.0923848 0.0116436 0)
  (-0.0958835 0.0103255 0)
  (-0.0968277 0.00730632 0)
  (-0.0962481 0.00398521 0)
  (-0.0948575 0.000501259 0)
  (-0.0936675 -0.00315236 0)
  (-0.0931173 -0.00666238 0)
  (-0.0932328 -0.00987632 0)
  (-0.0938724 -0.0125987 0)
  (-0.0948472 -0.0146464 0)
  (-0.0960411 -0.0159456 0)
  (-0.0974213 -0.0165176 0)
  (-0.0991169 -0.0165248 0)
  (-0.101171 -0.0161478 0)
  (-0.103625 -0.0155711 0)
  (-0.106402 -0.0146823 0)
  (-0.109276 -0.0132352 0)
  (-0.111851 -0.0108468 0)
  (-0.113546 -0.00696232 0)
  (-0.113669 -0.00106958 0)
  (-0.111191 0.00725871 0)
  (-0.104636 0.0189314 0)
  (-0.0928456 0.0346792 0)
  (-0.0758492 0.0537469 0)
  (-0.0544815 0.0710275 0)
  (-0.0324275 0.0797828 0)
  (0.0107292 0.0609374 0)
  (0.140987 -0.007992 0)
  (-0.206735 -0.117066 0)
  (-0.0630209 -0.328426 0)
  (-0.421656 -0.123849 0)
  (-0.307632 0.0678836 0)
  (-0.251911 -0.0199386 0)
  (-0.210124 -0.0290105 0)
  (-0.197819 -0.0201368 0)
  (-0.192892 -0.0115267 0)
  (-0.189008 -0.00445098 0)
  (-0.183959 0.00196132 0)
  (-0.176809 0.00806767 0)
  (-0.167414 0.0138162 0)
  (-0.156289 0.0190215 0)
  (-0.144608 0.0235406 0)
  (-0.133499 0.027582 0)
  (-0.123703 0.0316009 0)
  (-0.11544 0.0356074 0)
  (-0.108695 0.0395909 0)
  (-0.103282 0.0434448 0)
  (-0.0990132 0.0468241 0)
  (-0.0957616 0.0493031 0)
  (-0.0934429 0.0505678 0)
  (-0.0919964 0.0505101 0)
  (-0.091361 0.0492005 0)
  (-0.0914862 0.0468635 0)
  (-0.0922992 0.0439164 0)
  (-0.0936705 0.0408623 0)
  (-0.0954202 0.0378792 0)
  (-0.0972463 0.0351017 0)
  (-0.0986839 0.0326256 0)
  (-0.0990091 0.0305237 0)
  (-0.0969191 0.0293014 0)
  (-0.0903093 0.0298542 0)
  (-0.076662 0.0329511 0)
  (-0.0545096 0.0394854 0)
  (-0.0259302 0.0497762 0)
  (0.0261678 0.0631816 0)
  (0.0669375 0.0620911 0)
  (0.108271 0.0469234 0)
  (0.164539 0.0181429 0)
  (-0.209476 -0.0369763 0)
)
;

boundaryField
{
  floor
  {
    type noSlip;
  }
  ceiling
  {
    type noSlip;
  }
  sWall
  {
    type noSlip;
  }
  nWall
  {
    type noSlip;
  }
  sideWalls
  {
    type empty;
  }
  glass1
  {
    type noSlip;
  }
  glass2
  {
    type noSlip;
  }
  sun
  {
    type noSlip;
  }
  heatsource1
  {
    type noSlip;
  }
  heatsource2
  {
    type noSlip;
  }
  Table_master
  {
    type noSlip;
  }
  Table_slave
  {
    type noSlip;
  }
  inlet
  {
    type fixedValue;
    value uniform (0.277164 -0.114805 0);
  }
  outlet
  {
    type zeroGradient;
  }
} 	// ************************************************************************* //

