/*--------------------------------*- C++ -*----------------------------------*\
  =========                 |
  \\      /  F ield         | OpenFOAM: The Open Source CFD Toolbox
   \\    /   O peration     | Website:  https://openfoam.org
    \\  /    A nd           | Version:  6
     \\/     M anipulation  |
\*---------------------------------------------------------------------------*/
FoamFile
{
    version     2.0;
    format      ascii;
    class       volScalarField;
    location    "900";
    object      alphat;
}
// * * * * * * * * * * * * * * * * * * * * * * * * * * * * * * * * * * * * * //

dimensions      [1 -1 -1 0 0 0 0];

internalField   nonuniform List<scalar> 
459
(
0.00105239
0.00113079
0.00113963
0.00118688
0.00122895
0.00126669
0.00130176
0.00133608
0.00136725
0.00138629
0.00138783
0.00136731
0.00132397
0.00126453
0.00120153
0.000455058
0.000545774
0.000584788
0.000565805
0.000540945
0.00051474
0.000487913
0.000462831
0.000440201
0.000419955
0.000401842
0.000385629
0.000371049
0.000357719
0.000345173
0.000332711
0.000319208
0.000312537
0.000291074
0.0014847
0.00305545
0.00278203
0.0032171
0.003591
0.00397842
0.00434998
0.00465917
0.00489541
0.00509743
0.00522299
0.00521749
0.0050074
0.00445102
0.00318862
0.00119412
0.000816266
0.000540246
0.000866264
0.00106736
0.00119687
0.00125015
0.0012396
0.00110028
0.00100055
0.000921081
0.000855577
0.000800595
0.000752796
0.000708774
0.000666665
0.000626157
0.000592606
0.000558582
0.000683428
0.000395973
0.00185642
0.00418954
0.00322813
0.00423409
0.00460568
0.00487289
0.00507909
0.00525175
0.00541911
0.00560215
0.00576432
0.00586326
0.00585917
0.00571438
0.00536299
0.00445634
0.00115708
0.000973148
0.00119771
0.00135182
0.00147719
0.00156096
0.00153387
0.000652991
0.000596956
0.00054998
0.000510569
0.000477325
0.000449082
0.000424933
0.000404276
0.000386722
0.000411467
0.000461412
0.000770507
0.000467179
0.0022275
0.00566618
0.00309677
0.00444514
0.00480656
0.00490266
0.00493955
0.00500717
0.00514201
0.00533235
0.00553072
0.00569586
0.00579264
0.00578986
0.00568192
0.00535892
0.0043234
0.0012574
0.00149043
0.00172459
0.00191169
0.00206128
0.00218053
0.00213372
0.000726232
0.000690872
0.000668632
0.000652462
0.000636424
0.000617553
0.000597883
0.000575051
0.000545623
0.000510223
0.000500682
0.000905878
0.000522741
0.00261252
0.00767895
0.00345466
0.00413834
0.00473399
0.00475629
0.00467836
0.00469146
0.00484964
0.00508208
0.00531561
0.00551962
0.00565469
0.00566108
0.00550929
0.00518588
0.00464562
0.00379136
0.00333602
0.00310236
0.00300518
0.00300636
0.00306626
0.0031184
0.00293898
0.00290092
0.00289879
0.00288219
0.00282271
0.00267999
0.00242657
0.00208767
0.00169172
0.00127167
0.000925045
0.000907773
0.000670722
0.000687015
0.00082649
0.000919701
0.00302202
0.00991201
0.00528134
0.00380307
0.00434502
0.00457729
0.00460298
0.00453239
0.00475815
0.00501603
0.0052561
0.00546969
0.0056104
0.00561062
0.00541369
0.00500695
0.00445295
0.0039125
0.0035974
0.00347363
0.00344763
0.00347037
0.00351379
0.00356933
0.00361518
0.00366364
0.00368949
0.00367732
0.00362084
0.00351518
0.00330195
0.00297225
0.00252751
0.00199609
0.00149448
0.00106771
0.000863051
0.00078237
0.00116217
0.000954011
0.00342472
0.0116576
0.00850198
0.00532917
0.00443883
0.00436497
0.00466761
0.00479768
0.00496173
0.00513612
0.00533637
0.00553822
0.00567423
0.00565656
0.00541062
0.00492521
0.00428955
0.00375287
0.00355212
0.00355616
0.00354712
0.00350895
0.00350101
0.00354338
0.00361327
0.00367869
0.00371523
0.00371626
0.00368445
0.00362786
0.00354621
0.00330607
0.00291378
0.00242235
0.00194908
0.00149572
0.00121441
0.00114338
0.00120614
0.00104002
0.0035192
0.0110487
0.00940822
0.00806757
0.00686861
0.00610788
0.0058188
0.00551432
0.00535715
0.00538237
0.00553267
0.00571596
0.0058232
0.00574613
0.00540322
0.00480293
0.0040673
0.00357073
0.00350974
0.00340021
0.00326976
0.00320341
0.00320577
0.00325035
0.00330902
0.00335935
0.00339027
0.00340344
0.0034088
0.0034212
0.00345429
0.00345852
0.00317071
0.00280169
0.00247666
0.00231156
0.00242358
0.00293181
0.00384575
0.00169008
0.00344312
0.00414974
0.00466738
0.00489307
0.00497322
0.00493279
0.00489938
0.00497764
0.0051943
0.0054896
0.00578196
0.00599017
0.00602039
0.00578502
0.00522257
0.00441979
0.00364059
0.00330704
0.00308024
0.00287437
0.00276493
0.00273526
0.0027479
0.0027759
0.0028021
0.00281544
0.00281004
0.00278378
0.00273591
0.00266572
0.00257335
0.00246612
0.0023704
0.00230798
0.00230606
0.00235642
0.00238881
0.00233087
0.00219592
0.00158735
0.00219139
0.00401953
0.00486715
0.00534716
0.00576427
0.00612517
0.00638149
0.00651552
0.00653681
0.00642987
0.00608108
0.00542086
0.00439424
0.00341624
0.00288593
0.00256517
0.00231551
0.00219159
0.00215139
0.00215159
0.00216792
0.00218766
0.00220395
0.00221336
0.00221518
0.00221088
0.00220382
0.00219916
0.00220377
0.00222707
0.00225806
0.00230099
0.00235187
0.00238386
0.00235009
0.00222922
0.00203141
0.00131401
0.00251017
0.00502129
0.00608625
0.00642005
0.00671594
0.00697213
0.00680633
0.00648251
0.00615338
0.00574054
0.00483178
0.00359828
0.00263072
0.00211278
0.00180997
0.00162695
0.00154384
0.0015203
0.00152821
0.00155276
0.00158751
0.00162968
0.00167825
0.00173311
0.00179451
0.00186243
0.00193588
0.00201184
0.00209274
0.00218465
0.00228749
0.00239791
0.00250287
0.00258361
0.00259211
0.0026587
0.00263375
0.00133372
0.00216195
0.00228598
0.00237932
0.00249584
0.00233448
0.00213673
0.001898
0.00164434
0.00148568
0.0013455
0.00119829
0.00103718
0.000869433
0.000707381
0.00059069
0.000537697
0.000525575
0.00053252
0.000548751
0.000569007
0.000591638
0.000616223
0.000642594
0.000670728
0.000700704
0.000732696
0.000766997
0.000804072
0.000844688
0.000890134
0.000941253
0.000997325
0.00105933
0.00112841
0.00120523
0.00129951
0.00133411
0.00130567
0.00122505
0.0011395
)
;

boundaryField
{
    floor
    {
        type            compressible::alphatWallFunction;
        Prt             0.85;
        value           nonuniform List<scalar> 
29
(
0.00017036
6.2322e-05
7.62141e-05
8.20975e-05
7.92405e-05
7.54812e-05
7.14951e-05
6.73883e-05
6.35228e-05
6.00126e-05
5.68526e-05
5.4009e-05
5.14498e-05
4.91364e-05
4.7011e-05
4.50011e-05
4.29953e-05
4.08106e-05
3.97266e-05
3.62188e-05
3.62182e-05
5.30827e-05
6.41929e-05
7.27126e-05
0.000170358
6.23212e-05
7.53663e-05
0.000138506
0.000178045
)
;
    }
    ceiling
    {
        type            compressible::alphatWallFunction;
        Prt             0.85;
        value           nonuniform List<scalar> 
43
(
0.000298042
0.000314013
0.000325973
0.000340934
0.000320369
0.000294927
0.000263848
0.000230348
0.000209119
0.000190146
0.000169983
0.000147591
0.00012384
0.000100374
8.30763e-05
7.50879e-05
7.32496e-05
7.43082e-05
7.67716e-05
7.98323e-05
8.32358e-05
8.69148e-05
9.0841e-05
9.5008e-05
9.94243e-05
0.000104112
0.000109111
0.000114485
0.000120337
0.000126846
0.000134121
0.000142048
0.000150753
0.000160382
0.000171011
0.000183951
0.000188674
0.000184794
0.000173742
0.000161926
0.000459582
0.000545654
0.000342544
)
;
    }
    sWall
    {
        type            compressible::alphatWallFunction;
        Prt             0.85;
        value           uniform 0.000296829;
    }
    nWall
    {
        type            compressible::alphatWallFunction;
        Prt             0.85;
        value           nonuniform List<scalar> 6(0.000130735 0.000135599 0.000147709 0.0001856 0.000188287 0.000161598);
    }
    sideWalls
    {
        type            empty;
    }
    glass1
    {
        type            compressible::alphatWallFunction;
        Prt             0.85;
        value           nonuniform List<scalar> 9(0.000145817 0.000204237 0.000253077 0.000300872 0.000349641 0.00040074 0.000450335 0.000462011 0.000452928);
    }
    glass2
    {
        type            compressible::alphatWallFunction;
        Prt             0.85;
        value           nonuniform List<scalar> 2(0.00023474 0.000221184);
    }
    sun
    {
        type            compressible::alphatWallFunction;
        Prt             0.85;
        value           nonuniform List<scalar> 
14
(
0.000149673
0.000160585
0.000161811
0.000168349
0.000174145
0.000179326
0.000184124
0.000188805
0.000193045
0.000195629
0.000195836
0.000193049
0.000187149
0.000179022
)
;
    }
    heatsource1
    {
        type            compressible::alphatWallFunction;
        Prt             0.85;
        value           nonuniform List<scalar> 3(9.74074e-05 0.000117715 0.000131055);
    }
    heatsource2
    {
        type            compressible::alphatWallFunction;
        Prt             0.85;
        value           nonuniform List<scalar> 4(0.00016946 0.00011622 0.000116219 0.000164327);
    }
    Table_master
    {
        type            compressible::alphatWallFunction;
        Prt             0.85;
        value           nonuniform List<scalar> 9(9.23742e-05 8.40256e-05 7.6952e-05 7.09594e-05 6.58594e-05 6.14911e-05 5.77284e-05 5.44878e-05 5.17173e-05);
    }
    Table_slave
    {
        type            compressible::alphatWallFunction;
        Prt             0.85;
        value           nonuniform List<scalar> 9(0.000103159 9.79709e-05 9.46915e-05 9.22989e-05 8.99186e-05 8.71081e-05 8.41676e-05 8.0739e-05 7.6295e-05);
    }
    inlet
    {
        type            fixedValue;
        value           uniform 1.94e-05;
    }
    outlet
    {
        type            zeroGradient;
    }
}


// ************************************************************************* //
