// -*- C++ -*-
// File generated by PyFoam - sorry for the ugliness

FoamFile
{
 version 2.0;
 format ascii;
 class volVectorField;
 location "900";
 object U;
}

dimensions [ 0 1 -1 0 0 0 0 ];

internalField nonuniform List<vector> 459
(
  (0.0470236 0.0823801 0)
  (-0.160145 0.0213648 0)
  (-0.178635 0.0171701 0)
  (-0.208793 0.0131661 0)
  (-0.232972 0.00853572 0)
  (-0.250527 0.00359366 0)
  (-0.260391 -0.00177461 0)
  (-0.261058 -0.0077118 0)
  (-0.251279 -0.0143258 0)
  (-0.231057 -0.0211888 0)
  (-0.201314 -0.0274593 0)
  (-0.163957 -0.0326756 0)
  (-0.121522 -0.0374018 0)
  (-0.0804762 -0.0436835 0)
  (-0.0607856 -0.0526073 0)
  (0.00980623 0.00635791 0)
  (-0.0154902 -0.0199363 0)
  (0.0115078 -0.0258339 0)
  (0.0292937 -0.0178865 0)
  (0.0438002 -0.0114376 0)
  (0.0531749 -0.00711551 0)
  (0.0578708 -0.0044387 0)
  (0.0597713 -0.0031135 0)
  (0.060506 -0.0025198 0)
  (0.0608815 -0.00221981 0)
  (0.0610865 -0.00203253 0)
  (0.0610991 -0.00187502 0)
  (0.0608401 -0.00165304 0)
  (0.0600853 -0.00119931 0)
  (0.0582619 -0.000142584 0)
  (0.0542196 0.00201882 0)
  (0.0467162 0.00422209 0)
  (0.0408254 0.00530206 0)
  (-0.0175199 0.0197663 0)
  (0.231316 0.17042 0)
  (-0.15646 0.0577462 0)
  (-0.145816 0.0499515 0)
  (-0.177816 0.0417379 0)
  (-0.201682 0.0323613 0)
  (-0.219147 0.0219279 0)
  (-0.229347 0.009924 0)
  (-0.230699 -0.00408271 0)
  (-0.221824 -0.0197473 0)
  (-0.203255 -0.0350829 0)
  (-0.176417 -0.0476574 0)
  (-0.144005 -0.0558895 0)
  (-0.109475 -0.0597461 0)
  (-0.0781472 -0.0605464 0)
  (-0.0571642 -0.0567327 0)
  (-0.0389182 -0.0327969 0)
  (-0.0115688 -0.00436221 0)
  (0.0848665 0.0205387 0)
  (0.0413765 -0.0186898 0)
  (0.0433343 -0.0270317 0)
  (0.0533311 -0.0213639 0)
  (0.0609039 -0.013367 0)
  (0.0651136 -0.0065546 0)
  (0.0663517 -0.0019233 0)
  (0.066157 0.000453423 0)
  (0.065898 0.00150935 0)
  (0.065887 0.00204091 0)
  (0.0659688 0.00239337 0)
  (0.0660176 0.00271301 0)
  (0.0659945 0.00315833 0)
  (0.0658421 0.00407041 0)
  (0.0650161 0.00632859 0)
  (0.0610989 0.0125754 0)
  (0.0511941 0.0175105 0)
  (0.0474181 0.0195624 0)
  (-0.0545593 0.0436852 0)
  (0.399476 0.256188 0)
  (-0.182586 0.09458 0)
  (-0.109796 0.0818587 0)
  (-0.142584 0.0659704 0)
  (-0.163493 0.0501057 0)
  (-0.179437 0.0329373 0)
  (-0.189394 0.0132532 0)
  (-0.191049 -0.00963933 0)
  (-0.182149 -0.0349031 0)
  (-0.164081 -0.0590239 0)
  (-0.139024 -0.0778304 0)
  (-0.110171 -0.0890125 0)
  (-0.0807873 -0.0922579 0)
  (-0.0543655 -0.0881374 0)
  (-0.0334194 -0.0755071 0)
  (-0.0156859 -0.0494008 0)
  (0.00592047 -0.0173401 0)
  (0.106646 -0.0550525 0)
  (0.0658281 -0.0480843 0)
  (0.0620918 -0.0384142 0)
  (0.0662127 -0.02825 0)
  (0.0690921 -0.0185022 0)
  (0.0702263 -0.0101548 0)
  (0.0686912 -0.0085474 0)
  (0.0661442 -0.00670166 0)
  (0.0646062 -0.00575039 0)
  (0.0640401 -0.00522718 0)
  (0.0638914 -0.00490414 0)
  (0.0639275 -0.00465316 0)
  (0.0642399 -0.00431353 0)
  (0.0653062 -0.00356375 0)
  (0.068359 -0.000553462 0)
  (0.0664017 0.0168931 0)
  (0.0526514 0.0290624 0)
  (0.0555121 0.0360522 0)
  (-0.0858907 0.068979 0)
  (0.548628 0.325769 0)
  (-0.225737 0.128818 0)
  (-0.0702578 0.108985 0)
  (-0.104507 0.0864823 0)
  (-0.119363 0.0664636 0)
  (-0.131523 0.044758 0)
  (-0.13997 0.0189169 0)
  (-0.140894 -0.0125781 0)
  (-0.130558 -0.047906 0)
  (-0.112668 -0.080383 0)
  (-0.0902003 -0.10414 0)
  (-0.0663096 -0.116948 0)
  (-0.0433773 -0.118965 0)
  (-0.0232476 -0.111174 0)
  (-0.00633581 -0.0943255 0)
  (0.0106754 -0.0676196 0)
  (0.0330284 -0.0400722 0)
  (0.0657371 -0.00347439 0)
  (0.0778514 -0.0385285 0)
  (0.0666198 -0.0409312 0)
  (0.061693 -0.0334046 0)
  (0.0617478 -0.0258001 0)
  (0.0629874 -0.0181191 0)
  (0.0656883 -0.00928976 0)
  (0.0707552 -0.00647776 0)
  (0.0769385 -0.00582208 0)
  (0.0823098 -0.00531372 0)
  (0.0865713 -0.00467175 0)
  (0.0894897 -0.00366372 0)
  (0.0903237 -0.0021528 0)
  (0.087864 2.43432e-05 0)
  (0.081095 0.00309835 0)
  (0.0675822 0.00762514 0)
  (0.0551209 0.027929 0)
  (0.0425485 0.0449088 0)
  (0.0596841 0.0575147 0)
  (-0.121175 0.0921036 0)
  (0.674945 0.380643 0)
  (-0.273607 0.158639 0)
  (-0.0298344 0.124606 0)
  (-0.0644806 0.0986291 0)
  (-0.0710874 0.0765859 0)
  (-0.0769346 0.0524163 0)
  (-0.0819599 0.0225123 0)
  (-0.0793119 -0.0163117 0)
  (-0.0651397 -0.0614302 0)
  (-0.0483667 -0.0999153 0)
  (-0.0306818 -0.125688 0)
  (-0.0142427 -0.137786 0)
  (-0.000105286 -0.137327 0)
  (0.0111377 -0.126156 0)
  (0.019956 -0.107292 0)
  (0.0286998 -0.0831768 0)
  (0.0397566 -0.0591821 0)
  (0.0525845 -0.0441482 0)
  (0.0579394 -0.046208 0)
  (0.0544652 -0.041217 0)
  (0.0493532 -0.0330737 0)
  (0.0468471 -0.0258381 0)
  (0.0465379 -0.0195616 0)
  (0.0484148 -0.013812 0)
  (0.0523839 -0.00982967 0)
  (0.0575906 -0.00786292 0)
  (0.0625595 -0.00667375 0)
  (0.0670035 -0.00517641 0)
  (0.0706403 -0.00262713 0)
  (0.073009 0.00141251 0)
  (0.0727288 0.00675386 0)
  (0.0694693 0.0133943 0)
  (0.0628771 0.022044 0)
  (0.0549094 0.0378389 0)
  (0.043342 0.0568719 0)
  (0.0669931 0.0777284 0)
  (-0.0269423 0.106819 0)
  (0.041609 0.0247938 0)
  (-0.0691486 -0.0392055 0)
  (-0.27465 -0.0614959 0)
  (0.763378 0.427671 0)
  (-0.316754 0.180755 0)
  (0.000850516 0.121157 0)
  (-0.0231337 0.10178 0)
  (-0.0207674 0.0809408 0)
  (-0.0191176 0.055957 0)
  (-0.0195361 0.024463 0)
  (-0.00519658 -0.0220486 0)
  (0.0140001 -0.0773928 0)
  (0.0266517 -0.116293 0)
  (0.0363469 -0.139569 0)
  (0.0425732 -0.148278 0)
  (0.045335 -0.144622 0)
  (0.0454411 -0.131337 0)
  (0.0439855 -0.111326 0)
  (0.0424654 -0.0877608 0)
  (0.042071 -0.0647403 0)
  (0.0425757 -0.0475738 0)
  (0.0405461 -0.0396069 0)
  (0.0349298 -0.0341783 0)
  (0.0289905 -0.0284671 0)
  (0.0255623 -0.0235082 0)
  (0.0247154 -0.019494 0)
  (0.0261801 -0.0160656 0)
  (0.0295138 -0.0136703 0)
  (0.033885 -0.012605 0)
  (0.038499 -0.0117851 0)
  (0.0431072 -0.0102008 0)
  (0.0475414 -0.00702214 0)
  (0.0514843 -0.00149537 0)
  (0.0544238 0.00624727 0)
  (0.0551287 0.0154635 0)
  (0.0543129 0.026424 0)
  (0.0537363 0.04123 0)
  (0.0509699 0.0598751 0)
  (0.0751467 0.0839673 0)
  (0.0499447 0.102726 0)
  (0.0922053 0.0693789 0)
  (0.117444 0.0444373 0)
  (-0.138343 -0.0134134 0)
  (0.80228 0.470372 0)
  (-0.337246 0.168195 0)
  (0.0224285 0.0718458 0)
  (0.0312682 0.0864196 0)
  (0.039124 0.0797269 0)
  (0.0465363 0.0533692 0)
  (0.0556066 0.0133101 0)
  (0.0842055 -0.0426246 0)
  (0.100895 -0.0908581 0)
  (0.107032 -0.124409 0)
  (0.106017 -0.142564 0)
  (0.0995589 -0.146878 0)
  (0.0890442 -0.139865 0)
  (0.0761449 -0.124523 0)
  (0.062359 -0.103735 0)
  (0.049188 -0.0807274 0)
  (0.0373942 -0.0586653 0)
  (0.0276174 -0.0416293 0)
  (0.0187694 -0.03196 0)
  (0.0108386 -0.0271196 0)
  (0.00474336 -0.0237593 0)
  (0.00128604 -0.0213069 0)
  (0.000108781 -0.0195657 0)
  (0.000787659 -0.0181849 0)
  (0.00288486 -0.0172807 0)
  (0.00580839 -0.0168771 0)
  (0.00913324 -0.0163533 0)
  (0.0127933 -0.0150011 0)
  (0.0169038 -0.0120204 0)
  (0.0215868 -0.00639249 0)
  (0.0284101 0.00272989 0)
  (0.0336181 0.0131696 0)
  (0.0383377 0.0243808 0)
  (0.0448127 0.0375494 0)
  (0.0515748 0.0528598 0)
  (0.0750521 0.0726746 0)
  (0.086532 0.0810637 0)
  (0.119649 0.0553257 0)
  (0.160581 0.0434576 0)
  (-0.0382363 0.0929056 0)
  (0.90299 0.478878 0)
  (-0.0946961 0.149432 0)
  (0.0972015 -0.00376643 0)
  (0.15379 0.00514011 0)
  (0.152786 0.0179449 0)
  (0.152652 -0.00173409 0)
  (0.174376 -0.0399156 0)
  (0.195139 -0.074931 0)
  (0.199645 -0.103712 0)
  (0.190446 -0.12317 0)
  (0.172269 -0.132019 0)
  (0.148554 -0.130612 0)
  (0.121844 -0.12052 0)
  (0.0944077 -0.104233 0)
  (0.0677575 -0.0839301 0)
  (0.0434231 -0.0624914 0)
  (0.0215942 -0.0423825 0)
  (0.00453594 -0.0279202 0)
  (-0.00791509 -0.0213865 0)
  (-0.0154612 -0.0198865 0)
  (-0.020759 -0.0193818 0)
  (-0.0241937 -0.0191608 0)
  (-0.0262478 -0.0190596 0)
  (-0.0272368 -0.0190031 0)
  (-0.0274261 -0.0190432 0)
  (-0.0271239 -0.0191477 0)
  (-0.0265367 -0.0190606 0)
  (-0.0256542 -0.0184079 0)
  (-0.0242599 -0.016731 0)
  (-0.0218981 -0.0134638 0)
  (-0.017297 -0.00786163 0)
  (-0.00602707 0.000746479 0)
  (0.00229115 0.010253 0)
  (0.0132206 0.0185063 0)
  (0.0250951 0.0258351 0)
  (0.046754 0.0341831 0)
  (0.0665766 0.0273045 0)
  (0.0873058 -0.00424931 0)
  (0.148128 0.0375241 0)
  (-0.419866 0.207138 0)
  (1.03953 0.436798 0)
  (0.499564 0.290512 0)
  (0.509441 0.206526 0)
  (0.508547 0.153844 0)
  (0.459114 0.116643 0)
  (0.4136 0.0736622 0)
  (0.383088 0.0268602 0)
  (0.346986 -0.0193817 0)
  (0.304372 -0.0570207 0)
  (0.258773 -0.0817029 0)
  (0.212746 -0.0932238 0)
  (0.167864 -0.0934463 0)
  (0.125027 -0.0849809 0)
  (0.0853609 -0.0710244 0)
  (0.0490633 -0.0534286 0)
  (0.0178003 -0.0351375 0)
  (-0.0104602 -0.0184176 0)
  (-0.0257634 -0.0128142 0)
  (-0.0348228 -0.0126333 0)
  (-0.041205 -0.0138677 0)
  (-0.0463529 -0.0149845 0)
  (-0.0506436 -0.0158482 0)
  (-0.0543604 -0.0165244 0)
  (-0.0577009 -0.0170634 0)
  (-0.0608584 -0.0174935 0)
  (-0.0640653 -0.0177491 0)
  (-0.0675572 -0.0176161 0)
  (-0.0715649 -0.0167353 0)
  (-0.0763783 -0.0145965 0)
  (-0.0824249 -0.0105439 0)
  (-0.0901977 -0.00387927 0)
  (-0.0995188 0.00573066 0)
  (-0.108518 0.0174289 0)
  (-0.123548 0.0315908 0)
  (-0.147772 0.0485722 0)
  (-0.183496 0.0671477 0)
  (-0.234758 0.0828667 0)
  (-0.293938 0.0931979 0)
  (-0.363768 0.098416 0)
  (-0.627655 0.0989799 0)
  (-0.219662 0.0468223 0)
  (0.154258 0.0929345 0)
  (0.25153 0.0775201 0)
  (0.248787 0.0468441 0)
  (0.238048 0.0124981 0)
  (0.226705 -0.0170803 0)
  (0.205237 -0.0374579 0)
  (0.175729 -0.0493301 0)
  (0.140997 -0.0538841 0)
  (0.103493 -0.0518282 0)
  (0.065169 -0.0439891 0)
  (0.0290043 -0.0322232 0)
  (-0.00720779 -0.0154266 0)
  (-0.0331815 -0.00318621 0)
  (-0.0471657 -0.00010283 0)
  (-0.0545225 -0.00209938 0)
  (-0.0600979 -0.00486591 0)
  (-0.065285 -0.00716254 0)
  (-0.0704329 -0.0087752 0)
  (-0.0756082 -0.00986053 0)
  (-0.0808637 -0.0105491 0)
  (-0.086254 -0.0109033 0)
  (-0.0918471 -0.0109195 0)
  (-0.0977108 -0.0105027 0)
  (-0.103871 -0.00945175 0)
  (-0.110272 -0.00747562 0)
  (-0.116751 -0.00422954 0)
  (-0.123018 0.000637263 0)
  (-0.128473 0.00743794 0)
  (-0.132106 0.0167871 0)
  (-0.134813 0.0297243 0)
  (-0.137097 0.0465449 0)
  (-0.139827 0.0665011 0)
  (-0.143557 0.0859031 0)
  (-0.145245 0.0942255 0)
  (-0.127733 0.0698562 0)
  (-0.0831369 -0.026979 0)
  (-0.283035 -0.206982 0)
  (-0.0718253 0.223482 0)
  (0.0683251 0.125994 0)
  (0.0563916 0.0634556 0)
  (0.0664477 0.0429498 0)
  (0.077024 0.0244884 0)
  (0.0780257 0.00602534 0)
  (0.0717964 -0.0101234 0)
  (0.0549461 -0.0200173 0)
  (0.0314268 -0.022773 0)
  (0.00248358 -0.0180795 0)
  (-0.0298065 -0.00861442 0)
  (-0.0537553 -0.00292407 0)
  (-0.0678026 -0.00155894 0)
  (-0.0727761 -0.00363674 0)
  (-0.0744153 -0.00692123 0)
  (-0.0760768 -0.0100317 0)
  (-0.0787333 -0.0120274 0)
  (-0.0823425 -0.0133249 0)
  (-0.0866431 -0.0141967 0)
  (-0.0914274 -0.0147493 0)
  (-0.0965373 -0.0150502 0)
  (-0.101851 -0.0151334 0)
  (-0.107262 -0.0149931 0)
  (-0.112646 -0.0145657 0)
  (-0.117818 -0.0137086 0)
  (-0.122499 -0.012184 0)
  (-0.126289 -0.00963932 0)
  (-0.128641 -0.00556552 0)
  (-0.12885 0.000596406 0)
  (-0.126053 0.00924147 0)
  (-0.11882 0.0211935 0)
  (-0.105955 0.0371775 0)
  (-0.0873308 0.0568591 0)
  (-0.064116 0.0761939 0)
  (-0.0392772 0.0874545 0)
  (0.00147518 0.0707736 0)
  (0.145796 -0.00246871 0)
  (-0.209572 -0.117733 0)
  (-0.0802091 -0.335485 0)
  (-0.422244 -0.113702 0)
  (-0.30885 0.0961908 0)
  (-0.205911 -0.00789621 0)
  (-0.148203 -0.0365242 0)
  (-0.105781 -0.0393579 0)
  (-0.082581 -0.0447524 0)
  (-0.0754451 -0.0449806 0)
  (-0.0762087 -0.033724 0)
  (-0.0865268 -0.0197107 0)
  (-0.0971962 -0.0062847 0)
  (-0.103204 0.00502469 0)
  (-0.102921 0.013534 0)
  (-0.0990211 0.0198086 0)
  (-0.0938498 0.0245523 0)
  (-0.0889024 0.0274796 0)
  (-0.0855782 0.0290201 0)
  (-0.0842326 0.0294628 0)
  (-0.0845883 0.0289139 0)
  (-0.0862816 0.0280566 0)
  (-0.0889443 0.0271904 0)
  (-0.0922849 0.0263561 0)
  (-0.0960821 0.0255609 0)
  (-0.100162 0.0248071 0)
  (-0.104371 0.0241034 0)
  (-0.108543 0.0234698 0)
  (-0.112456 0.0229402 0)
  (-0.115794 0.0225601 0)
  (-0.118097 0.0223851 0)
  (-0.118669 0.0224979 0)
  (-0.116318 0.0233091 0)
  (-0.109084 0.0256798 0)
  (-0.094506 0.0303085 0)
  (-0.0706942 0.0380454 0)
  (-0.0381954 0.0494409 0)
  (0.0121497 0.064474 0)
  (0.0599796 0.0661609 0)
  (0.104591 0.0496455 0)
  (0.166614 0.0181913 0)
  (-0.215479 -0.039599 0)
)
;

boundaryField
{
  floor
  {
    type noSlip;
  }
  ceiling
  {
    type noSlip;
  }
  sWall
  {
    type noSlip;
  }
  nWall
  {
    type noSlip;
  }
  sideWalls
  {
    type empty;
  }
  glass1
  {
    type noSlip;
  }
  glass2
  {
    type noSlip;
  }
  sun
  {
    type noSlip;
  }
  heatsource1
  {
    type noSlip;
  }
  heatsource2
  {
    type noSlip;
  }
  Table_master
  {
    type noSlip;
  }
  Table_slave
  {
    type noSlip;
  }
  inlet
  {
    type fixedValue;
    value uniform (0.277164 -0.114805 0);
  }
  outlet
  {
    type zeroGradient;
  }
} 	// ************************************************************************* //

