// -*- C++ -*-
// File generated by PyFoam - sorry for the ugliness

FoamFile
{
 version 2.0;
 format ascii;
 class volVectorField;
 location "600";
 object U;
}

dimensions [ 0 1 -1 0 0 0 0 ];

internalField nonuniform List<vector> 459
(
  (0.0568212 0.0576753 0)
  (-0.117586 0.00500908 0)
  (-0.103148 -0.00190954 0)
  (-0.101843 -0.00182371 0)
  (-0.0998634 -0.00224919 0)
  (-0.0977046 -0.00245222 0)
  (-0.0956797 -0.00266618 0)
  (-0.0936393 -0.00314619 0)
  (-0.0911716 -0.00403215 0)
  (-0.0877111 -0.00544042 0)
  (-0.082461 -0.00751043 0)
  (-0.0741248 -0.0104597 0)
  (-0.0608504 -0.0147318 0)
  (-0.0416493 -0.0211814 0)
  (-0.020982 -0.0303909 0)
  (-0.0743332 -0.00559163 0)
  (0.0261767 -0.00154497 0)
  (0.0135432 -0.000416832 0)
  (0.00424904 -0.000707064 0)
  (0.00472439 -0.000824203 0)
  (0.00700345 -0.000944358 0)
  (0.00887206 -0.00142074 0)
  (0.0107608 -0.00145227 0)
  (0.0124486 -0.00147464 0)
  (0.0137757 -0.00155215 0)
  (0.0147794 -0.00157491 0)
  (0.0155195 -0.00149001 0)
  (0.0153193 -0.000933613 0)
  (0.0140584 0.000460923 0)
  (0.0121163 0.00198823 0)
  (0.0104985 0.00260978 0)
  (0.00634003 0.00464027 0)
  (-0.0243417 0.0077701 0)
  (0.075905 -0.00498864 0)
  (0.201798 0.121298 0)
  (-0.115025 0.0216675 0)
  (-0.077281 -0.00029121 0)
  (-0.0773893 -0.00178692 0)
  (-0.0780037 -0.00244241 0)
  (-0.0786906 -0.00239929 0)
  (-0.0797055 -0.00219111 0)
  (-0.0806987 -0.00240263 0)
  (-0.0811892 -0.00336459 0)
  (-0.0807705 -0.00529186 0)
  (-0.0790444 -0.0083704 0)
  (-0.0754026 -0.0128939 0)
  (-0.0691385 -0.0193756 0)
  (-0.060278 -0.0286133 0)
  (-0.0508748 -0.0404139 0)
  (-0.0442138 -0.047026 0)
  (0.0267944 0.0157956 0)
  (-0.102157 -0.00125571 0)
  (0.0115349 0.00172851 0)
  (-0.0105644 0.00281452 0)
  (-0.0146685 0.00133558 0)
  (-0.0152034 -4.02457e-05 0)
  (-0.0151081 -0.00103561 0)
  (-0.014615 -0.00190728 0)
  (-0.0140437 -0.000975824 0)
  (-0.0139875 4.42163e-05 0)
  (-0.014547 0.00109668 0)
  (-0.0157212 0.0022353 0)
  (-0.0172287 0.00345469 0)
  (-0.0185425 0.00480217 0)
  (-0.0197166 0.00591992 0)
  (-0.0195017 0.00519635 0)
  (-0.0162244 0.0018704 0)
  (-0.0123738 0.00491178 0)
  (-0.034687 0.00772698 0)
  (0.115907 -0.00459078 0)
  (0.32407 0.177405 0)
  (-0.126615 0.0370184 0)
  (-0.0470474 0.00127421 0)
  (-0.0409036 -0.00173844 0)
  (-0.0428143 -0.000824619 0)
  (-0.0461881 0.000269405 0)
  (-0.0511813 0.000646982 0)
  (-0.0567817 -0.000175028 0)
  (-0.0616771 -0.00221703 0)
  (-0.0650316 -0.00533021 0)
  (-0.0670056 -0.00961448 0)
  (-0.0677579 -0.0154932 0)
  (-0.0673676 -0.0233311 0)
  (-0.0660772 -0.0332666 0)
  (-0.0645843 -0.0442392 0)
  (-0.0656141 -0.0528304 0)
  (-0.0765351 -0.0566378 0)
  (-0.111225 0.0272127 0)
  (-0.0240265 0.00823281 0)
  (-0.0371905 0.00442301 0)
  (-0.0386329 0.00161338 0)
  (-0.0384986 -0.00082939 0)
  (-0.0379936 -0.00328128 0)
  (-0.0369618 -0.00570462 0)
  (-0.0402673 -0.00588143 0)
  (-0.041855 -0.00537272 0)
  (-0.0425787 -0.00497973 0)
  (-0.0424348 -0.00469233 0)
  (-0.04165 -0.00461194 0)
  (-0.0405191 -0.0049055 0)
  (-0.0389963 -0.00610947 0)
  (-0.0351184 -0.00962583 0)
  (-0.0260542 -0.0132554 0)
  (-0.0161833 -0.00974518 0)
  (-0.0320816 -0.00442288 0)
  (0.133081 -0.00391179 0)
  (0.426821 0.217133 0)
  (-0.141544 0.0475406 0)
  (-0.0169808 -0.00330956 0)
  (0.00219958 -0.00655231 0)
  (0.00306553 0.000592555 0)
  (-0.00106395 0.00664977 0)
  (-0.00956306 0.00940209 0)
  (-0.020469 0.00854444 0)
  (-0.031154 0.00500143 0)
  (-0.0403756 -8.49742e-05 0)
  (-0.0473193 -0.00587802 0)
  (-0.0523962 -0.0125895 0)
  (-0.0569056 -0.0205655 0)
  (-0.0618579 -0.0296346 0)
  (-0.068783 -0.0388449 0)
  (-0.0814466 -0.0462109 0)
  (-0.101328 -0.0477153 0)
  (-0.105983 -0.0338247 0)
  (-0.0885327 0.0168192 0)
  (-0.0627659 0.00566516 0)
  (-0.0636485 0.00387032 0)
  (-0.063472 0.00172897 0)
  (-0.064567 -0.000733479 0)
  (-0.0660792 -0.0032527 0)
  (-0.0664649 -0.00374749 0)
  (-0.0649547 -0.00350179 0)
  (-0.0631798 -0.00397371 0)
  (-0.0610284 -0.00453026 0)
  (-0.0584397 -0.0052624 0)
  (-0.0552127 -0.00627418 0)
  (-0.0506939 -0.007736 0)
  (-0.0437096 -0.0100576 0)
  (-0.0342561 -0.0140145 0)
  (-0.0282159 -0.0201361 0)
  (-0.0260854 -0.0230299 0)
  (-0.0392141 -0.0223825 0)
  (0.151323 0.00098791 0)
  (0.508241 0.246516 0)
  (-0.159344 0.0482275 0)
  (0.0110416 -0.0235593 0)
  (0.0414388 -0.0181151 0)
  (0.0467871 -0.000718727 0)
  (0.0437318 0.012555 0)
  (0.0351332 0.0201044 0)
  (0.0224265 0.0218299 0)
  (0.00799423 0.0184654 0)
  (-0.00669992 0.0110567 0)
  (-0.0184474 0.002766 0)
  (-0.028509 -0.00582284 0)
  (-0.0360043 -0.0139089 0)
  (-0.0431746 -0.0217054 0)
  (-0.0513314 -0.0286896 0)
  (-0.0620147 -0.0328469 0)
  (-0.0738592 -0.0298585 0)
  (-0.0770921 -0.0156764 0)
  (-0.0711877 -0.0026956 0)
  (-0.0634498 -0.000231891 0)
  (-0.0600294 0.00161883 0)
  (-0.0572442 0.00134728 0)
  (-0.0555562 0.000198838 0)
  (-0.0548114 -0.000925218 0)
  (-0.0540645 -0.00122373 0)
  (-0.0528773 -0.00169563 0)
  (-0.0515522 -0.00217407 0)
  (-0.0501376 -0.0026997 0)
  (-0.0486093 -0.00339066 0)
  (-0.0469241 -0.00438855 0)
  (-0.0449173 -0.00590991 0)
  (-0.0423613 -0.00845298 0)
  (-0.0397577 -0.012931 0)
  (-0.0393601 -0.0194944 0)
  (-0.0439389 -0.0235 0)
  (-0.0526272 -0.02181 0)
  (-0.0500928 -0.00679241 0)
  (-0.0567922 -0.00676868 0)
  (-0.0424197 -0.0163598 0)
  (0.0399087 -0.0351031 0)
  (0.521804 0.268082 0)
  (-0.182249 0.0199953 0)
  (0.0358908 -0.0793784 0)
  (0.0784841 -0.0423975 0)
  (0.0839128 -0.0054278 0)
  (0.0796529 0.0175595 0)
  (0.070737 0.0305093 0)
  (0.0583076 0.0353695 0)
  (0.0439589 0.0331898 0)
  (0.0293281 0.0258325 0)
  (0.0157833 0.0161749 0)
  (0.00344948 0.00570859 0)
  (-0.00885425 -0.00511313 0)
  (-0.0182156 -0.0135962 0)
  (-0.0275194 -0.0204639 0)
  (-0.0374151 -0.0245353 0)
  (-0.046499 -0.0228857 0)
  (-0.0508125 -0.0144016 0)
  (-0.0496807 -0.00697202 0)
  (-0.046526 -0.00376342 0)
  (-0.0439017 -0.00183784 0)
  (-0.0415699 -0.00139166 0)
  (-0.0398746 -0.00185252 0)
  (-0.038772 -0.00255311 0)
  (-0.0378894 -0.00298183 0)
  (-0.0369643 -0.00343168 0)
  (-0.0360025 -0.00394961 0)
  (-0.0350202 -0.00454667 0)
  (-0.0340214 -0.00529215 0)
  (-0.0330268 -0.0062821 0)
  (-0.0320622 -0.00765448 0)
  (-0.0312381 -0.00968341 0)
  (-0.031059 -0.0127444 0)
  (-0.0325515 -0.0165242 0)
  (-0.0361691 -0.0188085 0)
  (-0.039703 -0.017436 0)
  (-0.0392818 -0.0105443 0)
  (-0.0395341 -0.0102261 0)
  (-0.0426347 -0.0167809 0)
  (0.0672893 -0.0468105 0)
  (0.600794 0.306961 0)
  (-0.134375 -0.0795005 0)
  (0.0612621 -0.152906 0)
  (0.123996 -0.070425 0)
  (0.116566 -0.0108321 0)
  (0.101648 0.0222149 0)
  (0.090345 0.0403766 0)
  (0.0791714 0.0479015 0)
  (0.0671191 0.0465655 0)
  (0.0552402 0.0390742 0)
  (0.044089 0.0286962 0)
  (0.0336207 0.0177564 0)
  (0.0234234 0.00719363 0)
  (0.0122897 -0.0027115 0)
  (0.00190997 -0.0106586 0)
  (-0.00799594 -0.0155727 0)
  (-0.0162793 -0.0160103 0)
  (-0.0213689 -0.0123474 0)
  (-0.0228307 -0.00823035 0)
  (-0.0222883 -0.00562317 0)
  (-0.0211862 -0.00394578 0)
  (-0.0199094 -0.00325255 0)
  (-0.0188338 -0.00326597 0)
  (-0.0180634 -0.00360711 0)
  (-0.0174788 -0.00398927 0)
  (-0.0169455 -0.00443556 0)
  (-0.0164278 -0.00495909 0)
  (-0.0159202 -0.0055664 0)
  (-0.0154317 -0.00630334 0)
  (-0.0149919 -0.00724117 0)
  (-0.0146577 -0.00847506 0)
  (-0.0145645 -0.0101442 0)
  (-0.0150323 -0.0123471 0)
  (-0.0164856 -0.0147367 0)
  (-0.0187626 -0.0161709 0)
  (-0.0201489 -0.0156327 0)
  (-0.0188531 -0.0141084 0)
  (-0.0198052 -0.0170523 0)
  (-0.0430537 -0.0272905 0)
  (0.103576 -0.0566886 0)
  (0.692328 0.269588 0)
  (0.17022 -0.0309828 0)
  (0.0846334 -0.139489 0)
  (0.17568 -0.0593127 0)
  (0.134807 0.00196042 0)
  (0.0971695 0.0347889 0)
  (0.08477 0.0528221 0)
  (0.0784386 0.0593306 0)
  (0.0721742 0.0568548 0)
  (0.0662528 0.0486505 0)
  (0.0606258 0.0378561 0)
  (0.0548438 0.0267086 0)
  (0.0485715 0.0164027 0)
  (0.041499 0.00738093 0)
  (0.0330554 -0.000373017 0)
  (0.0242506 -0.00607626 0)
  (0.0165064 -0.00872965 0)
  (0.0108303 -0.00846304 0)
  (0.00772563 -0.00692879 0)
  (0.00645446 -0.0055052 0)
  (0.00611861 -0.00442674 0)
  (0.00623887 -0.00383854 0)
  (0.00644415 -0.003677 0)
  (0.00655482 -0.00378877 0)
  (0.00656091 -0.00404147 0)
  (0.00651182 -0.00440565 0)
  (0.00643577 -0.0048649 0)
  (0.0063307 -0.00539936 0)
  (0.00617909 -0.0060354 0)
  (0.00595695 -0.00682368 0)
  (0.00562359 -0.00782507 0)
  (0.00509437 -0.00910582 0)
  (0.00420871 -0.0106804 0)
  (0.00279873 -0.0123304 0)
  (0.00103357 -0.0134533 0)
  (-3.46572e-05 -0.0135067 0)
  (0.00064645 -0.0135528 0)
  (-0.000733967 -0.0177732 0)
  (-0.0342562 -0.0306895 0)
  (0.16161 -0.051067 0)
  (0.82739 0.226227 0)
  (0.215455 -0.0109361 0)
  (-0.213258 -0.0864003 0)
  (0.131605 0.0162378 0)
  (0.0556787 0.0364468 0)
  (0.0326351 0.049004 0)
  (0.0455829 0.0601139 0)
  (0.055154 0.0632789 0)
  (0.0602284 0.0596235 0)
  (0.0635224 0.0516278 0)
  (0.0655048 0.0416843 0)
  (0.0659837 0.0316021 0)
  (0.0649496 0.0224495 0)
  (0.0625226 0.0146791 0)
  (0.0587835 0.00833549 0)
  (0.0537616 0.00339282 0)
  (0.0480641 8.38786e-05 0)
  (0.043193 -0.00138511 0)
  (0.0396434 -0.00164377 0)
  (0.0372992 -0.00139606 0)
  (0.0357769 -0.00100515 0)
  (0.0347442 -0.000685709 0)
  (0.03393 -0.000519502 0)
  (0.0331657 -0.000506241 0)
  (0.0323855 -0.000621308 0)
  (0.0315825 -0.000856211 0)
  (0.0307678 -0.00119958 0)
  (0.0299146 -0.00161558 0)
  (0.0289874 -0.00212572 0)
  (0.0279678 -0.00277061 0)
  (0.0268364 -0.00359485 0)
  (0.0255561 -0.00463681 0)
  (0.0240632 -0.00588998 0)
  (0.0222958 -0.00721759 0)
  (0.0203163 -0.00829149 0)
  (0.0185013 -0.00879252 0)
  (0.0167966 -0.00920976 0)
  (0.0112917 -0.0120948 0)
  (-0.0206859 -0.0221115 0)
  (0.138405 -0.0415265 0)
  (-1.14017 -0.0354871 0)
  (0.0141761 -0.00893522 0)
  (-0.0446164 -0.0269797 0)
  (-0.0313948 0.00356958 0)
  (0.00821146 0.0366594 0)
  (0.0296888 0.0476247 0)
  (0.0441545 0.0483932 0)
  (0.055607 0.0442537 0)
  (0.0644912 0.0380896 0)
  (0.0707663 0.0316709 0)
  (0.074658 0.0259234 0)
  (0.0765396 0.0211633 0)
  (0.0767684 0.0173552 0)
  (0.0756335 0.0143628 0)
  (0.0734766 0.0120786 0)
  (0.0706799 0.0103784 0)
  (0.0679122 0.00919463 0)
  (0.0654514 0.00825867 0)
  (0.0633083 0.00750648 0)
  (0.0614185 0.00689723 0)
  (0.0597048 0.00634328 0)
  (0.0580919 0.0057752 0)
  (0.0565228 0.00514154 0)
  (0.0549599 0.00439219 0)
  (0.053388 0.00349083 0)
  (0.051761 0.0024946 0)
  (0.0500388 0.0013418 0)
  (0.0482102 -2.88786e-05 0)
  (0.0462564 -0.0016733 0)
  (0.0441442 -0.00363575 0)
  (0.0418317 -0.00591147 0)
  (0.0392903 -0.00837226 0)
  (0.036566 -0.0106774 0)
  (0.0338754 -0.012248 0)
  (0.031098 -0.0125145 0)
  (0.0249795 -0.0120873 0)
  (-0.000274168 -0.0182003 0)
  (0.0636331 -0.0665923 0)
  (-0.521716 0.0521007 0)
  (0.195737 -0.0404696 0)
  (0.0273589 -0.0729583 0)
  (-0.0175293 -0.0768596 0)
  (-0.0015652 -0.0438292 0)
  (0.0182161 -0.0264575 0)
  (0.0365081 -0.0251097 0)
  (0.0531726 -0.031714 0)
  (0.0670023 -0.0419055 0)
  (0.077445 -0.0530884 0)
  (0.0845868 -0.0637104 0)
  (0.088864 -0.0728889 0)
  (0.0908371 -0.0801898 0)
  (0.0910733 -0.0854921 0)
  (0.090117 -0.0889084 0)
  (0.0884316 -0.0908075 0)
  (0.0864059 -0.0916336 0)
  (0.084274 -0.0917426 0)
  (0.082149 -0.0915008 0)
  (0.0800905 -0.0911706 0)
  (0.0781041 -0.0908708 0)
  (0.0761545 -0.0906448 0)
  (0.0741881 -0.0905039 0)
  (0.0721384 -0.0904534 0)
  (0.0699434 -0.0904635 0)
  (0.0676024 -0.0901727 0)
  (0.0651271 -0.0897824 0)
  (0.0625073 -0.0893962 0)
  (0.0596897 -0.0890463 0)
  (0.0566118 -0.0887317 0)
  (0.0532352 -0.088446 0)
  (0.0495926 -0.0881957 0)
  (0.0458941 -0.0880171 0)
  (0.0427555 -0.0879919 0)
  (0.041332 -0.0882821 0)
  (0.0420606 -0.0898593 0)
  (0.0457486 -0.102022 0)
  (0.0791479 -0.192437 0)
  (0.481095 0.206998 0)
  (0.254808 -0.183935 0)
  (-0.203719 0.177752 0)
  (0.124455 0.116515 0)
  (0.0612597 0.175628 0)
  (-0.0336029 0.29795 0)
  (-0.0166001 0.295677 0)
  (0.00351603 0.29048 0)
  (0.0220488 0.289038 0)
  (0.0401944 0.289966 0)
  (0.0570625 0.292757 0)
  (0.071209 0.29647 0)
  (0.08214 0.300316 0)
  (0.0900482 0.303666 0)
  (0.0954118 0.306104 0)
  (0.0987611 0.307444 0)
  (0.10059 0.307719 0)
  (0.101313 0.307208 0)
  (0.101244 0.306229 0)
  (0.100622 0.305028 0)
  (0.0996176 0.303883 0)
  (0.0983248 0.302977 0)
  (0.0967945 0.302352 0)
  (0.0950544 0.301981 0)
  (0.0931132 0.301816 0)
  (0.0909631 0.30183 0)
  (0.0885781 0.302 0)
  (0.0859155 0.301737 0)
  (0.0829623 0.301366 0)
  (0.0796547 0.301056 0)
  (0.0759076 0.30085 0)
  (0.0716149 0.300745 0)
  (0.0666409 0.300761 0)
  (0.0608173 0.301007 0)
  (0.0539591 0.301754 0)
  (0.0458933 0.303498 0)
  (0.0361602 0.306833 0)
  (0.02268 0.313183 0)
  (0.00766574 0.340161 0)
  (0.0629038 0.512608 0)
)
;

boundaryField
{
  floor
  {
    type noSlip;
  }
  ceiling
  {
    type noSlip;
  }
  sWall
  {
    type noSlip;
  }
  nWall
  {
    type noSlip;
  }
  sideWalls
  {
    type empty;
  }
  glass1
  {
    type noSlip;
  }
  glass2
  {
    type noSlip;
  }
  sun
  {
    type noSlip;
  }
  heatsource1
  {
    type noSlip;
  }
  heatsource2
  {
    type noSlip;
  }
  Table_master
  {
    type noSlip;
  }
  Table_slave
  {
    type noSlip;
  }
  inlet
  {
    type fixedValue;
    value uniform (0.0707107 -0.0707107 0);
  }
  outlet
  {
    type zeroGradient;
  }
} 	// ************************************************************************* //

