/*--------------------------------*- C++ -*----------------------------------*\
  =========                 |
  \\      /  F ield         | OpenFOAM: The Open Source CFD Toolbox
   \\    /   O peration     | Website:  https://openfoam.org
    \\  /    A nd           | Version:  6
     \\/     M anipulation  |
\*---------------------------------------------------------------------------*/
FoamFile
{
    version     2.0;
    format      ascii;
    class       surfaceScalarField;
    location    "300";
    object      phi;
}
// * * * * * * * * * * * * * * * * * * * * * * * * * * * * * * * * * * * * * //

dimensions      [1 0 -1 0 0 0 0];

internalField   nonuniform List<scalar> 
852
(
-0.00247701
0.00254389
-0.00262116
0.000144281
-0.00262515
4.13067e-06
-0.00266099
3.59762e-05
-0.00269202
3.11555e-05
-0.00270382
1.19369e-05
-0.00269054
-1.31431e-05
-0.00264521
-4.52006e-05
-0.00255772
-8.73585e-05
-0.00241564
-0.000141946
-0.00220622
-0.000209292
-0.00191646
-0.000289627
-0.00151684
-0.000399485
-0.000913981
-0.000602729
-0.000910738
-0.000847626
0.000854829
-0.000858978
1.14784e-05
-0.000655358
-0.000203492
-0.000548044
-0.000107185
-0.000544659
-3.25567e-06
-0.000577583
3.30531e-05
-0.000412471
-0.000164982
-0.000267807
-0.000144534
-2.51717e-06
-0.000265158
0.000270974
-0.000273368
0.000433212
-0.000162113
0.000563634
-0.000130297
0.000679806
-0.000116046
0.000784708
-0.000104777
0.000883648
-9.88153e-05
0.000981966
-9.81953e-05
0.00107449
-9.24012e-05
0.000949277
0.000125334
0.00095598
-0.00177585
0.00448745
-0.00229625
0.000664817
-0.00245256
0.000160587
-0.00253827
0.000121819
-0.00258586
7.88771e-05
-0.00260612
3.23372e-05
-0.00260226
-1.68735e-05
-0.00257226
-7.50691e-05
-0.00250986
-0.000149631
-0.00240521
-0.000246458
-0.00224491
-0.000369468
-0.00201049
-0.000523917
-0.00168694
-0.000722896
-0.0013154
-0.000974138
-0.0010156
-0.0012104
0.000140588
-0.00115611
0.000140672
0.00113096
-0.000260045
0.00105176
9.08136e-05
0.000617386
0.000231011
0.000354024
0.000156304
0.000218453
0.000132444
-3.42815e-06
0.000255064
-0.000194524
2.62444e-05
-0.000224682
-0.000114243
-0.00010326
-0.000386449
4.36087e-06
-0.000380863
4.36257e-05
-0.000201253
4.50683e-05
-0.000131615
1.91659e-05
-9.00183e-05
-4.09474e-05
-4.45413e-05
-9.41362e-05
-4.55064e-05
-2.84907e-06
-0.000189364
0.000269344
-0.000364474
0.000336398
5.84026e-05
0.00130885
-0.00125973
0.00598963
-0.00188059
0.00128582
-0.00211909
0.000399244
-0.00225029
0.000253159
-0.00231995
0.000148681
-0.00235867
7.11919e-05
-0.00237765
2.2412e-06
-0.00237911
-7.34814e-05
-0.00236263
-0.000165981
-0.00232356
-0.000285398
-0.00225515
-0.000437757
-0.00215138
-0.000627555
-0.00201704
-0.000857107
-0.00188062
-0.00111042
-0.0017684
-0.00132249
-0.0015231
-0.00140127
-0.0013823
-0.000358599
0.000115269
-0.000523478
0.000255828
-0.000451352
0.000159016
-0.000341816
4.68974e-05
-0.000155383
-5.38627e-05
0.000321149
-0.000221341
0.000347683
0.000233731
-0.000152434
-0.000533013
-0.000733984
-0.00086532
-0.00095506
-0.000999326
-0.00104456
-0.00112064
-0.000113167
-0.0015871
0.000102104
-0.00163845
0.000109876
-0.000307026
-0.000849731
0.00714098
-0.00143402
0.00187028
-0.00161724
0.000582634
-0.00172329
0.000359379
-0.00181539
0.000240939
-0.00189521
0.000151158
-0.00196056
6.7731e-05
-0.00200948
-2.44391e-05
-0.00204553
-0.000129799
-0.00207486
-0.000255943
-0.00210164
-0.000410855
-0.00213401
-0.000595055
-0.00219029
-0.000800702
-0.00229693
-0.00100365
-0.00246148
-0.0011578
-0.00266515
-0.00119746
-0.00311944
-0.000927873
-0.00255202
-0.00055325
-0.00218069
-0.000255925
-0.00186516
-5.95675e-05
-0.00167071
-3.52948e-05
-0.00155771
-6.59631e-05
-0.00147463
-0.000136807
-0.0014897
-0.000206138
-0.0012795
-0.000210209
-0.00103834
-0.000241178
-0.000772757
-0.000265597
-0.000496598
-0.000276174
-0.000225159
-0.000271455
2.59802e-05
-0.000251156
0.000236742
-0.00021078
0.000398494
-0.000161771
0.000492021
-9.35476e-05
0.000492725
-0.00011374
0.000639905
-4.49508e-05
0.000659225
9.06799e-05
0.000370753
-0.000519837
0.00801269
-0.00100347
0.0023541
-0.000919256
0.000498623
-0.000822878
0.000263207
-0.000894336
0.000312586
-0.00105903
0.000316022
-0.00123003
0.000238878
-0.00137571
0.000121375
-0.00148924
-1.61393e-05
-0.00157728
-0.000167782
-0.00166212
-0.000325893
-0.0017592
-0.000497845
-0.00188415
-0.000675631
-0.0020447
-0.000842977
-0.00223757
-0.000964802
-0.00245159
-0.000983306
-0.00255066
-0.00082867
-0.00250021
-0.000603559
-0.00234665
-0.00040935
-0.00213908
-0.000267
-0.00196054
-0.000213699
-0.00180847
-0.000217897
-0.00168186
-0.000263273
-0.00156835
-0.000319515
-0.00141179
-0.000366625
-0.0012395
-0.00041333
-0.00105817
-0.000446791
-0.000875493
-0.000458709
-0.000701541
-0.000445268
-0.000543186
-0.000409374
-0.000394633
-0.000359196
-0.000239717
-0.000316551
-2.16567e-05
-0.000311472
0.000255287
-0.00039055
0.000713351
-0.000502882
0.00138635
-0.000582192
0.00244511
-0.000687874
0.00294485
-0.000499817
0.00234419
0.000600579
0.00239078
-0.000440529
0.00884948
-0.000627448
0.00254122
3.57232e-06
-0.000132166
0.000455832
-0.000188824
0.000445546
0.000323087
0.000210641
0.000551125
-8.55682e-05
0.000535268
-0.000379366
0.000415324
-0.000635639
0.00024027
-0.000833563
3.02684e-05
-0.000981813
-0.000177524
-0.00112266
-0.000356883
-0.00128098
-0.000517187
-0.00146207
-0.000661767
-0.00166084
-0.000765905
-0.00185164
-0.000792379
-0.00196153
-0.000718651
-0.00197907
-0.000585886
-0.00192694
-0.000461345
-0.00182836
-0.000365444
-0.00172313
-0.000318792
-0.0016254
-0.000315487
-0.00154247
-0.000346063
-0.00146826
-0.000393594
-0.00139069
-0.000444051
-0.0013133
-0.000490579
-0.00124014
-0.000519813
-0.00117773
-0.000520988
-0.00113319
-0.000489663
-0.00110992
-0.000432514
-0.00110136
-0.000367617
-0.00109371
-0.000324064
-0.00106424
-0.000340803
-0.000995705
-0.000458953
-0.000804299
-0.000694154
-0.000322993
-0.00106336
0.000514075
-0.00152481
0.00150818
-0.00149379
0.00175169
0.000357199
0.00419587
-0.000655805
0.00994549
0.00017108
0.00171453
0.00159615
-0.00155703
0.00208909
-0.000681557
0.00189505
0.000517331
0.0015824
0.000863973
0.00123898
0.00087887
0.000880387
0.000774077
0.000538574
0.000582229
0.000221164
0.00034781
-5.38253e-05
9.759e-05
-0.000275216
-0.000135376
-0.000473036
-0.000319252
-0.000674947
-0.000459739
-0.000880057
-0.000560676
-0.00106621
-0.000606105
-0.0012
-0.000584729
-0.0012664
-0.000519357
-0.00128098
-0.00044664
-0.00126035
-0.000385939
-0.00122754
-0.000351467
-0.00119763
-0.000345257
-0.00117995
-0.000363614
-0.00117628
-0.000397123
-0.00118577
-0.000434432
-0.0012126
-0.000463611
-0.00126324
-0.000469037
-0.00134726
-0.000436828
-0.00147598
-0.0003608
-0.00165785
-0.000250507
-0.00189103
-0.000134303
-0.00216378
-5.11798e-05
-0.00246039
-4.40564e-05
-0.00276071
-0.000158502
-0.00302086
-0.000433864
-0.00316657
-0.000917523
-0.0030477
-0.00164356
-0.0022616
-0.00227975
-0.000499603
-0.00140467
0.00376036
0.00255815
0.00788634
0.00397903
0.000293837
0.00451372
-0.00209154
0.00389985
-6.74999e-05
0.00324234
0.00117501
0.00274699
0.0013595
0.00230619
0.00131983
0.00191874
0.00116168
0.0015909
0.00091021
0.00130917
0.000629677
0.00103954
0.000367342
0.000769486
0.000134792
0.00051692
-6.65718e-05
0.000283516
-0.00022622
5.95172e-05
-0.000336562
-0.000143097
-0.000403372
-0.000303538
-0.000424165
-0.000413476
-0.000409294
-0.000481906
-0.000378083
-0.000521655
-0.00034606
-0.000548452
-0.000324539
-0.000575516
-0.000318061
-0.000612778
-0.000326219
-0.000665983
-0.000343783
-0.000738838
-0.000361445
-0.000837549
-0.000364766
-0.000971438
-0.000335014
-0.00115473
-0.000253403
-0.00140641
-0.000108975
-0.00174988
9.30991e-05
-0.00221515
0.0003311
-0.00282556
0.000559367
-0.003573
0.000703516
-0.00441584
0.000684476
-0.00528244
0.000432866
-0.0061452
-5.46347e-05
-0.00717635
-0.000612273
-0.00826998
-0.001186
-0.00740612
-0.0022684
-0.00334596
0.00844373
0.00873189
0.00736319
-0.000722699
0.00442362
0.00287221
0.00357219
0.00202659
0.00304614
0.0018857
0.00263834
0.00172777
0.00236012
0.00144004
0.00216697
0.00110349
0.00201137
0.000785398
0.00186445
0.000514383
0.00170265
0.000296704
0.00151005
0.000126145
0.00129602
-1.20738e-05
0.00108003
-0.000120464
0.00087387
-0.000197091
0.000692403
-0.000242579
0.000544588
-0.000261357
0.000429136
-0.000262506
0.000338851
-0.000255649
0.000263307
-0.000248867
0.00019222
-0.000246846
0.000116959
-0.000250828
3.17758e-05
-0.000258471
-6.52252e-05
-0.000264314
-0.000172176
-0.000257684
-0.000283771
-0.000223288
-0.000392185
-0.000144858
-0.000490363
-1.0664e-05
-0.000585989
0.000188859
-0.000691235
0.000436481
-0.000809175
0.000677442
-0.000939105
0.000833582
-0.00108885
0.000834356
-0.00131336
0.000657512
-0.00172672
0.000358859
-0.00232599
-1.28721e-05
-0.00297088
-0.000540971
-0.0028813
-0.00235785
-0.00590558
-0.00407803
0.00380121
-0.00202261
0.000816939
0.00026942
-0.000265298
0.0013544
0.000800866
0.00176087
0.00132143
0.00199526
0.00120578
0.0021469
0.000951987
0.00223505
0.00069737
0.00227027
0.000479285
0.00226084
0.000306251
0.00221112
0.000175988
0.00211782
8.13352e-05
0.00198773
9.74683e-06
0.00183599
-4.52319e-05
0.00167791
-8.43817e-05
0.00152604
-0.000109367
0.00138772
-0.000124066
0.00126456
-0.000132365
0.0011536
-0.000137782
0.00104973
-0.00014285
0.000947674
-0.000148645
0.000843795
-0.000154464
0.000737432
-0.000157824
0.000633011
-0.000153136
0.000541293
-0.000131443
0.000477791
-8.1229e-05
0.000458307
8.94832e-06
0.00049975
0.000147546
0.000607546
0.000328817
0.000770995
0.000514126
0.000964522
0.000640188
0.00115183
0.000647187
0.00130187
0.000507604
0.00143158
0.00022928
0.00159211
-0.000173268
0.00183391
-0.000782634
0.00157904
-0.00210285
-0.00425501
-0.00156231
0.00536342
-0.000970269
0.000225053
-0.000347576
-0.000887848
0.000444066
9.36019e-06
0.00108799
0.000677643
0.00161347
0.000680439
0.00201058
0.000555008
0.00229369
0.000414389
0.00248094
0.000292162
0.00259191
0.000195404
0.00264466
0.000123354
0.0026535
7.26217e-05
0.00262513
3.8237e-05
0.00256367
1.63521e-05
0.00247749
1.91427e-06
0.00237585
-7.60137e-06
0.0022666
-1.46889e-05
0.00215552
-2.117e-05
0.00204591
-2.80487e-05
0.00193868
-3.54955e-05
0.00183315
-4.29947e-05
0.00172838
-4.95696e-05
0.00162526
-5.45732e-05
0.00152838
-5.61326e-05
0.00144791
-5.08518e-05
0.00139989
-3.30899e-05
0.00140493
4.03492e-06
0.00149145
6.11463e-05
0.00167439
0.00014601
0.00194513
0.000243509
0.00226743
0.000318019
0.00258424
0.000330505
0.00283201
0.000259967
0.00295659
0.000104837
0.00292441
-0.000140962
0.00264315
-0.000501241
0.00166461
-0.00112417
-0.0025033
-0.0044921
-0.00473203
0.000631743
0.000856263
-3.31161e-05
-2.72861e-05
0.000646326
0.00132268
0.00187361
0.00228396
0.00257215
0.00276367
0.00288323
0.00295219
0.00298691
0.00299996
0.00299881
0.00298845
0.00297137
0.00294825
0.00291875
0.00288235
0.00283905
0.00278981
0.00273624
0.00268184
0.00263347
0.00260365
0.00261175
0.00267775
0.00282934
0.00307904
0.00340372
0.00374125
0.00400856
0.00412107
0.00398814
0.00349534
0.00237984
)
;

boundaryField
{
    floor
    {
        type            calculated;
        value           nonuniform List<scalar> 
29
(
0
0
0
0
0
0
0
0
0
0
0
0
0
0
0
0
0
0
0
0
-6.57958e-06
-1.63527e-05
-2.24499e-05
-1.8429e-05
-3.10945e-06
-7.07738e-06
-1.59595e-05
-1.65787e-05
-1.40246e-05
)
;
    }
    ceiling
    {
        type            calculated;
        value           nonuniform List<scalar> 
43
(
1.3216e-07
-1.19296e-07
-1.79055e-07
6.88025e-07
1.67133e-06
3.6547e-06
4.16357e-06
4.21982e-06
4.20728e-06
4.16395e-06
4.10063e-06
4.01945e-06
3.91802e-06
3.79143e-06
3.63335e-06
3.43472e-06
3.18758e-06
2.88015e-06
2.50839e-06
2.07252e-06
1.57634e-06
1.02618e-06
4.28648e-07
-2.11195e-07
-8.90708e-07
-1.60917e-06
-2.36487e-06
-3.14907e-06
-3.94207e-06
-4.73445e-06
-5.46286e-06
-6.06891e-06
-6.53665e-06
-6.89879e-06
-7.21298e-06
-7.54115e-06
-7.9076e-06
-8.30476e-06
-8.54611e-06
-8.40418e-06
7.22686e-06
5.83902e-06
2.88156e-07
)
;
    }
    sWall
    {
        type            calculated;
        value           uniform -0.000114517;
    }
    nWall
    {
        type            calculated;
        value           nonuniform List<scalar> 6(-4.66557e-05 -5.32692e-05 -6.39684e-05 -7.13918e-05 -8.69738e-05 -0.000114917);
    }
    sideWalls
    {
        type            empty;
        value           nonuniform 0();
    }
    glass1
    {
        type            calculated;
        value           nonuniform List<scalar> 9(-6.67466e-05 -0.000167588 -0.00024232 -0.000301497 -0.000351742 -0.000396125 -0.00044006 -0.000498858 -0.000564465);
    }
    glass2
    {
        type            calculated;
        value           nonuniform List<scalar> 2(-0.000299673 -0.000321558);
    }
    sun
    {
        type            calculated;
        value           uniform 0;
    }
    heatsource1
    {
        type            calculated;
        value           nonuniform List<scalar> 3(2.04353e-07 2.04441e-07 2.04762e-07);
    }
    heatsource2
    {
        type            calculated;
        value           nonuniform List<scalar> 4(5.14162e-08 5.15954e-08 0 0);
    }
    Table_master
    {
        type            calculated;
        value           nonuniform List<scalar> 9(-1.55354e-07 -1.55529e-07 -1.55684e-07 -1.55639e-07 -1.55492e-07 -1.55377e-07 -1.55278e-07 -1.55191e-07 -1.55083e-07);
    }
    Table_slave
    {
        type            calculated;
        value           nonuniform List<scalar> 9(1.53937e-07 1.54006e-07 1.5408e-07 1.54164e-07 1.54252e-07 1.5433e-07 1.54335e-07 1.54286e-07 1.54265e-07);
    }
    inlet
    {
        type            calculated;
        value           uniform -0.000445685;
    }
    outlet
    {
        type            calculated;
        value           nonuniform List<scalar> 2(0.00460666 0.000240232);
    }
}


// ************************************************************************* //
