/*--------------------------------*- C++ -*----------------------------------*\
  =========                 |
  \\      /  F ield         | OpenFOAM: The Open Source CFD Toolbox
   \\    /   O peration     | Website:  https://openfoam.org
    \\  /    A nd           | Version:  6
     \\/     M anipulation  |
\*---------------------------------------------------------------------------*/
FoamFile
{
    version     2.0;
    format      ascii;
    class       volScalarField;
    location    "800";
    object      epsilon;
}
// * * * * * * * * * * * * * * * * * * * * * * * * * * * * * * * * * * * * * //

dimensions      [0 2 -3 0 0 0 0];

internalField   nonuniform List<scalar> 
459
(
0.000437385
0.000569626
0.000601267
0.000691764
0.000783057
0.000875168
0.000971742
0.00107497
0.00115371
0.00119102
0.00117203
0.00109104
0.000956616
0.000794114
0.000639307
3.72968e-05
6.91192e-05
9.73949e-05
9.42202e-05
8.41559e-05
7.24834e-05
5.98616e-05
4.89967e-05
4.03615e-05
3.35954e-05
2.82683e-05
2.40294e-05
2.06331e-05
1.78654e-05
1.55393e-05
1.34895e-05
1.155e-05
1.02646e-05
7.73717e-06
0.00111078
0.0016014
0.000539917
0.000523547
0.000548234
0.000587564
0.000644617
0.000721896
0.000797506
0.000848975
0.000856526
0.000811791
0.000720084
0.000604052
0.000527518
0.000671587
0.000147026
4.82346e-05
0.000119142
0.000122692
0.000109504
9.18777e-05
7.59499e-05
6.732e-05
5.44614e-05
4.32447e-05
3.43639e-05
2.75039e-05
2.22233e-05
1.81643e-05
1.50513e-05
1.27704e-05
1.14057e-05
1.08276e-05
2.45619e-05
1.7281e-05
0.00202961
0.00393497
0.000675557
0.000501451
0.000524003
0.000586066
0.000677469
0.000794266
0.000906251
0.000980597
0.000997657
0.000954792
0.000861528
0.000737682
0.00063096
0.000569752
0.00063789
0.000393367
0.000271286
0.000200355
0.000152314
0.000118469
9.82894e-05
0.000175437
0.000121191
8.67628e-05
6.42801e-05
4.91247e-05
3.85937e-05
3.10876e-05
2.56527e-05
2.17344e-05
1.6486e-05
1.36926e-05
4.337e-05
2.66499e-05
0.00329206
0.00817439
0.00108698
0.000514408
0.000515861
0.000603974
0.000744821
0.000924899
0.00107487
0.00115747
0.00116582
0.00110833
0.000998229
0.000850773
0.000714723
0.000613632
0.00058463
0.0011202
0.000615457
0.000365765
0.000242926
0.000173612
0.000131159
0.000111226
0.000250867
0.000189573
0.000152375
0.000127522
0.000108676
9.31646e-05
7.97561e-05
6.71696e-05
5.43405e-05
3.208e-05
2.08536e-05
6.68019e-05
3.58563e-05
0.00503239
0.0145547
0.00217918
0.000635158
0.000544439
0.000658812
0.000907003
0.00118341
0.00135017
0.00141065
0.00138649
0.00129559
0.00114995
0.000967771
0.000778994
0.000609349
0.000479194
0.000415137
0.000331324
0.000257095
0.000198563
0.000154621
0.000122738
0.000102212
9.84223e-05
9.12954e-05
8.41873e-05
7.72561e-05
7.00912e-05
6.26273e-05
5.53072e-05
4.84226e-05
4.2117e-05
3.34897e-05
2.54564e-05
4.97645e-05
3.94263e-05
6.74716e-05
0.000120219
0.000169642
0.00745244
0.0215754
0.00491485
0.00128095
0.000865481
0.000984582
0.0014509
0.0017196
0.00180403
0.00178393
0.00169919
0.00155735
0.00135934
0.00111964
0.000868672
0.000641148
0.000465672
0.000352583
0.000278623
0.000221978
0.000175663
0.000139727
0.000113802
9.7274e-05
8.95492e-05
8.61103e-05
8.38338e-05
8.10558e-05
7.67644e-05
7.01387e-05
6.12835e-05
5.21395e-05
4.37795e-05
3.63053e-05
3.12905e-05
3.93743e-05
4.07765e-05
5.12186e-05
0.000221365
0.00019202
0.0102417
0.0257642
0.0100599
0.0041809
0.00286296
0.00274635
0.00281212
0.00270391
0.00252557
0.00233653
0.00213926
0.00190934
0.00162821
0.00130603
0.000978324
0.000687945
0.000470914
0.000333025
0.000249666
0.000193931
0.000152747
0.00012335
0.000104387
9.43589e-05
9.14637e-05
9.26207e-05
9.5064e-05
9.7394e-05
9.8577e-05
9.70948e-05
8.99128e-05
7.93101e-05
6.88039e-05
5.97936e-05
5.59824e-05
6.16276e-05
7.73112e-05
0.000122534
0.000286539
0.00027892
0.0108556
0.0279618
0.0156294
0.0107202
0.00808963
0.00630583
0.0049723
0.00406266
0.00346328
0.00304957
0.00270797
0.00235285
0.00194308
0.00149712
0.00106488
0.000696417
0.000439903
0.000289078
0.000203992
0.000156904
0.00012661
0.000107731
9.77495e-05
9.47214e-05
9.68905e-05
0.000102502
0.000110373
0.00012024
0.000132229
0.000146247
0.000161283
0.000169802
0.000177752
0.000195166
0.000232015
0.000344393
0.000630808
0.00119638
0.0035859
0.00107683
0.0100152
0.0167164
0.0133209
0.010112
0.00779527
0.00624629
0.00524678
0.00461729
0.00419189
0.0038186
0.00338888
0.00285008
0.00220999
0.00156545
0.00100217
0.000554796
0.000321857
0.000212947
0.000156564
0.000124902
0.000106256
9.62804e-05
9.26407e-05
9.37852e-05
9.86727e-05
0.000106706
0.000117872
0.000132851
0.000152919
0.000179898
0.000216205
0.000265513
0.000333461
0.000436916
0.000590335
0.00080122
0.00104687
0.00126632
0.00143495
0.000901883
0.00368632
0.00569099
0.00653251
0.00662246
0.00643629
0.00606283
0.00546463
0.00465467
0.00370681
0.00267838
0.00161661
0.000911945
0.000510284
0.000292369
0.000189044
0.000139539
0.000113856
9.94845e-05
9.14296e-05
8.74963e-05
8.63603e-05
8.73501e-05
9.02727e-05
9.53427e-05
0.000103072
0.000114381
0.000130659
0.000153921
0.000187081
0.000234317
0.000300557
0.000392611
0.00051433
0.000656023
0.000782473
0.000844084
0.000810293
0.000521918
0.00278012
0.00636155
0.00710663
0.00590703
0.005307
0.00464444
0.00374319
0.00278806
0.001941
0.00127322
0.00077122
0.000454519
0.000281201
0.000194795
0.000155559
0.000138287
0.000130549
0.000126688
0.000124232
0.000122219
0.000120415
0.000119005
0.000118553
0.000119866
0.000123541
0.00013041
0.000141686
0.000159162
0.00018549
0.000223976
0.00027901
0.000355138
0.000453122
0.00056519
0.000651085
0.000745067
0.000750528
0.000553717
0.00198351
0.00236106
0.00265592
0.00331565
0.00300158
0.00263675
0.00242054
0.00214559
0.0017894
0.0014016
0.00103403
0.000724353
0.000488819
0.000330442
0.000235373
0.0001803
0.000147405
0.000126739
0.000113262
0.000104403
9.87731e-05
9.55833e-05
9.45106e-05
9.562e-05
9.91388e-05
0.000104865
0.000113162
0.00012458
0.000139971
0.000160626
0.000187027
0.000220489
0.000263038
0.000317244
0.000385431
0.000477701
0.000513051
0.000475899
0.000394836
0.000320359
)
;

boundaryField
{
    floor
    {
        Cmu             0.09;
        kappa           0.41;
        E               9.8;
        type            epsilonWallFunction;
        value           nonuniform List<scalar> 
29
(
0.000639307
3.72968e-05
6.91192e-05
9.73949e-05
9.42202e-05
8.41559e-05
7.24834e-05
5.98616e-05
4.89967e-05
4.03615e-05
3.35954e-05
2.82683e-05
2.40294e-05
2.06331e-05
1.78654e-05
1.55393e-05
1.34895e-05
1.155e-05
1.02646e-05
7.73717e-06
7.73717e-06
1.7281e-05
2.66499e-05
3.58563e-05
0.000639307
3.72968e-05
4.82346e-05
0.000393367
0.0011202
)
;
    }
    ceiling
    {
        Cmu             0.09;
        kappa           0.41;
        E               9.8;
        type            epsilonWallFunction;
        value           nonuniform List<scalar> 
43
(
0.00198351
0.00236106
0.00265592
0.00331565
0.00300158
0.00263675
0.00242054
0.00214559
0.0017894
0.0014016
0.00103403
0.000724353
0.000488819
0.000330442
0.000235373
0.0001803
0.000147405
0.000126739
0.000113262
0.000104403
9.87731e-05
9.55833e-05
9.45106e-05
9.562e-05
9.91388e-05
0.000104865
0.000113162
0.00012458
0.000139971
0.000160626
0.000187027
0.000220489
0.000263038
0.000317244
0.000385431
0.000477701
0.000513051
0.000475899
0.000394836
0.000320359
0.0100152
0.0167164
0.00278012
)
;
    }
    sWall
    {
        Cmu             0.09;
        kappa           0.41;
        E               9.8;
        type            epsilonWallFunction;
        value           uniform 0.00198351;
    }
    nWall
    {
        Cmu             0.09;
        kappa           0.41;
        E               9.8;
        type            epsilonWallFunction;
        value           nonuniform List<scalar> 6(0.000169642 0.00019202 0.00027892 0.000521918 0.000553717 0.000320359);
    }
    sideWalls
    {
        type            empty;
    }
    glass1
    {
        Cmu             0.09;
        kappa           0.41;
        E               9.8;
        type            epsilonWallFunction;
        value           nonuniform List<scalar> 9(0.000437385 0.00111078 0.00202961 0.00329206 0.00503239 0.00745244 0.0102417 0.0108556 0.0100152);
    }
    glass2
    {
        Cmu             0.09;
        kappa           0.41;
        E               9.8;
        type            epsilonWallFunction;
        value           nonuniform List<scalar> 2(0.00107683 0.000901883);
    }
    sun
    {
        Cmu             0.09;
        kappa           0.41;
        E               9.8;
        type            epsilonWallFunction;
        value           nonuniform List<scalar> 
14
(
0.000437385
0.000569626
0.000601267
0.000691764
0.000783057
0.000875168
0.000971742
0.00107497
0.00115371
0.00119102
0.00117203
0.00109104
0.000956616
0.000794114
)
;
    }
    heatsource1
    {
        Cmu             0.09;
        kappa           0.41;
        E               9.8;
        type            epsilonWallFunction;
        value           nonuniform List<scalar> 3(6.74716e-05 0.000120219 0.000169642);
    }
    heatsource2
    {
        Cmu             0.09;
        kappa           0.41;
        E               9.8;
        type            epsilonWallFunction;
        value           nonuniform List<scalar> 4(0.000671587 0.000147026 0.000147026 0.00063789);
    }
    Table_master
    {
        Cmu             0.09;
        kappa           0.41;
        E               9.8;
        type            epsilonWallFunction;
        value           nonuniform List<scalar> 9(0.000175437 0.000121191 8.67628e-05 6.42801e-05 4.91247e-05 3.85937e-05 3.10876e-05 2.56527e-05 2.17344e-05);
    }
    Table_slave
    {
        Cmu             0.09;
        kappa           0.41;
        E               9.8;
        type            epsilonWallFunction;
        value           nonuniform List<scalar> 9(0.000250867 0.000189573 0.000152375 0.000127522 0.000108676 9.31646e-05 7.97561e-05 6.71696e-05 5.43405e-05);
    }
    inlet
    {
        type            turbulentMixingLengthDissipationRateInlet;
        mixingLength    0.01;
        phi             phi;
        k               k;
        value           uniform 0.000101881;
    }
    outlet
    {
        type            zeroGradient;
    }
}


// ************************************************************************* //
