/*--------------------------------*- C++ -*----------------------------------*\
  =========                 |
  \\      /  F ield         | OpenFOAM: The Open Source CFD Toolbox
   \\    /   O peration     | Website:  https://openfoam.org
    \\  /    A nd           | Version:  6
     \\/     M anipulation  |
\*---------------------------------------------------------------------------*/
FoamFile
{
    version     2.0;
    format      ascii;
    class       volScalarField;
    location    "700";
    object      alphat;
}
// * * * * * * * * * * * * * * * * * * * * * * * * * * * * * * * * * * * * * //

dimensions      [1 -1 -1 0 0 0 0];

internalField   nonuniform List<scalar> 
459
(
0.00125312
0.00137039
0.00139598
0.00146314
0.00152533
0.00158354
0.00164062
0.00169637
0.0017357
0.00175224
0.00174012
0.00169572
0.00161887
0.00151608
0.00140332
0.000550797
0.000673838
0.000757655
0.000752324
0.000725992
0.000691643
0.000648853
0.000606558
0.000568195
0.000534136
0.000503976
0.000477175
0.000453337
0.00043193
0.00041219
0.000393125
0.00037327
0.000358984
0.000326825
0.00170669
0.00418027
0.0040054
0.00466399
0.00531036
0.00595613
0.00652512
0.00695253
0.00733807
0.00765048
0.00784598
0.00787473
0.00766067
0.00701302
0.00524192
0.00143101
0.000844099
0.000595917
0.00124969
0.00172399
0.00206191
0.00223975
0.00223053
0.00179537
0.00154987
0.00137403
0.00123888
0.00113128
0.00104363
0.000967996
0.000897384
0.000828799
0.000767767
0.000714579
0.000835658
0.00042673
0.00208329
0.00570874
0.00497348
0.00624501
0.00687883
0.00734741
0.00770963
0.00799683
0.00830764
0.00863164
0.00893024
0.00914837
0.00922488
0.00907023
0.00844689
0.00651436
0.00142293
0.00118943
0.00170635
0.00218267
0.00260464
0.00288813
0.00280548
0.000929166
0.00082045
0.000733146
0.000662717
0.000605348
0.000558117
0.000518926
0.000486438
0.000460094
0.000495963
0.000573768
0.000939067
0.00049322
0.00244409
0.00729219
0.00498797
0.00661526
0.00717693
0.0073662
0.00748577
0.00762976
0.00787544
0.00820687
0.00858335
0.0089361
0.00920137
0.00930831
0.00917371
0.00850784
0.0062337
0.00170341
0.00211127
0.00272231
0.00330795
0.00376704
0.00404293
0.00378101
0.00104821
0.000954072
0.000886562
0.000835051
0.00079132
0.000751336
0.000713004
0.000672877
0.000626455
0.000587808
0.000601256
0.00107118
0.0005447
0.0028116
0.00932388
0.00548112
0.00636825
0.0071155
0.00716755
0.00710135
0.00717428
0.00739071
0.00772792
0.00815076
0.00856487
0.00888222
0.00903189
0.00898874
0.00870471
0.00798641
0.0066057
0.00613152
0.00597365
0.00591822
0.00588243
0.00581649
0.00558866
0.00471358
0.00429295
0.00404778
0.00385836
0.0036595
0.00337431
0.00299061
0.00252524
0.0020082
0.00148694
0.00109621
0.00109979
0.000730572
0.000671086
0.000812734
0.000912181
0.00320096
0.011535
0.00753781
0.00633438
0.00689806
0.00715124
0.00698771
0.00704934
0.00721319
0.00751565
0.00794248
0.0083963
0.00874583
0.00888955
0.00880367
0.0085427
0.008197
0.00783999
0.0076409
0.00749548
0.00733159
0.00714386
0.00693117
0.00666197
0.00626345
0.00590587
0.00558853
0.00528517
0.00497786
0.00464549
0.00422935
0.00371312
0.00309641
0.00241393
0.00181028
0.00135454
0.00102003
0.000865953
0.0012345
0.00095181
0.00355468
0.0130779
0.01055
0.0081556
0.00772045
0.00762344
0.00736505
0.00720207
0.00725458
0.0075506
0.00802435
0.00853081
0.00889911
0.00900986
0.00885059
0.00853395
0.00826024
0.00816622
0.00818049
0.00811262
0.00790593
0.00759738
0.00722259
0.00680269
0.00635958
0.00594853
0.00557284
0.00522419
0.00490295
0.00461643
0.00436436
0.00402048
0.00353929
0.00295252
0.00238837
0.00188308
0.00151177
0.00139654
0.00142347
0.00108401
0.00362074
0.0116194
0.0103312
0.00954665
0.00884512
0.00803554
0.00740572
0.00715884
0.00731823
0.00779633
0.00842905
0.0090071
0.00933534
0.00932094
0.0090099
0.0085962
0.00834587
0.0083461
0.00836376
0.00811912
0.00767822
0.00712775
0.00654128
0.00598225
0.00549281
0.00508235
0.00473556
0.00444374
0.00421013
0.00404339
0.00395167
0.00390546
0.00366304
0.00328627
0.00295478
0.00278476
0.00288999
0.00332746
0.0040874
0.00169232
0.00352085
0.00417831
0.00464133
0.00475776
0.00485839
0.0051332
0.00568398
0.0065196
0.00754211
0.00857393
0.00942447
0.00991406
0.00992592
0.00951853
0.00890783
0.00848319
0.00825064
0.0080553
0.00772012
0.00717487
0.00649911
0.00579947
0.00516546
0.00464204
0.00422892
0.00390096
0.0036326
0.00340834
0.00321825
0.00305248
0.00290066
0.00276138
0.00265131
0.00257026
0.00253951
0.00255064
0.00253643
0.00243538
0.00227675
0.00159142
0.00175922
0.00360542
0.00585356
0.00772008
0.00917133
0.010274
0.0109653
0.0112332
0.0111191
0.0106122
0.00982221
0.00884808
0.00802385
0.00751353
0.00710412
0.00660014
0.00597917
0.00531245
0.00467858
0.00413166
0.0036998
0.00336747
0.00310885
0.00290386
0.00274101
0.0026146
0.0025219
0.00246162
0.00243573
0.00244143
0.00246273
0.00249512
0.00252963
0.0025385
0.00247692
0.00233046
0.00211004
0.0013239
0.00235136
0.00603991
0.00898798
0.0101067
0.0106644
0.0108324
0.0105827
0.00998745
0.00916763
0.00824148
0.00736775
0.00659355
0.00597169
0.00544256
0.00490791
0.00438011
0.00391148
0.0035301
0.0032349
0.00300885
0.00282544
0.00267061
0.00253826
0.00243193
0.00235427
0.00230452
0.00228107
0.0022818
0.0023125
0.00236989
0.00244993
0.00254404
0.00263341
0.00269513
0.00267466
0.00270467
0.00274607
0.00134995
0.00208564
0.0022106
0.00229872
0.00246115
0.00237493
0.00227586
0.00221159
0.00212126
0.00199219
0.00183213
0.00165225
0.00146537
0.00128407
0.00112865
0.00101135
0.000928023
0.000868892
0.000826137
0.000795013
0.000772808
0.000757827
0.000749024
0.000745727
0.000748158
0.000756829
0.000771361
0.000791572
0.000817866
0.0008509
0.000891579
0.000938845
0.000992779
0.00105397
0.00112294
0.00119914
0.0012896
0.00131914
0.00128542
0.00120772
0.00112528
)
;

boundaryField
{
    floor
    {
        type            compressible::alphatWallFunction;
        Prt             0.85;
        value           nonuniform List<scalar> 
29
(
0.000197951
7.69822e-05
9.53603e-05
0.000107642
0.000106866
0.000103023
9.79843e-05
9.16644e-05
8.53674e-05
7.9609e-05
7.44564e-05
6.98593e-05
6.57453e-05
6.20615e-05
5.87325e-05
5.5644e-05
5.2643e-05
4.94977e-05
4.72213e-05
4.20529e-05
4.20523e-05
5.79209e-05
6.8212e-05
7.60594e-05
0.000197949
7.69813e-05
8.37744e-05
0.000168709
0.000238155
)
;
    }
    ceiling
    {
        type            compressible::alphatWallFunction;
        Prt             0.85;
        value           nonuniform List<scalar> 
43
(
0.000288156
0.000304304
0.000315637
0.000336528
0.000325574
0.000312899
0.000304643
0.000292986
0.000276228
0.000255278
0.000231489
0.000206467
0.000181847
0.000160425
0.000144032
0.000132254
0.00012382
0.00011768
0.000113186
0.000109968
0.00010779
0.000106508
0.000106027
0.000106382
0.000107645
0.000109758
0.000112689
0.000116489
0.000121242
0.000127066
0.000133793
0.00014142
0.000150016
0.000159636
0.000170185
0.00018261
0.000186646
0.000182039
0.000171369
0.000159965
0.000469139
0.000549104
0.000322216
)
;
    }
    sWall
    {
        type            compressible::alphatWallFunction;
        Prt             0.85;
        value           uniform 0.000286947;
    }
    nWall
    {
        type            compressible::alphatWallFunction;
        Prt             0.85;
        value           nonuniform List<scalar> 6(0.000129683 0.000135305 0.000153879 0.00018697 0.000190516 0.000159643);
    }
    sideWalls
    {
        type            empty;
    }
    glass1
    {
        type            compressible::alphatWallFunction;
        Prt             0.85;
        value           nonuniform List<scalar> 9(0.000173194 0.000233501 0.000282352 0.000328349 0.000374528 0.000422812 0.000466197 0.000474381 0.000462426);
    }
    glass2
    {
        type            compressible::alphatWallFunction;
        Prt             0.85;
        value           nonuniform List<scalar> 2(0.000235133 0.000221819);
    }
    sun
    {
        type            compressible::alphatWallFunction;
        Prt             0.85;
        value           nonuniform List<scalar> 
14
(
0.000177496
0.000193489
0.000196961
0.000206041
0.000214406
0.000222203
0.000229817
0.000237226
0.000242435
0.000244622
0.000243018
0.000237137
0.000226916
0.00021316
)
;
    }
    heatsource1
    {
        type            compressible::alphatWallFunction;
        Prt             0.85;
        value           nonuniform List<scalar> 3(9.50575e-05 0.000115732 0.000129985);
    }
    heatsource2
    {
        type            compressible::alphatWallFunction;
        Prt             0.85;
        value           nonuniform List<scalar> 4(0.000201819 0.000120248 0.000120247 0.000200724);
    }
    Table_master
    {
        type            compressible::alphatWallFunction;
        Prt             0.85;
        value           nonuniform List<scalar> 9(0.000132398 0.000116842 0.000104172 9.38184e-05 8.52854e-05 7.81856e-05 7.22376e-05 6.72643e-05 6.32006e-05);
    }
    Table_slave
    {
        type            compressible::alphatWallFunction;
        Prt             0.85;
        value           nonuniform List<scalar> 9(0.000149191 0.000135934 0.000126332 0.000118947 0.000112636 0.000106829 0.000101226 9.53221e-05 8.84379e-05);
    }
    inlet
    {
        type            fixedValue;
        value           uniform 1.94e-05;
    }
    outlet
    {
        type            zeroGradient;
    }
}


// ************************************************************************* //
