// -*- C++ -*-
// File generated by PyFoam - sorry for the ugliness

FoamFile
{
 version 2.0;
 format ascii;
 class volVectorField;
 location "700";
 object U;
}

dimensions [ 0 1 -1 0 0 0 0 ];

internalField nonuniform List<vector> 459
(
  (0.0329769 0.0854412 0)
  (-0.166082 0.0256701 0)
  (-0.190659 0.0178475 0)
  (-0.221261 0.012334 0)
  (-0.243584 0.00630841 0)
  (-0.25679 -7.77542e-06 0)
  (-0.259555 -0.00666946 0)
  (-0.250669 -0.0136805 0)
  (-0.230797 -0.0205702 0)
  (-0.201387 -0.0262891 0)
  (-0.165421 -0.0299964 0)
  (-0.126316 -0.0314269 0)
  (-0.0873173 -0.031107 0)
  (-0.0531803 -0.030689 0)
  (-0.03757 -0.0319126 0)
  (-0.00265318 0.00740884 0)
  (-0.0223124 -0.0174951 0)
  (0.0014076 -0.0262152 0)
  (0.0222858 -0.0194414 0)
  (0.0379871 -0.0130627 0)
  (0.0495928 -0.00834224 0)
  (0.05645 -0.00500162 0)
  (0.059874 -0.00325735 0)
  (0.0614351 -0.00250351 0)
  (0.0622567 -0.00213924 0)
  (0.0627769 -0.00190366 0)
  (0.0630509 -0.001711 0)
  (0.0630132 -0.00147324 0)
  (0.0624535 -0.0010178 0)
  (0.0608023 3.86036e-05 0)
  (0.0568537 0.00223925 0)
  (0.0492826 0.00463468 0)
  (0.0414171 0.00672521 0)
  (-0.0103362 0.0203911 0)
  (0.20524 0.174552 0)
  (-0.154256 0.0671546 0)
  (-0.152588 0.05215 0)
  (-0.183826 0.0406715 0)
  (-0.20562 0.0278293 0)
  (-0.218791 0.0136232 0)
  (-0.221995 -0.00220183 0)
  (-0.213827 -0.0192048 0)
  (-0.195474 -0.035274 0)
  (-0.168759 -0.0479108 0)
  (-0.136888 -0.0553335 0)
  (-0.103272 -0.057082 0)
  (-0.0711302 -0.0538375 0)
  (-0.0442087 -0.0471858 0)
  (-0.0271084 -0.0383009 0)
  (-0.0135473 -0.0187655 0)
  (-0.00716214 0.0133091 0)
  (0.0599226 0.0312881 0)
  (0.031542 -0.0198864 0)
  (0.0385834 -0.0305832 0)
  (0.0493519 -0.0259129 0)
  (0.057785 -0.0178303 0)
  (0.0633605 -0.0104484 0)
  (0.0655561 -0.00431008 0)
  (0.0658674 -0.000911191 0)
  (0.0657789 0.000543118 0)
  (0.0658592 0.00121943 0)
  (0.0660216 0.00164594 0)
  (0.0661376 0.00201731 0)
  (0.0661651 0.0025023 0)
  (0.0660505 0.00343942 0)
  (0.0652605 0.0057363 0)
  (0.061371 0.0120656 0)
  (0.0515958 0.0174743 0)
  (0.0452049 0.0213603 0)
  (-0.0437442 0.0440371 0)
  (0.363065 0.260809 0)
  (-0.16994 0.10647 0)
  (-0.113976 0.0839049 0)
  (-0.143751 0.0635006 0)
  (-0.162699 0.04244 0)
  (-0.174495 0.0194677 0)
  (-0.176972 -0.0061859 0)
  (-0.167904 -0.0333354 0)
  (-0.149545 -0.0582166 0)
  (-0.124475 -0.0767857 0)
  (-0.0961822 -0.0866562 0)
  (-0.0676258 -0.0877266 0)
  (-0.041093 -0.0811546 0)
  (-0.0187912 -0.0685084 0)
  (-0.00253354 -0.050808 0)
  (0.00988936 -0.025197 0)
  (0.0166063 0.00916515 0)
  (0.105479 -0.0392025 0)
  (0.0729366 -0.0431679 0)
  (0.0690225 -0.0394475 0)
  (0.0712091 -0.0316093 0)
  (0.072757 -0.0224656 0)
  (0.0735884 -0.0148003 0)
  (0.0718689 -0.0120557 0)
  (0.0678634 -0.00862813 0)
  (0.0650976 -0.00677098 0)
  (0.0638452 -0.00571335 0)
  (0.0632958 -0.00504342 0)
  (0.0630277 -0.004576 0)
  (0.0630754 -0.00412038 0)
  (0.0639115 -0.00331399 0)
  (0.0667486 -0.000180467 0)
  (0.0647108 0.0170509 0)
  (0.051445 0.0292837 0)
  (0.0508158 0.0379863 0)
  (-0.0731666 0.0691549 0)
  (0.505065 0.32998 0)
  (-0.203261 0.141118 0)
  (-0.0737629 0.110456 0)
  (-0.101273 0.0823831 0)
  (-0.114385 0.0553769 0)
  (-0.12221 0.0253412 0)
  (-0.12099 -0.00979925 0)
  (-0.108599 -0.0474659 0)
  (-0.0894335 -0.0803701 0)
  (-0.0667617 -0.103304 0)
  (-0.043812 -0.114078 0)
  (-0.0223587 -0.113732 0)
  (-0.0031745 -0.10405 0)
  (0.0131753 -0.0868021 0)
  (0.0265775 -0.0648603 0)
  (0.0409133 -0.0388666 0)
  (0.0630009 -0.0122256 0)
  (0.0935504 6.43673e-05 0)
  (0.101199 -0.0329637 0)
  (0.0876623 -0.0382912 0)
  (0.0791063 -0.0341024 0)
  (0.0749362 -0.0278295 0)
  (0.0722111 -0.0204415 0)
  (0.0709132 -0.0118787 0)
  (0.0726554 -0.00697323 0)
  (0.0767838 -0.00550398 0)
  (0.0801975 -0.00468071 0)
  (0.0825067 -0.00404029 0)
  (0.0839094 -0.00321425 0)
  (0.0838445 -0.00194841 0)
  (0.0812595 -2.58955e-05 0)
  (0.0749192 0.00283946 0)
  (0.0620335 0.00718021 0)
  (0.0510931 0.0274502 0)
  (0.0404472 0.0442737 0)
  (0.0536987 0.0578559 0)
  (-0.103528 0.0919967 0)
  (0.627033 0.383463 0)
  (-0.243994 0.169334 0)
  (-0.0347261 0.125114 0)
  (-0.057181 0.0925555 0)
  (-0.0619244 0.0622252 0)
  (-0.062632 0.0272696 0)
  (-0.0516136 -0.0165368 0)
  (-0.0336674 -0.0634435 0)
  (-0.0147323 -0.100895 0)
  (0.00296709 -0.124579 0)
  (0.0174213 -0.133185 0)
  (0.028764 -0.129821 0)
  (0.037506 -0.117505 0)
  (0.0443665 -0.0987711 0)
  (0.0504854 -0.0762816 0)
  (0.0578361 -0.0526843 0)
  (0.0690136 -0.0334293 0)
  (0.0794764 -0.0288518 0)
  (0.0810507 -0.0346923 0)
  (0.0745133 -0.0334932 0)
  (0.0665021 -0.0285542 0)
  (0.0603855 -0.0229979 0)
  (0.0560793 -0.0172652 0)
  (0.0537974 -0.0113831 0)
  (0.0539096 -0.00624186 0)
  (0.0560616 -0.00388562 0)
  (0.0584597 -0.00303637 0)
  (0.0607873 -0.00231972 0)
  (0.0629422 -0.000801341 0)
  (0.0645431 0.00206391 0)
  (0.0644235 0.00639226 0)
  (0.0620013 0.0123476 0)
  (0.0565861 0.0205826 0)
  (0.0500225 0.0360054 0)
  (0.0410237 0.0545401 0)
  (0.0619507 0.075053 0)
  (-0.0170106 0.104285 0)
  (0.0453727 0.0340247 0)
  (-0.0613075 -0.0344185 0)
  (-0.268926 -0.0566979 0)
  (0.714736 0.42798 0)
  (-0.28329 0.18813 0)
  (-0.00564568 0.119951 0)
  (-0.0117294 0.0916481 0)
  (-0.00489055 0.0622023 0)
  (0.00541688 0.0204805 0)
  (0.0342046 -0.0339312 0)
  (0.0552819 -0.0820577 0)
  (0.0700954 -0.11632 0)
  (0.0786094 -0.135372 0)
  (0.0816064 -0.140425 0)
  (0.0805857 -0.134211 0)
  (0.0769171 -0.119757 0)
  (0.0720103 -0.100044 0)
  (0.0673434 -0.0779659 0)
  (0.0642774 -0.0562059 0)
  (0.0637 -0.0384861 0)
  (0.0632353 -0.0293895 0)
  (0.0592015 -0.0270717 0)
  (0.0515903 -0.0249225 0)
  (0.0433603 -0.0213168 0)
  (0.0367768 -0.0173475 0)
  (0.0322656 -0.0134879 0)
  (0.0299939 -0.00980735 0)
  (0.0299364 -0.00696348 0)
  (0.0316197 -0.00602182 0)
  (0.0341156 -0.00600055 0)
  (0.0370825 -0.00570869 0)
  (0.0403572 -0.00418329 0)
  (0.043725 -0.000573764 0)
  (0.0466834 0.00538866 0)
  (0.048224 0.0133943 0)
  (0.0485567 0.0236583 0)
  (0.0490929 0.0379606 0)
  (0.0484042 0.0559099 0)
  (0.0703593 0.0787666 0)
  (0.0522801 0.0973389 0)
  (0.0914506 0.0683437 0)
  (0.11448 0.0445994 0)
  (-0.128275 -0.00738932 0)
  (0.767669 0.468572 0)
  (-0.30187 0.173494 0)
  (0.0220958 0.067761 0)
  (0.0495933 0.0628941 0)
  (0.0703491 0.0438043 0)
  (0.103485 -0.00399621 0)
  (0.135178 -0.0576058 0)
  (0.153451 -0.0985262 0)
  (0.159425 -0.124174 0)
  (0.155181 -0.135549 0)
  (0.143354 -0.134807 0)
  (0.126809 -0.124797 0)
  (0.108086 -0.108415 0)
  (0.0893389 -0.0885764 0)
  (0.0723189 -0.0678589 0)
  (0.058128 -0.0483211 0)
  (0.0472744 -0.0326138 0)
  (0.0386388 -0.0231127 0)
  (0.0302317 -0.0188429 0)
  (0.0216992 -0.016491 0)
  (0.014048 -0.0142171 0)
  (0.00824434 -0.0120829 0)
  (0.00448121 -0.0102526 0)
  (0.00275179 -0.00874943 0)
  (0.00289083 -0.00794136 0)
  (0.00439715 -0.00821279 0)
  (0.00665726 -0.00892706 0)
  (0.00945543 -0.00922724 0)
  (0.0128433 -0.008261 0)
  (0.0169516 -0.00502967 0)
  (0.0227171 0.00143465 0)
  (0.0284129 0.0102034 0)
  (0.0338416 0.0205648 0)
  (0.0408216 0.0331907 0)
  (0.0486329 0.0478467 0)
  (0.0704038 0.066262 0)
  (0.0840043 0.0746402 0)
  (0.115861 0.052606 0)
  (0.155398 0.0440092 0)
  (-0.0362856 0.0925489 0)
  (0.872475 0.469884 0)
  (-0.064263 0.152113 0)
  (0.110042 -0.013922 0)
  (0.181854 -0.0413157 0)
  (0.212778 -0.0530773 0)
  (0.244222 -0.0755694 0)
  (0.261901 -0.0977726 0)
  (0.262586 -0.113538 0)
  (0.247881 -0.120918 0)
  (0.221869 -0.119982 0)
  (0.189049 -0.111968 0)
  (0.153457 -0.098689 0)
  (0.118238 -0.081898 0)
  (0.0857788 -0.0637775 0)
  (0.057688 -0.046239 0)
  (0.0345759 -0.0304781 0)
  (0.0172379 -0.0186457 0)
  (0.00474482 -0.0120521 0)
  (-0.00482171 -0.00950221 0)
  (-0.0121262 -0.00875336 0)
  (-0.0179223 -0.00835213 0)
  (-0.0221461 -0.00813444 0)
  (-0.024905 -0.00812366 0)
  (-0.0263433 -0.0083601 0)
  (-0.0266887 -0.00899658 0)
  (-0.0263483 -0.0100957 0)
  (-0.0257075 -0.0113426 0)
  (-0.0248727 -0.012286 0)
  (-0.0236844 -0.0124299 0)
  (-0.0217469 -0.0111878 0)
  (-0.0180845 -0.00781672 0)
  (-0.00942912 -0.00162899 0)
  (-0.00116165 0.00636925 0)
  (0.00935878 0.0145184 0)
  (0.0210447 0.0215778 0)
  (0.0408236 0.0289208 0)
  (0.0598765 0.0225111 0)
  (0.0799204 -0.00464225 0)
  (0.138709 0.0390671 0)
  (-0.405092 0.202495 0)
  (1.01943 0.422977 0)
  (0.484956 0.279537 0)
  (0.49983 0.182952 0)
  (0.526395 0.111581 0)
  (0.507422 0.0601504 0)
  (0.465429 0.0129619 0)
  (0.416608 -0.0262683 0)
  (0.362981 -0.0530583 0)
  (0.304852 -0.0666722 0)
  (0.245133 -0.0691503 0)
  (0.187296 -0.0638804 0)
  (0.133927 -0.0540166 0)
  (0.0866021 -0.0414302 0)
  (0.0468694 -0.0283276 0)
  (0.0148053 -0.0165078 0)
  (-0.0106383 -0.00704761 0)
  (-0.0255457 -0.00285793 0)
  (-0.0347322 -0.00185886 0)
  (-0.0409035 -0.00238516 0)
  (-0.0456921 -0.0033884 0)
  (-0.0496192 -0.00440164 0)
  (-0.0528207 -0.00539659 0)
  (-0.0554018 -0.00639823 0)
  (-0.0575173 -0.00744154 0)
  (-0.0594057 -0.0085751 0)
  (-0.0614171 -0.00977906 0)
  (-0.063903 -0.0108462 0)
  (-0.0671603 -0.0114096 0)
  (-0.0715052 -0.0109403 0)
  (-0.0773652 -0.00873486 0)
  (-0.0852848 -0.00397204 0)
  (-0.0952112 0.00389649 0)
  (-0.105321 0.0143536 0)
  (-0.120105 0.0276331 0)
  (-0.143296 0.0438729 0)
  (-0.177402 0.0620141 0)
  (-0.225777 0.0781989 0)
  (-0.281463 0.0898668 0)
  (-0.349466 0.0969538 0)
  (-0.609153 0.0999852 0)
  (-0.150566 0.00178791 0)
  (0.121173 0.00132028 0)
  (0.20007 -0.0320819 0)
  (0.187139 -0.0419943 0)
  (0.171057 -0.0399656 0)
  (0.148965 -0.0350491 0)
  (0.119516 -0.0288299 0)
  (0.0857936 -0.0214492 0)
  (0.0513116 -0.0133679 0)
  (0.0164472 -0.00519412 0)
  (-0.016972 0.00235818 0)
  (-0.0392843 0.00662676 0)
  (-0.0546755 0.00894465 0)
  (-0.0638524 0.00941887 0)
  (-0.0689272 0.00856385 0)
  (-0.0724547 0.00761705 0)
  (-0.0752495 0.00685013 0)
  (-0.0777384 0.00626956 0)
  (-0.0802386 0.00578396 0)
  (-0.0828727 0.00513294 0)
  (-0.0856158 0.0043792 0)
  (-0.0885464 0.00354026 0)
  (-0.0917882 0.00267318 0)
  (-0.0954846 0.00190256 0)
  (-0.0997156 0.00146979 0)
  (-0.104479 0.00168715 0)
  (-0.109703 0.0028833 0)
  (-0.115212 0.00535933 0)
  (-0.120386 0.0096403 0)
  (-0.124501 0.0166292 0)
  (-0.127911 0.0274428 0)
  (-0.130828 0.0424658 0)
  (-0.133914 0.0608977 0)
  (-0.137602 0.0793336 0)
  (-0.138857 0.0882586 0)
  (-0.12142 0.0671793 0)
  (-0.0785498 -0.0229941 0)
  (-0.273949 -0.198268 0)
  (0.0160014 0.194466 0)
  (0.0412508 0.0701565 0)
  (0.000441048 0.00576064 0)
  (-0.0127626 -0.00232477 0)
  (-0.0262616 -0.00028838 0)
  (-0.0412594 6.37944e-05 0)
  (-0.0575469 0.00118899 0)
  (-0.0730106 0.003449 0)
  (-0.0851708 0.00556289 0)
  (-0.0918108 0.00588834 0)
  (-0.0960842 0.00394317 0)
  (-0.0978283 -7.50119e-05 0)
  (-0.0980893 -0.004609 0)
  (-0.0975121 -0.0094787 0)
  (-0.0970072 -0.0146855 0)
  (-0.0971089 -0.0197599 0)
  (-0.0978417 -0.0244164 0)
  (-0.0991038 -0.0283979 0)
  (-0.100766 -0.0315166 0)
  (-0.102753 -0.0336766 0)
  (-0.105126 -0.0350271 0)
  (-0.107797 -0.0355281 0)
  (-0.110668 -0.0351237 0)
  (-0.11365 -0.0339808 0)
  (-0.11662 -0.0321365 0)
  (-0.119338 -0.0293628 0)
  (-0.121431 -0.0252401 0)
  (-0.122426 -0.0191677 0)
  (-0.121896 -0.0112237 0)
  (-0.118963 -0.00110417 0)
  (-0.112264 0.0119115 0)
  (-0.100518 0.0284668 0)
  (-0.0832788 0.0480777 0)
  (-0.0613039 0.0668328 0)
  (-0.0374631 0.0777916 0)
  (0.00236644 0.0618877 0)
  (0.142962 -0.00833603 0)
  (-0.204862 -0.10837 0)
  (-0.0429561 -0.319677 0)
  (-0.413072 -0.123247 0)
  (-0.301136 0.0642145 0)
  (-0.249988 -0.017182 0)
  (-0.210239 -0.0224459 0)
  (-0.199064 -0.0114133 0)
  (-0.194627 -0.0017485 0)
  (-0.191144 0.0062519 0)
  (-0.186589 0.0137625 0)
  (-0.18007 0.0212365 0)
  (-0.171423 0.0287548 0)
  (-0.160973 0.0362148 0)
  (-0.149874 0.0434476 0)
  (-0.139279 0.050437 0)
  (-0.12998 0.0574592 0)
  (-0.122243 0.0644721 0)
  (-0.116108 0.0714306 0)
  (-0.111401 0.0781133 0)
  (-0.107882 0.0841098 0)
  (-0.105342 0.0890373 0)
  (-0.103599 0.0926462 0)
  (-0.102497 0.0948267 0)
  (-0.101949 0.0956478 0)
  (-0.101915 0.0950614 0)
  (-0.102351 0.0930281 0)
  (-0.103181 0.0899104 0)
  (-0.104275 0.0860089 0)
  (-0.105419 0.0814177 0)
  (-0.106232 0.0761824 0)
  (-0.106041 0.0704176 0)
  (-0.103587 0.0653772 0)
  (-0.0970408 0.0619746 0)
  (-0.084039 0.061099 0)
  (-0.0627819 0.0637183 0)
  (-0.0337102 0.0703694 0)
  (0.0119275 0.080124 0)
  (0.0549537 0.0810909 0)
  (0.0957334 0.0683676 0)
  (0.160937 0.0427643 0)
  (-0.232536 -0.00719992 0)
)
;

boundaryField
{
  floor
  {
    type noSlip;
  }
  ceiling
  {
    type noSlip;
  }
  sWall
  {
    type noSlip;
  }
  nWall
  {
    type noSlip;
  }
  sideWalls
  {
    type empty;
  }
  glass1
  {
    type noSlip;
  }
  glass2
  {
    type noSlip;
  }
  sun
  {
    type noSlip;
  }
  heatsource1
  {
    type noSlip;
  }
  heatsource2
  {
    type noSlip;
  }
  Table_master
  {
    type noSlip;
  }
  Table_slave
  {
    type noSlip;
  }
  inlet
  {
    type fixedValue;
    value uniform (0.277164 -0.114805 0);
  }
  outlet
  {
    type zeroGradient;
  }
} 	// ************************************************************************* //

