/*--------------------------------*- C++ -*----------------------------------*\
  =========                 |
  \\      /  F ield         | OpenFOAM: The Open Source CFD Toolbox
   \\    /   O peration     | Website:  https://openfoam.org
    \\  /    A nd           | Version:  6
     \\/     M anipulation  |
\*---------------------------------------------------------------------------*/
FoamFile
{
    version     2.0;
    format      ascii;
    class       volScalarField;
    location    "110";
    object      nut;
}
// * * * * * * * * * * * * * * * * * * * * * * * * * * * * * * * * * * * * * //

dimensions      [0 2 -1 0 0 0 0];

internalField   nonuniform List<scalar> 
459
(
0.00207117
0.00235286
0.00230793
0.00216384
0.00200525
0.00186054
0.00173467
0.00162214
0.00151948
0.00142401
0.00133329
0.00124462
0.00115431
0.00105565
0.000948301
0.000634685
0.000837356
0.000879036
0.00088958
0.000863771
0.000825413
0.000773741
0.000723375
0.00067881
0.000640211
0.00060679
0.000577625
0.000551821
0.000528966
0.000507662
0.000486349
0.000464014
0.000430563
0.00042251
0.00243136
0.00738846
0.00654767
0.00580663
0.00525046
0.00482306
0.0044424
0.00409696
0.00376975
0.00344526
0.00310681
0.00273766
0.00232558
0.00186365
0.00139188
0.000917501
0.000796334
0.00098476
0.00315354
0.00282624
0.00300273
0.0031655
0.00305859
0.00228767
0.00190584
0.0016542
0.00147408
0.00134058
0.00124026
0.00116375
0.00108293
0.000992551
0.000906553
0.000889437
0.000840297
0.0005427
0.00256367
0.00925539
0.00722659
0.00602877
0.00542942
0.00514909
0.00497147
0.00479869
0.00458427
0.00430764
0.00395863
0.0035342
0.00303948
0.00249067
0.00192852
0.00139412
0.000813123
0.000959668
0.00299471
0.00309716
0.00356231
0.00393818
0.00368402
0.00104686
0.000918194
0.000815189
0.000732567
0.000665941
0.000611993
0.000568427
0.000535164
0.000512546
0.000595025
0.00079202
0.00104503
0.000618527
0.00254404
0.00914259
0.00665431
0.00522963
0.00489195
0.00501329
0.00511883
0.0051138
0.00499429
0.00476533
0.00443466
0.00401956
0.00353526
0.00300346
0.00244649
0.00189132
0.00127135
0.000852628
0.00173318
0.00253483
0.00353973
0.00440741
0.00493103
0.00456235
0.00116283
0.00107165
0.00100039
0.000939666
0.000883432
0.000827884
0.000770303
0.000708177
0.000636116
0.000605851
0.000760692
0.00125918
0.000713031
0.00249588
0.00777647
0.00570539
0.00475601
0.00504563
0.00532371
0.005447
0.00547275
0.00539603
0.00521643
0.00493467
0.00458386
0.00417627
0.00373772
0.00329061
0.0028881
0.00258695
0.00285971
0.00377334
0.00477322
0.00559836
0.00617379
0.00648681
0.00643434
0.0055047
0.00498894
0.00451294
0.00403906
0.00355459
0.00305466
0.00253864
0.00201022
0.00146902
0.00102915
0.000916822
0.00124811
0.00103428
0.000766453
0.000818798
0.00117784
0.00241054
0.0062321
0.00473808
0.00473923
0.00549833
0.00579373
0.00588163
0.00590259
0.00586309
0.00576543
0.00561562
0.00542428
0.00519157
0.00495191
0.00475925
0.00470688
0.00490288
0.00564835
0.00640452
0.00699911
0.00741341
0.00765012
0.00773036
0.00765186
0.00733644
0.00688197
0.00630972
0.0056597
0.00495888
0.00422452
0.00347126
0.00271928
0.00200297
0.00143763
0.00119777
0.00122995
0.00116798
0.00123848
0.00185914
0.00157348
0.00228873
0.00495523
0.00410061
0.00471182
0.0055284
0.00579491
0.00582313
0.00581485
0.00580477
0.00581816
0.00585339
0.00590408
0.00596089
0.00603025
0.00616803
0.0064391
0.0068945
0.00750576
0.00795778
0.00825185
0.00839338
0.00840009
0.00830119
0.00810586
0.00777573
0.00731972
0.00674813
0.00607731
0.00534616
0.00457645
0.00379511
0.00303764
0.00235261
0.00182173
0.00150804
0.00134134
0.00127277
0.0016918
0.0032155
0.00215561
0.00213271
0.00375108
0.00366127
0.00495497
0.00539676
0.00552222
0.00547209
0.00546682
0.00553042
0.00563783
0.00578116
0.00596305
0.00618487
0.00645676
0.0068013
0.00723887
0.00771637
0.00814055
0.00841855
0.00852839
0.00847841
0.00829239
0.00799688
0.00760546
0.00718146
0.00671332
0.00618466
0.00559274
0.00495513
0.00429547
0.00364465
0.00303927
0.00251824
0.00212537
0.00187358
0.00172712
0.00157971
0.00215574
0.00563088
0.00298563
0.00188719
0.00193056
0.00304454
0.00615039
0.00618309
0.00602023
0.00590108
0.00589652
0.00596961
0.00608908
0.00624577
0.00643794
0.00666264
0.00692226
0.00722053
0.00754826
0.00786179
0.00809047
0.00817694
0.00809347
0.00784817
0.0074713
0.00703505
0.00660248
0.00618248
0.00576845
0.00534918
0.00492427
0.00450829
0.00412536
0.0038039
0.00356967
0.00343583
0.00338718
0.00335709
0.00325345
0.00291166
0.00341867
0.00751291
0.00335752
0.00180547
0.00710189
0.0075153
0.00731205
0.00711326
0.0069812
0.00694404
0.00701963
0.00719306
0.0074021
0.00761818
0.00783136
0.0080307
0.00819489
0.00829116
0.00828933
0.00818545
0.00799198
0.00773065
0.00744543
0.00715813
0.00688146
0.00662124
0.00637931
0.00615926
0.00596984
0.00582499
0.00574114
0.00573293
0.00580573
0.00594239
0.00608421
0.00612002
0.0059234
0.0054682
0.00560842
0.0080854
0.00286993
0.00279472
0.00890285
0.00926244
0.00889182
0.00860934
0.00838066
0.00817503
0.00812508
0.00831348
0.00854166
0.00875118
0.00893409
0.00908688
0.0091968
0.00923931
0.00918511
0.0090388
0.00885673
0.00866024
0.00846397
0.00827502
0.00809696
0.0079329
0.00778757
0.00766799
0.00758328
0.00754429
0.0075625
0.00764749
0.00780023
0.00799791
0.00816827
0.00817054
0.00786165
0.00727751
0.00677658
0.00630404
0.00241246
0.00114664
0.000948452
0.00139743
0.00208668
0.00224101
0.00223744
0.00220098
0.00215482
0.00209955
0.00206604
0.0020779
0.00209408
0.00210743
0.00211797
0.00212536
0.00212834
0.00212585
0.00211947
0.00211166
0.00210055
0.00208797
0.00207489
0.0020624
0.00205126
0.002042
0.00203509
0.00203104
0.00203045
0.00203394
0.00204195
0.00205435
0.00206942
0.00208237
0.0020845
0.00206944
0.0020519
0.00207323
0.00215563
0.00221519
0.00201008
)
;

boundaryField
{
    floor
    {
        type            nutkWallFunction;
        Cmu             0.09;
        kappa           0.41;
        E               9.8;
        value           nonuniform List<scalar> 
29
(
0.000114626
7.66773e-05
0.000101397
0.000106399
0.000107661
0.00010458
9.99784e-05
9.37388e-05
8.7609e-05
8.21431e-05
7.73741e-05
7.3217e-05
6.95667e-05
6.63185e-05
6.34258e-05
6.07157e-05
5.79904e-05
5.5118e-05
5.0782e-05
4.97226e-05
4.97225e-05
6.51412e-05
7.46483e-05
8.63068e-05
0.000114626
7.66772e-05
0.000118923
0.000115963
0.000103237
)
;
    }
    ceiling
    {
        type            nutkWallFunction;
        Cmu             0.09;
        kappa           0.41;
        E               9.8;
        value           nonuniform List<scalar> 
43
(
0.000137907
0.000114664
0.000166655
0.000243054
0.000259734
0.000259328
0.00025537
0.000250356
0.000244343
0.000240702
0.000241995
0.000243752
0.000245203
0.000246346
0.000247147
0.000247472
0.000247202
0.000246511
0.000245665
0.000244459
0.000243093
0.000241672
0.000240314
0.000239101
0.000238093
0.00023734
0.000236899
0.000236833
0.00023721
0.00023808
0.000239426
0.00024106
0.000242462
0.000242689
0.000241048
0.00023914
0.000241463
0.000250404
0.000256846
0.000234613
0.000221072
0.00022581
0.000318604
)
;
    }
    sWall
    {
        type            nutkWallFunction;
        Cmu             0.09;
        kappa           0.41;
        E               9.8;
        value           uniform 0.000137901;
    }
    nWall
    {
        type            nutkWallFunction;
        Cmu             0.09;
        kappa           0.41;
        E               9.8;
        value           nonuniform List<scalar> 6(0.000141438 0.000186378 0.000250362 0.000326461 0.000278021 0.000234609);
    }
    sideWalls
    {
        type            empty;
    }
    glass1
    {
        type            nutkWallFunction;
        Cmu             0.09;
        kappa           0.41;
        E               9.8;
        value           nonuniform List<scalar> 9(0.000241032 0.000279776 0.000293851 0.000291768 0.000286647 0.000277549 0.000264505 0.000247691 0.000220965);
    }
    glass2
    {
        type            nutkWallFunction;
        Cmu             0.09;
        kappa           0.41;
        E               9.8;
        value           nonuniform List<scalar> 2(0.000338358 0.000376997);
    }
    sun
    {
        type            nutkWallFunction;
        Cmu             0.09;
        kappa           0.41;
        E               9.8;
        value           nonuniform List<scalar> 
14
(
0.000241168
0.000271545
0.00026673
0.000251213
0.000234007
0.000218178
0.000204304
0.000191807
0.000180324
0.000169569
0.000159275
0.000149137
0.00013873
0.000127253
)
;
    }
    heatsource1
    {
        type            nutkWallFunction;
        Cmu             0.09;
        kappa           0.41;
        E               9.8;
        value           nonuniform List<scalar> 3(9.28209e-05 9.91381e-05 0.000141453);
    }
    heatsource2
    {
        type            nutkWallFunction;
        Cmu             0.09;
        kappa           0.41;
        E               9.8;
        value           nonuniform List<scalar> 4(0.00011098 9.64631e-05 9.64631e-05 9.84904e-05);
    }
    Table_master
    {
        type            nutkWallFunction;
        Cmu             0.09;
        kappa           0.41;
        E               9.8;
        value           nonuniform List<scalar> 9(0.000126254 0.000111077 9.87492e-05 8.87284e-05 8.05499e-05 7.38557e-05 6.83977e-05 6.4196e-05 6.13207e-05);
    }
    Table_slave
    {
        type            nutkWallFunction;
        Cmu             0.09;
        kappa           0.41;
        E               9.8;
        value           nonuniform List<scalar> 9(0.000139754 0.000129157 0.000120803 0.000113629 0.000106938 0.00010028 9.33227e-05 8.57465e-05 7.68583e-05);
    }
    inlet
    {
        type            calculated;
        value           uniform 6.7082e-05;
    }
    outlet
    {
        type            calculated;
        value           nonuniform List<scalar> 2(0.00114664 0.000948452);
    }
}


// ************************************************************************* //
