/*--------------------------------*- C++ -*----------------------------------*\
  =========                 |
  \\      /  F ield         | OpenFOAM: The Open Source CFD Toolbox
   \\    /   O peration     | Website:  https://openfoam.org
    \\  /    A nd           | Version:  6
     \\/     M anipulation  |
\*---------------------------------------------------------------------------*/
FoamFile
{
    version     2.0;
    format      ascii;
    class       surfaceScalarField;
    location    "650";
    object      phi;
}
// * * * * * * * * * * * * * * * * * * * * * * * * * * * * * * * * * * * * * //

dimensions      [1 0 -1 0 0 0 0];

internalField   nonuniform List<scalar> 
852
(
-0.00231683
0.00235188
-0.00315549
0.000838659
-0.00382591
0.000670409
-0.00436225
0.000536332
-0.00473539
0.000373144
-0.00492
0.000184596
-0.00488842
-3.15831e-05
-0.00461083
-0.000277593
-0.00408087
-0.000529961
-0.00333763
-0.000743252
-0.00246079
-0.00087684
-0.00155357
-0.000907225
-0.000730142
-0.000823435
-0.000124564
-0.000605583
-0.000127073
5.97345e-05
-6.33268e-05
0.000280756
-0.000221027
0.000651092
-0.00037034
0.00100035
-0.000349263
0.00128058
-0.000280238
0.00148262
-0.000202043
0.00159003
-0.000107414
0.00163084
-4.08196e-05
0.00164595
-1.51177e-05
0.00164991
-3.96121e-06
0.00164522
4.68314e-06
0.00163155
1.36636e-05
0.00160422
2.73258e-05
0.00154928
5.49357e-05
0.0014334
0.000115873
0.00119878
0.00023461
0.000792464
0.000406309
0.000122971
0.000669486
0.000117887
-0.00171086
0.00415867
-0.00254254
0.00167032
-0.00324414
0.001372
-0.00378459
0.00107678
-0.00416119
0.000749739
-0.00435763
0.000381023
-0.00434561
-4.36002e-05
-0.00409829
-0.000524918
-0.00361617
-0.00101209
-0.00295029
-0.00140914
-0.00218625
-0.00164089
-0.00142313
-0.00167035
-0.000757054
-0.00148951
-0.000255131
-0.00110751
0.000162452
-0.000544661
0.000234287
-7.18905e-05
0.000234231
-8.35627e-05
1.15565e-05
0.000584748
-0.000889343
0.000950716
-0.000736314
0.00122238
-0.000620928
0.0014366
-0.000494465
0.00158612
-0.000351571
0.00161931
-0.000140611
0.00162733
-4.88433e-05
0.0016353
-2.30969e-05
0.00164184
-1.05015e-05
0.00164588
6.38471e-07
0.00164735
1.21844e-05
0.00164528
2.93866e-05
0.00163503
6.51819e-05
0.00158226
0.000168636
0.00137655
0.000440314
0.00102251
0.000760342
0.000618702
0.00107329
0.000723063
-0.00124453
0.00555163
-0.00197202
0.00239781
-0.00261575
0.00201573
-0.0031009
0.00156193
-0.00345143
0.00110026
-0.00364912
0.000578711
-0.00365473
-3.79914e-05
-0.00342519
-0.000754469
-0.00296996
-0.00146732
-0.00236159
-0.00201751
-0.00168991
-0.00231258
-0.00103917
-0.00232109
-0.00047507
-0.00205362
-4.24233e-05
-0.00154016
0.00028628
-0.00087337
0.000411646
-0.000197262
0.000645873
0.000965946
-0.000966948
0.00107098
-0.000994383
0.00128135
-0.000946691
0.00143762
-0.000777204
0.00155529
-0.000612138
0.00169408
-0.000490369
0.00155362
0.00150492
0.00148197
0.00147162
0.0014724
0.00148473
0.00151427
0.00157959
0.00174838
0.0015386
0.000650086
0.00127935
0.00101958
0.000888357
0.00146428
0.00159001
-0.000905122
0.00665085
-0.00148804
0.00298072
-0.00195189
0.00247957
-0.00230846
0.00191849
-0.00258381
0.00137561
-0.00275289
0.000747781
-0.00275677
-3.41139e-05
-0.00252298
-0.000988261
-0.00208734
-0.00190297
-0.00155211
-0.00255274
-0.000997504
-0.00286719
-0.000480508
-0.00283809
-3.1584e-05
-0.00250255
0.000350899
-0.00192265
0.000710709
-0.00123319
0.00108984
-0.0005764
0.00184943
-0.000113722
0.00216508
-0.000327919
0.00196624
-0.000768107
0.00178854
-0.00081669
0.00162573
-0.00078389
0.00153394
-0.000685422
0.00148463
-0.00056283
0.0014083
-0.000414042
0.00160781
-0.000199671
0.00173895
-0.000131303
0.00185244
-0.000113645
0.00195601
-0.00010373
0.00204236
-8.65132e-05
0.00209441
-5.22011e-05
0.00208176
1.24862e-05
0.00196066
0.000120936
0.001662
0.000298504
0.00162416
0.000687913
0.0014951
0.00114864
0.00126813
0.00169124
0.0028303
-0.000654373
0.00753889
-0.00109364
0.00341998
-0.00126057
0.0026465
-0.00141982
0.00207775
-0.00156
0.00151578
-0.00164841
0.000836186
-0.00160473
-7.78035e-05
-0.00133713
-0.00125586
-0.000943649
-0.00229646
-0.000531602
-0.00296479
-0.000148077
-0.00325072
0.000182751
-0.00316892
0.000457488
-0.00277729
0.000713042
-0.00217821
0.000982865
-0.00150302
0.00129813
-0.000891669
0.00167531
-0.00049091
0.00182769
-0.000480302
0.001665
-0.000605428
0.00149874
-0.000650438
0.00134345
-0.000628605
0.00122576
-0.00056773
0.00114848
-0.000485563
0.00111921
-0.000384772
0.00119644
-0.000276915
0.00128827
-0.000223133
0.00138237
-0.000207756
0.00147802
-0.000199381
0.0015702
-0.000178705
0.00164882
-0.000130823
0.00169757
-3.62715e-05
0.00169856
0.000119932
0.00165379
0.000343268
0.00167117
0.000670529
0.00178619
0.00103362
0.00222099
0.00125643
0.00337466
0.00167662
0.0021925
0.00118196
0.0013113
0.000880984
0.00135448
-0.000565229
0.00837176
-0.000851556
0.0037063
-0.000593578
0.00238851
-0.000485229
0.00196939
-0.000446051
0.0014766
-0.000383183
0.000773313
-0.000185504
-0.000275488
0.000122477
-0.00156385
0.000413115
-0.0025871
0.000638953
-0.00319063
0.000790033
-0.0034018
0.000880039
-0.00325893
0.000936659
-0.00283392
0.000987604
-0.00222916
0.00105837
-0.00157379
0.00116305
-0.000996348
0.00128215
-0.000610021
0.00128238
-0.000480538
0.00115817
-0.000481222
0.00100266
-0.000494931
0.000857293
-0.000483245
0.000742305
-0.000452749
0.000668307
-0.000411572
0.000646446
-0.000362918
0.000686026
-0.000316501
0.00075897
-0.000296084
0.000845898
-0.000294691
0.000939619
-0.000293109
0.00103714
-0.000276236
0.00113712
-0.000230813
0.00123925
-0.000138407
0.00133324
2.59327e-05
0.00141558
0.000260922
0.00153789
0.000548208
0.00173206
0.000839441
0.00195932
0.00102917
0.00225348
0.00138244
0.00197723
0.0014582
0.00119954
0.00165867
0.00259839
-0.000686518
0.00935592
-0.000570789
0.00359057
0.00021646
0.00160126
0.00056194
0.00162391
0.000781301
0.00125723
0.00109454
0.000460063
0.00148746
-0.000668409
0.00177094
-0.00184734
0.00188825
-0.00270441
0.00186825
-0.00317063
0.00173971
-0.00327327
0.00154447
-0.0030637
0.00132639
-0.00261584
0.00111979
-0.00202257
0.000951838
-0.00140584
0.000834425
-0.000878942
0.000758742
-0.000534344
0.000663051
-0.000384854
0.000533096
-0.000351273
0.000390866
-0.000352707
0.000261233
-0.000353619
0.000159039
-0.000350562
9.34753e-05
-0.000346015
7.19057e-05
-0.000341356
9.54682e-05
-0.000340071
0.000148465
-0.000349088
0.000215626
-0.00036186
0.000289966
-0.000367457
0.000370913
-0.000357191
0.000464106
-0.000324014
0.000582255
-0.000256564
0.000736507
-0.000128327
0.000911378
8.60435e-05
0.0011042
0.000355378
0.00132597
0.000617661
0.00152263
0.000832502
0.00176737
0.0011377
0.00189778
0.00132778
0.00162798
0.00192846
0.00427257
0.00177536
0.007913
0.00227548
0.00309044
0.00230821
0.00156852
0.00244213
0.00148998
0.00267468
0.00102468
0.00310423
3.04995e-05
0.00351069
-0.00107487
0.0036114
-0.00194805
0.00342738
-0.00252039
0.00304472
-0.00278796
0.00254629
-0.00277484
0.00200422
-0.00252164
0.00147862
-0.00209024
0.00100617
-0.00155013
0.000620263
-0.00101994
0.000330832
-0.000589518
0.000137651
-0.000341171
-8.48713e-06
-0.000238722
-0.00014104
-0.000218727
-0.00026496
-0.000228794
-0.00037377
-0.000244816
-0.000460745
-0.000263594
-0.000521559
-0.000285208
-0.000553762
-0.00030916
-0.00055866
-0.000335181
-0.000545118
-0.000362638
-0.000521504
-0.000385481
-0.000493028
-0.00039594
-0.000462151
-0.000388076
-0.000425841
-0.000360331
-0.000367141
-0.000315272
-0.000248567
-0.000246909
-4.79916e-05
-0.000114539
0.000198526
0.000108853
0.000452345
0.000363835
0.000672211
0.000612628
0.000927452
0.000882452
0.00115577
0.00109945
0.000735159
0.00234907
0.00520026
0.00825718
0.011326
0.00947693
0.0034176
0.0084744
0.0024925
0.0078524
0.00164668
0.0072815
0.000601399
0.00654746
-0.000340839
0.00568769
-0.00108828
0.00475472
-0.00158742
0.00379369
-0.00182694
0.00284479
-0.00182594
0.00195236
-0.00162922
0.00116693
-0.00130482
0.000506194
-0.00088941
2.18207e-06
-0.000515938
-0.000331857
-0.000255486
-0.000534813
-0.000138223
-0.00067243
-0.000101113
-0.000784352
-0.000106812
-0.000884433
-0.000128721
-0.000976132
-0.000153126
-0.0010587
-0.000181038
-0.00113164
-0.000212268
-0.00119495
-0.000245858
-0.0012495
-0.000280645
-0.00129804
-0.000314099
-0.00134342
-0.000340109
-0.00138991
-0.000349457
-0.00144709
-0.000330911
-0.0015328
-0.000274625
-0.00166496
-0.000183119
-0.00185121
-6.06687e-05
-0.00208908
0.000123326
-0.00237747
0.000397233
-0.00278983
0.00077619
-0.00346242
0.00128521
-0.00453324
0.00195326
-0.00605944
0.00262565
-0.00628837
0.00257798
-0.000879654
0.00612052
0.00359379
0.00550424
0.00310879
0.00549787
0.00165305
0.00539903
0.00070025
0.00504344
1.47549e-05
0.00445769
-0.000502525
0.00368166
-0.000811393
0.00278979
-0.000935068
0.00185505
-0.000891207
0.00095282
-0.000726997
0.000163883
-0.000515888
-0.00043322
-0.000292317
-0.000810159
-0.000139008
-0.00101862
-4.70353e-05
-0.00114468
-1.21727e-05
-0.00123351
-1.22866e-05
-0.00130983
-3.05012e-05
-0.00138403
-5.45238e-05
-0.00146311
-7.40559e-05
-0.00154892
-9.52371e-05
-0.00164349
-0.00011771
-0.00174852
-0.000140835
-0.00186484
-0.000164327
-0.00199177
-0.000187179
-0.00212602
-0.000205865
-0.00226241
-0.000213081
-0.00239696
-0.000196361
-0.00253412
-0.000137472
-0.0026784
-3.8847e-05
-0.00282862
8.95397e-05
-0.00296741
0.000262112
-0.00308403
0.00051384
-0.00317734
0.000869496
-0.00323631
0.00134417
-0.00322384
0.00194079
-0.00303165
0.00243345
-0.00143146
0.000977786
-0.00226334
0.000557583
0.0030232
0.00180736
0.00185902
0.00232055
0.00113986
0.00247655
0.000544252
0.00235593
0.000135381
0.00197722
-0.000123818
0.00143305
-0.000267236
0.000778794
-0.000280817
0.000123203
-0.000235628
-0.000452617
-0.000151189
-0.000907947
-6.05687e-05
-0.00120628
6.00484e-06
-0.00138422
3.89299e-05
-0.00148003
4.87661e-05
-0.00153565
4.34369e-05
-0.00157917
3.12202e-05
-0.00162618
1.65061e-05
-0.00168165
9.3314e-07
-0.00174214
-1.3571e-05
-0.00181086
-2.65219e-05
-0.00189084
-3.77407e-05
-0.00198565
-4.60279e-05
-0.00209992
-5.00656e-05
-0.00223835
-4.87602e-05
-0.00240292
-4.13067e-05
-0.0025889
-2.7108e-05
-0.00277932
-5.94542e-06
-0.00294199
2.51874e-05
-0.00304847
6.76236e-05
-0.00309416
0.000135232
-0.00306484
0.000232776
-0.00292221
0.000371207
-0.00262301
0.00057029
-0.00211008
0.000831231
-0.00120111
0.00103181
0.000310214
0.000922128
0.00136634
-7.83514e-05
-0.000847668
-0.00593851
-0.00720266
-0.00419968
-0.00236386
-0.00124997
-0.00073468
-0.000631451
-0.000789726
-0.00109238
-0.00140921
-0.0016814
-0.00186998
-0.00196915
-0.00200305
-0.00200496
-0.00199769
-0.00199614
-0.00200707
-0.00203292
-0.00207453
-0.00213075
-0.0022
-0.00228052
-0.00236938
-0.0024624
-0.00255439
-0.00263946
-0.00271116
-0.00276284
-0.00278465
-0.00276533
-0.00267962
-0.00249741
-0.00217753
-0.001659
-0.000879692
0.000100112
0.00096976
0.000838974
)
;

boundaryField
{
    floor
    {
        type            calculated;
        value           nonuniform List<scalar> 
29
(
0
0
0
0
0
0
0
0
0
0
0
0
0
0
0
0
0
0
0
0
5.07755e-06
1.35201e-05
2.14052e-05
2.78353e-05
2.50631e-06
3.58697e-06
8.67402e-06
1.25539e-05
1.22623e-05
)
;
    }
    ceiling
    {
        type            calculated;
        value           nonuniform List<scalar> 
43
(
2.24798e-05
2.09336e-05
2.02164e-05
2.32064e-05
2.59687e-05
2.89532e-05
3.21378e-05
3.44413e-05
3.54034e-05
3.59977e-05
3.65508e-05
3.738e-05
3.85973e-05
3.9893e-05
4.08369e-05
4.1485e-05
4.18809e-05
4.214e-05
4.23493e-05
4.25354e-05
4.26439e-05
4.27176e-05
4.27668e-05
4.28238e-05
4.29486e-05
4.3226e-05
4.37498e-05
4.45888e-05
4.57279e-05
4.69889e-05
4.82956e-05
4.95165e-05
5.05527e-05
5.13198e-05
5.17604e-05
5.19107e-05
5.19962e-05
5.24727e-05
5.24274e-05
5.41761e-05
2.66975e-05
2.15995e-05
1.30064e-05
)
;
    }
    sWall
    {
        type            calculated;
        value           uniform -0.000173133;
    }
    nWall
    {
        type            calculated;
        value           nonuniform List<scalar> 6(-4.33898e-05 -4.43729e-05 -4.62048e-05 -4.77869e-05 -4.93318e-05 -6.28767e-05);
    }
    sideWalls
    {
        type            empty;
        value           nonuniform 0();
    }
    glass1
    {
        type            calculated;
        value           nonuniform List<scalar> 9(-3.50541e-05 -9.59324e-05 -0.000148435 -0.000194102 -0.000233664 -0.000267653 -0.000297642 -0.000332445 -0.000370882);
    }
    glass2
    {
        type            calculated;
        value           nonuniform List<scalar> 2(-0.000192536 -0.000208462);
    }
    sun
    {
        type            calculated;
        value           uniform 0;
    }
    heatsource1
    {
        type            calculated;
        value           nonuniform List<scalar> 3(2.03063e-07 2.03579e-07 2.03939e-07);
    }
    heatsource2
    {
        type            calculated;
        value           nonuniform List<scalar> 4(5.10977e-08 5.11521e-08 0 0);
    }
    Table_master
    {
        type            calculated;
        value           nonuniform List<scalar> 9(-1.52779e-07 -1.52875e-07 -1.52902e-07 -1.52918e-07 -1.52928e-07 -1.5293e-07 -1.52926e-07 -1.52909e-07 -1.52859e-07);
    }
    Table_slave
    {
        type            calculated;
        value           nonuniform List<scalar> 9(1.52706e-07 1.52714e-07 1.52676e-07 1.5264e-07 1.52609e-07 1.52591e-07 1.52593e-07 1.52603e-07 1.52653e-07);
    }
    inlet
    {
        type            calculated;
        value           uniform -0.00629671;
    }
    outlet
    {
        type            calculated;
        value           nonuniform List<scalar> 2(0.00608916 0.00124322);
    }
}


// ************************************************************************* //
