// -*- C++ -*-
// File generated by PyFoam - sorry for the ugliness

FoamFile
{
 version 2.0;
 format ascii;
 class volVectorField;
 location "650";
 object U;
}

dimensions [ 0 1 -1 0 0 0 0 ];

internalField nonuniform List<vector> 459
(
  (0.0254032 0.0673314 0)
  (-0.130993 0.0207462 0)
  (-0.152352 0.0151001 0)
  (-0.178676 0.0105946 0)
  (-0.198426 0.00556558 0)
  (-0.210646 0.00012781 0)
  (-0.213869 -0.00582883 0)
  (-0.206428 -0.0124359 0)
  (-0.188147 -0.0194387 0)
  (-0.159881 -0.0256728 0)
  (-0.124502 -0.029941 0)
  (-0.0863222 -0.03131 0)
  (-0.0504788 -0.0289527 0)
  (-0.0207159 -0.0213209 0)
  (0.0343526 -0.00174078 0)
  (-0.0999754 0.00643765 0)
  (0.0319841 -0.0087202 0)
  (0.02351 -0.0118505 0)
  (0.0347445 -0.0114136 0)
  (0.0486902 -0.00948298 0)
  (0.0599015 -0.0069695 0)
  (0.0668401 -0.00401521 0)
  (0.070063 -0.00234591 0)
  (0.0710425 -0.00176058 0)
  (0.071172 -0.00156951 0)
  (0.0710326 -0.00143033 0)
  (0.0706375 -0.00123914 0)
  (0.0698051 -0.000895835 0)
  (0.0681504 -0.000164865 0)
  (0.0648085 0.00150828 0)
  (0.0580492 0.00506865 0)
  (0.0469002 0.0103852 0)
  (7.69896e-05 0.0202672 0)
  (0.089104 -0.00225977 0)
  (0.160543 0.138149 0)
  (-0.124624 0.0546103 0)
  (-0.126041 0.0446146 0)
  (-0.153623 0.0356146 0)
  (-0.173467 0.0252035 0)
  (-0.186091 0.0132762 0)
  (-0.190136 -0.000587824 0)
  (-0.183754 -0.0164848 0)
  (-0.16721 -0.0327193 0)
  (-0.141696 -0.0463424 0)
  (-0.110345 -0.0547729 0)
  (-0.0771865 -0.0565041 0)
  (-0.0464411 -0.05092 0)
  (-0.0213845 -0.0380484 0)
  (0.000229939 -0.0164042 0)
  (0.00980309 0.0014171 0)
  (0.00901375 0.0159315 0)
  (-0.123265 0.00615735 0)
  (0.0361298 -0.0298278 0)
  (0.0360881 -0.0267978 0)
  (0.0462416 -0.0225269 0)
  (0.0571773 -0.0177011 0)
  (0.0655581 -0.0122737 0)
  (0.0697504 -0.00471094 0)
  (0.0705846 -0.000261005 0)
  (0.0704538 0.00148593 0)
  (0.0705385 0.00218768 0)
  (0.0707938 0.00263981 0)
  (0.0709624 0.00307096 0)
  (0.0709785 0.0037343 0)
  (0.0707831 0.00512395 0)
  (0.0697616 0.00842796 0)
  (0.065142 0.0170394 0)
  (0.0562171 0.0263277 0)
  (0.0114093 0.037535 0)
  (0.133093 0.0232001 0)
  (0.285623 0.20771 0)
  (-0.138601 0.0874428 0)
  (-0.0973879 0.072751 0)
  (-0.12485 0.0565036 0)
  (-0.143145 0.0391243 0)
  (-0.155553 0.0195854 0)
  (-0.160296 -0.00299921 0)
  (-0.154299 -0.0284944 0)
  (-0.138443 -0.0541017 0)
  (-0.114732 -0.0745209 0)
  (-0.0867201 -0.0859296 0)
  (-0.0580789 -0.086711 0)
  (-0.0320657 -0.076827 0)
  (-0.0106997 -0.0571192 0)
  (0.00640565 -0.0295911 0)
  (0.0173084 -0.00414569 0)
  (0.018093 0.0277987 0)
  (-0.0128762 -0.0323113 0)
  (0.041847 -0.0413522 0)
  (0.0538653 -0.0388537 0)
  (0.058875 -0.0323747 0)
  (0.0643503 -0.0256887 0)
  (0.069339 -0.0204794 0)
  (0.0713976 -0.0153409 0)
  (0.0673768 -0.0102435 0)
  (0.0641436 -0.00757219 0)
  (0.0631212 -0.00610585 0)
  (0.0631659 -0.00514904 0)
  (0.0636052 -0.00437624 0)
  (0.0644939 -0.00354347 0)
  (0.0665712 -0.00216295 0)
  (0.0715983 0.00219402 0)
  (0.0722934 0.0224545 0)
  (0.0658171 0.0384491 0)
  (0.0200562 0.0552286 0)
  (0.158338 0.0546123 0)
  (0.400367 0.264431 0)
  (-0.166324 0.116669 0)
  (-0.0656875 0.0975053 0)
  (-0.0927722 0.0752691 0)
  (-0.107044 0.0530714 0)
  (-0.117698 0.0275961 0)
  (-0.122196 -0.00319248 0)
  (-0.115096 -0.0388651 0)
  (-0.0990372 -0.0739513 0)
  (-0.0775475 -0.100274 0)
  (-0.0539874 -0.113742 0)
  (-0.0310888 -0.113371 0)
  (-0.0109009 -0.100177 0)
  (0.00703241 -0.0754631 0)
  (0.0226417 -0.0460036 0)
  (0.0393482 -0.0171782 0)
  (0.0590978 0.00886231 0)
  (0.0887585 -0.0405331 0)
  (0.0920519 -0.0409578 0)
  (0.0827546 -0.0414935 0)
  (0.0732402 -0.0388504 0)
  (0.0672655 -0.0329752 0)
  (0.0642975 -0.0264329 0)
  (0.0623434 -0.0194791 0)
  (0.0639661 -0.0120091 0)
  (0.0711028 -0.00883735 0)
  (0.0774912 -0.00717343 0)
  (0.0823304 -0.00617391 0)
  (0.0862949 -0.0052958 0)
  (0.0893222 -0.00418698 0)
  (0.090544 -0.00246958 0)
  (0.0880211 0.000424635 0)
  (0.079413 0.00506966 0)
  (0.070968 0.027282 0)
  (0.0707265 0.0472866 0)
  (0.0325001 0.0695619 0)
  (0.174117 0.102001 0)
  (0.502786 0.308718 0)
  (-0.201166 0.140434 0)
  (-0.0320517 0.113212 0)
  (-0.0578452 0.0874799 0)
  (-0.0656593 0.0627297 0)
  (-0.0723216 0.0334637 0)
  (-0.0743089 -0.00401744 0)
  (-0.0633592 -0.0493317 0)
  (-0.0471577 -0.0922839 0)
  (-0.0300026 -0.121607 0)
  (-0.0133694 -0.134958 0)
  (0.00153588 -0.132348 0)
  (0.0138679 -0.116021 0)
  (0.0247032 -0.0905636 0)
  (0.0356502 -0.061126 0)
  (0.0483653 -0.0338646 0)
  (0.064424 -0.0162391 0)
  (0.0766171 -0.0196736 0)
  (0.0773027 -0.026611 0)
  (0.0692116 -0.0301436 0)
  (0.060972 -0.0297347 0)
  (0.0547816 -0.026659 0)
  (0.0506101 -0.0223967 0)
  (0.0483457 -0.0171633 0)
  (0.0492293 -0.0105043 0)
  (0.0531566 -0.00724642 0)
  (0.0575052 -0.00621503 0)
  (0.0616561 -0.00575007 0)
  (0.0656835 -0.00490857 0)
  (0.0693795 -0.00302996 0)
  (0.0723229 0.000650009 0)
  (0.0737138 0.00661929 0)
  (0.0728062 0.0155522 0)
  (0.0716686 0.0312133 0)
  (0.0779602 0.0486588 0)
  (0.0666987 0.0661488 0)
  (0.134932 0.101188 0)
  (0.128092 0.0806006 0)
  (0.115725 0.0582588 0)
  (-0.157555 0.0581303 0)
  (0.58124 0.345714 0)
  (-0.237126 0.156466 0)
  (-0.00324611 0.113772 0)
  (-0.0214659 0.0921754 0)
  (-0.0216218 0.0679527 0)
  (-0.0228211 0.0379204 0)
  (-0.0168145 -0.00381892 0)
  (0.00137172 -0.0616386 0)
  (0.0154224 -0.108701 0)
  (0.0251934 -0.136234 0)
  (0.0322482 -0.146624 0)
  (0.0365166 -0.141485 0)
  (0.038903 -0.123768 0)
  (0.0406677 -0.0977438 0)
  (0.0430581 -0.0689753 0)
  (0.047099 -0.0431879 0)
  (0.0529588 -0.025929 0)
  (0.0562684 -0.0219187 0)
  (0.0536346 -0.0240579 0)
  (0.0469366 -0.0249741 0)
  (0.039875 -0.0239977 0)
  (0.0340465 -0.0218784 0)
  (0.0299055 -0.0191664 0)
  (0.0277942 -0.0159413 0)
  (0.0282199 -0.0125569 0)
  (0.0308714 -0.0110641 0)
  (0.0344645 -0.0107995 0)
  (0.0383974 -0.0106248 0)
  (0.0425075 -0.00980253 0)
  (0.0467145 -0.00771447 0)
  (0.0509547 -0.0035095 0)
  (0.0556289 0.00374312 0)
  (0.0593677 0.0139731 0)
  (0.0633493 0.0274036 0)
  (0.0715279 0.04146 0)
  (0.0726379 0.0503852 0)
  (0.0966217 0.0673366 0)
  (0.0944582 0.0541261 0)
  (0.112952 0.0522432 0)
  (-0.150388 0.0874272 0)
  (0.623596 0.378212 0)
  (-0.259224 0.145651 0)
  (0.0190457 0.0805253 0)
  (0.0224518 0.0835117 0)
  (0.0279622 0.0665461 0)
  (0.0332286 0.0321062 0)
  (0.0554113 -0.0220723 0)
  (0.0744691 -0.0772536 0)
  (0.0830024 -0.117616 0)
  (0.0836496 -0.140521 0)
  (0.0790885 -0.147056 0)
  (0.0709875 -0.139288 0)
  (0.0612587 -0.120349 0)
  (0.051614 -0.0943781 0)
  (0.0434564 -0.0667473 0)
  (0.0375916 -0.0426188 0)
  (0.0341526 -0.0263443 0)
  (0.0310213 -0.0196835 0)
  (0.0261581 -0.0185897 0)
  (0.0199794 -0.0184858 0)
  (0.0138556 -0.0180341 0)
  (0.00871526 -0.0172542 0)
  (0.00501959 -0.0163031 0)
  (0.00311363 -0.0152496 0)
  (0.00324763 -0.0143692 0)
  (0.00505437 -0.0143367 0)
  (0.00772503 -0.0147264 0)
  (0.0107908 -0.014866 0)
  (0.0141082 -0.0142665 0)
  (0.0177494 -0.0124906 0)
  (0.0220055 -0.00886985 0)
  (0.0276785 -0.00223294 0)
  (0.0355481 0.00800985 0)
  (0.0433662 0.0200198 0)
  (0.0529397 0.0317884 0)
  (0.0593819 0.0397603 0)
  (0.0726397 0.0524809 0)
  (0.0778362 0.0578583 0)
  (0.124093 0.075968 0)
  (-0.11545 0.145495 0)
  (0.714006 0.384358 0)
  (-0.0847605 0.118533 0)
  (0.0750555 0.0148318 0)
  (0.113411 0.0158457 0)
  (0.113043 0.0103294 0)
  (0.117278 -0.0241759 0)
  (0.146738 -0.0620677 0)
  (0.159307 -0.0951285 0)
  (0.155851 -0.119445 0)
  (0.141745 -0.132222 0)
  (0.121254 -0.132875 0)
  (0.0976422 -0.122404 0)
  (0.0738611 -0.103253 0)
  (0.0519729 -0.0786845 0)
  (0.0335743 -0.0536074 0)
  (0.0192359 -0.0325899 0)
  (0.00947703 -0.0192182 0)
  (0.00269245 -0.0134605 0)
  (-0.00326024 -0.0121868 0)
  (-0.00883857 -0.0123788 0)
  (-0.0139503 -0.0127696 0)
  (-0.0182372 -0.0132267 0)
  (-0.0214586 -0.013788 0)
  (-0.0234536 -0.0144656 0)
  (-0.0241861 -0.0153087 0)
  (-0.0239244 -0.0163759 0)
  (-0.0230858 -0.0173956 0)
  (-0.0219506 -0.0179988 0)
  (-0.0206697 -0.017894 0)
  (-0.0192696 -0.0169127 0)
  (-0.0175013 -0.01494 0)
  (-0.0145558 -0.0115104 0)
  (-0.00783155 -0.00544379 0)
  (0.00419723 0.00377591 0)
  (0.0147692 0.011934 0)
  (0.0233 0.0163612 0)
  (0.0349196 0.021694 0)
  (0.0446429 0.0233975 0)
  (0.12408 0.0768515 0)
  (-0.367052 0.213993 0)
  (0.833226 0.37626 0)
  (0.401813 0.26235 0)
  (0.404302 0.204771 0)
  (0.391502 0.143258 0)
  (0.355252 0.0932448 0)
  (0.330441 0.0448696 0)
  (0.300572 -0.00636757 0)
  (0.264878 -0.0506078 0)
  (0.225758 -0.0809202 0)
  (0.184415 -0.0960606 0)
  (0.142549 -0.0977523 0)
  (0.10206 -0.0886631 0)
  (0.065352 -0.0721346 0)
  (0.0338011 -0.0512003 0)
  (0.00924769 -0.0308389 0)
  (-0.00899287 -0.0149373 0)
  (-0.0194079 -0.00745702 0)
  (-0.0262907 -0.00478598 0)
  (-0.0315179 -0.00454468 0)
  (-0.0360564 -0.0052213 0)
  (-0.0401929 -0.00614935 0)
  (-0.0439576 -0.00725754 0)
  (-0.0473092 -0.00853355 0)
  (-0.0502293 -0.00994015 0)
  (-0.0527407 -0.0114346 0)
  (-0.0549426 -0.012943 0)
  (-0.0569581 -0.014271 0)
  (-0.0589084 -0.0151887 0)
  (-0.0610517 -0.015503 0)
  (-0.0639629 -0.0150429 0)
  (-0.0684811 -0.0134784 0)
  (-0.0752977 -0.00971847 0)
  (-0.0848495 -0.00176359 0)
  (-0.0955149 0.0106959 0)
  (-0.109321 0.0272579 0)
  (-0.132779 0.0493823 0)
  (-0.165395 0.0788864 0)
  (-0.207073 0.113287 0)
  (-0.275191 0.146321 0)
  (-0.55029 0.168842 0)
  (0.124713 0.0620611 0)
  (0.218411 0.0895894 0)
  (0.247075 0.0634224 0)
  (0.239205 0.0252 0)
  (0.22614 -0.00815443 0)
  (0.205645 -0.034647 0)
  (0.176681 -0.0526159 0)
  (0.140313 -0.0613844 0)
  (0.100116 -0.0613281 0)
  (0.0594338 -0.0534114 0)
  (0.0226824 -0.0400034 0)
  (-0.0089967 -0.0225247 0)
  (-0.0288172 -0.00865597 0)
  (-0.0405344 -9.21647e-05 0)
  (-0.0471416 0.003769 0)
  (-0.0514524 0.00485625 0)
  (-0.0548659 0.00449523 0)
  (-0.0580504 0.00358189 0)
  (-0.061321 0.00261674 0)
  (-0.0648521 0.00161011 0)
  (-0.0687169 0.000687685 0)
  (-0.0729983 4.92709e-06 0)
  (-0.0777609 -0.000271837 0)
  (-0.0830238 8.11586e-05 0)
  (-0.0887065 0.00140513 0)
  (-0.0945978 0.00411646 0)
  (-0.100447 0.008569 0)
  (-0.106245 0.0147271 0)
  (-0.112358 0.0213821 0)
  (-0.119144 0.0264705 0)
  (-0.125441 0.0311459 0)
  (-0.130611 0.0383971 0)
  (-0.134753 0.0504295 0)
  (-0.137645 0.0682673 0)
  (-0.136664 0.0900677 0)
  (-0.127307 0.10156 0)
  (-0.114032 0.059753 0)
  (-0.195171 -0.169634 0)
  (0.0156484 0.163983 0)
  (0.0705624 0.107538 0)
  (0.0893931 0.0458379 0)
  (0.101086 -0.00407304 0)
  (0.102048 -0.0426825 0)
  (0.0954749 -0.0620813 0)
  (0.0755647 -0.0674611 0)
  (0.0486667 -0.0677634 0)
  (0.019572 -0.065408 0)
  (-0.00931612 -0.0633549 0)
  (-0.0309578 -0.064412 0)
  (-0.0468912 -0.0663565 0)
  (-0.0568428 -0.0676373 0)
  (-0.0623419 -0.0695472 0)
  (-0.0652513 -0.071814 0)
  (-0.0671908 -0.074097 0)
  (-0.0690586 -0.0762767 0)
  (-0.0712073 -0.0781329 0)
  (-0.0736829 -0.0791869 0)
  (-0.0764565 -0.0803012 0)
  (-0.0796314 -0.0817581 0)
  (-0.0833618 -0.08383 0)
  (-0.0878397 -0.0868314 0)
  (-0.0932975 -0.0910165 0)
  (-0.0999265 -0.0963907 0)
  (-0.107682 -0.102434 0)
  (-0.116006 -0.107751 0)
  (-0.123773 -0.109793 0)
  (-0.129774 -0.107328 0)
  (-0.133308 -0.0983838 0)
  (-0.133922 -0.0829575 0)
  (-0.130164 -0.0616104 0)
  (-0.119775 -0.0350075 0)
  (-0.100528 -0.00474709 0)
  (-0.0720317 0.0243842 0)
  (-0.038773 0.0377982 0)
  (0.0886591 -0.064379 0)
  (-0.151921 -0.125977 0)
  (-0.0416831 -0.257358 0)
  (-0.313234 -0.0489148 0)
  (-0.217789 0.181068 0)
  (-0.145267 0.156179 0)
  (-0.0824887 0.150623 0)
  (-0.0458105 0.170993 0)
  (-0.0319409 0.20261 0)
  (-0.030489 0.210427 0)
  (-0.040026 0.204126 0)
  (-0.0543961 0.204125 0)
  (-0.067508 0.208367 0)
  (-0.0774511 0.215019 0)
  (-0.0834079 0.223974 0)
  (-0.0861453 0.23316 0)
  (-0.0865977 0.239083 0)
  (-0.0863059 0.244216 0)
  (-0.0860026 0.248089 0)
  (-0.0861438 0.250932 0)
  (-0.0869254 0.253026 0)
  (-0.0884131 0.254259 0)
  (-0.0905246 0.253983 0)
  (-0.0932389 0.253633 0)
  (-0.0964953 0.253664 0)
  (-0.100184 0.254644 0)
  (-0.104144 0.257263 0)
  (-0.108172 0.262131 0)
  (-0.112041 0.269496 0)
  (-0.11551 0.278824 0)
  (-0.118318 0.288324 0)
  (-0.120111 0.294664 0)
  (-0.120452 0.29701 0)
  (-0.118494 0.294209 0)
  (-0.112811 0.287107 0)
  (-0.101406 0.277515 0)
  (-0.0823743 0.267837 0)
  (-0.0558972 0.261418 0)
  (-0.0248471 0.261882 0)
  (0.0176539 0.269326 0)
  (0.13455 0.324062 0)
  (-0.294951 0.318904 0)
)
;

boundaryField
{
  floor
  {
    type noSlip;
  }
  ceiling
  {
    type noSlip;
  }
  sWall
  {
    type noSlip;
  }
  nWall
  {
    type noSlip;
  }
  sideWalls
  {
    type empty;
  }
  glass1
  {
    type noSlip;
  }
  glass2
  {
    type noSlip;
  }
  sun
  {
    type noSlip;
  }
  heatsource1
  {
    type noSlip;
  }
  heatsource2
  {
    type noSlip;
  }
  Table_master
  {
    type noSlip;
  }
  Table_slave
  {
    type noSlip;
  }
  inlet
  {
    type fixedValue;
    value uniform (0.277164 -0.114805 0);
  }
  outlet
  {
    type zeroGradient;
  }
} 	// ************************************************************************* //

