/*--------------------------------*- C++ -*----------------------------------*\
  =========                 |
  \\      /  F ield         | OpenFOAM: The Open Source CFD Toolbox
   \\    /   O peration     | Website:  https://openfoam.org
    \\  /    A nd           | Version:  6
     \\/     M anipulation  |
\*---------------------------------------------------------------------------*/
FoamFile
{
    version     2.0;
    format      ascii;
    class       surfaceScalarField;
    location    "600";
    object      phi;
}
// * * * * * * * * * * * * * * * * * * * * * * * * * * * * * * * * * * * * * //

dimensions      [1 0 -1 0 0 0 0];

internalField   nonuniform List<scalar> 
852
(
-0.000469579
0.000508026
0.00445239
-0.00492191
0.00717052
-0.00271806
0.0080077
-0.000837127
0.00784073
0.000167022
0.00707244
0.000768347
0.00582855
0.00124394
0.0041794
0.0016492
0.00213218
0.00204735
-0.00012958
0.00226323
-0.000734832
0.000605537
-0.000384231
-0.000350534
-2.48681e-05
-0.000359352
0.000100964
-0.000125828
0.000103745
-0.000332173
0.000334779
-8.77507e-05
-0.000244394
0.000232426
-0.000320154
0.000453493
-0.000221046
0.000574245
-0.000120731
0.000551018
2.32494e-05
0.00043778
0.000113264
0.000330092
0.000107715
0.000211803
0.000118316
9.1229e-05
0.0001206
-5.41502e-06
9.66647e-05
-5.69182e-05
5.15168e-05
-6.98091e-05
1.2904e-05
-4.05791e-05
-2.92194e-05
2.72592e-05
-6.783e-05
0.000236484
-0.000209201
0.000528133
-0.000291616
0.000643819
-0.000115658
0.000646922
0.00648408
-0.00587778
0.00769559
-0.00613336
0.00827121
-0.00329362
0.00835034
-0.000916211
0.00784369
0.000673724
0.00679032
0.00182176
0.00534111
0.00269318
0.00366223
0.00332813
0.00196128
0.00374842
0.000625015
0.00360048
-0.000220908
0.00145241
-0.000262285
-0.000308984
-0.000141944
-0.000479665
3.37428e-05
-0.00030151
0.000235402
-9.79133e-05
0.000234577
7.79996e-07
0.000234536
0.000505159
-0.000163406
0.000293041
-3.2245e-05
6.52153e-05
-9.23086e-05
4.36841e-05
-0.000199497
0.000129193
-0.000206222
0.000138412
1.40496e-05
7.32624e-05
0.000178435
7.11062e-05
0.000109892
7.68076e-05
0.000112635
8.78681e-05
0.000109559
0.000102001
8.25488e-05
0.000109908
4.36226e-05
0.00011654
6.2814e-06
0.000131589
-4.42599e-05
0.000139795
-7.60218e-05
0.000243804
-0.000313161
0.000368873
-0.000416641
0.000304956
-5.17097e-05
0.000960042
0.00512883
-0.0108508
0.0061728
-0.00717725
0.00611435
-0.00323511
0.00597688
-0.000778693
0.00553053
0.00112011
0.00467073
0.00268158
0.0035198
0.00384413
0.00223392
0.00461403
0.00101522
0.00496725
0.000242092
0.00437452
-5.62684e-05
0.00175172
-0.000299933
-6.51245e-05
-0.000393495
-0.000386066
-0.000337243
-0.00035775
-0.000172147
-0.000262999
-4.0741e-05
-0.000130615
0.000193806
-0.000391528
0.000237572
-0.000585583
0.000161838
-0.000699656
2.17893e-05
-0.000769499
-0.000129624
-0.000735564
-0.000240118
-0.00039018
-0.000331291
-0.000211574
-0.000101515
1.12877e-05
0.000121012
0.000203728
0.000247516
0.000253962
0.000209867
0.000134016
3.94191e-05
-0.000218495
-0.000623904
0.000246732
-0.00102122
0.000345639
-4.86481e-05
0.00286792
-0.0135058
0.00333786
-0.0076471
0.00319938
-0.00309654
0.00310901
-0.000688243
0.00275413
0.00147503
0.00209686
0.00333888
0.00129865
0.00464235
0.000465297
0.00544741
-0.000195136
0.0056279
-0.000371119
0.00455144
-0.000378308
0.00175971
-0.000694418
0.000251146
-0.000957835
-0.000122615
-0.00112841
-0.000187156
-0.00124559
-0.000145794
-0.00136441
-1.17565e-05
-0.00141027
0.000239704
-0.00161729
0.000217376
-0.00161387
0.000234216
-0.00171169
0.000259707
-0.00183258
0.000142744
-0.00196057
-1.55817e-06
-0.00207344
-0.000127166
-0.00221426
-0.000190385
-0.00204203
-0.000172278
-0.00182319
-0.000218888
-0.00151482
-0.000308423
-0.00108965
-0.000425211
-0.00053019
-0.000559513
0.00015491
-0.000685151
0.000889012
-0.000734156
0.00154576
-0.000656804
0.00201196
-0.000466265
0.00190339
-0.000109837
0.00170083
0.000449368
0.00122046
0.000826069
0.00118453
0.00108227
-0.0143183
0.00122592
-0.00779064
0.00115845
-0.00302895
0.000679461
-0.000209148
0.000135263
0.00201927
-0.000338501
0.00381265
-0.000767066
0.00507094
-0.00110485
0.0057853
-0.00118808
0.00571148
-0.000931445
0.00429572
-0.000865647
0.00169449
-0.00113386
0.000519453
-0.00140359
0.000147134
-0.00160204
1.13073e-05
-0.00173233
-1.54794e-05
-0.00179181
4.77526e-05
-0.00172724
0.000175175
-0.00176018
0.000250372
-0.00177996
0.000254068
-0.00177175
0.000251555
-0.0017943
0.00016537
-0.00183836
4.25674e-05
-0.0018854
-8.00394e-05
-0.00190448
-0.000171218
-0.00182477
-0.000251896
-0.00167556
-0.000368003
-0.00145385
-0.00053004
-0.00114816
-0.000730812
-0.000759241
-0.000948348
-0.000300235
-0.00114407
0.000216104
-0.00125041
0.000753042
-0.00119366
0.00123058
-0.000943722
0.0015496
-0.000428779
0.00170859
0.000290453
0.00165953
0.000875197
0.00178798
0.00105615
0.000625133
0.00116272
-0.00050852
0.0011335
-0.000463608
-5.24305e-06
-0.0139871
-4.02387e-05
-0.00775551
-0.000594915
-0.00247416
-0.00164818
0.000844209
-0.00209198
0.00246313
-0.00225033
0.00397106
-0.00229176
0.00511247
-0.00218041
0.00567416
-0.0018199
0.00535144
-0.00128322
0.00375985
-0.00111169
0.00152332
-0.00119887
0.000606678
-0.00132326
0.000271525
-0.00143284
0.000120878
-0.00151184
6.35251e-05
-0.00154289
7.88076e-05
-0.0015077
0.000140009
-0.00145793
0.000200633
-0.00143111
0.000227301
-0.00140205
0.000222532
-0.00140016
0.000163528
-0.00142744
6.99006e-05
-0.00146944
-3.79855e-05
-0.00149722
-0.000143365
-0.00148999
-0.000259058
-0.00144442
-0.000413502
-0.00135477
-0.000619628
-0.00121486
-0.000870645
-0.0010282
-0.00113494
-0.000805458
-0.00136673
-0.000545496
-0.00151029
-0.0002244
-0.00151468
0.000166638
-0.00133468
0.000647108
-0.000909172
0.00114571
-0.000208066
0.00154792
0.000473065
0.00193094
0.000673217
0.00229094
0.000802805
0.00223863
0.00118589
0.00182805
-0.000669537
-0.0129374
-0.00117696
-0.00724794
-0.00210723
-0.00154377
-0.00330487
0.00204197
-0.00362835
0.00278671
-0.0035223
0.00386512
-0.00321164
0.00480198
-0.00273062
0.00519345
-0.00206668
0.00468803
-0.00138431
0.00307816
-0.0011213
0.00126054
-0.00105911
0.000544515
-0.00105127
0.000263672
-0.00106076
0.00013035
-0.0010684
7.11465e-05
-0.00105553
6.59191e-05
-0.00101163
9.6105e-05
-0.000946716
0.000135721
-0.00088344
0.000164034
-0.000829311
0.000168413
-0.000804618
0.000138844
-0.000818135
8.34304e-05
-0.00086454
8.43786e-06
-0.00092736
-8.05205e-05
-0.000998183
-0.000188202
-0.00107481
-0.000336839
-0.00115198
-0.000542413
-0.00122231
-0.000800271
-0.00128594
-0.00107125
-0.00134027
-0.00131233
-0.00137003
-0.00148045
-0.00134773
-0.0015369
-0.00123436
-0.00144796
-0.00095752
-0.00118592
-0.000395538
-0.000769947
0.000347849
-0.000270192
0.00120408
-0.000182883
0.00221968
-0.000212663
0.00237315
0.00103253
0.00425441
-0.00290696
-0.00960039
-0.0041666
-0.00598815
-0.00417395
-0.00153627
-0.0048929
0.00276106
-0.00466559
0.00255956
-0.004168
0.00336772
-0.00352745
0.0041617
-0.00277258
0.00443897
-0.00193788
0.00385387
-0.00121222
0.00235305
-0.000893057
0.000941531
-0.000737762
0.000389242
-0.00064263
0.000168528
-0.000578797
6.6494e-05
-0.000529906
2.22295e-05
-0.00048032
1.63055e-05
-0.000419345
3.51041e-05
-0.00034656
6.29134e-05
-0.000269241
8.6694e-05
-0.000197776
9.69267e-05
-0.000147622
8.86666e-05
-0.000129983
6.57673e-05
-0.000153682
3.21142e-05
-0.000219791
-1.44276e-05
-0.000330293
-7.77095e-05
-0.000496702
-0.000170432
-0.000725756
-0.000313352
-0.00101025
-0.000515758
-0.00134791
-0.000733542
-0.00172697
-0.000933187
-0.00212433
-0.001083
-0.00250486
-0.00115626
-0.00281685
-0.00113585
-0.00300079
-0.00100185
-0.0030313
-0.000739292
-0.00292587
-0.000375479
-0.00305894
-4.96403e-05
-0.00343719
0.000165757
-0.00294332
0.000538806
0.0015714
-0.00913713
-0.01513
-0.0100817
-0.00658445
-0.0067361
-0.00058436
-0.0051903
0.00101396
-0.00419453
0.0023722
-0.00326408
0.00323157
-0.00232933
0.00350466
-0.00142349
0.00294853
-0.000716234
0.00164621
-0.00038992
0.000615338
-0.000205139
0.00020449
-7.24555e-05
3.58466e-05
2.94871e-05
-3.54534e-05
0.000107102
-5.5397e-05
0.000170447
-4.70592e-05
0.000231639
-2.61127e-05
0.000297318
-2.79608e-06
0.00036685
1.71281e-05
0.000433776
2.99633e-05
0.00048886
3.35412e-05
0.000524484
3.00985e-05
0.000533824
2.27276e-05
0.000506981
1.23706e-05
0.000431255
-2.02549e-06
0.000284129
-2.33438e-05
2.75299e-05
-5.67823e-05
-0.00036336
-0.000124876
-0.000883889
-0.000212983
-0.00152348
-0.00029352
-0.00227244
-0.000333929
-0.00311765
-0.000310913
-0.0040189
-0.000234445
-0.0049068
-0.00011379
-0.00570491
5.90018e-05
-0.00639216
0.000311981
-0.00708979
0.000648202
-0.00777365
0.000849847
-0.00639907
-0.000835524
-0.00456201
-0.00811195
0.00181459
-0.00602917
-0.00266696
-0.00455005
-0.000464947
-0.00346372
0.00128615
-0.00243483
0.00220303
-0.00142278
0.00249302
-0.000443276
0.00196947
0.000209671
0.000993571
0.00048275
0.00034237
0.000636504
5.07861e-05
0.000740666
-6.82849e-05
0.000811874
-0.000106648
0.000861563
-0.000105085
0.000901309
-8.68142e-05
0.000938921
-6.37413e-05
0.000978012
-4.19098e-05
0.00101995
-2.48381e-05
0.0010632
-1.33192e-05
0.00110345
-6.75181e-06
0.00113636
-2.85865e-06
0.00115833
7.00671e-07
0.00116495
5.69583e-06
0.00114752
1.53395e-05
0.00109625
2.78771e-05
0.000997441
4.19703e-05
0.000823725
4.87961e-05
0.000563449
4.72728e-05
0.000227298
4.2659e-05
-0.000140841
3.43103e-05
-0.000484043
3.24301e-05
-0.000775335
5.70112e-05
-0.0010276
0.000138647
-0.00126473
0.000296314
-0.00141955
0.000466988
-0.00118885
0.000417694
-3.40289e-05
-0.00030477
0.000968656
-0.00183798
-0.00353541
-0.0014274
0.00323708
-0.00240424
-0.00168996
-0.00274025
-0.000128751
-0.00219774
0.000743874
-0.0012341
0.00123968
-5.44914e-05
0.00131377
0.00099845
0.000916867
0.00153916
0.000453053
0.00173446
0.000147187
0.00178851
-3.19009e-06
0.00177793
-5.76656e-05
0.00174552
-7.42124e-05
0.00171247
-7.20272e-05
0.00168766
-6.19976e-05
0.00167422
-5.03075e-05
0.00167194
-3.96437e-05
0.00167818
-3.10936e-05
0.00168951
-2.46798e-05
0.00170239
-1.96651e-05
0.00171427
-1.47815e-05
0.00172353
-8.60599e-06
0.00172914
3.12102e-08
0.00173147
1.29434e-05
0.00172941
2.98733e-05
0.00172043
5.08894e-05
0.00169625
7.29087e-05
0.00164951
9.39575e-05
0.00157975
0.000112376
0.00149023
0.000123836
0.00139204
0.000130676
0.00130528
0.000143884
0.00126449
0.000179582
0.00132299
0.000237991
0.00153385
0.000256318
0.0018757
7.60394e-05
0.00194892
-0.00037778
0.00115343
-0.00104226
-0.00231516
0.00365717
-0.00305325
0.000176744
-0.00152775
-0.00167648
-0.000952908
0.000266656
0.00156115
0.00245936
0.00289382
0.00302229
0.00300025
0.00292383
0.00283109
0.00274082
0.00266086
0.00259285
0.00253575
0.00248739
0.00244558
0.0024089
0.00237716
0.00235163
0.00233476
0.00233083
0.00234389
0.00237807
0.00243448
0.00251231
0.00260916
0.00271832
0.00283534
0.0029667
0.00313495
0.00336277
0.00360981
0.0036769
0.00329022
0.00223918
)
;

boundaryField
{
    floor
    {
        type            calculated;
        value           nonuniform List<scalar> 
29
(
0
0
0
0
0
0
0
0
0
0
0
0
0
0
0
0
0
0
0
0
-3.08402e-06
-8.14414e-06
-1.25154e-05
-1.26561e-05
-2.75964e-06
-2.57572e-06
-6.93744e-06
-9.41538e-06
-1.03092e-05
)
;
    }
    ceiling
    {
        type            calculated;
        value           nonuniform List<scalar> 
43
(
2.82361e-05
1.56408e-05
7.24391e-06
1.46332e-05
2.00823e-05
2.04428e-05
2.03433e-05
1.95067e-05
1.88366e-05
1.87086e-05
1.88035e-05
1.89036e-05
1.87871e-05
1.85491e-05
1.826e-05
1.79662e-05
1.76942e-05
1.74573e-05
1.72621e-05
1.71106e-05
1.70011e-05
1.69286e-05
1.68862e-05
1.68621e-05
1.68222e-05
1.67568e-05
1.66402e-05
1.6429e-05
1.60581e-05
1.54625e-05
1.46298e-05
1.36269e-05
1.25274e-05
1.13714e-05
1.02507e-05
9.39697e-06
9.10277e-06
9.08061e-06
8.9897e-06
9.76585e-06
6.771e-06
4.91153e-06
5.0928e-06
)
;
    }
    sWall
    {
        type            calculated;
        value           uniform -0.000159966;
    }
    nWall
    {
        type            calculated;
        value           nonuniform List<scalar> 6(-4.50257e-05 -5.29508e-05 -5.31158e-05 -5.76928e-05 -6.65688e-05 -8.54928e-05);
    }
    sideWalls
    {
        type            empty;
        value           nonuniform 0();
    }
    glass1
    {
        type            calculated;
        value           nonuniform List<scalar> 9(-3.82713e-05 -9.82263e-05 -0.00015574 -0.000212833 -0.000269608 -0.00032584 -0.000380048 -0.000429894 -0.000469878);
    }
    glass2
    {
        type            calculated;
        value           nonuniform List<scalar> 2(-0.000260227 -0.000265403);
    }
    sun
    {
        type            calculated;
        value           uniform 0;
    }
    heatsource1
    {
        type            calculated;
        value           nonuniform List<scalar> 3(2.03708e-07 2.04002e-07 2.04255e-07);
    }
    heatsource2
    {
        type            calculated;
        value           nonuniform List<scalar> 4(5.10954e-08 5.11103e-08 0 0);
    }
    Table_master
    {
        type            calculated;
        value           nonuniform List<scalar> 9(-1.53376e-07 -1.53466e-07 -1.53514e-07 -1.53525e-07 -1.53512e-07 -1.53511e-07 -1.5352e-07 -1.5353e-07 -1.53535e-07);
    }
    Table_slave
    {
        type            calculated;
        value           nonuniform List<scalar> 9(1.52533e-07 1.52583e-07 1.52644e-07 1.52735e-07 1.52867e-07 1.52995e-07 1.52931e-07 1.52724e-07 1.52583e-07);
    }
    inlet
    {
        type            calculated;
        value           uniform -0.000286881;
    }
    outlet
    {
        type            calculated;
        value           nonuniform List<scalar> 2(-0.00352528 0.00669495);
    }
}


// ************************************************************************* //
