/*--------------------------------*- C++ -*----------------------------------*\
  =========                 |
  \\      /  F ield         | OpenFOAM: The Open Source CFD Toolbox
   \\    /   O peration     | Website:  https://openfoam.org
    \\  /    A nd           | Version:  6
     \\/     M anipulation  |
\*---------------------------------------------------------------------------*/
FoamFile
{
    version     2.0;
    format      ascii;
    class       surfaceScalarField;
    location    "500";
    object      phi;
}
// * * * * * * * * * * * * * * * * * * * * * * * * * * * * * * * * * * * * * //

dimensions      [1 0 -1 0 0 0 0];

internalField   nonuniform List<scalar> 
852
(
-0.00223002
0.00228126
-0.00244565
0.000215719
-0.00267709
0.000231524
-0.00293656
0.000259546
-0.00317527
0.000238799
-0.00337063
0.000195436
-0.00350715
0.000136601
-0.00357006
6.29947e-05
-0.0035437
-2.62784e-05
-0.0034096
-0.000134014
-0.00314943
-0.00026009
-0.00274641
-0.000402933
-0.00216643
-0.000579899
-0.00130546
-0.000860889
-0.00130549
-0.000220197
0.000222481
-0.000177568
-4.25412e-05
-0.000117695
-5.97868e-05
-7.23717e-05
-4.52354e-05
-1.62471e-05
-5.60351e-05
5.89625e-05
-7.51186e-05
0.000151412
-9.23579e-05
0.000240106
-8.8602e-05
0.000314832
-7.46329e-05
0.000379286
-6.43618e-05
0.000432837
-5.34577e-05
0.000461906
-2.89773e-05
0.000457437
4.56067e-06
0.000417956
3.95728e-05
0.000361586
5.64617e-05
0.000314281
4.73961e-05
0.000316544
-2.18188e-06
0.000295153
2.14753e-05
0.000297409
-0.00160299
0.0040176
-0.00209331
0.000706117
-0.00244082
0.000579119
-0.00272372
0.000542527
-0.00296795
0.000483109
-0.00316814
0.000395715
-0.00331443
0.00028297
-0.0033951
0.000143747
-0.00339775
-2.35468e-05
-0.00331222
-0.000219461
-0.00312868
-0.000443548
-0.00283682
-0.000694715
-0.00243161
-0.000985025
-0.00196426
-0.00132816
-0.00161371
-0.00165596
6.2552e-05
-0.00167623
6.25862e-05
0.000362104
-0.000135212
0.000119079
0.000200582
-0.000135966
0.000195354
-0.000253549
7.24407e-05
-0.000293044
-1.64448e-05
-0.000325087
-4.29798e-05
-0.000267149
-0.0001502
-0.000247063
-0.000108592
-0.000249635
-7.19653e-05
-0.000270778
-4.31229e-05
-0.000311756
-1.23845e-05
-0.000364283
2.3643e-05
-0.000419455
5.98249e-05
-0.000471105
9.1314e-05
-0.000506393
9.18401e-05
-0.000477643
1.87369e-05
-0.000518506
3.87793e-05
-0.000511898
1.4968e-05
-0.000210977
-0.00118001
0.00539582
-0.00176955
0.00129574
-0.0021349
0.000944553
-0.00240864
0.000816352
-0.00264001
0.000714556
-0.00283224
0.000588025
-0.00297984
0.000430657
-0.00307405
0.000238032
-0.003105
7.49037e-06
-0.00306645
-0.000257939
-0.00296074
-0.000549172
-0.00279661
-0.000858762
-0.00259596
-0.0011856
-0.00240704
-0.00151699
-0.0022733
-0.00178962
-0.00203408
-0.00191537
-0.00197141
-0.000889005
0.000757139
-0.00097291
0.000284578
-0.000936913
0.00015945
-0.000909067
4.46855e-05
-0.000861945
-6.34773e-05
-0.000704171
-0.000200663
-0.000854121
-0.000962462
-0.00103418
-0.00107705
-0.00108918
-0.00106529
-0.00100522
-0.000913654
-0.000821567
-0.000421963
-0.000380776
-0.000123461
-0.00025963
7.29096e-05
-0.00018131
-0.000137132
-0.000881308
0.00652811
-0.00149035
0.00190486
-0.001794
0.00124829
-0.00203466
0.00105709
-0.00223389
0.000913869
-0.00239693
0.000751143
-0.0025241
0.000557908
-0.00261068
0.000324692
-0.00264955
4.64384e-05
-0.00263682
-0.000270584
-0.00258718
-0.000598735
-0.00252959
-0.000916277
-0.00250261
-0.0012125
-0.00255058
-0.00146894
-0.00269528
-0.00164484
-0.00293319
-0.00167738
-0.00354163
-0.00136289
-0.00294606
-0.000595147
-0.00215383
-3.49983e-05
-0.00195331
8.41385e-05
-0.00186131
6.75391e-05
-0.0018227
6.16141e-06
-0.00181001
-7.60823e-05
-0.00187621
-0.000134381
-0.00176644
-0.000109838
-0.00165848
-0.00010802
-0.00154418
-0.000114372
-0.0014238
-0.000120441
-0.001296
-0.00012787
-0.00115698
-0.000139086
-0.000998559
-0.000158491
-0.000802346
-0.000196281
-0.000523981
-0.000278434
-0.000465706
-0.000438966
-0.000230204
-0.000495047
6.55179e-05
-0.000476946
-7.23946e-05
-0.000661797
0.00748539
-0.00126105
0.00250419
-0.00143546
0.00142279
-0.00161296
0.00123467
-0.00176507
0.00106607
-0.00187677
0.000862918
-0.0019537
0.000634918
-0.00199803
0.000369104
-0.00200395
5.24359e-05
-0.00197034
-0.000304117
-0.00192403
-0.000644969
-0.00190117
-0.000939058
-0.00193317
-0.00118042
-0.0020382
-0.00136383
-0.00221595
-0.00146701
-0.00245928
-0.00143396
-0.00266063
-0.00116145
-0.0025449
-0.000710794
-0.0022461
-0.000333717
-0.00200723
-0.000154647
-0.00184275
-9.68594e-05
-0.00173571
-0.000100795
-0.00167693
-0.000134776
-0.0016486
-0.000162626
-0.00159017
-0.000168189
-0.00152446
-0.000173648
-0.00145746
-0.000181283
-0.00138829
-0.000189529
-0.00131649
-0.00019959
-0.00124027
-0.000215221
-0.00115451
-0.000244177
-0.00104965
-0.00030105
-0.000923514
-0.000404492
-0.000813072
-0.000549325
-0.000610809
-0.000697228
-0.000239475
-0.000848199
0.00059911
-0.000910899
0.00140027
-0.000801276
0.00138327
1.68703e-05
0.00140494
-0.000621005
0.00844051
-0.00116211
0.00304538
-0.00103994
0.00130071
-0.00107029
0.00126511
-0.00119021
0.00118607
-0.00124874
0.000921531
-0.00125191
0.000638169
-0.0012232
0.000340468
-0.00116032
-1.03648e-05
-0.001075
-0.000389364
-0.00101109
-0.000708797
-0.000998515
-0.000951559
-0.00105625
-0.00112261
-0.00118826
-0.00123174
-0.00138353
-0.00127167
-0.00160653
-0.00121088
-0.00175672
-0.00101119
-0.00175171
-0.000715717
-0.0016338
-0.000451546
-0.00150261
-0.000285761
-0.00139753
-0.000201855
-0.00132556
-0.000172675
-0.00128543
-0.000174831
-0.00126328
-0.000184687
-0.00124089
-0.000190502
-0.00121819
-0.000196259
-0.00119767
-0.000201724
-0.00118126
-0.000205855
-0.00117165
-0.000209116
-0.00117174
-0.000215054
-0.00118322
-0.000232612
-0.00120618
-0.000278012
-0.00124019
-0.000370399
-0.00127164
-0.000517799
-0.00124885
-0.000719934
-0.00110778
-0.00098919
-0.000698322
-0.00132028
6.59922e-05
-0.00156551
0.000630845
-0.000547903
0.00206154
-0.000810906
0.00962095
-0.000867725
0.00310228
-0.00022956
0.000662629
-8.01195e-05
0.00111576
-0.000260032
0.00136606
-0.000319364
0.000980946
-0.00025538
0.000574266
-0.00013874
0.000223909
-9.87751e-06
-0.000139149
9.16265e-05
-0.00049079
0.000140437
-0.000757531
0.000122723
-0.000933767
3.27877e-05
-0.0010326
-0.000126381
-0.0010725
-0.000336914
-0.00106106
-0.00055813
-0.000989585
-0.000725203
-0.000844037
-0.000796184
-0.000644658
-0.000792494
-0.000455155
-0.000761045
-0.000317129
-0.000730166
-0.000232652
-0.000712095
-0.000190664
-0.000709871
-0.000176974
-0.000718058
-0.000176417
-0.000729577
-0.0001789
-0.000743451
-0.000182302
-0.000761195
-0.000183897
-0.000786206
-0.000180762
-0.000824607
-0.000170632
-0.000886036
-0.000153541
-0.000983637
-0.00013493
-0.00113255
-0.000129021
-0.00134294
-0.000159926
-0.00160636
-0.000254296
-0.00189069
-0.000435529
-0.00215609
-0.00072371
-0.00234981
-0.00112648
-0.00236346
-0.00155178
-0.00144718
-0.0014641
0.000644037
0.00166326
0.00837178
0.00226165
0.00250397
0.00246291
0.000461454
0.00204599
0.00153277
0.00167946
0.00173268
0.00153777
0.00112272
0.00150405
0.00060807
0.00152924
0.000198803
0.001574
-0.000183829
0.00157569
-0.0004924
0.00151782
-0.000699578
0.0014045
-0.00082038
0.00124485
-0.000872867
0.00104533
-0.000872898
0.000816113
-0.000831767
0.000581135
-0.000754531
0.000379378
-0.000642203
0.000240039
-0.000505241
0.000157532
-0.000372569
0.000108369
-0.000267887
7.31797e-05
-0.000197382
4.00969e-05
-0.0001575
3.60198e-06
-0.000140397
-3.60606e-05
-0.000136672
-7.65297e-05
-0.000138349
-0.000117652
-0.000141097
-0.000160315
-0.000141151
-0.000206393
-0.0001346
-0.000259664
-0.000117278
-0.000327517
-8.56045e-05
-0.00042347
-3.88937e-05
-0.000573794
2.1384e-05
-0.000821229
8.75908e-05
-0.0012105
0.000135053
-0.00175887
0.000112924
-0.00246078
-2.17255e-05
-0.00336089
-0.000226288
-0.00444354
-0.000469054
-0.00447912
-0.00142844
-0.00372568
0.00881481
0.0113004
0.00984911
0.00191286
0.00705268
0.00432927
0.00585497
0.00293047
0.00509171
0.00188607
0.0045256
0.00117426
0.0041006
0.00062388
0.00372701
0.000189837
0.00337146
-0.000136774
0.00304181
-0.000369847
0.00273611
-0.000514601
0.00244886
-0.000585544
0.00217461
-0.000598569
0.00191045
-0.000567529
0.00166075
-0.000504753
0.0014396
-0.000420981
0.00125943
-0.00032499
0.00112065
-0.000233714
0.00101393
-0.000161088
0.000928528
-0.000111905
0.000855656
-8.45489e-05
0.000789395
-7.40562e-05
0.000726888
-7.4085e-05
0.000667317
-7.86966e-05
0.000609892
-8.35901e-05
0.000554138
-8.53151e-05
0.000500273
-8.06528e-05
0.0004494
-6.63217e-05
0.000403394
-3.95152e-05
0.000366067
-1.48309e-06
0.000338643
4.88921e-05
0.000323052
0.000103265
0.000323497
0.00013469
0.000331801
0.000104702
0.000329503
-1.93466e-05
0.000309941
-0.000206645
0.000292105
-0.000451137
0.000111554
-0.00124781
-0.00349305
-4.14156e-05
0.00271848
0.0028905
0.00139742
0.00411527
0.00170577
0.00437354
0.00162787
0.00438278
0.0011651
0.00432228
0.000684459
0.00419865
0.000313543
0.00401335
4.85969e-05
0.00378329
-0.000139708
0.00352317
-0.000254404
0.00324904
-0.000311345
0.00297395
-0.0003234
0.00270867
-0.000302173
0.00246294
-0.000258945
0.00224674
-0.000204711
0.00206352
-0.00014169
0.00191357
-8.36888e-05
0.00179247
-3.99059e-05
0.00169362
-1.29837e-05
0.00161034
-1.18283e-06
0.00153693
-5.74037e-07
0.00146947
-6.54459e-06
0.00140575
-1.48929e-05
0.00134472
-2.24789e-05
0.00128647
-2.69927e-05
0.00123251
-2.66059e-05
0.00118608
-1.9808e-05
0.00115208
-5.44126e-06
0.00113479
1.58944e-05
0.00114399
3.9771e-05
0.00119109
5.62487e-05
0.00128249
4.33822e-05
0.00140574
-1.84721e-05
0.00154089
-0.000154413
0.00168093
-0.000346605
0.00177377
-0.000543889
0.00144286
-0.000916826
-0.0020241
-0.000101119
0.00280846
0.00179452
-0.000498159
0.00278379
0.000716575
0.00333557
0.00107615
0.00373577
0.000764967
0.0039841
0.000436206
0.00409002
0.000207698
0.00408009
5.85975e-05
0.00396064
-2.01812e-05
0.00376236
-5.60488e-05
0.00351706
-6.59745e-05
0.00325223
-5.8486e-05
0.00299202
-4.18946e-05
0.00275518
-2.20207e-05
0.00255214
-1.60196e-06
0.0023934
1.71262e-05
0.00227865
3.11364e-05
0.00219875
4.00768e-05
0.00214175
4.40886e-05
0.00209674
4.39064e-05
0.00205559
4.06482e-05
0.00201354
3.55893e-05
0.00196878
2.9948e-05
0.00192167
2.47073e-05
0.00187416
2.05974e-05
0.00182951
1.81218e-05
0.00179224
1.75422e-05
0.00176813
1.8748e-05
0.00176161
2.24917e-05
0.00177695
2.45161e-05
0.00181618
1.71028e-05
0.00187095
-1.13085e-05
0.00192709
-7.45225e-05
0.00195378
-0.000181025
0.0019571
-0.00034984
0.00202196
-0.000608667
0.00208544
-0.000980227
8.91624e-05
0.00430306
-0.00226397
0.00052783
8.90526e-06
0.000701202
0.00175085
0.00248665
0.00289097
0.00306415
0.00308575
0.00302641
0.00292956
0.00282165
0.00272063
0.00263607
0.00257159
0.00252792
0.00250349
0.00249352
0.00249285
0.00249645
0.00250007
0.00250062
0.00249631
0.00248657
0.00247184
0.00245327
0.00243251
0.00241148
0.00239196
0.00237648
0.00236329
0.00234289
0.00229418
0.00218233
0.00196391
0.00157634
0.000929079
-9.01066e-05
)
;

boundaryField
{
    floor
    {
        type            calculated;
        value           nonuniform List<scalar> 
29
(
0
0
0
0
0
0
0
0
0
0
0
0
0
0
0
0
0
0
0
0
-2.17325e-06
-3.40387e-06
-8.47832e-07
8.68335e-07
1.17556e-07
-2.19872e-06
-4.31126e-06
-3.25547e-06
-3.37347e-07
)
;
    }
    ceiling
    {
        type            calculated;
        value           nonuniform List<scalar> 
43
(
5.14358e-05
3.38899e-05
1.67332e-05
2.08274e-05
2.43438e-05
2.65726e-05
2.9245e-05
3.19573e-05
3.45894e-05
3.70725e-05
3.9231e-05
4.08845e-05
4.20116e-05
4.26095e-05
4.27404e-05
4.25331e-05
4.21432e-05
4.16385e-05
4.11798e-05
4.08254e-05
4.05643e-05
4.03596e-05
4.01741e-05
3.99806e-05
3.97636e-05
3.95183e-05
3.92465e-05
3.89547e-05
3.86517e-05
3.83475e-05
3.80497e-05
3.77827e-05
3.75859e-05
3.74818e-05
3.74098e-05
3.747e-05
3.78107e-05
3.8674e-05
3.90387e-05
3.76851e-05
2.23678e-05
1.8412e-05
1.12079e-05
)
;
    }
    sWall
    {
        type            calculated;
        value           uniform -0.000142824;
    }
    nWall
    {
        type            calculated;
        value           nonuniform List<scalar> 6(-2.1783e-05 -2.56768e-05 -2.96047e-05 -2.60091e-05 -2.77442e-05 -3.85525e-05);
    }
    sideWalls
    {
        type            empty;
        value           nonuniform 0();
    }
    glass1
    {
        type            calculated;
        value           nonuniform List<scalar> 9(-5.116e-05 -0.00013327 -0.00019814 -0.000250902 -0.000295412 -0.000334042 -0.000369462 -0.000414017 -0.000465333);
    }
    glass2
    {
        type            calculated;
        value           nonuniform List<scalar> 2(-0.000109322 -0.000121);
    }
    sun
    {
        type            calculated;
        value           uniform 0;
    }
    heatsource1
    {
        type            calculated;
        value           nonuniform List<scalar> 3(2.01092e-07 2.01183e-07 2.01255e-07);
    }
    heatsource2
    {
        type            calculated;
        value           nonuniform List<scalar> 4(5.03244e-08 5.05692e-08 0 0);
    }
    Table_master
    {
        type            calculated;
        value           nonuniform List<scalar> 9(-1.52119e-07 -1.52051e-07 -1.51979e-07 -1.51915e-07 -1.5186e-07 -1.51805e-07 -1.51747e-07 -1.51681e-07 -1.5157e-07);
    }
    Table_slave
    {
        type            calculated;
        value           nonuniform List<scalar> 9(1.50878e-07 1.50919e-07 1.50953e-07 1.50988e-07 1.51023e-07 1.51059e-07 1.51097e-07 1.51141e-07 1.51167e-07);
    }
    inlet
    {
        type            calculated;
        value           uniform -0.000764125;
    }
    outlet
    {
        type            calculated;
        value           nonuniform List<scalar> 2(-0.00421159 0.00653323);
    }
}


// ************************************************************************* //
