/*--------------------------------*- C++ -*----------------------------------*\
  =========                 |
  \\      /  F ield         | OpenFOAM: The Open Source CFD Toolbox
   \\    /   O peration     | Website:  https://openfoam.org
    \\  /    A nd           | Version:  6
     \\/     M anipulation  |
\*---------------------------------------------------------------------------*/
FoamFile
{
    version     2.0;
    format      ascii;
    class       volScalarField;
    location    "1400";
    object      epsilon;
}
// * * * * * * * * * * * * * * * * * * * * * * * * * * * * * * * * * * * * * //

dimensions      [0 2 -3 0 0 0 0];

internalField   nonuniform List<scalar> 
459
(
0.000445769
0.000581179
0.000614264
0.000707155
0.000801104
0.00089624
0.0009965
0.00110152
0.00117991
0.00121402
0.00118908
0.00110046
0.000957584
0.000786528
0.000623805
3.77064e-05
6.90308e-05
9.81243e-05
9.61041e-05
8.64124e-05
7.47701e-05
6.17795e-05
5.05027e-05
4.15361e-05
3.45194e-05
2.90037e-05
2.46217e-05
2.11138e-05
1.82609e-05
1.58684e-05
1.37648e-05
1.1781e-05
1.04808e-05
7.91725e-06
0.00112734
0.00161972
0.000551137
0.000535279
0.000561498
0.000603395
0.00066422
0.000744712
0.000821426
0.000870831
0.000873539
0.000822796
0.000725107
0.000603801
0.00052041
0.000660835
0.000135319
4.77759e-05
0.000117429
0.000122574
0.000110486
9.34905e-05
7.79e-05
6.96503e-05
5.64227e-05
4.47891e-05
3.55641e-05
2.84381e-05
2.29562e-05
1.87424e-05
1.55119e-05
1.3138e-05
1.16979e-05
1.10595e-05
2.5075e-05
1.76156e-05
0.00205438
0.00396169
0.000687893
0.000513875
0.000538972
0.000605355
0.000702625
0.000824491
0.000937323
0.00100804
0.00101844
0.00096823
0.000867593
0.000738758
0.000626413
0.000565422
0.000649306
0.000379926
0.000266903
0.000199654
0.000153365
0.000120304
0.000100673
0.000181207
0.000124833
8.91273e-05
6.58666e-05
5.02234e-05
3.93762e-05
3.16588e-05
2.60812e-05
2.20691e-05
1.6754e-05
1.39266e-05
4.4623e-05
2.72149e-05
0.00332451
0.00820944
0.00110163
0.000528064
0.000533334
0.000628798
0.000780607
0.000967338
0.00111542
0.00119153
0.00119117
0.0011251
0.00100532
0.000852548
0.000712823
0.000611395
0.000583201
0.00111425
0.000616389
0.000368876
0.000246589
0.000177383
0.000134838
0.00011502
0.000260296
0.000196464
0.000157835
0.000132076
0.000112556
9.64604e-05
8.25245e-05
6.94219e-05
5.60568e-05
3.29805e-05
2.13817e-05
6.96143e-05
3.66793e-05
0.00507196
0.0145999
0.00219928
0.000651398
0.00056564
0.000693592
0.000967054
0.00124411
0.00140123
0.00145105
0.00141643
0.00131528
0.00115956
0.000969567
0.000776077
0.000605526
0.000477483
0.000416523
0.000334724
0.000261799
0.000203956
0.000160112
0.000127867
0.000106793
0.000102897
9.53925e-05
8.79143e-05
8.06293e-05
7.31121e-05
6.52795e-05
5.75726e-05
5.03078e-05
4.36383e-05
3.45687e-05
2.61926e-05
5.15599e-05
4.0622e-05
6.87237e-05
0.000122089
0.0001727
0.00749913
0.0216366
0.00495159
0.00130936
0.000900382
0.00104814
0.00154783
0.00179665
0.00186325
0.00183018
0.00173431
0.00158054
0.00137022
0.0011202
0.000863087
0.0006344
0.000461643
0.000352694
0.000282041
0.000227486
0.000182126
0.000146185
0.000119603
0.000102155
9.3682e-05
8.97268e-05
8.70841e-05
8.40107e-05
7.94675e-05
7.26135e-05
6.34719e-05
5.40131e-05
4.53587e-05
3.75784e-05
3.2338e-05
4.06818e-05
4.21925e-05
5.26119e-05
0.00022484
0.000196263
0.0102893
0.025836
0.0101289
0.00425719
0.00296196
0.00290937
0.00292427
0.00278284
0.00258655
0.00238627
0.0021782
0.00193493
0.00163885
0.00130394
0.0009687
0.000677144
0.00046421
0.000332039
0.000253171
0.000199906
0.000159484
0.000129686
0.000109725
9.85882e-05
9.48327e-05
9.54614e-05
9.76001e-05
9.97685e-05
0.00010092
9.95303e-05
9.25416e-05
8.18426e-05
7.12026e-05
6.20705e-05
5.82952e-05
6.43929e-05
8.1359e-05
0.000129633
0.000299954
0.00029283
0.0108991
0.027971
0.0156573
0.010771
0.00817299
0.00635843
0.00501955
0.00411296
0.00351666
0.00310116
0.00275078
0.00237966
0.00195053
0.0014892
0.00104853
0.000679588
0.000430426
0.000287542
0.000207683
0.000162537
0.000132244
0.000112568
0.000101568
9.76254e-05
9.91448e-05
0.000104387
0.00011211
0.000122021
0.000134259
0.000148764
0.000164548
0.000174337
0.000183076
0.000201877
0.000241548
0.000361083
0.00066461
0.00125649
0.00370568
0.00111062
0.0100538
0.0167592
0.0133445
0.0101348
0.00782803
0.00629417
0.00531124
0.00469407
0.00427161
0.00388982
0.00344122
0.00287373
0.00220322
0.00154263
0.000973499
0.000528123
0.000313547
0.000212472
0.000159402
0.000128519
0.00010955
9.88802e-05
9.45384e-05
9.51438e-05
9.97038e-05
0.000107616
0.000118856
0.000134121
0.000154739
0.000182614
0.000220263
0.000271453
0.000342117
0.000448942
0.000606913
0.00082287
0.00107263
0.00129389
0.00146498
0.000922818
0.00365297
0.00562706
0.00655945
0.00668557
0.00651967
0.00614792
0.00553169
0.00469116
0.00370857
0.00262682
0.00152807
0.000870013
0.00049023
0.000284408
0.000187405
0.000139905
0.000114596
0.000100092
9.16491e-05
8.73723e-05
8.60381e-05
8.699e-05
9.00072e-05
9.52842e-05
0.000103362
0.000115169
0.000132116
0.000156259
0.000190594
0.000239458
0.000307898
0.000402786
0.000527883
0.000672808
0.000801093
0.00086245
0.000823891
0.000528755
0.00276944
0.00638843
0.00711306
0.00593011
0.00529801
0.00459315
0.00366738
0.00270993
0.00187567
0.00122602
0.000731765
0.00043223
0.000269408
0.000188101
0.000150593
0.00013338
0.000125272
0.000121162
0.000118728
0.000116989
0.000115683
0.000114886
0.000115081
0.000117026
0.000121426
0.000129108
0.000141286
0.000159782
0.000187307
0.000227289
0.000284253
0.000362805
0.000463588
0.000578841
0.000665632
0.000758716
0.000760861
0.000560742
0.00198523
0.00236162
0.00265511
0.00331713
0.00300276
0.00264875
0.00243407
0.00215057
0.0017833
0.00138812
0.00101841
0.000710235
0.000477315
0.000323374
0.000232037
0.000178912
0.000146694
0.000126057
0.000112349
0.000103197
9.72972e-05
9.39379e-05
9.27308e-05
9.37278e-05
9.71748e-05
0.000103058
0.000111589
0.000123328
0.000139158
0.000160424
0.000187704
0.000222388
0.000266586
0.000322961
0.000393851
0.000490649
0.000525135
0.000485587
0.000402237
0.000324781
)
;

boundaryField
{
    floor
    {
        Cmu             0.09;
        kappa           0.41;
        E               9.8;
        type            epsilonWallFunction;
        value           nonuniform List<scalar> 
29
(
0.000623805
3.77064e-05
6.90308e-05
9.81243e-05
9.61041e-05
8.64124e-05
7.47701e-05
6.17795e-05
5.05027e-05
4.15361e-05
3.45194e-05
2.90037e-05
2.46217e-05
2.11138e-05
1.82609e-05
1.58684e-05
1.37648e-05
1.1781e-05
1.04808e-05
7.91725e-06
7.91725e-06
1.76156e-05
2.72149e-05
3.66793e-05
0.000623805
3.77064e-05
4.77759e-05
0.000379926
0.00111425
)
;
    }
    ceiling
    {
        Cmu             0.09;
        kappa           0.41;
        E               9.8;
        type            epsilonWallFunction;
        value           nonuniform List<scalar> 
43
(
0.00198523
0.00236162
0.00265511
0.00331713
0.00300276
0.00264875
0.00243407
0.00215057
0.0017833
0.00138812
0.00101841
0.000710235
0.000477315
0.000323374
0.000232037
0.000178912
0.000146694
0.000126057
0.000112349
0.000103197
9.72972e-05
9.39379e-05
9.27308e-05
9.37278e-05
9.71748e-05
0.000103058
0.000111589
0.000123328
0.000139158
0.000160424
0.000187704
0.000222388
0.000266586
0.000322961
0.000393851
0.000490649
0.000525135
0.000485587
0.000402237
0.000324781
0.0100538
0.0167592
0.00276944
)
;
    }
    sWall
    {
        Cmu             0.09;
        kappa           0.41;
        E               9.8;
        type            epsilonWallFunction;
        value           uniform 0.00198523;
    }
    nWall
    {
        Cmu             0.09;
        kappa           0.41;
        E               9.8;
        type            epsilonWallFunction;
        value           nonuniform List<scalar> 6(0.0001727 0.000196263 0.00029283 0.000528755 0.000560742 0.000324781);
    }
    sideWalls
    {
        type            empty;
    }
    glass1
    {
        Cmu             0.09;
        kappa           0.41;
        E               9.8;
        type            epsilonWallFunction;
        value           nonuniform List<scalar> 9(0.000445769 0.00112734 0.00205438 0.00332451 0.00507196 0.00749913 0.0102893 0.0108991 0.0100538);
    }
    glass2
    {
        Cmu             0.09;
        kappa           0.41;
        E               9.8;
        type            epsilonWallFunction;
        value           nonuniform List<scalar> 2(0.00111062 0.000922818);
    }
    sun
    {
        Cmu             0.09;
        kappa           0.41;
        E               9.8;
        type            epsilonWallFunction;
        value           nonuniform List<scalar> 
14
(
0.000445769
0.000581179
0.000614264
0.000707155
0.000801104
0.00089624
0.0009965
0.00110152
0.00117991
0.00121402
0.00118908
0.00110046
0.000957584
0.000786528
)
;
    }
    heatsource1
    {
        Cmu             0.09;
        kappa           0.41;
        E               9.8;
        type            epsilonWallFunction;
        value           nonuniform List<scalar> 3(6.87237e-05 0.000122089 0.0001727);
    }
    heatsource2
    {
        Cmu             0.09;
        kappa           0.41;
        E               9.8;
        type            epsilonWallFunction;
        value           nonuniform List<scalar> 4(0.000660835 0.000135319 0.000135319 0.000649306);
    }
    Table_master
    {
        Cmu             0.09;
        kappa           0.41;
        E               9.8;
        type            epsilonWallFunction;
        value           nonuniform List<scalar> 9(0.000181207 0.000124833 8.91273e-05 6.58666e-05 5.02234e-05 3.93762e-05 3.16588e-05 2.60812e-05 2.20691e-05);
    }
    Table_slave
    {
        Cmu             0.09;
        kappa           0.41;
        E               9.8;
        type            epsilonWallFunction;
        value           nonuniform List<scalar> 9(0.000260296 0.000196464 0.000157835 0.000132076 0.000112556 9.64604e-05 8.25245e-05 6.94219e-05 5.60568e-05);
    }
    inlet
    {
        type            turbulentMixingLengthDissipationRateInlet;
        mixingLength    0.01;
        phi             phi;
        k               k;
        value           uniform 0.000101881;
    }
    outlet
    {
        type            zeroGradient;
    }
}


// ************************************************************************* //
