// -*- C++ -*-
// File generated by PyFoam - sorry for the ugliness

FoamFile
{
 version 2.0;
 format ascii;
 class volVectorField;
 location "900";
 object U;
}

dimensions [ 0 1 -1 0 0 0 0 ];

internalField nonuniform List<vector> 459
(
  (0.0327999 0.0854685 0)
  (-0.166141 0.0257183 0)
  (-0.190804 0.0178621 0)
  (-0.221427 0.0123257 0)
  (-0.243738 0.00628063 0)
  (-0.256899 -5.44264e-05 0)
  (-0.259578 -0.00673382 0)
  (-0.250582 -0.0137602 0)
  (-0.230588 -0.0206522 0)
  (-0.201068 -0.0263574 0)
  (-0.165026 -0.0300358 0)
  (-0.125894 -0.0314265 0)
  (-0.0869231 -0.0310525 0)
  (-0.0528529 -0.0305542 0)
  (-0.0372731 -0.0316683 0)
  (-0.00289769 0.0074344 0)
  (-0.022373 -0.0174748 0)
  (0.00134171 -0.0262517 0)
  (0.0222804 -0.0195024 0)
  (0.0380372 -0.0131219 0)
  (0.0497089 -0.00839069 0)
  (0.0566203 -0.00503371 0)
  (0.0600802 -0.00327968 0)
  (0.0616628 -0.00252195 0)
  (0.0624992 -0.00215573 0)
  (0.063032 -0.00191837 0)
  (0.063317 -0.00172373 0)
  (0.0632875 -0.00148394 0)
  (0.0627321 -0.0010253 0)
  (0.0610784 3.65012e-05 0)
  (0.0571151 0.00224703 0)
  (0.0495087 0.00466592 0)
  (0.0415042 0.00680905 0)
  (-0.00998315 0.0204434 0)
  (0.204947 0.17459 0)
  (-0.154232 0.0672594 0)
  (-0.152664 0.0522011 0)
  (-0.183909 0.0406774 0)
  (-0.205688 0.0277886 0)
  (-0.218812 0.0135318 0)
  (-0.221928 -0.00234493 0)
  (-0.213651 -0.0193838 0)
  (-0.195185 -0.0354554 0)
  (-0.168375 -0.04806 0)
  (-0.136445 -0.0554232 0)
  (-0.10281 -0.0571036 0)
  (-0.0706833 -0.053786 0)
  (-0.0437951 -0.0470521 0)
  (-0.026713 -0.0380807 0)
  (-0.0131835 -0.0186142 0)
  (-0.00711519 0.0135723 0)
  (0.0593461 0.0314082 0)
  (0.0314719 -0.019985 0)
  (0.038601 -0.0306995 0)
  (0.0494008 -0.0260344 0)
  (0.0578765 -0.0179409 0)
  (0.0634961 -0.0105382 0)
  (0.0657176 -0.00435975 0)
  (0.0660375 -0.000936285 0)
  (0.0659508 0.000526991 0)
  (0.0660327 0.00120637 0)
  (0.0661971 0.00163454 0)
  (0.0663146 0.00200747 0)
  (0.0663434 0.00249591 0)
  (0.0662287 0.00343891 0)
  (0.0654363 0.00574683 0)
  (0.0615388 0.0120968 0)
  (0.0517458 0.0175509 0)
  (0.0451944 0.0215238 0)
  (-0.0432184 0.0441236 0)
  (0.362687 0.26085 0)
  (-0.169827 0.106597 0)
  (-0.114004 0.0839643 0)
  (-0.143766 0.063497 0)
  (-0.162696 0.0423644 0)
  (-0.174441 0.0193116 0)
  (-0.176812 -0.00642269 0)
  (-0.167625 -0.0336237 0)
  (-0.149158 -0.0584939 0)
  (-0.12401 -0.0769992 0)
  (-0.0956884 -0.0867677 0)
  (-0.0671339 -0.0877357 0)
  (-0.0406235 -0.0810645 0)
  (-0.0183637 -0.0683332 0)
  (-0.0021191 -0.0505194 0)
  (0.0102237 -0.0249183 0)
  (0.0168667 0.00955698 0)
  (0.105383 -0.0390291 0)
  (0.0730771 -0.0431908 0)
  (0.0691996 -0.0395638 0)
  (0.0713838 -0.0317507 0)
  (0.072936 -0.0226005 0)
  (0.0737803 -0.0149235 0)
  (0.0720585 -0.0121442 0)
  (0.0680135 -0.00868283 0)
  (0.0652135 -0.00680654 0)
  (0.0639404 -0.00573749 0)
  (0.0633771 -0.00505977 0)
  (0.0630974 -0.00458661 0)
  (0.0631355 -0.00412659 0)
  (0.0639668 -0.00331388 0)
  (0.0668094 -0.000168236 0)
  (0.0647822 0.0170873 0)
  (0.0515375 0.0293786 0)
  (0.0507136 0.0381975 0)
  (-0.0725032 0.0692953 0)
  (0.504641 0.330014 0)
  (-0.20308 0.141241 0)
  (-0.0737615 0.110511 0)
  (-0.101235 0.0823642 0)
  (-0.114322 0.0552613 0)
  (-0.122081 0.0251089 0)
  (-0.120708 -0.0101519 0)
  (-0.108182 -0.0478797 0)
  (-0.0889293 -0.0807386 0)
  (-0.066211 -0.103566 0)
  (-0.043277 -0.114192 0)
  (-0.0218499 -0.11372 0)
  (-0.00268467 -0.10391 0)
  (0.0136058 -0.0865911 0)
  (0.0269983 -0.0645792 0)
  (0.0413399 -0.0385438 0)
  (0.0634325 -0.0117936 0)
  (0.0940679 0.000175114 0)
  (0.101671 -0.0329065 0)
  (0.0881147 -0.0383402 0)
  (0.0795009 -0.0342173 0)
  (0.0752638 -0.0279566 0)
  (0.0724792 -0.0205558 0)
  (0.0711227 -0.011973 0)
  (0.0728204 -0.00701275 0)
  (0.0769242 -0.00551014 0)
  (0.0803008 -0.00466831 0)
  (0.0825573 -0.00401848 0)
  (0.0839053 -0.00318962 0)
  (0.0837874 -0.00192583 0)
  (0.0811702 -1.19878e-05 0)
  (0.0748199 0.00283998 0)
  (0.0619374 0.00716402 0)
  (0.0510563 0.0274631 0)
  (0.0404964 0.0443411 0)
  (0.0535453 0.0580371 0)
  (-0.102571 0.0922101 0)
  (0.626592 0.383478 0)
  (-0.243778 0.169432 0)
  (-0.034713 0.125156 0)
  (-0.0571065 0.0925179 0)
  (-0.0618221 0.06207 0)
  (-0.062439 0.0269416 0)
  (-0.0511598 -0.0170556 0)
  (-0.0330977 -0.0639882 0)
  (-0.014129 -0.10132 0)
  (0.00357552 -0.124845 0)
  (0.0179521 -0.13325 0)
  (0.0292487 -0.129759 0)
  (0.0379471 -0.11734 0)
  (0.0447758 -0.0985354 0)
  (0.0508856 -0.0759974 0)
  (0.0582518 -0.052381 0)
  (0.0694775 -0.0331539 0)
  (0.0799604 -0.0287196 0)
  (0.081512 -0.0346303 0)
  (0.0749386 -0.033496 0)
  (0.0668783 -0.0285988 0)
  (0.0607019 -0.0230532 0)
  (0.0563335 -0.0173093 0)
  (0.0539891 -0.0113996 0)
  (0.0540464 -0.00620674 0)
  (0.0561513 -0.0038163 0)
  (0.0584993 -0.00295082 0)
  (0.0607725 -0.00222981 0)
  (0.0628751 -0.000716904 0)
  (0.0644272 0.00212651 0)
  (0.064278 0.00642232 0)
  (0.0618483 0.0123418 0)
  (0.0564421 0.0205452 0)
  (0.0499111 0.0359694 0)
  (0.0410031 0.0545455 0)
  (0.0618185 0.0751332 0)
  (-0.0165425 0.104486 0)
  (0.0454277 0.034378 0)
  (-0.0611673 -0.034375 0)
  (-0.268655 -0.0566239 0)
  (0.714308 0.427968 0)
  (-0.283064 0.18819 0)
  (-0.00562298 0.119968 0)
  (-0.0116181 0.0915817 0)
  (-0.00473042 0.0619754 0)
  (0.0057588 0.0199638 0)
  (0.0348631 -0.0346692 0)
  (0.0559564 -0.0826609 0)
  (0.0707271 -0.11671 0)
  (0.0791675 -0.135558 0)
  (0.0820829 -0.140435 0)
  (0.080994 -0.134092 0)
  (0.0772693 -0.119549 0)
  (0.0723262 -0.0997853 0)
  (0.0676475 -0.0776827 0)
  (0.0645934 -0.0559234 0)
  (0.0640468 -0.0382385 0)
  (0.063598 -0.0292299 0)
  (0.0595535 -0.0269843 0)
  (0.0519168 -0.0248869 0)
  (0.04365 -0.0213115 0)
  (0.0370194 -0.017348 0)
  (0.0324559 -0.0134743 0)
  (0.0301302 -0.0097653 0)
  (0.0300227 -0.00688198 0)
  (0.0316624 -0.0059094 0)
  (0.0341171 -0.00587137 0)
  (0.037043 -0.00557547 0)
  (0.0402778 -0.0040587 0)
  (0.0436182 -0.000474691 0)
  (0.0465342 0.00543829 0)
  (0.048057 0.0133875 0)
  (0.0483898 0.0236046 0)
  (0.0489378 0.0378899 0)
  (0.0483002 0.0558632 0)
  (0.0701999 0.0787599 0)
  (0.0523329 0.097452 0)
  (0.0913768 0.0684656 0)
  (0.114367 0.0446387 0)
  (-0.128107 -0.00732908 0)
  (0.767328 0.468532 0)
  (-0.301641 0.173518 0)
  (0.0221722 0.0677133 0)
  (0.0497875 0.0626881 0)
  (0.0707118 0.0433616 0)
  (0.104425 -0.00488307 0)
  (0.136013 -0.0583967 0)
  (0.154165 -0.0990748 0)
  (0.160003 -0.124471 0)
  (0.155624 -0.135633 0)
  (0.143679 -0.134727 0)
  (0.127041 -0.124602 0)
  (0.108253 -0.108155 0)
  (0.0894691 -0.088291 0)
  (0.072441 -0.0675742 0)
  (0.0582641 -0.0480548 0)
  (0.0474394 -0.0323904 0)
  (0.0388278 -0.022958 0)
  (0.0304302 -0.0187489 0)
  (0.0218922 -0.0164357 0)
  (0.0142221 -0.0141792 0)
  (0.00838827 -0.0120428 0)
  (0.00458986 -0.0101947 0)
  (0.0028251 -0.00866336 0)
  (0.00293388 -0.00782187 0)
  (0.00441686 -0.00806556 0)
  (0.00665725 -0.00876353 0)
  (0.00943652 -0.00905949 0)
  (0.0128044 -0.00810229 0)
  (0.0168916 -0.00489557 0)
  (0.022637 0.00152171 0)
  (0.028284 0.0102152 0)
  (0.0336887 0.0205151 0)
  (0.040656 0.0331133 0)
  (0.0484726 0.047781 0)
  (0.0702081 0.0662252 0)
  (0.0838476 0.0747096 0)
  (0.11567 0.0527319 0)
  (0.155192 0.0440792 0)
  (-0.0364026 0.0925025 0)
  (0.872134 0.469778 0)
  (-0.0640381 0.152097 0)
  (0.110176 -0.0141303 0)
  (0.182129 -0.0419685 0)
  (0.213824 -0.053891 0)
  (0.245206 -0.0762919 0)
  (0.262661 -0.0983023 0)
  (0.263109 -0.113845 0)
  (0.248192 -0.121015 0)
  (0.222006 -0.119909 0)
  (0.189056 -0.111774 0)
  (0.153372 -0.098411 0)
  (0.118102 -0.0815857 0)
  (0.0856279 -0.0634699 0)
  (0.0575527 -0.0459576 0)
  (0.034473 -0.0302329 0)
  (0.0171908 -0.0184575 0)
  (0.00474952 -0.011929 0)
  (-0.00478019 -0.00942519 0)
  (-0.0120729 -0.00869723 0)
  (-0.0178718 -0.00830011 0)
  (-0.0221068 -0.00807385 0)
  (-0.0248779 -0.00804506 0)
  (-0.0263247 -0.00825784 0)
  (-0.0266716 -0.00886895 0)
  (-0.0263261 -0.00994592 0)
  (-0.0256774 -0.0111784 0)
  (-0.0248341 -0.0121163 0)
  (-0.023639 -0.0122654 0)
  (-0.0216976 -0.0110396 0)
  (-0.018036 -0.00769421 0)
  (-0.00940202 -0.00154799 0)
  (-0.00123044 0.00638608 0)
  (0.00925889 0.0145005 0)
  (0.0209288 0.0215662 0)
  (0.0406983 0.0289301 0)
  (0.0598063 0.0225897 0)
  (0.0799291 -0.00454082 0)
  (0.138716 0.0390022 0)
  (-0.404352 0.202175 0)
  (1.01909 0.422879 0)
  (0.484762 0.279479 0)
  (0.499698 0.182727 0)
  (0.526579 0.111149 0)
  (0.507639 0.0594732 0)
  (0.465448 0.0122397 0)
  (0.416482 -0.0268249 0)
  (0.362719 -0.0533616 0)
  (0.304473 -0.0667277 0)
  (0.244668 -0.0690214 0)
  (0.186777 -0.0636392 0)
  (0.133379 -0.0537041 0)
  (0.086081 -0.0411011 0)
  (0.0463959 -0.0280215 0)
  (0.0144031 -0.0162487 0)
  (-0.0109798 -0.0068539 0)
  (-0.0257531 -0.00274882 0)
  (-0.0348745 -0.00179033 0)
  (-0.0410025 -0.00233543 0)
  (-0.0457706 -0.00334414 0)
  (-0.0496867 -0.00435612 0)
  (-0.0528809 -0.00534479 0)
  (-0.0554523 -0.00633555 0)
  (-0.0575521 -0.00736484 0)
  (-0.0594166 -0.00848262 0)
  (-0.0613981 -0.00967028 0)
  (-0.0638534 -0.0107261 0)
  (-0.0670803 -0.0112858 0)
  (-0.0713956 -0.0108223 0)
  (-0.0772246 -0.00863399 0)
  (-0.0851119 -0.00389843 0)
  (-0.0949859 0.0039238 0)
  (-0.105053 0.0143269 0)
  (-0.119801 0.0275586 0)
  (-0.142914 0.0437689 0)
  (-0.1769 0.0619093 0)
  (-0.225122 0.0781372 0)
  (-0.280709 0.0898981 0)
  (-0.348729 0.0971135 0)
  (-0.608399 0.100271 0)
  (-0.149807 0.00125226 0)
  (0.120715 0.000265584 0)
  (0.199066 -0.0332294 0)
  (0.186333 -0.0426697 0)
  (0.170233 -0.0402697 0)
  (0.148086 -0.0350822 0)
  (0.118596 -0.0286669 0)
  (0.0848718 -0.0211553 0)
  (0.0503365 -0.0130024 0)
  (0.0154242 -0.00482726 0)
  (-0.0177007 0.00259609 0)
  (-0.0398518 0.00680062 0)
  (-0.0550927 0.00907704 0)
  (-0.0641487 0.00951427 0)
  (-0.0691775 0.00864755 0)
  (-0.0726849 0.00770899 0)
  (-0.0754727 0.00696173 0)
  (-0.0779537 0.00641017 0)
  (-0.0804431 0.00596553 0)
  (-0.0830655 0.00535606 0)
  (-0.0857916 0.00464639 0)
  (-0.0886976 0.00384941 0)
  (-0.0919052 0.00301582 0)
  (-0.0955611 0.00226775 0)
  (-0.0997523 0.00183708 0)
  (-0.104477 0.00203527 0)
  (-0.109667 0.00318973 0)
  (-0.115146 0.00559646 0)
  (-0.120289 0.00980227 0)
  (-0.124394 0.0167155 0)
  (-0.127799 0.0274492 0)
  (-0.130716 0.0423951 0)
  (-0.13379 0.0607694 0)
  (-0.137448 0.0791924 0)
  (-0.13867 0.0881701 0)
  (-0.121299 0.0672138 0)
  (-0.0788197 -0.0227209 0)
  (-0.273517 -0.197832 0)
  (0.0172179 0.194007 0)
  (0.0412094 0.0696195 0)
  (0.000605269 0.00534002 0)
  (-0.0131004 -0.00272332 0)
  (-0.0269825 -0.000534838 0)
  (-0.0421955 -4.23908e-05 0)
  (-0.0585345 0.00117032 0)
  (-0.0739089 0.00345414 0)
  (-0.0858406 0.00551249 0)
  (-0.092374 0.00574918 0)
  (-0.0965499 0.00370767 0)
  (-0.0982262 -0.000353292 0)
  (-0.0984336 -0.00491674 0)
  (-0.0978204 -0.00981989 0)
  (-0.0972966 -0.015066 0)
  (-0.0973854 -0.0201845 0)
  (-0.0981092 -0.0248934 0)
  (-0.0993662 -0.0289382 0)
  (-0.101027 -0.0321319 0)
  (-0.103014 -0.0343668 0)
  (-0.105392 -0.0357951 0)
  (-0.108073 -0.0363713 0)
  (-0.110954 -0.0360347 0)
  (-0.113935 -0.0348847 0)
  (-0.116888 -0.0330037 0)
  (-0.119575 -0.0301659 0)
  (-0.121627 -0.0259501 0)
  (-0.122585 -0.0197909 0)
  (-0.122028 -0.0117631 0)
  (-0.119078 -0.00156591 0)
  (-0.112379 0.0115098 0)
  (-0.100648 0.0281018 0)
  (-0.083422 0.0477333 0)
  (-0.0614457 0.0665274 0)
  (-0.0375677 0.077545 0)
  (0.00215469 0.0617249 0)
  (0.142937 -0.00849607 0)
  (-0.204609 -0.10796 0)
  (-0.0419082 -0.319208 0)
  (-0.412652 -0.123281 0)
  (-0.300838 0.0638324 0)
  (-0.250377 -0.0169943 0)
  (-0.210814 -0.0219168 0)
  (-0.19987 -0.0107674 0)
  (-0.195515 -0.00106392 0)
  (-0.192028 0.00696381 0)
  (-0.187412 0.0145068 0)
  (-0.180801 0.0220254 0)
  (-0.172052 0.0295963 0)
  (-0.161525 0.0371104 0)
  (-0.150386 0.0444035 0)
  (-0.139781 0.0514731 0)
  (-0.130483 0.0585776 0)
  (-0.12275 0.0656755 0)
  (-0.116617 0.0727253 0)
  (-0.111909 0.0795065 0)
  (-0.108382 0.0856135 0)
  (-0.105829 0.0906676 0)
  (-0.104067 0.0944196 0)
  (-0.102935 0.096751 0)
  (-0.102348 0.0977291 0)
  (-0.102264 0.0972965 0)
  (-0.102644 0.095401 0)
  (-0.103417 0.0923036 0)
  (-0.104454 0.0883686 0)
  (-0.105545 0.0836877 0)
  (-0.106312 0.0783049 0)
  (-0.10608 0.0723893 0)
  (-0.103603 0.0671732 0)
  (-0.0970617 0.0635783 0)
  (-0.0840981 0.0625035 0)
  (-0.0629052 0.0649244 0)
  (-0.0338872 0.0713882 0)
  (0.0114855 0.0809542 0)
  (0.0545046 0.081962 0)
  (0.0951883 0.0693751 0)
  (0.160725 0.0439838 0)
  (-0.233529 -0.00563966 0)
)
;

boundaryField
{
  floor
  {
    type noSlip;
  }
  ceiling
  {
    type noSlip;
  }
  sWall
  {
    type noSlip;
  }
  nWall
  {
    type noSlip;
  }
  sideWalls
  {
    type empty;
  }
  glass1
  {
    type noSlip;
  }
  glass2
  {
    type noSlip;
  }
  sun
  {
    type noSlip;
  }
  heatsource1
  {
    type noSlip;
  }
  heatsource2
  {
    type noSlip;
  }
  Table_master
  {
    type noSlip;
  }
  Table_slave
  {
    type noSlip;
  }
  inlet
  {
    type fixedValue;
    value uniform (0.277164 -0.114805 0);
  }
  outlet
  {
    type zeroGradient;
  }
} 	// ************************************************************************* //

