/*--------------------------------*- C++ -*----------------------------------*\
  =========                 |
  \\      /  F ield         | OpenFOAM: The Open Source CFD Toolbox
   \\    /   O peration     | Website:  https://openfoam.org
    \\  /    A nd           | Version:  6
     \\/     M anipulation  |
\*---------------------------------------------------------------------------*/
FoamFile
{
    version     2.0;
    format      ascii;
    class       volScalarField;
    location    "1000";
    object      alphat;
}
// * * * * * * * * * * * * * * * * * * * * * * * * * * * * * * * * * * * * * //

dimensions      [1 -1 -1 0 0 0 0];

internalField   nonuniform List<scalar> 
459
(
0.00125514
0.00137277
0.00139848
0.0014658
0.00152814
0.00158651
0.00164378
0.00169954
0.00173873
0.00175497
0.0017424
0.00169743
0.00161986
0.00151614
0.00140217
0.000551608
0.000674487
0.000758866
0.000754174
0.000728134
0.000693909
0.000651001
0.000608503
0.000569934
0.000535691
0.00050537
0.000478433
0.000454477
0.000432971
0.000413146
0.000394005
0.000374082
0.000359712
0.000327422
0.00170893
0.00419096
0.00401526
0.00467429
0.00532167
0.00596797
0.00653647
0.00696476
0.00735129
0.00766461
0.00786079
0.00789022
0.00767729
0.00703205
0.00526411
0.00143065
0.000839717
0.000596083
0.00125252
0.00173007
0.00207143
0.00225207
0.00224345
0.00180334
0.0015558
0.00137862
0.0012425
0.00113418
0.00104597
0.000969973
0.000899068
0.000830217
0.000768915
0.000715602
0.000838166
0.000427127
0.00208564
0.00572444
0.00498809
0.00625604
0.00688825
0.00735574
0.00771759
0.00800651
0.00832012
0.00864719
0.00894827
0.00916811
0.00924546
0.00908937
0.00846034
0.00651764
0.00142505
0.00118821
0.00170822
0.00218886
0.00261589
0.00290368
0.00282103
0.000932231
0.000822953
0.0007352
0.000664415
0.000606763
0.000559302
0.000519924
0.000487285
0.000460826
0.000496783
0.000574919
0.000943407
0.000493609
0.0024464
0.00730958
0.00500564
0.00662605
0.00718199
0.00736858
0.00748853
0.0076362
0.0078866
0.00822286
0.0086029
0.00895805
0.00922435
0.00932918
0.00919081
0.00851647
0.00621616
0.00170401
0.00211266
0.00272698
0.00331802
0.003783
0.00406333
0.00380014
0.00105201
0.00095733
0.000889414
0.000837569
0.000793542
0.000753292
0.000714698
0.00067431
0.000627617
0.000588898
0.000602728
0.00107736
0.000545121
0.00281374
0.00934125
0.00550088
0.00638287
0.00711923
0.00716576
0.0071002
0.00718002
0.00740163
0.00774448
0.00817105
0.00858755
0.00890532
0.00905383
0.00900872
0.00872197
0.00799885
0.00661934
0.00614782
0.00599409
0.00594305
0.00591075
0.00584653
0.00561742
0.00473553
0.00431119
0.0040636
0.00387241
0.00367199
0.00338484
0.00299892
0.00253123
0.00201209
0.00148946
0.00109849
0.00110549
0.000732693
0.000671058
0.000812694
0.000912293
0.00320285
0.0115514
0.00755854
0.00635574
0.00691076
0.00715562
0.00699209
0.00705756
0.00722506
0.00753202
0.00796308
0.00841944
0.0087692
0.00891148
0.00882416
0.00856351
0.00822026
0.00786753
0.00767281
0.00753081
0.00736904
0.00718205
0.00696892
0.00669822
0.0062966
0.00593598
0.00561596
0.00531014
0.0050003
0.00466493
0.00424521
0.0037251
0.00310471
0.00241943
0.00181452
0.00136044
0.00102422
0.000868492
0.00123722
0.000952194
0.00355607
0.0130919
0.0105682
0.00817885
0.00774322
0.00763671
0.00737361
0.00721135
0.0072676
0.00756854
0.00804655
0.00855517
0.00892301
0.00903176
0.0088713
0.00855727
0.00829075
0.00820522
0.00822421
0.00815743
0.00795042
0.00764149
0.00726665
0.00684615
0.00640064
0.00598579
0.00560581
0.00525287
0.00492755
0.00463732
0.00438204
0.00403523
0.00355121
0.00296187
0.0023961
0.00189106
0.00151944
0.00140449
0.00143094
0.00108567
0.00362187
0.0116252
0.0103398
0.00955781
0.00884955
0.00803595
0.00740903
0.0071683
0.0073347
0.00781887
0.00845521
0.00903377
0.00935977
0.00934251
0.00903132
0.00862452
0.00838581
0.00839458
0.00841147
0.00816591
0.0077256
0.00717622
0.0065895
0.00602745
0.0055325
0.0051156
0.00476259
0.00446533
0.0042273
0.00405731
0.00396347
0.00391617
0.00367426
0.00329735
0.00296678
0.00279906
0.00290787
0.0033474
0.00410419
0.00169385
0.00352176
0.0041788
0.00464123
0.00475563
0.00485888
0.00514003
0.00569926
0.00654347
0.0075724
0.00860715
0.00945651
0.00994187
0.00994798
0.00953778
0.008932
0.00852746
0.00829937
0.00810237
0.00776457
0.00721934
0.00654487
0.00584458
0.00520651
0.00467649
0.00425612
0.00392166
0.00364806
0.00341997
0.0032274
0.00306032
0.00290805
0.00276893
0.00265932
0.00257878
0.00254841
0.00255957
0.00254468
0.00244218
0.00228212
0.00159242
0.00175625
0.00360589
0.00588065
0.00776191
0.00921937
0.0103211
0.0110063
0.011266
0.0111432
0.0106336
0.00984201
0.00887147
0.00805581
0.00755232
0.00713991
0.00663169
0.00600925
0.00534266
0.00470788
0.00415719
0.00372038
0.00338333
0.00312087
0.00291299
0.00274817
0.00262064
0.00252752
0.00246734
0.00244193
0.00244823
0.00247014
0.00250303
0.00253784
0.00254665
0.00248447
0.00233691
0.00211492
0.00132431
0.00235056
0.00605671
0.00901192
0.0101361
0.0106932
0.0108566
0.0106004
0.00999924
0.00917635
0.00825382
0.00738332
0.00661084
0.00598799
0.00545473
0.00491608
0.00438645
0.00391668
0.00353381
0.0032369
0.00300986
0.00282607
0.00267143
0.00253969
0.00243346
0.00235607
0.00230678
0.00228391
0.00228558
0.00231718
0.00237546
0.00245632
0.00255113
0.00264099
0.00270294
0.00268209
0.00271139
0.00275162
0.00135047
0.00208567
0.00221075
0.00229894
0.00246199
0.0023762
0.00227805
0.00221412
0.00212354
0.00199395
0.0018334
0.00165322
0.0014663
0.00128544
0.00113097
0.00101455
0.000931755
0.000872828
0.000830041
0.000798721
0.000776202
0.000760819
0.000751566
0.000747771
0.000749677
0.000757823
0.000771999
0.000791927
0.00081801
0.000850913
0.000891494
0.000938732
0.000992705
0.00105399
0.00112311
0.00119947
0.00129012
0.00131954
0.00128563
0.00120782
0.00112525
)
;

boundaryField
{
    floor
    {
        type            compressible::alphatWallFunction;
        Prt             0.85;
        value           nonuniform List<scalar> 
29
(
0.000197795
7.7105e-05
9.54561e-05
0.000107818
0.000107136
0.000103336
9.83177e-05
9.19828e-05
8.56582e-05
7.98712e-05
7.46925e-05
7.00726e-05
6.5939e-05
6.22382e-05
5.88948e-05
5.5794e-05
5.2782e-05
4.96268e-05
4.73376e-05
4.21494e-05
4.21488e-05
5.79829e-05
6.82717e-05
7.61233e-05
0.000197793
7.71041e-05
8.37993e-05
0.00016854
0.000238236
)
;
    }
    ceiling
    {
        type            compressible::alphatWallFunction;
        Prt             0.85;
        value           nonuniform List<scalar> 
43
(
0.000288159
0.000304325
0.000315665
0.000336634
0.000325736
0.000313181
0.000304969
0.000293281
0.000276458
0.000255445
0.000231619
0.000206592
0.000182034
0.000160746
0.000144482
0.000132784
0.000124384
0.000118242
0.000113723
0.000110461
0.000108226
0.000106878
0.000106326
0.000106604
0.00010779
0.000109851
0.000112741
0.00011651
0.000121244
0.000127054
0.000133777
0.00014141
0.00015002
0.000159659
0.00017023
0.000182682
0.000186701
0.000182068
0.000171383
0.00015996
0.00046925
0.000549164
0.000322112
)
;
    }
    sWall
    {
        type            compressible::alphatWallFunction;
        Prt             0.85;
        value           uniform 0.00028695;
    }
    nWall
    {
        type            compressible::alphatWallFunction;
        Prt             0.85;
        value           nonuniform List<scalar> 6(0.000129699 0.00013536 0.000154111 0.000187025 0.000190587 0.000159639);
    }
    sideWalls
    {
        type            empty;
    }
    glass1
    {
        type            compressible::alphatWallFunction;
        Prt             0.85;
        value           nonuniform List<scalar> 9(0.000173466 0.000233794 0.000282652 0.00032864 0.000374794 0.000423044 0.000466365 0.000474517 0.000462535);
    }
    glass2
    {
        type            compressible::alphatWallFunction;
        Prt             0.85;
        value           nonuniform List<scalar> 2(0.000235337 0.000221952);
    }
    sun
    {
        type            compressible::alphatWallFunction;
        Prt             0.85;
        value           nonuniform List<scalar> 
14
(
0.000177772
0.000193812
0.0001973
0.000206399
0.000214784
0.0002226
0.000230238
0.000237645
0.000242836
0.000244983
0.00024332
0.000237364
0.000227048
0.000213168
)
;
    }
    heatsource1
    {
        type            compressible::alphatWallFunction;
        Prt             0.85;
        value           nonuniform List<scalar> 3(9.50535e-05 0.000115726 0.000130001);
    }
    heatsource2
    {
        type            compressible::alphatWallFunction;
        Prt             0.85;
        value           nonuniform List<scalar> 4(0.00020177 0.000119618 0.000119617 0.000201011);
    }
    Table_master
    {
        type            compressible::alphatWallFunction;
        Prt             0.85;
        value           nonuniform List<scalar> 9(0.000132833 0.000117203 0.000104472 9.40695e-05 8.5497e-05 7.83646e-05 7.23897e-05 6.73943e-05 6.33138e-05);
    }
    Table_slave
    {
        type            compressible::alphatWallFunction;
        Prt             0.85;
        value           nonuniform List<scalar> 9(0.000149723 0.000136395 0.000126739 0.00011931 0.000112958 0.000107113 0.000101474 9.55336e-05 8.86111e-05);
    }
    inlet
    {
        type            fixedValue;
        value           uniform 1.94e-05;
    }
    outlet
    {
        type            zeroGradient;
    }
}


// ************************************************************************* //
