/*--------------------------------*- C++ -*----------------------------------*\
  =========                 |
  \\      /  F ield         | OpenFOAM: The Open Source CFD Toolbox
   \\    /   O peration     | Website:  https://openfoam.org
    \\  /    A nd           | Version:  6
     \\/     M anipulation  |
\*---------------------------------------------------------------------------*/
FoamFile
{
    version     2.0;
    format      ascii;
    class       volScalarField;
    location    "470";
    object      alphat;
}
// * * * * * * * * * * * * * * * * * * * * * * * * * * * * * * * * * * * * * //

dimensions      [1 -1 -1 0 0 0 0];

internalField   nonuniform List<scalar> 
459
(
0.000785672
0.00087821
0.000924947
0.000980604
0.00103516
0.00109344
0.00114923
0.00119617
0.00122762
0.00123451
0.00116127
0.0010759
0.000969127
0.000864353
0.000759407
0.000470812
0.000630312
0.000717491
0.000734047
0.000730012
0.000710416
0.000671549
0.000629679
0.000590995
0.000556409
0.000525598
0.000498207
0.000473723
0.00045136
0.0004302
0.000408999
0.0003858
0.000350651
0.000313686
0.000971822
0.00246219
0.00250467
0.00293176
0.0033734
0.0037273
0.00405678
0.00439303
0.00472158
0.00500701
0.00511734
0.00488885
0.00444475
0.00348598
0.00225092
0.000880613
0.000733352
0.000708031
0.00244699
0.00251942
0.00286605
0.0030738
0.0029425
0.00209922
0.0017496
0.00152373
0.0013592
0.00123285
0.00112995
0.00103678
0.000946418
0.000853873
0.000770091
0.000717856
0.000586258
0.000372036
0.00112704
0.00338108
0.00318862
0.0035818
0.00382955
0.00401294
0.00422168
0.00451696
0.00494827
0.00547428
0.00588905
0.00595533
0.00574817
0.00514566
0.00405731
0.00250525
0.000841614
0.000750413
0.00215084
0.00289747
0.00358243
0.00398225
0.00359689
0.000900263
0.000787717
0.000697771
0.000626226
0.000568892
0.000522516
0.000485135
0.000455533
0.000433934
0.000491544
0.00060423
0.000636063
0.000404198
0.00127481
0.00405461
0.00332788
0.00365353
0.00367238
0.00369922
0.00379618
0.00404939
0.00457073
0.00526491
0.00582869
0.00610002
0.00610578
0.0058388
0.00515567
0.00396643
0.00206556
0.000939523
0.00144983
0.00237906
0.00352835
0.00445563
0.00492942
0.0043842
0.00099076
0.000902065
0.000839331
0.000791722
0.000751643
0.00071447
0.000678581
0.000640465
0.00059596
0.000556688
0.000588979
0.00071359
0.000449851
0.00142813
0.00484094
0.00347135
0.00368209
0.00359675
0.00351692
0.00351707
0.00374001
0.0043417
0.00509721
0.0057302
0.00607868
0.00616629
0.00606301
0.00572811
0.00509245
0.00413906
0.0038386
0.00442797
0.0051609
0.00578596
0.00617736
0.00629179
0.00600448
0.00484725
0.00431559
0.00402286
0.0038183
0.00362443
0.00336882
0.00300174
0.00253578
0.00199923
0.00147194
0.00109626
0.00100003
0.00071129
0.000509979
0.000512353
0.000514215
0.00159706
0.00578656
0.00421252
0.00387773
0.00386172
0.00357907
0.00345752
0.00366432
0.0042863
0.00510848
0.00579356
0.0061581
0.00625372
0.00624333
0.00620815
0.006118
0.00601662
0.00634512
0.00686057
0.00722709
0.0073949
0.00736452
0.00716479
0.00681193
0.00629437
0.00586834
0.00553495
0.00524449
0.00495846
0.00464285
0.00424215
0.00374102
0.00314851
0.0025109
0.00193594
0.00157874
0.00123592
0.000995982
0.00115307
0.000678837
0.00175701
0.00650579
0.00555332
0.00462969
0.00429574
0.00375946
0.00348607
0.00370654
0.00441543
0.00532939
0.00606027
0.00642304
0.00652997
0.00665597
0.00689342
0.00713418
0.00741198
0.0078204
0.00812211
0.00817789
0.00802308
0.00770437
0.00727799
0.00679825
0.00631653
0.0059163
0.00558142
0.0052764
0.00497963
0.00467821
0.00436373
0.00404112
0.00363755
0.00316593
0.00266851
0.00225165
0.00185704
0.00153326
0.00149977
0.000812666
0.00179981
0.00589646
0.00529259
0.00484444
0.00414718
0.00354001
0.00338262
0.00382368
0.004748
0.00578723
0.00653291
0.00687061
0.00700962
0.00725022
0.0074292
0.00763988
0.00791391
0.00816666
0.00824013
0.00805226
0.0076668
0.00715134
0.00658227
0.00603269
0.00556093
0.00518769
0.00488212
0.00461248
0.00436004
0.00411335
0.00387426
0.00367365
0.00353973
0.00337215
0.0031191
0.00289387
0.00265981
0.00227004
0.00251588
0.00105377
0.00177249
0.00209664
0.00228094
0.00227855
0.00227275
0.00246541
0.00307999
0.00415155
0.00543837
0.00654106
0.00714967
0.0073751
0.00736393
0.00722268
0.0071828
0.00727505
0.00740955
0.00745347
0.00731796
0.00700807
0.0065634
0.00605394
0.00556486
0.00514313
0.00479806
0.00451367
0.00425872
0.00401158
0.00375905
0.0034848
0.00317122
0.00283673
0.00254501
0.00233123
0.00216709
0.00202237
0.00189143
0.00177293
0.00168891
0.0011144
0.000481542
0.00100526
0.00188134
0.00309633
0.00453978
0.00592886
0.0069518
0.00747264
0.00748826
0.00713961
0.00680579
0.00662675
0.00657296
0.00657332
0.00655141
0.00644972
0.00626002
0.00601777
0.00576783
0.00554032
0.00534184
0.00516131
0.00497714
0.00477664
0.00454221
0.00426422
0.00394387
0.00359335
0.00322904
0.00286624
0.00254427
0.00228989
0.00211579
0.00200683
0.00192294
0.00182635
0.00172711
0.00123395
0.00152361
0.00554448
0.00730822
0.00805505
0.00820958
0.00817829
0.00795016
0.00751199
0.00697859
0.00655513
0.00631582
0.00621386
0.00617974
0.00616802
0.00615516
0.00612959
0.00608994
0.0060433
0.0059987
0.00596191
0.00593196
0.00590126
0.00585617
0.00578382
0.0056677
0.0054913
0.00524189
0.00491521
0.00451738
0.00406388
0.00360296
0.00317355
0.00280881
0.00252046
0.00229352
0.00212469
0.00270124
0.00136016
0.00170447
0.00180479
0.0019103
0.00220284
0.00213297
0.00200316
0.00188607
0.00179181
0.001701
0.00161259
0.00154066
0.00149492
0.00147169
0.00146249
0.00146104
0.00146297
0.00146521
0.00146584
0.00146443
0.00146161
0.00145826
0.00145479
0.00145101
0.00144617
0.00143936
0.00142876
0.0014128
0.00139026
0.0013608
0.00132548
0.00128698
0.00124955
0.001216
0.00118948
0.00117171
0.00116165
0.00115242
0.0011319
0.0011344
0.00111301
)
;

boundaryField
{
    floor
    {
        type            compressible::alphatWallFunction;
        Prt             0.85;
        value           nonuniform List<scalar> 
29
(
0.00010808
6.49333e-05
8.90904e-05
0.000101967
0.000104391
0.000103802
0.000100932
9.52105e-05
8.90016e-05
8.32198e-05
7.80107e-05
7.33363e-05
6.91516e-05
6.53867e-05
6.19263e-05
5.86317e-05
5.53099e-05
5.16493e-05
4.60476e-05
4.00758e-05
4.00752e-05
4.94641e-05
5.45553e-05
6.16937e-05
0.000108079
6.49325e-05
0.000100576
0.000106772
0.000133951
)
;
    }
    ceiling
    {
        type            compressible::alphatWallFunction;
        Prt             0.85;
        value           nonuniform List<scalar> 
43
(
0.000238494
0.000251754
0.000265614
0.000303627
0.000294609
0.00027776
0.000262462
0.00025007
0.000238064
0.000226305
0.000216688
0.000210546
0.00020742
0.000206181
0.000205986
0.000206246
0.000206548
0.000206634
0.000206443
0.000206063
0.000205611
0.000205141
0.000204631
0.000203978
0.000203057
0.000201624
0.000199465
0.00019641
0.00019241
0.000187601
0.000182342
0.000177212
0.000172598
0.00016894
0.000166484
0.000165091
0.000163811
0.000160965
0.000161314
0.000158342
0.000247507
0.000289897
0.000214357
)
;
    }
    sWall
    {
        type            compressible::alphatWallFunction;
        Prt             0.85;
        value           uniform 0.000238221;
    }
    nWall
    {
        type            compressible::alphatWallFunction;
        Prt             0.85;
        value           nonuniform List<scalar> 6(7.13977e-05 9.60691e-05 0.000115584 0.000174826 0.000192077 0.000158104);
    }
    sideWalls
    {
        type            empty;
    }
    glass1
    {
        type            compressible::alphatWallFunction;
        Prt             0.85;
        value           nonuniform List<scalar> 9(0.000111218 0.000137759 0.000159439 0.000179766 0.00020058 0.00022323 0.000244436 0.000250085 0.00024651);
    }
    glass2
    {
        type            compressible::alphatWallFunction;
        Prt             0.85;
        value           nonuniform List<scalar> 2(0.000149392 0.000157854);
    }
    sun
    {
        type            compressible::alphatWallFunction;
        Prt             0.85;
        value           nonuniform List<scalar> 
14
(
0.000111893
0.000125213
0.000131877
0.000139762
0.000147441
0.000155591
0.000163346
0.000169838
0.00017417
0.000175117
0.000165014
0.000153145
0.000138142
0.000123232
)
;
    }
    heatsource1
    {
        type            compressible::alphatWallFunction;
        Prt             0.85;
        value           nonuniform List<scalar> 3(7.08742e-05 7.12365e-05 7.15203e-05);
    }
    heatsource2
    {
        type            compressible::alphatWallFunction;
        Prt             0.85;
        value           nonuniform List<scalar> 4(0.000125483 0.000104207 0.000104205 0.000119891);
    }
    Table_master
    {
        type            compressible::alphatWallFunction;
        Prt             0.85;
        value           nonuniform List<scalar> 9(0.000128287 0.000112114 9.89894e-05 8.84036e-05 7.98132e-05 7.27861e-05 6.70649e-05 6.24951e-05 5.91369e-05);
    }
    Table_slave
    {
        type            compressible::alphatWallFunction;
        Prt             0.85;
        value           nonuniform List<scalar> 9(0.000141121 0.000128547 0.000119566 0.000112696 0.000106875 0.000101442 9.61648e-05 9.05223e-05 8.38818e-05);
    }
    inlet
    {
        type            fixedValue;
        value           uniform 1.94e-05;
    }
    outlet
    {
        type            zeroGradient;
    }
}


// ************************************************************************* //
