/*--------------------------------*- C++ -*----------------------------------*\
  =========                 |
  \\      /  F ield         | OpenFOAM: The Open Source CFD Toolbox
   \\    /   O peration     | Website:  https://openfoam.org
    \\  /    A nd           | Version:  6
     \\/     M anipulation  |
\*---------------------------------------------------------------------------*/
FoamFile
{
    version     2.0;
    format      ascii;
    class       volScalarField;
    location    "470";
    object      epsilon;
}
// * * * * * * * * * * * * * * * * * * * * * * * * * * * * * * * * * * * * * //

dimensions      [0 2 -3 0 0 0 0];

internalField   nonuniform List<scalar> 
459
(
0.000107212
0.00014968
0.000174873
0.000208382
0.000245138
0.00028892
0.000335442
0.000378261
0.000408902
0.000415859
0.000346225
0.00027537
0.000201259
0.000142791
9.68357e-05
2.31044e-05
5.54417e-05
8.179e-05
8.75961e-05
8.61689e-05
7.94211e-05
6.70889e-05
5.53082e-05
4.57293e-05
3.81624e-05
3.21682e-05
2.7397e-05
2.35538e-05
2.03736e-05
1.76409e-05
1.51597e-05
1.2724e-05
9.55386e-06
6.83978e-06
0.000202946
0.000240589
0.000135895
0.000140459
0.000154708
0.000180872
0.000216199
0.000251801
0.000276249
0.000280781
0.0002453
0.000197869
0.000155337
0.00012367
9.49932e-05
0.000151031
8.72319e-05
7.85851e-05
0.00015768
9.0244e-05
7.40393e-05
6.56482e-05
6.00125e-05
6.11856e-05
5.12105e-05
4.14263e-05
3.33884e-05
2.70286e-05
2.2059e-05
1.81912e-05
1.51541e-05
1.28894e-05
1.16976e-05
1.24484e-05
1.02744e-05
1.14133e-05
0.000316621
0.000430651
0.000134193
0.000125129
0.000140985
0.000171583
0.000211437
0.000249366
0.000277791
0.000287575
0.000263009
0.000219311
0.000175351
0.000137717
0.000106431
0.000103451
0.000131862
9.35313e-05
0.000112293
8.91291e-05
7.77463e-05
6.95914e-05
6.83789e-05
0.000161721
0.000108338
7.53052e-05
5.44373e-05
4.0814e-05
3.16255e-05
2.53129e-05
2.09572e-05
1.81156e-05
1.39054e-05
1.3196e-05
1.21601e-05
1.46392e-05
0.00045832
0.00077162
0.000159505
0.000119513
0.000136685
0.000176307
0.000222416
0.000261531
0.000295614
0.000310661
0.000289737
0.000243229
0.000193249
0.000152111
0.0001199
0.000103984
0.000106844
0.000183486
0.000136706
0.000108814
9.5012e-05
8.56589e-05
7.76558e-05
7.77769e-05
0.000215717
0.000162849
0.000131204
0.000110136
9.42552e-05
8.09605e-05
6.93698e-05
5.83295e-05
4.69979e-05
2.69733e-05
1.82851e-05
1.92552e-05
2.01858e-05
0.000644545
0.0013214
0.000246589
0.000127416
0.000144176
0.000210459
0.000260863
0.000299012
0.000338414
0.000354784
0.000328924
0.000269597
0.000205574
0.000155683
0.000122235
0.000104985
0.000106873
0.000119784
0.000117131
0.000114446
0.000109641
0.000101481
9.09911e-05
8.15193e-05
8.25135e-05
7.81884e-05
7.35508e-05
6.85818e-05
6.29345e-05
5.65409e-05
4.95932e-05
4.24629e-05
3.55291e-05
2.72079e-05
2.03753e-05
2.27964e-05
2.23267e-05
2.94215e-05
2.98356e-05
3.01701e-05
0.000901637
0.00202464
0.000507694
0.000197323
0.000197152
0.000303927
0.000337399
0.000369159
0.000409347
0.000424831
0.000385909
0.000303488
0.000217055
0.000153606
0.000118097
0.000105839
0.00011281
0.000127309
0.000136367
0.000137913
0.000132108
0.000120355
0.000105446
9.10198e-05
8.15654e-05
7.64954e-05
7.32593e-05
6.97229e-05
6.5092e-05
5.91977e-05
5.19201e-05
4.40631e-05
3.66479e-05
3.0073e-05
2.43319e-05
2.38999e-05
2.51763e-05
2.80787e-05
0.000103261
6.94232e-05
0.0012009
0.00254482
0.00112338
0.000570854
0.000516141
0.00048547
0.000463425
0.000479836
0.000520051
0.000528125
0.000464626
0.000346694
0.00023083
0.00015338
0.000119087
0.000114948
0.000129305
0.000148801
0.000160361
0.000160311
0.000150506
0.00013447
0.000116384
0.000100393
9.00285e-05
8.53139e-05
8.2602e-05
7.96668e-05
7.59111e-05
7.15155e-05
6.66478e-05
5.99589e-05
5.32645e-05
4.77656e-05
4.38409e-05
4.27197e-05
4.42225e-05
5.08644e-05
0.000159038
0.000119132
0.00129127
0.00311567
0.00176473
0.0012405
0.000938635
0.000728184
0.000634347
0.000641672
0.000685333
0.00067342
0.000564044
0.000392609
0.000244899
0.000161373
0.000138636
0.00014275
0.000160543
0.000178939
0.000186083
0.000180247
0.000165662
0.000147828
0.000131222
0.000118829
0.000111581
0.000107896
0.000105079
0.000101719
9.79999e-05
9.52886e-05
9.54498e-05
9.96862e-05
0.000105254
0.000113803
0.00013215
0.000160157
0.000206145
0.000261988
0.000996994
0.000259878
0.00123396
0.00204144
0.0015502
0.0011695
0.000901231
0.000767265
0.000773216
0.000864593
0.000929367
0.00085906
0.000659055
0.000412487
0.000265839
0.000212699
0.000200229
0.000206083
0.000218896
0.000229105
0.000230022
0.000221294
0.000208143
0.000195574
0.000185891
0.000179978
0.000176875
0.00017376
0.000168062
0.0001586
0.000146297
0.000134445
0.000127989
0.000131511
0.000147637
0.000175667
0.000217705
0.000276906
0.000354146
0.000447288
0.000548857
0.000307574
0.000264199
0.000447518
0.000702639
0.000999757
0.00127936
0.00141358
0.0013093
0.000962163
0.000600607
0.00043976
0.000383996
0.000369313
0.000371067
0.000378804
0.000387541
0.000393608
0.000395754
0.000395419
0.000394898
0.00039549
0.000397866
0.000401326
0.000404666
0.000401589
0.000388053
0.00036126
0.000321244
0.000272906
0.000227053
0.000196754
0.000181596
0.000186311
0.000212436
0.000259637
0.00032183
0.000383307
0.000435591
0.000417791
0.000777776
0.00446446
0.00454619
0.00402143
0.0032319
0.00249874
0.00185787
0.0013515
0.00103039
0.000891759
0.000844189
0.000836078
0.000844335
0.000862328
0.000888823
0.000921219
0.000954665
0.000985881
0.00101477
0.00104325
0.00107217
0.00110038
0.00112382
0.00113875
0.00113691
0.00110902
0.00104786
0.000952153
0.000828504
0.00068979
0.000560504
0.000456507
0.000388327
0.000355376
0.000347077
0.000355826
0.000763771
0.000559531
0.0010937
0.00129832
0.00153958
0.00236482
0.00214987
0.00178263
0.0014891
0.00127754
0.00109349
0.000932022
0.000813013
0.000742856
0.00070885
0.000695695
0.000693662
0.000696439
0.00069966
0.000700573
0.000698537
0.000694497
0.000689703
0.000684746
0.000679385
0.00067258
0.000663079
0.000648506
0.000626996
0.000597441
0.000560252
0.000517742
0.000473915
0.000433747
0.00039973
0.000374126
0.000357602
0.000348459
0.000340209
0.000322365
0.000324528
0.000306589
)
;

boundaryField
{
    floor
    {
        Cmu             0.09;
        kappa           0.41;
        E               9.8;
        type            epsilonWallFunction;
        value           nonuniform List<scalar> 
29
(
9.68357e-05
2.31044e-05
5.54417e-05
8.179e-05
8.75961e-05
8.61689e-05
7.94211e-05
6.70889e-05
5.53082e-05
4.57293e-05
3.81624e-05
3.21682e-05
2.7397e-05
2.35538e-05
2.03736e-05
1.76409e-05
1.51597e-05
1.2724e-05
9.55386e-06
6.83978e-06
6.83978e-06
1.14133e-05
1.46392e-05
2.01858e-05
9.68357e-05
2.31044e-05
7.85851e-05
9.35313e-05
0.000183486
)
;
    }
    ceiling
    {
        Cmu             0.09;
        kappa           0.41;
        E               9.8;
        type            epsilonWallFunction;
        value           nonuniform List<scalar> 
43
(
0.0010937
0.00129832
0.00153958
0.00236482
0.00214987
0.00178263
0.0014891
0.00127754
0.00109349
0.000932022
0.000813013
0.000742856
0.00070885
0.000695695
0.000693662
0.000696439
0.00069966
0.000700573
0.000698537
0.000694497
0.000689703
0.000684746
0.000679385
0.00067258
0.000663079
0.000648506
0.000626996
0.000597441
0.000560252
0.000517742
0.000473915
0.000433747
0.00039973
0.000374126
0.000357602
0.000348459
0.000340209
0.000322365
0.000324528
0.000306589
0.00123396
0.00204144
0.000777776
)
;
    }
    sWall
    {
        Cmu             0.09;
        kappa           0.41;
        E               9.8;
        type            epsilonWallFunction;
        value           uniform 0.0010937;
    }
    nWall
    {
        Cmu             0.09;
        kappa           0.41;
        E               9.8;
        type            epsilonWallFunction;
        value           nonuniform List<scalar> 6(3.01701e-05 6.94232e-05 0.000119132 0.000417791 0.000559531 0.000306589);
    }
    sideWalls
    {
        type            empty;
    }
    glass1
    {
        Cmu             0.09;
        kappa           0.41;
        E               9.8;
        type            epsilonWallFunction;
        value           nonuniform List<scalar> 9(0.000107212 0.000202946 0.000316621 0.00045832 0.000644545 0.000901637 0.0012009 0.00129127 0.00123396);
    }
    glass2
    {
        Cmu             0.09;
        kappa           0.41;
        E               9.8;
        type            epsilonWallFunction;
        value           nonuniform List<scalar> 2(0.000259878 0.000307574);
    }
    sun
    {
        Cmu             0.09;
        kappa           0.41;
        E               9.8;
        type            epsilonWallFunction;
        value           nonuniform List<scalar> 
14
(
0.000107212
0.00014968
0.000174873
0.000208382
0.000245138
0.00028892
0.000335442
0.000378261
0.000408902
0.000415859
0.000346225
0.00027537
0.000201259
0.000142791
)
;
    }
    heatsource1
    {
        Cmu             0.09;
        kappa           0.41;
        E               9.8;
        type            epsilonWallFunction;
        value           nonuniform List<scalar> 3(2.94215e-05 2.98356e-05 3.01701e-05);
    }
    heatsource2
    {
        Cmu             0.09;
        kappa           0.41;
        E               9.8;
        type            epsilonWallFunction;
        value           nonuniform List<scalar> 4(0.000151031 8.72319e-05 8.72319e-05 0.000131862);
    }
    Table_master
    {
        Cmu             0.09;
        kappa           0.41;
        E               9.8;
        type            epsilonWallFunction;
        value           nonuniform List<scalar> 9(0.000161721 0.000108338 7.53052e-05 5.44373e-05 4.0814e-05 3.16255e-05 2.53129e-05 2.09572e-05 1.81156e-05);
    }
    Table_slave
    {
        Cmu             0.09;
        kappa           0.41;
        E               9.8;
        type            epsilonWallFunction;
        value           nonuniform List<scalar> 9(0.000215717 0.000162849 0.000131204 0.000110136 9.42552e-05 8.09605e-05 6.93698e-05 5.83295e-05 4.69979e-05);
    }
    inlet
    {
        type            turbulentMixingLengthDissipationRateInlet;
        mixingLength    0.01;
        phi             phi;
        k               k;
        value           uniform 0.000101881;
    }
    outlet
    {
        type            zeroGradient;
    }
}


// ************************************************************************* //
