/*--------------------------------*- C++ -*----------------------------------*\
  =========                 |
  \\      /  F ield         | OpenFOAM: The Open Source CFD Toolbox
   \\    /   O peration     | Website:  https://openfoam.org
    \\  /    A nd           | Version:  6
     \\/     M anipulation  |
\*---------------------------------------------------------------------------*/
FoamFile
{
    version     2.0;
    format      ascii;
    class       surfaceScalarField;
    location    "1500";
    object      phi;
}
// * * * * * * * * * * * * * * * * * * * * * * * * * * * * * * * * * * * * * //

dimensions      [1 0 -1 0 0 0 0];

internalField   nonuniform List<scalar> 
852
(
-0.00293574
0.002992
-0.00397284
0.0010371
-0.00476108
0.000788237
-0.00537804
0.000616964
-0.00579459
0.000416545
-0.0059881
0.000193518
-0.00593672
-5.13801e-05
-0.00562273
-0.000313997
-0.00505799
-0.000564734
-0.00429393
-0.000764062
-0.00341089
-0.00088304
-0.00249764
-0.000913256
-0.00162903
-0.000868609
-0.000827128
-0.000801899
-0.000825688
-0.000673824
0.000676513
-0.000341906
-0.000331918
0.000265827
-0.000607733
0.00073779
-0.000471963
0.00105017
-0.000312383
0.00124379
-0.000193612
0.00134879
-0.000105005
0.00140088
-5.20919e-05
0.00143015
-2.92633e-05
0.00144797
-1.78206e-05
0.00145783
-9.86792e-06
0.00146073
-2.90042e-06
0.00145474
5.99152e-06
0.00143145
2.32933e-05
0.00136847
6.29788e-05
0.00122815
0.000140323
0.000996001
0.000232146
0.000705886
0.000290115
0.000709502
-0.00209424
0.00523772
-0.00309858
0.00204144
-0.00390379
0.00159345
-0.00450753
0.00122071
-0.00491417
0.000823185
-0.0051102
0.000389541
-0.00507036
-9.12133e-05
-0.00477993
-0.000604431
-0.00426177
-0.0010829
-0.00357685
-0.00144898
-0.00280716
-0.00165273
-0.00203333
-0.00168709
-0.00132773
-0.0015742
-0.000778968
-0.00135067
-0.00057563
-0.00102903
-7.93436e-05
-0.000496338
-7.93948e-05
0.000382073
0.000302095
0.000805199
-0.000755044
0.00105269
-0.000855226
0.0012605
-0.000679771
0.00141465
-0.000466533
0.00150432
-0.000283287
0.00151799
-0.000118667
0.00152169
-5.57962e-05
0.0015262
-3.37736e-05
0.00153
-2.16225e-05
0.00153254
-1.24035e-05
0.00153378
-4.14289e-06
0.00153287
6.89864e-06
0.00152625
2.99189e-05
0.00148511
0.000104117
0.00131031
0.000315122
0.00100827
0.000534191
0.000627573
0.00067081
0.00134639
-0.00146571
0.00693509
-0.00232848
0.00290421
-0.00303657
0.00230154
-0.00354763
0.00173177
-0.00389757
0.00117313
-0.00406856
0.000560529
-0.00401598
-0.000143793
-0.0037173
-0.00090311
-0.00321689
-0.00158331
-0.00259031
-0.00207556
-0.00191923
-0.0023238
-0.00126805
-0.00233827
-0.000687709
-0.00215455
-0.00023008
-0.00180829
7.47029e-05
-0.00133381
0.000276353
-0.000697988
0.000196958
0.00148215
-0.00117204
0.0016959
-0.000968793
0.00167521
-0.000834536
0.0016758
-0.000680355
0.00169733
-0.000488068
0.00170769
-0.000293641
0.00158917
0.00153353
0.00149991
0.00147844
0.00146619
0.0014622
0.00146925
0.00149932
0.00160359
0.00132304
0.000595672
0.000982142
0.000875091
0.000548791
0.00110416
0.00190938
-0.00102373
0.00825874
-0.0017055
0.00358597
-0.00216652
0.00276256
-0.00249364
0.0020589
-0.00271748
0.00139696
-0.00280619
0.000649239
-0.00268512
-0.000264862
-0.00234102
-0.00124721
-0.00185683
-0.0020675
-0.0013159
-0.00261649
-0.000785492
-0.00285421
-0.000301553
-0.00282221
0.000118008
-0.00257411
0.000467897
-0.00215818
0.000774895
-0.00164081
0.00114343
-0.00106652
0.00190155
-0.000561159
0.00243836
-0.000529532
0.00203575
-0.000769434
0.0019096
-0.000842641
0.001801
-0.000725936
0.00170887
-0.000588224
0.00165966
-0.000438861
0.0016417
-0.000275679
0.00175549
-0.000113945
0.00182831
-7.29718e-05
0.00188756
-5.94007e-05
0.00193343
-4.60284e-05
0.00195196
-1.86788e-05
0.00192202
2.97888e-05
0.00181884
0.000103021
0.0016101
0.000208593
0.00124175
0.000368193
0.00111075
0.000726679
0.000823981
0.00116185
0.000386161
0.00154198
0.00231416
-0.000717922
0.00933455
-0.0012345
0.00410255
-0.00132125
0.0028493
-0.00137284
0.00211049
-0.00139414
0.00141827
-0.00130617
0.000561264
-0.00102781
-0.000543218
-0.000620037
-0.00165498
-0.000188456
-0.00249908
0.000200328
-0.00300528
0.000519218
-0.0031731
0.000765394
-0.00306838
0.000951604
-0.00276032
0.00110612
-0.0023127
0.0012594
-0.00179408
0.00146294
-0.00127006
0.0017469
-0.000845119
0.00188479
-0.000667429
0.00178769
-0.000672328
0.00161379
-0.000668745
0.00146823
-0.000580371
0.00134998
-0.000469982
0.00126979
-0.000358664
0.00124058
-0.000246471
0.00128292
-0.000156284
0.00133127
-0.000121329
0.0013845
-0.000112626
0.00143915
-0.000100683
0.00148469
-6.42145e-05
0.00150148
1.29996e-05
0.00146893
0.00013557
0.00137516
0.000302368
0.00122094
0.000522404
0.0010863
0.000861326
0.00094183
0.00130632
0.000621803
0.00186201
0.000548379
0.00238759
-0.000970258
0.00151843
-0.00143262
0.000462155
-0.00138562
-0.000626746
0.0103681
-0.000980496
0.0044563
-0.000553739
0.00242254
-0.000188276
0.00174502
9.29727e-05
0.00113702
0.000481106
0.000173132
0.000978168
-0.00104028
0.00139861
-0.00207542
0.00168483
-0.0027853
0.00183231
-0.00315276
0.00187024
-0.00321104
0.00182714
-0.00302528
0.00173309
-0.00266627
0.0016242
-0.00220381
0.00153348
-0.00170336
0.00148662
-0.00122319
0.00147779
-0.000836297
0.0014236
-0.000613239
0.00128006
-0.000528788
0.00109065
-0.000479327
0.000924458
-0.000414183
0.000798263
-0.000343787
0.000717914
-0.000278315
0.000690798
-0.000219355
0.000713763
-0.000179248
0.000762573
-0.000170139
0.000826534
-0.000176587
0.000901065
-0.000175214
0.000980589
-0.000143739
0.00105314
-5.95486e-05
0.00110098
8.77277e-05
0.00111984
0.000283506
0.0011178
0.000524449
0.00114217
0.000836955
0.00124055
0.00120794
0.00142615
0.0016764
0.00186851
0.00194523
0.00212928
0.00125766
0.00174113
0.000850305
0.000412095
-0.000681194
0.0115003
-0.000560299
0.00433541
0.000575261
0.00128698
0.00137022
0.000950062
0.0020539
0.00045334
0.00275368
-0.000526648
0.00329772
-0.00158432
0.00358508
-0.00236278
0.00362021
-0.00282043
0.00344842
-0.00298096
0.00313166
-0.00289428
0.00273109
-0.00262471
0.00229993
-0.00223511
0.00188488
-0.00178877
0.00152142
-0.0013399
0.00122575
-0.00092752
0.000996428
-0.000606974
0.000798386
-0.000415198
0.000598943
-0.000329345
0.000409354
-0.000289737
0.000254615
-0.000259444
0.000144436
-0.000233609
7.98579e-05
-0.000213737
6.11169e-05
-0.000200614
8.15382e-05
-0.00019967
0.000126205
-0.000214806
0.000185841
-0.000236222
0.000259471
-0.000248844
0.000351226
-0.000235495
0.00046599
-0.000174313
0.000591458
-3.77402e-05
0.000717033
0.000157931
0.000853644
0.000387838
0.00103916
0.000651437
0.00132172
0.000925391
0.00176281
0.00123531
0.00242905
0.00127899
0.0029698
0.00071691
0.00299345
0.000826654
0.00346674
0.00259488
0.00941014
0.0032997
0.00363059
0.0037019
0.000884779
0.00438994
0.00026202
0.00520327
-0.000359991
0.00583263
-0.00115601
0.00605458
-0.00180626
0.0058974
-0.0022056
0.00543766
-0.00236069
0.00476747
-0.00231077
0.00398216
-0.00210897
0.0031658
-0.00180834
0.00237991
-0.00144922
0.00167354
-0.00108239
0.00107952
-0.000745886
0.000604418
-0.000452421
0.000253509
-0.000256065
-1.68503e-06
-0.000160004
-0.000197828
-0.000133202
-0.000351613
-0.000135952
-0.000467733
-0.000143324
-0.000548536
-0.000152806
-0.000597649
-0.000164624
-0.000618664
-0.000179599
-0.000618259
-0.000200075
-0.000606417
-0.000226648
-0.000588871
-0.000253768
-0.000564712
-0.000273003
-0.000525647
-0.000274559
-0.000452955
-0.000247005
-0.00031746
-0.000173236
-0.000135012
-2.45164e-05
7.94212e-05
0.000173404
0.000349321
0.000381537
0.000686081
0.000588631
0.00113024
0.000791143
0.00161868
0.000790552
0.00182613
0.000509464
0.0010853
0.00156749
0.00480156
0.00996374
0.0135863
0.0124551
0.00201599
0.0117475
0.000969651
0.0110917
0.000295772
0.0102122
-0.000276529
0.00906773
-0.000661782
0.00776283
-0.000900692
0.00639166
-0.00098953
0.00502779
-0.0009469
0.00373822
-0.000819402
0.0025757
-0.000645818
0.00156123
-0.000434759
0.000719351
-0.000240513
5.70736e-05
-8.36078e-05
-0.000409857
1.45103e-05
-0.000698698
3.27753e-05
-0.000877817
1.91156e-05
-0.00100462
-6.39389e-06
-0.00110633
-3.42496e-05
-0.00118927
-6.03778e-05
-0.00125623
-8.58503e-05
-0.00131091
-0.000109948
-0.00135755
-0.000132958
-0.00140274
-0.000154887
-0.00145472
-0.000174666
-0.00152102
-0.000187469
-0.00160884
-0.000185179
-0.00172682
-0.000156579
-0.00188532
-8.85047e-05
-0.00208995
3.13944e-05
-0.0023276
0.000213131
-0.00262491
0.000470713
-0.003064
0.000820634
-0.00373646
0.00126108
-0.00470872
0.00176341
-0.00609695
0.00217878
-0.00778265
0.00219516
-0.00730884
0.00109368
-0.00223121
0.00467953
0.00351361
0.00379537
0.00185381
0.00417866
-8.75189e-05
0.00418522
-0.000283081
0.0037815
-0.000258067
0.00315096
-0.000270147
0.00239998
-0.000238552
0.00159646
-0.000143384
0.00078275
-5.68883e-06
1.08666e-05
0.000126065
-0.000628901
0.000205009
-0.00108165
0.00021224
-0.00136954
0.000204281
-0.00153392
0.000178886
-0.001637
0.000135856
-0.0017108
9.29178e-05
-0.00177219
5.49928e-05
-0.00183002
2.35804e-05
-0.00188913
-1.27134e-06
-0.00195135
-2.36221e-05
-0.00201746
-4.38432e-05
-0.00208927
-6.11436e-05
-0.00217007
-7.40886e-05
-0.00226223
-8.2505e-05
-0.00236669
-8.30134e-05
-0.00248238
-6.94848e-05
-0.00260531
-3.36495e-05
-0.00272781
3.39955e-05
-0.00283777
0.000141356
-0.00293193
0.00030729
-0.00301805
0.000556835
-0.00310163
0.000904213
-0.00317842
0.00133787
-0.00320293
0.00178792
-0.0031224
0.00209825
-0.00275695
0.00182971
-0.00149561
-0.000167663
-0.00365478
-0.000541325
0.00411961
0.000295213
0.00101727
-8.07125e-05
0.000288407
-0.000451314
8.75201e-05
-0.000778975
6.95937e-05
-0.00113811
8.89934e-05
-0.00150409
0.000127424
-0.00182391
0.000176436
-0.0020508
0.000221198
-0.00217804
0.000253309
-0.00223579
0.000262754
-0.00226148
0.000237939
-0.00226034
0.000203139
-0.00224877
0.000167313
-0.00224559
0.000132671
-0.00225565
0.000102981
-0.00227884
7.81815e-05
-0.00231291
5.76553e-05
-0.00235479
4.06108e-05
-0.00240564
2.72284e-05
-0.00246438
1.48882e-05
-0.00252881
3.29506e-06
-0.0025963
-6.60269e-06
-0.00266477
-1.40362e-05
-0.00273042
-1.7364e-05
-0.00278641
-1.34883e-05
-0.00282186
1.7921e-06
-0.00282635
3.84915e-05
-0.00278982
0.00010482
-0.0026906
0.000208071
-0.0024974
0.000363642
-0.00218357
0.000590379
-0.00173015
0.000884453
-0.00110909
0.00116686
-0.0001494
0.00113856
0.00114457
0.000535743
0.00157982
-0.000602914
-0.00199605
-0.00723317
-0.010134
-0.00597163
-0.00493438
-0.00463478
-0.00454031
-0.00446639
-0.00437506
-0.0042469
-0.00407109
-0.00385174
-0.00360143
-0.00334279
-0.00311
-0.00291291
-0.00275237
-0.00262702
-0.00253179
-0.0024617
-0.00241238
-0.00238029
-0.00236171
-0.00235555
-0.00236102
-0.00237635
-0.00239904
-0.00242494
-0.00244679
-0.00245316
-0.00242258
-0.00232541
-0.0021247
-0.00176814
-0.00118457
-0.000306666
0.00085385
0.00198603
0.00251517
0.00190525
)
;

boundaryField
{
    floor
    {
        type            calculated;
        value           nonuniform List<scalar> 
29
(
0
0
0
0
0
0
0
0
0
0
0
0
0
0
0
0
0
0
0
0
-3.61615e-06
-9.31293e-06
-1.41999e-05
-1.86254e-05
-1.44072e-06
-2.68947e-06
-7.6549e-06
-8.01832e-06
-7.27538e-06
)
;
    }
    ceiling
    {
        type            calculated;
        value           nonuniform List<scalar> 
43
(
-4.54253e-05
-4.41041e-05
-4.27947e-05
-1.99744e-05
-1.11983e-05
-6.94499e-06
-4.32239e-06
-2.34231e-06
-7.35775e-07
6.28942e-07
1.84914e-06
2.99513e-06
4.11277e-06
5.15475e-06
6.04891e-06
6.76686e-06
7.32502e-06
7.75501e-06
8.08514e-06
8.33583e-06
8.52132e-06
8.65075e-06
8.73094e-06
8.75952e-06
8.73198e-06
8.65468e-06
8.53172e-06
8.36559e-06
8.15915e-06
7.91327e-06
7.6455e-06
7.36517e-06
7.0811e-06
6.80409e-06
6.55258e-06
6.34073e-06
6.3735e-06
6.61013e-06
6.99853e-06
8.22386e-06
1.10774e-05
8.03012e-06
-6.46782e-05
)
;
    }
    sWall
    {
        type            calculated;
        value           uniform -0.000274844;
    }
    nWall
    {
        type            calculated;
        value           nonuniform List<scalar> 6(-4.72019e-05 -5.65799e-05 -6.11949e-05 -7.20389e-05 -7.89159e-05 -9.90161e-05);
    }
    sideWalls
    {
        type            empty;
        value           nonuniform 0();
    }
    glass1
    {
        type            calculated;
        value           nonuniform List<scalar> 9(-5.62606e-05 -0.00015148 -0.000231657 -0.000299922 -0.000357888 -0.000406785 -0.000451054 -0.000504684 -0.000564684);
    }
    glass2
    {
        type            calculated;
        value           nonuniform List<scalar> 2(-0.000249528 -0.000276062);
    }
    sun
    {
        type            calculated;
        value           uniform 0;
    }
    heatsource1
    {
        type            calculated;
        value           nonuniform List<scalar> 3(2.03966e-07 2.03921e-07 2.03938e-07);
    }
    heatsource2
    {
        type            calculated;
        value           nonuniform List<scalar> 4(5.10992e-08 5.12214e-08 0 0);
    }
    Table_master
    {
        type            calculated;
        value           nonuniform List<scalar> 9(-1.52973e-07 -1.53054e-07 -1.53083e-07 -1.53103e-07 -1.53117e-07 -1.53126e-07 -1.53129e-07 -1.53123e-07 -1.53091e-07);
    }
    Table_slave
    {
        type            calculated;
        value           nonuniform List<scalar> 9(1.5285e-07 1.52875e-07 1.52858e-07 1.52844e-07 1.52839e-07 1.52843e-07 1.52859e-07 1.52901e-07 1.52981e-07);
    }
    inlet
    {
        type            calculated;
        value           uniform -0.00617715;
    }
    outlet
    {
        type            calculated;
        value           nonuniform List<scalar> 2(0.00755344 0.00294497);
    }
}


// ************************************************************************* //
