/*--------------------------------*- C++ -*----------------------------------*\
  =========                 |
  \\      /  F ield         | OpenFOAM: The Open Source CFD Toolbox
   \\    /   O peration     | Website:  https://openfoam.org
    \\  /    A nd           | Version:  6
     \\/     M anipulation  |
\*---------------------------------------------------------------------------*/
FoamFile
{
    version     2.0;
    format      ascii;
    class       volScalarField;
    location    "200";
    object      nut;
}
// * * * * * * * * * * * * * * * * * * * * * * * * * * * * * * * * * * * * * //

dimensions      [0 2 -1 0 0 0 0];

internalField   nonuniform List<scalar> 
459
(
0.00120476
0.0013269
0.00136412
0.00143609
0.00150648
0.00157872
0.00164385
0.00168663
0.00169889
0.00167591
0.00161266
0.00147066
0.00129911
0.00110193
0.000931461
0.000542533
0.000637687
0.000743013
0.000798357
0.000800435
0.000778483
0.00073004
0.000678567
0.00063211
0.000591574
0.000556323
0.000525589
0.00049854
0.000474593
0.000452871
0.000432206
0.000410972
0.000391253
0.000355348
0.00159959
0.00409211
0.0039982
0.00464724
0.0052884
0.00582322
0.00624619
0.00660937
0.00688134
0.00703542
0.00704386
0.00685039
0.00637251
0.00549845
0.0037036
0.0011679
0.000914064
0.000533369
0.00134682
0.00210687
0.00273442
0.00311109
0.00306376
0.00217307
0.00179835
0.00155469
0.00137829
0.00124422
0.00113884
0.00105475
0.000978451
0.00089882
0.000822536
0.000755282
0.000824042
0.000419967
0.00192244
0.00556185
0.00495562
0.00582635
0.00625079
0.0065729
0.00686089
0.00716671
0.00748568
0.00778851
0.00801801
0.00808211
0.00789286
0.00739434
0.00623288
0.00411925
0.00115911
0.000765626
0.00145875
0.0023243
0.00324615
0.00390026
0.0037306
0.00100427
0.000873207
0.000768189
0.00068446
0.000617252
0.000562747
0.000518121
0.000482065
0.000454842
0.000509929
0.000611781
0.000954786
0.000465994
0.00222734
0.00694767
0.00508852
0.00604885
0.00623896
0.00637143
0.0065455
0.0067947
0.00713846
0.00753806
0.00789146
0.00808021
0.00809221
0.00789814
0.00734309
0.0060781
0.00335489
0.00132299
0.00162174
0.0023685
0.00342324
0.00446102
0.00514316
0.00476892
0.00114292
0.00103407
0.000951126
0.000883583
0.000825241
0.000770762
0.00071667
0.000660149
0.000596546
0.000550348
0.000602691
0.00111081
0.000500693
0.00253558
0.00869669
0.00564301
0.00615733
0.00630181
0.00629093
0.00635031
0.00653524
0.00688752
0.00731661
0.00769139
0.00790477
0.00793507
0.00782438
0.00757498
0.00702354
0.00593113
0.0052374
0.00549136
0.00601177
0.00658943
0.0070289
0.00720626
0.00692663
0.0056083
0.0049135
0.00445231
0.0040506
0.00361015
0.00312707
0.00260774
0.00206942
0.00154119
0.0010905
0.00085406
0.00105888
0.00063532
0.000594871
0.000714782
0.000803617
0.00286121
0.0106316
0.00756731
0.00676726
0.00678191
0.00654097
0.0064049
0.00649587
0.00683612
0.00729678
0.00769305
0.00788632
0.00786538
0.00774332
0.00765935
0.00766065
0.00765136
0.00786104
0.00832195
0.00869314
0.00888191
0.00886605
0.00865123
0.00822197
0.00752102
0.00686073
0.00626732
0.00567636
0.00506439
0.00442152
0.00374373
0.00303996
0.00234001
0.00171146
0.0012994
0.00113453
0.000873472
0.000769818
0.00110716
0.000843236
0.00314557
0.0119275
0.0101989
0.00849381
0.00763495
0.0068666
0.00649717
0.00656268
0.00696557
0.00749896
0.00792497
0.00808956
0.00802285
0.00794755
0.00814399
0.00866029
0.00920102
0.00969827
0.0100672
0.0101521
0.00999364
0.00964304
0.00914889
0.00853998
0.00783581
0.00714774
0.00649677
0.00586584
0.00524351
0.00464888
0.00405273
0.00345254
0.00284233
0.00225049
0.00181128
0.00151491
0.0012775
0.00124778
0.00130597
0.000990155
0.00319419
0.0102134
0.00931616
0.00814429
0.00705477
0.00639071
0.00627242
0.0066376
0.00729496
0.00796451
0.00839174
0.00847412
0.00837928
0.00852404
0.00924538
0.00986655
0.0102804
0.010539
0.010592
0.0103724
0.00992094
0.00930103
0.00856855
0.0077682
0.00695192
0.00618065
0.00547427
0.0048425
0.00430835
0.00389896
0.00360677
0.0033616
0.00305612
0.00270946
0.00249689
0.00246694
0.00268713
0.00322677
0.00395938
0.0015059
0.0031074
0.00365354
0.00393068
0.00401496
0.00429264
0.0049607
0.00596234
0.00711948
0.00817186
0.00883537
0.00898269
0.00877936
0.00895852
0.00939758
0.00985562
0.0101374
0.0102292
0.0101516
0.00986882
0.00936227
0.00866565
0.00783292
0.00691787
0.00598539
0.00510944
0.00434379
0.00370694
0.00320407
0.00283603
0.00258473
0.00242425
0.00232872
0.0022776
0.00225766
0.00226627
0.00228546
0.00226291
0.00215664
0.00200535
0.00139605
0.00124535
0.00307738
0.00614289
0.00820324
0.00944073
0.0100447
0.0101035
0.00972093
0.00907443
0.0086514
0.0087511
0.00901113
0.009127
0.00907529
0.00887824
0.0085172
0.00796775
0.00724346
0.00640074
0.00551759
0.00467337
0.0039332
0.003333
0.0028781
0.00255627
0.00234741
0.00222584
0.00217105
0.00216392
0.00219059
0.00224023
0.00230258
0.00236232
0.00239267
0.00236287
0.00227611
0.00209204
0.00116787
0.00204659
0.00687388
0.00915282
0.00957802
0.0093831
0.00882676
0.00811718
0.00749372
0.00704504
0.00680729
0.00670894
0.00659817
0.00644422
0.00624727
0.00597843
0.00560426
0.00512084
0.00456749
0.00401185
0.00351734
0.00311806
0.00281633
0.00259569
0.00243525
0.00231794
0.0022334
0.00217802
0.00215332
0.00216226
0.00220604
0.0022809
0.00237489
0.00246663
0.00253461
0.00251633
0.00256108
0.00252755
0.00118891
0.00183839
0.00194942
0.00202992
0.00218587
0.00203374
0.00189807
0.00178625
0.0016558
0.00151288
0.00137372
0.00125517
0.00116818
0.00110779
0.0010639
0.00102835
0.00099505
0.000959929
0.000921457
0.000880865
0.000841155
0.00080544
0.000775648
0.000752243
0.000734792
0.000722785
0.000716268
0.000716049
0.000723489
0.000740016
0.000766623
0.000803685
0.000851171
0.000908952
0.0009767
0.00105471
0.00113779
0.0011563
0.0011135
0.00104968
0.000975414
)
;

boundaryField
{
    floor
    {
        type            nutkWallFunction;
        Cmu             0.09;
        kappa           0.41;
        E               9.8;
        value           nonuniform List<scalar> 
29
(
0.00011263
6.51254e-05
7.70437e-05
8.99896e-05
9.67042e-05
9.69564e-05
9.43019e-05
8.84112e-05
8.21005e-05
7.63555e-05
7.13008e-05
6.68708e-05
6.29803e-05
5.95331e-05
5.64616e-05
5.36588e-05
5.09767e-05
4.82036e-05
4.56116e-05
4.08485e-05
4.08484e-05
4.9376e-05
5.53469e-05
5.97993e-05
0.00011263
6.51254e-05
6.39642e-05
9.27254e-05
0.000158088
)
;
    }
    ceiling
    {
        type            nutkWallFunction;
        Cmu             0.09;
        kappa           0.41;
        E               9.8;
        value           nonuniform List<scalar> 
43
(
0.000215624
0.000227779
0.000236547
0.000253536
0.000237091
0.000222292
0.000210003
0.000195557
0.000179587
0.000163878
0.000150356
0.000140346
0.000133347
0.000128233
0.000124073
0.000120161
0.000116018
0.000111459
0.000106624
0.000101869
9.75696e-05
9.39658e-05
9.1123e-05
8.89962e-05
8.75289e-05
8.67303e-05
8.67017e-05
8.76092e-05
8.96238e-05
9.28574e-05
9.73408e-05
0.000103051
0.00010995
0.000117975
0.000127137
0.000136812
0.000138957
0.000133992
0.00012655
0.000117825
0.000351281
0.000407635
0.000238184
)
;
    }
    sWall
    {
        type            nutkWallFunction;
        Cmu             0.09;
        kappa           0.41;
        E               9.8;
        value           uniform 0.000215683;
    }
    nWall
    {
        type            nutkWallFunction;
        Cmu             0.09;
        kappa           0.41;
        E               9.8;
        value           nonuniform List<scalar> 6(9.73287e-05 0.000102097 0.00011956 0.000140311 0.000142743 0.00011783);
    }
    sideWalls
    {
        type            empty;
    }
    glass1
    {
        type            nutkWallFunction;
        Cmu             0.09;
        kappa           0.41;
        E               9.8;
        value           nonuniform List<scalar> 9(0.000144703 0.000189549 0.000225295 0.000258458 0.000291493 0.000325938 0.000355683 0.000360751 0.000351735);
    }
    glass2
    {
        type            nutkWallFunction;
        Cmu             0.09;
        kappa           0.41;
        E               9.8;
        value           nonuniform List<scalar> 2(0.000178873 0.000166472);
    }
    sun
    {
        type            nutkWallFunction;
        Cmu             0.09;
        kappa           0.41;
        E               9.8;
        value           nonuniform List<scalar> 
14
(
0.000144557
0.000158545
0.00016278
0.000170932
0.000178862
0.000186959
0.000194223
0.000198977
0.000200335
0.000197783
0.000190743
0.000174816
0.000155366
0.000132648
)
;
    }
    heatsource1
    {
        type            nutkWallFunction;
        Cmu             0.09;
        kappa           0.41;
        E               9.8;
        value           nonuniform List<scalar> 3(7.17028e-05 8.65337e-05 9.73279e-05);
    }
    heatsource2
    {
        type            nutkWallFunction;
        Cmu             0.09;
        kappa           0.41;
        E               9.8;
        value           nonuniform List<scalar> 4(0.000140289 0.000110562 0.000110562 0.00013927);
    }
    Table_master
    {
        type            nutkWallFunction;
        Cmu             0.09;
        kappa           0.41;
        E               9.8;
        value           nonuniform List<scalar> 9(0.000121232 0.000105697 9.30526e-05 8.28257e-05 7.45084e-05 6.76828e-05 6.2034e-05 5.74262e-05 5.39191e-05);
    }
    Table_slave
    {
        type            nutkWallFunction;
        Cmu             0.09;
        kappa           0.41;
        E               9.8;
        value           nonuniform List<scalar> 9(0.000137416 0.000124731 0.000114963 0.000106935 9.99438e-05 9.33626e-05 8.67734e-05 7.98246e-05 7.19188e-05);
    }
    inlet
    {
        type            calculated;
        value           uniform 0.000100623;
    }
    outlet
    {
        type            calculated;
        value           nonuniform List<scalar> 2(0.00183839 0.00194942);
    }
}


// ************************************************************************* //
