/*--------------------------------*- C++ -*----------------------------------*\
  =========                 |
  \\      /  F ield         | OpenFOAM: The Open Source CFD Toolbox
   \\    /   O peration     | Website:  https://openfoam.org
    \\  /    A nd           | Version:  6
     \\/     M anipulation  |
\*---------------------------------------------------------------------------*/
FoamFile
{
    version     2.0;
    format      ascii;
    class       volScalarField;
    location    "300";
    object      epsilon;
}
// * * * * * * * * * * * * * * * * * * * * * * * * * * * * * * * * * * * * * //

dimensions      [0 2 -3 0 0 0 0];

internalField   nonuniform List<scalar> 
459
(
0.000405873
0.000524477
0.000550031
0.000631176
0.000712481
0.000793685
0.000877576
0.000969411
0.00104429
0.00108571
0.00107911
0.00101682
0.000905089
0.000767065
0.00063411
3.38049e-05
6.34405e-05
8.66689e-05
8.14724e-05
7.16848e-05
6.12081e-05
5.06206e-05
4.16591e-05
3.45264e-05
2.89058e-05
2.44535e-05
2.08914e-05
1.80308e-05
1.56826e-05
1.36969e-05
1.19362e-05
1.02606e-05
9.27213e-06
7.10686e-06
0.00105034
0.00154948
0.000497743
0.000480251
0.000500845
0.000533244
0.000579905
0.000645769
0.000715267
0.000768378
0.000785237
0.000754096
0.000677338
0.000576641
0.000515895
0.000662555
0.000171093
4.59651e-05
0.000110912
0.00011087
9.697e-05
8.01093e-05
6.53555e-05
5.69117e-05
4.61151e-05
3.68306e-05
2.94668e-05
2.37486e-05
1.93188e-05
1.59093e-05
1.3282e-05
1.13716e-05
1.02599e-05
9.83543e-06
2.46424e-05
1.6854e-05
0.0019441
0.00389135
0.000631193
0.000459656
0.000476337
0.000527064
0.000602296
0.000702455
0.000807402
0.000886377
0.000916816
0.00089011
0.000813196
0.000704687
0.000606968
0.000551869
0.000605931
0.000389871
0.000255868
0.000182641
0.000135432
0.000103549
8.45618e-05
0.000146749
0.000102768
7.45643e-05
5.59415e-05
4.32525e-05
3.4346e-05
2.79371e-05
2.32503e-05
1.98304e-05
1.51718e-05
1.27324e-05
4.46175e-05
2.65804e-05
0.00318913
0.0081667
0.00103349
0.000470193
0.000464385
0.000534077
0.000645826
0.000801869
0.000949891
0.00104466
0.00107255
0.00103445
0.000943692
0.000814457
0.000684338
0.000583368
0.000546997
0.0010211
0.000552997
0.000322084
0.000210462
0.000148496
0.000111195
9.36006e-05
0.000207734
0.000159442
0.000130292
0.00011088
9.60016e-05
8.32424e-05
7.20969e-05
6.14463e-05
5.03418e-05
3.01657e-05
1.98748e-05
6.99606e-05
3.61458e-05
0.00491971
0.014604
0.00210141
0.000577686
0.000479985
0.000560136
0.000740263
0.00100403
0.00119156
0.00127767
0.00127999
0.00121255
0.0010896
0.000927049
0.000750474
0.000585315
0.000452512
0.000380585
0.000295593
0.000223427
0.000168464
0.000128916
0.000101588
8.49399e-05
8.24062e-05
7.75734e-05
7.27522e-05
6.7913e-05
6.25496e-05
5.64487e-05
5.03487e-05
4.45744e-05
3.92924e-05
3.17202e-05
2.44552e-05
5.10386e-05
4.04009e-05
6.92261e-05
0.000122567
0.000172502
0.00733688
0.0216625
0.00478199
0.00116688
0.000743671
0.000783345
0.00114156
0.00147209
0.00161245
0.00163021
0.0015741
0.00146005
0.00129076
0.00107682
0.000843493
0.000623118
0.00044543
0.000325725
0.000247356
0.00018996
0.000145876
0.000114076
9.30223e-05
8.10595e-05
7.67379e-05
7.58812e-05
7.57319e-05
7.48134e-05
7.20815e-05
6.66444e-05
5.83998e-05
4.97337e-05
4.18105e-05
3.47842e-05
3.01735e-05
3.9399e-05
4.13115e-05
5.20699e-05
0.000226013
0.000195068
0.0101639
0.0258656
0.00987721
0.00389434
0.00250772
0.00216323
0.0024072
0.00242492
0.00231517
0.00216376
0.00199461
0.00179533
0.00154965
0.0012604
0.000955837
0.000674973
0.00045439
0.000308086
0.00021893
0.000162414
0.000124217
9.97562e-05
8.61416e-05
8.08291e-05
8.14939e-05
8.52269e-05
8.9734e-05
9.38586e-05
9.65474e-05
9.6125e-05
8.94011e-05
7.8431e-05
6.76087e-05
5.84755e-05
5.46378e-05
6.06533e-05
7.66949e-05
0.000122586
0.000289659
0.000280172
0.0108075
0.0283839
0.0157273
0.0106277
0.00778184
0.00608831
0.00478728
0.0038813
0.00327702
0.00286397
0.00253744
0.00221568
0.00185352
0.00145097
0.00104886
0.000692752
0.000427756
0.000265246
0.000173924
0.00012802
0.000102238
8.85916e-05
8.34131e-05
8.42747e-05
8.93734e-05
9.72283e-05
0.000106986
0.000118531
0.000131991
0.000147219
0.000163117
0.000171737
0.000178884
0.000195988
0.000232834
0.00034691
0.000639672
0.00122031
0.00366813
0.0010935
0.0099857
0.0167686
0.0134036
0.0101564
0.00778615
0.00616464
0.00508695
0.00439168
0.0039267
0.00354935
0.0031518
0.00267934
0.00212715
0.00154096
0.00101131
0.000576073
0.000307033
0.000186874
0.000129306
0.00010074
8.65164e-05
8.08848e-05
8.0964e-05
8.5086e-05
9.23257e-05
0.000102303
0.000115191
0.00013175
0.000153282
0.000181645
0.000219316
0.000269836
0.000339079
0.000444554
0.000601285
0.000816489
0.00106611
0.00128738
0.00145654
0.000912306
0.00392976
0.00603825
0.00651501
0.00644511
0.00613595
0.00569534
0.00511125
0.0043795
0.00354209
0.00266536
0.00177857
0.000972721
0.000521872
0.000280064
0.000164131
0.000113411
8.99394e-05
7.87222e-05
7.38539e-05
7.27287e-05
7.41028e-05
7.74543e-05
8.26326e-05
8.98186e-05
9.95331e-05
0.000112674
0.000130602
0.000155318
0.00018979
0.00023847
0.000306301
0.000400248
0.000524176
0.000667789
0.000794517
0.000853474
0.000814484
0.000522147
0.00290318
0.00632809
0.00693198
0.00576622
0.0051763
0.00461681
0.00379752
0.00287236
0.00201243
0.00131181
0.000798166
0.000452747
0.000260506
0.00016529
0.000123135
0.000106014
9.9166e-05
9.63395e-05
9.50611e-05
9.45668e-05
9.47995e-05
9.61682e-05
9.89405e-05
0.000103462
0.000110256
0.000120115
0.000134242
0.00015446
0.000183445
0.000224614
0.000282477
0.000361685
0.000463023
0.000578574
0.000666871
0.000762514
0.000748594
0.0005518
0.00201292
0.00239308
0.00269243
0.00330529
0.00294616
0.00254273
0.00227533
0.00199382
0.00166663
0.00131246
0.000968252
0.00067113
0.000443134
0.00028672
0.000191606
0.00013877
0.000109851
9.366e-05
8.45351e-05
7.96873e-05
7.77164e-05
7.79486e-05
8.02739e-05
8.42639e-05
8.99695e-05
9.76473e-05
0.000107678
0.000120617
0.00013731
0.000159142
0.000186966
0.000221852
0.000265873
0.000321683
0.000391812
0.000487497
0.000524117
0.000486854
0.000402873
0.000325565
)
;

boundaryField
{
    floor
    {
        Cmu             0.09;
        kappa           0.41;
        E               9.8;
        type            epsilonWallFunction;
        value           nonuniform List<scalar> 
29
(
0.00063411
3.38049e-05
6.34405e-05
8.66689e-05
8.14724e-05
7.16848e-05
6.12081e-05
5.06206e-05
4.16591e-05
3.45264e-05
2.89058e-05
2.44535e-05
2.08914e-05
1.80308e-05
1.56826e-05
1.36969e-05
1.19362e-05
1.02606e-05
9.27213e-06
7.10686e-06
7.10686e-06
1.6854e-05
2.65804e-05
3.61458e-05
0.00063411
3.38049e-05
4.59651e-05
0.000389871
0.0010211
)
;
    }
    ceiling
    {
        Cmu             0.09;
        kappa           0.41;
        E               9.8;
        type            epsilonWallFunction;
        value           nonuniform List<scalar> 
43
(
0.00201292
0.00239308
0.00269243
0.00330529
0.00294616
0.00254273
0.00227533
0.00199382
0.00166663
0.00131246
0.000968252
0.00067113
0.000443134
0.00028672
0.000191606
0.00013877
0.000109851
9.366e-05
8.45351e-05
7.96873e-05
7.77164e-05
7.79486e-05
8.02739e-05
8.42639e-05
8.99695e-05
9.76473e-05
0.000107678
0.000120617
0.00013731
0.000159142
0.000186966
0.000221852
0.000265873
0.000321683
0.000391812
0.000487497
0.000524117
0.000486854
0.000402873
0.000325565
0.0099857
0.0167686
0.00290318
)
;
    }
    sWall
    {
        Cmu             0.09;
        kappa           0.41;
        E               9.8;
        type            epsilonWallFunction;
        value           uniform 0.00201292;
    }
    nWall
    {
        Cmu             0.09;
        kappa           0.41;
        E               9.8;
        type            epsilonWallFunction;
        value           nonuniform List<scalar> 6(0.000172502 0.000195068 0.000280172 0.000522147 0.0005518 0.000325565);
    }
    sideWalls
    {
        type            empty;
    }
    glass1
    {
        Cmu             0.09;
        kappa           0.41;
        E               9.8;
        type            epsilonWallFunction;
        value           nonuniform List<scalar> 9(0.000405873 0.00105034 0.0019441 0.00318913 0.00491971 0.00733688 0.0101639 0.0108075 0.0099857);
    }
    glass2
    {
        Cmu             0.09;
        kappa           0.41;
        E               9.8;
        type            epsilonWallFunction;
        value           nonuniform List<scalar> 2(0.0010935 0.000912306);
    }
    sun
    {
        Cmu             0.09;
        kappa           0.41;
        E               9.8;
        type            epsilonWallFunction;
        value           nonuniform List<scalar> 
14
(
0.000405873
0.000524477
0.000550031
0.000631176
0.000712481
0.000793685
0.000877576
0.000969411
0.00104429
0.00108571
0.00107911
0.00101682
0.000905089
0.000767065
)
;
    }
    heatsource1
    {
        Cmu             0.09;
        kappa           0.41;
        E               9.8;
        type            epsilonWallFunction;
        value           nonuniform List<scalar> 3(6.92261e-05 0.000122567 0.000172502);
    }
    heatsource2
    {
        Cmu             0.09;
        kappa           0.41;
        E               9.8;
        type            epsilonWallFunction;
        value           nonuniform List<scalar> 4(0.000662555 0.000171093 0.000171093 0.000605931);
    }
    Table_master
    {
        Cmu             0.09;
        kappa           0.41;
        E               9.8;
        type            epsilonWallFunction;
        value           nonuniform List<scalar> 9(0.000146749 0.000102768 7.45643e-05 5.59415e-05 4.32525e-05 3.4346e-05 2.79371e-05 2.32503e-05 1.98304e-05);
    }
    Table_slave
    {
        Cmu             0.09;
        kappa           0.41;
        E               9.8;
        type            epsilonWallFunction;
        value           nonuniform List<scalar> 9(0.000207734 0.000159442 0.000130292 0.00011088 9.60016e-05 8.32424e-05 7.20969e-05 6.14463e-05 5.03418e-05);
    }
    inlet
    {
        type            turbulentMixingLengthDissipationRateInlet;
        mixingLength    0.01;
        phi             phi;
        k               k;
        value           uniform 0.000101881;
    }
    outlet
    {
        type            zeroGradient;
    }
}


// ************************************************************************* //
