/*--------------------------------*- C++ -*----------------------------------*\
  =========                 |
  \\      /  F ield         | OpenFOAM: The Open Source CFD Toolbox
   \\    /   O peration     | Website:  https://openfoam.org
    \\  /    A nd           | Version:  6
     \\/     M anipulation  |
\*---------------------------------------------------------------------------*/
FoamFile
{
    version     2.0;
    format      ascii;
    class       volScalarField;
    location    "500";
    object      alphat;
}
// * * * * * * * * * * * * * * * * * * * * * * * * * * * * * * * * * * * * * //

dimensions      [1 -1 -1 0 0 0 0];

internalField   nonuniform List<scalar> 
459
(
0.00116538
0.00126431
0.00127972
0.00133745
0.00139017
0.00143852
0.00148456
0.00153088
0.00157004
0.0015935
0.00159523
0.00157033
0.00151786
0.00144509
0.00136584
0.000505713
0.000621769
0.000679045
0.000659794
0.000630446
0.000597985
0.000562927
0.000529595
0.000499408
0.000472396
0.000448244
0.000426716
0.000407395
0.000389787
0.00037333
0.000357212
0.000340184
0.000331074
0.000305111
0.00161556
0.00370542
0.00346314
0.00401663
0.00453234
0.00505942
0.00555466
0.00594824
0.00627756
0.00655982
0.00674861
0.0067805
0.00655697
0.00587294
0.0041694
0.00138123
0.000919411
0.000584454
0.00107379
0.00140262
0.00162028
0.00171954
0.00170746
0.00145384
0.00129031
0.001167
0.0010689
0.000988528
0.00091903
0.000856301
0.000797647
0.000741788
0.000693794
0.000648676
0.000780426
0.000416494
0.00199576
0.00507594
0.00419934
0.00541092
0.00595449
0.00634727
0.00664502
0.00687711
0.00710687
0.00735972
0.00760611
0.00779838
0.0078678
0.00773761
0.00725593
0.00591385
0.00133834
0.00115084
0.00153083
0.00183532
0.00208136
0.00223516
0.0021666
0.000791037
0.000707952
0.0006407
0.00058594
0.000540919
0.000503522
0.000472214
0.000445988
0.000424377
0.000456378
0.000522574
0.000874289
0.000489078
0.00236588
0.00664221
0.00414555
0.00574671
0.00629612
0.00645888
0.00651217
0.00657755
0.00671702
0.00694527
0.00723165
0.00753528
0.00777898
0.00790496
0.00785378
0.00739348
0.00575248
0.00152724
0.0019099
0.00237921
0.00274976
0.00300299
0.00314888
0.00296121
0.000883087
0.000817008
0.000772087
0.000739214
0.000710991
0.000682326
0.000654385
0.000624126
0.000587558
0.000553451
0.000558443
0.00100981
0.000544552
0.00274423
0.00868546
0.00459084
0.0054384
0.00626218
0.00634513
0.00623236
0.00616328
0.00627057
0.00649646
0.00680608
0.00716931
0.00747829
0.00764867
0.00763061
0.00737467
0.00674104
0.00549259
0.00496412
0.00469386
0.00453122
0.00443913
0.00439097
0.0042889
0.00376355
0.00354296
0.0034288
0.00333537
0.00321797
0.00303438
0.00272929
0.00233508
0.00188315
0.00141342
0.00104075
0.00102369
0.000723795
0.000683678
0.000824583
0.000922742
0.0031437
0.0109031
0.00654615
0.00519641
0.00583207
0.00617215
0.00621069
0.0059863
0.00609899
0.00630819
0.00661648
0.00698469
0.00731439
0.00749179
0.00743918
0.00714889
0.0066831
0.00615326
0.00578318
0.00552345
0.00532316
0.00517902
0.00507142
0.00495969
0.00478703
0.00463972
0.00450375
0.00435991
0.00419742
0.00400772
0.00373439
0.00334667
0.00284361
0.00225232
0.00170064
0.00124171
0.000970879
0.000845046
0.00122194
0.000961102
0.00351786
0.012523
0.0096226
0.00681332
0.00612045
0.00617684
0.00627276
0.00620257
0.00619822
0.00633845
0.00663733
0.00702464
0.00736963
0.00753191
0.00742092
0.00704729
0.00654066
0.00610771
0.0058649
0.00570333
0.00552085
0.00530318
0.00507095
0.0048609
0.0046879
0.00454986
0.0044213
0.00428919
0.00415246
0.00401693
0.00388395
0.00364187
0.00324378
0.00272863
0.00221701
0.00173485
0.00140511
0.00131132
0.00135784
0.00107924
0.00359514
0.0114449
0.00997408
0.00892114
0.00805247
0.00751816
0.00694776
0.00649562
0.00633361
0.00647796
0.00684543
0.00728737
0.00762915
0.00771701
0.00747367
0.00695198
0.00634644
0.00592981
0.00575641
0.00549598
0.0051248
0.00474385
0.00443448
0.00422039
0.00407881
0.00397441
0.00388286
0.00379868
0.00372804
0.00368307
0.00367744
0.00368869
0.003465
0.00310926
0.00278797
0.00262625
0.00274948
0.00322714
0.00404693
0.00170681
0.00350263
0.00418254
0.00470335
0.00493339
0.00506029
0.00508551
0.00519735
0.00550771
0.00602412
0.00667747
0.00733752
0.00784741
0.00806645
0.00789775
0.00733721
0.00656078
0.00593013
0.00550568
0.00511442
0.00462623
0.00414631
0.00378261
0.00354635
0.00339893
0.00329906
0.00321825
0.00314156
0.00306287
0.00297913
0.00288721
0.00278388
0.0026696
0.00257229
0.00250081
0.00248201
0.00250864
0.00251095
0.00242217
0.00226895
0.00160205
0.00204059
0.00388555
0.00507589
0.00592937
0.00674023
0.00746695
0.00809059
0.00855475
0.00878713
0.00870217
0.00826715
0.00747338
0.00642411
0.00546643
0.00484311
0.00433247
0.00379552
0.00331954
0.00298774
0.0027841
0.00266161
0.0025832
0.00252709
0.00248219
0.00244386
0.00241108
0.00238493
0.00236814
0.00236507
0.00238574
0.00241461
0.00245146
0.00249041
0.00250413
0.00244604
0.00229832
0.00207619
0.00132261
0.00244451
0.00525989
0.00698002
0.00765368
0.00826278
0.00873666
0.00884133
0.00873664
0.00834932
0.00753058
0.00646445
0.00537521
0.00447005
0.00378453
0.00322922
0.00276104
0.00243288
0.00223085
0.00210213
0.00202463
0.00198108
0.0019603
0.001957
0.00196893
0.00199516
0.00203497
0.00208692
0.00214766
0.00222012
0.00230765
0.00240835
0.0025162
0.00261541
0.00268532
0.00267506
0.00271141
0.00269989
0.00134471
0.00211354
0.00223717
0.00232669
0.00244752
0.00231114
0.00215892
0.00202024
0.00188661
0.00177079
0.00164088
0.00148663
0.00131164
0.00112183
0.000943177
0.000800207
0.00070408
0.000648894
0.00062235
0.000614056
0.000617137
0.000627898
0.000643199
0.000661907
0.00068379
0.000708819
0.000737089
0.000768818
0.000804399
0.000844528
0.000890453
0.000942707
0.00100038
0.00106428
0.00113525
0.00121341
0.00130732
0.00133977
0.00130807
0.0012265
0.00114008
)
;

boundaryField
{
    floor
    {
        type            compressible::alphatWallFunction;
        Prt             0.85;
        value           nonuniform List<scalar> 
29
(
0.000192863
7.01212e-05
8.76336e-05
9.61237e-05
9.32801e-05
8.89252e-05
8.40796e-05
7.88096e-05
7.37613e-05
6.9155e-05
6.50035e-05
6.12662e-05
5.79132e-05
5.48856e-05
5.21102e-05
4.95017e-05
4.69324e-05
4.42015e-05
4.27332e-05
3.85194e-05
3.85189e-05
5.63133e-05
6.75704e-05
7.60311e-05
0.000192861
7.01203e-05
8.2053e-05
0.000163367
0.000214654
)
;
    }
    ceiling
    {
        type            compressible::alphatWallFunction;
        Prt             0.85;
        value           nonuniform List<scalar> 
43
(
0.00029177
0.000307727
0.000319225
0.000334776
0.000317382
0.000297811
0.000279844
0.000262401
0.000247173
0.000229957
0.000209314
0.000185599
0.000159462
0.00013439
0.000113923
9.99184e-05
9.17755e-05
8.78293e-05
8.65925e-05
8.7053e-05
8.86578e-05
9.09335e-05
9.37067e-05
9.69384e-05
0.000100619
0.000104758
0.00010938
0.000114536
0.000120318
0.000126896
0.000134332
0.000142483
0.00015145
0.000161337
0.000172144
0.000185024
0.000189451
0.000185127
0.000173948
0.000162012
0.000466902
0.000549615
0.000334154
)
;
    }
    sWall
    {
        type            compressible::alphatWallFunction;
        Prt             0.85;
        value           uniform 0.000290558;
    }
    nWall
    {
        type            compressible::alphatWallFunction;
        Prt             0.85;
        value           nonuniform List<scalar> 6(0.000131174 0.000136609 0.000153202 0.000186781 0.00018979 0.000161685);
    }
    sideWalls
    {
        type            empty;
    }
    glass1
    {
        type            compressible::alphatWallFunction;
        Prt             0.85;
        value           nonuniform List<scalar> 9(0.000161295 0.000221545 0.000271105 0.000318464 0.000366135 0.000415771 0.000461715 0.000471271 0.000460206);
    }
    glass2
    {
        type            compressible::alphatWallFunction;
        Prt             0.85;
        value           nonuniform List<scalar> 2(0.000236986 0.000223172);
    }
    sun
    {
        type            compressible::alphatWallFunction;
        Prt             0.85;
        value           nonuniform List<scalar> 
14
(
0.000165405
0.000179013
0.000181122
0.000189006
0.000196171
0.000202715
0.000208924
0.000215149
0.000220395
0.00022353
0.000223761
0.000220431
0.000213398
0.000203598
)
;
    }
    heatsource1
    {
        type            compressible::alphatWallFunction;
        Prt             0.85;
        value           nonuniform List<scalar> 3(9.69159e-05 0.000117441 0.000131488);
    }
    heatsource2
    {
        type            compressible::alphatWallFunction;
        Prt             0.85;
        value           nonuniform List<scalar> 4(0.000195075 0.000131014 0.000131013 0.000189242);
    }
    Table_master
    {
        type            compressible::alphatWallFunction;
        Prt             0.85;
        value           nonuniform List<scalar> 9(0.000112591 0.000100482 9.05541e-05 8.2376e-05 7.55815e-05 6.98841e-05 6.50732e-05 6.10122e-05 5.76429e-05);
    }
    Table_slave
    {
        type            compressible::alphatWallFunction;
        Prt             0.85;
        value           nonuniform List<scalar> 9(0.000125834 0.000116347 0.000109846 0.00010506 0.00010093 9.67158e-05 9.25869e-05 8.80908e-05 8.26215e-05);
    }
    inlet
    {
        type            fixedValue;
        value           uniform 1.94e-05;
    }
    outlet
    {
        type            zeroGradient;
    }
}


// ************************************************************************* //
