/*--------------------------------*- C++ -*----------------------------------*\
  =========                 |
  \\      /  F ield         | OpenFOAM: The Open Source CFD Toolbox
   \\    /   O peration     | Website:  https://openfoam.org
    \\  /    A nd           | Version:  6
     \\/     M anipulation  |
\*---------------------------------------------------------------------------*/
FoamFile
{
    version     2.0;
    format      ascii;
    class       volScalarField;
    location    "500";
    object      nut;
}
// * * * * * * * * * * * * * * * * * * * * * * * * * * * * * * * * * * * * * //

dimensions      [0 2 -1 0 0 0 0];

internalField   nonuniform List<scalar> 
459
(
0.00100445
0.00108877
0.001102
0.0011517
0.00119709
0.00123871
0.00127834
0.00131821
0.0013519
0.00137206
0.0013735
0.001352
0.00130678
0.00124409
0.00117584
0.000435428
0.000535323
0.000584623
0.000568049
0.000542782
0.000514837
0.000484655
0.000455959
0.000429971
0.000406716
0.000385923
0.000367389
0.000350755
0.000335595
0.000321427
0.00030755
0.000292889
0.000285046
0.000262704
0.00139333
0.00319148
0.0029826
0.00345933
0.00390354
0.00435754
0.00478408
0.00512301
0.0054065
0.00564928
0.0058114
0.00583834
0.0056454
0.00505613
0.00358935
0.00118904
0.000791458
0.000503234
0.000924493
0.00120758
0.00139497
0.00148042
0.00147002
0.00125166
0.00111087
0.00100471
0.000920242
0.00085104
0.000791204
0.000737196
0.000686696
0.000638605
0.000597288
0.000558449
0.000671881
0.000358595
0.00172235
0.00437273
0.00361713
0.00466092
0.0051294
0.00546799
0.00572466
0.00592466
0.00612241
0.00633969
0.00655105
0.00671563
0.0067745
0.00666173
0.00624665
0.00509111
0.00115214
0.000990801
0.00131795
0.00158012
0.00179198
0.00192441
0.00186539
0.000681058
0.000609519
0.000551613
0.000504462
0.000465697
0.000433496
0.000406538
0.000383956
0.000365348
0.000392897
0.000449885
0.000752682
0.000421087
0.00204307
0.0057233
0.00357126
0.00495088
0.00542471
0.00556545
0.0056118
0.00566839
0.00578841
0.00598432
0.0062298
0.00648986
0.00669845
0.00680602
0.00676146
0.00636502
0.0049523
0.00131483
0.0016443
0.00204841
0.00236751
0.00258562
0.00271128
0.00254973
0.000760383
0.000703492
0.000664817
0.000636516
0.000612215
0.000587533
0.000563474
0.000537416
0.000505925
0.000476527
0.000480799
0.000869379
0.000468857
0.00237127
0.00748596
0.00395544
0.00468584
0.00539624
0.00546847
0.00537201
0.00531298
0.0054053
0.00559898
0.00586415
0.00617519
0.00643974
0.00658542
0.00656937
0.00634891
0.0058035
0.00472883
0.00427402
0.00404151
0.00390165
0.00382249
0.00378112
0.0036933
0.00324095
0.00305103
0.00295275
0.00287231
0.00277121
0.0026131
0.00235034
0.00201083
0.00162162
0.00121707
0.000896108
0.000881376
0.000623188
0.000588762
0.000710194
0.000794758
0.00271795
0.00940067
0.00564146
0.004478
0.00502625
0.0053201
0.00535429
0.00516164
0.00525845
0.00543743
0.00570115
0.00601631
0.00629855
0.00645021
0.00640445
0.00615455
0.00575379
0.00529792
0.0049796
0.00475625
0.00458402
0.00446007
0.00436754
0.0042714
0.00412276
0.00399594
0.00387886
0.00375499
0.00361503
0.00345162
0.00321615
0.00288216
0.00244885
0.00193955
0.00146439
0.00106915
0.000835945
0.000727658
0.00105224
0.000827717
0.00304293
0.0108033
0.00829723
0.00587394
0.00527658
0.00532566
0.0054093
0.00534912
0.00534449
0.00546348
0.00571869
0.00605007
0.00634545
0.00648424
0.00638849
0.00606711
0.00563143
0.00525915
0.00505051
0.00491172
0.00475483
0.00456753
0.00436762
0.00418677
0.00403781
0.00391894
0.00380822
0.00369443
0.00357662
0.00345984
0.00334521
0.00313659
0.00279363
0.00234985
0.00190915
0.00149385
0.00120989
0.00112915
0.00116924
0.000929415
0.00311204
0.00988707
0.00861193
0.00769991
0.00694854
0.00648685
0.00599439
0.00560296
0.00546082
0.00558231
0.00589607
0.00627443
0.00656739
0.00664271
0.00643364
0.00598528
0.00546472
0.00510662
0.00495779
0.00473379
0.00441426
0.00408624
0.00381982
0.00363545
0.00351352
0.0034236
0.00334473
0.00327221
0.00321133
0.00317254
0.00316761
0.00317718
0.00298439
0.00267788
0.00240106
0.00226169
0.00236779
0.00277925
0.00348548
0.00147064
0.00303505
0.00362083
0.00406819
0.00426393
0.00437096
0.00439064
0.00448487
0.00474897
0.00519005
0.00574923
0.00631505
0.00675288
0.00694163
0.00679753
0.00631642
0.0056492
0.00510717
0.00474215
0.00440547
0.00398512
0.00357181
0.00325856
0.00305507
0.0029281
0.00284208
0.00277247
0.0027064
0.0026386
0.00256645
0.00248725
0.00239822
0.00229979
0.00221599
0.00215448
0.00213839
0.00216151
0.00216374
0.00208747
0.00195557
0.00138102
0.00172073
0.00330484
0.00433797
0.00507683
0.0057759
0.00640378
0.00694402
0.0073479
0.00755274
0.00748418
0.00711356
0.0064333
0.00553191
0.00470816
0.0041718
0.00373218
0.00326977
0.0028598
0.002574
0.00239859
0.00229309
0.00222555
0.00217723
0.00213856
0.00210555
0.00207732
0.00205479
0.00204035
0.00203772
0.00205555
0.00208047
0.00211229
0.00214596
0.00215792
0.00210803
0.00198086
0.00178951
0.00114004
0.00206575
0.0044762
0.00596139
0.00655063
0.00708159
0.00749576
0.00759276
0.00750945
0.00718208
0.00648135
0.0055659
0.00462929
0.00385038
0.00326021
0.002782
0.00237874
0.00209607
0.00192204
0.00181116
0.00174441
0.00170691
0.00168901
0.00168618
0.00169648
0.00171909
0.00175341
0.00179819
0.00185054
0.00191299
0.00198844
0.00207524
0.00216823
0.0022538
0.00231414
0.00230543
0.00233688
0.00232692
0.00115905
0.00179895
0.00190371
0.00197985
0.00209406
0.00198205
0.00185392
0.00173645
0.00162272
0.00152386
0.00141259
0.00128016
0.00112968
0.000966331
0.000812512
0.000689386
0.000606592
0.00055906
0.000536199
0.00052906
0.000531721
0.000540999
0.000554189
0.000570315
0.000589177
0.000610749
0.000635115
0.000662461
0.000693127
0.000727712
0.000767292
0.000812327
0.000862032
0.000917109
0.000978281
0.00104566
0.00112662
0.00115462
0.00112732
0.00105703
0.000982667
)
;

boundaryField
{
    floor
    {
        type            nutkWallFunction;
        Cmu             0.09;
        kappa           0.41;
        E               9.8;
        value           nonuniform List<scalar> 
29
(
0.00014122
5.13851e-05
6.42045e-05
7.04189e-05
6.83371e-05
6.51491e-05
6.16017e-05
5.77436e-05
5.40475e-05
5.06749e-05
4.76352e-05
4.48986e-05
4.24433e-05
4.02262e-05
3.81937e-05
3.62833e-05
3.44015e-05
3.24014e-05
3.13259e-05
2.82401e-05
2.82401e-05
4.1273e-05
4.95166e-05
5.57127e-05
0.00014122
5.13851e-05
6.01235e-05
0.000119641
0.000157173
)
;
    }
    ceiling
    {
        type            nutkWallFunction;
        Cmu             0.09;
        kappa           0.41;
        E               9.8;
        value           nonuniform List<scalar> 
43
(
0.000211267
0.000222761
0.000231075
0.000243566
0.000231426
0.000217422
0.000204483
0.000191863
0.000180812
0.000168276
0.000153208
0.000135873
0.000116752
9.8402e-05
8.34192e-05
7.31661e-05
6.72043e-05
6.43153e-05
6.34103e-05
6.37482e-05
6.49241e-05
6.65913e-05
6.8623e-05
7.09904e-05
7.36868e-05
7.67185e-05
8.01043e-05
8.38814e-05
8.81173e-05
9.29357e-05
9.83827e-05
0.000104354
0.000110923
0.000118167
0.000126084
0.000135523
0.00013877
0.000135605
0.000127415
0.000118684
0.000343791
0.00040435
0.000240307
)
;
    }
    sWall
    {
        type            nutkWallFunction;
        Cmu             0.09;
        kappa           0.41;
        E               9.8;
        value           uniform 0.000211325;
    }
    nWall
    {
        type            nutkWallFunction;
        Cmu             0.09;
        kappa           0.41;
        E               9.8;
        value           nonuniform List<scalar> 6(9.62626e-05 0.000100237 0.000112388 0.00013709 0.000139291 0.00011869);
    }
    sideWalls
    {
        type            empty;
    }
    glass1
    {
        type            nutkWallFunction;
        Cmu             0.09;
        kappa           0.41;
        E               9.8;
        value           nonuniform List<scalar> 9(0.000121328 0.000166302 0.000203234 0.000238493 0.000273959 0.000310863 0.000345011 0.000352232 0.000344213);
    }
    glass2
    {
        type            nutkWallFunction;
        Cmu             0.09;
        kappa           0.41;
        E               9.8;
        value           nonuniform List<scalar> 2(0.000174911 0.000164772);
    }
    sun
    {
        type            nutkWallFunction;
        Cmu             0.09;
        kappa           0.41;
        E               9.8;
        value           nonuniform List<scalar> 
14
(
0.000121251
0.00013112
0.00013266
0.00013843
0.000143674
0.000148463
0.000153006
0.000157561
0.000161398
0.000163688
0.000163851
0.000161408
0.000156255
0.000149079
)
;
    }
    heatsource1
    {
        type            nutkWallFunction;
        Cmu             0.09;
        kappa           0.41;
        E               9.8;
        value           nonuniform List<scalar> 3(7.09409e-05 8.59757e-05 9.62622e-05);
    }
    heatsource2
    {
        type            nutkWallFunction;
        Cmu             0.09;
        kappa           0.41;
        E               9.8;
        value           nonuniform List<scalar> 4(0.00014274 9.5863e-05 9.5863e-05 0.000138476);
    }
    Table_master
    {
        type            nutkWallFunction;
        Cmu             0.09;
        kappa           0.41;
        E               9.8;
        value           nonuniform List<scalar> 9(8.23978e-05 7.35351e-05 6.62691e-05 6.02837e-05 5.53109e-05 5.11409e-05 4.76199e-05 4.46477e-05 4.21817e-05);
    }
    Table_slave
    {
        type            nutkWallFunction;
        Cmu             0.09;
        kappa           0.41;
        E               9.8;
        value           nonuniform List<scalar> 9(9.2096e-05 8.51536e-05 8.03961e-05 7.68937e-05 7.38714e-05 7.07868e-05 6.77647e-05 6.44738e-05 6.04703e-05);
    }
    inlet
    {
        type            calculated;
        value           uniform 0.000100623;
    }
    outlet
    {
        type            calculated;
        value           nonuniform List<scalar> 2(0.00179895 0.00190371);
    }
}


// ************************************************************************* //
