// -*- C++ -*-
// File generated by PyFoam - sorry for the ugliness

FoamFile
{
 version 2.0;
 format ascii;
 class volScalarField;
 location "630";
 object T;
}

dimensions [ 0 0 0 1 0 0 0 ];

internalField nonuniform List<scalar> 459
(
  302.041
  301.965
  301.963
  301.964
  301.965
  301.966
  301.966
  301.966
  301.965
  301.965
  301.968
  301.973
  301.981
  301.978
  301.966
  301.974
  302.038
  302.063
  302.077
  302.087
  302.093
  302.096
  302.097
  302.097
  302.096
  302.096
  302.095
  302.094
  302.094
  302.093
  302.092
  302.09
  302.085
  302.061
  302.09
  301.979
  301.975
  301.977
  301.978
  301.978
  301.977
  301.974
  301.969
  301.965
  301.967
  301.977
  301.989
  301.993
  301.987
  301.991
  301.993
  302.03
  302.06
  302.078
  302.095
  302.11
  302.122
  302.125
  302.127
  302.128
  302.129
  302.13
  302.13
  302.13
  302.13
  302.128
  302.124
  302.117
  302.106
  302.092
  302.139
  301.993
  301.984
  301.988
  301.991
  301.992
  301.991
  301.984
  301.971
  301.96
  301.961
  301.974
  301.992
  302.002
  302.003
  302.003
  302
  302.039
  302.061
  302.085
  302.11
  302.131
  302.147
  302.147
  302.148
  302.148
  302.149
  302.149
  302.15
  302.15
  302.15
  302.149
  302.146
  302.138
  302.124
  302.108
  302.19
  302.008
  301.994
  302
  302.008
  302.014
  302.015
  302.002
  301.977
  301.955
  301.952
  301.969
  301.993
  302.011
  302.019
  302.018
  302.014
  302.019
  302.04
  302.069
  302.101
  302.133
  302.16
  302.182
  302.201
  302.216
  302.228
  302.238
  302.247
  302.254
  302.26
  302.264
  302.267
  302.234
  302.197
  302.16
  302.131
  302.242
  302.027
  302.003
  302.011
  302.025
  302.039
  302.044
  302.024
  301.984
  301.95
  301.944
  301.965
  301.996
  302.023
  302.039
  302.044
  302.047
  302.06
  302.083
  302.112
  302.144
  302.175
  302.203
  302.226
  302.247
  302.262
  302.275
  302.284
  302.291
  302.296
  302.299
  302.298
  302.294
  302.276
  302.244
  302.203
  302.163
  302.164
  302.167
  302.216
  302.291
  302.052
  302.017
  302.02
  302.036
  302.059
  302.07
  302.037
  301.985
  301.944
  301.936
  301.961
  302.003
  302.043
  302.07
  302.084
  302.094
  302.112
  302.136
  302.165
  302.195
  302.225
  302.25
  302.272
  302.288
  302.301
  302.31
  302.316
  302.321
  302.323
  302.323
  302.32
  302.314
  302.3
  302.277
  302.245
  302.208
  302.194
  302.188
  302.219
  302.336
  302.094
  302.053
  302.047
  302.058
  302.083
  302.081
  302.037
  301.974
  301.929
  301.926
  301.962
  302.018
  302.072
  302.111
  302.134
  302.151
  302.171
  302.195
  302.222
  302.249
  302.274
  302.295
  302.311
  302.323
  302.33
  302.335
  302.337
  302.338
  302.338
  302.336
  302.332
  302.325
  302.314
  302.297
  302.274
  302.244
  302.224
  302.21
  302.227
  302.402
  302.21
  302.159
  302.132
  302.126
  302.129
  302.088
  302.011
  301.935
  301.897
  301.913
  301.973
  302.049
  302.118
  302.164
  302.192
  302.211
  302.231
  302.253
  302.276
  302.298
  302.316
  302.329
  302.338
  302.343
  302.346
  302.347
  302.346
  302.344
  302.342
  302.339
  302.335
  302.329
  302.32
  302.307
  302.291
  302.271
  302.254
  302.242
  302.319
  302.493
  302.404
  302.339
  302.281
  302.237
  302.16
  302.031
  301.909
  301.841
  301.845
  301.91
  302.01
  302.108
  302.186
  302.226
  302.25
  302.269
  302.285
  302.302
  302.318
  302.331
  302.341
  302.347
  302.35
  302.351
  302.351
  302.35
  302.347
  302.345
  302.341
  302.337
  302.333
  302.329
  302.326
  302.324
  302.325
  302.332
  302.345
  302.363
  302.409
  300.784
  301.108
  301.257
  301.318
  301.403
  301.517
  301.661
  301.818
  301.969
  302.114
  302.202
  302.253
  302.281
  302.298
  302.311
  302.323
  302.333
  302.341
  302.347
  302.351
  302.352
  302.353
  302.352
  302.351
  302.35
  302.348
  302.346
  302.344
  302.342
  302.34
  302.339
  302.339
  302.341
  302.345
  302.353
  302.366
  302.385
  302.419
  300.824
  301.109
  301.258
  301.401
  301.55
  301.714
  301.888
  302.031
  302.14
  302.22
  302.268
  302.296
  302.312
  302.323
  302.331
  302.338
  302.343
  302.347
  302.349
  302.35
  302.351
  302.351
  302.351
  302.351
  302.351
  302.351
  302.35
  302.35
  302.35
  302.349
  302.349
  302.349
  302.35
  302.353
  302.358
  302.367
  302.379
  302.404
  301.255
  301.237
  301.236
  301.471
  301.662
  301.847
  301.985
  302.077
  302.153
  302.211
  302.252
  302.28
  302.298
  302.309
  302.316
  302.321
  302.324
  302.327
  302.328
  302.329
  302.33
  302.33
  302.331
  302.331
  302.331
  302.332
  302.333
  302.334
  302.335
  302.337
  302.339
  302.341
  302.342
  302.344
  302.346
  302.349
  302.353
  302.358
  302.358
  302.395
)
;

boundaryField
{
  floor
  {
    type wallHeatTransfer;
    Tinf uniform 300.35;
    alphaWall uniform 0.24;
    value nonuniform List<scalar> 29
(
  301.732
  301.645
  301.771
  301.799
  301.813
  301.82
  301.822
  301.814
  301.803
  301.791
  301.778
  301.766
  301.754
  301.743
  301.732
  301.72
  301.707
  301.691
  301.664
  301.614
  301.614
  301.685
  301.718
  301.764
  301.732
  301.645
  301.771
  301.807
  301.831
)
;
  }
  ceiling
  {
    type wallHeatTransfer;
    Tinf uniform 300.35;
    alphaWall uniform 0.24;
    value nonuniform List<scalar> 43
(
  301.173
  301.159
  301.16
  301.384
  301.562
  301.729
  301.855
  301.94
  302.009
  302.06
  302.093
  302.114
  302.125
  302.132
  302.137
  302.141
  302.144
  302.145
  302.146
  302.147
  302.147
  302.147
  302.147
  302.147
  302.146
  302.145
  302.142
  302.139
  302.135
  302.131
  302.129
  302.128
  302.129
  302.131
  302.135
  302.14
  302.146
  302.149
  302.144
  302.172
  302.353
  302.288
  300.777
)
;
  }
  sWall
  {
    type wallHeatTransfer;
    Tinf uniform 306.167;
    alphaWall uniform 0.36;
    value uniform 301.9;
  }
  nWall
  {
    type wallHeatTransfer;
    Tinf uniform 305.15;
    alphaWall uniform 0.36;
    value nonuniform List<scalar> 6
(
  302.933
  302.81
  302.751
  302.807
  302.775
  302.825
)
;
  }
  sideWalls
  {
    type empty;
  }
  glass1
  {
    type wallHeatTransfer;
    Tinf uniform 306.167;
    alphaWall uniform 4.3;
    value nonuniform List<scalar> 9
(
  305.089
  304.92
  304.805
  304.711
  304.629
  304.549
  304.48
  304.486
  304.54
)
;
  }
  glass2
  {
    type wallHeatTransfer;
    Tinf uniform 305.15;
    alphaWall uniform 4.3;
    value nonuniform List<scalar> 2
(
  304.218
  304.234
)
;
  }
  sun
  {
    type wallHeatTransfer;
    Tinf uniform 300.35;
    alphaWall uniform 0.24;
    value nonuniform List<scalar> 14
(
  301.812
  301.761
  301.766
  301.774
  301.781
  301.788
  301.794
  301.799
  301.802
  301.803
  301.805
  301.805
  301.795
  301.769
)
;
  }
  heatsource1
  {
    type fixedGradient;
    gradient uniform 0;
  }
  heatsource2
  {
    type fixedGradient;
    gradient uniform 0;
  }
  Table_master
  {
    type zeroGradient;
  }
  Table_slave
  {
    type zeroGradient;
  }
  inlet
  {
    type fixedValue;
    value uniform 300.15;
  }
  outlet
  {
    type zeroGradient;
  }
} 	// ************************************************************************* //

