/*--------------------------------*- C++ -*----------------------------------*\
  =========                 |
  \\      /  F ield         | OpenFOAM: The Open Source CFD Toolbox
   \\    /   O peration     | Website:  https://openfoam.org
    \\  /    A nd           | Version:  6
     \\/     M anipulation  |
\*---------------------------------------------------------------------------*/
FoamFile
{
    version     2.0;
    format      ascii;
    class       volScalarField;
    location    "60";
    object      alphat;
}
// * * * * * * * * * * * * * * * * * * * * * * * * * * * * * * * * * * * * * //

dimensions      [1 -1 -1 0 0 0 0];

internalField   nonuniform List<scalar> 
459
(
0.00126384
0.00141788
0.00149906
0.0015939
0.00169222
0.00179146
0.00187148
0.00192012
0.00191675
0.00182346
0.00171804
0.00159513
0.00145796
0.00132841
0.00118865
0.0007059
0.000884555
0.000771394
0.000703852
0.000629366
0.000563276
0.000500215
0.000436754
0.000379409
0.000333806
0.000302274
0.000283441
0.000273891
0.000271487
0.000281538
0.000328442
0.000443534
0.000633392
0.000688915
0.00154077
0.00406431
0.00429283
0.00507245
0.00577837
0.0063071
0.00679275
0.00725197
0.00762992
0.00766502
0.00735962
0.00683529
0.00596748
0.00462817
0.00301245
0.0013364
0.00114497
0.00105516
0.00317203
0.00246488
0.0025445
0.00259118
0.00240321
0.00180961
0.00141083
0.00111469
0.00090422
0.000770293
0.000691356
0.000646474
0.000626469
0.00064807
0.000808585
0.00123709
0.00187629
0.000881581
0.001769
0.00565487
0.00548532
0.00608297
0.00643821
0.0066898
0.00699904
0.00753891
0.00823592
0.00865013
0.00870973
0.00848618
0.00799414
0.0069343
0.0053176
0.00326925
0.00125815
0.00109405
0.00292875
0.00246678
0.0026881
0.00298301
0.00283066
0.000743108
0.000580063
0.000459921
0.000374897
0.000321969
0.000294449
0.000283827
0.000286441
0.000322701
0.000794636
0.00147945
0.00228552
0.0010062
0.00198917
0.00689795
0.00595306
0.00634105
0.00633358
0.00627201
0.0064038
0.00702818
0.00788342
0.00852775
0.00881342
0.00879363
0.00854368
0.00792002
0.00675113
0.00494094
0.00249146
0.00129524
0.00155916
0.00181712
0.00221904
0.00264481
0.00299484
0.00294302
0.000925389
0.000801939
0.000695992
0.000633536
0.000615404
0.000621401
0.000642696
0.000673664
0.000702596
0.00154636
0.00218755
0.00280672
0.0011047
0.00221941
0.00832839
0.00665538
0.00679758
0.00646403
0.00604087
0.00606854
0.00674819
0.00770137
0.00846407
0.00881963
0.00882863
0.0086366
0.00824237
0.00747727
0.0061745
0.0043249
0.00320475
0.00307471
0.00317035
0.00335545
0.00352605
0.00368598
0.0037778
0.00304163
0.00279091
0.0028217
0.00305295
0.00335162
0.00362609
0.00381541
0.00389383
0.00394265
0.00407233
0.00385219
0.00343253
0.00198908
0.00107443
0.000941648
0.000784324
0.00246817
0.00993428
0.00833697
0.00773601
0.00673364
0.00597683
0.00597846
0.00675238
0.00783295
0.008675
0.00901897
0.008956
0.00872035
0.00842584
0.00793917
0.00709388
0.00590398
0.00516074
0.00499932
0.00495061
0.00489027
0.00486222
0.00492122
0.00495181
0.00468704
0.00456262
0.00466719
0.00488163
0.00508976
0.00524514
0.00531158
0.00527665
0.00519573
0.00505822
0.0047329
0.00407568
0.00286017
0.00183835
0.0014165
0.000760414
0.00266854
0.0108968
0.0103049
0.00847033
0.00673494
0.00580793
0.00598
0.00699886
0.00826454
0.00916547
0.0094466
0.00929141
0.00904998
0.00884065
0.00847657
0.00787932
0.0071123
0.00662499
0.00641382
0.00627632
0.00610817
0.00596658
0.0058771
0.00586362
0.00573261
0.0056501
0.00564931
0.0056795
0.00571573
0.00573855
0.00571331
0.00559275
0.00538648
0.00501927
0.00444506
0.00371405
0.0029493
0.0021563
0.00169974
0.000738124
0.0027067
0.00896553
0.00842648
0.00677843
0.00550625
0.00524619
0.00607041
0.00755844
0.00902977
0.00989734
0.0100367
0.00984889
0.00964034
0.00927316
0.00886401
0.00839882
0.00785891
0.00746531
0.0071857
0.00692441
0.00665431
0.00640268
0.00621927
0.00608807
0.0059381
0.0058077
0.00572336
0.0056913
0.00569653
0.00570329
0.00566459
0.00552457
0.00520458
0.00456149
0.00353301
0.00242735
0.00176264
0.00140448
0.00122232
0.00100681
0.0026411
0.00309504
0.003197
0.0031359
0.00349567
0.00476656
0.00673319
0.00873747
0.0101584
0.0106628
0.0105803
0.0100364
0.00940356
0.0088764
0.00849062
0.0081754
0.00785819
0.00752071
0.00715597
0.00676798
0.00639217
0.00608009
0.00586028
0.00572286
0.00564424
0.00562354
0.00566445
0.0057519
0.00584902
0.00590813
0.00587956
0.0057157
0.00537287
0.00480573
0.00399144
0.00302084
0.00217082
0.0016673
0.0014931
0.00155245
0.000667457
0.00178356
0.00455619
0.00745825
0.00966022
0.0108378
0.0111725
0.010594
0.00980887
0.00908991
0.00856257
0.00821889
0.00798245
0.00777455
0.00753551
0.00723755
0.00691562
0.00662357
0.00639844
0.00625689
0.00619901
0.00621593
0.00629736
0.00643354
0.00660825
0.00679339
0.00695237
0.00704541
0.00703347
0.00688393
0.00657814
0.00611745
0.00553354
0.00489874
0.00430903
0.00386693
0.00363512
0.00185561
0.00189443
0.00812293
0.0107259
0.0117327
0.0118935
0.0113627
0.0104519
0.00955126
0.00885792
0.00840936
0.00811857
0.00790816
0.00773864
0.00759677
0.00747578
0.00736758
0.00726655
0.00717774
0.00711415
0.00709339
0.00713283
0.00724497
0.00743179
0.00767833
0.00795447
0.00822375
0.00845118
0.00860489
0.0086551
0.00857539
0.00834864
0.00797565
0.00748197
0.00692002
0.00643511
0.00618294
0.00599374
0.00232104
0.00192596
0.00209817
0.00228437
0.00258717
0.0025898
0.00253865
0.00243472
0.00230674
0.00217072
0.00206539
0.00199858
0.00195949
0.0019386
0.00192969
0.00192881
0.00193296
0.00193949
0.00194644
0.00195355
0.00196193
0.00197316
0.00198855
0.00200871
0.00203323
0.00206065
0.00208867
0.00211484
0.00213709
0.00215389
0.00216399
0.00216616
0.00215909
0.00214156
0.00211231
0.00206904
0.00201042
0.00194695
0.00189782
0.00186931
0.00172111
)
;

boundaryField
{
    floor
    {
        type            compressible::alphatWallFunction;
        Prt             0.85;
        value           nonuniform List<scalar> 
29
(
0.000168955
0.000100472
0.000126301
0.000109963
0.000100083
8.90806e-05
7.91993e-05
6.96091e-05
5.97931e-05
5.07669e-05
4.34676e-05
3.83495e-05
3.52627e-05
3.36895e-05
3.32966e-05
3.49722e-05
4.26681e-05
6.09504e-05
8.97989e-05
9.79813e-05
9.79802e-05
0.00012595
0.000143648
0.000157433
0.000168953
0.000100471
0.000150428
0.000155885
0.000183596
)
;
    }
    ceiling
    {
        type            compressible::alphatWallFunction;
        Prt             0.85;
        value           nonuniform List<scalar> 
43
(
0.000267804
0.000290229
0.000314254
0.000352914
0.000353265
0.000346783
0.00033356
0.000317188
0.00029968
0.000286038
0.000277346
0.000272244
0.000269513
0.000268347
0.000268233
0.000268779
0.00026964
0.000270557
0.000271498
0.000272605
0.000274082
0.0002761
0.000278735
0.000281932
0.000285497
0.000289132
0.000292519
0.000295394
0.000297562
0.000298864
0.000299142
0.000298228
0.000295962
0.000292176
0.000286563
0.000278939
0.000270659
0.000264226
0.000260484
0.000240935
0.000359756
0.000416673
0.000263547
)
;
    }
    sWall
    {
        type            compressible::alphatWallFunction;
        Prt             0.85;
        value           uniform 0.000267041;
    }
    nWall
    {
        type            compressible::alphatWallFunction;
        Prt             0.85;
        value           nonuniform List<scalar> 6(0.000111592 0.000108119 0.00010487 0.000258342 0.000318721 0.000240586);
    }
    sideWalls
    {
        type            empty;
    }
    glass1
    {
        type            compressible::alphatWallFunction;
        Prt             0.85;
        value           nonuniform List<scalar> 9(0.000176857 0.000214135 0.000244326 0.00027307 0.00030278 0.000334527 0.000359871 0.000364728 0.000356564);
    }
    glass2
    {
        type            compressible::alphatWallFunction;
        Prt             0.85;
        value           nonuniform List<scalar> 2(0.000143283 0.000218001);
    }
    sun
    {
        type            compressible::alphatWallFunction;
        Prt             0.85;
        value           nonuniform List<scalar> 
14
(
0.000179291
0.000200268
0.000211223
0.000223935
0.000237027
0.000250155
0.000260682
0.000267057
0.000266616
0.000254374
0.000240456
0.000224109
0.000205696
0.000188129
)
;
    }
    heatsource1
    {
        type            compressible::alphatWallFunction;
        Prt             0.85;
        value           nonuniform List<scalar> 3(0.000152883 0.000134185 0.000111627);
    }
    heatsource2
    {
        type            compressible::alphatWallFunction;
        Prt             0.85;
        value           nonuniform List<scalar> 4(0.000188997 0.000162692 0.00016269 0.000178296);
    }
    Table_master
    {
        type            compressible::alphatWallFunction;
        Prt             0.85;
        value           nonuniform List<scalar> 9(0.000105593 8.14447e-05 6.31177e-05 4.97955e-05 4.13202e-05 3.68505e-05 3.51166e-05 3.55578e-05 4.15079e-05);
    }
    Table_slave
    {
        type            compressible::alphatWallFunction;
        Prt             0.85;
        value           nonuniform List<scalar> 9(0.000131842 0.000114134 9.87038e-05 8.95057e-05 8.68281e-05 8.77293e-05 9.09058e-05 9.54889e-05 9.97575e-05);
    }
    inlet
    {
        type            fixedValue;
        value           uniform 1.94e-05;
    }
    outlet
    {
        type            zeroGradient;
    }
}


// ************************************************************************* //
