// -*- C++ -*-
// File generated by PyFoam - sorry for the ugliness

FoamFile
{
 version 2.0;
 format ascii;
 class volScalarField;
 location "600";
 object T;
}

dimensions [ 0 0 0 1 0 0 0 ];

internalField nonuniform List<scalar> 459
(
  303.047
  302.738
  302.729
  302.728
  302.727
  302.727
  302.726
  302.724
  302.723
  302.722
  302.719
  302.714
  302.707
  302.699
  302.69
  302.635
  302.626
  302.621
  302.617
  302.613
  302.61
  302.607
  302.605
  302.602
  302.599
  302.597
  302.594
  302.591
  302.587
  302.584
  302.58
  302.576
  302.572
  302.579
  303.274
  302.766
  302.745
  302.75
  302.755
  302.759
  302.762
  302.764
  302.765
  302.765
  302.76
  302.75
  302.733
  302.71
  302.683
  302.661
  302.644
  302.624
  302.611
  302.603
  302.596
  302.591
  302.586
  302.581
  302.575
  302.57
  302.564
  302.558
  302.553
  302.547
  302.542
  302.538
  302.536
  302.535
  302.535
  302.559
  303.499
  302.811
  302.77
  302.782
  302.797
  302.81
  302.822
  302.831
  302.837
  302.839
  302.834
  302.817
  302.79
  302.752
  302.711
  302.674
  302.647
  302.621
  302.61
  302.605
  302.599
  302.595
  302.59
  302.581
  302.571
  302.562
  302.553
  302.544
  302.536
  302.528
  302.521
  302.515
  302.514
  302.514
  302.516
  302.548
  303.713
  302.87
  302.796
  302.813
  302.837
  302.862
  302.885
  302.904
  302.919
  302.925
  302.92
  302.899
  302.86
  302.808
  302.748
  302.691
  302.647
  302.629
  302.619
  302.617
  302.614
  302.61
  302.605
  302.601
  302.597
  302.594
  302.591
  302.588
  302.584
  302.58
  302.575
  302.569
  302.562
  302.54
  302.522
  302.512
  302.544
  303.911
  302.946
  302.824
  302.837
  302.868
  302.901
  302.935
  302.966
  302.991
  303.006
  303.005
  302.983
  302.937
  302.873
  302.798
  302.724
  302.664
  302.629
  302.621
  302.624
  302.624
  302.621
  302.618
  302.615
  302.613
  302.61
  302.608
  302.605
  302.6
  302.595
  302.588
  302.579
  302.569
  302.552
  302.531
  302.514
  302.534
  302.585
  302.614
  302.625
  304.081
  303.044
  302.873
  302.856
  302.885
  302.921
  302.96
  302.999
  303.035
  303.063
  303.072
  303.052
  303.002
  302.93
  302.846
  302.757
  302.681
  302.63
  302.623
  302.63
  302.632
  302.632
  302.63
  302.628
  302.627
  302.625
  302.623
  302.619
  302.614
  302.607
  302.597
  302.586
  302.574
  302.558
  302.538
  302.52
  302.525
  302.547
  302.555
  302.59
  304.209
  303.208
  303.02
  302.93
  302.916
  302.937
  302.97
  303.006
  303.044
  303.091
  303.111
  303.092
  303.04
  302.965
  302.877
  302.781
  302.694
  302.629
  302.622
  302.635
  302.64
  302.641
  302.641
  302.641
  302.641
  302.639
  302.637
  302.633
  302.627
  302.618
  302.606
  302.591
  302.577
  302.562
  302.544
  302.527
  302.524
  302.53
  302.537
  302.566
  304.431
  303.683
  303.47
  303.272
  303.138
  303.073
  303.055
  303.062
  303.088
  303.127
  303.134
  303.102
  303.041
  302.962
  302.875
  302.784
  302.697
  302.624
  302.622
  302.64
  302.647
  302.65
  302.652
  302.653
  302.654
  302.653
  302.651
  302.648
  302.642
  302.634
  302.623
  302.607
  302.59
  302.577
  302.564
  302.553
  302.553
  302.57
  302.597
  302.758
  304.74
  304.423
  304.153
  303.887
  303.66
  303.491
  303.379
  303.312
  303.276
  303.227
  303.159
  303.079
  302.995
  302.911
  302.829
  302.75
  302.673
  302.608
  302.622
  302.645
  302.655
  302.659
  302.663
  302.665
  302.667
  302.668
  302.668
  302.667
  302.665
  302.663
  302.661
  302.663
  302.669
  302.682
  302.706
  302.74
  302.784
  302.826
  302.852
  302.914
  298.016
  300.868
  302.186
  302.66
  302.845
  302.916
  302.933
  302.928
  302.904
  302.867
  302.822
  302.774
  302.725
  302.675
  302.624
  302.579
  302.626
  302.654
  302.664
  302.67
  302.674
  302.678
  302.682
  302.686
  302.689
  302.692
  302.696
  302.699
  302.704
  302.71
  302.717
  302.731
  302.751
  302.777
  302.806
  302.831
  302.843
  302.854
  298.5
  300.817
  301.744
  302.215
  302.451
  302.562
  302.609
  302.621
  302.626
  302.625
  302.618
  302.607
  302.593
  302.578
  302.559
  302.546
  302.643
  302.67
  302.677
  302.683
  302.688
  302.692
  302.696
  302.7
  302.705
  302.709
  302.713
  302.718
  302.723
  302.729
  302.736
  302.746
  302.761
  302.779
  302.799
  302.817
  302.808
  302.836
  299.894
  299.837
  299.834
  301.247
  301.803
  302.186
  302.325
  302.392
  302.426
  302.443
  302.454
  302.465
  302.474
  302.482
  302.49
  302.497
  302.504
  302.52
  302.677
  302.701
  302.706
  302.71
  302.714
  302.717
  302.72
  302.723
  302.725
  302.728
  302.73
  302.733
  302.736
  302.739
  302.744
  302.749
  302.757
  302.773
  302.783
  302.789
  302.789
  302.825
)
;

boundaryField
{
  floor
  {
    type wallHeatTransfer;
    Tinf uniform 305.2;
    alphaWall uniform 0.24;
    value nonuniform List<scalar> 29
(
  303.012
  303.038
  303.048
  303.058
  303.065
  303.07
  303.076
  303.084
  303.094
  303.104
  303.113
  303.123
  303.133
  303.143
  303.153
  303.164
  303.176
  303.191
  303.201
  303.24
  303.24
  303.132
  303.07
  303.03
  303.012
  303.038
  302.988
  302.957
  302.938
)
;
  }
  ceiling
  {
    type wallHeatTransfer;
    Tinf uniform 303.2;
    alphaWall uniform 0.24;
    value nonuniform List<scalar> 43
(
  300.108
  300.046
  300.036
  301.359
  301.886
  302.251
  302.384
  302.45
  302.485
  302.505
  302.518
  302.531
  302.543
  302.555
  302.566
  302.577
  302.59
  302.611
  302.758
  302.777
  302.781
  302.784
  302.786
  302.788
  302.789
  302.79
  302.791
  302.791
  302.792
  302.792
  302.792
  302.793
  302.794
  302.797
  302.802
  302.813
  302.822
  302.828
  302.83
  302.864
  304.668
  304.374
  298.772
)
;
  }
  sWall
  {
    type wallHeatTransfer;
    Tinf uniform 315.2;
    alphaWall uniform 0.36;
    value uniform 301.337;
  }
  nWall
  {
    type wallHeatTransfer;
    Tinf uniform 307.2;
    alphaWall uniform 0.36;
    value nonuniform List<scalar> 6
(
  303.44
  303.388
  303.313
  303.468
  303.447
  303.487
)
;
  }
  sideWalls
  {
    type empty;
  }
  glass1
  {
    type wallHeatTransfer;
    Tinf uniform 315.2;
    alphaWall uniform 4.3;
    value nonuniform List<scalar> 9
(
  312.222
  311.425
  310.872
  310.417
  310.044
  309.728
  309.448
  309.48
  309.683
)
;
  }
  glass2
  {
    type wallHeatTransfer;
    Tinf uniform 307.2;
    alphaWall uniform 4.3;
    value nonuniform List<scalar> 2
(
  305.457
  305.587
)
;
  }
  sun
  {
    type wallHeatTransfer;
    Tinf uniform 305.2;
    alphaWall uniform 0.24;
    value nonuniform List<scalar> 14
(
  303.357
  303.081
  303.077
  303.069
  303.062
  303.057
  303.052
  303.048
  303.043
  303.039
  303.035
  303.03
  303.024
  303.018
)
;
  }
  heatsource1
  {
    type fixedGradient;
    gradient uniform 0;
  }
  heatsource2
  {
    type fixedGradient;
    gradient uniform 0;
  }
  Table_master
  {
    type zeroGradient;
  }
  Table_slave
  {
    type zeroGradient;
  }
  inlet
  {
    type fixedValue;
    value uniform 293.15;
  }
  outlet
  {
    type zeroGradient;
  }
} 	// ************************************************************************* //

