// -*- C++ -*-
// File generated by PyFoam - sorry for the ugliness

FoamFile
{
 version 2.0;
 format ascii;
 class volScalarField;
 location "700";
 object T;
}

dimensions [ 0 0 0 1 0 0 0 ];

internalField nonuniform List<scalar> 459
(
  303.404
  303.128
  303.119
  303.118
  303.116
  303.114
  303.112
  303.11
  303.107
  303.102
  303.094
  303.084
  303.072
  303.061
  303.054
  303.104
  303.082
  303.079
  303.078
  303.078
  303.078
  303.078
  303.078
  303.078
  303.078
  303.078
  303.078
  303.077
  303.077
  303.076
  303.076
  303.075
  303.074
  303.085
  303.605
  303.165
  303.148
  303.154
  303.161
  303.165
  303.169
  303.17
  303.168
  303.16
  303.143
  303.119
  303.091
  303.065
  303.046
  303.036
  303.03
  303.088
  303.077
  303.073
  303.072
  303.07
  303.068
  303.066
  303.062
  303.059
  303.056
  303.053
  303.05
  303.047
  303.044
  303.042
  303.042
  303.043
  303.046
  303.069
  303.812
  303.212
  303.18
  303.196
  303.214
  303.23
  303.243
  303.251
  303.253
  303.242
  303.215
  303.172
  303.124
  303.081
  303.052
  303.041
  303.039
  303.069
  303.071
  303.074
  303.077
  303.078
  303.076
  303.072
  303.067
  303.063
  303.058
  303.054
  303.049
  303.045
  303.04
  303.036
  303.034
  303.033
  303.035
  303.061
  304.015
  303.269
  303.21
  303.233
  303.264
  303.294
  303.321
  303.341
  303.349
  303.337
  303.296
  303.23
  303.156
  303.094
  303.055
  303.041
  303.045
  303.056
  303.063
  303.075
  303.084
  303.09
  303.093
  303.093
  303.093
  303.093
  303.092
  303.091
  303.089
  303.087
  303.084
  303.081
  303.077
  303.058
  303.043
  303.034
  303.059
  304.207
  303.342
  303.239
  303.259
  303.297
  303.339
  303.381
  303.416
  303.435
  303.425
  303.371
  303.28
  303.181
  303.101
  303.053
  303.04
  303.048
  303.062
  303.077
  303.091
  303.102
  303.109
  303.112
  303.113
  303.112
  303.112
  303.11
  303.108
  303.105
  303.101
  303.096
  303.09
  303.083
  303.069
  303.052
  303.038
  303.052
  303.115
  303.145
  303.154
  304.375
  303.437
  303.288
  303.279
  303.313
  303.357
  303.404
  303.452
  303.491
  303.487
  303.42
  303.306
  303.189
  303.099
  303.049
  303.037
  303.051
  303.073
  303.095
  303.112
  303.123
  303.128
  303.13
  303.13
  303.129
  303.127
  303.125
  303.122
  303.118
  303.112
  303.104
  303.096
  303.087
  303.075
  303.059
  303.043
  303.046
  303.074
  303.085
  303.119
  304.509
  303.593
  303.428
  303.361
  303.355
  303.378
  303.415
  303.468
  303.521
  303.511
  303.43
  303.304
  303.176
  303.082
  303.035
  303.032
  303.057
  303.09
  303.117
  303.134
  303.142
  303.145
  303.146
  303.145
  303.144
  303.142
  303.139
  303.135
  303.129
  303.121
  303.111
  303.101
  303.091
  303.079
  303.065
  303.05
  303.047
  303.056
  303.063
  303.092
  304.726
  304.043
  303.852
  303.69
  303.585
  303.537
  303.532
  303.566
  303.576
  303.519
  303.4
  303.251
  303.12
  303.038
  303.011
  303.028
  303.07
  303.114
  303.142
  303.152
  303.157
  303.159
  303.159
  303.159
  303.158
  303.156
  303.153
  303.149
  303.143
  303.136
  303.127
  303.114
  303.104
  303.094
  303.084
  303.074
  303.073
  303.087
  303.11
  303.254
  305.029
  304.729
  304.463
  304.219
  304.024
  303.886
  303.801
  303.738
  303.62
  303.458
  303.279
  303.114
  303.009
  302.971
  302.986
  303.036
  303.1
  303.144
  303.16
  303.167
  303.17
  303.172
  303.174
  303.174
  303.174
  303.173
  303.172
  303.169
  303.167
  303.165
  303.165
  303.168
  303.174
  303.187
  303.208
  303.238
  303.276
  303.313
  303.336
  303.393
  297.802
  300.73
  302.161
  302.698
  302.907
  302.962
  302.975
  302.948
  302.894
  302.848
  302.861
  302.916
  302.994
  303.083
  303.142
  303.165
  303.174
  303.18
  303.183
  303.187
  303.189
  303.191
  303.193
  303.195
  303.197
  303.199
  303.201
  303.204
  303.208
  303.213
  303.22
  303.233
  303.251
  303.274
  303.3
  303.323
  303.337
  303.351
  298.323
  300.696
  301.674
  302.191
  302.457
  302.569
  302.613
  302.639
  302.652
  302.712
  302.848
  302.976
  303.102
  303.151
  303.171
  303.18
  303.187
  303.191
  303.196
  303.2
  303.203
  303.207
  303.21
  303.213
  303.216
  303.22
  303.223
  303.226
  303.23
  303.234
  303.24
  303.249
  303.262
  303.278
  303.295
  303.313
  303.306
  303.333
  299.883
  299.818
  299.813
  301.296
  301.865
  302.186
  302.414
  302.48
  302.51
  302.535
  302.567
  302.772
  303.096
  303.153
  303.172
  303.181
  303.188
  303.193
  303.197
  303.201
  303.205
  303.208
  303.212
  303.215
  303.219
  303.222
  303.225
  303.228
  303.231
  303.234
  303.238
  303.241
  303.246
  303.251
  303.258
  303.271
  303.281
  303.286
  303.286
  303.323
)
;

boundaryField
{
  floor
  {
    type wallHeatTransfer;
    Tinf uniform 305.2;
    alphaWall uniform 0.24;
    value nonuniform List<scalar> 29
(
  303.299
  303.546
  303.478
  303.476
  303.487
  303.498
  303.511
  303.523
  303.536
  303.547
  303.558
  303.568
  303.578
  303.587
  303.595
  303.604
  303.613
  303.624
  303.632
  303.663
  303.663
  303.568
  303.516
  303.483
  303.299
  303.546
  303.443
  303.358
  303.303
)
;
  }
  ceiling
  {
    type wallHeatTransfer;
    Tinf uniform 303.2;
    alphaWall uniform 0.24;
    value nonuniform List<scalar> 43
(
  300.104
  300.034
  300.022
  301.408
  301.947
  302.252
  302.47
  302.535
  302.568
  302.595
  302.63
  302.823
  303.113
  303.162
  303.178
  303.185
  303.19
  303.194
  303.197
  303.201
  303.204
  303.207
  303.21
  303.213
  303.216
  303.219
  303.221
  303.224
  303.227
  303.23
  303.233
  303.236
  303.24
  303.245
  303.252
  303.264
  303.273
  303.277
  303.277
  303.309
  304.942
  304.667
  298.613
)
;
  }
  sWall
  {
    type wallHeatTransfer;
    Tinf uniform 315.2;
    alphaWall uniform 0.36;
    value uniform 301.371;
  }
  nWall
  {
    type wallHeatTransfer;
    Tinf uniform 307.2;
    alphaWall uniform 0.36;
    value nonuniform List<scalar> 6
(
  303.907
  303.862
  303.803
  303.911
  303.89
  303.945
)
;
  }
  sideWalls
  {
    type empty;
  }
  glass1
  {
    type wallHeatTransfer;
    Tinf uniform 315.2;
    alphaWall uniform 4.3;
    value nonuniform List<scalar> 9
(
  311.99
  311.306
  310.849
  310.478
  310.163
  309.881
  309.632
  309.671
  309.87
)
;
  }
  glass2
  {
    type wallHeatTransfer;
    Tinf uniform 307.2;
    alphaWall uniform 4.3;
    value nonuniform List<scalar> 2
(
  305.71
  305.811
)
;
  }
  sun
  {
    type wallHeatTransfer;
    Tinf uniform 305.2;
    alphaWall uniform 0.24;
    value nonuniform List<scalar> 14
(
  303.633
  303.38
  303.371
  303.363
  303.357
  303.35
  303.345
  303.339
  303.333
  303.326
  303.318
  303.31
  303.303
  303.299
)
;
  }
  heatsource1
  {
    type fixedGradient;
    gradient uniform 0;
  }
  heatsource2
  {
    type fixedGradient;
    gradient uniform 0;
  }
  Table_master
  {
    type zeroGradient;
  }
  Table_slave
  {
    type zeroGradient;
  }
  inlet
  {
    type fixedValue;
    value uniform 293.15;
  }
  outlet
  {
    type zeroGradient;
  }
} 	// ************************************************************************* //

