/*--------------------------------*- C++ -*----------------------------------*\
  =========                 |
  \\      /  F ield         | OpenFOAM: The Open Source CFD Toolbox
   \\    /   O peration     | Website:  https://openfoam.org
    \\  /    A nd           | Version:  6
     \\/     M anipulation  |
\*---------------------------------------------------------------------------*/
FoamFile
{
    version     2.0;
    format      ascii;
    class       volScalarField;
    location    "1300";
    object      alphat;
}
// * * * * * * * * * * * * * * * * * * * * * * * * * * * * * * * * * * * * * //

dimensions      [1 -1 -1 0 0 0 0];

internalField   nonuniform List<scalar> 
459
(
0.00083408
0.000872409
0.000855409
0.000885774
0.000912891
0.000936527
0.000957493
0.0009767
0.000995144
0.00101361
0.00102784
0.00103652
0.00103918
0.00103723
0.00103098
0.000463023
0.000576158
0.000617348
0.000628033
0.000626096
0.00061215
0.000579978
0.000546313
0.000515951
0.000488868
0.000464252
0.000441624
0.000420632
0.000400943
0.000382109
0.000363516
0.000344173
0.000330713
0.000302658
0.00128351
0.002142
0.00180804
0.0021365
0.00230602
0.00248254
0.00265749
0.00281729
0.0029417
0.00301169
0.00303509
0.00297773
0.00279025
0.00240354
0.00175727
0.00106861
0.000953616
0.000587073
0.0016889
0.00227155
0.00260847
0.00257595
0.00230463
0.00165231
0.00143541
0.0013005
0.00118311
0.00107644
0.000980312
0.000893141
0.000810582
0.00072791
0.000655907
0.000598194
0.00072078
0.000387027
0.00169502
0.00325288
0.00198405
0.00303664
0.00331205
0.00349678
0.00364045
0.0037505
0.00383194
0.00388082
0.00390298
0.00386461
0.00371918
0.00340223
0.00284733
0.00207806
0.001197
0.000872146
0.00313083
0.00343062
0.00328079
0.00292314
0.00232683
0.000653288
0.00056098
0.000492422
0.000445066
0.000411693
0.000386657
0.000366876
0.00035128
0.000340974
0.000411643
0.000491248
0.000845841
0.000455754
0.00211679
0.00490591
0.0019898
0.00337677
0.00385989
0.00402492
0.00411543
0.00416989
0.00420944
0.00424189
0.00427542
0.00429411
0.00426814
0.00414745
0.00383481
0.00318038
0.00213789
0.00124193
0.0034739
0.0037597
0.00355405
0.00311196
0.00266941
0.00212323
0.000599958
0.000592185
0.000598562
0.000607257
0.00061218
0.00060836
0.000591955
0.000571238
0.000546268
0.000532171
0.000537294
0.000993031
0.000522448
0.00254598
0.00706528
0.00256447
0.00316313
0.00406653
0.00427658
0.00434001
0.00435143
0.00434934
0.00436058
0.00439807
0.00446336
0.00453283
0.00459064
0.00462285
0.00460873
0.00450491
0.00420743
0.00402745
0.00366174
0.00321893
0.00279785
0.00249241
0.00232169
0.002167
0.00221303
0.0022757
0.00232446
0.00234004
0.00230795
0.0022142
0.00197265
0.0016371
0.00128617
0.00099374
0.000989633
0.000731971
0.000667355
0.000801646
0.000897372
0.00298462
0.00937454
0.00452374
0.00292384
0.00368886
0.00416353
0.00436576
0.00443236
0.0044111
0.00435772
0.00438581
0.00447048
0.00455944
0.00463531
0.00469057
0.00470831
0.0046228
0.0043345
0.00389419
0.00342179
0.00300931
0.00267485
0.00245125
0.00234652
0.00234845
0.00243256
0.00252826
0.00260831
0.00265624
0.00266398
0.00262572
0.00249762
0.00223847
0.0018721
0.00148789
0.00114244
0.000940274
0.000819528
0.00117897
0.000933213
0.00341244
0.0112635
0.00806836
0.00463451
0.0034475
0.00335387
0.00373177
0.0041378
0.00441921
0.00432812
0.0043717
0.00444912
0.0045176
0.00456374
0.00457857
0.00454941
0.00442561
0.00415166
0.00375754
0.00334683
0.00299942
0.00269609
0.00248416
0.00237689
0.00236201
0.00241707
0.00249852
0.00257986
0.00264781
0.00269386
0.0027234
0.00273272
0.00258274
0.00226528
0.00190254
0.00154543
0.00129641
0.00122258
0.00127761
0.00103494
0.00351276
0.011053
0.00939596
0.00795575
0.0061754
0.00485694
0.00427201
0.00420264
0.00438749
0.00442197
0.0044204
0.00443022
0.00444237
0.0044359
0.00439196
0.0042982
0.00414161
0.00391392
0.0036306
0.00333542
0.00306197
0.00276638
0.00255055
0.00243385
0.00239568
0.00241067
0.00245042
0.00249896
0.00255337
0.00261784
0.00270673
0.00283678
0.0029645
0.00275347
0.00252038
0.00242853
0.00259096
0.00305005
0.00383957
0.00164476
0.00343102
0.00412809
0.00482656
0.00515044
0.00521169
0.00497326
0.00467364
0.0044577
0.00435448
0.00430289
0.00429958
0.00430961
0.00430175
0.00425295
0.00415151
0.00399998
0.0038157
0.00362498
0.00344253
0.00326087
0.00307331
0.00281898
0.00261733
0.00249448
0.00242861
0.00239911
0.0023862
0.00237818
0.00237143
0.00236579
0.00236056
0.00235288
0.00234055
0.00232894
0.0023442
0.00238939
0.00240216
0.00232357
0.00218351
0.00155641
0.00301614
0.00584416
0.0055745
0.00535512
0.0051315
0.00493772
0.00478961
0.00466161
0.00453361
0.00439715
0.00424098
0.00405688
0.00384457
0.00361746
0.00340957
0.0032675
0.00319493
0.00312134
0.00301163
0.00284781
0.00270577
0.00258606
0.00248495
0.00240648
0.00234803
0.00230435
0.00227258
0.00225407
0.0022533
0.00227476
0.00231679
0.00236186
0.00240513
0.00242683
0.00238621
0.00226919
0.00208187
0.0013161
0.00285878
0.00638781
0.00602478
0.00569001
0.0054104
0.00516336
0.00492038
0.00468621
0.00441646
0.00410803
0.00379307
0.00348859
0.00320786
0.00297315
0.00283639
0.00287497
0.00304677
0.00310145
0.00303892
0.00303961
0.00303684
0.00297055
0.00285048
0.00271225
0.00258511
0.00248544
0.00241922
0.00238621
0.00238178
0.00239362
0.00242523
0.00248722
0.00255619
0.00261022
0.00259051
0.00264191
0.00272688
0.00134352
0.00225976
0.00246552
0.00263508
0.00280159
0.00263659
0.00249109
0.0022801
0.00210028
0.0019282
0.00176202
0.00161486
0.00148766
0.00136952
0.00125465
0.00114007
0.00102604
0.000920223
0.000843346
0.000812069
0.000791679
0.000770741
0.000772477
0.000770418
0.000761974
0.000753481
0.000751225
0.000758491
0.000776034
0.000803408
0.00084023
0.000887218
0.000947488
0.00101882
0.00109475
0.0011745
0.0012677
0.00129464
0.00126219
0.00119045
0.00111249
)
;

boundaryField
{
    floor
    {
        type            compressible::alphatWallFunction;
        Prt             0.85;
        value           nonuniform List<scalar> 
29
(
0.000146687
6.3573e-05
8.08204e-05
8.69898e-05
8.85807e-05
8.82918e-05
8.62123e-05
8.13919e-05
7.63124e-05
7.16977e-05
6.75527e-05
6.376e-05
6.02511e-05
5.69755e-05
5.38839e-05
5.09084e-05
4.79522e-05
4.48557e-05
4.26874e-05
3.81306e-05
3.813e-05
5.16858e-05
6.24429e-05
7.26855e-05
0.000146685
6.35722e-05
8.24675e-05
0.000124175
0.00017596
)
;
    }
    ceiling
    {
        type            compressible::alphatWallFunction;
        Prt             0.85;
        value           nonuniform List<scalar> 
43
(
0.000310816
0.000337057
0.000358556
0.00037966
0.00035889
0.00034045
0.00031349
0.000290294
0.000267893
0.000246051
0.000226519
0.000209477
0.000193503
0.000177821
0.000162014
0.0001461
0.000131147
0.000120155
0.000115647
0.000112694
0.000109657
0.00010991
0.000109611
0.000108384
0.00010715
0.000106823
0.000107884
0.000110435
0.000114402
0.000119711
0.000126445
0.000135022
0.000145089
0.000155716
0.000166786
0.000179615
0.000183304
0.000178861
0.000168991
0.00015819
0.000458128
0.000543073
0.000386607
)
;
    }
    sWall
    {
        type            compressible::alphatWallFunction;
        Prt             0.85;
        value           uniform 0.000309685;
    }
    nWall
    {
        type            compressible::alphatWallFunction;
        Prt             0.85;
        value           nonuniform List<scalar> 6(0.000127581 0.000132677 0.000147023 0.00018591 0.000189645 0.00015787);
    }
    sideWalls
    {
        type            empty;
    }
    glass1
    {
        type            compressible::alphatWallFunction;
        Prt             0.85;
        value           nonuniform List<scalar> 9(0.000115576 0.00017756 0.000232303 0.000287022 0.000341596 0.000396439 0.00044917 0.000461557 0.000451763);
    }
    glass2
    {
        type            compressible::alphatWallFunction;
        Prt             0.85;
        value           nonuniform List<scalar> 2(0.000228883 0.000217189);
    }
    sun
    {
        type            compressible::alphatWallFunction;
        Prt             0.85;
        value           nonuniform List<scalar> 
14
(
0.000118742
0.000124226
0.00012179
0.000126136
0.000130003
0.000133362
0.000136334
0.000139049
0.000141651
0.00014425
0.000146249
0.000147467
0.00014784
0.000147566
)
;
    }
    heatsource1
    {
        type            compressible::alphatWallFunction;
        Prt             0.85;
        value           nonuniform List<scalar> 3(9.45065e-05 0.00011413 0.000127875);
    }
    heatsource2
    {
        type            compressible::alphatWallFunction;
        Prt             0.85;
        value           nonuniform List<scalar> 4(0.000152044 0.000135868 0.000135867 0.000169867);
    }
    Table_master
    {
        type            compressible::alphatWallFunction;
        Prt             0.85;
        value           nonuniform List<scalar> 9(9.24212e-05 7.86181e-05 6.81843e-05 6.08706e-05 5.56569e-05 5.17099e-05 4.8568e-05 4.60753e-05 4.44201e-05);
    }
    Table_slave
    {
        type            compressible::alphatWallFunction;
        Prt             0.85;
        value           nonuniform List<scalar> 9(8.44784e-05 8.33142e-05 8.42704e-05 8.55717e-05 8.63074e-05 8.57363e-05 8.32797e-05 8.01656e-05 7.63934e-05);
    }
    inlet
    {
        type            fixedValue;
        value           uniform 1.94e-05;
    }
    outlet
    {
        type            zeroGradient;
    }
}


// ************************************************************************* //
