/*--------------------------------*- C++ -*----------------------------------*\
  =========                 |
  \\      /  F ield         | OpenFOAM: The Open Source CFD Toolbox
   \\    /   O peration     | Website:  https://openfoam.org
    \\  /    A nd           | Version:  6
     \\/     M anipulation  |
\*---------------------------------------------------------------------------*/
FoamFile
{
    version     2.0;
    format      ascii;
    class       volScalarField;
    location    "300";
    object      nut;
}
// * * * * * * * * * * * * * * * * * * * * * * * * * * * * * * * * * * * * * //

dimensions      [0 2 -1 0 0 0 0];

internalField   nonuniform List<scalar> 
459
(
0.000750636
0.000774592
0.000731761
0.00075983
0.000787802
0.000813548
0.000837422
0.000860174
0.000882814
0.000905354
0.000923388
0.000935277
0.000939735
0.000936484
0.000923457
0.000528888
0.000631316
0.000555308
0.000540063
0.00053878
0.000463316
0.000343848
0.000282019
0.000264758
0.000265648
0.000267458
0.000255763
0.000239967
0.000231778
0.000276074
0.000375628
0.000413815
0.000410436
0.000375849
0.00124263
0.00208404
0.00161368
0.00203525
0.00220441
0.00238268
0.00256572
0.00273784
0.00287626
0.002966
0.00300973
0.0029746
0.00280784
0.00242991
0.00176769
0.000982652
0.000671688
0.000683671
0.00256276
0.00233547
0.00230974
0.00218964
0.00186251
0.00139494
0.0010575
0.000902915
0.000852442
0.000786784
0.000658217
0.000498487
0.000366771
0.000381206
0.000857963
0.0010424
0.00122731
0.000515389
0.00167789
0.00334011
0.00169889
0.00288463
0.00318711
0.00335618
0.00349737
0.00361376
0.00370301
0.00376247
0.0037881
0.00374593
0.00358283
0.00322499
0.00261359
0.0018167
0.0010518
0.000884036
0.00312337
0.00301104
0.00277255
0.00238952
0.0018146
0.00066564
0.000548956
0.000480148
0.0004329
0.000395912
0.000363825
0.000333047
0.000304774
0.000367397
0.00138469
0.00124394
0.00100208
0.000545835
0.00209845
0.0050125
0.00179781
0.00312953
0.0037098
0.00385455
0.00393941
0.00400447
0.00406013
0.00410698
0.00415503
0.00418809
0.00416558
0.00400832
0.00359734
0.00284476
0.00188157
0.0011707
0.00244834
0.00327527
0.00332776
0.00290786
0.00240735
0.00169387
0.000857242
0.000814584
0.000799434
0.000802365
0.00081562
0.000830833
0.00083802
0.000825427
0.000797342
0.00103445
0.00135192
0.00176864
0.000907938
0.00249837
0.00695044
0.00232398
0.00289884
0.0038908
0.00406574
0.00411288
0.00413639
0.00416016
0.00419533
0.00426185
0.00438083
0.0045442
0.00472119
0.004854
0.00487232
0.00473893
0.004461
0.0041457
0.0039316
0.00356573
0.00319067
0.0029522
0.002863
0.00300764
0.00333888
0.00349409
0.00362576
0.00372671
0.00377664
0.00375592
0.00364401
0.00328951
0.00282146
0.00244166
0.00218817
0.00196775
0.000969114
0.000860213
0.000998315
0.00288234
0.00880741
0.00367126
0.00257677
0.00362382
0.00400737
0.00411924
0.00414571
0.00413348
0.00411593
0.00414692
0.00426651
0.00446935
0.00473987
0.00503015
0.00524964
0.00528693
0.00507428
0.00465046
0.00413161
0.00363298
0.0032674
0.00302198
0.00289793
0.00316102
0.00376324
0.00411177
0.00432648
0.00444439
0.0044844
0.00446325
0.00440214
0.00430113
0.00401179
0.00359922
0.00314705
0.00271507
0.00197112
0.00198747
0.00108153
0.00324893
0.0102372
0.00624649
0.00332025
0.00279595
0.00321648
0.00370896
0.00402203
0.00414386
0.0040357
0.00399772
0.00405597
0.00419805
0.00442215
0.00470134
0.00495764
0.00507087
0.00494812
0.00459931
0.00414438
0.00372169
0.0033872
0.00307178
0.00276898
0.00301562
0.00382829
0.00424794
0.00445495
0.00453879
0.00455338
0.00453898
0.0045395
0.00458716
0.00462866
0.00443486
0.0040703
0.00364023
0.0031476
0.00272429
0.00132477
0.0033356
0.0103081
0.00807367
0.00613217
0.00445371
0.00352811
0.00341776
0.0037242
0.00405878
0.00397121
0.00387614
0.00385236
0.00390149
0.00401838
0.00419548
0.00440306
0.00456108
0.00455965
0.00437266
0.00409365
0.00382932
0.00359599
0.00322837
0.00266348
0.00287241
0.00396022
0.00439423
0.00452093
0.00452414
0.00448046
0.00444669
0.00448779
0.0046618
0.00500873
0.00541588
0.00540791
0.00537608
0.00500798
0.00498172
0.00172354
0.00325022
0.00390584
0.00433037
0.00447401
0.00430314
0.00394195
0.00363117
0.00346638
0.00341755
0.00341194
0.00344068
0.0034918
0.00355746
0.00363497
0.00372767
0.00383867
0.00395236
0.004025
0.0040222
0.00395863
0.00389415
0.00384637
0.00349353
0.00257647
0.0027095
0.00415334
0.00461264
0.00462134
0.00451304
0.00435027
0.00417281
0.00403634
0.00395286
0.00387942
0.0037806
0.00361955
0.0033156
0.00292967
0.00261335
0.00162531
0.00228332
0.00368689
0.00405021
0.0040073
0.00385104
0.00369875
0.00358359
0.00350045
0.00344995
0.00342133
0.00340306
0.00339067
0.00338971
0.00341426
0.00347861
0.00358241
0.00370224
0.00380519
0.00390585
0.00406193
0.00383183
0.00246386
0.00249896
0.00435242
0.00489114
0.00477153
0.00463214
0.00444833
0.00419247
0.00394185
0.00376943
0.00365787
0.0035268
0.0032905
0.0029189
0.00244771
0.00197793
0.00132343
0.00240259
0.004183
0.0044394
0.00429322
0.00411643
0.00392465
0.00373665
0.00356207
0.00339035
0.00319456
0.0030019
0.00283429
0.00271233
0.00265738
0.00268996
0.00281916
0.0030229
0.00324258
0.0034448
0.00368435
0.00364593
0.00225268
0.00221254
0.00410119
0.00450617
0.00433342
0.00424516
0.00417043
0.00403449
0.00385845
0.00376757
0.00375836
0.0037541
0.0036719
0.00347673
0.00319475
0.00257663
0.0013484
0.00211117
0.00221292
0.00230207
0.00243166
0.0023021
0.00209393
0.00194435
0.00181027
0.00168789
0.00157659
0.00147689
0.00139148
0.00131506
0.00124528
0.00118157
0.00112461
0.00107616
0.00103869
0.0010145
0.00100394
0.00100534
0.00101738
0.00102386
0.000979789
0.00101613
0.00109189
0.00110636
0.00110175
0.00110424
0.00111547
0.00113901
0.0011844
0.00124804
0.00132884
0.00142167
0.00152276
0.00156088
0.00152134
0.00140168
0.00128793
)
;

boundaryField
{
    floor
    {
        type            nutkWallFunction;
        Cmu             0.09;
        kappa           0.41;
        E               9.8;
        value           nonuniform List<scalar> 
29
(
0.000111667
6.3415e-05
7.62705e-05
6.67516e-05
6.48206e-05
6.46553e-05
5.50191e-05
3.93383e-05
3.09567e-05
2.85751e-05
2.86991e-05
2.8949e-05
2.73243e-05
2.51143e-05
2.39622e-05
3.01434e-05
4.35779e-05
4.86022e-05
4.81605e-05
4.36067e-05
4.36067e-05
6.16991e-05
6.55599e-05
0.000109822
0.000111667
6.34149e-05
8.27232e-05
0.000106977
0.000140602
)
;
    }
    ceiling
    {
        type            nutkWallFunction;
        Cmu             0.09;
        kappa           0.41;
        E               9.8;
        value           nonuniform List<scalar> 
43
(
0.000245324
0.000256304
0.000265883
0.000279814
0.000265987
0.000243558
0.000227288
0.000212587
0.000199066
0.000186675
0.000175494
0.00016585
0.000157164
0.000149185
0.000141855
0.000135266
0.00012963
0.000125252
0.000122416
0.000121175
0.000121339
0.000122754
0.000123516
0.000118335
0.000122604
0.000131462
0.000133146
0.000132611
0.000132901
0.000134205
0.000136936
0.000142184
0.000149502
0.000158737
0.000169267
0.000180651
0.000184921
0.000180492
0.000167007
0.000154071
0.000366047
0.000433293
0.000276565
)
;
    }
    sWall
    {
        type            nutkWallFunction;
        Cmu             0.09;
        kappa           0.41;
        E               9.8;
        value           uniform 0.000245391;
    }
    nWall
    {
        type            nutkWallFunction;
        Cmu             0.09;
        kappa           0.41;
        E               9.8;
        value           nonuniform List<scalar> 6(0.000120516 0.00013026 0.000158279 0.000158135 0.000160977 0.000154084);
    }
    sideWalls
    {
        type            empty;
    }
    glass1
    {
        type            nutkWallFunction;
        Cmu             0.09;
        kappa           0.41;
        E               9.8;
        value           nonuniform List<scalar> 9(9.08963e-05 0.00014906 0.000198272 0.000244483 0.000287502 0.000328123 0.00036638 0.000375372 0.000366546);
    }
    glass2
    {
        type            nutkWallFunction;
        Cmu             0.09;
        kappa           0.41;
        E               9.8;
        value           nonuniform List<scalar> 2(0.000203144 0.000192231);
    }
    sun
    {
        type            nutkWallFunction;
        Cmu             0.09;
        kappa           0.41;
        E               9.8;
        value           nonuniform List<scalar> 
14
(
9.09134e-05
9.38215e-05
8.86146e-05
9.20306e-05
9.54199e-05
9.85271e-05
0.000101398
0.000104125
0.00010683
0.000109516
0.000111659
0.000113069
0.000113597
0.000113212
)
;
    }
    heatsource1
    {
        type            nutkWallFunction;
        Cmu             0.09;
        kappa           0.41;
        E               9.8;
        value           nonuniform List<scalar> 3(0.000117066 0.000104129 0.000120507);
    }
    heatsource2
    {
        type            nutkWallFunction;
        Cmu             0.09;
        kappa           0.41;
        E               9.8;
        value           nonuniform List<scalar> 4(0.000118664 8.12544e-05 8.12544e-05 0.000126779);
    }
    Table_master
    {
        type            nutkWallFunction;
        Cmu             0.09;
        kappa           0.41;
        E               9.8;
        value           nonuniform List<scalar> 9(8.05083e-05 6.59562e-05 5.72013e-05 5.11001e-05 4.62656e-05 4.20252e-05 3.79127e-05 3.40922e-05 4.25107e-05);
    }
    Table_slave
    {
        type            nutkWallFunction;
        Cmu             0.09;
        kappa           0.41;
        E               9.8;
        value           nonuniform List<scalar> 9(0.000103773 9.86532e-05 9.68268e-05 9.71804e-05 9.87778e-05 0.000100607 0.000101471 9.9958e-05 9.65746e-05);
    }
    inlet
    {
        type            calculated;
        value           uniform 0.000100623;
    }
    outlet
    {
        type            calculated;
        value           nonuniform List<scalar> 2(0.00211117 0.00221292);
    }
}


// ************************************************************************* //
