// -*- C++ -*-
// File generated by PyFoam - sorry for the ugliness

FoamFile
{
 version 2.0;
 format ascii;
 class volScalarField;
 location "400";
 object T;
}

dimensions [ 0 0 0 1 0 0 0 ];

internalField nonuniform List<scalar> 459
(
  302.506
  302.16
  302.149
  302.15
  302.15
  302.151
  302.15
  302.15
  302.15
  302.149
  302.146
  302.142
  302.136
  302.129
  302.122
  302
  301.985
  301.991
  301.999
  302.004
  301.999
  301.993
  301.987
  301.979
  301.957
  301.854
  301.657
  301.589
  301.59
  301.591
  301.586
  301.587
  301.599
  301.612
  302.747
  302.193
  302.162
  302.166
  302.172
  302.176
  302.18
  302.183
  302.185
  302.185
  302.182
  302.173
  302.159
  302.139
  302.114
  302.092
  302.03
  301.993
  301.982
  301.993
  302.005
  302.009
  301.999
  301.981
  301.964
  301.949
  301.929
  301.875
  301.809
  301.761
  301.724
  301.689
  301.657
  301.628
  301.63
  301.619
  302.978
  302.247
  302.187
  302.196
  302.209
  302.221
  302.231
  302.24
  302.245
  302.247
  302.243
  302.229
  302.206
  302.174
  302.136
  302.099
  302.072
  301.998
  302
  302.014
  302.024
  302.025
  302.011
  301.985
  301.946
  301.923
  301.905
  301.878
  301.851
  301.827
  301.805
  301.782
  301.764
  301.745
  301.715
  301.645
  303.194
  302.317
  302.217
  302.227
  302.248
  302.27
  302.29
  302.307
  302.319
  302.324
  302.32
  302.303
  302.271
  302.227
  302.177
  302.126
  302.079
  302.045
  302.019
  302.029
  302.041
  302.044
  302.038
  302.021
  302.005
  301.994
  301.989
  301.986
  301.984
  301.983
  301.98
  301.975
  301.969
  301.932
  301.884
  301.822
  301.69
  303.392
  302.403
  302.252
  302.254
  302.282
  302.313
  302.343
  302.372
  302.394
  302.407
  302.408
  302.389
  302.352
  302.301
  302.244
  302.188
  302.14
  302.104
  302.081
  302.072
  302.068
  302.062
  302.052
  302.033
  302.018
  302.01
  302.007
  302.006
  302.006
  302.006
  302.004
  301.998
  301.989
  301.968
  301.933
  301.875
  301.782
  301.82
  301.906
  301.932
  303.562
  302.508
  302.311
  302.281
  302.306
  302.342
  302.38
  302.418
  302.454
  302.48
  302.489
  302.473
  302.434
  302.377
  302.313
  302.251
  302.197
  302.154
  302.124
  302.103
  302.088
  302.076
  302.063
  302.042
  302.028
  302.022
  302.022
  302.024
  302.026
  302.027
  302.026
  302.02
  302.007
  301.989
  301.96
  301.915
  301.853
  301.838
  301.851
  301.884
  303.696
  302.68
  302.472
  302.368
  302.349
  302.369
  302.403
  302.441
  302.483
  302.527
  302.549
  302.537
  302.497
  302.439
  302.373
  302.308
  302.248
  302.198
  302.159
  302.128
  302.105
  302.087
  302.073
  302.05
  302.037
  302.034
  302.036
  302.041
  302.045
  302.048
  302.047
  302.041
  302.027
  302.006
  301.98
  301.946
  301.906
  301.885
  301.88
  301.903
  303.928
  303.157
  302.934
  302.727
  302.584
  302.512
  302.493
  302.504
  302.53
  302.572
  302.586
  302.568
  302.526
  302.469
  302.407
  302.343
  302.283
  302.23
  302.185
  302.148
  302.118
  302.095
  302.08
  302.056
  302.045
  302.044
  302.05
  302.056
  302.062
  302.066
  302.067
  302.063
  302.052
  302.027
  302.005
  301.982
  301.964
  301.961
  301.966
  302.123
  304.251
  303.923
  303.648
  303.373
  303.135
  302.955
  302.835
  302.761
  302.721
  302.682
  302.63
  302.57
  302.509
  302.448
  302.389
  302.334
  302.284
  302.237
  302.196
  302.159
  302.127
  302.101
  302.087
  302.062
  302.052
  302.055
  302.062
  302.07
  302.078
  302.083
  302.087
  302.09
  302.094
  302.1
  302.109
  302.13
  302.164
  302.2
  302.23
  302.303
  297.851
  300.543
  301.781
  302.217
  302.381
  302.442
  302.458
  302.452
  302.436
  302.409
  302.376
  302.341
  302.305
  302.271
  302.238
  302.207
  302.178
  302.151
  302.126
  302.104
  302.092
  302.069
  302.06
  302.065
  302.073
  302.082
  302.09
  302.099
  302.107
  302.115
  302.123
  302.131
  302.144
  302.163
  302.186
  302.209
  302.224
  302.235
  298.35
  300.499
  301.396
  301.83
  302.041
  302.14
  302.183
  302.196
  302.201
  302.2
  302.195
  302.187
  302.178
  302.168
  302.157
  302.147
  302.136
  302.125
  302.114
  302.103
  302.096
  302.078
  302.071
  302.077
  302.084
  302.091
  302.097
  302.104
  302.112
  302.12
  302.127
  302.136
  302.147
  302.162
  302.178
  302.195
  302.186
  302.216
  299.653
  299.599
  299.596
  300.907
  301.442
  301.801
  301.924
  301.984
  302.016
  302.032
  302.042
  302.051
  302.058
  302.065
  302.072
  302.078
  302.083
  302.088
  302.093
  302.098
  302.102
  302.105
  302.104
  302.101
  302.102
  302.107
  302.112
  302.116
  302.119
  302.122
  302.126
  302.129
  302.132
  302.137
  302.143
  302.155
  302.165
  302.17
  302.17
  302.205
)
;

boundaryField
{
  floor
  {
    type wallHeatTransfer;
    Tinf uniform 305.2;
    alphaWall uniform 0.24;
    value nonuniform List<scalar> 29
(
  302.49
  302.586
  302.504
  302.507
  302.505
  302.5
  302.513
  302.546
  302.583
  302.622
  302.663
  302.692
  302.734
  302.747
  302.708
  302.656
  302.61
  302.492
  302.247
  302.323
  302.323
  302.211
  302.163
  302.16
  302.49
  302.586
  302.477
  302.405
  302.361
)
;
  }
  ceiling
  {
    type wallHeatTransfer;
    Tinf uniform 303.2;
    alphaWall uniform 0.24;
    value nonuniform List<scalar> 43
(
  299.877
  299.818
  299.808
  301.036
  301.545
  301.89
  302.01
  302.071
  302.105
  302.125
  302.139
  302.152
  302.164
  302.176
  302.187
  302.197
  302.208
  302.217
  302.226
  302.233
  302.238
  302.242
  302.244
  302.234
  302.232
  302.235
  302.239
  302.242
  302.243
  302.244
  302.243
  302.241
  302.239
  302.238
  302.238
  302.244
  302.251
  302.258
  302.264
  302.302
  304.204
  303.895
  298.624
)
;
  }
  sWall
  {
    type wallHeatTransfer;
    Tinf uniform 315.2;
    alphaWall uniform 0.36;
    value uniform 301.088;
  }
  nWall
  {
    type wallHeatTransfer;
    Tinf uniform 307.2;
    alphaWall uniform 0.36;
    value nonuniform List<scalar> 6
(
  302.793
  302.706
  302.62
  302.899
  302.875
  302.9
)
;
  }
  sideWalls
  {
    type empty;
  }
  glass1
  {
    type wallHeatTransfer;
    Tinf uniform 315.2;
    alphaWall uniform 4.3;
    value nonuniform List<scalar> 9
(
  312.018
  311.033
  310.393
  309.909
  309.541
  309.246
  308.999
  309.055
  309.29
)
;
  }
  glass2
  {
    type wallHeatTransfer;
    Tinf uniform 307.2;
    alphaWall uniform 4.3;
    value nonuniform List<scalar> 2
(
  305.113
  305.268
)
;
  }
  sun
  {
    type wallHeatTransfer;
    Tinf uniform 305.2;
    alphaWall uniform 0.24;
    value nonuniform List<scalar> 14
(
  302.883
  302.575
  302.578
  302.568
  302.558
  302.549
  302.542
  302.534
  302.527
  302.52
  302.513
  302.506
  302.499
  302.493
)
;
  }
  heatsource1
  {
    type fixedGradient;
    gradient uniform 0;
  }
  heatsource2
  {
    type fixedGradient;
    gradient uniform 0;
  }
  Table_master
  {
    type zeroGradient;
  }
  Table_slave
  {
    type zeroGradient;
  }
  inlet
  {
    type fixedValue;
    value uniform 293.15;
  }
  outlet
  {
    type zeroGradient;
  }
} 	// ************************************************************************* //

