/*--------------------------------*- C++ -*----------------------------------*\
  =========                 |
  \\      /  F ield         | OpenFOAM: The Open Source CFD Toolbox
   \\    /   O peration     | Website:  https://openfoam.org
    \\  /    A nd           | Version:  6
     \\/     M anipulation  |
\*---------------------------------------------------------------------------*/
FoamFile
{
    version     2.0;
    format      ascii;
    class       surfaceScalarField;
    location    "700";
    object      phi;
}
// * * * * * * * * * * * * * * * * * * * * * * * * * * * * * * * * * * * * * //

dimensions      [1 0 -1 0 0 0 0];

internalField   nonuniform List<scalar> 
852
(
-0.00100248
0.00102891
0.00175671
-0.00275901
0.00349605
-0.00173915
0.0037706
-0.000274378
0.00310659
0.000664189
0.00179446
0.00131231
-0.000100734
0.00189548
-0.00127171
0.00117102
-0.00139246
0.000120752
-0.00133254
-5.99228e-05
-0.00123237
-0.000100166
-0.0010815
-0.000150861
-0.000848799
-0.000232684
-0.000506623
-0.000342157
-0.000509594
0.00016945
-0.00017201
0.000161773
7.72137e-06
0.000171049
-9.22592e-06
0.000194605
-2.35013e-05
0.000232329
-3.76717e-05
0.000272227
-3.98552e-05
0.00031152
-3.92583e-05
0.000346278
-3.47254e-05
0.000376776
-3.04635e-05
0.000403026
-2.62133e-05
0.000420533
-1.74658e-05
0.000426183
-5.60345e-06
0.000411446
1.47814e-05
0.000371266
4.02171e-05
0.000320098
5.11894e-05
0.000256068
6.40393e-05
0.000122101
0.000133987
-0.000144345
0.00026648
-0.000147038
0.00384136
-0.00274376
0.00505067
-0.00396814
0.00534818
-0.00203648
0.00499303
8.09556e-05
0.00407744
0.00157996
0.00278239
0.00260754
0.00144248
0.00323562
-0.000117634
0.00273121
-0.000955959
0.000959074
-0.00121326
0.00019738
-0.00129329
-2.01301e-05
-0.00128715
-0.000156993
-0.00121511
-0.000304693
-0.00106523
-0.000492013
-0.000857391
-0.000717398
1.55212e-05
-0.000872922
1.54967e-05
-0.000173706
-5.21348e-06
-0.000196763
3.08304e-05
-0.000253387
4.74441e-05
-0.000285551
8.70294e-06
-0.000295702
-2.74684e-05
-0.000290307
-4.52019e-05
-0.000276
-5.3523e-05
-0.000272071
-3.86131e-05
-0.000281013
-2.14799e-05
-0.000301898
-5.28827e-06
-0.00032956
1.02354e-05
-0.000359459
2.43331e-05
-0.000385929
4.1285e-05
-0.000406769
6.10795e-05
-0.000397619
4.20473e-05
-0.000278349
-5.52367e-05
-0.000154046
9.68056e-06
1.87263e-05
9.37261e-05
-0.000135234
0.00457754
-0.00721571
0.00548327
-0.00487368
0.00517934
-0.00173236
0.00458265
0.000677826
0.00371334
0.00244944
0.00260578
0.00371528
0.00145416
0.00438744
0.000317834
0.00386761
-0.000563547
0.00184035
-0.00100429
0.000638105
-0.00122202
0.000197608
-0.00132884
-5.01589e-05
-0.00137322
-0.000260291
-0.0013841
-0.000481106
-0.00138373
-0.000717728
-0.00129544
-0.00096116
-0.0012799
-0.000698028
0.000680898
-0.000799031
0.000131901
-0.000811762
6.02439e-05
-0.0008248
2.18105e-05
-0.000836271
-1.59195e-05
-0.000811803
-6.95945e-05
-0.000865133
-0.000903554
-0.000924841
-0.000929937
-0.000919512
-0.000894992
-0.000853524
-0.000792268
-0.000750053
-0.000450352
-0.000354921
-0.000142188
-0.000298478
8.42817e-05
-0.000132745
-6.15407e-05
0.00277049
-0.00984285
0.00326546
-0.00536845
0.00305358
-0.00152029
0.00276547
0.000966131
0.00225507
0.00296003
0.00153962
0.00443092
0.000761044
0.00516621
8.95868e-05
0.00453912
-0.000472373
0.00240213
-0.000865309
0.00103101
-0.00109797
0.000430268
-0.00124798
9.98712e-05
-0.00136071
-0.00014754
-0.00147542
-0.000366357
-0.00162269
-0.000570428
-0.00183936
-0.000744446
-0.00232677
-0.000792426
-0.00211594
-0.000224911
-0.00148532
5.03449e-05
-0.00134696
-6.38441e-06
-0.00132298
3.63468e-05
-0.00133833
3.72198e-05
-0.00137168
1.74839e-05
-0.00142954
-1.16944e-05
-0.00142278
-6.86823e-06
-0.00141053
-1.23545e-05
-0.00138746
-2.31784e-05
-0.00135325
-3.43227e-05
-0.00130431
-4.90452e-05
-0.00123445
-6.9967e-05
-0.00113471
-9.98534e-05
-0.000987844
-0.000146978
-0.000749658
-0.000238301
-0.000686024
-0.000418524
-0.000430357
-0.000554116
9.84177e-05
-0.000661494
2.16693e-05
0.00108104
-0.0107432
0.00127322
-0.00556043
0.00134883
-0.0015957
0.00111526
0.0011999
0.00072661
0.00334887
0.000303926
0.00485379
-7.36182e-05
0.00554391
-0.000307604
0.0047731
-0.000560576
0.00265496
-0.000785583
0.00125598
-0.00093314
0.000577828
-0.00103448
0.000201224
-0.00111701
-6.49885e-05
-0.00120062
-0.000282714
-0.0013055
-0.000465511
-0.00145992
-0.000589987
-0.00168397
-0.000568331
-0.0015671
-0.000341736
-0.00136785
-0.000148843
-0.00128238
-9.18018e-05
-0.00121087
-3.51044e-05
-0.00116441
-9.18822e-06
-0.00114163
-5.25823e-06
-0.00114136
-1.19248e-05
-0.00113239
-1.58022e-05
-0.00112228
-2.24291e-05
-0.00111251
-3.29096e-05
-0.00110026
-4.65275e-05
-0.00108389
-6.5384e-05
-0.00106165
-9.21655e-05
-0.00103115
-0.000130318
-0.000991061
-0.000187027
-0.000956155
-0.00027317
-0.000994607
-0.000380034
-0.00109238
-0.000456302
-0.00135146
-0.000402379
-0.00113782
-0.000191936
-0.00101503
-0.000122945
-0.000806637
-0.000208551
-0.000813213
4.88899e-05
-0.0105747
0.000218644
-0.00572998
0.000173994
-0.00155086
-0.000403663
0.00177775
-0.000667948
0.00361334
-0.000752804
0.00493882
-0.000721084
0.0055123
-0.000626556
0.00467852
-0.000642155
0.00267043
-0.000700578
0.00131437
-0.000744083
0.000621336
-0.000776238
0.000233396
-0.000811068
-3.01348e-05
-0.000858517
-0.000235237
-0.000930861
-0.000393137
-0.00103289
-0.000487923
-0.00112384
-0.000477351
-0.00109958
-0.000365963
-0.00100634
-0.000242038
-0.000933248
-0.000164858
-0.000867141
-0.000101174
-0.000816525
-5.97672e-05
-0.000783959
-3.77897e-05
-0.000767254
-2.85994e-05
-0.000757489
-2.55369e-05
-0.000751799
-2.80884e-05
-0.000748868
-3.5809e-05
-0.000746667
-4.86967e-05
-0.000743988
-6.80292e-05
-0.000740494
-9.56244e-05
-0.000737083
-0.000133692
-0.000738313
-0.000185758
-0.000757104
-0.000254339
-0.00080892
-0.000328177
-0.000893432
-0.000371748
-0.000956485
-0.000339282
-0.000874153
-0.000274224
-0.000688644
-0.000308409
-0.000452083
-0.000445065
-0.00127211
-0.000515724
-0.0098069
-0.000600119
-0.00564538
-0.0010467
-0.00110408
-0.00178859
0.00251982
-0.00178166
0.00360659
-0.00149077
0.00464808
-0.001102
0.00512361
-0.00075335
0.00432979
-0.000582136
0.00249911
-0.000509393
0.0012416
-0.000464844
0.000576792
-0.000432065
0.000200637
-0.000414246
-4.79265e-05
-0.000418138
-0.000231312
-0.000450069
-0.000361173
-0.000504154
-0.000433806
-0.000546378
-0.000435096
-0.000540546
-0.000371767
-0.000494629
-0.000287928
-0.000444907
-0.000214556
-0.000396039
-0.000150018
-0.000355243
-0.000100542
-0.000326364
-6.6648e-05
-0.000309407
-4.55372e-05
-0.000301338
-3.35872e-05
-0.000299814
-2.95934e-05
-0.000302714
-3.28876e-05
-0.000308098
-4.32908e-05
-0.000314633
-6.14691e-05
-0.000321728
-8.85006e-05
-0.000330267
-0.000125121
-0.000343931
-0.000172058
-0.00036881
-0.000229422
-0.000406833
-0.000290113
-0.000444636
-0.0003339
-0.000442185
-0.000341687
-0.000377724
-0.000338637
-0.000266095
-0.000419988
-5.75953e-05
-0.000653514
-0.00133701
-0.00225399
-0.00726971
-0.00318188
-0.00471728
-0.00302383
-0.00126194
-0.0031757
0.00267186
-0.0026336
0.00306466
-0.00189646
0.00391107
-0.00117441
0.00440162
-0.000614027
0.00376933
-0.000275978
0.00216098
-0.000112201
0.0010778
-1.64966e-05
0.000481096
5.51104e-05
0.000129055
0.000112288
-0.000105065
0.000144525
-0.000263505
0.000145821
-0.000362425
0.000121898
-0.000409845
9.52273e-05
-0.000408394
8.88415e-05
-0.000365356
0.00010341
-0.000302477
0.000126354
-0.000237485
0.000152727
-0.00017638
0.000177089
-0.000124895
0.000195643
-8.51947e-05
0.000206806
-5.66952e-05
0.000210708
-3.74849e-05
0.000207839
-2.67198e-05
0.000199679
-2.47212e-05
0.000187717
-3.13192e-05
0.000173186
-4.69246e-05
0.0001572
-7.24973e-05
0.000139506
-0.000107405
0.000117425
-0.000149947
8.81625e-05
-0.000200125
5.34916e-05
-0.000255402
2.77001e-05
-0.000308063
3.88689e-05
-0.000352806
0.000110441
-0.000410156
0.000238841
-0.000548335
0.000412586
-0.000827205
-0.00096413
-0.00698744
-0.0117249
-0.00765573
-0.00533092
-0.00480383
-0.000179867
-0.00317418
0.00143517
-0.00192693
0.00266395
-0.000907739
0.0033825
-0.000114348
0.0029759
0.00035019
0.00169639
0.000567653
0.000860336
0.0006852
0.000363576
0.000763592
5.07093e-05
0.000828334
-0.000169745
0.000861923
-0.000297029
0.000859775
-0.000360214
0.000829957
-0.000379974
0.00078916
-0.000367553
0.000754744
-0.000330908
0.000733086
-0.000280798
0.00072237
-0.000226758
0.000720159
-0.000174164
0.000722596
-0.000127334
0.000726131
-8.87361e-05
0.000728252
-5.88254e-05
0.00072691
-3.61529e-05
0.000719952
-1.97718e-05
0.000707772
-1.255e-05
0.000691057
-1.46106e-05
0.000670414
-2.62828e-05
0.000647228
-4.93077e-05
0.000621714
-8.18798e-05
0.000590723
-0.000118938
0.000552612
-0.000161987
0.000508198
-0.000210952
0.000462563
-0.000262386
0.000422908
-0.000313102
0.000388624
-0.000375818
0.000348487
-0.000508142
0.000322325
-0.000800987
-0.000687343
-0.00609838
0.00109487
-0.00473793
-0.0015401
-0.00297938
-0.000323189
-0.00145984
0.00114458
-0.000243227
0.002166
0.000749279
0.00198341
0.00127341
0.00117231
0.00153485
0.000598959
0.00167297
0.00022555
0.00174386
-2.00741e-05
0.00175975
-0.000185529
0.00172274
-0.000259906
0.00164959
-0.000286971
0.00155813
-0.000288424
0.00146405
-0.000273415
0.00137981
-0.000246616
0.00131153
-0.000212478
0.00125993
-0.000175145
0.00122343
-0.000137658
0.00119887
-0.000102776
0.00118272
-7.25956e-05
0.00117207
-4.81998e-05
0.0011646
-2.87075e-05
0.00115608
-1.12719e-05
0.00114487
-1.3642e-06
0.0011298
4.3495e-07
0.00111003
-6.5258e-06
0.00108493
-2.42166e-05
0.00105391
-5.08621e-05
0.00101339
-7.84197e-05
0.000962555
-0.000111131
0.000900903
-0.000149273
0.000828016
-0.000189463
0.000739572
-0.000224612
0.000608865
-0.000245058
0.00034409
-0.000243309
-0.000184162
-0.000272679
-0.000881184
-0.000361352
0.00142917
-0.00101156
-0.000889509
-0.00115131
-0.000183055
-0.000435459
0.000429033
0.000811297
0.000919446
0.00189196
0.000902918
0.00247376
0.000590682
0.00274727
0.000325645
0.00283171
0.000141301
0.00279292
1.89117e-05
0.00265067
-4.30899e-05
0.00247823
-8.72966e-05
0.00230692
-0.000115507
0.00214897
-0.00013035
0.00200922
-0.000133561
0.00188932
-0.00012663
0.0017889
-0.00011201
0.00170657
-9.27837e-05
0.00164074
-7.18054e-05
0.00158929
-5.13321e-05
0.00154945
-3.27681e-05
0.00151772
-1.64979e-05
0.00149203
-3.03779e-06
0.00147324
7.48274e-06
0.00145728
1.45615e-05
0.00143992
1.77602e-05
0.00141727
1.60945e-05
0.00138356
9.46945e-06
0.00133429
-1.59994e-06
0.00127345
-1.75851e-05
0.00120111
-3.87917e-05
0.00111718
-6.53163e-05
0.00102528
-9.75329e-05
0.000936253
-0.000135545
0.000874123
-0.000182878
0.000882334
-0.000251465
0.000890153
-0.00028044
8.38218e-08
0.00350553
0.000739864
0.00210892
0.00115179
0.000897751
0.00125567
0.00210291
0.00293254
0.00345002
0.00370347
0.00377415
0.00372435
0.00361485
0.00346329
0.00328514
0.00309321
0.0028987
0.00271145
0.002539
0.0023859
0.00225391
0.00214252
0.00204982
0.00197352
0.00191075
0.00185857
0.00181354
0.00177176
0.00172838
0.00167848
0.00161762
0.00154095
0.00144322
0.0013191
0.00116284
0.000968602
0.000726959
0.000416475
7.60787e-05
)
;

boundaryField
{
    floor
    {
        type            calculated;
        value           nonuniform List<scalar> 
29
(
0
0
0
0
0
0
0
0
0
0
0
0
0
0
0
0
0
0
0
0
2.73441e-06
6.95069e-06
1.06073e-05
1.52365e-05
2.99455e-06
2.60248e-06
6.95592e-06
1.19771e-05
1.41415e-05
)
;
    }
    ceiling
    {
        type            calculated;
        value           nonuniform List<scalar> 
43
(
0.000246174
0.000205848
6.06326e-05
6.8149e-05
7.16156e-05
7.17975e-05
7.27814e-05
7.37918e-05
7.36665e-05
7.26371e-05
7.10176e-05
6.90849e-05
6.67487e-05
6.45631e-05
6.2896e-05
6.17876e-05
6.11241e-05
6.07519e-05
6.05343e-05
6.03755e-05
6.02255e-05
6.00702e-05
5.99173e-05
5.97868e-05
5.97012e-05
5.9616e-05
5.95531e-05
5.94986e-05
5.94306e-05
5.93392e-05
5.92294e-05
5.90696e-05
5.89274e-05
5.88167e-05
5.87445e-05
5.87314e-05
5.88135e-05
5.90748e-05
6.00127e-05
6.57262e-05
2.47236e-05
2.04063e-05
2.73459e-05
)
;
    }
    sWall
    {
        type            calculated;
        value           uniform -1.00461e-05;
    }
    nWall
    {
        type            calculated;
        value           nonuniform List<scalar> 6(6.4228e-06 6.8575e-06 7.36173e-06 9.73513e-06 8.94201e-06 1.04873e-05);
    }
    sideWalls
    {
        type            empty;
        value           nonuniform 0();
    }
    glass1
    {
        type            calculated;
        value           nonuniform List<scalar> 9(-2.62465e-05 -6.85249e-05 -0.000105388 -0.000143151 -0.000180516 -0.000217145 -0.000251888 -0.000283003 -0.000306782);
    }
    glass2
    {
        type            calculated;
        value           nonuniform List<scalar> 2(3.97572e-05 4.55932e-05);
    }
    sun
    {
        type            calculated;
        value           uniform 0;
    }
    heatsource1
    {
        type            calculated;
        value           nonuniform List<scalar> 3(1.98307e-07 1.98374e-07 1.98537e-07);
    }
    heatsource2
    {
        type            calculated;
        value           nonuniform List<scalar> 4(4.96871e-08 4.9817e-08 0 0);
    }
    Table_master
    {
        type            calculated;
        value           nonuniform List<scalar> 9(-1.49444e-07 -1.49406e-07 -1.49368e-07 -1.49333e-07 -1.49299e-07 -1.49264e-07 -1.49228e-07 -1.49186e-07 -1.49112e-07);
    }
    Table_slave
    {
        type            calculated;
        value           nonuniform List<scalar> 9(1.48723e-07 1.48727e-07 1.4873e-07 1.48736e-07 1.48745e-07 1.48759e-07 1.48779e-07 1.48808e-07 1.48823e-07);
    }
    inlet
    {
        type            calculated;
        value           uniform -0.00032715;
    }
    outlet
    {
        type            calculated;
        value           nonuniform List<scalar> 2(-0.00374078 0.00256065);
    }
}


// ************************************************************************* //
