/*--------------------------------*- C++ -*----------------------------------*\
  =========                 |
  \\      /  F ield         | OpenFOAM: The Open Source CFD Toolbox
   \\    /   O peration     | Website:  https://openfoam.org
    \\  /    A nd           | Version:  6
     \\/     M anipulation  |
\*---------------------------------------------------------------------------*/
FoamFile
{
    version     2.0;
    format      ascii;
    class       volScalarField;
    location    "250";
    object      epsilon;
}
// * * * * * * * * * * * * * * * * * * * * * * * * * * * * * * * * * * * * * //

dimensions      [0 2 -3 0 0 0 0];

internalField   nonuniform List<scalar> 
459
(
0.000315928
0.000453796
0.000539078
0.000661015
0.00082215
0.000980895
0.00111059
0.00113269
0.00100319
0.000853581
0.000704338
0.000563039
0.000452059
0.00035184
0.000258001
5.07997e-05
0.000104285
0.000151766
0.000183559
0.000181687
0.00016752
0.000140294
0.000114652
9.42881e-05
7.8517e-05
6.62177e-05
5.64991e-05
4.86874e-05
4.2316e-05
3.68799e-05
3.19562e-05
2.71188e-05
2.10175e-05
1.53623e-05
0.000595384
0.000675858
0.000416011
0.000454045
0.000558774
0.000676054
0.000764125
0.000781683
0.000685435
0.000563886
0.000452771
0.000365478
0.000308206
0.000266432
0.000221976
0.000301024
0.000195514
0.000120652
0.000303596
0.000183988
0.000157103
0.000142704
0.000131238
0.000133406
0.000109639
8.72443e-05
6.94696e-05
5.57837e-05
4.52995e-05
3.71939e-05
3.08947e-05
2.60569e-05
2.33428e-05
2.43818e-05
2.05295e-05
2.17918e-05
0.000931951
0.00120013
0.000469544
0.000478099
0.000595921
0.000693074
0.000750038
0.00077348
0.000697908
0.000568925
0.000443658
0.000347042
0.000279786
0.000233493
0.000196575
0.000198513
0.000232112
0.000152569
0.000395408
0.000225995
0.000174311
0.000151055
0.000144503
0.000322042
0.000217281
0.000150351
0.000107444
7.93118e-05
6.03639e-05
4.733e-05
3.85811e-05
3.31405e-05
2.49951e-05
2.38297e-05
2.32137e-05
2.72423e-05
0.00136299
0.00214284
0.00065578
0.000576893
0.000707615
0.000758102
0.000795267
0.000825773
0.000754283
0.000603495
0.000451269
0.000337133
0.000260974
0.000211635
0.000178897
0.000167383
0.000179596
0.000249343
0.000223735
0.000186646
0.000171981
0.000166252
0.000158955
0.000160609
0.000433382
0.000328587
0.000258909
0.00020996
0.000171754
0.000139787
0.000111934
8.71253e-05
6.42768e-05
3.53178e-05
2.54634e-05
3.56585e-05
3.6917e-05
0.00192227
0.00356801
0.00110893
0.000836618
0.000922397
0.000887363
0.000916643
0.000949406
0.000862093
0.000666023
0.000466194
0.000323123
0.000236548
0.000188924
0.000164635
0.000157377
0.000174627
0.000198051
0.000190801
0.0001975
0.000206563
0.000207155
0.000195656
0.000177637
0.000175064
0.000164213
0.000153296
0.00014107
0.000125474
0.000107064
8.71693e-05
6.73619e-05
4.86994e-05
3.2296e-05
2.38359e-05
3.83843e-05
4.21784e-05
5.06592e-05
4.75078e-05
4.22606e-05
0.00262788
0.00525216
0.002164
0.00146522
0.00123018
0.0010948
0.00111421
0.0011438
0.00101984
0.000749191
0.000478821
0.00029851
0.000205506
0.00016854
0.000159805
0.000169489
0.000201573
0.000236232
0.000262704
0.000281539
0.0002857
0.000271086
0.000241162
0.000204456
0.000174323
0.000154435
0.000139693
0.00012442
0.000106767
8.76361e-05
6.86728e-05
5.16693e-05
3.76651e-05
2.82759e-05
2.31555e-05
3.1958e-05
4.31911e-05
4.58359e-05
9.75809e-05
7.14334e-05
0.00320365
0.0062877
0.00376954
0.0023046
0.00161981
0.00137888
0.00139606
0.00141537
0.0012236
0.000837053
0.000473996
0.000263468
0.000184769
0.00016967
0.000180344
0.000209225
0.000257707
0.000309814
0.000348753
0.000361302
0.000346764
0.000309178
0.000258714
0.000206674
0.00016456
0.000139831
0.000122394
0.000105792
8.8968e-05
7.29602e-05
5.90344e-05
4.80708e-05
3.97129e-05
3.57285e-05
3.41631e-05
3.81985e-05
4.8251e-05
5.4854e-05
0.000157767
0.000109079
0.00324892
0.00611674
0.00389419
0.002585
0.00189666
0.00170582
0.00177944
0.00177124
0.00145175
0.000886966
0.0004289
0.000264984
0.000220711
0.000221394
0.000244156
0.000284844
0.000343829
0.000396335
0.000422967
0.000411061
0.000364987
0.000302623
0.000240239
0.00018907
0.000153733
0.000131527
0.000115434
0.000101998
9.08856e-05
8.28313e-05
7.85802e-05
7.86598e-05
8.27069e-05
9.06268e-05
0.000105867
0.000123488
0.000159585
0.000208432
0.00116559
0.00015685
0.00297076
0.00437173
0.00320437
0.00227782
0.00193773
0.00207928
0.00230526
0.00217669
0.00159172
0.00080375
0.000469055
0.00036879
0.000348344
0.000358311
0.000384552
0.00042199
0.000463154
0.000488398
0.000482447
0.000445062
0.000387107
0.000326217
0.000273786
0.000234726
0.000208458
0.00019107
0.000178469
0.000168184
0.000158881
0.00014998
0.000142208
0.000138376
0.000143635
0.000162825
0.000199016
0.000255412
0.000336047
0.00044339
0.000566765
0.000294959
0.000311832
0.00114335
0.00234088
0.00312424
0.00308322
0.00200485
0.00114959
0.000811552
0.000714354
0.000696322
0.000702782
0.000716981
0.00073424
0.000750558
0.000759153
0.000751625
0.000726349
0.000689547
0.000650269
0.000616117
0.000590759
0.00057476
0.000566896
0.000564854
0.000565573
0.000564743
0.000556476
0.000534182
0.000493242
0.000435106
0.00037083
0.000319782
0.000301511
0.000326165
0.000388536
0.000474829
0.000578181
0.000678391
0.00455612
0.00943584
0.0082712
0.00585361
0.00375975
0.00235763
0.00173588
0.00153327
0.00150248
0.00151652
0.00153501
0.00155135
0.00157054
0.00159736
0.00163142
0.00166646
0.00169336
0.00170724
0.00170969
0.00170731
0.00170725
0.00171528
0.00173557
0.00177005
0.0018172
0.0018705
0.00191662
0.0019347
0.00189851
0.00178401
0.00158313
0.00131775
0.00104036
0.000810275
0.000654971
0.000597497
0.00132049
0.00102347
0.00179789
0.00227381
0.002905
0.00355502
0.00305986
0.00255969
0.00211553
0.00175678
0.00152396
0.00140528
0.00135451
0.00133872
0.00134076
0.00135191
0.00136594
0.0013769
0.00137921
0.00136955
0.00134918
0.00132306
0.00129691
0.00127492
0.00125906
0.00124959
0.00124546
0.00124458
0.00124387
0.00123911
0.00122521
0.00119687
0.00115007
0.00108374
0.00100116
0.000909725
0.000818077
0.00073104
0.000645204
0.000578819
0.00062436
0.000575469
)
;

boundaryField
{
    floor
    {
        Cmu             0.09;
        kappa           0.41;
        E               9.8;
        type            epsilonWallFunction;
        value           nonuniform List<scalar> 
29
(
0.000258001
5.07997e-05
0.000104285
0.000151766
0.000183559
0.000181687
0.00016752
0.000140294
0.000114652
9.42881e-05
7.8517e-05
6.62177e-05
5.64991e-05
4.86874e-05
4.2316e-05
3.68799e-05
3.19562e-05
2.71188e-05
2.10175e-05
1.53623e-05
1.53623e-05
2.17918e-05
2.72423e-05
3.6917e-05
0.000258001
5.07997e-05
0.000120652
0.000152569
0.000249343
)
;
    }
    ceiling
    {
        Cmu             0.09;
        kappa           0.41;
        E               9.8;
        type            epsilonWallFunction;
        value           nonuniform List<scalar> 
43
(
0.00179789
0.00227381
0.002905
0.00355502
0.00305986
0.00255969
0.00211553
0.00175678
0.00152396
0.00140528
0.00135451
0.00133872
0.00134076
0.00135191
0.00136594
0.0013769
0.00137921
0.00136955
0.00134918
0.00132306
0.00129691
0.00127492
0.00125906
0.00124959
0.00124546
0.00124458
0.00124387
0.00123911
0.00122521
0.00119687
0.00115007
0.00108374
0.00100116
0.000909725
0.000818077
0.00073104
0.000645204
0.000578819
0.00062436
0.000575469
0.00297076
0.00437173
0.00455612
)
;
    }
    sWall
    {
        Cmu             0.09;
        kappa           0.41;
        E               9.8;
        type            epsilonWallFunction;
        value           uniform 0.00179789;
    }
    nWall
    {
        Cmu             0.09;
        kappa           0.41;
        E               9.8;
        type            epsilonWallFunction;
        value           nonuniform List<scalar> 6(4.22606e-05 7.14334e-05 0.000109079 0.000678391 0.00102347 0.000575469);
    }
    sideWalls
    {
        type            empty;
    }
    glass1
    {
        Cmu             0.09;
        kappa           0.41;
        E               9.8;
        type            epsilonWallFunction;
        value           nonuniform List<scalar> 9(0.000315928 0.000595384 0.000931951 0.00136299 0.00192227 0.00262788 0.00320365 0.00324892 0.00297076);
    }
    glass2
    {
        Cmu             0.09;
        kappa           0.41;
        E               9.8;
        type            epsilonWallFunction;
        value           nonuniform List<scalar> 2(0.00015685 0.000294959);
    }
    sun
    {
        Cmu             0.09;
        kappa           0.41;
        E               9.8;
        type            epsilonWallFunction;
        value           nonuniform List<scalar> 
14
(
0.000315928
0.000453796
0.000539078
0.000661015
0.00082215
0.000980895
0.00111059
0.00113269
0.00100319
0.000853581
0.000704338
0.000563039
0.000452059
0.00035184
)
;
    }
    heatsource1
    {
        Cmu             0.09;
        kappa           0.41;
        E               9.8;
        type            epsilonWallFunction;
        value           nonuniform List<scalar> 3(5.06592e-05 4.75078e-05 4.22606e-05);
    }
    heatsource2
    {
        Cmu             0.09;
        kappa           0.41;
        E               9.8;
        type            epsilonWallFunction;
        value           nonuniform List<scalar> 4(0.000301024 0.000195514 0.000195514 0.000232112);
    }
    Table_master
    {
        Cmu             0.09;
        kappa           0.41;
        E               9.8;
        type            epsilonWallFunction;
        value           nonuniform List<scalar> 9(0.000322042 0.000217281 0.000150351 0.000107444 7.93118e-05 6.03639e-05 4.733e-05 3.85811e-05 3.31405e-05);
    }
    Table_slave
    {
        Cmu             0.09;
        kappa           0.41;
        E               9.8;
        type            epsilonWallFunction;
        value           nonuniform List<scalar> 9(0.000433382 0.000328587 0.000258909 0.00020996 0.000171754 0.000139787 0.000111934 8.71253e-05 6.42768e-05);
    }
    inlet
    {
        type            turbulentMixingLengthDissipationRateInlet;
        mixingLength    0.01;
        phi             phi;
        k               k;
        value           uniform 0.000101881;
    }
    outlet
    {
        type            zeroGradient;
    }
}


// ************************************************************************* //
