/*--------------------------------*- C++ -*----------------------------------*\
  =========                 |
  \\      /  F ield         | OpenFOAM: The Open Source CFD Toolbox
   \\    /   O peration     | Website:  https://openfoam.org
    \\  /    A nd           | Version:  6
     \\/     M anipulation  |
\*---------------------------------------------------------------------------*/
FoamFile
{
    version     2.0;
    format      ascii;
    class       volScalarField;
    location    "700";
    object      nut;
}
// * * * * * * * * * * * * * * * * * * * * * * * * * * * * * * * * * * * * * //

dimensions      [0 2 -1 0 0 0 0];

internalField   nonuniform List<scalar> 
459
(
0.00126787
0.00140263
0.00144888
0.00152981
0.00161213
0.00169963
0.00176686
0.00180335
0.00180122
0.0017521
0.0016048
0.00147058
0.00131442
0.00116572
0.00101205
0.000574451
0.000672335
0.000790172
0.000864451
0.000877796
0.000858258
0.000805363
0.000748458
0.000697179
0.000652534
0.000613776
0.000580032
0.000550361
0.000524046
0.000500145
0.000477322
0.000453658
0.000429013
0.000388322
0.00166238
0.00436312
0.00432147
0.00501605
0.00567547
0.00614023
0.00655266
0.00688382
0.00711259
0.00720002
0.00702684
0.00658243
0.00593652
0.00469026
0.00307093
0.0011889
0.000978423
0.00056054
0.00143513
0.00233425
0.0030859
0.00353331
0.00346308
0.00239381
0.00196863
0.00169686
0.00150226
0.00135569
0.00124149
0.00115129
0.00107
0.000981988
0.000895629
0.000817201
0.000839178
0.000440194
0.00198511
0.0059536
0.00537112
0.00612974
0.00649874
0.00675963
0.0070227
0.00732343
0.00767233
0.00798887
0.00809668
0.00795045
0.00756782
0.00675466
0.00538148
0.00340604
0.00114161
0.000679461
0.00146721
0.00250747
0.00362707
0.00440877
0.00419015
0.00109213
0.000948465
0.000832489
0.000739766
0.000665302
0.000604977
0.000555713
0.000516297
0.000487592
0.000554196
0.000665259
0.000951259
0.000473682
0.00229021
0.00741211
0.00564965
0.0063886
0.0064928
0.00656297
0.00667293
0.00693106
0.00735749
0.00779247
0.00805293
0.00809421
0.00793225
0.00751621
0.00666069
0.00521149
0.00277993
0.00126614
0.00151308
0.0023266
0.00358801
0.00486512
0.00570708
0.00529531
0.00124163
0.00112358
0.00103155
0.000956621
0.000890088
0.000826957
0.000764012
0.00069856
0.000625591
0.000575041
0.000635426
0.0010693
0.000498943
0.00259872
0.00922432
0.00642796
0.00674097
0.0066989
0.00654772
0.00647874
0.00670359
0.00714983
0.00762175
0.00793133
0.0080098
0.00790708
0.00766871
0.00723304
0.0064713
0.00525122
0.00469527
0.00520783
0.00602289
0.00689754
0.00757531
0.00789677
0.00764243
0.00617433
0.0053622
0.00480893
0.00426557
0.0037148
0.00315033
0.00257315
0.00199704
0.00144699
0.00100095
0.000810502
0.00102716
0.000606219
0.000569723
0.000687062
0.000773603
0.00292216
0.0112174
0.00856029
0.00776118
0.00726424
0.00672656
0.00648971
0.00667537
0.00715489
0.00766887
0.00798761
0.00804348
0.00794282
0.00783233
0.00779751
0.0077233
0.00756516
0.00782201
0.00855882
0.00917812
0.00957276
0.00969431
0.00953839
0.00908603
0.00827407
0.00745946
0.00666002
0.00587942
0.00510879
0.00433663
0.00355567
0.00278532
0.00206487
0.00146943
0.00114379
0.00108252
0.000819622
0.000726517
0.00105013
0.000809127
0.00319052
0.012477
0.0111527
0.00922766
0.00777362
0.00680503
0.0064974
0.0067626
0.00735326
0.00793734
0.00825984
0.00829746
0.00829066
0.0085349
0.00898092
0.00938057
0.0097422
0.0102675
0.010816
0.0110544
0.0110032
0.0107014
0.0101941
0.00951494
0.00867739
0.00780832
0.00696382
0.00616061
0.00539279
0.00464894
0.00390326
0.00320122
0.00255806
0.00199755
0.00163715
0.00142957
0.00121885
0.00118072
0.0012133
0.000937644
0.00323114
0.0103954
0.00961112
0.00802458
0.0067681
0.0061952
0.00631727
0.00695628
0.00778652
0.00844122
0.00872085
0.00877148
0.00916162
0.00992834
0.010438
0.0108099
0.0111506
0.0114859
0.0116706
0.0115499
0.0111423
0.0105158
0.00972955
0.00883581
0.00789498
0.00698375
0.00613384
0.00535785
0.00466665
0.00407022
0.00356977
0.00316078
0.00281975
0.0024969
0.00231363
0.00230033
0.00246837
0.00289869
0.00363612
0.0014321
0.00313818
0.0036692
0.00386511
0.00392623
0.00428613
0.00514627
0.00636764
0.00766728
0.00867887
0.00912885
0.00917059
0.00958917
0.0102118
0.0107109
0.0109884
0.0111677
0.011296
0.0113134
0.0111206
0.0106655
0.00997759
0.00912116
0.00816054
0.00715293
0.00615065
0.00519246
0.00430516
0.00353294
0.00293146
0.00252451
0.00228364
0.00215608
0.00209781
0.00208415
0.00209968
0.00212578
0.00211916
0.00204113
0.00191172
0.00134079
0.00109363
0.00300446
0.00621799
0.0083796
0.00958368
0.0100835
0.0100432
0.00956863
0.00935115
0.00960085
0.00991057
0.0100445
0.010079
0.010062
0.00995155
0.00967168
0.00917391
0.00846758
0.00761438
0.00669675
0.0057895
0.00494593
0.00419532
0.00355089
0.00302363
0.00262304
0.00234598
0.00217433
0.00208492
0.00205784
0.00207698
0.00212674
0.00218717
0.00223003
0.00222425
0.00216815
0.00199667
0.00114319
0.0020909
0.00769063
0.00945985
0.00963494
0.0092264
0.00859006
0.00800424
0.00762166
0.00743804
0.007345
0.00725121
0.00716884
0.00710099
0.00700675
0.00682881
0.00652226
0.00608065
0.00554258
0.0049738
0.00443686
0.00396967
0.00358349
0.0032728
0.00302556
0.00282831
0.00266774
0.00253262
0.00241768
0.00232597
0.00226646
0.00224651
0.00226275
0.00229687
0.00232698
0.00228356
0.00232156
0.00232556
0.00117488
0.00191887
0.00201413
0.00208213
0.0022393
0.00202315
0.0018612
0.00173431
0.0016031
0.00147747
0.00137381
0.00130146
0.00125523
0.0012255
0.00120427
0.00118528
0.00116367
0.00113623
0.00110209
0.00106304
0.00102255
0.000984124
0.000950026
0.000921
0.000896709
0.000876422
0.000859581
0.00084614
0.000836699
0.000832518
0.000835354
0.000847098
0.000869408
0.000903453
0.000949409
0.00100581
0.00107017
0.00107923
0.00102612
0.000972768
0.000935947
)
;

boundaryField
{
    floor
    {
        type            nutkWallFunction;
        Cmu             0.09;
        kappa           0.41;
        E               9.8;
        value           nonuniform List<scalar> 
29
(
0.000122145
6.91505e-05
8.13303e-05
9.57149e-05
0.000104651
0.000106248
0.000103911
9.75525e-05
9.06564e-05
8.43886e-05
7.88866e-05
7.40735e-05
6.98528e-05
6.61169e-05
6.27826e-05
5.97363e-05
5.68104e-05
5.37582e-05
5.05576e-05
4.52216e-05
4.52215e-05
5.20093e-05
5.63365e-05
5.9575e-05
0.000122145
6.91505e-05
6.73992e-05
8.21937e-05
0.000151594
)
;
    }
    ceiling
    {
        type            nutkWallFunction;
        Cmu             0.09;
        kappa           0.41;
        E               9.8;
        value           nonuniform List<scalar> 
43
(
0.000224561
0.000234874
0.000242246
0.000259326
0.000235963
0.000218268
0.000204285
0.000189705
0.000175622
0.000163906
0.000155671
0.000150383
0.000146972
0.00014453
0.000142341
0.000139845
0.000136667
0.0001327
0.000128146
0.000123403
0.000118881
0.000114852
0.000111408
0.000108517
0.000106095
0.000104079
0.000102466
0.000101331
0.000100826
0.000101164
0.000102571
0.00010524
0.0001093
0.000114753
0.000121404
0.000128944
0.000130001
0.000123785
0.000117506
0.00011316
0.000354474
0.000409225
0.000242993
)
;
    }
    sWall
    {
        type            nutkWallFunction;
        Cmu             0.09;
        kappa           0.41;
        E               9.8;
        value           uniform 0.000224618;
    }
    nWall
    {
        type            nutkWallFunction;
        Cmu             0.09;
        kappa           0.41;
        E               9.8;
        value           nonuniform List<scalar> 6(9.36962e-05 9.79927e-05 0.000113356 0.000137454 0.000141123 0.000113164);
    }
    sideWalls
    {
        type            empty;
    }
    glass1
    {
        type            nutkWallFunction;
        Cmu             0.09;
        kappa           0.41;
        E               9.8;
        value           nonuniform List<scalar> 9(0.000151972 0.000196558 0.000232153 0.000265231 0.000298203 0.000332333 0.000360353 0.000364584 0.000354936);
    }
    glass2
    {
        type            nutkWallFunction;
        Cmu             0.09;
        kappa           0.41;
        E               9.8;
        value           nonuniform List<scalar> 2(0.000170548 0.000160188);
    }
    sun
    {
        type            nutkWallFunction;
        Cmu             0.09;
        kappa           0.41;
        E               9.8;
        value           nonuniform List<scalar> 
14
(
0.000151805
0.000167146
0.000172376
0.000181481
0.000190688
0.000200419
0.000207857
0.00021188
0.000211643
0.000206212
0.000189863
0.000174817
0.000157119
0.000140049
)
;
    }
    heatsource1
    {
        type            nutkWallFunction;
        Cmu             0.09;
        kappa           0.41;
        E               9.8;
        value           nonuniform List<scalar> 3(6.85452e-05 8.3131e-05 9.36965e-05);
    }
    heatsource2
    {
        type            nutkWallFunction;
        Cmu             0.09;
        kappa           0.41;
        E               9.8;
        value           nonuniform List<scalar> 4(0.000142718 0.000118182 0.000118182 0.000137248);
    }
    Table_master
    {
        type            nutkWallFunction;
        Cmu             0.09;
        kappa           0.41;
        E               9.8;
        value           nonuniform List<scalar> 9(0.000131516 0.000114649 0.000100817 8.95968e-05 8.04649e-05 7.29771e-05 6.6795e-05 6.18003e-05 5.81335e-05);
    }
    Table_slave
    {
        type            nutkWallFunction;
        Cmu             0.09;
        kappa           0.41;
        E               9.8;
        value           nonuniform List<scalar> 9(0.000148805 0.000135176 0.000124439 0.000115616 0.000107714 0.000100153 9.25455e-05 8.45559e-05 7.55421e-05);
    }
    inlet
    {
        type            calculated;
        value           uniform 0.000100623;
    }
    outlet
    {
        type            calculated;
        value           nonuniform List<scalar> 2(0.00191887 0.00201413);
    }
}


// ************************************************************************* //
