// -*- C++ -*-
// File generated by PyFoam - sorry for the ugliness

FoamFile
{
 version 2.0;
 format ascii;
 class volVectorField;
 location "100";
 object U;
}

dimensions [ 0 1 -1 0 0 0 0 ];

internalField nonuniform List<vector> 459
(
  (0.0407118 0.0629712 0)
  (0.0141412 -0.129617 0)
  (0.107453 -0.0879192 0)
  (0.156163 -0.0339728 0)
  (0.165883 0.00461002 0)
  (0.129387 0.0369928 0)
  (0.0400297 0.0670328 0)
  (-0.0994488 0.0180266 0)
  (-0.0863817 -0.0137776 0)
  (-0.0675285 -0.0189332 0)
  (-0.049101 -0.0171052 0)
  (-0.0312094 -0.012547 0)
  (-0.0142869 -0.00756287 0)
  (-0.0050365 -0.00454523 0)
  (-0.0689669 -0.00703314 0)
  (0.0219871 0.00853288 0)
  (-0.0251503 -0.00766236 0)
  (-0.0131918 -0.0124671 0)
  (0.0051723 -0.014881 0)
  (0.0207297 -0.0160443 0)
  (0.0335202 -0.0109475 0)
  (0.0416762 -0.00431654 0)
  (0.0386917 -0.00126916 0)
  (0.0329885 0.000112739 0)
  (0.0284101 0.000611837 0)
  (0.0253153 0.000536861 0)
  (0.0233624 0.000158408 0)
  (0.0223177 -0.000312743 0)
  (0.0220256 -0.000726053 0)
  (0.0221802 -0.000927152 0)
  (0.0227101 -0.00121526 0)
  (0.0240522 -0.00210101 0)
  (0.0340647 -0.00230466 0)
  (-0.0271151 0.0166439 0)
  (0.399483 0.0747463 0)
  (0.209579 -0.123148 0)
  (0.235619 -0.0904123 0)
  (0.260494 -0.00518662 0)
  (0.237104 0.0614363 0)
  (0.177954 0.106065 0)
  (0.102134 0.134442 0)
  (0.00201518 0.103071 0)
  (-0.0481696 0.00634769 0)
  (-0.0530606 -0.0233958 0)
  (-0.0484914 -0.0258842 0)
  (-0.0398677 -0.0220193 0)
  (-0.0283576 -0.0179172 0)
  (-0.0148651 -0.0151135 0)
  (-0.00710048 -0.0171544 0)
  (0.00931077 -0.0168459 0)
  (0.0163877 0.00180564 0)
  (0.104163 0.0214237 0)
  (-0.00269116 0.00670495 0)
  (-0.0136384 -0.00777494 0)
  (-0.0102638 -0.0165681 0)
  (-0.00350637 -0.0235231 0)
  (0.00348241 -0.0186195 0)
  (0.0214479 0.00100914 0)
  (0.0180377 0.00471867 0)
  (0.0151488 0.00585124 0)
  (0.0144833 0.00555279 0)
  (0.0148139 0.00456716 0)
  (0.0153217 0.00344574 0)
  (0.0157756 0.0024398 0)
  (0.0161628 0.00160428 0)
  (0.016107 0.00114749 0)
  (0.0156459 1.03112e-05 0)
  (0.0147941 -0.00279879 0)
  (0.0367273 -0.00357743 0)
  (-0.0882578 0.0343045 0)
  (0.640494 -0.293789 0)
  (0.247101 -0.258033 0)
  (0.271685 -0.134948 0)
  (0.288749 -0.0106003 0)
  (0.240825 0.0928387 0)
  (0.170988 0.16381 0)
  (0.102374 0.201081 0)
  (0.0259214 0.1717 0)
  (-0.0265694 0.0523591 0)
  (-0.0427447 -0.0147249 0)
  (-0.0523577 -0.0261584 0)
  (-0.0545367 -0.0263558 0)
  (-0.0520291 -0.0263839 0)
  (-0.0463466 -0.0278092 0)
  (-0.0397486 -0.0293166 0)
  (-0.0323448 -0.0265236 0)
  (-0.0168186 -0.0187947 0)
  (0.0662902 0.0287077 0)
  (-0.0413194 0.0120448 0)
  (-0.0386789 -0.00172186 0)
  (-0.039673 -0.0183352 0)
  (-0.0394975 -0.0324884 0)
  (-0.0421312 -0.0399786 0)
  (0.0151602 -0.00416444 0)
  (-0.00188536 -0.00109649 0)
  (-0.0017885 -0.000647136 0)
  (0.00149313 -0.00155859 0)
  (0.00470935 -0.00271366 0)
  (0.00674423 -0.0037617 0)
  (0.00755001 -0.00461316 0)
  (0.00736145 -0.00510872 0)
  (0.00498917 -0.002636 0)
  (0.0104353 0.00126424 0)
  (0.00633704 -0.00148134 0)
  (0.0489484 -0.00434191 0)
  (-0.147718 0.0472468 0)
  (0.679444 -0.473929 0)
  (0.0464393 -0.283898 0)
  (0.15009 -0.0872503 0)
  (0.179793 0.0570568 0)
  (0.147269 0.156985 0)
  (0.0975505 0.226686 0)
  (0.0515287 0.260796 0)
  (0.00176153 0.219113 0)
  (-0.032593 0.0809025 0)
  (-0.0469117 0.00600418 0)
  (-0.063953 -0.0156605 0)
  (-0.0750323 -0.0204906 0)
  (-0.081957 -0.0229637 0)
  (-0.086752 -0.0240654 0)
  (-0.0910776 -0.020934 0)
  (-0.0961691 -0.00832173 0)
  (-0.102158 0.0186839 0)
  (-0.100672 0.0595834 0)
  (-0.0694601 0.0297167 0)
  (-0.0821327 0.0166658 0)
  (-0.0749843 -0.000592107 0)
  (-0.0754979 -0.0181088 0)
  (-0.0810541 -0.0321592 0)
  (-0.0883269 -0.0379943 0)
  (-0.0799244 -0.0266197 0)
  (-0.0522082 -0.0257929 0)
  (-0.0245007 -0.0277868 0)
  (0.0106204 -0.0260499 0)
  (0.0370319 -0.0223677 0)
  (0.0613808 -0.0190841 0)
  (0.0823785 -0.0151582 0)
  (0.097445 -0.0097318 0)
  (0.103716 -0.00341872 0)
  (0.0961686 0.00498813 0)
  (0.0729531 0.0159188 0)
  (0.0761211 0.0251559 0)
  (-0.172508 0.0576336 0)
  (0.693562 -0.569081 0)
  (-0.158376 -0.283075 0)
  (0.0713083 -0.054185 0)
  (0.0812987 0.0813904 0)
  (0.0476481 0.189041 0)
  (0.0141362 0.267831 0)
  (-0.0107542 0.297804 0)
  (-0.0329191 0.239255 0)
  (-0.0468324 0.100553 0)
  (-0.0572626 0.0250017 0)
  (-0.0727688 -0.000873782 0)
  (-0.0845667 -0.0108839 0)
  (-0.0936104 -0.0170338 0)
  (-0.101191 -0.0218187 0)
  (-0.107829 -0.0246383 0)
  (-0.112677 -0.0239094 0)
  (-0.114212 -0.0174252 0)
  (-0.112292 -0.00308422 0)
  (-0.102722 0.0126244 0)
  (-0.0942192 0.0107016 0)
  (-0.0858923 -0.0026303 0)
  (-0.0823962 -0.0172107 0)
  (-0.0824233 -0.029711 0)
  (-0.0813063 -0.0363687 0)
  (-0.072462 -0.0352745 0)
  (-0.0551973 -0.0391098 0)
  (-0.0341161 -0.0438648 0)
  (-0.00982549 -0.0448574 0)
  (0.0169039 -0.0401278 0)
  (0.0395475 -0.034718 0)
  (0.0599953 -0.0273439 0)
  (0.0768673 -0.0155688 0)
  (0.0881616 0.00114991 0)
  (0.089185 0.0190706 0)
  (0.0778918 0.0373568 0)
  (0.0856554 0.0562047 0)
  (-0.00615946 0.071372 0)
  (0.0584104 0.0366562 0)
  (-0.0445848 -0.0228495 0)
  (-0.288432 -0.049381 0)
  (0.662529 -0.594233 0)
  (-0.256085 -0.290986 0)
  (0.0517472 -0.0554851 0)
  (-0.0104421 0.109622 0)
  (-0.0402863 0.214212 0)
  (-0.0557509 0.287008 0)
  (-0.0599393 0.306702 0)
  (-0.0600586 0.24008 0)
  (-0.0585303 0.10955 0)
  (-0.0621555 0.0382741 0)
  (-0.0707212 0.0114751 0)
  (-0.0782364 -0.000679114 0)
  (-0.0843628 -0.00798926 0)
  (-0.0897172 -0.0125557 0)
  (-0.0947045 -0.0143361 0)
  (-0.0986896 -0.012979 0)
  (-0.100276 -0.00897131 0)
  (-0.0983887 -0.00369244 0)
  (-0.0925985 0.00181453 0)
  (-0.08442 0.000282133 0)
  (-0.0779747 -0.00853077 0)
  (-0.0753412 -0.0200727 0)
  (-0.0750084 -0.0315242 0)
  (-0.0737089 -0.0405884 0)
  (-0.0680343 -0.047474 0)
  (-0.0572864 -0.0556422 0)
  (-0.0426997 -0.0632673 0)
  (-0.0251555 -0.066677 0)
  (-0.00492478 -0.0632991 0)
  (0.0147563 -0.0568091 0)
  (0.0327229 -0.0481326 0)
  (0.0500777 -0.0334513 0)
  (0.0663881 -0.0101504 0)
  (0.0780768 0.0177366 0)
  (0.0796023 0.0432793 0)
  (0.0921442 0.067191 0)
  (0.0748144 0.0758984 0)
  (0.104095 0.0623162 0)
  (0.120975 0.0468602 0)
  (-0.111907 0.00983846 0)
  (0.556259 -0.559721 0)
  (-0.233257 -0.297299 0)
  (0.00532654 -0.0396494 0)
  (-0.0819401 0.146467 0)
  (-0.106084 0.226183 0)
  (-0.103817 0.285573 0)
  (-0.0901311 0.29592 0)
  (-0.0738628 0.226969 0)
  (-0.0614379 0.108355 0)
  (-0.0586901 0.0431331 0)
  (-0.0605408 0.0165733 0)
  (-0.0627328 0.00355335 0)
  (-0.0648159 -0.00464003 0)
  (-0.0667495 -0.00994537 0)
  (-0.0687127 -0.0124719 0)
  (-0.0702019 -0.0121557 0)
  (-0.070366 -0.00952137 0)
  (-0.0684073 -0.00606018 0)
  (-0.064325 -0.00376797 0)
  (-0.0596727 -0.00542068 0)
  (-0.0567387 -0.0114688 0)
  (-0.0565993 -0.0205364 0)
  (-0.0585059 -0.031038 0)
  (-0.0603803 -0.0418385 0)
  (-0.0600361 -0.0531881 0)
  (-0.0564018 -0.0656093 0)
  (-0.0491158 -0.0769397 0)
  (-0.0383342 -0.0831553 0)
  (-0.0252509 -0.0807398 0)
  (-0.0131926 -0.0741642 0)
  (-0.00180359 -0.066254 0)
  (0.011057 -0.053198 0)
  (0.0267571 -0.0308087 0)
  (0.0508343 0.00394886 0)
  (0.0645013 0.0343581 0)
  (0.0819216 0.0571925 0)
  (0.0952085 0.0616158 0)
  (0.122342 0.0471738 0)
  (0.16188 0.0479404 0)
  (-0.0343048 0.105065 0)
  (0.365027 -0.44607 0)
  (-0.275234 -0.247452 0)
  (-0.120402 -0.0508203 0)
  (-0.131936 0.183192 0)
  (-0.157996 0.221957 0)
  (-0.1313 0.265923 0)
  (-0.099983 0.270246 0)
  (-0.0709614 0.204469 0)
  (-0.0502278 0.0993756 0)
  (-0.0422776 0.0410543 0)
  (-0.0397595 0.0161626 0)
  (-0.0381609 0.00351996 0)
  (-0.0363955 -0.0043483 0)
  (-0.0356162 -0.00938575 0)
  (-0.0353583 -0.0119139 0)
  (-0.035144 -0.0121973 0)
  (-0.0343291 -0.0107283 0)
  (-0.0324005 -0.00849048 0)
  (-0.0294579 -0.00698074 0)
  (-0.026577 -0.00776261 0)
  (-0.0253805 -0.0114351 0)
  (-0.026986 -0.0178827 0)
  (-0.0313961 -0.0267758 0)
  (-0.0375347 -0.0378689 0)
  (-0.0437588 -0.051304 0)
  (-0.0486064 -0.0669356 0)
  (-0.0502035 -0.0819727 0)
  (-0.047577 -0.0913611 0)
  (-0.042452 -0.0890777 0)
  (-0.0397303 -0.0800921 0)
  (-0.0409985 -0.0721087 0)
  (-0.0417809 -0.0629118 0)
  (-0.0389864 -0.0498878 0)
  (-0.0277903 -0.0312185 0)
  (0.00954595 -0.00289676 0)
  (0.0254927 0.016886 0)
  (0.039332 0.0134792 0)
  (0.0560894 -0.00293663 0)
  (0.125088 0.0576775 0)
  (-0.465055 0.230905 0)
  (0.0737125 -0.281873 0)
  (-0.557618 -0.183847 0)
  (-0.698499 -0.114141 0)
  (-0.166994 0.14285 0)
  (-0.205932 0.182308 0)
  (-0.137665 0.224999 0)
  (-0.0882738 0.231643 0)
  (-0.0477099 0.175833 0)
  (-0.017826 0.0854753 0)
  (-0.00581123 0.0343431 0)
  (-0.00261022 0.0119203 0)
  (-0.000122926 0.000217661 0)
  (0.00333946 -0.00658803 0)
  (0.00492346 -0.0103758 0)
  (0.00570037 -0.012154 0)
  (0.00606183 -0.0123765 0)
  (0.00654781 -0.011475 0)
  (0.00759455 -0.0100618 0)
  (0.00920939 -0.00897467 0)
  (0.0107873 -0.00899143 0)
  (0.0113065 -0.0104636 0)
  (0.00973959 -0.0135743 0)
  (0.00521118 -0.0188631 0)
  (-0.0035386 -0.0278607 0)
  (-0.0154087 -0.0407275 0)
  (-0.0293366 -0.0580465 0)
  (-0.0413463 -0.0763827 0)
  (-0.0479866 -0.0892421 0)
  (-0.0515584 -0.0862194 0)
  (-0.0587342 -0.07079 0)
  (-0.077237 -0.0571777 0)
  (-0.102188 -0.0427747 0)
  (-0.132078 -0.0236376 0)
  (-0.165063 0.0019008 0)
  (-0.196262 0.0311904 0)
  (-0.228673 0.0572008 0)
  (-0.27837 0.0759252 0)
  (-0.333019 0.0853486 0)
  (-0.398228 0.0863865 0)
  (-0.661383 0.0795546 0)
  (-1.71196 -0.142183 0)
  (-0.0322296 -0.0340409 0)
  (-0.193437 0.0920546 0)
  (-0.109123 0.163672 0)
  (-0.0520216 0.181023 0)
  (0.00115373 0.13657 0)
  (0.0400069 0.066341 0)
  (0.0541058 0.0292879 0)
  (0.0571972 0.0105018 0)
  (0.0583625 -0.00031424 0)
  (0.0587772 -0.00682694 0)
  (0.0583204 -0.0101912 0)
  (0.0572373 -0.0115359 0)
  (0.0558317 -0.0116287 0)
  (0.0544704 -0.0109947 0)
  (0.0534402 -0.0100784 0)
  (0.0527831 -0.00931516 0)
  (0.0522134 -0.00906881 0)
  (0.0512005 -0.00952183 0)
  (0.0491332 -0.0107249 0)
  (0.0453249 -0.0128024 0)
  (0.0385965 -0.0163928 0)
  (0.0272455 -0.0230563 0)
  (0.00805045 -0.0371184 0)
  (-0.0150026 -0.0584724 0)
  (-0.0312158 -0.0766357 0)
  (-0.0437644 -0.0748593 0)
  (-0.0512657 -0.0500321 0)
  (-0.0690537 -0.0326555 0)
  (-0.0909258 -0.0190894 0)
  (-0.109926 -0.00262571 0)
  (-0.124765 0.0192097 0)
  (-0.137961 0.0457416 0)
  (-0.147713 0.0713786 0)
  (-0.152391 0.0839231 0)
  (-0.133035 0.0624915 0)
  (-0.0715455 -0.0355661 0)
  (-0.287052 -0.230005 0)
  (-0.63143 0.0792674 0)
  (0.16804 -0.0914711 0)
  (-0.109328 0.00154116 0)
  (-0.0557963 0.0914479 0)
  (0.00934698 0.116746 0)
  (0.0706623 0.0807184 0)
  (0.112479 0.0368488 0)
  (0.130858 0.00948007 0)
  (0.135788 -0.00680035 0)
  (0.134831 -0.0166217 0)
  (0.131235 -0.0215033 0)
  (0.126587 -0.0233338 0)
  (0.121583 -0.0233647 0)
  (0.116668 -0.0224175 0)
  (0.112134 -0.0209925 0)
  (0.108122 -0.019401 0)
  (0.104596 -0.0178521 0)
  (0.101354 -0.0164727 0)
  (0.0980668 -0.0153011 0)
  (0.0943624 -0.0143146 0)
  (0.0898272 -0.0135089 0)
  (0.083848 -0.0130473 0)
  (0.0753685 -0.0134192 0)
  (0.0619653 -0.0168066 0)
  (0.0407364 -0.0293211 0)
  (0.0134643 -0.0592673 0)
  (-0.0206458 -0.0731659 0)
  (-0.037044 -0.0322412 0)
  (-0.0452941 0.000907787 0)
  (-0.0557702 0.0143725 0)
  (-0.0614303 0.0202386 0)
  (-0.0620313 0.0312603 0)
  (-0.0553747 0.0496324 0)
  (-0.0413615 0.0697543 0)
  (-0.022526 0.0831876 0)
  (0.0157331 0.0703942 0)
  (0.140633 -0.00112888 0)
  (-0.204103 -0.141793 0)
  (0.166356 -0.15379 0)
  (-0.170706 -0.0268515 0)
  (-0.283739 0.165682 0)
  (0.123307 0.00418142 0)
  (-0.0779063 0.0620233 0)
  (-0.0172739 0.0926458 0)
  (0.0734241 0.100586 0)
  (0.140234 0.0820444 0)
  (0.186808 0.0650571 0)
  (0.210387 0.054659 0)
  (0.21842 0.0487132 0)
  (0.218499 0.0449084 0)
  (0.214344 0.0413931 0)
  (0.208363 0.038114 0)
  (0.201515 0.0350531 0)
  (0.194373 0.032137 0)
  (0.18734 0.0292733 0)
  (0.180636 0.026363 0)
  (0.17431 0.0232972 0)
  (0.168284 0.0199603 0)
  (0.162401 0.0162368 0)
  (0.156484 0.0120081 0)
  (0.150353 0.00713748 0)
  (0.143805 0.00144695 0)
  (0.136511 -0.00532243 0)
  (0.127718 -0.0138931 0)
  (0.115745 -0.0270645 0)
  (0.0952969 -0.0578433 0)
  (0.0336907 -0.121778 0)
  (-0.0312192 -0.129914 0)
  (-0.0432789 -0.106924 0)
  (-0.0480512 -0.087966 0)
  (-0.041978 -0.064508 0)
  (-0.0260585 -0.0409169 0)
  (0.00200155 -0.0135647 0)
  (0.0465734 0.00964184 0)
  (0.0891751 0.014105 0)
  (0.13137 -0.00360208 0)
  (0.177853 -0.0412636 0)
  (-0.167566 -0.107896 0)
)
;

boundaryField
{
  floor
  {
    type noSlip;
  }
  ceiling
  {
    type noSlip;
  }
  sWall
  {
    type noSlip;
  }
  nWall
  {
    type noSlip;
  }
  sideWalls
  {
    type empty;
  }
  glass1
  {
    type noSlip;
  }
  glass2
  {
    type noSlip;
  }
  sun
  {
    type noSlip;
  }
  heatsource1
  {
    type noSlip;
  }
  heatsource2
  {
    type noSlip;
  }
  Table_master
  {
    type noSlip;
  }
  Table_slave
  {
    type noSlip;
  }
  inlet
  {
    type fixedValue;
    value uniform (0.1 0 0);
  }
  outlet
  {
    type zeroGradient;
  }
} 	// ************************************************************************* //

