/*--------------------------------*- C++ -*----------------------------------*\
  =========                 |
  \\      /  F ield         | OpenFOAM: The Open Source CFD Toolbox
   \\    /   O peration     | Website:  https://openfoam.org
    \\  /    A nd           | Version:  6
     \\/     M anipulation  |
\*---------------------------------------------------------------------------*/
FoamFile
{
    version     2.0;
    format      ascii;
    class       volScalarField;
    location    "100";
    object      alphat;
}
// * * * * * * * * * * * * * * * * * * * * * * * * * * * * * * * * * * * * * //

dimensions      [1 -1 -1 0 0 0 0];

internalField   nonuniform List<scalar> 
459
(
0.00118048
0.00128392
0.00130363
0.00136515
0.00142175
0.00147421
0.00152481
0.00157654
0.0016188
0.00164386
0.00164537
0.00161827
0.00156153
0.00148206
0.00139521
0.000567395
0.000704515
0.0007842
0.000774434
0.000750733
0.000721314
0.000685059
0.000648852
0.000615899
0.000586613
0.000560654
0.000537534
0.00051667
0.000497588
0.00047968
0.000461801
0.00044218
0.000421458
0.000382451
0.0016289
0.00376445
0.00353462
0.00410949
0.0046567
0.00521631
0.00573868
0.00614276
0.00649964
0.00680849
0.00702391
0.00708623
0.00690511
0.00628079
0.0045898
0.00141637
0.000896404
0.00061887
0.00125361
0.00168999
0.00199761
0.00216305
0.00217151
0.00178465
0.0015637
0.00140073
0.00127207
0.00116812
0.00108399
0.00101766
0.00095791
0.000888053
0.000818718
0.000759002
0.000822956
0.000449282
0.00200761
0.00514501
0.0042833
0.00549236
0.00605332
0.00646571
0.00678488
0.00703627
0.00729984
0.00758895
0.00787396
0.00810571
0.00822021
0.00814697
0.00770206
0.00619739
0.00137081
0.0012378
0.00171452
0.00215638
0.00254928
0.00282722
0.00278145
0.000938688
0.000840123
0.000758317
0.000690157
0.000632742
0.000583859
0.000542079
0.000507225
0.000480437
0.000525195
0.000619526
0.000924626
0.000495898
0.00237719
0.0067187
0.00422786
0.00580389
0.0063499
0.00651952
0.00659587
0.00669345
0.00687786
0.00714958
0.007482
0.00782366
0.00810458
0.00828079
0.00827131
0.00784849
0.00618282
0.00166253
0.00207057
0.00267195
0.00324541
0.00370541
0.00400325
0.00377387
0.00102862
0.000938009
0.000873177
0.000823247
0.000779851
0.000741112
0.000702971
0.000662177
0.000614114
0.000578837
0.000613203
0.00102768
0.000534068
0.00275669
0.00878209
0.00470058
0.00549238
0.00629514
0.00637503
0.00629665
0.00627551
0.00644331
0.00671244
0.00707446
0.00746954
0.00779783
0.00799173
0.00801424
0.00782605
0.00727568
0.0060659
0.0056852
0.00560534
0.00563163
0.00568228
0.00569799
0.00552672
0.00466654
0.00428345
0.00407495
0.00390918
0.00371757
0.00340972
0.003005
0.00251804
0.00197183
0.00140302
0.00101407
0.00105937
0.000659731
0.000665702
0.000813965
0.000907232
0.00315896
0.0110282
0.00673533
0.00532994
0.00591103
0.006241
0.00616023
0.00616016
0.00631923
0.00656589
0.0069177
0.00732561
0.00768009
0.00786987
0.00784051
0.00762203
0.00731396
0.00702604
0.00694233
0.00693891
0.0069182
0.00686022
0.00674991
0.00654936
0.00620323
0.00590448
0.00563933
0.0053733
0.00508318
0.00472713
0.00426903
0.00370073
0.00302553
0.00227719
0.00164625
0.00126007
0.000899254
0.000788169
0.00116916
0.00094053
0.00353367
0.0126589
0.00985736
0.00712195
0.0064853
0.00655946
0.00652679
0.00644539
0.00645829
0.00664585
0.00700696
0.00744965
0.0078268
0.00799954
0.00790998
0.00762801
0.00735385
0.00729172
0.00742936
0.00752136
0.00745968
0.00726569
0.00697479
0.00662455
0.00626807
0.00595157
0.00565207
0.00535873
0.00506686
0.00477984
0.00447182
0.0040311
0.00346279
0.00280369
0.00220115
0.00171013
0.00133244
0.00123728
0.00128579
0.00104876
0.00360933
0.0115016
0.0100715
0.00910982
0.00837911
0.00776051
0.00710653
0.0066819
0.00660348
0.00685567
0.0073274
0.00784557
0.00822218
0.00831364
0.00809862
0.00771693
0.00745678
0.00750478
0.00766985
0.00754944
0.00720903
0.00675291
0.00626873
0.00582393
0.00545144
0.00514068
0.00486204
0.00460435
0.00437362
0.00418236
0.00403425
0.00385488
0.00349911
0.00303751
0.00262046
0.00241126
0.00246491
0.00296036
0.00385014
0.00167521
0.00351513
0.00419176
0.00467864
0.00486429
0.00495424
0.00504302
0.00528149
0.00575615
0.00645592
0.00727555
0.00804997
0.00860866
0.00881799
0.00861477
0.0081083
0.00761523
0.00744984
0.00735375
0.00711399
0.00665266
0.00607446
0.00549878
0.00499892
0.00459528
0.00427094
0.00399494
0.00374271
0.00350307
0.00327191
0.00304659
0.00282622
0.00262993
0.00247033
0.00236122
0.00233024
0.00237204
0.00240961
0.00236033
0.00222046
0.00158007
0.00192276
0.00374249
0.00521632
0.00638465
0.00742371
0.00835058
0.00910431
0.00958813
0.00974375
0.00955703
0.00904494
0.00829943
0.0074771
0.00690677
0.00654437
0.00611421
0.0055606
0.00496309
0.00442371
0.00398375
0.00363845
0.00336461
0.0031386
0.00294426
0.00277446
0.00262847
0.00250841
0.00241729
0.00236249
0.00233616
0.00233169
0.00234984
0.00238471
0.00240938
0.00237492
0.00225389
0.00205145
0.00131769
0.00239885
0.00547013
0.00771917
0.00864662
0.00933888
0.00973221
0.00980534
0.00950757
0.00889015
0.00804608
0.0071268
0.00630994
0.0056458
0.00509257
0.00457241
0.00408511
0.00367313
0.00334615
0.0030836
0.00286876
0.00268846
0.00254142
0.00242407
0.00233319
0.00226722
0.00222498
0.00220443
0.00220698
0.00223366
0.00228264
0.00235276
0.00243924
0.00252678
0.00259109
0.00258787
0.00263841
0.00268394
0.00134209
0.00208746
0.00221078
0.00229842
0.0024287
0.00231334
0.00218791
0.00209396
0.00199456
0.00188208
0.0017448
0.00158211
0.00140453
0.00122974
0.00107627
0.00095854
0.000876492
0.000821608
0.000785307
0.000761761
0.00074743
0.00074017
0.000739095
0.000743867
0.000753301
0.000767074
0.000785244
0.000807985
0.000835632
0.000868792
0.000907706
0.000951929
0.001002
0.00105884
0.00112345
0.00119605
0.00128155
0.00131776
0.00128892
0.00121036
0.0011288
)
;

boundaryField
{
    floor
    {
        type            compressible::alphatWallFunction;
        Prt             0.85;
        value           nonuniform List<scalar> 
29
(
0.000196845
7.94839e-05
9.9872e-05
0.000111491
0.000110073
0.000106627
0.00010233
9.7007e-05
9.16567e-05
8.67558e-05
8.23731e-05
7.84659e-05
7.4967e-05
7.17934e-05
6.88769e-05
6.61268e-05
6.33683e-05
6.03252e-05
5.70929e-05
5.09519e-05
5.09512e-05
6.14305e-05
6.86207e-05
7.44446e-05
0.000196842
7.9483e-05
8.72025e-05
0.000175368
0.000232715
)
;
    }
    ceiling
    {
        type            compressible::alphatWallFunction;
        Prt             0.85;
        value           nonuniform List<scalar> 
43
(
0.000288389
0.000304326
0.000315597
0.000332374
0.00031766
0.000301548
0.000289407
0.000276497
0.000261803
0.000243739
0.000222119
0.000198232
0.000174382
0.000153121
0.000136575
0.000124904
0.000117026
0.000111781
0.000108364
0.000106278
0.000105219
0.000105063
0.000105759
0.000107134
0.000109139
0.000111776
0.000115067
0.000119052
0.000123812
0.000129371
0.000135654
0.000142726
0.000150704
0.000159713
0.000169765
0.000181515
0.000186464
0.000182524
0.000171738
0.000160457
0.000468434
0.000550725
0.000328315
)
;
    }
    sWall
    {
        type            compressible::alphatWallFunction;
        Prt             0.85;
        value           uniform 0.000287179;
    }
    nWall
    {
        type            compressible::alphatWallFunction;
        Prt             0.85;
        value           nonuniform List<scalar> 6(0.00012898 0.000133708 0.000148965 0.000186124 0.000189449 0.000160135);
    }
    sideWalls
    {
        type            empty;
    }
    glass1
    {
        type            compressible::alphatWallFunction;
        Prt             0.85;
        value           nonuniform List<scalar> 9(0.00016332 0.000223266 0.000272596 0.000319861 0.000367652 0.000417612 0.000463603 0.000472959 0.000461694);
    }
    glass2
    {
        type            compressible::alphatWallFunction;
        Prt             0.85;
        value           nonuniform List<scalar> 2(0.000232871 0.000220306);
    }
    sun
    {
        type            compressible::alphatWallFunction;
        Prt             0.85;
        value           nonuniform List<scalar> 
14
(
0.000167483
0.000181688
0.000184382
0.000192764
0.000200436
0.000207517
0.000214321
0.000221251
0.000226893
0.000230232
0.000230433
0.000226822
0.000219244
0.000208575
)
;
    }
    heatsource1
    {
        type            compressible::alphatWallFunction;
        Prt             0.85;
        value           nonuniform List<scalar> 3(9.42624e-05 0.000115911 0.000129284);
    }
    heatsource2
    {
        type            compressible::alphatWallFunction;
        Prt             0.85;
        value           nonuniform List<scalar> 4(0.000199835 0.000127742 0.000127741 0.000193657);
    }
    Table_master
    {
        type            compressible::alphatWallFunction;
        Prt             0.85;
        value           nonuniform List<scalar> 9(0.000133744 0.000119668 0.000107836 9.78602e-05 8.93638e-05 8.20553e-05 7.57492e-05 7.04429e-05 6.63346e-05);
    }
    Table_slave
    {
        type            compressible::alphatWallFunction;
        Prt             0.85;
        value           nonuniform List<scalar> 9(0.000146437 0.000133649 0.000124411 0.000117241 0.000110967 0.000105331 9.9748e-05 9.37355e-05 8.65929e-05);
    }
    inlet
    {
        type            fixedValue;
        value           uniform 1.94e-05;
    }
    outlet
    {
        type            zeroGradient;
    }
}


// ************************************************************************* //
