/*--------------------------------*- C++ -*----------------------------------*\
  =========                 |
  \\      /  F ield         | OpenFOAM: The Open Source CFD Toolbox
   \\    /   O peration     | Website:  https://openfoam.org
    \\  /    A nd           | Version:  6
     \\/     M anipulation  |
\*---------------------------------------------------------------------------*/
FoamFile
{
    version     2.0;
    format      ascii;
    class       volScalarField;
    location    "400";
    object      epsilon;
}
// * * * * * * * * * * * * * * * * * * * * * * * * * * * * * * * * * * * * * //

dimensions      [0 2 -3 0 0 0 0];

internalField   nonuniform List<scalar> 
459
(
0.000157842
0.000190106
0.000162957
0.00016357
0.000166872
0.000166465
0.000159908
0.000151652
0.000145197
0.000141368
0.000140007
0.000140596
0.000142401
0.000144203
0.000142981
2.61476e-05
3.02057e-05
2.77913e-05
2.19982e-05
1.65072e-05
1.41112e-05
1.07531e-05
1.02098e-05
1.09598e-05
1.26157e-05
1.41843e-05
1.41467e-05
1.34758e-05
1.27738e-05
1.18149e-05
1.07368e-05
9.17445e-06
7.63193e-06
5.43372e-06
0.000658533
0.000983748
0.000340389
0.000257386
0.000200197
0.000160671
0.000122181
0.000102969
9.64914e-05
9.64495e-05
0.000100436
0.000107958
0.000119081
0.000133762
0.000154027
0.000208446
5.76799e-05
5.96954e-05
4.71831e-05
4.07944e-05
3.31954e-05
2.63343e-05
1.96974e-05
1.37985e-05
1.60944e-05
2.2317e-05
2.97099e-05
3.50941e-05
3.64392e-05
3.38957e-05
2.93179e-05
2.45088e-05
1.94206e-05
1.72723e-05
2.14559e-05
1.31118e-05
0.00129092
0.00396112
0.00177752
0.00138269
0.000814997
0.000453747
0.000219591
0.000137106
0.000113361
0.000109167
0.000112692
0.000121162
0.000134205
0.000151547
0.000173224
0.000205247
0.000279118
0.000154656
8.27701e-05
5.91516e-05
4.77555e-05
3.82051e-05
2.82032e-05
1.37127e-05
1.56278e-05
1.91863e-05
2.27781e-05
2.61318e-05
2.96715e-05
3.46146e-05
4.48988e-05
6.90079e-05
5.09898e-05
6.67041e-05
0.000134877
6.14798e-05
0.00184073
0.00253181
0.00226999
0.00221611
0.00223917
0.00153885
0.000479459
0.000206628
0.00014065
0.000128576
0.000131542
0.000140772
0.000154607
0.000172093
0.000191949
0.000214212
0.000246967
0.000319886
0.000116924
8.83087e-05
7.54157e-05
7.31433e-05
7.76744e-05
9.0396e-05
0.000118448
0.000114216
0.0001112
0.000109248
0.000109052
0.000111298
0.000117065
0.000129073
0.000155874
7.85381e-05
9.81703e-05
0.000188109
0.000155381
0.00937624
0.00522542
0.00334616
0.00245233
0.0021374
0.00181363
0.0010974
0.00033875
0.000174332
0.000148918
0.000153
0.000165066
0.000181191
0.00019924
0.00021507
0.00022207
0.00021275
0.00018232
0.00013854
0.000115377
0.000105976
0.000102422
0.000101401
0.000101294
0.000100593
9.78944e-05
9.54104e-05
9.34802e-05
9.23439e-05
9.22218e-05
9.33238e-05
9.58243e-05
9.94222e-05
0.000100419
0.000109973
0.000128866
0.000158561
0.000169721
0.000228668
0.000291453
0.0152528
0.00917079
0.00480209
0.00286922
0.00215531
0.00174633
0.00114399
0.000489125
0.000211753
0.000168223
0.000175487
0.000192959
0.000214489
0.000238817
0.000262171
0.000277162
0.000274681
0.000251121
0.000219351
0.000195318
0.000180459
0.000171773
0.000166481
0.000162374
0.000158431
0.000154273
0.000150398
0.000147046
0.000144454
0.000142866
0.00014251
0.000143625
0.000146521
0.000151743
0.00016234
0.000185762
0.000240016
0.000370665
0.000715246
0.000652204
0.0228831
0.0187604
0.00763586
0.00342346
0.00213588
0.0016136
0.00105105
0.000523688
0.00025325
0.000197636
0.000212376
0.00023827
0.000266558
0.000298495
0.000332689
0.000361952
0.000375204
0.000366536
0.00034469
0.000322405
0.000304947
0.000292113
0.000282705
0.000275296
0.000268664
0.000262321
0.000256355
0.000250976
0.000246493
0.000243272
0.000241667
0.000242021
0.000244693
0.000250192
0.000260903
0.000287984
0.000367202
0.000613655
0.00141997
0.0011744
0.0347529
0.0455368
0.0180043
0.00456733
0.0020139
0.0014922
0.000950464
0.000519741
0.000318358
0.000280887
0.00031376
0.000356503
0.000394671
0.000431295
0.000470151
0.000508874
0.000537875
0.000546226
0.000538232
0.000523661
0.000509008
0.000496323
0.000485703
0.000476419
0.000467745
0.000459417
0.000451526
0.000444312
0.000438166
0.00043357
0.000431003
0.000430847
0.000433192
0.000437469
0.000443295
0.000457031
0.000512172
0.000795683
0.00220795
0.00192114
0.0583652
0.11861
0.155901
0.0169867
0.00254145
0.00162664
0.00102101
0.00064944
0.000523434
0.000559719
0.000640574
0.000718997
0.0007808
0.000825751
0.000858908
0.000884695
0.000904676
0.00091546
0.00091591
0.000909604
0.000901147
0.000892455
0.000883518
0.000873626
0.000863094
0.000852592
0.000842692
0.000833836
0.00082646
0.000821049
0.000818095
0.000817966
0.000820595
0.000824916
0.000828924
0.000834415
0.000867949
0.00107536
0.00224264
0.00195676
0.401407
0.16592
0.0116395
0.00345143
0.00212972
0.00166281
0.00154704
0.00156073
0.001661
0.00180996
0.00195716
0.00206134
0.00210298
0.00208797
0.00204584
0.00200158
0.00196153
0.00192765
0.00190375
0.00188634
0.00187081
0.00185209
0.00183119
0.00181043
0.00179154
0.0017755
0.00176276
0.00175356
0.00174812
0.00174654
0.00174852
0.00175266
0.00175575
0.00175355
0.00174919
0.00178051
0.0019172
0.00125077
0.174218
0.0845367
0.0288243
0.0120992
0.00659053
0.00454893
0.00377972
0.00363798
0.00387925
0.00433403
0.00482294
0.00519151
0.00535716
0.00532575
0.00517962
0.00499369
0.00481641
0.00467025
0.00455779
0.0044765
0.00441707
0.0043636
0.00431412
0.0042712
0.00423724
0.00421319
0.00419884
0.00419337
0.00419576
0.00420473
0.00421816
0.00423192
0.00423864
0.00423226
0.00423023
0.00429111
0.00399022
0.00243615
0.000853212
0.00153265
0.0341511
0.0258435
0.0174513
0.0117002
0.00815922
0.00594069
0.00451182
0.00359833
0.00304824
0.00276808
0.00268356
0.0027213
0.00281789
0.00292165
0.00299128
0.00301898
0.00301236
0.00298357
0.00294348
0.0028981
0.00285015
0.00280567
0.00276026
0.00271278
0.00266379
0.00261427
0.00256505
0.00251667
0.00246941
0.00242326
0.00237778
0.00233179
0.00228284
0.00222749
0.0021625
0.00207729
0.00185783
0.00126915
)
;

boundaryField
{
    floor
    {
        Cmu             0.09;
        kappa           0.41;
        E               9.8;
        type            epsilonWallFunction;
        value           nonuniform List<scalar> 
29
(
0.000142981
2.61476e-05
3.02057e-05
2.77913e-05
2.19982e-05
1.65072e-05
1.41112e-05
1.07531e-05
1.02098e-05
1.09598e-05
1.26157e-05
1.41843e-05
1.41467e-05
1.34758e-05
1.27738e-05
1.18149e-05
1.07368e-05
9.17445e-06
7.63193e-06
5.43372e-06
5.43372e-06
1.31118e-05
6.14798e-05
0.000155381
0.000142981
2.61476e-05
5.96954e-05
0.000154656
0.000319886
)
;
    }
    ceiling
    {
        Cmu             0.09;
        kappa           0.41;
        E               9.8;
        type            epsilonWallFunction;
        value           nonuniform List<scalar> 
43
(
0.000853212
0.00153265
0.0341511
0.0258435
0.0174513
0.0117002
0.00815922
0.00594069
0.00451182
0.00359833
0.00304824
0.00276808
0.00268356
0.0027213
0.00281789
0.00292165
0.00299128
0.00301898
0.00301236
0.00298357
0.00294348
0.0028981
0.00285015
0.00280567
0.00276026
0.00271278
0.00266379
0.00261427
0.00256505
0.00251667
0.00246941
0.00242326
0.00237778
0.00233179
0.00228284
0.00222749
0.0021625
0.00207729
0.00185783
0.00126915
0.0583652
0.11861
0.174218
)
;
    }
    sWall
    {
        Cmu             0.09;
        kappa           0.41;
        E               9.8;
        type            epsilonWallFunction;
        value           uniform 0.000853212;
    }
    nWall
    {
        Cmu             0.09;
        kappa           0.41;
        E               9.8;
        type            epsilonWallFunction;
        value           nonuniform List<scalar> 6(0.000291453 0.000652204 0.0011744 0.00125077 0.00243615 0.00126915);
    }
    sideWalls
    {
        type            empty;
    }
    glass1
    {
        Cmu             0.09;
        kappa           0.41;
        E               9.8;
        type            epsilonWallFunction;
        value           nonuniform List<scalar> 9(0.000157842 0.000658533 0.00129092 0.00184073 0.00937624 0.0152528 0.0228831 0.0347529 0.0583652);
    }
    glass2
    {
        Cmu             0.09;
        kappa           0.41;
        E               9.8;
        type            epsilonWallFunction;
        value           nonuniform List<scalar> 2(0.00192114 0.00195676);
    }
    sun
    {
        Cmu             0.09;
        kappa           0.41;
        E               9.8;
        type            epsilonWallFunction;
        value           nonuniform List<scalar> 
14
(
0.000157842
0.000190106
0.000162957
0.00016357
0.000166872
0.000166465
0.000159908
0.000151652
0.000145197
0.000141368
0.000140007
0.000140596
0.000142401
0.000144203
)
;
    }
    heatsource1
    {
        Cmu             0.09;
        kappa           0.41;
        E               9.8;
        type            epsilonWallFunction;
        value           nonuniform List<scalar> 3(0.000169721 0.000228668 0.000291453);
    }
    heatsource2
    {
        Cmu             0.09;
        kappa           0.41;
        E               9.8;
        type            epsilonWallFunction;
        value           nonuniform List<scalar> 4(0.000208446 5.76799e-05 5.76799e-05 0.000279118);
    }
    Table_master
    {
        Cmu             0.09;
        kappa           0.41;
        E               9.8;
        type            epsilonWallFunction;
        value           nonuniform List<scalar> 9(1.37127e-05 1.56278e-05 1.91863e-05 2.27781e-05 2.61318e-05 2.96715e-05 3.46146e-05 4.48988e-05 6.90079e-05);
    }
    Table_slave
    {
        Cmu             0.09;
        kappa           0.41;
        E               9.8;
        type            epsilonWallFunction;
        value           nonuniform List<scalar> 9(0.000118448 0.000114216 0.0001112 0.000109248 0.000109052 0.000111298 0.000117065 0.000129073 0.000155874);
    }
    inlet
    {
        type            turbulentMixingLengthDissipationRateInlet;
        mixingLength    0.01;
        phi             phi;
        k               k;
        value           uniform 0.401407;
    }
    outlet
    {
        type            zeroGradient;
    }
}


// ************************************************************************* //
