// -*- C++ -*-
// File generated by PyFoam - sorry for the ugliness

FoamFile
{
 version 2.0;
 format ascii;
 class volScalarField;
 location "400";
 object T;
}

dimensions [ 0 0 0 1 0 0 0 ];

internalField nonuniform List<scalar> 459
(
  306.685
  306.557
  306.596
  306.635
  306.671
  306.701
  306.721
  306.733
  306.745
  306.757
  306.772
  306.789
  306.807
  306.824
  306.834
  305.5
  305.404
  305.299
  305.187
  305.09
  305.059
  305.059
  305.038
  305.016
  305.005
  305.002
  304.997
  304.999
  305.012
  305.032
  305.059
  305.085
  305.134
  305.252
  306.86
  306.727
  306.793
  306.851
  306.897
  306.933
  306.955
  306.97
  306.981
  306.992
  307.002
  307.011
  307.016
  307.012
  306.991
  306.948
  306.386
  305.834
  305.782
  305.697
  305.605
  305.52
  305.459
  305.441
  305.395
  305.355
  305.335
  305.337
  305.357
  305.373
  305.389
  305.417
  305.458
  305.444
  305.448
  305.538
  307.055
  306.893
  306.967
  307.033
  307.08
  307.113
  307.126
  307.14
  307.157
  307.172
  307.184
  307.191
  307.189
  307.17
  307.129
  307.062
  306.981
  306.293
  306.25
  306.214
  306.173
  306.111
  305.998
  305.708
  305.704
  305.704
  305.702
  305.706
  305.727
  305.776
  305.872
  306.04
  306.294
  306.253
  306.165
  306.091
  307.727
  307.561
  307.509
  307.451
  307.409
  307.346
  307.279
  307.284
  307.305
  307.332
  307.353
  307.366
  307.365
  307.343
  307.291
  307.195
  307.049
  306.885
  306.764
  306.845
  306.924
  307.016
  307.114
  307.193
  307.251
  307.252
  307.245
  307.234
  307.218
  307.2
  307.18
  307.158
  307.128
  307.067
  307.06
  307.033
  306.837
  311.683
  310.502
  309.595
  308.838
  308.265
  307.887
  307.608
  307.426
  307.434
  307.475
  307.513
  307.541
  307.557
  307.556
  307.536
  307.492
  307.429
  307.36
  307.304
  307.312
  307.352
  307.401
  307.445
  307.478
  307.496
  307.504
  307.509
  307.514
  307.518
  307.521
  307.525
  307.528
  307.528
  307.518
  307.527
  307.55
  307.627
  307.812
  307.913
  307.967
  311.923
  311.676
  310.75
  309.744
  308.883
  308.267
  307.85
  307.601
  307.552
  307.606
  307.669
  307.718
  307.752
  307.769
  307.768
  307.748
  307.713
  307.675
  307.647
  307.642
  307.651
  307.668
  307.685
  307.699
  307.709
  307.717
  307.725
  307.732
  307.741
  307.751
  307.761
  307.772
  307.782
  307.791
  307.803
  307.821
  307.856
  307.912
  307.97
  308.025
  311.915
  311.746
  311.134
  310.166
  309.172
  308.438
  307.971
  307.728
  307.671
  307.742
  307.838
  307.916
  307.97
  308.004
  308.018
  308.014
  307.995
  307.969
  307.947
  307.935
  307.931
  307.932
  307.935
  307.938
  307.941
  307.944
  307.947
  307.95
  307.955
  307.96
  307.967
  307.973
  307.979
  307.983
  307.985
  307.986
  307.994
  308.014
  308.041
  308.071
  311.891
  311.78
  311.242
  310.261
  309.138
  308.437
  308.016
  307.841
  307.833
  307.93
  308.064
  308.176
  308.252
  308.297
  308.319
  308.323
  308.31
  308.29
  308.268
  308.25
  308.237
  308.226
  308.218
  308.21
  308.202
  308.194
  308.187
  308.18
  308.174
  308.169
  308.163
  308.158
  308.152
  308.144
  308.134
  308.123
  308.115
  308.114
  308.115
  308.112
  311.879
  311.844
  311.855
  310.027
  309.02
  308.443
  308.12
  308.048
  308.119
  308.281
  308.447
  308.576
  308.658
  308.702
  308.717
  308.712
  308.694
  308.668
  308.64
  308.612
  308.587
  308.563
  308.54
  308.518
  308.495
  308.473
  308.451
  308.429
  308.407
  308.385
  308.363
  308.341
  308.319
  308.296
  308.271
  308.245
  308.221
  308.2
  308.18
  308.155
  314.667
  310.329
  309.15
  308.696
  308.531
  308.582
  308.753
  308.928
  309.066
  309.159
  309.211
  309.228
  309.219
  309.192
  309.155
  309.111
  309.066
  309.02
  308.976
  308.933
  308.892
  308.85
  308.809
  308.769
  308.728
  308.687
  308.646
  308.605
  308.564
  308.523
  308.482
  308.44
  308.397
  308.355
  308.312
  308.269
  308.224
  308.191
  313.658
  311.392
  310.633
  310.174
  309.988
  309.953
  309.948
  309.942
  309.927
  309.9
  309.861
  309.811
  309.755
  309.695
  309.63
  309.563
  309.495
  309.427
  309.36
  309.294
  309.23
  309.168
  309.107
  309.047
  308.987
  308.928
  308.868
  308.809
  308.749
  308.688
  308.628
  308.568
  308.508
  308.447
  308.387
  308.328
  308.271
  308.224
  310.782
  310.848
  312.147
  312.038
  311.826
  311.625
  311.496
  311.376
  311.259
  311.142
  311.02
  310.894
  310.765
  310.634
  310.504
  310.377
  310.255
  310.138
  310.028
  309.923
  309.824
  309.729
  309.638
  309.549
  309.463
  309.378
  309.294
  309.211
  309.128
  309.045
  308.961
  308.878
  308.794
  308.71
  308.626
  308.542
  308.458
  308.372
  308.278
  308.172
)
;

boundaryField
{
  floor
  {
    type wallHeatTransfer;
    Tinf uniform 305.2;
    alphaWall uniform 0.24;
    value nonuniform List<scalar> 29
(
  306.604
  305.439
  305.363
  305.279
  305.19
  305.115
  305.092
  305.094
  305.079
  305.061
  305.052
  305.048
  305.045
  305.046
  305.057
  305.073
  305.094
  305.114
  305.151
  305.238
  305.238
  305.458
  305.938
  306.611
  306.604
  305.439
  305.725
  306.143
  306.69
)
;
  }
  ceiling
  {
    type wallHeatTransfer;
    Tinf uniform 303.2;
    alphaWall uniform 0.24;
    value nonuniform List<scalar> 43
(
  310.092
  310.251
  311.848
  311.718
  311.478
  311.244
  311.082
  310.931
  310.787
  310.647
  310.511
  310.38
  310.256
  310.136
  310.019
  309.905
  309.794
  309.686
  309.583
  309.484
  309.39
  309.3
  309.213
  309.128
  309.046
  308.965
  308.884
  308.805
  308.726
  308.646
  308.567
  308.487
  308.407
  308.327
  308.247
  308.166
  308.086
  308.001
  307.903
  307.767
  311.63
  311.642
  313.438
)
;
  }
  sWall
  {
    type wallHeatTransfer;
    Tinf uniform 315.2;
    alphaWall uniform 0.36;
    value uniform 311.36;
  }
  nWall
  {
    type wallHeatTransfer;
    Tinf uniform 307.2;
    alphaWall uniform 0.36;
    value nonuniform List<scalar> 6
(
  307.838
  307.911
  307.967
  308.074
  308.122
  308.058
)
;
  }
  sideWalls
  {
    type empty;
  }
  glass1
  {
    type wallHeatTransfer;
    Tinf uniform 315.2;
    alphaWall uniform 4.3;
    value nonuniform List<scalar> 9
(
  313.018
  312.364
  312.069
  312.146
  313.356
  313.367
  313.267
  313.155
  313.03
)
;
  }
  glass2
  {
    type wallHeatTransfer;
    Tinf uniform 307.2;
    alphaWall uniform 4.3;
    value nonuniform List<scalar> 2
(
  307.578
  307.597
)
;
  }
  sun
  {
    type wallHeatTransfer;
    Tinf uniform 305.2;
    alphaWall uniform 0.24;
    value nonuniform List<scalar> 14
(
  306.481
  306.379
  306.406
  306.44
  306.472
  306.497
  306.512
  306.521
  306.528
  306.537
  306.55
  306.565
  306.581
  306.596
)
;
  }
  heatsource1
  {
    type fixedGradient;
    gradient uniform 0;
  }
  heatsource2
  {
    type fixedGradient;
    gradient uniform 0;
  }
  Table_master
  {
    type zeroGradient;
  }
  Table_slave
  {
    type zeroGradient;
  }
  inlet
  {
    type fixedValue;
    value uniform 290.15;
  }
  outlet
  {
    type zeroGradient;
  }
} 	// ************************************************************************* //

