/*--------------------------------*- C++ -*----------------------------------*\
  =========                 |
  \\      /  F ield         | OpenFOAM: The Open Source CFD Toolbox
   \\    /   O peration     | Website:  https://openfoam.org
    \\  /    A nd           | Version:  6
     \\/     M anipulation  |
\*---------------------------------------------------------------------------*/
FoamFile
{
    version     2.0;
    format      ascii;
    class       surfaceScalarField;
    location    "1900";
    object      phi;
}
// * * * * * * * * * * * * * * * * * * * * * * * * * * * * * * * * * * * * * //

dimensions      [1 0 -1 0 0 0 0];

internalField   nonuniform List<scalar> 
852
(
0.00480918
-0.00478534
0.00876711
-0.00395772
0.0108706
-0.00210324
0.011967
-0.0010962
0.0126016
-0.000634463
0.0129254
-0.000323588
0.0129724
-4.68042e-05
0.0127694
0.000203267
0.0123281
0.000441491
0.0116386
0.000689689
0.0106687
0.000970131
0.00935316
0.00131569
0.00755068
0.00180268
0.00486582
0.00268506
0.00486418
-0.000332892
0.000334793
-0.000377473
4.46266e-05
-0.000351257
-2.61695e-05
-0.000353351
2.14365e-06
-0.000369052
1.57527e-05
-0.000327015
-4.19837e-05
-0.000201644
-0.000125314
2.5101e-05
-0.000226683
0.000191834
-0.000166666
0.000293186
-0.000101288
0.000367271
-7.40236e-05
0.000435952
-6.86199e-05
0.000512973
-7.69616e-05
0.000555205
-4.21747e-05
0.000543886
1.13762e-05
0.000492538
5.14044e-05
0.000470975
2.16171e-05
0.000388535
8.24922e-05
0.000390476
0.00467712
-0.00939525
0.00721888
-0.00649926
0.0085823
-0.00346645
0.00938711
-0.00190081
0.00989123
-0.00113837
0.0101758
-0.000607966
0.0102643
-0.000135126
0.0101525
0.00031533
0.00983291
0.000761245
0.00929294
0.00122986
0.00851931
0.00174396
0.00750998
0.00232522
0.00631177
0.00300109
0.00522223
0.0037748
0.0055231
0.0045635
0.00204385
0.00347939
0.00204399
0.000534687
-0.000196651
0.000516534
6.28328e-05
0.000344748
0.000145669
0.000190015
0.000156928
4.77986e-05
0.000158021
-0.000127935
0.000133806
-0.000162408
-9.07808e-05
-2.98459e-05
-0.000359178
2.68812e-05
-0.000223318
5.29625e-05
-0.000127294
5.83372e-05
-7.93257e-05
3.70776e-05
-4.72907e-05
-2.30062e-05
-1.68104e-05
-0.000104256
3.9141e-05
-0.000185693
9.28734e-05
-0.000290196
0.000155963
-0.000434102
0.000165578
-0.000480758
0.000129206
-8.65022e-05
0.00333791
-0.0126251
0.00492638
-0.00808751
0.00571932
-0.00425918
0.00623274
-0.00241403
0.00660793
-0.00151337
0.00685928
-0.000859124
0.00700396
-0.000279619
0.00702466
0.000294822
0.00689167
0.000894428
0.00658089
0.00154082
0.00608408
0.00224096
0.00541818
0.00299131
0.00464535
0.00377412
0.00386932
0.00455102
0.00310904
0.00532398
0.00167781
0.00491081
0.00372198
-0.000168108
-2.71448e-05
-0.000139323
3.41143e-05
-7.04528e-05
7.68634e-05
-4.87902e-06
9.14183e-05
7.71812e-05
7.60251e-05
0.000177544
3.35076e-05
8.6982e-05
-0.000271971
-0.000495053
-0.000622106
-0.00070119
-0.000748241
-0.000764816
-0.000725442
-0.00063234
-0.000393136
-8.31695e-05
-0.000180424
-4.70661e-05
1.59335e-05
-6.70777e-05
-7.13218e-05
0.0020231
-0.0145004
0.00289979
-0.00896399
0.00328173
-0.00464092
0.00346095
-0.00259307
0.0036785
-0.00173074
0.00388078
-0.00106124
0.00405294
-0.000451601
0.00415624
0.000191687
0.00414578
0.000905062
0.00399364
0.00169314
0.00368849
0.00254629
0.00323472
0.00344526
0.00264806
0.00436097
0.00194224
0.00525703
0.00117476
0.00609164
0.000339662
0.0057461
-0.000337444
0.0043992
-0.000924949
0.000584396
-0.00100101
4.90083e-05
-0.00103984
7.30332e-05
-0.00109493
0.000132048
-0.00118213
0.000178722
-0.00129693
0.000190929
-0.00142205
0.000158726
-0.00151991
9.78028e-05
-0.00154999
3.00232e-05
-0.00153516
-1.48802e-05
-0.00148905
-4.61642e-05
-0.0014191
-6.99999e-05
-0.00132877
-9.03853e-05
-0.0012179
-0.000110912
-0.00108204
-0.000135911
-0.000909937
-0.000172141
-0.000754579
-0.00023841
-0.000510124
-0.000291398
-0.000220876
-0.000356196
-0.000297089
0.00092997
-0.015244
0.00131779
-0.00935159
0.00133461
-0.00465754
0.00112341
-0.0023817
0.00123846
-0.00184562
0.00143926
-0.00126188
0.00162979
-0.000641973
0.00175155
7.00906e-05
0.00177229
0.000884484
0.00168252
0.00178309
0.0014727
0.00275628
0.00113663
0.00378152
0.000671203
0.00482658
0.00010302
0.0058254
-0.000410437
0.00660529
-0.000832659
0.00616848
-0.000888392
0.00445501
-0.00124645
0.000942543
-0.00145578
0.000258438
-0.00155374
0.000171092
-0.00160491
0.000183316
-0.00162608
0.000199998
-0.00162796
0.000192905
-0.00162162
0.000152495
-0.00161095
8.72285e-05
-0.00159928
1.84527e-05
-0.00157702
-3.7035e-05
-0.00154407
-7.90076e-05
-0.00150284
-0.000111129
-0.00145507
-0.000138046
-0.00140118
-0.000164697
-0.00133924
-0.000197739
-0.00126525
-0.000246014
-0.00119004
-0.000313509
-0.00107759
-0.00040372
-0.00090025
-0.000533419
-0.000484605
-0.000712614
0.000428599
-0.000913291
0.00100443
-0.000575913
0.00102037
-1.39775e-05
-0.0150059
2.03385e-06
-0.00936738
-0.000320459
-0.00433486
-0.000831644
-0.00187035
-0.000806248
-0.00187086
-0.000651827
-0.00141614
-0.000502205
-0.000791435
-0.000419424
-1.25318e-05
-0.000409299
0.000874522
-0.000464858
0.00183881
-0.000595995
0.00288759
-0.000809151
0.00399486
-0.00109664
0.00511426
-0.00140496
0.00613391
-0.00156924
0.00676975
-0.00159301
0.00619238
-0.00133217
0.00419423
-0.00149486
0.00110533
-0.00163177
0.000395446
-0.00169296
0.000232391
-0.00169667
0.000187126
-0.00166041
0.000163842
-0.00160278
0.000135378
-0.00154276
9.25816e-05
-0.0014929
3.74752e-05
-0.00145551
-1.88374e-05
-0.00142652
-6.59141e-05
-0.00140385
-0.000101577
-0.00138722
-0.000127645
-0.00137825
-0.00014691
-0.00137927
-0.000163575
-0.00139223
-0.000184663
-0.00141765
-0.000220483
-0.00144875
-0.0002823
-0.00146691
-0.000385456
-0.00144492
-0.000555298
-0.00132342
-0.000834006
-0.00105294
-0.00118366
-0.000511514
-0.00111722
0.000528323
-0.00100052
-0.0137454
-0.00164432
-0.00872336
-0.00222842
-0.00375058
-0.00291515
-0.00118346
-0.00295244
-0.00183341
-0.00282694
-0.00154148
-0.00268818
-0.000930037
-0.00257572
-0.000124828
-0.00249901
0.000797979
-0.00246118
0.00180116
-0.00245225
0.00287884
-0.00246609
0.00400887
-0.00248487
0.00513322
-0.00245668
0.00610589
-0.00227476
0.00658798
-0.00195791
0.00587563
-0.00151621
0.00375259
-0.00154136
0.00113057
-0.00157875
0.000432945
-0.00156608
0.000219828
-0.00150693
0.000128084
-0.00141677
7.37984e-05
-0.00131538
3.40928e-05
-0.00122068
-2.0124e-06
-0.00114523
-3.78605e-05
-0.00109292
-7.10434e-05
-0.00105931
-9.94118e-05
-0.00103955
-0.000121228
-0.00103191
-0.000135175
-0.00103786
-0.000140844
-0.00106211
-0.000139223
-0.00111271
-0.000133952
-0.00120006
-0.000133021
-0.00133129
-0.000150969
-0.00150601
-0.000210631
-0.00172442
-0.000336781
-0.00200887
-0.00054945
-0.00231327
-0.000879147
-0.00212581
-0.00130456
-0.00158288
-0.00358576
-0.00986753
-0.00547766
-0.00683123
-0.00554602
-0.00368202
-0.00575547
-0.000973834
-0.00531441
-0.00227432
-0.00493554
-0.00192017
-0.00467828
-0.00118713
-0.0044863
-0.000316638
-0.00432216
0.000634001
-0.00415523
0.00163441
-0.00395682
0.0026806
-0.00371
0.00376223
-0.00339796
0.00482135
-0.00299607
0.00570417
-0.0024761
0.00606815
-0.00190065
0.00530028
-0.00136646
0.00321847
-0.00128374
0.00104795
-0.00123369
0.000383014
-0.00114127
0.000127518
-0.00100806
-5.01019e-06
-0.00086085
-7.32984e-05
-0.00072917
-9.74731e-05
-0.000626447
-0.000104621
-0.000553857
-0.000110336
-0.000505598
-0.000119188
-0.000475195
-0.0001297
-0.00045732
-0.000138987
-0.000448225
-0.000144154
-0.000445958
-0.000142994
-0.000450719
-0.000134345
-0.000465884
-0.000118672
-0.000499764
-9.90283e-05
-0.0005679
-8.27236e-05
-0.00069642
-8.20047e-05
-0.00092803
-0.000105068
-0.00133135
-0.000146028
-0.00191154
-0.000298857
-0.00203102
-0.00118498
-0.00354698
-0.0095721
-0.0164213
-0.0115276
-0.00857551
-0.00807347
-0.00442777
-0.00691521
-0.00343241
-0.0063682
-0.00246703
-0.00609541
-0.00145976
-0.00591187
-0.000500004
-0.0057045
0.000426799
-0.00540894
0.00133901
-0.00500275
0.00227458
-0.00446831
0.00322796
-0.00379939
0.00415259
-0.00301006
0.004915
-0.00215792
0.00521614
-0.00136696
0.00450941
-0.000715863
0.00256746
-0.000566826
0.000899025
-0.000462873
0.000279178
-0.000302344
-3.28917e-05
-0.000125717
-0.000181518
1.64963e-05
-0.000215392
0.000119001
-0.000199859
0.000188819
-0.00017432
0.000234723
-0.000156122
0.000263224
-0.00014757
0.000279443
-0.0001458
0.000287452
-0.000146876
0.000290893
-0.000147474
0.000293473
-0.000145453
0.000299284
-0.000140035
0.00031286
-0.000132125
0.00033893
-0.000124977
0.000381325
-0.000125
0.000440349
-0.000140913
0.000512153
-0.00017676
0.000593038
-0.000226803
0.000640965
-0.000346677
0.000437755
-0.000981662
-0.00303442
-0.00921195
0.000271476
-0.00726061
-0.00637886
-0.00686712
-0.00382573
-0.00686846
-0.00246553
-0.00686466
-0.0014634
-0.00676034
-0.000604155
-0.00652176
0.000188384
-0.00614165
0.000959064
-0.00556097
0.00169407
-0.00475965
0.0024268
-0.00374575
0.00313886
-0.00256236
0.00373175
-0.00136344
0.00401735
-0.000197977
0.00334406
0.000597867
0.00177171
0.000815219
0.000681789
0.000940081
0.000154438
0.00103988
-0.000132566
0.00109716
-0.000238674
0.0011212
-0.000239311
0.00113037
-0.000208906
0.00113429
-0.000178114
0.00113523
-0.000156937
0.00113302
-0.000145237
0.00112701
-0.000139667
0.00111723
-0.000136977
0.00110499
-0.000135108
0.00109302
-0.000133364
0.00108549
-0.000132376
0.0010877
-0.000134214
0.00110556
-0.000142706
0.00114437
-0.000163686
0.00120765
-0.000204075
0.00129834
-0.000267327
0.00141609
-0.000344443
0.00148046
-0.00041093
0.00113296
-0.000634051
-0.00188569
-0.000535541
0.000775531
-0.00372601
-0.00318806
-0.00537865
-0.00217291
-0.0065041
-0.00133993
-0.00716065
-0.000806682
-0.00738575
-0.0003789
-0.00721583
1.86331e-05
-0.00673922
0.000482608
-0.00596415
0.000919171
-0.00488176
0.00134458
-0.00351262
0.00176987
-0.00189867
0.00211795
-8.39389e-05
0.00220276
0.00157243
0.0016878
0.00242545
0.000918809
0.00271655
0.000390819
0.00275333
0.000117788
0.00263181
-1.09177e-05
0.00245844
-6.51729e-05
0.00231159
-9.23325e-05
0.00220584
-0.000103024
0.00213422
-0.000106365
0.00208358
-0.000106169
0.00204194
-0.000103476
0.00200126
-9.88602e-05
0.00195766
-9.32442e-05
0.00191059
-8.79183e-05
0.00186176
-8.44062e-05
0.00181395
-8.44369e-05
0.00176996
-9.01026e-05
0.00173158
-0.000104197
0.00169866
-0.000130642
0.00166947
-0.000174764
0.0016454
-0.000243134
0.00164637
-0.0003453
0.00173832
-0.000502765
0.00188184
-0.000777462
1.20698e-05
0.00402545
0.000706568
0.00141168
-0.00184919
-0.00409361
-0.00550655
-0.00638682
-0.00683954
-0.00689465
-0.00648536
-0.00563918
-0.0043671
-0.00266906
-0.000622069
0.00151161
0.00313302
0.00398744
0.00431583
0.00437349
0.00430518
0.00418576
0.00404186
0.00388916
0.00373432
0.00358038
0.00342951
0.00328349
0.00314326
0.00300856
0.00287761
0.00274689
0.00261079
0.00246085
0.00228466
0.00206444
0.00177577
0.0013846
0.000835189
1.05712e-05
)
;

boundaryField
{
    floor
    {
        type            calculated;
        value           nonuniform List<scalar> 
29
(
0
0
0
0
0
0
0
0
0
0
0
0
0
0
0
0
0
0
0
0
-1.89151e-06
-3.72283e-06
8.56626e-07
5.03219e-06
1.83279e-06
-1.85784e-06
-3.18667e-06
-1.33691e-06
3.18551e-06
)
;
    }
    ceiling
    {
        type            calculated;
        value           nonuniform List<scalar> 
43
(
0.000167207
0.00016209
7.10009e-05
7.33181e-05
7.16852e-05
7.31669e-05
7.37474e-05
7.39836e-05
7.38987e-05
7.34815e-05
7.31466e-05
7.26627e-05
7.19905e-05
7.11252e-05
6.92284e-05
6.65338e-05
6.45315e-05
6.25736e-05
6.027e-05
5.7532e-05
5.43778e-05
5.17082e-05
4.98108e-05
4.86088e-05
4.79101e-05
4.75229e-05
4.72928e-05
4.71112e-05
4.69141e-05
4.66766e-05
4.64043e-05
4.61223e-05
4.58652e-05
4.56712e-05
4.55822e-05
4.56547e-05
4.5986e-05
4.67608e-05
4.72645e-05
4.71972e-05
2.13909e-05
1.82703e-05
3.18552e-05
)
;
    }
    sWall
    {
        type            calculated;
        value           uniform -6.35074e-05;
    }
    nWall
    {
        type            calculated;
        value           nonuniform List<scalar> 6(-1.60358e-05 -1.93546e-05 -1.44723e-05 -1.56667e-05 -1.5805e-05 -2.44541e-05);
    }
    sideWalls
    {
        type            empty;
        value           nonuniform 0();
    }
    glass1
    {
        type            calculated;
        value           nonuniform List<scalar> 9(-2.36382e-05 -6.69975e-05 -0.000107901 -0.000147505 -0.000186162 -0.000223872 -0.000259787 -0.000291883 -0.000316574);
    }
    glass2
    {
        type            calculated;
        value           nonuniform List<scalar> 2(-6.68264e-05 -7.47003e-05);
    }
    sun
    {
        type            calculated;
        value           uniform 0;
    }
    heatsource1
    {
        type            calculated;
        value           nonuniform List<scalar> 3(2.00572e-07 2.00592e-07 2.00667e-07);
    }
    heatsource2
    {
        type            calculated;
        value           nonuniform List<scalar> 4(4.89382e-08 4.934e-08 0 0);
    }
    Table_master
    {
        type            calculated;
        value           nonuniform List<scalar> 9(-1.52131e-07 -1.52176e-07 -1.5209e-07 -1.5199e-07 -1.51908e-07 -1.51837e-07 -1.51773e-07 -1.51711e-07 -1.51622e-07);
    }
    Table_slave
    {
        type            calculated;
        value           nonuniform List<scalar> 9(1.50592e-07 1.50569e-07 1.50559e-07 1.50557e-07 1.50568e-07 1.5059e-07 1.50621e-07 1.50663e-07 1.50699e-07);
    }
    inlet
    {
        type            calculated;
        value           uniform 0.000365307;
    }
    outlet
    {
        type            calculated;
        value           nonuniform List<scalar> 2(-0.0041287 0.00315725);
    }
}


// ************************************************************************* //
