/*--------------------------------*- C++ -*----------------------------------*\
  =========                 |
  \\      /  F ield         | OpenFOAM: The Open Source CFD Toolbox
   \\    /   O peration     | Website:  https://openfoam.org
    \\  /    A nd           | Version:  6
     \\/     M anipulation  |
\*---------------------------------------------------------------------------*/
FoamFile
{
    version     2.0;
    format      ascii;
    class       surfaceScalarField;
    location    "2200";
    object      phi;
}
// * * * * * * * * * * * * * * * * * * * * * * * * * * * * * * * * * * * * * //

dimensions      [1 0 -1 0 0 0 0];

internalField   nonuniform List<scalar> 
852
(
-0.0029855
0.00304117
-0.00409695
0.00111143
-0.00491286
0.000815884
-0.00551531
0.000602436
-0.00587188
0.000356548
-0.00595555
8.36525e-05
-0.00574254
-0.000213039
-0.00523042
-0.000512135
-0.00446576
-0.000764676
-0.0035379
-0.000927881
-0.0025534
-0.000984524
-0.00161938
-0.000934042
-0.000836999
-0.000782397
-0.000292272
-0.000544747
-0.000290772
-0.000789675
0.000792125
-0.000562157
-0.000227542
3.97623e-05
-0.000601943
0.000582227
-0.000542488
0.000976767
-0.000394563
0.00124449
-0.000267748
0.00139816
-0.000153694
0.00147443
-7.62901e-05
0.00151868
-4.428e-05
0.00154802
-2.93597e-05
0.00156699
-1.89953e-05
0.00157725
-1.02869e-05
0.00157698
2.4227e-07
0.00155744
1.95125e-05
0.00149486
6.25538e-05
0.00134851
0.000146328
0.00109697
0.000251515
0.000751887
0.000345054
0.000755065
-0.00213565
0.00532716
-0.00319041
0.00216617
-0.0040179
0.00164335
-0.00461132
0.00119584
-0.00496467
0.000709877
-0.00505644
0.000175405
-0.00486129
-0.000408207
-0.004388
-0.000985446
-0.00369743
-0.00145526
-0.00288481
-0.00174052
-0.00204605
-0.0018233
-0.00126514
-0.00171497
-0.000608828
-0.00143873
-0.00013248
-0.00102111
0.000141981
-0.000565253
0.000246676
-0.000104767
0.000246601
0.000175492
0.000623882
0.000621324
-0.000673397
0.000932116
-0.000912757
0.00118751
-0.000797907
0.001394
-0.000601071
0.00153201
-0.000405786
0.00156006
-0.000181764
0.00156681
-8.30647e-05
0.00157447
-5.19606e-05
0.00158083
-3.57442e-05
0.00158509
-2.32789e-05
0.00158762
-1.28462e-05
0.00158768
1.55656e-07
0.0015815
2.56679e-05
0.0015398
0.000104226
0.0013625
0.000323605
0.00105311
0.00056088
0.000652627
0.000745506
0.00141618
-0.00149381
0.00705146
-0.00238655
0.00305889
-0.00311439
0.00237117
-0.00362121
0.00170263
-0.00392397
0.00101262
-0.00399094
0.000242359
-0.00377531
-0.000623858
-0.00330312
-0.00145766
-0.00266027
-0.00209813
-0.00195022
-0.00245059
-0.00125052
-0.00252302
-0.0006168
-0.00234871
-8.21571e-05
-0.00197339
0.000335639
-0.00143893
0.000602269
-0.000831902
0.000655948
-0.000158466
0.000902528
0.00149809
-0.000866066
0.00173997
-0.0009153
0.00173275
-0.000905559
0.00174126
-0.000806441
0.00177641
-0.000636238
0.00183497
-0.000464368
0.00165333
0.0015704
0.00151857
0.00148295
0.0014598
0.00144709
0.00144737
0.00147317
0.00157752
0.00130555
0.000595553
0.000974723
0.000891677
0.000551663
0.00116854
0.00198097
-0.00103745
0.00838806
-0.00172812
0.00374954
-0.00220563
0.00284866
-0.00253281
0.00202978
-0.00271219
0.00119199
-0.00267869
0.000208834
-0.00237493
-0.000927641
-0.00188304
-0.00194957
-0.00130803
-0.00267316
-0.00074037
-0.00301827
-0.000222047
-0.00304136
0.000225349
-0.00279612
0.000597447
-0.0023455
0.000923181
-0.00176468
0.00121947
-0.00112821
0.00156616
-0.000505176
0.00248545
-1.6783e-05
0.00273019
-0.000237616
0.00241866
-0.000554553
0.0022487
-0.00074536
0.00207739
-0.000734265
0.00192718
-0.000656251
0.00182216
-0.000531241
0.00172031
-0.000362537
0.00186004
-0.000139903
0.00192462
-6.47569e-05
0.00196335
-3.89057e-05
0.00198292
-1.97449e-05
0.00197356
9.18615e-06
0.00191941
5.39728e-05
0.00179885
0.000120385
0.0015803
0.000218381
0.00120801
0.000372118
0.0010782
0.000725332
0.000807292
0.00116256
0.000407897
0.00156791
0.00240619
-0.000720569
0.00946634
-0.0012274
0.00425634
-0.00131848
0.00293973
-0.00136491
0.00207619
-0.00133082
0.00115788
-0.00106665
-5.53549e-05
-0.000608831
-0.00138548
-0.000119265
-0.00243915
0.000315223
-0.00310766
0.000664908
-0.00336797
0.000928288
-0.00330475
0.00112294
-0.00299079
0.00127795
-0.00250053
0.00142393
-0.00191068
0.00159171
-0.001296
0.00182781
-0.000741299
0.00217225
-0.000361241
0.00225771
-0.000323098
0.0021535
-0.00045036
0.00195327
-0.000545149
0.0017585
-0.000539512
0.00158333
-0.000481105
0.00144285
-0.000390778
0.00135281
-0.000272525
0.00136111
-0.000148223
0.00137918
-8.28468e-05
0.00139898
-5.87267e-05
0.0014207
-4.14839e-05
0.00143613
-6.26407e-06
0.00142994
6.01419e-05
0.00138601
0.000164294
0.00129136
0.000313012
0.00114485
0.000518599
0.00102313
0.000847033
0.000899083
0.00128658
0.000624816
0.00184215
0.000627233
0.00240374
-0.000922158
0.00154916
-0.00139078
0.00046839
-0.00134538
-0.000619376
0.0104929
-0.000944236
0.00458118
-0.000494146
0.00248962
-6.73007e-05
0.00164932
0.000391119
0.000699435
0.000974286
-0.000638543
0.00150142
-0.00191264
0.00187227
-0.00281002
0.00206667
-0.00330208
0.00212665
-0.00342797
0.00208387
-0.00326198
0.00197644
-0.00288338
0.00184747
-0.00237158
0.00173576
-0.00179899
0.00166936
-0.00122961
0.00166699
-0.000738949
0.00171098
-0.000405247
0.00167681
-0.000288954
0.00153735
-0.000310916
0.00133917
-0.000346992
0.00114568
-0.000346042
0.000978117
-0.000313559
0.000847635
-0.000260317
0.000767803
-0.000192714
0.000747566
-0.000128006
0.000761217
-9.65188e-05
0.000793904
-9.14346e-05
0.00084104
-8.86403e-05
0.00089896
-6.4205e-05
0.000954315
4.76594e-06
0.000992599
0.00012599
0.00101366
0.000291929
0.00102155
0.00051069
0.00105919
0.000809365
0.00117281
0.00117294
0.00137681
0.00163813
0.00183754
0.00194299
0.00210686
0.00127982
0.00171881
0.000856413
0.000428205
-0.00064591
0.0115911
-0.000475358
0.00441061
0.000743241
0.001271
0.00168178
0.000710762
0.00256656
-0.000185368
0.00335178
-0.00142379
0.00381122
-0.00237209
0.00394601
-0.00294482
0.00381559
-0.00317168
0.00349849
-0.00311088
0.0030682
-0.00283171
0.00259142
-0.00240662
0.00212756
-0.00190773
0.00172201
-0.00139346
0.00139727
-0.000904877
0.00116726
-0.00050896
0.00101574
-0.000253752
0.000879635
-0.000152864
0.000720123
-0.000151423
0.000547472
-0.000174361
0.000385933
-0.000184523
0.000249878
-0.000177524
0.000148091
-0.00015855
8.93669e-05
-0.000134011
7.66498e-05
-0.00011531
9.66609e-05
-0.000116551
0.000137737
-0.000132532
0.000197009
-0.000147933
0.000277534
-0.000144751
0.000383085
-0.000100805
0.000500234
8.81992e-06
0.000622911
0.000169231
0.00076431
0.00036927
0.000955779
0.000617874
0.00124312
0.000885576
0.00168435
0.00119688
0.00235571
0.0012716
0.00289936
0.000736133
0.00292077
0.000834985
0.00340816
0.00269945
0.00939785
0.00347042
0.00363963
0.00405246
0.000688938
0.00506602
-0.000302823
0.00599955
-0.00111892
0.00642109
-0.00184534
0.00637876
-0.00232978
0.00596156
-0.00252764
0.00527595
-0.00248608
0.0044336
-0.00226853
0.00353328
-0.0019314
0.0026551
-0.00152846
0.00186297
-0.00111561
0.00120077
-0.000731277
0.000679984
-0.000384112
0.000319581
-0.000148575
9.42329e-05
-2.84228e-05
-5.90677e-05
4.17008e-07
-0.000190291
-2.02194e-05
-0.000313777
-5.08957e-05
-0.000425283
-7.30376e-05
-0.000518096
-8.47316e-05
-0.00058669
-8.99764e-05
-0.000626701
-9.402e-05
-0.000638505
-0.000103526
-0.000631564
-0.000123512
-0.000613942
-0.000150174
-0.000586896
-0.000175
-0.000543565
-0.000188102
-0.000467372
-0.000177019
-0.000337155
-0.000121418
-0.000169212
1.26632e-06
3.31144e-05
0.000166922
0.000297074
0.000353892
0.000629748
0.00055288
0.001072
0.000754605
0.00157399
0.000769588
0.00179947
0.000510634
0.00107601
0.00155842
0.00472449
0.00995323
0.0135848
0.0125134
0.00176038
0.0118486
0.000361908
0.011035
-0.000305287
0.00993002
-0.000740389
0.0085775
-0.000977268
0.00709681
-0.00104695
0.00559217
-0.000981456
0.00415041
-0.000826779
0.00283452
-0.000615522
0.00168715
-0.000381106
0.000737097
-0.000165575
-5.08465e-06
1.08858e-05
-0.000505187
0.000115971
-0.000783793
0.00013001
-0.000929561
0.000117326
-0.00101652
8.73512e-05
-0.0010872
5.04438e-05
-0.00115607
1.79519e-05
-0.00122335
-5.77516e-06
-0.00128518
-2.29229e-05
-0.00133825
-3.69289e-05
-0.00138177
-5.05237e-05
-0.00141895
-6.63599e-05
-0.00145888
-8.36064e-05
-0.0015115
-9.75766e-05
-0.00158589
-0.000100628
-0.0016912
-8.28206e-05
-0.00183813
-3.0104e-05
-0.00202918
6.96077e-05
-0.00225424
0.000226307
-0.00254507
0.000457731
-0.00297272
0.000781518
-0.00361939
0.00119953
-0.0045542
0.00168939
-0.00589698
0.00211235
-0.00754834
0.00216197
-0.00712535
0.0011354
-0.00213608
0.00463876
0.00334416
0.00355075
0.00144994
0.00373942
-0.000493954
0.00360408
-0.000605052
0.00306118
-0.000434371
0.00230616
-0.000291945
0.00145275
-0.00012806
0.000571453
5.44991e-05
-0.000243812
0.000199725
-0.000888584
0.000263648
-0.00132462
0.000270445
-0.00157906
0.000265299
-0.00170516
0.00024205
-0.00177875
0.000203587
-0.001825
0.00016355
-0.00186353
0.000125862
-0.00190528
9.21797e-05
-0.00195169
6.43353e-05
-0.00200007
4.25872e-05
-0.00204876
2.57463e-05
-0.00209844
1.27293e-05
-0.00215094
1.95286e-06
-0.00220946
-7.85907e-06
-0.0022779
-1.51903e-05
-0.00235926
-1.6236e-05
-0.0024543
-5.6167e-06
-0.00255922
2.20843e-05
-0.00266533
7.59809e-05
-0.00276368
0.000167941
-0.0028542
0.000316803
-0.00294026
0.000543764
-0.00302373
0.000864969
-0.00309685
0.00127262
-0.0031147
0.00170722
-0.00303099
0.00202862
-0.00266418
0.00179514
-0.00140501
-0.000123793
-0.00347267
-0.000373265
0.00378717
0.000280132
0.00079655
-0.000379639
0.000165817
-0.00101807
3.3365e-05
-0.00152967
7.72215e-05
-0.00196275
0.000141122
-0.00229519
0.00020436
-0.00249987
0.000259164
-0.00259464
0.000294468
-0.0026255
0.00029449
-0.00261916
0.000264086
-0.00258189
0.000228006
-0.00253296
0.000193102
-0.00249108
0.000161687
-0.00246352
0.000135974
-0.00245283
0.000115146
-0.00245861
9.79417e-05
-0.00247794
8.36468e-05
-0.00250718
7.18036e-05
-0.00254341
6.1958e-05
-0.00258434
5.36359e-05
-0.00262845
4.60362e-05
-0.00267562
3.92962e-05
-0.00272384
3.30064e-05
-0.0027686
2.8502e-05
-0.00280286
2.86228e-05
-0.00282053
3.97289e-05
-0.00281293
6.83614e-05
-0.00276715
0.000122139
-0.00266226
0.00021189
-0.00247048
0.000351956
-0.00216574
0.000560208
-0.00172449
0.00083135
-0.0011108
0.0010935
-0.000160472
0.00107827
0.00113022
0.00050443
0.00160697
-0.000600567
-0.00179097
0.0013292
-0.00999946
-0.00617152
-0.00535821
-0.00518442
-0.00514718
-0.00506856
-0.00492796
-0.00472576
-0.00447022
-0.00418077
-0.00389265
-0.00363614
-0.00341672
-0.00323304
-0.00308144
-0.00295609
-0.00285204
-0.00276561
-0.00269383
-0.00263419
-0.00258465
-0.00254365
-0.0025104
-0.002484
-0.00246393
-0.00244832
-0.00243247
-0.00240531
-0.00234922
-0.00223899
-0.00203862
-0.00169774
-0.00114817
-0.000327026
0.000756659
0.00182514
0.00231943
0.00170816
)
;

boundaryField
{
    floor
    {
        type            calculated;
        value           nonuniform List<scalar> 
29
(
0
0
0
0
0
0
0
0
0
0
0
0
0
0
0
0
0
0
0
0
-3.20517e-06
-8.51218e-06
-1.3156e-05
-1.73498e-05
-1.52194e-06
-2.47511e-06
-7.27395e-06
-8.16133e-06
-7.14275e-06
)
;
    }
    ceiling
    {
        type            calculated;
        value           nonuniform List<scalar> 
43
(
-1.7902e-05
-3.8161e-05
-4.07729e-05
-1.67805e-05
-7.98566e-06
-3.89451e-06
-1.41947e-06
5.0337e-07
2.13766e-06
3.6092e-06
5.00305e-06
6.34282e-06
7.55542e-06
8.57496e-06
9.39754e-06
1.00608e-05
1.06094e-05
1.10783e-05
1.14869e-05
1.18419e-05
1.21455e-05
1.24e-05
1.26079e-05
1.2768e-05
1.28736e-05
1.29142e-05
1.28768e-05
1.27523e-05
1.25397e-05
1.22486e-05
1.18939e-05
1.14914e-05
1.10575e-05
1.06118e-05
1.01866e-05
9.79324e-06
9.77185e-06
1.01104e-05
1.06868e-05
1.21519e-05
1.10114e-05
8.00494e-06
-6.97402e-05
)
;
    }
    sWall
    {
        type            calculated;
        value           uniform -0.00022457;
    }
    nWall
    {
        type            calculated;
        value           nonuniform List<scalar> 6(-4.56288e-05 -5.47969e-05 -5.92134e-05 -6.84401e-05 -7.47576e-05 -9.49859e-05);
    }
    sideWalls
    {
        type            empty;
        value           nonuniform 0();
    }
    glass1
    {
        type            calculated;
        value           nonuniform List<scalar> 9(-5.56919e-05 -0.000150357 -0.000230513 -0.000299166 -0.000357731 -0.000407237 -0.000452227 -0.00050627 -0.000566411);
    }
    glass2
    {
        type            calculated;
        value           nonuniform List<scalar> 2(-0.000240345 -0.000264795);
    }
    sun
    {
        type            calculated;
        value           uniform 0;
    }
    heatsource1
    {
        type            calculated;
        value           nonuniform List<scalar> 3(2.03735e-07 2.03705e-07 2.03727e-07);
    }
    heatsource2
    {
        type            calculated;
        value           nonuniform List<scalar> 4(5.11236e-08 5.11914e-08 0 0);
    }
    Table_master
    {
        type            calculated;
        value           nonuniform List<scalar> 9(-1.52831e-07 -1.5294e-07 -1.52975e-07 -1.52998e-07 -1.53013e-07 -1.53022e-07 -1.53026e-07 -1.53016e-07 -1.52979e-07);
    }
    Table_slave
    {
        type            calculated;
        value           nonuniform List<scalar> 9(1.52691e-07 1.52727e-07 1.52714e-07 1.52705e-07 1.52704e-07 1.52707e-07 1.52727e-07 1.52772e-07 1.52852e-07);
    }
    inlet
    {
        type            calculated;
        value           uniform -0.00622253;
    }
    outlet
    {
        type            calculated;
        value           nonuniform List<scalar> 2(-0.00108674 0.0113668);
    }
}


// ************************************************************************* //
