/*--------------------------------*- C++ -*----------------------------------*\
  =========                 |
  \\      /  F ield         | OpenFOAM: The Open Source CFD Toolbox
   \\    /   O peration     | Website:  https://openfoam.org
    \\  /    A nd           | Version:  6
     \\/     M anipulation  |
\*---------------------------------------------------------------------------*/
FoamFile
{
    version     2.0;
    format      ascii;
    class       surfaceScalarField;
    location    "600";
    object      phi;
}
// * * * * * * * * * * * * * * * * * * * * * * * * * * * * * * * * * * * * * //

dimensions      [1 0 -1 0 0 0 0];

internalField   nonuniform List<scalar> 
852
(
-0.00227329
0.00230459
-0.002813
0.000540104
-0.00275202
-6.05736e-05
-0.0024099
-0.000341719
-0.00184736
-0.000562134
-0.00138589
-0.000461093
-0.00103974
-0.000345779
-0.00077179
-0.000267606
-0.000556697
-0.000214766
-0.000383278
-0.000173114
-0.000245793
-0.000137204
-0.000135283
-0.000110254
-2.97951e-05
-0.000105252
0.000113151
-0.000142716
0.000108389
0.000136927
-0.000138336
6.81336e-06
0.000130486
-8.18444e-06
1.53396e-05
4.67455e-05
-5.45764e-05
0.000153055
-0.000105965
0.000278285
-0.000124903
0.000385
-0.0001064
0.000491053
-0.000105746
0.000577712
-8.63588e-05
0.000646469
-6.84607e-05
0.00070157
-5.48077e-05
0.00075543
-5.35654e-05
0.000823405
-6.76785e-05
0.00084515
-2.14416e-05
0.00079685
4.86063e-05
0.000598953
0.000198206
0.000335028
0.000264236
-4.38136e-05
0.000379154
-4.52761e-05
-0.000978126
0.00336537
-0.00181015
0.00137258
-0.00204604
0.000175777
-0.0018689
-0.000518405
-0.00145537
-0.000975245
-0.00120129
-0.000714759
-0.00101891
-0.000527769
-0.000885692
-0.000400448
-0.000795751
-0.000304351
-0.000743376
-0.00022515
-0.000718554
-0.000161703
-0.000701849
-0.00012665
-0.000667457
-0.000139345
-0.000601421
-0.000208471
-0.00022918
-0.000263632
0.000119277
-0.000348169
0.000119752
-3.85831e-05
-0.000105768
8.02231e-05
1.21394e-05
-3.04062e-06
9.90532e-05
-0.000122146
6.49438e-05
-0.000239824
1.20894e-05
-0.000425803
6.14412e-05
-0.000128028
-0.000403788
7.29537e-06
-0.000240685
7.19661e-05
-0.000150653
0.000105505
-0.000101631
0.000118634
-6.75754e-05
0.000103421
-3.79985e-05
4.29319e-05
-6.8408e-06
-4.18751e-05
6.37041e-05
-0.000100783
0.000107843
-0.000107344
0.000205094
-8.12559e-05
0.000238461
3.41172e-06
0.000294789
-4.8574e-05
0.00387821
-0.000397205
0.00321367
0.00203794
0.00143482
0.00195533
-0.00010655
0.00102353
-0.000815643
-0.0002657
-0.000959254
-0.000570713
-0.000963379
-0.000523226
-0.000964155
-0.000399268
-0.000994345
-0.000273768
-0.0010573
-0.00016181
-0.00114447
-7.41549e-05
-0.00123815
-3.25871e-05
-0.0013229
-5.42061e-05
-0.00139144
-0.000139518
-0.00137735
-0.000277285
-0.00117726
-0.000547767
-0.00105698
-0.000565778
0.000446782
-0.000600711
4.76706e-05
-0.000528535
2.74462e-05
-0.000484633
2.15977e-05
-0.000473779
1.7865e-06
-0.000314101
-9.76884e-05
-0.000717338
-0.00095747
-0.00110756
-0.00120864
-0.00127566
-0.00131311
-0.00131942
-0.00125519
-0.00114683
-0.000667699
-0.000273649
-0.000253974
-0.000174913
7.26856e-05
-3.1575e-05
9.87022e-06
0.000761966
-0.00116046
0.00115601
0.00164422
0.000741272
0.00237047
-6.98255e-05
0.00183502
-0.000706819
0.000371708
-0.000905458
-0.000371609
-0.000987778
-0.000440449
-0.00107476
-0.000311838
-0.00119045
-0.000157634
-0.00133366
-1.81396e-05
-0.00148944
8.21e-05
-0.00164908
0.000127542
-0.00181255
0.000109775
-0.0019788
2.72599e-05
-0.00213031
-0.000125226
-0.00232074
-0.000356736
-0.00278748
-0.000589578
-0.00261263
-0.000197278
-0.00219651
3.13949e-05
-0.00220773
5.9621e-05
-0.00229236
0.000112814
-0.00239652
0.000126491
-0.00249758
0.000103602
-0.00264704
5.2522e-05
-0.00267774
3.13287e-05
-0.00266597
-1.11365e-05
-0.0026183
-4.70286e-05
-0.00254186
-7.57966e-05
-0.0024383
-0.00010291
-0.00230505
-0.000132602
-0.00213531
-0.000169101
-0.00191399
-0.000220678
-0.00160297
-0.000310404
-0.00139105
-0.000484825
-0.000927109
-0.000638116
-0.000152535
-0.000805417
-0.000169684
0.000721519
-0.00192553
0.00115113
0.00121477
0.000896662
0.00262521
8.1813e-05
0.0026502
-0.000726804
0.00118076
-0.000935534
-0.000162358
-0.00106149
-0.000313975
-0.00120729
-0.000165536
-0.00136743
3.03272e-06
-0.00152146
0.000136424
-0.00166181
0.000223001
-0.00179526
0.00026155
-0.0019316
0.000246703
-0.00207701
0.000173283
-0.00223819
3.65955e-05
-0.00245645
-0.000137804
-0.00279992
-0.000245405
-0.00283996
-0.000156517
-0.00278288
-2.49383e-05
-0.00276018
3.7694e-05
-0.00273409
8.75065e-05
-0.00271077
0.000103962
-0.00269329
8.69289e-05
-0.00268786
4.79128e-05
-0.00265918
3.47429e-06
-0.00262423
-4.52573e-05
-0.0025812
-8.92131e-05
-0.00252882
-0.000127327
-0.00246834
-0.000162532
-0.00240207
-0.000198007
-0.00233289
-0.000237409
-0.00226526
-0.000287422
-0.00221649
-0.00035829
-0.00225689
-0.000443529
-0.00238369
-0.000510393
-0.00269521
-0.000492958
-0.00249445
-0.000369469
-0.00217243
-0.00032119
-0.0018734
-0.000298188
-0.00190564
0.00115834
-0.00315367
0.0022164
0.000157224
0.00208928
0.00275274
0.000950252
0.00378968
-0.000346653
0.00247817
-0.000840563
0.000332096
-0.00111674
-3.72206e-05
-0.00134378
6.21064e-05
-0.00152355
0.000183405
-0.0016551
0.000268589
-0.00175329
0.000321822
-0.00183402
0.000342927
-0.00191383
0.000327177
-0.0020075
0.000267628
-0.00213194
0.000161747
-0.00230024
3.12309e-05
-0.0024887
-5.61863e-05
-0.00258569
-5.87569e-05
-0.00259257
-1.72608e-05
-0.00256809
1.40359e-05
-0.00251877
3.9006e-05
-0.00246033
4.63655e-05
-0.00240424
3.16835e-05
-0.00235445
-1.01442e-06
-0.00230735
-4.27552e-05
-0.00226364
-8.80925e-05
-0.00222004
-0.000131931
-0.00217354
-0.000172926
-0.00212322
-0.000211948
-0.00206971
-0.000250607
-0.00201495
-0.000291241
-0.00196354
-0.000337896
-0.00192649
-0.000394395
-0.00191562
-0.000453446
-0.00193338
-0.000491653
-0.0019402
-0.000485149
-0.00180008
-0.000508575
-0.00145682
-0.000663412
-0.000976798
-0.000777155
-0.0029158
0.00136354
-0.00460405
0.00327894
-0.00175713
0.00325068
0.00278182
0.00168646
0.00535461
0.000224035
0.00394129
-0.000629156
0.00118593
-0.00115465
0.000488947
-0.00146003
0.000368171
-0.00162462
0.000348704
-0.00170005
0.00034473
-0.00171921
0.000341712
-0.00170774
0.000332209
-0.00168873
0.000308915
-0.00168337
0.000263038
-0.00171113
0.000190293
-0.00178129
0.000102192
-0.00186524
2.85962e-05
-0.00191731
-5.84645e-06
-0.00192195
-1.17584e-05
-0.00189738
-9.6674e-06
-0.0018504
-7.08716e-06
-0.00179132
-1.18267e-05
-0.00173112
-2.76124e-05
-0.0016775
-5.37273e-05
-0.00163172
-8.76235e-05
-0.00159242
-0.000126467
-0.00155645
-0.000166966
-0.00152058
-0.000207863
-0.00148218
-0.000249402
-0.00143917
-0.000292663
-0.00138985
-0.000339596
-0.00133337
-0.000393396
-0.00126949
-0.000457286
-0.00119227
-0.000529672
-0.00108296
-0.000599947
-0.000908702
-0.000658384
-0.000675484
-0.000740753
-0.000408136
-0.000929704
2.82319e-05
-0.00121245
-0.00292275
0.000107365
-0.00480707
0.00247973
-0.00412829
0.00274071
0.00252191
0.000573019
0.00752318
-0.000340157
0.00485516
-0.00100016
0.0018467
-0.00138906
0.000878628
-0.00156459
0.00054451
-0.00159529
0.000380224
-0.00153511
0.000285393
-0.00142348
0.000230943
-0.00128523
0.000194822
-0.00114264
0.000167207
-0.0010169
0.000138173
-0.000926976
0.000101264
-0.000881456
5.75729e-05
-0.000867668
1.57243e-05
-0.000859396
-1.31849e-05
-0.000841468
-2.87418e-05
-0.000812673
-3.75105e-05
-0.000774172
-4.46316e-05
-0.00073051
-5.45268e-05
-0.000687642
-6.95152e-05
-0.000649912
-9.04891e-05
-0.000619347
-0.000117217
-0.000596088
-0.000148749
-0.000578359
-0.000183713
-0.000563638
-0.000221598
-0.000549207
-0.000262839
-0.00053215
-0.000308718
-0.000509194
-0.000361542
-0.00047653
-0.000425042
-0.000428436
-0.000504353
-0.000351927
-0.000605143
-0.000216387
-0.000734436
3.75672e-05
-0.000911273
0.000477164
-0.00117927
0.00110313
-0.00155458
0.00166452
-0.00177274
-0.00152899
-0.00495416
-0.00911836
-0.00426282
-0.00233239
-0.00280547
0.0060667
-0.00200618
0.00405665
-0.00176987
0.00161128
-0.00154224
0.000651919
-0.00129936
0.000302558
-0.00103127
0.000113078
-0.000753875
8.96887e-06
-0.000479084
-4.28625e-05
-0.00022071
-6.25524e-05
1.40083e-05
-6.65039e-05
0.000214414
-6.12165e-05
0.000370638
-5.39403e-05
0.000480552
-5.13168e-05
0.000548966
-5.166e-05
0.000589401
-5.25799e-05
0.000614569
-5.28661e-05
0.000633642
-5.55376e-05
0.0006517
-6.16439e-05
0.000669617
-7.14013e-05
0.000685107
-8.39639e-05
0.00069582
-0.000100163
0.000700154
-0.000120511
0.000697423
-0.000144978
0.000688099
-0.000173347
0.000673367
-0.000205821
0.00065483
-0.000243253
0.000634456
-0.000287291
0.000614628
-0.000340657
0.000598273
-0.000407622
0.000589601
-0.000494609
0.000596536
-0.000610996
0.000634498
-0.000771306
0.000726015
-0.00100169
0.000902611
-0.00135475
0.0012644
-0.00191524
0.0020043
-0.00251152
0.000160148
-0.00946093
0.00377237
-0.00592078
0.00252764
-0.00291357
0.00105044
-0.00111947
-0.000181748
-7.93298e-05
-0.000387178
0.000571714
-0.000347457
0.00102941
-0.00034357
0.00136526
-0.000325806
0.0016232
-0.000299711
0.00182869
-0.000266951
0.0019935
-0.000230195
0.00212427
-0.000190868
0.00222351
-0.000152052
0.00229109
-0.000117766
0.00233035
-8.97914e-05
0.00234767
-6.87603e-05
0.00234832
-5.2383e-05
0.0023391
-4.51838e-05
0.0023249
-4.63058e-05
0.00230796
-5.3345e-05
0.00228761
-6.24877e-05
0.00226305
-7.44849e-05
0.00223316
-8.95129e-05
0.0021969
-0.000107606
0.00215364
-0.00012898
0.00210315
-0.000154226
0.00204545
-0.000184441
0.00198063
-0.000221361
0.00190864
-0.000267556
0.00182886
-0.000326733
0.00173946
-0.000404084
0.00163628
-0.00050669
0.00151036
-0.000644256
0.00134094
-0.00083112
0.00107556
-0.00108823
0.000578704
-0.00141724
-0.000541457
-0.00139023
-0.000446602
-0.000158542
0.00388381
0.00310939
-0.000739059
0.00412417
3.6877e-05
0.00419218
-0.000248556
0.0043026
-0.000496415
0.00446578
-0.000509476
0.00456497
-0.000441597
0.00461164
-0.00037132
0.00461894
-0.000305856
0.00459461
-0.000241453
0.00454473
-0.000179135
0.00447761
-0.000122551
0.00440206
-7.5297e-05
0.00432501
-3.9509e-05
0.00425165
-1.52135e-05
0.00418486
-7.64816e-07
0.0041268
6.89158e-06
0.00407475
8.06888e-06
0.00402481
4.84245e-06
0.00397364
-9.78991e-07
0.00391991
-7.56806e-06
0.00386175
-1.51383e-05
0.00379709
-2.3673e-05
0.00372416
-3.34987e-05
0.00364147
-4.51158e-05
0.00354763
-5.92128e-05
0.00344106
-7.67092e-05
0.00331967
-9.87959e-05
0.00318026
-0.000126985
0.00301786
-0.000163168
0.00282463
-0.000209678
0.00258848
-0.000269377
0.0022911
-0.000345703
0.00190403
-0.00044287
0.00138979
-0.000572821
0.000767879
-0.000794158
0.000172098
-0.000793302
-0.000348975
-0.000194565
0.00862394
0.0124264
0.0116043
0.0115535
0.0112119
0.0106166
0.0100022
0.00944952
0.00896135
0.00853347
0.00816574
0.00785736
0.00760408
0.00739803
0.00722891
0.00708599
0.00695974
0.00684341
0.00673032
0.00661577
0.00649687
0.00637269
0.00624207
0.00610395
0.00595694
0.0057992
0.0056282
0.0054405
0.00523148
0.004995
0.00472302
0.00440518
0.00402825
0.00357561
0.00302652
0.00234849
0.00145107
0.000552572
)
;

boundaryField
{
    floor
    {
        type            calculated;
        value           nonuniform List<scalar> 
29
(
0
0
0
0
0
0
0
0
0
0
0
0
0
0
0
0
0
0
0
0
1.76596e-06
7.00789e-06
1.46427e-05
2.76448e-05
4.95171e-06
1.80048e-06
6.51285e-06
1.38015e-05
2.3129e-05
)
;
    }
    ceiling
    {
        type            calculated;
        value           nonuniform List<scalar> 
43
(
0.000171702
0.000138616
8.24717e-05
8.42753e-05
8.8852e-05
9.42288e-05
0.000100075
0.000106179
0.00011226
0.000118043
0.000123227
0.000127474
0.000130454
0.000131953
0.000131994
0.000130857
0.000128971
0.000126765
0.000124506
0.000122452
0.00012069
0.000119202
0.0001179
0.000116751
0.000115718
0.00011477
0.000113882
0.000113038
0.000112231
0.000111461
0.00011073
0.000110042
0.000109396
0.000108779
0.000108155
0.00010744
0.000106419
0.000104469
0.000106371
0.000111815
4.80609e-05
3.71457e-05
4.88411e-05
)
;
    }
    sWall
    {
        type            calculated;
        value           uniform 6.57375e-05;
    }
    nWall
    {
        type            calculated;
        value           nonuniform List<scalar> 6(3.31176e-05 3.44569e-05 3.62937e-05 6.64045e-05 7.55755e-05 9.29228e-05);
    }
    sideWalls
    {
        type            empty;
        value           nonuniform 0();
    }
    glass1
    {
        type            calculated;
        value           nonuniform List<scalar> 9(-3.09051e-05 -8.22294e-05 -0.00011462 2.00829e-06 4.43777e-05 7.0861e-05 8.80323e-05 9.68869e-05 0.000100264);
    }
    glass2
    {
        type            calculated;
        value           nonuniform List<scalar> 2(0.0002719 0.000316321);
    }
    sun
    {
        type            calculated;
        value           uniform 0;
    }
    heatsource1
    {
        type            calculated;
        value           nonuniform List<scalar> 3(1.91714e-07 1.91727e-07 1.91877e-07);
    }
    heatsource2
    {
        type            calculated;
        value           nonuniform List<scalar> 4(4.91171e-08 4.93302e-08 0 0);
    }
    Table_master
    {
        type            calculated;
        value           nonuniform List<scalar> 9(-1.49461e-07 -1.49269e-07 -1.49066e-07 -1.48882e-07 -1.48705e-07 -1.48529e-07 -1.48349e-07 -1.48154e-07 -1.47859e-07);
    }
    Table_slave
    {
        type            calculated;
        value           nonuniform List<scalar> 9(1.45164e-07 1.45125e-07 1.45093e-07 1.45077e-07 1.45075e-07 1.45087e-07 1.45116e-07 1.45169e-07 1.45231e-07);
    }
    inlet
    {
        type            calculated;
        value           uniform 0.0033581;
    }
    outlet
    {
        type            calculated;
        value           nonuniform List<scalar> 2(-4.21598e-05 -0.00895618);
    }
}


// ************************************************************************* //
