/*--------------------------------*- C++ -*----------------------------------*\
  =========                 |
  \\      /  F ield         | OpenFOAM: The Open Source CFD Toolbox
   \\    /   O peration     | Website:  https://openfoam.org
    \\  /    A nd           | Version:  6
     \\/     M anipulation  |
\*---------------------------------------------------------------------------*/
FoamFile
{
    version     2.0;
    format      ascii;
    class       surfaceScalarField;
    location    "760";
    object      phi;
}
// * * * * * * * * * * * * * * * * * * * * * * * * * * * * * * * * * * * * * //

dimensions      [1 0 -1 0 0 0 0];

internalField   nonuniform List<scalar> 
852
(
-0.00248571
0.00252927
-0.00329507
0.000809357
-0.00395796
0.000662887
-0.00450885
0.000550887
-0.00491714
0.000408286
-0.00516172
0.00024458
-0.00521996
5.82342e-05
-0.00506714
-0.000152828
-0.00468833
-0.000378803
-0.00409936
-0.000588982
-0.00334762
-0.000751735
-0.00249991
-0.000847715
-0.00163095
-0.000868962
-0.000809849
-0.000821106
-0.000813176
0.000170135
-0.000175027
0.000506229
-0.000336097
0.000924118
-0.000417891
0.00126103
-0.000336911
0.00150256
-0.00024154
0.00166064
-0.000158077
0.00173761
-7.69756e-05
0.00176296
-2.53548e-05
0.00176814
-5.18518e-06
0.00176411
4.0265e-06
0.00175281
1.12999e-05
0.0017331
1.97099e-05
0.00169927
3.38288e-05
0.00163587
6.33925e-05
0.00150691
0.000128955
0.00125016
0.000256748
0.000809115
0.000441046
7.31029e-05
0.00073601
6.6269e-05
-0.00180345
0.00445059
-0.00263255
0.00163845
-0.0033346
0.00136494
-0.00388437
0.00110065
-0.00428786
0.000811773
-0.004536
0.00049272
-0.00460706
0.000129284
-0.00447555
-0.000284341
-0.00413177
-0.000722583
-0.00360334
-0.00111741
-0.00295025
-0.00140483
-0.0022488
-0.00154917
-0.00157933
-0.00153843
-0.00102124
-0.0013792
-0.000777651
-0.00105677
-0.000216683
-0.000561021
-0.000216737
4.92336e-05
-0.000236401
0.000755623
-0.00104249
0.00112376
-0.000786029
0.00138117
-0.000594329
0.00156977
-0.000430144
0.00169117
-0.000279478
0.00171771
-0.000103512
0.00172567
-3.33209e-05
0.001733
-1.25232e-05
0.00173883
-1.8023e-06
0.00174242
7.7053e-06
0.00174369
1.84346e-05
0.00174141
3.61135e-05
0.00173034
7.44604e-05
0.00167388
0.000185405
0.00145347
0.000477156
0.00107471
0.000819803
0.000662946
0.00114777
0.00071093
-0.0012959
0.00592727
-0.00203775
0.0023803
-0.00267801
0.00200519
-0.00315999
0.00158263
-0.0035219
0.00117368
-0.00375558
0.000726399
-0.00383129
0.000204991
-0.0037081
-0.000407533
-0.00337374
-0.00105694
-0.00287524
-0.00161592
-0.00228295
-0.00199711
-0.0016665
-0.00216562
-0.00108991
-0.00211502
-0.000609807
-0.0018593
-0.000267401
-0.00139918
-2.92159e-06
-0.000825504
-0.000219661
0.00105675
-0.00131021
0.0011378
-0.00112354
0.00133464
-0.000982872
0.00148804
-0.000747737
0.00159752
-0.000539621
0.00169908
-0.000381038
0.00159571
0.00156254
0.00155016
0.00154851
0.00155636
0.00157495
0.00161121
0.00168582
0.00187137
0.00165173
0.00069679
0.00138309
0.00108845
0.000982991
0.00154786
0.00166502
-0.000938286
0.0071001
-0.00155464
0.00299666
-0.00200462
0.00245516
-0.00234775
0.00192577
-0.00261854
0.00144446
-0.00280277
0.000910631
-0.00286043
0.000262647
-0.00272289
-0.000545069
-0.00238022
-0.00139962
-0.00191652
-0.00207962
-0.00140551
-0.00250812
-0.000898999
-0.00267214
-0.000433911
-0.00258011
-2.1976e-05
-0.00227124
0.000356098
-0.00177725
0.000751989
-0.0012214
0.00131011
-0.000777785
0.00204155
-0.000748499
0.00180566
-0.00107432
0.00166676
-0.000984652
0.00153691
-0.000853018
0.0014765
-0.000687338
0.00146053
-0.000523651
0.00143932
-0.000359828
0.00161628
-0.000177117
0.00174419
-0.000128063
0.00185982
-0.000115781
0.00196742
-0.000107752
0.00205881
-9.15468e-05
0.00211674
-5.80834e-05
0.0021107
5.88236e-06
0.00199673
0.000113822
0.00170507
0.000291504
0.00170038
0.000701479
0.001598
0.00119082
0.00139231
0.00175356
0.00301978
-0.000681222
0.00806175
-0.00117469
0.00349013
-0.00132265
0.00260312
-0.00146617
0.00206928
-0.00159531
0.0015736
-0.00167949
0.000994806
-0.00166988
0.000253037
-0.00147449
-0.000740458
-0.0011236
-0.00175052
-0.000734327
-0.0024689
-0.000357478
-0.00288497
-1.69056e-05
-0.00301271
0.000278129
-0.00287515
0.000533731
-0.00252685
0.000793643
-0.00203717
0.00108701
-0.00151477
0.00140688
-0.00109765
0.0016107
-0.000952327
0.00146197
-0.000925589
0.00132437
-0.000847053
0.00120313
-0.000731783
0.0011222
-0.000606412
0.00108399
-0.000485441
0.00109355
-0.000369391
0.00118843
-0.000271999
0.00129135
-0.000230992
0.00139597
-0.000220404
0.00150041
-0.000212194
0.00159906
-0.000190201
0.00168206
-0.000141087
0.00173449
-4.65488e-05
0.00173983
0.000108482
0.00170053
0.000330795
0.00173715
0.000664865
0.00188832
0.00103964
0.00240217
0.0012397
0.00369788
0.00172407
0.00244119
0.00125649
0.00147751
0.000963472
0.00151898
-0.00060226
0.0089835
-0.000961461
0.00384932
-0.000679632
0.00232129
-0.000545175
0.00193482
-0.00049776
0.00152618
-0.000444777
0.000941821
-0.000265328
7.35843e-05
5.27976e-05
-0.00105859
0.00036354
-0.00206126
0.000613293
-0.00271865
0.000791603
-0.00306328
0.000903267
-0.00312438
0.000969911
-0.0029418
0.00101488
-0.00257182
0.00106412
-0.00208641
0.0011313
-0.00158195
0.00119777
-0.00116412
0.00116671
-0.000921275
0.001031
-0.000789884
0.000876522
-0.000692576
0.000743829
-0.000599093
0.000651492
-0.000514078
0.000607147
-0.000441099
0.000616792
-0.000379038
0.000679312
-0.000334523
0.00076693
-0.000318613
0.000864295
-0.000317772
0.000965472
-0.000313374
0.00106751
-0.000292242
0.00116919
-0.000242767
0.00127099
-0.000148356
0.00136442
1.50521e-05
0.00144768
0.000247528
0.00157741
0.000535135
0.00178647
0.000830573
0.00201869
0.00100747
0.00233153
0.00141123
0.00204328
0.00154474
0.00124377
0.00176298
0.00280662
-0.000733479
0.0100711
-0.000670684
0.00378653
0.000147017
0.00150358
0.000549194
0.00153264
0.000784255
0.00129111
0.00108195
0.00064412
0.00147602
-0.000320483
0.00181614
-0.00139871
0.00198836
-0.00223348
0.00202361
-0.0027539
0.00194449
-0.00298417
0.00178466
-0.00296455
0.00158166
-0.0027388
0.00136891
-0.00235907
0.00117144
-0.00188894
0.00100212
-0.00141264
0.00085243
-0.00101443
0.000686896
-0.000755745
0.000506717
-0.000609707
0.000335621
-0.000521483
0.00019772
-0.000461195
0.000103443
-0.000419804
5.56773e-05
-0.000393336
5.47628e-05
-0.000378127
9.42163e-05
-0.000373979
0.000157331
-0.000381731
0.000231311
-0.000391757
0.000310538
-0.000392604
0.000394122
-0.000375829
0.000486525
-0.000335173
0.000599598
-0.000261433
0.000746873
-0.000132227
0.000915979
7.84184e-05
0.00110467
0.000346439
0.00132062
0.000614617
0.00149697
0.000831121
0.00172683
0.00118137
0.00184254
0.00142902
0.00156265
0.00204287
0.00441537
0.00197749
0.00848886
0.00250632
0.0032577
0.00250728
0.00150262
0.00265478
0.00138513
0.00285596
0.00108993
0.00324183
0.00025825
0.00366005
-0.000738708
0.00381435
-0.00155301
0.00370158
-0.00212071
0.003393
-0.00244532
0.00296001
-0.00255117
0.00246374
-0.00246828
0.0019546
-0.00222966
0.00147196
-0.00187643
0.00103984
-0.00145683
0.000674252
-0.00104705
0.000373186
-0.00071337
0.000124933
-0.000507496
-8.29588e-05
-0.000401818
-0.000251844
-0.000352602
-0.000380104
-0.000332938
-0.00047043
-0.000329481
-0.00052675
-0.00033702
-0.000552623
-0.000352257
-0.000553332
-0.000373275
-0.0005377
-0.000397366
-0.000512362
-0.000417098
-0.000481367
-0.000423604
-0.000447532
-0.000409667
-0.000409977
-0.000372732
-0.000354397
-0.000317017
-0.000244874
-0.000241753
-5.79232e-05
-0.000108536
0.000174518
0.000113995
0.000413827
0.000375304
0.000607585
0.000637359
0.000840734
0.00094822
0.00105175
0.001218
0.00062531
0.0024693
0.00523472
0.0088941
0.0121223
0.0102831
0.00334177
0.00906767
0.00260061
0.00825789
0.00189971
0.00766212
0.00085401
0.00696141
-3.79958e-05
0.00613286
-0.000724459
0.00524329
-0.00123115
0.00434212
-0.00154415
0.00345857
-0.00166762
0.00261515
-0.00162487
0.00183483
-0.00144934
0.00114554
-0.00118715
0.000561742
-0.000873034
9.67715e-05
-0.000582085
-0.00024542
-0.000371181
-0.000489191
-0.000263729
-0.000670321
-0.000220691
-0.000813108
-0.000209818
-0.000928947
-0.000217101
-0.00102446
-0.000233971
-0.00110489
-0.000256596
-0.00117388
-0.000283266
-0.00123425
-0.000312911
-0.0012886
-0.000343022
-0.00133824
-0.000367456
-0.00138536
-0.00037649
-0.00143777
-0.000357258
-0.00151377
-0.000296738
-0.0016355
-0.000195291
-0.001813
-6.42513e-05
-0.00204283
0.000121286
-0.00232587
0.00039703
-0.00273229
0.000781722
-0.0034013
0.00130637
-0.00446995
0.00201687
-0.00601732
0.00276537
-0.00633955
0.00279154
-0.000895897
0.00394008
0.00361828
0.00390118
0.00263952
0.00469602
0.00110488
0.00498495
0.000565082
0.00483951
0.000107453
0.00448534
-0.00037028
0.00394545
-0.000691262
0.00326211
-0.000860801
0.00249489
-0.000900407
0.00170312
-0.000833098
0.00094044
-0.00068666
0.000263437
-0.000510154
-0.000273617
-0.000335984
-0.000644038
-0.000211668
-0.000881264
-0.00013396
-0.00104573
-9.92707e-05
-0.00117213
-9.42885e-05
-0.00128175
-0.000100202
-0.00138499
-0.000113867
-0.00148822
-0.000130741
-0.00159612
-0.000148702
-0.00171223
-0.000167157
-0.00183893
-0.000186214
-0.00197653
-0.000205427
-0.00212189
-0.000222101
-0.00226861
-0.000229774
-0.00241
-0.000215873
-0.00254749
-0.000159249
-0.00268768
-5.51033e-05
-0.00283288
8.09445e-05
-0.00296951
0.00025791
-0.00308679
0.000514309
-0.00318353
0.00087846
-0.00324771
0.00137054
-0.00323286
0.00200201
-0.00302399
0.00255649
-0.00134177
0.00110932
-0.00219232
0.000509759
0.00309409
0.00205343
0.00109585
0.00263184
0.000526481
0.00285475
0.00034218
0.00282196
0.000140247
0.00251675
-6.50717e-05
0.00207085
-0.000245358
0.00150448
-0.000294439
0.000884165
-0.000280096
0.000285757
-0.000234697
-0.000230176
-0.000170734
-0.000642376
-9.79591e-05
-0.00094136
-3.70047e-05
-0.00114906
-3.96764e-06
-0.00129117
8.13954e-06
-0.00139766
7.21599e-06
-0.00149016
-1.79437e-06
-0.00157627
-1.40932e-05
-0.00166321
-2.69286e-05
-0.00175454
-3.94155e-05
-0.00185277
-5.04738e-05
-0.00196109
-5.8846e-05
-0.00208423
-6.30741e-05
-0.00222799
-6.16644e-05
-0.00239673
-5.3366e-05
-0.00258922
-3.72935e-05
-0.00279202
-1.30761e-05
-0.00297304
2.1769e-05
-0.00309726
6.91173e-05
-0.0031573
0.000140977
-0.00314323
0.000243836
-0.00301449
0.000385571
-0.00272176
0.000585722
-0.00220073
0.000849514
-0.00125688
0.00105816
0.000323931
0.000975677
0.00141555
1.76967e-05
-0.000730913
-0.00368289
-0.0049529
-0.00188242
-0.000819218
-0.000331354
-3.0916e-05
6.54166e-05
-4.54527e-05
-0.000338089
-0.000680805
-0.00100975
-0.00129378
-0.00151451
-0.00166343
-0.00175249
-0.00180951
-0.00185515
-0.00190226
-0.00195879
-0.00202791
-0.00211008
-0.00220489
-0.00231086
-0.00242526
-0.00254398
-0.00266152
-0.00277124
-0.00286577
-0.00293739
-0.00297576
-0.00296856
-0.00289136
-0.00271309
-0.00239469
-0.0018774
-0.00109722
-0.00010911
0.000795734
0.000744246
)
;

boundaryField
{
    floor
    {
        type            calculated;
        value           nonuniform List<scalar> 
29
(
0
0
0
0
0
0
0
0
0
0
0
0
0
0
0
0
0
0
0
0
6.83264e-06
1.82822e-05
2.88984e-05
3.75465e-05
3.32456e-06
4.88943e-06
1.21379e-05
1.70531e-05
1.70589e-05
)
;
    }
    ceiling
    {
        type            calculated;
        value           nonuniform List<scalar> 
43
(
2.85952e-05
2.53616e-05
2.3615e-05
3.26495e-05
3.86205e-05
4.17449e-05
4.3916e-05
4.57807e-05
4.72643e-05
4.82654e-05
4.88452e-05
4.93259e-05
4.99899e-05
5.09472e-05
5.20535e-05
5.30535e-05
5.37757e-05
5.43169e-05
5.47338e-05
5.5023e-05
5.524e-05
5.53919e-05
5.5487e-05
5.55513e-05
5.56451e-05
5.58697e-05
5.63563e-05
5.72302e-05
5.85393e-05
6.01388e-05
6.19165e-05
6.37705e-05
6.55629e-05
6.71623e-05
6.84336e-05
6.93318e-05
7.0042e-05
7.08299e-05
6.91813e-05
7.13337e-05
3.61542e-05
2.94989e-05
1.44313e-05
)
;
    }
    sWall
    {
        type            calculated;
        value           uniform -0.00021749;
    }
    nWall
    {
        type            calculated;
        value           nonuniform List<scalar> 6(-4.16696e-05 -4.38826e-05 -4.61083e-05 -4.53454e-05 -4.58659e-05 -5.80037e-05);
    }
    sideWalls
    {
        type            empty;
        value           nonuniform 0();
    }
    glass1
    {
        type            calculated;
        value           nonuniform List<scalar> 9(-4.35592e-05 -0.00011787 -0.000180787 -0.000234542 -0.000280434 -0.000319495 -0.000354088 -0.000395289 -0.000441393);
    }
    glass2
    {
        type            calculated;
        value           nonuniform List<scalar> 2(-0.000194042 -0.000208939);
    }
    sun
    {
        type            calculated;
        value           uniform 0;
    }
    heatsource1
    {
        type            calculated;
        value           nonuniform List<scalar> 3(2.0032e-07 2.00867e-07 2.01272e-07);
    }
    heatsource2
    {
        type            calculated;
        value           nonuniform List<scalar> 4(5.0364e-08 5.04776e-08 0 0);
    }
    Table_master
    {
        type            calculated;
        value           nonuniform List<scalar> 9(-1.50803e-07 -1.50886e-07 -1.50908e-07 -1.50922e-07 -1.50928e-07 -1.50929e-07 -1.50923e-07 -1.50906e-07 -1.50852e-07);
    }
    Table_slave
    {
        type            calculated;
        value           nonuniform List<scalar> 9(1.50737e-07 1.50749e-07 1.50713e-07 1.50678e-07 1.50648e-07 1.5063e-07 1.50633e-07 1.50642e-07 1.50691e-07);
    }
    inlet
    {
        type            calculated;
        value           uniform -0.00421659;
    }
    outlet
    {
        type            calculated;
        value           nonuniform List<scalar> 2(0.00387179 0.00124465);
    }
}


// ************************************************************************* //
