/*--------------------------------*- C++ -*----------------------------------*\
  =========                 |
  \\      /  F ield         | OpenFOAM: The Open Source CFD Toolbox
   \\    /   O peration     | Website:  https://openfoam.org
    \\  /    A nd           | Version:  6
     \\/     M anipulation  |
\*---------------------------------------------------------------------------*/
FoamFile
{
    version     2.0;
    format      ascii;
    class       volVectorField;
    location    "760";
    object      U;
}
// * * * * * * * * * * * * * * * * * * * * * * * * * * * * * * * * * * * * * //

dimensions      [0 1 -1 0 0 0 0];

internalField   nonuniform List<vector> 
459
(
(0.0362469 0.0723407 0)
(-0.14063 0.0201339 0)
(-0.158891 0.0153521 0)
(-0.185622 0.0114968 0)
(-0.206541 0.00700444 0)
(-0.220894 0.00216307 0)
(-0.227568 -0.003102 0)
(-0.225096 -0.0088684 0)
(-0.212875 -0.0151483 0)
(-0.191167 -0.021268 0)
(-0.161537 -0.0263876 0)
(-0.126656 -0.029897 0)
(-0.0893832 -0.0315022 0)
(-0.0512701 -0.0315009 0)
(-0.0119326 -0.0320076 0)
(-0.105852 0.00412467 0)
(0.0380291 -0.0124789 0)
(0.0370192 -0.0136015 0)
(0.0466801 -0.0113043 0)
(0.059335 -0.00849255 0)
(0.0690221 -0.00584301 0)
(0.0744483 -0.00336994 0)
(0.0765609 -0.00201702 0)
(0.0769225 -0.00151412 0)
(0.0766978 -0.00131768 0)
(0.0762796 -0.00116104 0)
(0.0756214 -0.000951191 0)
(0.0745175 -0.000575094 0)
(0.0725398 0.000222681 0)
(0.0687414 0.00204048 0)
(0.0612579 0.00590979 0)
(0.0501047 0.0116735 0)
(-0.0115674 0.0228603 0)
(0.116602 -0.00886355 0)
(0.190957 0.148871 0)
(-0.135774 0.0535949 0)
(-0.130421 0.0445695 0)
(-0.158514 0.0366861 0)
(-0.179219 0.027472 0)
(-0.193604 0.0170797 0)
(-0.200726 0.00514585 0)
(-0.199031 -0.00854357 0)
(-0.188003 -0.0231667 0)
(-0.168373 -0.036629 0)
(-0.142134 -0.0468413 0)
(-0.112284 -0.0524784 0)
(-0.0822369 -0.0529485 0)
(-0.0557683 -0.0482159 0)
(-0.0365739 -0.0382763 0)
(-0.0230095 -0.0187644 0)
(-0.00936452 0.00462557 0)
(-0.131842 -0.000995529 0)
(0.0434088 -0.0347171 0)
(0.0448379 -0.0287991 0)
(0.0537995 -0.0216554 0)
(0.0638153 -0.0153118 0)
(0.071144 -0.00950893 0)
(0.074643 -0.00319991 0)
(0.0752447 0.000344307 0)
(0.0751222 0.00175904 0)
(0.0752252 0.00235267 0)
(0.075452 0.00273137 0)
(0.0756023 0.00313779 0)
(0.0756104 0.00383607 0)
(0.0753999 0.00535359 0)
(0.0743042 0.00897608 0)
(0.0693108 0.0183986 0)
(0.0608129 0.0285887 0)
(0.00493981 0.0407019 0)
(0.163646 0.0235901 0)
(0.332569 0.223653 0)
(-0.154948 0.0868885 0)
(-0.0998812 0.0729445 0)
(-0.128076 0.0580628 0)
(-0.146577 0.0426013 0)
(-0.159997 0.0256258 0)
(-0.167162 0.0062222 0)
(-0.165668 -0.0158853 0)
(-0.154693 -0.0391957 0)
(-0.135817 -0.0598283 0)
(-0.111606 -0.074386 0)
(-0.0850862 -0.0811711 0)
(-0.0590739 -0.0797081 0)
(-0.0362592 -0.0703111 0)
(-0.0180756 -0.0533185 0)
(-0.00404519 -0.0303587 0)
(0.00350165 -0.00283556 0)
(-0.0165163 -0.0431508 0)
(0.0441624 -0.0470989 0)
(0.0571135 -0.0405242 0)
(0.0616297 -0.0310959 0)
(0.0667471 -0.0226167 0)
(0.071141 -0.0163381 0)
(0.0726734 -0.0122822 0)
(0.0696094 -0.00825065 0)
(0.0673078 -0.00616028 0)
(0.0667768 -0.00501443 0)
(0.0671194 -0.00423848 0)
(0.067806 -0.00358786 0)
(0.0689674 -0.00281667 0)
(0.0714124 -0.00142095 0)
(0.0770759 0.00312922 0)
(0.0779175 0.0244585 0)
(0.0720869 0.0415064 0)
(0.0168889 0.0590482 0)
(0.191557 0.0573503 0)
(0.459578 0.28445 0)
(-0.188672 0.117443 0)
(-0.0667134 0.097591 0)
(-0.0951769 0.0766084 0)
(-0.109022 0.0568752 0)
(-0.119708 0.0350507 0)
(-0.125845 0.00909966 0)
(-0.123225 -0.0217084 0)
(-0.111008 -0.0541927 0)
(-0.0927321 -0.0814885 0)
(-0.0712785 -0.0994696 0)
(-0.0492488 -0.10688 0)
(-0.0282915 -0.103777 0)
(-0.00988551 -0.0912847 0)
(0.00721193 -0.0696745 0)
(0.0232071 -0.0452808 0)
(0.0438261 -0.0282806 0)
(0.0746591 -0.0804556 0)
(0.08443 -0.0604665 0)
(0.0776574 -0.0502441 0)
(0.0693892 -0.0419753 0)
(0.0646012 -0.0326779 0)
(0.0630222 -0.0240787 0)
(0.0628213 -0.0158633 0)
(0.0654806 -0.00972845 0)
(0.0721716 -0.00761458 0)
(0.0782493 -0.00650611 0)
(0.0831928 -0.00580678 0)
(0.0874259 -0.00510675 0)
(0.0907268 -0.00411001 0)
(0.0922348 -0.00246382 0)
(0.0899698 0.00038254 0)
(0.0813919 0.00499934 0)
(0.0740549 0.0288674 0)
(0.0761117 0.0502303 0)
(0.0306766 0.0734112 0)
(0.208569 0.109253 0)
(0.569327 0.332288 0)
(-0.227823 0.143497 0)
(-0.0325919 0.11279 0)
(-0.060249 0.0882436 0)
(-0.0674916 0.0662038 0)
(-0.0732972 0.0413486 0)
(-0.0766074 0.0103262 0)
(-0.0695664 -0.0285317 0)
(-0.0549525 -0.0694122 0)
(-0.0387492 -0.100761 0)
(-0.022313 -0.1197 0)
(-0.00726416 -0.126243 0)
(0.00628382 -0.120919 0)
(0.0175027 -0.106231 0)
(0.0282405 -0.0849236 0)
(0.0399736 -0.0614705 0)
(0.0542238 -0.0422496 0)
(0.0662813 -0.0367275 0)
(0.0684745 -0.0383701 0)
(0.0614147 -0.0375572 0)
(0.0544852 -0.033525 0)
(0.0498214 -0.0277079 0)
(0.0473117 -0.0217125 0)
(0.0468107 -0.0158175 0)
(0.0489306 -0.0100904 0)
(0.0534808 -0.00751445 0)
(0.0582592 -0.00672399 0)
(0.062837 -0.00629121 0)
(0.0672339 -0.00541772 0)
(0.0712016 -0.0035071 0)
(0.0743009 0.00018687 0)
(0.0758738 0.00618402 0)
(0.0750996 0.0151999 0)
(0.0744469 0.0315748 0)
(0.0828283 0.0500795 0)
(0.0685395 0.0678841 0)
(0.151799 0.107402 0)
(0.141853 0.0867206 0)
(0.118698 0.0641193 0)
(-0.129835 0.0653512 0)
(0.649225 0.372947 0)
(-0.265312 0.162323 0)
(-0.00529627 0.112271 0)
(-0.0239041 0.0921978 0)
(-0.0236218 0.0706937 0)
(-0.0233838 0.0447262 0)
(-0.0219163 0.0103432 0)
(-0.00307934 -0.0386021 0)
(0.012796 -0.0855658 0)
(0.0237205 -0.11583 0)
(0.0321303 -0.132231 0)
(0.0376917 -0.136081 0)
(0.0409133 -0.129007 0)
(0.0427693 -0.113335 0)
(0.0444355 -0.0921479 0)
(0.046939 -0.0697898 0)
(0.0504645 -0.0512978 0)
(0.051993 -0.041653 0)
(0.0485337 -0.0381436 0)
(0.041588 -0.0340624 0)
(0.0348131 -0.0291905 0)
(0.0297527 -0.0243787 0)
(0.0267728 -0.020062 0)
(0.0260624 -0.0161872 0)
(0.0277026 -0.01306 0)
(0.0311578 -0.0118856 0)
(0.0352871 -0.0117003 0)
(0.0396247 -0.0114474 0)
(0.0440264 -0.010487 0)
(0.0484001 -0.00826701 0)
(0.0526844 -0.00400014 0)
(0.0573422 0.00323767 0)
(0.0610609 0.0134491 0)
(0.0651835 0.0270858 0)
(0.0742812 0.0414995 0)
(0.0740866 0.0495521 0)
(0.101665 0.0691106 0)
(0.0992142 0.057033 0)
(0.111198 0.0557651 0)
(-0.136029 0.0951121 0)
(0.689459 0.409422 0)
(-0.285575 0.152122 0)
(0.015629 0.0752297 0)
(0.0224553 0.0816538 0)
(0.028529 0.0692171 0)
(0.0349958 0.0397963 0)
(0.0532004 -0.00538263 0)
(0.0749366 -0.0565739 0)
(0.0865082 -0.0964796 0)
(0.0898226 -0.122095 0)
(0.0877095 -0.134399 0)
(0.0816322 -0.135092 0)
(0.073023 -0.126064 0)
(0.0634574 -0.109656 0)
(0.0542582 -0.0887842 0)
(0.046354 -0.0673107 0)
(0.0398511 -0.0492624 0)
(0.0335086 -0.0377195 0)
(0.0260436 -0.0313228 0)
(0.0181115 -0.026803 0)
(0.0111861 -0.0231695 0)
(0.00606229 -0.0203474 0)
(0.00297657 -0.0182484 0)
(0.00197718 -0.0167077 0)
(0.0029348 -0.0158156 0)
(0.00529029 -0.0158275 0)
(0.0083185 -0.0161387 0)
(0.0116515 -0.0160921 0)
(0.0151652 -0.0152369 0)
(0.0188937 -0.0131803 0)
(0.0230829 -0.00933972 0)
(0.0284409 -0.00266893 0)
(0.0360681 0.00749044 0)
(0.0436845 0.0195429 0)
(0.0533194 0.0314891 0)
(0.0586069 0.0390399 0)
(0.0719904 0.0536689 0)
(0.0769429 0.0614166 0)
(0.120306 0.0804235 0)
(-0.113743 0.152991 0)
(0.784168 0.416341 0)
(-0.0885873 0.126122 0)
(0.0804794 0.00378884 0)
(0.124566 0.0102866 0)
(0.123468 0.013993 0)
(0.126138 -0.0126339 0)
(0.152016 -0.048405 0)
(0.16716 -0.0792066 0)
(0.167184 -0.102811 0)
(0.156373 -0.117521 0)
(0.138942 -0.123033 0)
(0.117842 -0.119939 0)
(0.0953266 -0.109415 0)
(0.0733377 -0.0932551 0)
(0.0532713 -0.0737605 0)
(0.0360969 -0.0542537 0)
(0.021909 -0.0380575 0)
(0.010429 -0.0275163 0)
(0.000600586 -0.0216726 0)
(-0.00768112 -0.0185554 0)
(-0.0140881 -0.0169304 0)
(-0.0188071 -0.0161768 0)
(-0.0219499 -0.0160312 0)
(-0.0236717 -0.0163221 0)
(-0.0241698 -0.0169846 0)
(-0.0237882 -0.0179382 0)
(-0.0228838 -0.018835 0)
(-0.0216629 -0.0192711 0)
(-0.0202504 -0.0189244 0)
(-0.0187211 -0.0176039 0)
(-0.0169355 -0.0152371 0)
(-0.0141776 -0.0115261 0)
(-0.00792249 -0.00537699 0)
(0.00330624 0.00386017 0)
(0.0135967 0.0123825 0)
(0.0209183 0.0171267 0)
(0.0318831 0.0246905 0)
(0.0409019 0.0295818 0)
(0.119869 0.0840649 0)
(-0.373101 0.220616 0)
(0.912008 0.411229 0)
(0.43676 0.285505 0)
(0.434409 0.196878 0)
(0.425634 0.139518 0)
(0.382222 0.098708 0)
(0.347508 0.0546515 0)
(0.319433 0.00833776 0)
(0.285209 -0.0329763 0)
(0.247464 -0.0634274 0)
(0.208103 -0.0816872 0)
(0.16887 -0.0889412 0)
(0.130989 -0.0871895 0)
(0.0953792 -0.0784203 0)
(0.0631915 -0.0647619 0)
(0.0353417 -0.0483426 0)
(0.0129347 -0.0323653 0)
(-0.00456086 -0.0196703 0)
(-0.0166555 -0.0128186 0)
(-0.0255657 -0.00977054 0)
(-0.0324888 -0.00866133 0)
(-0.0380226 -0.00857579 0)
(-0.0425476 -0.00905212 0)
(-0.0463137 -0.00989446 0)
(-0.0495102 -0.0109925 0)
(-0.0522816 -0.0122728 0)
(-0.05476 -0.0136225 0)
(-0.0570267 -0.0148127 0)
(-0.0591213 -0.0155833 0)
(-0.0612093 -0.0157237 0)
(-0.0638213 -0.0150819 0)
(-0.0678821 -0.0134172 0)
(-0.0742622 -0.00977527 0)
(-0.0835068 -0.00202779 0)
(-0.0940083 0.0104326 0)
(-0.107707 0.0273112 0)
(-0.131132 0.0501991 0)
(-0.163583 0.0812734 0)
(-0.206221 0.117589 0)
(-0.277041 0.151718 0)
(-0.553058 0.172554 0)
(-0.229506 0.0924117 0)
(0.135269 0.0964901 0)
(0.220477 0.0656845 0)
(0.219127 0.0318711 0)
(0.211746 0.00285447 0)
(0.202744 -0.0216602 0)
(0.184473 -0.04063 0)
(0.157665 -0.0526048 0)
(0.125444 -0.057646 0)
(0.090895 -0.0564928 0)
(0.0565122 -0.0499203 0)
(0.0249779 -0.0392985 0)
(-0.00229139 -0.0259847 0)
(-0.0216457 -0.0143138 0)
(-0.0340426 -0.00660083 0)
(-0.0423175 -0.00261361 0)
(-0.0483738 -0.00104767 0)
(-0.053352 -0.000710321 0)
(-0.0578866 -0.00101974 0)
(-0.0623077 -0.00155384 0)
(-0.0668413 -0.00206607 0)
(-0.0716629 -0.00238829 0)
(-0.0769093 -0.00235854 0)
(-0.0826558 -0.00173988 0)
(-0.0888514 -0.000151808 0)
(-0.0952686 0.0029109 0)
(-0.101563 0.0079717 0)
(-0.107565 0.0152348 0)
(-0.113577 0.0235828 0)
(-0.120142 0.0303397 0)
(-0.126379 0.0357615 0)
(-0.131602 0.043126 0)
(-0.135856 0.0550208 0)
(-0.138725 0.0731769 0)
(-0.137626 0.0967375 0)
(-0.129363 0.112076 0)
(-0.117584 0.0748967 0)
(-0.175309 -0.172986 0)
(-0.177278 0.141888 0)
(0.109415 0.0683509 0)
(0.117495 0.0034334 0)
(0.11971 -0.0302257 0)
(0.121835 -0.0563292 0)
(0.117435 -0.0737002 0)
(0.101399 -0.0776204 0)
(0.0785941 -0.0778228 0)
(0.0521637 -0.0764749 0)
(0.0251263 -0.0743665 0)
(-0.000205878 -0.0729441 0)
(-0.0205256 -0.0742604 0)
(-0.0354712 -0.077269 0)
(-0.0461404 -0.0802846 0)
(-0.0534252 -0.0825353 0)
(-0.0585956 -0.0848721 0)
(-0.0627355 -0.0870078 0)
(-0.0665151 -0.0883992 0)
(-0.0702272 -0.0896083 0)
(-0.0740586 -0.0908205 0)
(-0.0781337 -0.0922551 0)
(-0.0825723 -0.0942198 0)
(-0.0875541 -0.0971026 0)
(-0.0933365 -0.101295 0)
(-0.100192 -0.107013 0)
(-0.108219 -0.113992 0)
(-0.117018 -0.121024 0)
(-0.125507 -0.125452 0)
(-0.132313 -0.125253 0)
(-0.136584 -0.118384 0)
(-0.137901 -0.104024 0)
(-0.134871 -0.0826435 0)
(-0.124928 -0.054783 0)
(-0.105266 -0.0221531 0)
(-0.0749179 0.0101338 0)
(-0.0388945 0.0260846 0)
(0.0799304 -0.0891549 0)
(-0.129663 -0.155233 0)
(0.235268 -0.164396 0)
(-0.245484 -0.0498477 0)
(-0.170491 0.190551 0)
(-0.0235959 0.173354 0)
(-0.0281461 0.194781 0)
(-0.00945166 0.226964 0)
(0.000507521 0.254321 0)
(0.00031084 0.264341 0)
(-0.00691824 0.252954 0)
(-0.0218561 0.248762 0)
(-0.0371658 0.249699 0)
(-0.0507987 0.253935 0)
(-0.0617861 0.259988 0)
(-0.0695674 0.267335 0)
(-0.0745181 0.275604 0)
(-0.0775366 0.282871 0)
(-0.0795558 0.287563 0)
(-0.0814484 0.291112 0)
(-0.0836679 0.293345 0)
(-0.0863683 0.293779 0)
(-0.0896422 0.293566 0)
(-0.0934957 0.293065 0)
(-0.0978808 0.292715 0)
(-0.102702 0.293131 0)
(-0.107805 0.295112 0)
(-0.112974 0.299513 0)
(-0.117953 0.306954 0)
(-0.12247 0.317327 0)
(-0.126235 0.329148 0)
(-0.128846 0.338976 0)
(-0.129819 0.344881 0)
(-0.128307 0.345801 0)
(-0.122912 0.341709 0)
(-0.111662 0.334121 0)
(-0.0925796 0.325158 0)
(-0.0656519 0.318423 0)
(-0.0341933 0.319029 0)
(0.0100249 0.329036 0)
(0.128404 0.405117 0)
(-0.291489 0.413417 0)
)
;

boundaryField
{
    floor
    {
        type            noSlip;
    }
    ceiling
    {
        type            noSlip;
    }
    sWall
    {
        type            noSlip;
    }
    nWall
    {
        type            noSlip;
    }
    sideWalls
    {
        type            empty;
    }
    glass1
    {
        type            noSlip;
    }
    glass2
    {
        type            noSlip;
    }
    sun
    {
        type            noSlip;
    }
    heatsource1
    {
        type            noSlip;
    }
    heatsource2
    {
        type            noSlip;
    }
    Table_master
    {
        type            noSlip;
    }
    Table_slave
    {
        type            noSlip;
    }
    inlet
    {
        type            fixedValue;
        value           uniform (0.2 0 0);
    }
    outlet
    {
        type            zeroGradient;
    }
}


// ************************************************************************* //
