/*--------------------------------*- C++ -*----------------------------------*\
  =========                 |
  \\      /  F ield         | OpenFOAM: The Open Source CFD Toolbox
   \\    /   O peration     | Website:  https://openfoam.org
    \\  /    A nd           | Version:  6
     \\/     M anipulation  |
\*---------------------------------------------------------------------------*/
FoamFile
{
    version     2.0;
    format      ascii;
    class       volScalarField;
    location    "380";
    object      nut;
}
// * * * * * * * * * * * * * * * * * * * * * * * * * * * * * * * * * * * * * //

dimensions      [0 2 -1 0 0 0 0];

internalField   nonuniform List<scalar> 
459
(
0.000968676
0.0010664
0.00110231
0.00115946
0.00121273
0.0012644
0.00131813
0.00136617
0.00140093
0.00141568
0.00140367
0.00135925
0.00127469
0.00108976
0.000883402
0.000593705
0.000698354
0.000667725
0.000714643
0.000687608
0.000648209
0.000590032
0.000533741
0.000485594
0.000445363
0.000411582
0.000382869
0.000358018
0.000336518
0.000317036
0.000298395
0.000285958
0.000311143
0.000435565
0.00126421
0.00307424
0.00294538
0.00340298
0.00388544
0.00436068
0.00473901
0.00508574
0.00542654
0.00573401
0.00596968
0.00609111
0.00603642
0.00566806
0.00417847
0.00110018
0.000818896
0.000898472
0.00265851
0.00242522
0.0024679
0.00251764
0.00239506
0.00169605
0.00136972
0.00115592
0.00100321
0.000889662
0.000803231
0.0007372
0.000674119
0.000610842
0.000558353
0.000623715
0.000737386
0.000540503
0.00151016
0.00416156
0.00368013
0.00433625
0.00468618
0.00494623
0.00515094
0.00538763
0.00569719
0.00608265
0.0065037
0.0069009
0.00715449
0.00710831
0.00645425
0.00450922
0.00110047
0.00102969
0.00319615
0.00281883
0.00288218
0.00302748
0.00285475
0.000871022
0.000734446
0.000628784
0.000546767
0.000482415
0.000431365
0.000390589
0.000358845
0.000335805
0.000383744
0.000565361
0.00091739
0.000620618
0.00174472
0.00514298
0.00369435
0.00448732
0.00463149
0.00464278
0.00469333
0.00483556
0.00510527
0.00554194
0.00608495
0.00666398
0.00710278
0.007343
0.00724143
0.00635813
0.00365953
0.00127347
0.00195073
0.00237058
0.00288362
0.0033752
0.00373257
0.00355373
0.00097956
0.000878045
0.000801103
0.000739644
0.000687212
0.000639784
0.000594473
0.000548749
0.000498983
0.000450711
0.000552398
0.00102809
0.000688458
0.00198554
0.00640674
0.00384315
0.00436216
0.00449443
0.00437214
0.00434049
0.00442788
0.00465997
0.0051333
0.00573252
0.00633678
0.00682394
0.00713459
0.00723298
0.00699272
0.00604768
0.00504421
0.00486407
0.00496782
0.00515783
0.00532979
0.00541369
0.00527458
0.00446659
0.00399083
0.00363137
0.00329877
0.00297373
0.00264245
0.00229255
0.0019131
0.00150046
0.00110743
0.000876036
0.00094753
0.000882477
0.000686987
0.000818237
0.00120077
0.00224637
0.00785558
0.00495696
0.00425509
0.00448618
0.00441739
0.00430023
0.00432197
0.00452176
0.00497417
0.00560514
0.00624235
0.00673299
0.0070141
0.00711508
0.00709209
0.00694979
0.00685182
0.00687394
0.00692728
0.00694179
0.00688692
0.00675105
0.00651076
0.00611013
0.00566788
0.00521303
0.00475885
0.00430199
0.00383462
0.00334763
0.00283557
0.00230728
0.00181563
0.00145453
0.00115238
0.000965046
0.00110939
0.0017733
0.00160825
0.00249666
0.00894323
0.00693274
0.00512667
0.00488509
0.00476279
0.0044947
0.00437358
0.00454927
0.00505121
0.00575446
0.00644316
0.00694378
0.00720057
0.00728884
0.00735925
0.00752272
0.00774616
0.00790609
0.00793323
0.00782598
0.00761061
0.00731168
0.00694752
0.00652438
0.00607464
0.005615
0.00515045
0.00468093
0.00420441
0.00371967
0.0032308
0.00275349
0.00232471
0.00198322
0.00162902
0.00114998
0.00170743
0.00332232
0.00214615
0.00256176
0.00824856
0.007092
0.00622738
0.0056951
0.00501596
0.00449521
0.00435875
0.00467005
0.00535907
0.00621017
0.00696046
0.00745537
0.00768378
0.00776786
0.00785951
0.00800419
0.00810547
0.00809873
0.00795783
0.00769444
0.00733629
0.0069148
0.00647145
0.00602656
0.00559495
0.00518012
0.00478088
0.00439755
0.00403337
0.00369417
0.00338674
0.00311519
0.00287596
0.00263912
0.00233232
0.00173755
0.00233742
0.00573388
0.00290127
0.0025123
0.00302094
0.00334392
0.00343454
0.00339685
0.00339442
0.0035852
0.00411263
0.00498987
0.00607496
0.00708969
0.00779421
0.00816043
0.00825897
0.0082195
0.00802235
0.00779994
0.00761661
0.00741249
0.00714616
0.00681719
0.00644787
0.00606682
0.00570465
0.0053785
0.00509539
0.00485495
0.00465544
0.00449673
0.00437929
0.00430149
0.00425602
0.00422562
0.00417783
0.00405879
0.00380157
0.00322043
0.00354902
0.00735136
0.00322206
0.00116949
0.00182431
0.00242121
0.00327781
0.00435401
0.00552262
0.00669065
0.00773902
0.00841025
0.00861544
0.00853355
0.00821378
0.00784543
0.00755195
0.00733549
0.00716028
0.00698856
0.0068043
0.00661086
0.00641942
0.00624163
0.00608693
0.00596061
0.00586535
0.0058026
0.00577376
0.00578017
0.00582169
0.0058944
0.00598714
0.00607652
0.00611994
0.00604518
0.00579365
0.00533681
0.00543558
0.00763976
0.00271333
0.00141764
0.00263228
0.00430691
0.00590703
0.00691413
0.00776937
0.00857481
0.00928341
0.00947091
0.00914414
0.0086075
0.00814883
0.00783272
0.00764289
0.00753624
0.00747206
0.00742264
0.00737387
0.00732133
0.00726649
0.00721359
0.00716751
0.00713274
0.00711344
0.00711321
0.00713514
0.0071817
0.00725412
0.00735079
0.00746387
0.00757179
0.00762423
0.00752508
0.00719069
0.0066656
0.00627664
0.00591269
0.00226141
0.00131408
0.00140849
0.00150722
0.00170485
0.001812
0.00185898
0.00194594
0.00202131
0.00206761
0.00207111
0.0020299
0.00197776
0.0019219
0.0018789
0.00185324
0.00183979
0.0018338
0.00183138
0.00183005
0.00182861
0.00182676
0.00182472
0.0018229
0.00182172
0.00182155
0.00182265
0.00182524
0.00182948
0.00183545
0.0018431
0.00185202
0.00186094
0.00186678
0.0018642
0.00185168
0.00184376
0.00187863
0.0019757
0.00206194
0.00186925
)
;

boundaryField
{
    floor
    {
        type            nutkWallFunction;
        Cmu             0.09;
        kappa           0.41;
        E               9.8;
        value           nonuniform List<scalar> 
29
(
0.000106905
7.15631e-05
8.45266e-05
8.07606e-05
8.65247e-05
8.32093e-05
7.83495e-05
7.11074e-05
6.40173e-05
5.78803e-05
5.26945e-05
4.8295e-05
4.45199e-05
4.12234e-05
3.83479e-05
3.5722e-05
3.31897e-05
3.14886e-05
3.49208e-05
5.1419e-05
5.14189e-05
6.48684e-05
7.49194e-05
8.3309e-05
0.000106905
7.15631e-05
0.000108703
0.000124211
0.000152442
)
;
    }
    ceiling
    {
        type            nutkWallFunction;
        Cmu             0.09;
        kappa           0.41;
        E               9.8;
        value           nonuniform List<scalar> 
43
(
0.000157059
0.000167782
0.000178913
0.000200974
0.000212825
0.000218005
0.000227545
0.000235773
0.000240812
0.000241194
0.000236715
0.000231035
0.000224931
0.00022022
0.000217404
0.000215927
0.000215268
0.000215003
0.000214857
0.000214699
0.000214496
0.000214272
0.000214071
0.000213941
0.000213922
0.000214043
0.000214329
0.000214795
0.000215452
0.000216293
0.000217274
0.000218254
0.000218895
0.000218611
0.000217236
0.000216366
0.000220195
0.000230819
0.000240213
0.000219169
0.000288654
0.000342244
0.000168796
)
;
    }
    sWall
    {
        type            nutkWallFunction;
        Cmu             0.09;
        kappa           0.41;
        E               9.8;
        value           uniform 0.000157094;
    }
    nWall
    {
        type            nutkWallFunction;
        Cmu             0.09;
        kappa           0.41;
        E               9.8;
        value           nonuniform List<scalar> 6(0.000144098 0.000190273 0.000249332 0.000309921 0.000261772 0.000219162);
    }
    sideWalls
    {
        type            empty;
    }
    glass1
    {
        type            nutkWallFunction;
        Cmu             0.09;
        kappa           0.41;
        E               9.8;
        value           nonuniform List<scalar> 9(0.00011708 0.000151499 0.000179443 0.000205623 0.000232106 0.000260402 0.000287227 0.000294161 0.000288905);
    }
    glass2
    {
        type            nutkWallFunction;
        Cmu             0.09;
        kappa           0.41;
        E               9.8;
        value           nonuniform List<scalar> 2(0.000329521 0.000362956);
    }
    sun
    {
        type            nutkWallFunction;
        Cmu             0.09;
        kappa           0.41;
        E               9.8;
        value           nonuniform List<scalar> 
14
(
0.000117032
0.000128507
0.000132694
0.000139326
0.000145473
0.000151408
0.00015755
0.000163018
0.00016696
0.00016863
0.000167269
0.000162228
0.000152582
0.000131222
)
;
    }
    heatsource1
    {
        type            nutkWallFunction;
        Cmu             0.09;
        kappa           0.41;
        E               9.8;
        value           nonuniform List<scalar> 3(8.31259e-05 9.90952e-05 0.000144111);
    }
    heatsource2
    {
        type            nutkWallFunction;
        Cmu             0.09;
        kappa           0.41;
        E               9.8;
        value           nonuniform List<scalar> 4(0.000132452 9.91782e-05 9.91782e-05 0.000132485);
    }
    Table_master
    {
        type            nutkWallFunction;
        Cmu             0.09;
        kappa           0.41;
        E               9.8;
        value           nonuniform List<scalar> 9(0.000105434 8.89419e-05 7.59335e-05 6.56543e-05 5.74567e-05 5.08569e-05 4.55145e-05 4.13065e-05 3.82224e-05);
    }
    Table_slave
    {
        type            nutkWallFunction;
        Cmu             0.09;
        kappa           0.41;
        E               9.8;
        value           nonuniform List<scalar> 9(0.000118323 0.000106273 9.70319e-05 8.95754e-05 8.3156e-05 7.72987e-05 7.16535e-05 6.59035e-05 5.95776e-05);
    }
    inlet
    {
        type            calculated;
        value           uniform 0.000100623;
    }
    outlet
    {
        type            calculated;
        value           nonuniform List<scalar> 2(0.00131408 0.00140849);
    }
}


// ************************************************************************* //
