// -*- C++ -*-
// File generated by PyFoam - sorry for the ugliness

FoamFile
{
 version 2.0;
 format ascii;
 class volVectorField;
 location "500";
 object U;
}

dimensions [ 0 1 -1 0 0 0 0 ];

internalField nonuniform List<vector> 459
(
  (0.033191 0.0853397 0)
  (-0.16586 0.025598 0)
  (-0.190314 0.017862 0)
  (-0.220926 0.0124117 0)
  (-0.243367 0.00645425 0)
  (-0.256834 0.000212464 0)
  (-0.260036 -0.00637573 0)
  (-0.251688 -0.0133209 0)
  (-0.232404 -0.0202099 0)
  (-0.203504 -0.0260126 0)
  (-0.167865 -0.0298857 0)
  (-0.128824 -0.031548 0)
  (-0.0895871 -0.0315404 0)
  (-0.0549653 -0.0315547 0)
  (-0.0388708 -0.0333153 0)
  (-0.00217997 0.00723467 0)
  (-0.0216294 -0.0176546 0)
  (0.00237255 -0.0262228 0)
  (0.0230054 -0.0193562 0)
  (0.0387084 -0.0129649 0)
  (0.0501999 -0.00826405 0)
  (0.0569304 -0.00497144 0)
  (0.0602675 -0.00325432 0)
  (0.0617885 -0.00250548 0)
  (0.0625936 -0.0021387 0)
  (0.0631025 -0.00190023 0)
  (0.063365 -0.00170492 0)
  (0.0633149 -0.00146323 0)
  (0.0627395 -0.0010022 0)
  (0.0610645 6.3396e-05 0)
  (0.0570766 0.00228062 0)
  (0.0494399 0.00470121 0)
  (0.0414463 0.00681578 0)
  (-0.010207 0.0204073 0)
  (0.205574 0.174345 0)
  (-0.154131 0.0669259 0)
  (-0.152272 0.0520854 0)
  (-0.183502 0.0407544 0)
  (-0.205384 0.0280915 0)
  (-0.218785 0.0141008 0)
  (-0.222414 -0.0014955 0)
  (-0.214763 -0.0183373 0)
  (-0.196957 -0.034405 0)
  (-0.170691 -0.0472191 0)
  (-0.139086 -0.0549586 0)
  (-0.105533 -0.057081 0)
  (-0.0732756 -0.0542435 0)
  (-0.0461445 -0.0480303 0)
  (-0.028892 -0.0395207 0)
  (-0.0151252 -0.0196132 0)
  (-0.00750284 0.012299 0)
  (0.060204 0.0308231 0)
  (0.0322668 -0.0201063 0)
  (0.0391708 -0.0305465 0)
  (0.0499091 -0.0257188 0)
  (0.0582967 -0.0175874 0)
  (0.063774 -0.010214 0)
  (0.0659015 -0.00418705 0)
  (0.066184 -0.000867168 0)
  (0.0660899 0.000558104 0)
  (0.066167 0.0012258 0)
  (0.0663247 0.00164885 0)
  (0.0664366 0.00201969 0)
  (0.0664603 0.0025065 0)
  (0.0663417 0.00345136 0)
  (0.0655439 0.00576654 0)
  (0.061633 0.0121377 0)
  (0.051811 0.0176022 0)
  (0.0452553 0.0215395 0)
  (-0.0433513 0.0440648 0)
  (0.363497 0.260498 0)
  (-0.169975 0.106129 0)
  (-0.113701 0.0837943 0)
  (-0.14346 0.0636184 0)
  (-0.162448 0.0428487 0)
  (-0.174442 0.0202298 0)
  (-0.177376 -0.00505676 0)
  (-0.168846 -0.031963 0)
  (-0.150992 -0.0568964 0)
  (-0.126277 -0.0758003 0)
  (-0.0981276 -0.086194 0)
  (-0.0695562 -0.0878126 0)
  (-0.0429015 -0.081773 0)
  (-0.020403 -0.0695778 0)
  (-0.00406411 -0.0523205 0)
  (0.00869198 -0.0265138 0)
  (0.015561 0.00780032 0)
  (0.105306 -0.0406018 0)
  (0.0728808 -0.0438074 0)
  (0.0690548 -0.0396062 0)
  (0.0713022 -0.0314969 0)
  (0.0728715 -0.0222172 0)
  (0.0736555 -0.0144681 0)
  (0.0718907 -0.0118015 0)
  (0.067955 -0.00846434 0)
  (0.0652575 -0.00665784 0)
  (0.0640387 -0.00562932 0)
  (0.0635055 -0.0049786 0)
  (0.0632501 -0.0045237 0)
  (0.0633128 -0.00407337 0)
  (0.0641693 -0.00326642 0)
  (0.0670428 -0.000125164 0)
  (0.0650238 0.0171507 0)
  (0.0517505 0.0294677 0)
  (0.0508662 0.0382763 0)
  (-0.0724728 0.0692735 0)
  (0.505527 0.329583 0)
  (-0.203455 0.140697 0)
  (-0.0735425 0.110279 0)
  (-0.101055 0.0824961 0)
  (-0.114158 0.055897 0)
  (-0.122166 0.0263959 0)
  (-0.121536 -0.00817355 0)
  (-0.109708 -0.0455267 0)
  (-0.090926 -0.0786189 0)
  (-0.0684504 -0.10209 0)
  (-0.0454638 -0.113595 0)
  (-0.023904 -0.113917 0)
  (-0.00461327 -0.104888 0)
  (0.0119702 -0.0880472 0)
  (0.025446 -0.0663849 0)
  (0.0398508 -0.0404417 0)
  (0.0621287 -0.0141348 0)
  (0.0927295 -0.00142625 0)
  (0.100685 -0.0339617 0)
  (0.0871594 -0.0387895 0)
  (0.0786601 -0.0342447 0)
  (0.0746074 -0.0277495 0)
  (0.072015 -0.0202284 0)
  (0.0708655 -0.0115811 0)
  (0.0726857 -0.00678106 0)
  (0.0767699 -0.00538727 0)
  (0.0801415 -0.00460559 0)
  (0.0824385 -0.00398875 0)
  (0.0838418 -0.00317873 0)
  (0.0837824 -0.0019268 0)
  (0.0812111 -1.94903e-05 0)
  (0.074899 0.00282656 0)
  (0.0620459 0.00714153 0)
  (0.0512314 0.0275057 0)
  (0.0407077 0.0444479 0)
  (0.0536992 0.0581899 0)
  (-0.102362 0.0922886 0)
  (0.627444 0.383011 0)
  (-0.244282 0.168878 0)
  (-0.0345738 0.124872 0)
  (-0.0570807 0.0926363 0)
  (-0.0617775 0.0628098 0)
  (-0.0626994 0.0286358 0)
  (-0.0526114 -0.0142746 0)
  (-0.0350885 -0.0609659 0)
  (-0.0162577 -0.0988951 0)
  (0.00146658 -0.123344 0)
  (0.0161845 -0.132878 0)
  (0.0277084 -0.130205 0)
  (0.0366202 -0.118462 0)
  (0.0436055 -0.100133 0)
  (0.0497771 -0.0778757 0)
  (0.0571325 -0.0543107 0)
  (0.0682629 -0.0348769 0)
  (0.0787961 -0.0298008 0)
  (0.0804826 -0.0354271 0)
  (0.0739679 -0.0339824 0)
  (0.0660029 -0.028797 0)
  (0.0599866 -0.023051 0)
  (0.0558078 -0.0171995 0)
  (0.053664 -0.011273 0)
  (0.0538766 -0.00620332 0)
  (0.0560786 -0.0038949 0)
  (0.0585086 -0.00305851 0)
  (0.0608633 -0.00233996 0)
  (0.0630356 -0.000819005 0)
  (0.0646414 0.00204327 0)
  (0.0645186 0.00635969 0)
  (0.062093 0.0122935 0)
  (0.0566727 0.0205058 0)
  (0.0501272 0.0359787 0)
  (0.0412176 0.0546473 0)
  (0.0619728 0.0753296 0)
  (-0.0163269 0.104684 0)
  (0.0453729 0.0344504 0)
  (-0.0613168 -0.034495 0)
  (-0.268748 -0.0567321 0)
  (0.715009 0.427512 0)
  (-0.283586 0.187695 0)
  (-0.00560896 0.119683 0)
  (-0.0118372 0.0916932 0)
  (-0.00497907 0.0628389 0)
  (0.00483297 0.0223848 0)
  (0.03248 -0.030924 0)
  (0.0536074 -0.0793968 0)
  (0.0686765 -0.114466 0)
  (0.0775271 -0.134427 0)
  (0.0808613 -0.140333 0)
  (0.080108 -0.134802 0)
  (0.0766409 -0.120869 0)
  (0.071849 -0.10149 0)
  (0.0672049 -0.0795709 0)
  (0.0640892 -0.0578128 0)
  (0.0634153 -0.0399315 0)
  (0.0628961 -0.030494 0)
  (0.0588442 -0.0278948 0)
  (0.0512139 -0.0254817 0)
  (0.042996 -0.0216414 0)
  (0.0364774 -0.017502 0)
  (0.0320712 -0.0135419 0)
  (0.0299245 -0.00982214 0)
  (0.0299772 -0.00699794 0)
  (0.0317362 -0.00607324 0)
  (0.0342807 -0.00604745 0)
  (0.0372764 -0.00573894 0)
  (0.0405611 -0.00419606 0)
  (0.0439191 -0.000577073 0)
  (0.0468483 0.00537794 0)
  (0.0483515 0.0133586 0)
  (0.0486439 0.0235961 0)
  (0.049148 0.0379227 0)
  (0.0484795 0.0559824 0)
  (0.070343 0.0789802 0)
  (0.0524687 0.0977328 0)
  (0.0914129 0.068659 0)
  (0.114427 0.0447055 0)
  (-0.128306 -0.00745339 0)
  (0.767607 0.468098 0)
  (-0.302153 0.173137 0)
  (0.0218759 0.0676456 0)
  (0.0490916 0.0632804 0)
  (0.0694472 0.0451096 0)
  (0.100667 -0.000902614 0)
  (0.13282 -0.0545551 0)
  (0.151674 -0.0961927 0)
  (0.158278 -0.122767 0)
  (0.154632 -0.135052 0)
  (0.143301 -0.135089 0)
  (0.12711 -0.12567 0)
  (0.108605 -0.109702 0)
  (0.0899456 -0.090086 0)
  (0.0728911 -0.0694268 0)
  (0.0585783 -0.0498337 0)
  (0.0475421 -0.0339394 0)
  (0.0387319 -0.0241392 0)
  (0.0301793 -0.0195845 0)
  (0.0215464 -0.0170016 0)
  (0.0138615 -0.0145535 0)
  (0.00809355 -0.012304 0)
  (0.00441372 -0.0104082 0)
  (0.00278655 -0.00887522 0)
  (0.00301586 -0.00806252 0)
  (0.00458331 -0.00832411 0)
  (0.00687889 -0.00901155 0)
  (0.0096935 -0.00927449 0)
  (0.0130818 -0.00826966 0)
  (0.0171743 -0.00500616 0)
  (0.02291 0.00147316 0)
  (0.0285379 0.01022 0)
  (0.0338941 0.0205563 0)
  (0.040809 0.0331972 0)
  (0.0485843 0.0479398 0)
  (0.0703072 0.0664758 0)
  (0.0839214 0.0750354 0)
  (0.115714 0.0530114 0)
  (0.155266 0.0441941 0)
  (-0.0365943 0.092563 0)
  (0.872262 0.469565 0)
  (-0.0648393 0.151854 0)
  (0.109539 -0.013653 0)
  (0.180967 -0.0396821 0)
  (0.209647 -0.0506673 0)
  (0.241282 -0.0731739 0)
  (0.259806 -0.0958124 0)
  (0.26146 -0.112245 0)
  (0.247651 -0.120385 0)
  (0.222379 -0.120165 0)
  (0.190095 -0.112721 0)
  (0.154832 -0.0998462 0)
  (0.119752 -0.0833195 0)
  (0.0872725 -0.065291 0)
  (0.0590303 -0.0476972 0)
  (0.0356914 -0.0318094 0)
  (0.0180023 -0.019728 0)
  (0.0051843 -0.0128388 0)
  (-0.00464981 -0.0100559 0)
  (-0.0121026 -0.00916659 0)
  (-0.0179495 -0.00868022 0)
  (-0.0221594 -0.00840912 0)
  (-0.0248707 -0.00836388 0)
  (-0.0262529 -0.00857413 0)
  (-0.0265531 -0.00918505 0)
  (-0.0261852 -0.0102502 0)
  (-0.0255295 -0.0114521 0)
  (-0.0246869 -0.0123446 0)
  (-0.023495 -0.012438 0)
  (-0.0215586 -0.0111501 0)
  (-0.0179023 -0.00774003 0)
  (-0.00922706 -0.0015205 0)
  (-0.00108602 0.00648634 0)
  (0.00936743 0.0146373 0)
  (0.0210299 0.0217593 0)
  (0.0408459 0.0291838 0)
  (0.0600322 0.0228659 0)
  (0.0802556 -0.00440441 0)
  (0.13916 0.0389217 0)
  (-0.404297 0.202172 0)
  (1.01898 0.422925 0)
  (0.484758 0.27956 0)
  (0.49957 0.183291 0)
  (0.525458 0.112587 0)
  (0.506597 0.0620354 0)
  (0.465429 0.0151923 0)
  (0.417335 -0.0243747 0)
  (0.364396 -0.051896 0)
  (0.306835 -0.0663517 0)
  (0.247521 -0.0695618 0)
  (0.189899 -0.0647916 0)
  (0.136598 -0.0552238 0)
  (0.0891628 -0.0428146 0)
  (0.0491364 -0.0297148 0)
  (0.0167198 -0.0177418 0)
  (-0.00901035 -0.00804991 0)
  (-0.0246422 -0.00346875 0)
  (-0.0342013 -0.00227919 0)
  (-0.0406433 -0.00271587 0)
  (-0.0455646 -0.00368939 0)
  (-0.0495574 -0.004688 0)
  (-0.0527797 -0.00566702 0)
  (-0.0553618 -0.00664898 0)
  (-0.0574725 -0.00766598 0)
  (-0.0593594 -0.00876688 0)
  (-0.0613718 -0.009934 0)
  (-0.0638533 -0.0109595 0)
  (-0.067098 -0.0114799 0)
  (-0.0714201 -0.0109696 0)
  (-0.0772465 -0.00872768 0)
  (-0.0851231 -0.0039366 0)
  (-0.0949867 0.00394372 0)
  (-0.104993 0.0143884 0)
  (-0.119705 0.0276526 0)
  (-0.14278 0.0438991 0)
  (-0.176734 0.0620847 0)
  (-0.224953 0.0783653 0)
  (-0.280597 0.0902005 0)
  (-0.348746 0.0975033 0)
  (-0.608764 0.10072 0)
  (-0.152879 0.00256352 0)
  (0.122258 0.00366585 0)
  (0.202941 -0.0291179 0)
  (0.189699 -0.0401608 0)
  (0.173858 -0.0391295 0)
  (0.152063 -0.0350047 0)
  (0.122823 -0.0293996 0)
  (0.0891717 -0.0224624 0)
  (0.0545869 -0.0146517 0)
  (0.0199129 -0.0065575 0)
  (-0.0138233 0.00120736 0)
  (-0.0372176 0.00588014 0)
  (-0.0532922 0.00846902 0)
  (-0.0631215 0.00919267 0)
  (-0.0684807 0.00845805 0)
  (-0.0721576 0.00754211 0)
  (-0.0750232 0.00676841 0)
  (-0.0775925 0.00616825 0)
  (-0.080177 0.00563931 0)
  (-0.0828711 0.00498057 0)
  (-0.0856666 0.00423931 0)
  (-0.0886442 0.0034284 0)
  (-0.0919304 0.00260116 0)
  (-0.0956649 0.00187303 0)
  (-0.0999207 0.00148654 0)
  (-0.104698 0.00174542 0)
  (-0.109928 0.00297099 0)
  (-0.115437 0.00545827 0)
  (-0.120606 0.00973005 0)
  (-0.124705 0.0167004 0)
  (-0.128097 0.0274865 0)
  (-0.130996 0.0424794 0)
  (-0.134053 0.0609031 0)
  (-0.137703 0.0793794 0)
  (-0.138935 0.0883815 0)
  (-0.121668 0.0673602 0)
  (-0.0797093 -0.0227235 0)
  (-0.273723 -0.197864 0)
  (0.0136647 0.194823 0)
  (0.0420903 0.0709673 0)
  (0.0008637 0.00640827 0)
  (-0.0112759 -0.00173634 0)
  (-0.0237049 -4.96513e-05 0)
  (-0.0380519 -0.000129672 0)
  (-0.0541544 0.000653718 0)
  (-0.0698469 0.00271511 0)
  (-0.0825854 0.00478241 0)
  (-0.0900966 0.00525614 0)
  (-0.0947658 0.00350465 0)
  (-0.0968923 -0.000379156 0)
  (-0.0974004 -0.00494391 0)
  (-0.0970077 -0.00988658 0)
  (-0.0966129 -0.0151787 0)
  (-0.0968044 -0.0203389 0)
  (-0.09762 -0.0250578 0)
  (-0.0989647 -0.0290659 0)
  (-0.100712 -0.0321709 0)
  (-0.102813 -0.0343268 0)
  (-0.105297 -0.0356526 0)
  (-0.108066 -0.0361097 0)
  (-0.111021 -0.0356433 0)
  (-0.114077 -0.0344943 0)
  (-0.117109 -0.0326367 0)
  (-0.119874 -0.029838 0)
  (-0.121994 -0.0256771 0)
  (-0.122999 -0.0195441 0)
  (-0.122469 -0.0115377 0)
  (-0.119536 -0.0013649 0)
  (-0.11284 0.0116914 0)
  (-0.101091 0.0282753 0)
  (-0.0838261 0.0479272 0)
  (-0.0617991 0.0668019 0)
  (-0.0378303 0.0779207 0)
  (0.0017591 0.0622376 0)
  (0.143077 -0.00816888 0)
  (-0.204751 -0.108102 0)
  (-0.042558 -0.319415 0)
  (-0.412672 -0.122996 0)
  (-0.3008 0.0646129 0)
  (-0.248515 -0.017256 0)
  (-0.208605 -0.0228762 0)
  (-0.196965 -0.0118352 0)
  (-0.192386 -0.00210734 0)
  (-0.189002 0.00597347 0)
  (-0.184716 0.013575 0)
  (-0.178562 0.0211439 0)
  (-0.170317 0.0287733 0)
  (-0.160246 0.0363894 0)
  (-0.149393 0.0438165 0)
  (-0.138927 0.0510032 0)
  (-0.129672 0.0581872 0)
  (-0.121959 0.0653429 0)
  (-0.115859 0.0724229 0)
  (-0.111215 0.0791984 0)
  (-0.107782 0.0852484 0)
  (-0.105344 0.0901853 0)
  (-0.103706 0.0937672 0)
  (-0.10271 0.0959215 0)
  (-0.102267 0.0966994 0)
  (-0.102332 0.096053 0)
  (-0.102853 0.0939467 0)
  (-0.103746 0.0908501 0)
  (-0.10489 0.0869643 0)
  (-0.106068 0.0823769 0)
  (-0.106903 0.0771276 0)
  (-0.106722 0.0713156 0)
  (-0.104273 0.0662204 0)
  (-0.0977382 0.0627584 0)
  (-0.0847576 0.061816 0)
  (-0.0635074 0.0643595 0)
  (-0.0343556 0.0709391 0)
  (0.0110028 0.0806621 0)
  (0.0543304 0.0817864 0)
  (0.0951635 0.069101 0)
  (0.160836 0.0435404 0)
  (-0.233336 -0.00631879 0)
)
;

boundaryField
{
  floor
  {
    type noSlip;
  }
  ceiling
  {
    type noSlip;
  }
  sWall
  {
    type noSlip;
  }
  nWall
  {
    type noSlip;
  }
  sideWalls
  {
    type empty;
  }
  glass1
  {
    type noSlip;
  }
  glass2
  {
    type noSlip;
  }
  sun
  {
    type noSlip;
  }
  heatsource1
  {
    type noSlip;
  }
  heatsource2
  {
    type noSlip;
  }
  Table_master
  {
    type noSlip;
  }
  Table_slave
  {
    type noSlip;
  }
  inlet
  {
    type fixedValue;
    value uniform (0.277164 -0.114805 0);
  }
  outlet
  {
    type zeroGradient;
  }
} 	// ************************************************************************* //

