// -*- C++ -*-
// File generated by PyFoam - sorry for the ugliness

FoamFile
{
 version 2.0;
 format ascii;
 class volVectorField;
 location "200";
 object U;
}

dimensions [ 0 1 -1 0 0 0 0 ];

internalField nonuniform List<vector> 459
(
  (-0.0237851 0.0511987 0)
  (-0.125328 -0.0327887 0)
  (-0.0635555 -0.0260274 0)
  (-0.0699415 0.0238692 0)
  (-0.0754814 0.0250213 0)
  (-0.11013 0.00540675 0)
  (-0.129113 -0.00891223 0)
  (-0.124428 -0.0143488 0)
  (-0.109015 -0.016432 0)
  (-0.0910866 -0.0147042 0)
  (-0.0747386 -0.012366 0)
  (-0.0596462 -0.0111892 0)
  (-0.0444421 -0.0120074 0)
  (-0.0335087 -0.0157781 0)
  (-0.048484 -0.0210982 0)
  (0.0178519 0.0117069 0)
  (-0.0325549 -0.00885109 0)
  (-0.0197345 -0.00854359 0)
  (-0.015168 -0.00350143 0)
  (-0.0129122 0.000734153 0)
  (-0.0143375 0.000986938 0)
  (-0.0183295 -0.0025739 0)
  (-0.0186449 -0.00657586 0)
  (-0.01407 -0.00903769 0)
  (-0.00645388 -0.0117732 0)
  (0.00938346 -0.0176203 0)
  (0.0184179 -0.0124626 0)
  (0.0276629 -0.00879191 0)
  (0.033086 -0.00650522 0)
  (0.0362541 -0.00456564 0)
  (0.0380925 -0.00326415 0)
  (0.040026 -0.00380704 0)
  (0.0436652 0.000983446 0)
  (-0.00519966 0.0205661 0)
  (0.24379 0.218318 0)
  (0.135495 -0.0511643 0)
  (0.159149 -0.0496335 0)
  (0.16421 0.0134649 0)
  (0.133925 0.0632175 0)
  (0.0757645 0.07768 0)
  (-0.0129123 0.0434877 0)
  (-0.0791099 -0.00728837 0)
  (-0.0890605 -0.0243214 0)
  (-0.0823888 -0.0247371 0)
  (-0.0738862 -0.0216233 0)
  (-0.0644125 -0.0198958 0)
  (-0.0533334 -0.0208291 0)
  (-0.0412519 -0.0251502 0)
  (-0.0304101 -0.0317277 0)
  (-0.0183783 -0.0344242 0)
  (0.0170112 0.0016872 0)
  (0.10566 0.0167419 0)
  (0.0416487 0.00882982 0)
  (0.019413 0.00127447 0)
  (0.0141572 -0.00182299 0)
  (0.0165207 -0.00124104 0)
  (0.0202211 0.00468566 0)
  (0.019133 0.00984629 0)
  (0.0124772 0.00548822 0)
  (0.00515851 -0.00412569 0)
  (0.00726952 -0.0111128 0)
  (0.00980249 -0.0189667 0)
  (0.00562816 -0.0120952 0)
  (0.0100774 -0.00582319 0)
  (0.0105649 -0.00268264 0)
  (0.00830722 -0.00165968 0)
  (0.00787315 -0.00608055 0)
  (0.0113419 -0.0114117 0)
  (0.0284887 -0.000842494 0)
  (-0.0591987 0.0414302 0)
  (0.558575 -0.0375242 0)
  (0.326327 -0.121141 0)
  (0.332702 -0.0609372 0)
  (0.337039 0.035804 0)
  (0.280029 0.110465 0)
  (0.198617 0.143936 0)
  (0.109656 0.132625 0)
  (0.0225854 0.0813506 0)
  (-0.0526267 -0.0058578 0)
  (-0.0660247 -0.0240146 0)
  (-0.0694661 -0.0251554 0)
  (-0.0690209 -0.025823 0)
  (-0.06609 -0.0288573 0)
  (-0.0615989 -0.0341536 0)
  (-0.056566 -0.0393906 0)
  (-0.0526728 -0.0403325 0)
  (-0.0556074 -0.035569 0)
  (0.0763529 -0.00228802 0)
  (-0.0306012 0.00490617 0)
  (-0.0236323 0.00446272 0)
  (-0.0198295 -0.0019575 0)
  (-0.0135478 -0.00823955 0)
  (-0.00843745 -0.0138886 0)
  (0.0263855 0.00117993 0)
  (0.030428 0.00082398 0)
  (0.0299598 -0.00218505 0)
  (0.0249057 -0.00695133 0)
  (0.0105987 -0.0155415 0)
  (-0.0152063 -0.0114531 0)
  (-0.019326 -0.00706888 0)
  (-0.0237634 -0.00502442 0)
  (-0.0238328 -0.00369793 0)
  (-0.0126408 -0.00396456 0)
  (-0.0182115 0.00421844 0)
  (-0.0402006 0.0211913 0)
  (-0.13577 0.0439566 0)
  (0.635915 -0.394674 0)
  (0.228657 -0.264489 0)
  (0.278473 -0.0951576 0)
  (0.298398 0.0587059 0)
  (0.254233 0.164853 0)
  (0.186962 0.213362 0)
  (0.115693 0.206716 0)
  (0.0455347 0.152802 0)
  (-0.0184185 0.0539311 0)
  (-0.0493293 -0.00499158 0)
  (-0.0637927 -0.0179052 0)
  (-0.0716018 -0.022595 0)
  (-0.0766701 -0.027247 0)
  (-0.0808775 -0.0323619 0)
  (-0.0859398 -0.0357325 0)
  (-0.0939113 -0.0330729 0)
  (-0.104131 -0.0171905 0)
  (-0.100404 0.0202647 0)
  (-0.0772766 0.00443347 0)
  (-0.0739621 0.00532887 0)
  (-0.0641063 -0.000523461 0)
  (-0.0591135 -0.0072048 0)
  (-0.0576358 -0.0137022 0)
  (-0.0600016 -0.017812 0)
  (-0.0567941 -0.0121355 0)
  (-0.0438524 -0.0113376 0)
  (-0.0318117 -0.0115704 0)
  (-0.0201166 -0.0118147 0)
  (-0.00896934 -0.0118835 0)
  (0.00210767 -0.0114903 0)
  (0.012201 -0.0104372 0)
  (0.020607 -0.00901319 0)
  (0.0285445 -0.00675619 0)
  (0.0280492 -0.00476224 0)
  (0.0290794 0.00486339 0)
  (0.0365292 0.0136116 0)
  (-0.0827768 0.0272817 0)
  (0.621624 -0.541516 0)
  (0.0096367 -0.281501 0)
  (0.132716 -0.0373016 0)
  (0.176693 0.119421 0)
  (0.151847 0.21901 0)
  (0.109789 0.2688 0)
  (0.0660013 0.26254 0)
  (0.023041 0.202524 0)
  (-0.0173462 0.0918244 0)
  (-0.0389129 0.0219724 0)
  (-0.0564087 -0.00389957 0)
  (-0.0671547 -0.0140909 0)
  (-0.074613 -0.0208722 0)
  (-0.0809272 -0.02688 0)
  (-0.0871937 -0.0316837 0)
  (-0.0933722 -0.033725 0)
  (-0.0970899 -0.0302497 0)
  (-0.0963042 -0.0189608 0)
  (-0.0903709 -0.010311 0)
  (-0.0824585 -0.00585718 0)
  (-0.0740216 -0.00733773 0)
  (-0.067971 -0.011103 0)
  (-0.0641263 -0.0152741 0)
  (-0.0612869 -0.0177425 0)
  (-0.0564516 -0.0165272 0)
  (-0.0490599 -0.0165766 0)
  (-0.0411092 -0.0167531 0)
  (-0.0331985 -0.0166952 0)
  (-0.025676 -0.0161973 0)
  (-0.0186885 -0.0151522 0)
  (-0.0121053 -0.0136763 0)
  (-0.00556938 -0.0121369 0)
  (0.00215986 -0.0104855 0)
  (0.0117851 -0.00943038 0)
  (0.0282933 -0.00393561 0)
  (0.0595791 0.0076548 0)
  (0.0680841 0.0203194 0)
  (0.114814 0.0121169 0)
  (0.126401 0.0239561 0)
  (-0.0531882 0.0628973 0)
  (0.577616 -0.607371 0)
  (-0.15299 -0.302197 0)
  (0.0622534 -0.0301829 0)
  (0.0713908 0.132717 0)
  (0.0446059 0.242234 0)
  (0.0242827 0.298398 0)
  (0.00700517 0.292887 0)
  (-0.00970684 0.224962 0)
  (-0.0257694 0.113795 0)
  (-0.036007 0.0412547 0)
  (-0.0480348 0.00962697 0)
  (-0.0570977 -0.00524293 0)
  (-0.063379 -0.0140378 0)
  (-0.0687279 -0.0205291 0)
  (-0.0738417 -0.0250058 0)
  (-0.0785225 -0.0265424 0)
  (-0.0812923 -0.0243831 0)
  (-0.0809838 -0.0198209 0)
  (-0.0777338 -0.0154296 0)
  (-0.0725341 -0.0129624 0)
  (-0.0669702 -0.0135479 0)
  (-0.0624783 -0.015922 0)
  (-0.0592666 -0.018878 0)
  (-0.0567133 -0.0210349 0)
  (-0.0536653 -0.0217406 0)
  (-0.0498949 -0.0223239 0)
  (-0.0460485 -0.0225528 0)
  (-0.0426042 -0.0221435 0)
  (-0.0399264 -0.0210353 0)
  (-0.038129 -0.0194586 0)
  (-0.0369568 -0.0179008 0)
  (-0.0358583 -0.0169431 0)
  (-0.0339137 -0.0171191 0)
  (-0.0295819 -0.0190592 0)
  (-0.0194606 -0.022359 0)
  (0.00149375 -0.0274834 0)
  (0.0278016 -0.0377427 0)
  (0.0579795 -0.0318533 0)
  (0.104061 0.0238463 0)
  (-0.0818802 0.116104 0)
  (0.471255 -0.584284 0)
  (-0.202439 -0.321844 0)
  (0.0279284 -0.0528094 0)
  (-0.028406 0.167638 0)
  (-0.0532287 0.250231 0)
  (-0.0478577 0.300435 0)
  (-0.0396606 0.294403 0)
  (-0.0335831 0.22736 0)
  (-0.0315201 0.122449 0)
  (-0.0320359 0.0514458 0)
  (-0.0369017 0.0176161 0)
  (-0.0416082 0.000816939 0)
  (-0.0453225 -0.00939205 0)
  (-0.0486397 -0.0165054 0)
  (-0.0520083 -0.0213535 0)
  (-0.0551942 -0.0235998 0)
  (-0.057343 -0.0230939 0)
  (-0.0576657 -0.0209223 0)
  (-0.0561557 -0.0185609 0)
  (-0.0534636 -0.0171924 0)
  (-0.0505567 -0.017452 0)
  (-0.0482705 -0.0189349 0)
  (-0.0468589 -0.0209607 0)
  (-0.0460852 -0.0227157 0)
  (-0.0455057 -0.02378 0)
  (-0.0451123 -0.0242728 0)
  (-0.0453616 -0.0239006 0)
  (-0.0468424 -0.0224499 0)
  (-0.0502023 -0.0201267 0)
  (-0.0557882 -0.0176532 0)
  (-0.0633748 -0.0158794 0)
  (-0.0723123 -0.0153827 0)
  (-0.0816791 -0.0168898 0)
  (-0.0905427 -0.0218397 0)
  (-0.0973247 -0.0319104 0)
  (-0.0999932 -0.0482835 0)
  (-0.0977384 -0.0684387 0)
  (-0.0849755 -0.0761441 0)
  (0.0456785 -0.0106537 0)
  (-0.14181 0.195726 0)
  (0.281645 -0.465949 0)
  (-0.271732 -0.266963 0)
  (-0.160761 -0.0655677 0)
  (-0.112096 0.188677 0)
  (-0.137237 0.234485 0)
  (-0.0997993 0.276912 0)
  (-0.0674555 0.273544 0)
  (-0.042677 0.212736 0)
  (-0.026443 0.118235 0)
  (-0.0183609 0.0527266 0)
  (-0.0173801 0.0199851 0)
  (-0.0183251 0.00306652 0)
  (-0.0191768 -0.0072349 0)
  (-0.0203355 -0.0141897 0)
  (-0.0220626 -0.0188103 0)
  (-0.0241458 -0.0212495 0)
  (-0.02602 -0.0216565 0)
  (-0.0271051 -0.0207309 0)
  (-0.0272589 -0.0194494 0)
  (-0.0268 -0.0185898 0)
  (-0.0262853 -0.0186003 0)
  (-0.0262285 -0.019406 0)
  (-0.0268549 -0.0206559 0)
  (-0.0281154 -0.021832 0)
  (-0.0298361 -0.0224741 0)
  (-0.0320831 -0.0221922 0)
  (-0.0352569 -0.0203429 0)
  (-0.04015 -0.0163559 0)
  (-0.048134 -0.0102524 0)
  (-0.0605301 -0.00302408 0)
  (-0.0781436 0.0035393 0)
  (-0.102063 0.00705819 0)
  (-0.1312 0.00595747 0)
  (-0.163559 -0.000136598 0)
  (-0.196792 -0.0100985 0)
  (-0.227454 -0.021115 0)
  (-0.25334 -0.0286061 0)
  (-0.276821 -0.0212937 0)
  (-0.332465 0.0167125 0)
  (-0.526504 0.0969752 0)
  (-0.000186541 -0.302648 0)
  (-0.584526 -0.211784 0)
  (-0.744102 -0.143762 0)
  (-0.176769 0.125391 0)
  (-0.207026 0.180537 0)
  (-0.126726 0.228598 0)
  (-0.073079 0.234382 0)
  (-0.0326445 0.185211 0)
  (-0.00318394 0.103304 0)
  (0.0120653 0.046763 0)
  (0.0161792 0.0186429 0)
  (0.017018 0.00316222 0)
  (0.0179418 -0.00628502 0)
  (0.0179046 -0.0123049 0)
  (0.0168787 -0.0160103 0)
  (0.0150179 -0.0179383 0)
  (0.0127331 -0.0184433 0)
  (0.0105086 -0.0179952 0)
  (0.00860044 -0.0171828 0)
  (0.00694574 -0.0165105 0)
  (0.00526755 -0.0162956 0)
  (0.00325086 -0.0165853 0)
  (0.000693858 -0.0172378 0)
  (-0.0024552 -0.0179513 0)
  (-0.00598771 -0.01827 0)
  (-0.00975319 -0.0176342 0)
  (-0.013545 -0.0152195 0)
  (-0.0171398 -0.0102144 0)
  (-0.0204534 -0.00233763 0)
  (-0.0233647 0.00774115 0)
  (-0.0278934 0.0184109 0)
  (-0.0344721 0.0275702 0)
  (-0.0432802 0.032682 0)
  (-0.0542482 0.0313787 0)
  (-0.0688624 0.0208587 0)
  (-0.0921035 -0.00154135 0)
  (-0.114859 -0.0351746 0)
  (-0.11821 -0.0811153 0)
  (-0.151893 -0.145259 0)
  (-0.510152 -0.215423 0)
  (-1.74975 -0.186587 0)
  (-0.0494049 -0.0806977 0)
  (-0.205907 0.0748907 0)
  (-0.113721 0.159188 0)
  (-0.0522759 0.180242 0)
  (0.00198728 0.142512 0)
  (0.0413507 0.0792944 0)
  (0.0604882 0.0393885 0)
  (0.0672341 0.0174003 0)
  (0.0690841 0.00450686 0)
  (0.0696346 -0.00444808 0)
  (0.0685102 -0.0101583 0)
  (0.0660883 -0.0134299 0)
  (0.0627062 -0.0150037 0)
  (0.0587718 -0.0154485 0)
  (0.0546824 -0.0152284 0)
  (0.0506895 -0.014748 0)
  (0.046841 -0.0143257 0)
  (0.0430202 -0.0141627 0)
  (0.0390374 -0.0143178 0)
  (0.034725 -0.0147289 0)
  (0.0299912 -0.0152299 0)
  (0.0248854 -0.0155132 0)
  (0.0196183 -0.015098 0)
  (0.0146508 -0.0132512 0)
  (0.0107785 -0.0091195 0)
  (0.00902785 -0.00222119 0)
  (0.00984862 0.00686813 0)
  (0.0128627 0.0171576 0)
  (0.0173901 0.0265301 0)
  (0.022594 0.0326275 0)
  (0.0278654 0.0340863 0)
  (0.0328068 0.0308625 0)
  (0.0372688 0.0243027 0)
  (0.047606 0.0175306 0)
  (0.0660418 0.0052305 0)
  (0.13346 -0.0597322 0)
  (-0.150376 -0.170303 0)
  (-0.588406 0.0547997 0)
  (0.136631 -0.111988 0)
  (-0.11906 -0.0240919 0)
  (-0.0714665 0.0800613 0)
  (-0.00646056 0.11311 0)
  (0.0578985 0.0812544 0)
  (0.101441 0.0385575 0)
  (0.124934 0.00787915 0)
  (0.134377 -0.0128776 0)
  (0.136712 -0.0276487 0)
  (0.13451 -0.0360504 0)
  (0.12979 -0.0405906 0)
  (0.123664 -0.0428197 0)
  (0.116859 -0.0437374 0)
  (0.109888 -0.0439572 0)
  (0.103081 -0.0438479 0)
  (0.0965875 -0.0436282 0)
  (0.0904038 -0.0434084 0)
  (0.0844172 -0.0432111 0)
  (0.0784699 -0.0429906 0)
  (0.0724184 -0.0426581 0)
  (0.0661781 -0.0420985 0)
  (0.0597671 -0.041169 0)
  (0.0533585 -0.0396909 0)
  (0.0473689 -0.037426 0)
  (0.0426029 -0.0340831 0)
  (0.0404447 -0.0293077 0)
  (0.0416796 -0.0215294 0)
  (0.0470329 -0.0110605 0)
  (0.0562074 -0.00124467 0)
  (0.068038 0.00537122 0)
  (0.0808257 0.00719192 0)
  (0.092744 0.00323391 0)
  (0.102094 -0.00757373 0)
  (0.107247 -0.0224019 0)
  (0.102644 -0.0394992 0)
  (0.14864 -0.0719616 0)
  (-0.215635 -0.109663 0)
  (0.717688 0.1494 0)
  (0.0259246 -0.280454 0)
  (-0.348531 0.1527 0)
  (0.119507 0.0268132 0)
  (-0.0837151 0.0947118 0)
  (-0.0432738 0.110356 0)
  (0.0521419 0.122491 0)
  (0.116712 0.106351 0)
  (0.164575 0.0934021 0)
  (0.191582 0.0877909 0)
  (0.202407 0.0876502 0)
  (0.203753 0.0907175 0)
  (0.199489 0.0932087 0)
  (0.192813 0.09534 0)
  (0.184939 0.0973715 0)
  (0.176483 0.0994036 0)
  (0.167895 0.101438 0)
  (0.159479 0.10343 0)
  (0.151378 0.10531 0)
  (0.143616 0.106993 0)
  (0.136144 0.108397 0)
  (0.128893 0.109442 0)
  (0.121806 0.110051 0)
  (0.114868 0.110144 0)
  (0.108122 0.109628 0)
  (0.101696 0.10839 0)
  (0.0958296 0.106308 0)
  (0.0909348 0.103303 0)
  (0.0877747 0.0993934 0)
  (0.0871634 0.0929716 0)
  (0.0902911 0.0838302 0)
  (0.0982214 0.0750923 0)
  (0.110117 0.0680998 0)
  (0.123781 0.062644 0)
  (0.136144 0.0581487 0)
  (0.143822 0.0544984 0)
  (0.141929 0.0490961 0)
  (0.125827 0.0402933 0)
  (0.165677 0.0221523 0)
  (-0.290162 0.00183239 0)
)
;

boundaryField
{
  floor
  {
    type noSlip;
  }
  ceiling
  {
    type noSlip;
  }
  sWall
  {
    type noSlip;
  }
  nWall
  {
    type noSlip;
  }
  sideWalls
  {
    type empty;
  }
  glass1
  {
    type noSlip;
  }
  glass2
  {
    type noSlip;
  }
  sun
  {
    type noSlip;
  }
  heatsource1
  {
    type noSlip;
  }
  heatsource2
  {
    type noSlip;
  }
  Table_master
  {
    type noSlip;
  }
  Table_slave
  {
    type noSlip;
  }
  inlet
  {
    type fixedValue;
    value uniform (0.1 0 0);
  }
  outlet
  {
    type zeroGradient;
  }
} 	// ************************************************************************* //

