// -*- C++ -*-
// File generated by PyFoam - sorry for the ugliness

FoamFile
{
 version 2.0;
 format ascii;
 class volScalarField;
 location "500";
 object T;
}

dimensions [ 0 0 0 1 0 0 0 ];

internalField nonuniform List<scalar> 459
(
  305.481
  305.236
  305.237
  305.243
  305.255
  305.268
  305.282
  305.297
  305.312
  305.327
  305.343
  305.358
  305.371
  305.382
  305.384
  304.227
  304.096
  304.041
  304.032
  304.022
  304.02
  304.019
  304.012
  304.006
  304.003
  304.001
  303.998
  303.999
  304.004
  304.012
  304.022
  304.035
  304.026
  304.028
  305.709
  305.428
  305.402
  305.401
  305.414
  305.43
  305.448
  305.466
  305.483
  305.5
  305.515
  305.528
  305.536
  305.536
  305.523
  305.491
  305.229
  304.623
  304.486
  304.409
  304.359
  304.316
  304.277
  304.269
  304.252
  304.242
  304.243
  304.258
  304.278
  304.294
  304.315
  304.342
  304.37
  304.322
  304.27
  304.267
  305.922
  305.63
  305.591
  305.563
  305.559
  305.572
  305.591
  305.612
  305.633
  305.652
  305.668
  305.68
  305.684
  305.674
  305.646
  305.597
  305.534
  304.947
  304.929
  304.904
  304.885
  304.855
  304.779
  304.539
  304.544
  304.559
  304.576
  304.601
  304.638
  304.698
  304.788
  304.929
  305.136
  305.129
  305.191
  305.311
  306.135
  305.88
  305.876
  305.808
  305.748
  305.73
  305.74
  305.761
  305.785
  305.808
  305.828
  305.842
  305.846
  305.834
  305.799
  305.734
  305.638
  305.537
  305.463
  305.552
  305.644
  305.737
  305.815
  305.882
  305.939
  305.956
  305.969
  305.982
  305.994
  306.005
  306.014
  306.02
  306.02
  306.002
  306.052
  306.12
  306.205
  306.357
  306.192
  306.318
  306.23
  306.085
  305.969
  305.917
  305.922
  305.946
  305.972
  305.998
  306.019
  306.034
  306.037
  306.027
  306.002
  305.965
  305.927
  305.903
  305.925
  305.971
  306.017
  306.056
  306.086
  306.108
  306.126
  306.142
  306.16
  306.179
  306.201
  306.225
  306.252
  306.282
  306.315
  306.361
  306.406
  306.445
  306.467
  306.456
  306.307
  306.59
  306.586
  306.929
  306.799
  306.59
  306.371
  306.191
  306.126
  306.128
  306.154
  306.184
  306.212
  306.235
  306.249
  306.252
  306.241
  306.221
  306.198
  306.184
  306.187
  306.201
  306.221
  306.24
  306.256
  306.269
  306.281
  306.294
  306.308
  306.324
  306.342
  306.363
  306.388
  306.417
  306.45
  306.486
  306.522
  306.557
  306.59
  306.62
  306.639
  306.836
  307.193
  307.624
  307.5
  307.199
  306.868
  306.6
  306.433
  306.375
  306.385
  306.415
  306.447
  306.474
  306.495
  306.505
  306.504
  306.492
  306.475
  306.46
  306.451
  306.45
  306.452
  306.457
  306.461
  306.465
  306.469
  306.473
  306.478
  306.484
  306.492
  306.502
  306.516
  306.532
  306.552
  306.575
  306.602
  306.632
  306.669
  306.711
  306.752
  307.099
  307.619
  308.389
  308.315
  307.857
  307.371
  307.007
  306.8
  306.721
  306.717
  306.741
  306.772
  306.799
  306.819
  306.829
  306.828
  306.819
  306.802
  306.783
  306.765
  306.75
  306.739
  306.73
  306.721
  306.713
  306.706
  306.698
  306.69
  306.684
  306.678
  306.675
  306.673
  306.674
  306.678
  306.685
  306.694
  306.706
  306.726
  306.758
  306.796
  307.637
  308.384
  310.919
  309.341
  308.262
  307.644
  307.313
  307.18
  307.16
  307.186
  307.219
  307.246
  307.264
  307.272
  307.273
  307.264
  307.243
  307.216
  307.185
  307.154
  307.124
  307.096
  307.07
  307.045
  307.021
  306.998
  306.975
  306.952
  306.93
  306.909
  306.89
  306.872
  306.857
  306.844
  306.833
  306.824
  306.816
  306.811
  306.814
  306.823
  314.317
  310.321
  308.85
  308.165
  307.869
  307.817
  307.838
  307.877
  307.907
  307.919
  307.913
  307.892
  307.861
  307.823
  307.779
  307.729
  307.677
  307.624
  307.57
  307.519
  307.47
  307.424
  307.379
  307.335
  307.293
  307.252
  307.212
  307.174
  307.137
  307.101
  307.068
  307.037
  307.007
  306.979
  306.95
  306.92
  306.89
  306.855
  313.03
  310.97
  310.041
  309.44
  309.156
  309.033
  308.964
  308.905
  308.844
  308.776
  308.7
  308.617
  308.532
  308.446
  308.361
  308.277
  308.194
  308.113
  308.034
  307.958
  307.883
  307.811
  307.743
  307.677
  307.614
  307.553
  307.494
  307.438
  307.382
  307.329
  307.277
  307.227
  307.178
  307.128
  307.077
  307.022
  306.96
  306.886
  310.714
  310.806
  312.148
  311.844
  311.521
  311.227
  310.98
  310.758
  310.551
  310.353
  310.155
  309.957
  309.764
  309.582
  309.412
  309.254
  309.108
  308.97
  308.841
  308.719
  308.604
  308.494
  308.389
  308.289
  308.192
  308.099
  308.009
  307.923
  307.839
  307.757
  307.677
  307.599
  307.522
  307.446
  307.369
  307.291
  307.209
  307.117
  307.005
  306.86
)
;

boundaryField
{
  floor
  {
    type wallHeatTransfer;
    Tinf uniform 305.2;
    alphaWall uniform 0.24;
    value nonuniform List<scalar> 29
(
  305.354
  304.441
  304.353
  304.32
  304.313
  304.307
  304.305
  304.308
  304.3
  304.289
  304.282
  304.279
  304.28
  304.286
  304.296
  304.31
  304.325
  304.343
  304.347
  304.364
  304.364
  304.513
  305.287
  306.049
  305.354
  304.441
  304.73
  304.986
  305.494
)
;
  }
  ceiling
  {
    type wallHeatTransfer;
    Tinf uniform 303.2;
    alphaWall uniform 0.24;
    value nonuniform List<scalar> 43
(
  310.047
  310.27
  311.887
  311.57
  311.215
  310.885
  310.603
  310.35
  310.118
  309.903
  309.699
  309.504
  309.32
  309.15
  308.992
  308.844
  308.707
  308.578
  308.456
  308.341
  308.231
  308.127
  308.028
  307.932
  307.841
  307.753
  307.667
  307.585
  307.504
  307.426
  307.35
  307.275
  307.201
  307.128
  307.054
  306.977
  306.896
  306.805
  306.694
  306.523
  307.427
  308.223
  312.841
)
;
  }
  sWall
  {
    type wallHeatTransfer;
    Tinf uniform 315.2;
    alphaWall uniform 0.36;
    value uniform 311.287;
  }
  nWall
  {
    type wallHeatTransfer;
    Tinf uniform 307.2;
    alphaWall uniform 0.36;
    value nonuniform List<scalar> 6
(
  306.497
  306.732
  306.817
  306.894
  306.919
  306.905
)
;
  }
  sideWalls
  {
    type empty;
  }
  glass1
  {
    type wallHeatTransfer;
    Tinf uniform 315.2;
    alphaWall uniform 4.3;
    value nonuniform List<scalar> 9
(
  312.606
  311.641
  311.104
  310.793
  310.632
  310.517
  310.688
  310.902
  311.212
)
;
  }
  glass2
  {
    type wallHeatTransfer;
    Tinf uniform 307.2;
    alphaWall uniform 4.3;
    value nonuniform List<scalar> 2
(
  307.058
  307.061
)
;
  }
  sun
  {
    type wallHeatTransfer;
    Tinf uniform 305.2;
    alphaWall uniform 0.24;
    value nonuniform List<scalar> 14
(
  305.444
  305.231
  305.231
  305.236
  305.246
  305.257
  305.268
  305.28
  305.293
  305.306
  305.32
  305.332
  305.344
  305.353
)
;
  }
  heatsource1
  {
    type fixedGradient;
    gradient uniform 0;
  }
  heatsource2
  {
    type fixedGradient;
    gradient uniform 0;
  }
  Table_master
  {
    type zeroGradient;
  }
  Table_slave
  {
    type zeroGradient;
  }
  inlet
  {
    type fixedValue;
    value uniform 293.15;
  }
  outlet
  {
    type zeroGradient;
  }
} 	// ************************************************************************* //

