// -*- C++ -*-
// File generated by PyFoam - sorry for the ugliness

FoamFile
{
 version 2.0;
 format ascii;
 class volScalarField;
 location "1300";
 object T;
}

dimensions [ 0 0 0 1 0 0 0 ];

internalField nonuniform List<scalar> 459
(
  303.757
  303.486
  303.477
  303.476
  303.475
  303.474
  303.472
  303.47
  303.467
  303.463
  303.455
  303.445
  303.433
  303.421
  303.41
  303.332
  303.318
  303.312
  303.307
  303.303
  303.299
  303.295
  303.291
  303.286
  303.281
  303.275
  303.269
  303.261
  303.253
  303.244
  303.234
  303.223
  303.21
  303.212
  303.954
  303.529
  303.51
  303.517
  303.524
  303.529
  303.532
  303.534
  303.533
  303.527
  303.513
  303.493
  303.466
  303.436
  303.405
  303.381
  303.363
  303.333
  303.322
  303.312
  303.304
  303.297
  303.29
  303.284
  303.277
  303.271
  303.263
  303.256
  303.248
  303.24
  303.231
  303.222
  303.213
  303.203
  303.19
  303.198
  304.151
  303.579
  303.543
  303.558
  303.575
  303.591
  303.603
  303.612
  303.615
  303.61
  303.591
  303.56
  303.518
  303.472
  303.429
  303.395
  303.369
  303.332
  303.317
  303.308
  303.302
  303.296
  303.291
  303.285
  303.278
  303.27
  303.262
  303.254
  303.246
  303.237
  303.229
  303.22
  303.212
  303.201
  303.188
  303.193
  304.341
  303.641
  303.575
  303.594
  303.621
  303.649
  303.674
  303.694
  303.705
  303.701
  303.678
  303.633
  303.574
  303.51
  303.452
  303.405
  303.37
  303.35
  303.33
  303.317
  303.309
  303.303
  303.299
  303.296
  303.293
  303.29
  303.288
  303.286
  303.284
  303.282
  303.279
  303.276
  303.271
  303.249
  303.225
  303.199
  303.194
  304.52
  303.718
  303.609
  303.62
  303.654
  303.691
  303.729
  303.762
  303.784
  303.786
  303.759
  303.702
  303.625
  303.544
  303.473
  303.417
  303.376
  303.348
  303.33
  303.318
  303.311
  303.307
  303.304
  303.302
  303.301
  303.3
  303.299
  303.298
  303.297
  303.294
  303.29
  303.284
  303.277
  303.263
  303.241
  303.212
  303.195
  303.239
  303.276
  303.287
  304.676
  303.816
  303.669
  303.649
  303.675
  303.714
  303.757
  303.801
  303.839
  303.851
  303.821
  303.752
  303.661
  303.567
  303.486
  303.424
  303.379
  303.349
  303.33
  303.319
  303.314
  303.312
  303.311
  303.311
  303.311
  303.311
  303.311
  303.31
  303.309
  303.305
  303.3
  303.293
  303.284
  303.271
  303.252
  303.226
  303.205
  303.216
  303.224
  303.254
  304.808
  303.975
  303.825
  303.754
  303.738
  303.751
  303.783
  303.825
  303.876
  303.888
  303.85
  303.772
  303.672
  303.572
  303.487
  303.422
  303.377
  303.346
  303.328
  303.319
  303.317
  303.318
  303.319
  303.321
  303.322
  303.323
  303.323
  303.323
  303.321
  303.317
  303.311
  303.301
  303.29
  303.277
  303.261
  303.24
  303.222
  303.22
  303.222
  303.246
  305.017
  304.394
  304.227
  304.084
  303.978
  303.921
  303.905
  303.919
  303.937
  303.918
  303.853
  303.755
  303.644
  303.542
  303.461
  303.403
  303.364
  303.339
  303.325
  303.321
  303.322
  303.325
  303.328
  303.331
  303.333
  303.334
  303.335
  303.335
  303.334
  303.331
  303.325
  303.317
  303.302
  303.29
  303.279
  303.266
  303.258
  303.265
  303.277
  303.399
  305.311
  305.032
  304.758
  304.532
  304.352
  304.221
  304.135
  304.08
  304.014
  303.913
  303.794
  303.67
  303.556
  303.467
  303.405
  303.365
  303.341
  303.328
  303.322
  303.324
  303.328
  303.333
  303.337
  303.34
  303.344
  303.346
  303.348
  303.349
  303.349
  303.349
  303.348
  303.349
  303.353
  303.36
  303.374
  303.396
  303.425
  303.455
  303.476
  303.528
  297.941
  301.557
  302.845
  303.297
  303.479
  303.542
  303.548
  303.53
  303.489
  303.433
  303.38
  303.346
  303.328
  303.32
  303.318
  303.319
  303.322
  303.328
  303.334
  303.339
  303.344
  303.349
  303.353
  303.357
  303.361
  303.364
  303.367
  303.371
  303.375
  303.379
  303.384
  303.393
  303.405
  303.423
  303.444
  303.462
  303.474
  303.487
  298.696
  301.436
  302.372
  302.864
  303.11
  303.217
  303.252
  303.263
  303.259
  303.244
  303.244
  303.263
  303.281
  303.298
  303.311
  303.318
  303.325
  303.331
  303.337
  303.343
  303.349
  303.354
  303.359
  303.364
  303.368
  303.373
  303.377
  303.381
  303.385
  303.39
  303.395
  303.402
  303.411
  303.424
  303.438
  303.451
  303.444
  303.47
  302.243
  300.83
  300.505
  302.09
  302.582
  302.859
  303.063
  303.12
  303.136
  303.138
  303.138
  303.144
  303.201
  303.278
  303.294
  303.302
  303.308
  303.314
  303.319
  303.325
  303.331
  303.337
  303.343
  303.349
  303.355
  303.36
  303.365
  303.369
  303.374
  303.378
  303.383
  303.387
  303.392
  303.397
  303.404
  303.415
  303.423
  303.426
  303.425
  303.46
)
;

boundaryField
{
  floor
  {
    type wallHeatTransfer;
    Tinf uniform 305.2;
    alphaWall uniform 0.24;
    value nonuniform List<scalar> 29
(
  303.616
  303.742
  303.676
  303.68
  303.685
  303.69
  303.696
  303.704
  303.714
  303.722
  303.731
  303.739
  303.747
  303.754
  303.761
  303.767
  303.773
  303.779
  303.764
  303.779
  303.779
  303.647
  303.594
  303.564
  303.616
  303.742
  303.623
  303.588
  303.57
)
;
  }
  ceiling
  {
    type wallHeatTransfer;
    Tinf uniform 303.2;
    alphaWall uniform 0.24;
    value nonuniform List<scalar> 43
(
  302.306
  300.976
  300.663
  302.152
  302.618
  302.88
  303.072
  303.125
  303.141
  303.143
  303.143
  303.15
  303.201
  303.267
  303.28
  303.286
  303.29
  303.292
  303.296
  303.301
  303.306
  303.312
  303.317
  303.323
  303.328
  303.334
  303.339
  303.344
  303.349
  303.354
  303.359
  303.364
  303.369
  303.375
  303.382
  303.393
  303.401
  303.403
  303.401
  303.431
  305.212
  304.959
  298.941
)
;
  }
  sWall
  {
    type wallHeatTransfer;
    Tinf uniform 315.2;
    alphaWall uniform 0.36;
    value uniform 303.492;
  }
  nWall
  {
    type wallHeatTransfer;
    Tinf uniform 307.2;
    alphaWall uniform 0.36;
    value nonuniform List<scalar> 6
(
  304.009
  303.96
  303.889
  304.02
  303.999
  304.057
)
;
  }
  sideWalls
  {
    type empty;
  }
  glass1
  {
    type wallHeatTransfer;
    Tinf uniform 315.2;
    alphaWall uniform 4.3;
    value nonuniform List<scalar> 9
(
  312.061
  311.337
  310.864
  310.491
  310.185
  309.92
  309.706
  309.76
  309.97
)
;
  }
  glass2
  {
    type wallHeatTransfer;
    Tinf uniform 307.2;
    alphaWall uniform 4.3;
    value nonuniform List<scalar> 2
(
  305.745
  305.843
)
;
  }
  sun
  {
    type wallHeatTransfer;
    Tinf uniform 305.2;
    alphaWall uniform 0.24;
    value nonuniform List<scalar> 14
(
  303.939
  303.693
  303.687
  303.681
  303.676
  303.671
  303.667
  303.662
  303.658
  303.652
  303.645
  303.637
  303.629
  303.622
)
;
  }
  heatsource1
  {
    type fixedGradient;
    gradient uniform 0;
  }
  heatsource2
  {
    type fixedGradient;
    gradient uniform 0;
  }
  Table_master
  {
    type zeroGradient;
  }
  Table_slave
  {
    type zeroGradient;
  }
  inlet
  {
    type fixedValue;
    value uniform 293.15;
  }
  outlet
  {
    type zeroGradient;
  }
} 	// ************************************************************************* //

