// -*- C++ -*-
// File generated by PyFoam - sorry for the ugliness

FoamFile
{
 version 2.0;
 format ascii;
 class volVectorField;
 location "300";
 object U;
}

dimensions [ 0 1 -1 0 0 0 0 ];

internalField nonuniform List<vector> 459
(
  (0.00205745 0.0371718 0)
  (-0.0811881 -0.0491724 0)
  (-0.0113762 -0.0339925 0)
  (-0.0350643 0.0444638 0)
  (-0.0464704 0.0384805 0)
  (-0.0974831 0.00819898 0)
  (-0.121824 -0.00992211 0)
  (-0.11758 -0.0156729 0)
  (-0.101051 -0.0164245 0)
  (-0.083689 -0.0135074 0)
  (-0.0690323 -0.0109641 0)
  (-0.0557382 -0.0101009 0)
  (-0.0420229 -0.0112611 0)
  (-0.0314065 -0.014951 0)
  (-0.0424899 -0.0195241 0)
  (0.0195163 0.0119383 0)
  (-0.0327809 -0.00757506 0)
  (-0.0212713 -0.00737303 0)
  (-0.0193644 -0.00339988 0)
  (-0.0185358 -0.00145299 0)
  (-0.0190915 -0.00243702 0)
  (-0.0162318 -0.00568866 0)
  (-0.0102136 -0.00741093 0)
  (-0.00164773 -0.0114365 0)
  (0.00630842 -0.00933695 0)
  (0.0133772 -0.0068238 0)
  (0.0178395 -0.0053738 0)
  (0.0211952 -0.00425795 0)
  (0.0241196 -0.0028794 0)
  (0.0260399 -0.00147519 0)
  (0.0272603 -0.00122134 0)
  (0.0290453 -0.00330542 0)
  (0.0360908 -0.000807463 0)
  (-0.0124031 0.0151471 0)
  (0.25937 0.21759 0)
  (0.175052 -0.0482966 0)
  (0.1924 -0.0354387 0)
  (0.195452 0.0358724 0)
  (0.159707 0.0850418 0)
  (0.0948077 0.0953162 0)
  (0.00131821 0.0570262 0)
  (-0.0755433 -0.00812175 0)
  (-0.0825444 -0.0244261 0)
  (-0.0763739 -0.022268 0)
  (-0.0694359 -0.018604 0)
  (-0.0615134 -0.0173637 0)
  (-0.0518558 -0.0191022 0)
  (-0.0407745 -0.0240132 0)
  (-0.030074 -0.0306919 0)
  (-0.018428 -0.0343996 0)
  (0.0179876 0.00329799 0)
  (0.100115 0.0148123 0)
  (0.0418586 0.00906276 0)
  (0.0188238 0.00365839 0)
  (0.00953827 0.00217313 0)
  (0.00602238 0.00361572 0)
  (0.00076665 0.00639098 0)
  (-0.00714741 -0.00364617 0)
  (-0.00587703 -0.00847088 0)
  (-0.00479026 -0.0146493 0)
  (-0.00564271 -0.00964052 0)
  (-0.000709853 -0.00517029 0)
  (-0.000726069 -0.00395508 0)
  (-0.00236263 -0.0023376 0)
  (-0.00503424 9.93236e-05 0)
  (-0.00684406 -0.000582487 0)
  (-0.00565787 -0.00619405 0)
  (-0.00131817 -0.0122963 0)
  (0.0211476 -0.00288723 0)
  (-0.0758195 0.0341789 0)
  (0.56934 -0.176144 0)
  (0.319933 -0.179685 0)
  (0.33067 -0.0825502 0)
  (0.329401 0.035909 0)
  (0.270689 0.123144 0)
  (0.18928 0.159407 0)
  (0.099886 0.143989 0)
  (0.0116554 0.0805038 0)
  (-0.0530678 -0.00903736 0)
  (-0.0630873 -0.0208808 0)
  (-0.0674523 -0.0209233 0)
  (-0.0681061 -0.0221091 0)
  (-0.0662407 -0.0260524 0)
  (-0.0626587 -0.0322261 0)
  (-0.0582578 -0.0382944 0)
  (-0.0550529 -0.040226 0)
  (-0.0584776 -0.0357187 0)
  (0.0645357 -0.00154057 0)
  (-0.0300994 0.00637581 0)
  (-0.0236327 0.00835401 0)
  (-0.0196154 0.00577472 0)
  (-0.0141181 0.00344369 0)
  (-0.0114135 0.00063977 0)
  (0.0121414 0.000102396 0)
  (0.011709 -0.00668682 0)
  (-0.00987137 -0.0150874 0)
  (-0.0235757 -0.0100831 0)
  (-0.0290845 -0.00701782 0)
  (-0.0330442 -0.00534311 0)
  (-0.0356237 -0.00410366 0)
  (-0.0364855 -0.00331061 0)
  (-0.0347242 -0.00372652 0)
  (-0.0263049 -0.00465337 0)
  (-0.0314278 0.000659669 0)
  (-0.0542253 0.0103303 0)
  (-0.123837 0.0210761 0)
  (0.58628 -0.423826 0)
  (0.166072 -0.258203 0)
  (0.229144 -0.067308 0)
  (0.255684 0.0898855 0)
  (0.217995 0.189903 0)
  (0.157042 0.23121 0)
  (0.0911389 0.215742 0)
  (0.0250459 0.148315 0)
  (-0.0294604 0.0370773 0)
  (-0.0510659 -0.00436881 0)
  (-0.0647767 -0.0136012 0)
  (-0.072702 -0.0182299 0)
  (-0.0782449 -0.0236386 0)
  (-0.0830858 -0.0297413 0)
  (-0.0888374 -0.0343033 0)
  (-0.0976235 -0.033244 0)
  (-0.108632 -0.0196296 0)
  (-0.105463 0.0146882 0)
  (-0.0829718 0.00504052 0)
  (-0.0795825 0.00656794 0)
  (-0.0711537 0.00358951 0)
  (-0.0677211 1.23195e-06 0)
  (-0.0661451 -0.00410897 0)
  (-0.0658829 -0.00788206 0)
  (-0.0634839 -0.00733576 0)
  (-0.0561242 -0.00763983 0)
  (-0.0485876 -0.00818635 0)
  (-0.0407248 -0.00849091 0)
  (-0.0328198 -0.00855946 0)
  (-0.0251145 -0.00846788 0)
  (-0.017661 -0.00836575 0)
  (-0.010011 -0.00835315 0)
  (0.000136166 -0.00799244 0)
  (0.00244697 -0.00876779 0)
  (0.0125984 -0.00318227 0)
  (0.0244246 0.000504511 0)
  (-0.0472899 0.00423338 0)
  (0.57174 -0.554057 0)
  (-0.0229262 -0.280485 0)
  (0.107717 -0.0302716 0)
  (0.146197 0.130578 0)
  (0.120854 0.23326 0)
  (0.0815135 0.280604 0)
  (0.0420351 0.265897 0)
  (0.00357495 0.189656 0)
  (-0.0277559 0.0688382 0)
  (-0.0438829 0.0176546 0)
  (-0.0588298 -0.00103123 0)
  (-0.0685127 -0.00988499 0)
  (-0.0757379 -0.0168669 0)
  (-0.0822436 -0.023585 0)
  (-0.0890079 -0.029281 0)
  (-0.0960724 -0.0321701 0)
  (-0.101147 -0.0291997 0)
  (-0.101692 -0.0179283 0)
  (-0.09706 -0.00859468 0)
  (-0.0903126 -0.00296388 0)
  (-0.0831129 -0.00209123 0)
  (-0.0775395 -0.00325769 0)
  (-0.0732145 -0.00559138 0)
  (-0.0697929 -0.00788828 0)
  (-0.0659978 -0.00879237 0)
  (-0.0613002 -0.00993767 0)
  (-0.0563526 -0.0107223 0)
  (-0.051306 -0.0110951 0)
  (-0.0462942 -0.0110876 0)
  (-0.041394 -0.0109067 0)
  (-0.0364889 -0.0109469 0)
  (-0.0311017 -0.0116896 0)
  (-0.0244274 -0.0134654 0)
  (-0.0161396 -0.0169628 0)
  (-0.00267661 -0.0186826 0)
  (0.0246113 -0.0172754 0)
  (0.0485575 -0.010174 0)
  (0.0895841 -0.0155352 0)
  (0.11549 0.00596729 0)
  (-0.0407149 0.0549642 0)
  (0.526201 -0.608156 0)
  (-0.14765 -0.30289 0)
  (0.0532256 -0.0261385 0)
  (0.0501484 0.143503 0)
  (0.0230088 0.256117 0)
  (0.00400482 0.3077 0)
  (-0.0101662 0.289153 0)
  (-0.022447 0.205918 0)
  (-0.0327566 0.0895177 0)
  (-0.0408968 0.0330108 0)
  (-0.0503111 0.00986783 0)
  (-0.0575847 -0.00195882 0)
  (-0.063146 -0.0101891 0)
  (-0.0682767 -0.0169831 0)
  (-0.0736037 -0.0220845 0)
  (-0.0789021 -0.0242743 0)
  (-0.0826658 -0.0224936 0)
  (-0.0835321 -0.0177455 0)
  (-0.081485 -0.0126971 0)
  (-0.077447 -0.00903593 0)
  (-0.0727978 -0.0077243 0)
  (-0.0686627 -0.00809934 0)
  (-0.0653676 -0.00958039 0)
  (-0.0628508 -0.0112863 0)
  (-0.060656 -0.0125566 0)
  (-0.0585567 -0.0136485 0)
  (-0.0566795 -0.0143516 0)
  (-0.0551578 -0.0145379 0)
  (-0.0541483 -0.0142577 0)
  (-0.0537444 -0.0138394 0)
  (-0.0538607 -0.0138879 0)
  (-0.0541716 -0.015146 0)
  (-0.0540801 -0.0183844 0)
  (-0.0525307 -0.0242283 0)
  (-0.0469494 -0.0322284 0)
  (-0.034179 -0.0428654 0)
  (-0.0160313 -0.0570591 0)
  (0.0101881 -0.0638399 0)
  (0.0919706 -0.00079918 0)
  (-0.0706407 0.105453 0)
  (0.421299 -0.584093 0)
  (-0.185607 -0.32216 0)
  (0.0279239 -0.0357893 0)
  (-0.0411825 0.181137 0)
  (-0.0632616 0.264148 0)
  (-0.0578714 0.307125 0)
  (-0.0481391 0.287144 0)
  (-0.039775 0.204918 0)
  (-0.0351497 0.0968245 0)
  (-0.0352727 0.0403393 0)
  (-0.0382105 0.015569 0)
  (-0.0410072 0.00268888 0)
  (-0.0436082 -0.00620689 0)
  (-0.0461941 -0.0131754 0)
  (-0.0492653 -0.0182581 0)
  (-0.0525651 -0.0207788 0)
  (-0.0551838 -0.0203606 0)
  (-0.0562133 -0.0179121 0)
  (-0.0555106 -0.0148711 0)
  (-0.0535915 -0.0123783 0)
  (-0.0512291 -0.0110972 0)
  (-0.0491159 -0.0109542 0)
  (-0.0476139 -0.0116529 0)
  (-0.0468061 -0.0126796 0)
  (-0.0465637 -0.0136084 0)
  (-0.0468354 -0.0142573 0)
  (-0.047754 -0.0143483 0)
  (-0.0495924 -0.0136848 0)
  (-0.0527974 -0.0123425 0)
  (-0.0578604 -0.0108734 0)
  (-0.0650447 -0.010222 0)
  (-0.0742005 -0.0112935 0)
  (-0.0846384 -0.0148658 0)
  (-0.0955174 -0.0219728 0)
  (-0.10572 -0.0338213 0)
  (-0.11353 -0.0512765 0)
  (-0.115875 -0.0714793 0)
  (-0.104539 -0.0777181 0)
  (-0.0701882 -0.0247917 0)
  (-0.143764 0.190386 0)
  (0.237501 -0.466476 0)
  (-0.262198 -0.268249 0)
  (-0.142063 -0.0553637 0)
  (-0.113775 0.208271 0)
  (-0.13682 0.249722 0)
  (-0.100305 0.283156 0)
  (-0.0677994 0.265279 0)
  (-0.0428289 0.189575 0)
  (-0.0264219 0.092887 0)
  (-0.0198481 0.040128 0)
  (-0.0182856 0.016046 0)
  (-0.0176142 0.00328776 0)
  (-0.0166464 -0.00524651 0)
  (-0.0165031 -0.0116384 0)
  (-0.0173279 -0.0160842 0)
  (-0.0189286 -0.0184134 0)
  (-0.0206712 -0.0186096 0)
  (-0.0218605 -0.01726 0)
  (-0.0222243 -0.01528 0)
  (-0.0219423 -0.0134231 0)
  (-0.0214176 -0.012175 0)
  (-0.0210731 -0.0116402 0)
  (-0.0211936 -0.0117011 0)
  (-0.021897 -0.0120625 0)
  (-0.0231568 -0.0123919 0)
  (-0.0249367 -0.0123646 0)
  (-0.0272791 -0.0115573 0)
  (-0.0303828 -0.00953703 0)
  (-0.0347426 -0.00605271 0)
  (-0.0410681 -0.00130937 0)
  (-0.0503848 0.00378669 0)
  (-0.065152 0.00711298 0)
  (-0.0865775 0.00591624 0)
  (-0.114401 -0.00188388 0)
  (-0.146929 -0.0162736 0)
  (-0.180371 -0.0343507 0)
  (-0.212344 -0.0520449 0)
  (-0.240799 -0.0615991 0)
  (-0.298279 -0.0519427 0)
  (-0.515368 -0.00330439 0)
  (-0.0395478 -0.29817 0)
  (-0.585751 -0.204875 0)
  (-0.751518 -0.130148 0)
  (-0.169743 0.148663 0)
  (-0.201401 0.196325 0)
  (-0.119253 0.234923 0)
  (-0.0658204 0.226999 0)
  (-0.0262011 0.16411 0)
  (0.00211741 0.0798693 0)
  (0.0128075 0.0348521 0)
  (0.0158524 0.0137759 0)
  (0.0178783 0.00207645 0)
  (0.0208946 -0.00536289 0)
  (0.0224344 -0.0102694 0)
  (0.0226534 -0.0133136 0)
  (0.0216962 -0.0147622 0)
  (0.020037 -0.0148165 0)
  (0.0182565 -0.0138469 0)
  (0.0167247 -0.0123767 0)
  (0.0155049 -0.01088 0)
  (0.0144479 -0.00968484 0)
  (0.0133217 -0.00891676 0)
  (0.0119226 -0.00854789 0)
  (0.0101296 -0.00842845 0)
  (0.00792816 -0.00833691 0)
  (0.00539205 -0.00798442 0)
  (0.00268076 -0.00695655 0)
  (9.85632e-06 -0.00473508 0)
  (-0.0023619 -0.000892282 0)
  (-0.00396337 0.00476655 0)
  (-0.00570599 0.0119429 0)
  (-0.00781031 0.019507 0)
  (-0.0108375 0.0250664 0)
  (-0.0148323 0.026004 0)
  (-0.0193065 0.0202244 0)
  (-0.0304115 0.00643044 0)
  (-0.0399808 -0.0129331 0)
  (-0.0293368 -0.0454899 0)
  (-0.038475 -0.11949 0)
  (-0.449758 -0.207855 0)
  (-1.80128 -0.174372 0)
  (-0.0433708 -0.0605669 0)
  (-0.19829 0.085527 0)
  (-0.0989647 0.164923 0)
  (-0.0367762 0.17496 0)
  (0.0185296 0.122178 0)
  (0.0519674 0.0637162 0)
  (0.0657185 0.0312709 0)
  (0.0701529 0.0143116 0)
  (0.0727928 0.00405811 0)
  (0.0740829 -0.0033496 0)
  (0.073861 -0.00791718 0)
  (0.0722361 -0.0103129 0)
  (0.0695283 -0.011156 0)
  (0.0661995 -0.010913 0)
  (0.0627219 -0.00997874 0)
  (0.0594334 -0.00871834 0)
  (0.0564729 -0.00743363 0)
  (0.0538096 -0.0063315 0)
  (0.0513141 -0.00550491 0)
  (0.0488316 -0.00494741 0)
  (0.0462346 -0.00457053 0)
  (0.0434593 -0.00422308 0)
  (0.040531 -0.00368821 0)
  (0.0376034 -0.00265068 0)
  (0.0350168 -0.00069843 0)
  (0.033343 0.00257082 0)
  (0.0331084 0.00706354 0)
  (0.0344797 0.0127158 0)
  (0.0377307 0.018621 0)
  (0.0424353 0.0225939 0)
  (0.0478065 0.0222409 0)
  (0.0532636 0.0163839 0)
  (0.0585981 0.00531 0)
  (0.0636772 -0.00834459 0)
  (0.0739983 -0.0225538 0)
  (0.125195 -0.0682429 0)
  (-0.11662 -0.151847 0)
  (-0.659075 0.0524331 0)
  (0.201315 -0.114186 0)
  (-0.0934714 -0.0355103 0)
  (-0.0489588 0.0765891 0)
  (0.0236065 0.101121 0)
  (0.0815492 0.0606769 0)
  (0.118788 0.0184096 0)
  (0.136609 -0.0121004 0)
  (0.142851 -0.0340404 0)
  (0.143416 -0.0488399 0)
  (0.140145 -0.0567737 0)
  (0.134691 -0.0606266 0)
  (0.128103 -0.0621003 0)
  (0.12114 -0.0622279 0)
  (0.11434 -0.0616244 0)
  (0.108052 -0.0606736 0)
  (0.102447 -0.0596257 0)
  (0.0975411 -0.0586331 0)
  (0.0932383 -0.0577671 0)
  (0.0893817 -0.0570341 0)
  (0.0858061 -0.0563939 0)
  (0.0823771 -0.0557758 0)
  (0.0790198 -0.0550897 0)
  (0.0757399 -0.0542278 0)
  (0.0726528 -0.0530604 0)
  (0.0700348 -0.0514294 0)
  (0.0684693 -0.0490329 0)
  (0.0684955 -0.0438618 0)
  (0.0706214 -0.0365773 0)
  (0.0753853 -0.0290821 0)
  (0.0824737 -0.023934 0)
  (0.0905625 -0.0236231 0)
  (0.0978532 -0.0295681 0)
  (0.102774 -0.0388097 0)
  (0.102018 -0.0475964 0)
  (0.0938052 -0.0570065 0)
  (0.129071 -0.0762856 0)
  (-0.188343 -0.0948412 0)
  (0.67271 0.172162 0)
  (0.108731 -0.262909 0)
  (-0.339019 0.15944 0)
  (0.150942 0.0537718 0)
  (-0.0333017 0.140382 0)
  (-0.00444521 0.141349 0)
  (0.0785971 0.142131 0)
  (0.140028 0.130512 0)
  (0.180742 0.125184 0)
  (0.200961 0.127333 0)
  (0.207166 0.134367 0)
  (0.205464 0.142169 0)
  (0.199863 0.147807 0)
  (0.192766 0.151797 0)
  (0.185055 0.154628 0)
  (0.177202 0.156622 0)
  (0.169556 0.158014 0)
  (0.16234 0.158986 0)
  (0.155656 0.159679 0)
  (0.149511 0.160191 0)
  (0.143862 0.160589 0)
  (0.138644 0.160905 0)
  (0.133802 0.161139 0)
  (0.129306 0.161264 0)
  (0.125165 0.161221 0)
  (0.12143 0.160918 0)
  (0.1182 0.160236 0)
  (0.115644 0.159036 0)
  (0.114087 0.157139 0)
  (0.113775 0.152129 0)
  (0.115555 0.144517 0)
  (0.119818 0.135863 0)
  (0.126084 0.12788 0)
  (0.132746 0.121938 0)
  (0.137315 0.119119 0)
  (0.136372 0.116549 0)
  (0.127536 0.111688 0)
  (0.107895 0.105047 0)
  (0.145641 0.0882187 0)
  (-0.280751 0.0848537 0)
)
;

boundaryField
{
  floor
  {
    type noSlip;
  }
  ceiling
  {
    type noSlip;
  }
  sWall
  {
    type noSlip;
  }
  nWall
  {
    type noSlip;
  }
  sideWalls
  {
    type empty;
  }
  glass1
  {
    type noSlip;
  }
  glass2
  {
    type noSlip;
  }
  sun
  {
    type noSlip;
  }
  heatsource1
  {
    type noSlip;
  }
  heatsource2
  {
    type noSlip;
  }
  Table_master
  {
    type noSlip;
  }
  Table_slave
  {
    type noSlip;
  }
  inlet
  {
    type fixedValue;
    value uniform (0.3 0 0);
  }
  outlet
  {
    type zeroGradient;
  }
} 	// ************************************************************************* //

