/*--------------------------------*- C++ -*----------------------------------*\
  =========                 |
  \\      /  F ield         | OpenFOAM: The Open Source CFD Toolbox
   \\    /   O peration     | Website:  https://openfoam.org
    \\  /    A nd           | Version:  6
     \\/     M anipulation  |
\*---------------------------------------------------------------------------*/
FoamFile
{
    version     2.0;
    format      ascii;
    class       volScalarField;
    location    "1100";
    object      epsilon;
}
// * * * * * * * * * * * * * * * * * * * * * * * * * * * * * * * * * * * * * //

dimensions      [0 2 -3 0 0 0 0];

internalField   nonuniform List<scalar> 
459
(
0.000447082
0.000583079
0.000616412
0.000709685
0.000804049
0.000899653
0.00100049
0.0011058
0.00118415
0.00121778
0.00119198
0.00110226
0.00095822
0.000786046
0.000622298
3.77639e-05
6.89751e-05
9.81516e-05
9.63059e-05
8.6678e-05
7.50515e-05
6.20132e-05
5.0679e-05
4.16673e-05
3.46186e-05
2.90803e-05
2.46828e-05
2.11638e-05
1.83031e-05
1.59042e-05
1.37951e-05
1.18066e-05
1.05058e-05
7.93518e-06
0.00112989
0.00162176
0.000552856
0.000537036
0.000563442
0.000605682
0.000667038
0.000747985
0.000824855
0.000873975
0.000876024
0.000824491
0.000726061
0.000604168
0.000519998
0.000660179
0.000133986
4.77057e-05
0.00011726
0.000122665
0.000110736
9.38183e-05
7.82524e-05
7.00217e-05
5.67086e-05
4.49982e-05
3.57163e-05
2.85494e-05
2.30386e-05
1.88032e-05
1.55568e-05
1.31705e-05
1.1721e-05
1.10793e-05
2.50969e-05
1.76594e-05
0.00205796
0.00396299
0.000689681
0.000515616
0.000541031
0.00060802
0.000706145
0.000828747
0.000941714
0.00101195
0.00102143
0.000970253
0.000868686
0.000739336
0.00062641
0.000565523
0.000651239
0.000378034
0.000266351
0.000199692
0.000153668
0.000120699
0.000101104
0.000181972
0.00012531
8.94234e-05
6.6051e-05
5.03385e-05
3.94485e-05
3.17048e-05
2.61115e-05
2.20913e-05
1.67686e-05
1.39437e-05
4.46727e-05
2.72894e-05
0.0033287
0.00820837
0.00110369
0.000529979
0.000535713
0.000632229
0.00078567
0.000973353
0.00112117
0.00119638
0.0011948
0.00112758
0.00100655
0.000853251
0.00071322
0.000611845
0.000583764
0.00111472
0.000617126
0.000369713
0.000247407
0.000178138
0.000135505
0.000115619
0.000261443
0.00019721
0.000158328
0.000132408
0.000112785
9.66023e-05
8.26131e-05
6.94701e-05
5.60755e-05
3.29911e-05
2.1399e-05
6.96749e-05
3.6804e-05
0.00507625
0.0145951
0.00220196
0.000653894
0.000568722
0.000698605
0.000975759
0.00125279
0.00140852
0.00145679
0.0014207
0.00131815
0.00116114
0.000970292
0.000776368
0.000605807
0.000478013
0.000417332
0.000335661
0.000262801
0.000204958
0.000161039
0.000128658
0.000107421
0.000103419
9.58011e-05
8.82182e-05
8.08404e-05
7.32488e-05
6.53539e-05
5.75967e-05
5.02935e-05
4.36029e-05
3.45403e-05
2.61934e-05
5.16239e-05
4.0738e-05
6.88012e-05
0.000122169
0.000172786
0.0075029
0.0216286
0.00495581
0.00131414
0.000906142
0.00105809
0.00156201
0.00180776
0.00187173
0.00183677
0.00173932
0.00158389
0.00137199
0.00112078
0.000863082
0.000634385
0.000461973
0.000353428
0.000283027
0.000228587
0.000183225
0.000147171
0.000120397
0.000102728
9.40604e-05
8.99536e-05
8.71935e-05
8.40335e-05
7.94396e-05
7.25748e-05
6.34225e-05
5.39571e-05
4.53079e-05
3.75475e-05
3.23403e-05
4.07274e-05
4.22764e-05
5.26581e-05
0.000224834
0.000196202
0.0102907
0.0258266
0.0101349
0.00426943
0.00297818
0.00293445
0.00294097
0.00279436
0.00259534
0.00239343
0.00218381
0.00193867
0.00164068
0.00130428
0.000968305
0.000676779
0.000464367
0.000332767
0.000254236
0.000201073
0.000160586
0.000130606
0.000110396
9.90024e-05
9.50278e-05
9.54945e-05
9.75226e-05
9.9629e-05
0.000100774
9.94376e-05
9.26038e-05
8.19578e-05
7.1377e-05
6.22951e-05
5.85466e-05
6.45559e-05
8.11466e-05
0.000128398
0.000296636
0.000288813
0.0108991
0.0279481
0.0156504
0.0107739
0.00818345
0.00636501
0.0050258
0.00411991
0.00352425
0.00310869
0.00275713
0.00238372
0.00195217
0.00148904
0.00104753
0.000678744
0.000430462
0.000288367
0.000208828
0.000163658
0.000133186
0.000113265
0.000102009
9.78395e-05
9.91813e-05
0.000104306
0.000111973
0.000121889
0.000134193
0.000148824
0.000164806
0.000175122
0.000184148
0.000203202
0.00024291
0.000361203
0.000659675
0.00124202
0.00367442
0.00109683
0.0100534
0.016754
0.013339
0.0101316
0.00782831
0.00629821
0.00531889
0.00470451
0.00428332
0.00390089
0.00344951
0.00287747
0.00220353
0.00154102
0.000971362
0.000526554
0.000313924
0.000213481
0.000160522
0.000129493
0.000110287
9.93676e-05
9.4811e-05
9.52591e-05
9.97296e-05
0.000107626
0.000118925
0.000134319
0.000155133
0.000183269
0.000221243
0.000272743
0.00034358
0.000449707
0.000605965
0.000819053
0.00106535
0.00128373
0.00145246
0.000914095
0.00364248
0.00561074
0.00655881
0.00669219
0.00653125
0.00616136
0.00554341
0.00469849
0.00370843
0.00261633
0.00152136
0.000866923
0.000489393
0.000284922
0.000188478
0.000141072
0.000115641
0.000100949
9.23062e-05
8.7869e-05
8.64457e-05
8.73754e-05
9.04205e-05
9.57556e-05
0.000103919
0.000115835
0.000132916
0.000157213
0.000191703
0.000240704
0.000309167
0.000403715
0.000527872
0.000671263
0.000798011
0.000858786
0.000820634
0.000527585
0.00276299
0.00638913
0.00711211
0.00593586
0.00530071
0.00459103
0.00366248
0.00270474
0.00187155
0.00122225
0.000729718
0.000431863
0.000270117
0.000189338
0.000151976
0.000134684
0.000126384
0.000122064
0.000119477
0.000117687
0.000116426
0.00011574
0.000116052
0.000118069
0.000122526
0.000130256
0.000142488
0.00016106
0.000188659
0.000228692
0.000285625
0.000363951
0.000464157
0.000578436
0.000664068
0.000756518
0.00075898
0.000558775
0.00198316
0.00235927
0.00265244
0.00331601
0.00300353
0.00265355
0.00244017
0.00215567
0.00178647
0.00138952
0.00101861
0.000709821
0.000476899
0.000323312
0.000232194
0.000179107
0.000146874
0.000126271
0.000112681
0.000103724
9.80602e-05
9.49396e-05
9.39317e-05
9.50555e-05
9.85553e-05
0.000104507
0.000113082
0.000124852
0.000140703
0.000161912
0.000189059
0.000223496
0.000267287
0.000323021
0.000392959
0.000488405
0.000522045
0.000482963
0.000401003
0.000324824
)
;

boundaryField
{
    floor
    {
        Cmu             0.09;
        kappa           0.41;
        E               9.8;
        type            epsilonWallFunction;
        value           nonuniform List<scalar> 
29
(
0.000622298
3.77639e-05
6.89751e-05
9.81516e-05
9.63059e-05
8.6678e-05
7.50515e-05
6.20132e-05
5.0679e-05
4.16673e-05
3.46186e-05
2.90803e-05
2.46828e-05
2.11638e-05
1.83031e-05
1.59042e-05
1.37951e-05
1.18066e-05
1.05058e-05
7.93518e-06
7.93518e-06
1.76594e-05
2.72894e-05
3.6804e-05
0.000622298
3.77639e-05
4.77057e-05
0.000378034
0.00111472
)
;
    }
    ceiling
    {
        Cmu             0.09;
        kappa           0.41;
        E               9.8;
        type            epsilonWallFunction;
        value           nonuniform List<scalar> 
43
(
0.00198316
0.00235927
0.00265244
0.00331601
0.00300353
0.00265355
0.00244017
0.00215567
0.00178647
0.00138952
0.00101861
0.000709821
0.000476899
0.000323312
0.000232194
0.000179107
0.000146874
0.000126271
0.000112681
0.000103724
9.80602e-05
9.49396e-05
9.39317e-05
9.50555e-05
9.85553e-05
0.000104507
0.000113082
0.000124852
0.000140703
0.000161912
0.000189059
0.000223496
0.000267287
0.000323021
0.000392959
0.000488405
0.000522045
0.000482963
0.000401003
0.000324824
0.0100534
0.016754
0.00276299
)
;
    }
    sWall
    {
        Cmu             0.09;
        kappa           0.41;
        E               9.8;
        type            epsilonWallFunction;
        value           uniform 0.00198316;
    }
    nWall
    {
        Cmu             0.09;
        kappa           0.41;
        E               9.8;
        type            epsilonWallFunction;
        value           nonuniform List<scalar> 6(0.000172786 0.000196202 0.000288813 0.000527585 0.000558775 0.000324824);
    }
    sideWalls
    {
        type            empty;
    }
    glass1
    {
        Cmu             0.09;
        kappa           0.41;
        E               9.8;
        type            epsilonWallFunction;
        value           nonuniform List<scalar> 9(0.000447082 0.00112989 0.00205796 0.0033287 0.00507625 0.0075029 0.0102907 0.0108991 0.0100534);
    }
    glass2
    {
        Cmu             0.09;
        kappa           0.41;
        E               9.8;
        type            epsilonWallFunction;
        value           nonuniform List<scalar> 2(0.00109683 0.000914095);
    }
    sun
    {
        Cmu             0.09;
        kappa           0.41;
        E               9.8;
        type            epsilonWallFunction;
        value           nonuniform List<scalar> 
14
(
0.000447082
0.000583079
0.000616412
0.000709685
0.000804049
0.000899653
0.00100049
0.0011058
0.00118415
0.00121778
0.00119198
0.00110226
0.00095822
0.000786046
)
;
    }
    heatsource1
    {
        Cmu             0.09;
        kappa           0.41;
        E               9.8;
        type            epsilonWallFunction;
        value           nonuniform List<scalar> 3(6.88012e-05 0.000122169 0.000172786);
    }
    heatsource2
    {
        Cmu             0.09;
        kappa           0.41;
        E               9.8;
        type            epsilonWallFunction;
        value           nonuniform List<scalar> 4(0.000660179 0.000133986 0.000133986 0.000651239);
    }
    Table_master
    {
        Cmu             0.09;
        kappa           0.41;
        E               9.8;
        type            epsilonWallFunction;
        value           nonuniform List<scalar> 9(0.000181972 0.00012531 8.94234e-05 6.6051e-05 5.03385e-05 3.94485e-05 3.17048e-05 2.61115e-05 2.20913e-05);
    }
    Table_slave
    {
        Cmu             0.09;
        kappa           0.41;
        E               9.8;
        type            epsilonWallFunction;
        value           nonuniform List<scalar> 9(0.000261443 0.00019721 0.000158328 0.000132408 0.000112785 9.66023e-05 8.26131e-05 6.94701e-05 5.60755e-05);
    }
    inlet
    {
        type            turbulentMixingLengthDissipationRateInlet;
        mixingLength    0.01;
        phi             phi;
        k               k;
        value           uniform 0.000101881;
    }
    outlet
    {
        type            zeroGradient;
    }
}


// ************************************************************************* //
