// -*- C++ -*-
// File generated by PyFoam - sorry for the ugliness

FoamFile
{
 version 2.0;
 format ascii;
 class volScalarField;
 location "270";
 object T;
}

dimensions [ 0 0 0 1 0 0 0 ];

internalField nonuniform List<scalar> 459
(
  301.298
  301.262
  301.26
  301.259
  301.264
  301.29
  301.361
  301.404
  301.433
  301.452
  301.463
  301.472
  301.48
  301.488
  301.492
  301.958
  301.918
  301.889
  301.891
  301.909
  301.926
  301.941
  301.954
  301.967
  301.98
  301.992
  302.005
  302.017
  302.03
  302.043
  302.057
  302.072
  302.094
  302.134
  301.308
  301.253
  301.24
  301.233
  301.235
  301.275
  301.379
  301.458
  301.512
  301.544
  301.558
  301.563
  301.559
  301.548
  301.529
  301.538
  301.553
  301.956
  301.887
  301.85
  301.865
  301.895
  301.924
  301.944
  301.962
  301.979
  301.997
  302.014
  302.031
  302.049
  302.065
  302.08
  302.093
  302.105
  302.118
  302.151
  301.318
  301.247
  301.225
  301.211
  301.205
  301.255
  301.389
  301.51
  301.594
  301.639
  301.655
  301.653
  301.638
  301.614
  301.585
  301.573
  301.57
  301.892
  301.779
  301.797
  301.843
  301.896
  301.941
  301.955
  301.972
  301.99
  302.01
  302.03
  302.052
  302.073
  302.093
  302.11
  302.124
  302.132
  302.139
  302.163
  301.329
  301.246
  301.218
  301.197
  301.179
  301.233
  301.392
  301.561
  301.681
  301.742
  301.758
  301.747
  301.719
  301.682
  301.641
  301.613
  301.594
  301.604
  301.647
  301.699
  301.777
  301.862
  301.94
  302.001
  302.049
  302.085
  302.118
  302.149
  302.18
  302.211
  302.242
  302.274
  302.305
  302.24
  302.197
  302.175
  302.18
  301.342
  301.251
  301.221
  301.194
  301.159
  301.212
  301.392
  301.609
  301.768
  301.846
  301.862
  301.838
  301.794
  301.746
  301.699
  301.664
  301.643
  301.654
  301.698
  301.774
  301.868
  301.964
  302.048
  302.115
  302.17
  302.212
  302.247
  302.277
  302.303
  302.327
  302.349
  302.368
  302.378
  302.326
  302.263
  302.222
  302.204
  302.216
  302.235
  302.269
  301.356
  301.263
  301.236
  301.193
  301.144
  301.193
  301.394
  301.658
  301.859
  301.95
  301.96
  301.92
  301.867
  301.814
  301.769
  301.738
  301.729
  301.763
  301.836
  301.931
  302.03
  302.121
  302.196
  302.255
  302.3
  302.334
  302.36
  302.383
  302.403
  302.422
  302.438
  302.448
  302.444
  302.394
  302.335
  302.295
  302.259
  302.257
  302.266
  302.287
  301.376
  301.285
  301.259
  301.188
  301.124
  301.176
  301.407
  301.72
  301.96
  302.053
  302.047
  302.005
  301.956
  301.911
  301.875
  301.863
  301.883
  301.948
  302.038
  302.132
  302.221
  302.296
  302.353
  302.398
  302.428
  302.445
  302.461
  302.476
  302.489
  302.5
  302.506
  302.504
  302.49
  302.455
  302.405
  302.368
  302.316
  302.302
  302.299
  302.305
  301.403
  301.335
  301.278
  301.156
  301.085
  301.166
  301.449
  301.817
  302.089
  302.16
  302.151
  302.119
  302.087
  302.061
  302.048
  302.059
  302.105
  302.184
  302.271
  302.346
  302.413
  302.464
  302.499
  302.519
  302.53
  302.538
  302.545
  302.552
  302.556
  302.554
  302.544
  302.523
  302.492
  302.453
  302.414
  302.382
  302.358
  302.349
  302.345
  302.348
  301.443
  301.408
  301.218
  301.037
  301.012
  301.179
  301.571
  302.006
  302.239
  302.293
  302.291
  302.279
  302.269
  302.266
  302.276
  302.305
  302.356
  302.422
  302.486
  302.537
  302.574
  302.597
  302.61
  302.615
  302.617
  302.618
  302.617
  302.614
  302.606
  302.593
  302.573
  302.546
  302.516
  302.485
  302.46
  302.445
  302.445
  302.472
  302.531
  302.642
  300.299
  300.579
  300.928
  301.334
  301.983
  302.307
  302.411
  302.443
  302.454
  302.461
  302.468
  302.481
  302.501
  302.53
  302.568
  302.608
  302.643
  302.668
  302.684
  302.691
  302.692
  302.69
  302.686
  302.68
  302.673
  302.664
  302.651
  302.634
  302.614
  302.59
  302.564
  302.537
  302.513
  302.495
  302.491
  302.511
  302.565
  302.631
  301.869
  301.92
  302.065
  302.231
  302.383
  302.5
  302.555
  302.582
  302.599
  302.613
  302.626
  302.642
  302.66
  302.68
  302.702
  302.722
  302.737
  302.746
  302.75
  302.749
  302.745
  302.738
  302.731
  302.722
  302.711
  302.699
  302.684
  302.668
  302.649
  302.629
  302.607
  302.585
  302.564
  302.546
  302.535
  302.549
  302.583
  302.62
  302.367
  302.355
  302.346
  302.434
  302.504
  302.563
  302.614
  302.656
  302.684
  302.702
  302.716
  302.729
  302.74
  302.75
  302.76
  302.77
  302.777
  302.783
  302.785
  302.784
  302.78
  302.775
  302.768
  302.759
  302.75
  302.739
  302.727
  302.713
  302.698
  302.682
  302.664
  302.646
  302.628
  302.611
  302.596
  302.584
  302.578
  302.596
  302.63
  302.671
)
;

boundaryField
{
  floor
  {
    type wallHeatTransfer;
    Tinf uniform 299.755;
    alphaWall uniform 0.24;
    value nonuniform List<scalar> 29
(
  301.258
  301.545
  301.574
  301.574
  301.586
  301.599
  301.606
  301.605
  301.601
  301.596
  301.591
  301.587
  301.583
  301.58
  301.577
  301.574
  301.571
  301.567
  301.557
  301.556
  301.556
  301.614
  301.653
  301.704
  301.258
  301.545
  301.623
  301.583
  301.34
)
;
  }
  ceiling
  {
    type wallHeatTransfer;
    Tinf uniform 299.755;
    alphaWall uniform 0.24;
    value nonuniform List<scalar> 43
(
  302.157
  302.157
  302.161
  302.248
  302.306
  302.35
  302.388
  302.42
  302.442
  302.457
  302.47
  302.481
  302.492
  302.502
  302.511
  302.52
  302.527
  302.532
  302.533
  302.531
  302.526
  302.52
  302.512
  302.504
  302.495
  302.485
  302.474
  302.462
  302.449
  302.434
  302.418
  302.4
  302.382
  302.362
  302.342
  302.323
  302.307
  302.318
  302.355
  302.383
  301.312
  301.288
  301.746
)
;
  }
  sWall
  {
    type wallHeatTransfer;
    Tinf uniform 303.161;
    alphaWall uniform 0.36;
    value uniform 302.459;
  }
  nWall
  {
    type wallHeatTransfer;
    Tinf uniform 303.145;
    alphaWall uniform 0.36;
    value nonuniform List<scalar> 6
(
  302.504
  302.502
  302.499
  302.702
  302.683
  302.738
)
;
  }
  sideWalls
  {
    type empty;
  }
  glass1
  {
    type wallHeatTransfer;
    Tinf uniform 303.161;
    alphaWall uniform 4.3;
    value nonuniform List<scalar> 9
(
  302.655
  302.592
  302.543
  302.501
  302.464
  302.436
  302.429
  302.445
  302.475
)
;
  }
  glass2
  {
    type wallHeatTransfer;
    Tinf uniform 303.145;
    alphaWall uniform 4.3;
    value nonuniform List<scalar> 2
(
  302.964
  302.985
)
;
  }
  sun
  {
    type wallHeatTransfer;
    Tinf uniform 299.755;
    alphaWall uniform 0.24;
    value nonuniform List<scalar> 14
(
  301.098
  301.085
  301.092
  301.102
  301.115
  301.144
  301.208
  301.243
  301.263
  301.273
  301.275
  301.275
  301.274
  301.269
)
;
  }
  heatsource1
  {
    type fixedGradient;
    gradient uniform 0;
  }
  heatsource2
  {
    type fixedGradient;
    gradient uniform 0;
  }
  Table_master
  {
    type zeroGradient;
  }
  Table_slave
  {
    type zeroGradient;
  }
  inlet
  {
    type fixedValue;
    value uniform 300.15;
  }
  outlet
  {
    type zeroGradient;
  }
} 	// ************************************************************************* //

