/*--------------------------------*- C++ -*----------------------------------*\
  =========                 |
  \\      /  F ield         | OpenFOAM: The Open Source CFD Toolbox
   \\    /   O peration     | Website:  https://openfoam.org
    \\  /    A nd           | Version:  6
     \\/     M anipulation  |
\*---------------------------------------------------------------------------*/
FoamFile
{
    version     2.0;
    format      ascii;
    class       surfaceScalarField;
    location    "200";
    object      phi;
}
// * * * * * * * * * * * * * * * * * * * * * * * * * * * * * * * * * * * * * //

dimensions      [1 0 -1 0 0 0 0];

internalField   nonuniform List<scalar> 
852
(
-0.00233849
0.00239475
-0.0025539
0.000215404
-0.00280765
0.000253737
-0.00308778
0.000280122
-0.00333819
0.000250402
-0.00353458
0.000196388
-0.00366037
0.000125791
-0.00369968
3.9308e-05
-0.00363504
-6.46278e-05
-0.0034462
-0.000188835
-0.0031147
-0.000331481
-0.00262813
-0.000486559
-0.00197043
-0.000657684
-0.00109702
-0.000873387
-0.00109604
-0.000683476
0.000686048
-0.00104098
0.00035731
-0.00126568
0.000224548
-0.00139103
0.000125251
-0.0014534
6.23407e-05
-0.00147608
2.26773e-05
-0.00145619
-1.98539e-05
-0.00139472
-6.14094e-05
-0.00131072
-8.39142e-05
-0.00122211
-8.84892e-05
-0.00116239
-5.9557e-05
-0.00117046
8.25219e-06
-0.00125976
8.95013e-05
-0.00137564
0.000116055
-0.00135238
-2.31013e-05
-0.000989073
-0.000363155
-0.000544954
-0.000443969
-8.21893e-05
-0.000462609
-7.95212e-05
-0.00168856
0.00422967
-0.00221653
0.000743377
-0.00262413
0.000661332
-0.00295302
0.000609012
-0.00323044
0.000527829
-0.00345118
0.000417133
-0.00360481
0.000279436
-0.00367891
0.000113427
-0.00366065
-8.28701e-05
-0.00353791
-0.000311547
-0.00329684
-0.000572524
-0.0029256
-0.000857759
-0.00242116
-0.00116209
-0.00182556
-0.00146895
-0.0012272
-0.00169437
0.000303273
-0.00153049
0.000303218
-0.000396671
0.00108921
-0.000669788
0.00063028
-0.000790126
0.000344734
-0.000831499
0.000166487
-0.000863013
9.37456e-05
-0.000975438
0.000135038
-0.0010755
8.01839e-05
-0.00110558
-3.13083e-05
-0.00109907
-9.03674e-05
-0.00107237
-0.000115095
-0.00103971
-9.20667e-05
-0.00101801
-1.32644e-05
-0.00102279
9.44791e-05
-0.0010578
0.000151239
-0.001025
-5.57253e-05
-0.000686034
-0.00070197
-0.000550806
-0.000579022
-0.00057001
-0.000443209
-0.000644227
-0.00125048
0.00569804
-0.00189915
0.00139206
-0.00235165
0.00111383
-0.00268978
0.000947155
-0.00297562
0.000813676
-0.00321279
0.000654316
-0.00339485
0.000461521
-0.00351227
0.000230876
-0.00355499
-4.0125e-05
-0.00351719
-0.000349302
-0.00339898
-0.000690696
-0.00320585
-0.00105084
-0.00295378
-0.0014141
-0.00267402
-0.00174865
-0.00239525
-0.00197309
-0.00197201
-0.0019537
-0.00166878
-0.000834732
0.00193248
-0.00101502
0.000810454
-0.00103789
0.000367509
-0.000991922
0.000120414
-0.000870947
-2.73326e-05
-0.000572337
-0.000163656
-0.000492045
-0.000523249
-0.000613524
-0.000728489
-0.00082033
-0.000833276
-0.000738437
-0.000586838
-0.00064223
7.98924e-05
-0.001424
0.000321333
-0.000820359
0.000258404
-0.000380147
-0.000378609
-0.000940314
0.00691471
-0.00162119
0.00207295
-0.00202348
0.00151613
-0.00233336
0.00125705
-0.00259718
0.00107751
-0.00282067
0.000877827
-0.00300346
0.000644336
-0.00314079
0.000368238
-0.00322489
4.4013e-05
-0.00325361
-0.00032054
-0.00324429
-0.000699958
-0.00322575
-0.00106932
-0.00323393
-0.00140585
-0.00330657
-0.00167594
-0.00345854
-0.00182105
-0.00365812
-0.00175406
-0.00406998
-0.0012569
-0.00371523
-0.000347778
-0.00250286
0.000720069
-0.00239765
0.000705232
-0.00248438
0.000454274
-0.00260055
0.000236644
-0.00268545
5.76508e-05
-0.00278633
-6.2693e-05
-0.00268959
-9.67928e-05
-0.00254756
-0.000142082
-0.00234517
-0.000202457
-0.00207225
-0.000272977
-0.00171714
-0.000355182
-0.00127121
-0.000446009
-0.000732483
-0.000538811
-9.8013e-05
-0.000634544
0.000683739
-0.000781819
0.00036574
-0.0011059
0.000481214
-0.000935721
0.000593436
-0.000492249
0.000223364
-0.000704289
0.00794485
-0.00138204
0.00275072
-0.00165839
0.00179249
-0.00190711
0.00150579
-0.00211607
0.00128648
-0.0022825
0.00104428
-0.00241349
0.000775358
-0.00251258
0.000467362
-0.00257775
0.000109224
-0.00260637
-0.000291874
-0.00262407
-0.0006822
-0.00267212
-0.00102121
-0.00278317
-0.00129473
-0.00297199
-0.00148704
-0.00322921
-0.00156374
-0.00352537
-0.00145783
-0.00371733
-0.00106486
-0.00363084
-0.000434205
-0.00308333
0.000172612
-0.00271252
0.000334495
-0.00254182
0.00028366
-0.00247276
0.00016769
-0.00245136
3.63743e-05
-0.00244347
-7.04648e-05
-0.00239141
-0.00014873
-0.00230508
-0.000228293
-0.00218367
-0.000323764
-0.00201769
-0.00043886
-0.00180128
-0.000571508
-0.00153619
-0.000711012
-0.00123359
-0.000841328
-0.000913764
-0.000954262
-0.000633449
-0.001062
-0.000574584
-0.00116458
-0.000384621
-0.00112546
0.000123231
-0.000999818
0.00109767
-0.000750748
0.0012633
-0.000165571
-5.79071e-05
0.00132116
-1.968e-05
-0.0006452
0.00895907
-0.00127608
0.00338163
-0.00127449
0.00179092
-0.00140979
0.00164112
-0.00155547
0.0014322
-0.00163857
0.00112741
-0.00167474
0.00081157
-0.00168329
0.000475949
-0.00166697
9.2945e-05
-0.00163033
-0.000328467
-0.00161409
-0.000698381
-0.0016586
-0.000976641
-0.00178428
-0.00116899
-0.00198945
-0.00128179
-0.00225238
-0.00130074
-0.00252481
-0.00118531
-0.00269491
-0.000894668
-0.00265753
-0.000471493
-0.0023953
-8.95283e-05
-0.00214753
8.68198e-05
-0.0019807
0.000116941
-0.00188897
7.60852e-05
-0.00185464
2.16753e-06
-0.00185006
-7.49127e-05
-0.00184996
-0.000148693
-0.0018454
-0.000232725
-0.00183277
-0.000336272
-0.00180837
-0.000463163
-0.0017717
-0.000608082
-0.00172893
-0.000753687
-0.00169413
-0.00087601
-0.00168604
-0.00096218
-0.0017226
-0.0010252
-0.00179997
-0.00108689
-0.00177067
-0.00115436
-0.00147043
-0.00129958
-0.00065059
-0.00157001
0.000878906
-0.00169433
0.00243778
-0.000237303
0.00245909
-0.000888164
0.0102551
-0.0010711
0.00356459
-0.000603236
0.00132309
-0.000622119
0.00166004
-0.000781166
0.00159128
-0.000803996
0.00115028
-0.000725837
0.000733454
-0.000609909
0.000360068
-0.000473009
-4.39046e-05
-0.000353278
-0.000448146
-0.000305205
-0.000746401
-0.000346788
-0.000935002
-0.000478999
-0.00103672
-0.000687931
-0.00107279
-0.000942611
-0.00104599
-0.0011896
-0.000938243
-0.00135282
-0.000731366
-0.00137205
-0.000452183
-0.0012682
-0.000193293
-0.00113959
-4.17039e-05
-0.00103623
1.36805e-05
-0.000974806
1.47721e-05
-0.000960322
-1.21975e-05
-0.000983106
-5.2e-05
-0.00103159
-0.000100078
-0.00110297
-0.000161212
-0.00119928
-0.000239833
-0.00132403
-0.000338296
-0.00148271
-0.000449286
-0.00168397
-0.000552298
-0.00193804
-0.000621761
-0.00224961
-0.000650355
-0.00260543
-0.00066904
-0.00296288
-0.000728999
-0.00323689
-0.000879826
-0.00335769
-0.00117818
-0.00326369
-0.00166335
-0.00272348
-0.00223386
-0.000831534
-0.00212866
0.0016768
0.00159899
0.00911142
0.00204011
0.00312348
0.0017929
0.00157033
0.00135218
0.00210079
0.000975484
0.00196803
0.000857155
0.00126866
0.00091694
0.000673719
0.00107118
0.000205878
0.00123843
-0.000211096
0.00131473
-0.000524398
0.00129302
-0.00072463
0.00118887
-0.000830803
0.00101742
-0.000865214
0.000791506
-0.000846815
0.00053254
-0.000786955
0.000281136
-0.000686771
9.28412e-05
-0.000543001
8.18277e-06
-0.000367451
1.61979e-05
-0.000201232
6.1921e-05
-8.73483e-05
0.00010405
-2.83675e-05
0.000125559
-6.64946e-06
0.000119864
-6.40164e-06
8.58107e-05
-1.78363e-05
2.21051e-05
-3.62532e-05
-7.72156e-05
-6.17656e-05
-0.000221902
-9.50167e-05
-0.000424073
-0.000135988
-0.000695399
-0.000177805
-0.00104497
-0.000202532
-0.00147816
-0.00018831
-0.00199337
-0.000134814
-0.00257002
-9.19783e-05
-0.00317278
-0.000125781
-0.00378188
-0.000270211
-0.00444237
-0.000517129
-0.0053068
-0.000798313
-0.00637226
-0.00116774
-0.00614259
-0.00235763
-0.00426846
0.00960481
0.0127152
0.00990763
0.00437792
0.00746536
0.00454308
0.00604461
0.0033888
0.00517513
0.00213818
0.00461519
0.00123371
0.00420996
0.000611157
0.00384116
0.000157751
0.0034887
-0.000171892
0.00316229
-0.00039817
0.00285891
-0.000527375
0.00257086
-0.000577108
0.00229074
-0.00056663
0.00201757
-0.000513731
0.00176455
-0.000433675
0.00155862
-0.000337008
0.00142064
-0.000229396
0.00134845
-0.000128971
0.00131718
-5.6005e-05
0.00130246
-1.35639e-05
0.00128826
7.63082e-06
0.00126533
1.66171e-05
0.00122841
1.91892e-05
0.00117366
1.85973e-05
0.00109553
1.6489e-05
0.000986683
1.39524e-05
0.000839092
1.17456e-05
0.000649428
1.20345e-05
0.000427233
1.99082e-05
0.000197246
4.20307e-05
-1.58183e-05
7.87104e-05
-0.000208979
0.000101648
-0.000387527
5.32497e-05
-0.000544271
-0.000112957
-0.000675075
-0.000385795
-0.000774094
-0.000698752
-0.000834891
-0.0011064
-0.000841946
-0.00235002
-0.00490344
0.00126937
0.00306084
0.00285079
0.00296169
0.00409709
0.00214253
0.00458678
0.00164853
0.00471998
0.00110055
0.00471488
0.000616292
0.00461883
0.000253848
0.00445346
-6.47577e-06
0.00423707
-0.000181733
0.00399122
-0.000281475
0.00373489
-0.000320726
0.0034814
-0.000313087
0.00324102
-0.000273284
0.0030239
-0.000216483
0.00284196
-0.000155004
0.00269905
-8.64014e-05
0.00259609
-2.59356e-05
0.00252411
1.60566e-05
0.00247009
4.05435e-05
0.00242476
5.30432e-05
0.00238353
5.79412e-05
0.00234342
5.93868e-05
0.00230177
6.03399e-05
0.00225539
6.29764e-05
0.00220062
6.88346e-05
0.00213372
7.8766e-05
0.00205268
9.32314e-05
0.00196008
0.000112699
0.00186601
0.00013636
0.00178795
0.000157109
0.0017365
0.0001535
0.00170117
8.90577e-05
0.00166309
-7.43475e-05
0.00161403
-0.000336167
0.00160259
-0.00068671
0.00168006
-0.00118325
0.0014328
-0.00210214
-0.00342593
1.44817e-06
0.00304376
0.00215657
0.000806599
0.00325815
0.00104099
0.00398874
0.000917966
0.00447175
0.000617576
0.00473949
0.000348596
0.004845
0.00014838
0.0048313
7.27421e-06
0.00471771
-6.80923e-05
0.00454404
-0.000107758
0.00434004
-0.000116663
0.00412919
-0.00010218
0.00392839
-7.24185e-05
0.00374713
-3.51503e-05
0.00358855
3.65176e-06
0.00346255
3.96797e-05
0.0033719
6.48021e-05
0.00330802
8.00325e-05
0.00326209
8.65709e-05
0.00322914
8.60884e-05
0.00320481
8.23681e-05
0.00318618
7.81269e-05
0.00317135
7.52723e-05
0.00315925
7.51922e-05
0.00314932
7.88758e-05
0.00314134
8.68718e-05
0.00313554
9.91671e-05
0.00313356
0.000114843
0.00313912
0.000130994
0.00315591
0.000140572
0.00318011
0.000129619
0.00319246
7.7099e-05
0.00315083
-3.22587e-05
0.00300615
-0.000190972
0.00273437
-0.000414369
0.00225783
-0.000706122
0.00129597
-0.00113967
-0.00207917
0.0041375
-0.00236101
0.000661534
0.00144833
0.00246801
0.00336299
0.00395586
0.00427802
0.00439826
0.00437572
0.00427629
0.00413583
0.00398529
0.00384827
0.00374031
0.00366921
0.00363685
0.00364085
0.00367052
0.00371605
0.00376875
0.00382153
0.00387112
0.00391693
0.00396034
0.00400411
0.00405204
0.00410849
0.00417785
0.00426363
0.00436646
0.00447992
0.00458354
0.00463565
0.0045792
0.00436477
0.00392752
0.00319887
0.00203729
)
;

boundaryField
{
    floor
    {
        type            calculated;
        value           nonuniform List<scalar> 
29
(
0
0
0
0
0
0
0
0
0
0
0
0
0
0
0
0
0
0
0
0
-2.53021e-06
-5.11709e-06
-7.0832e-06
-8.45021e-06
-9.69554e-07
-2.70336e-06
-6.58724e-06
-8.63215e-06
-6.98382e-06
)
;
    }
    ceiling
    {
        type            calculated;
        value           nonuniform List<scalar> 
43
(
4.77292e-05
3.55504e-05
2.12727e-05
1.98562e-05
2.13474e-05
2.30308e-05
2.47568e-05
2.6481e-05
2.81893e-05
2.98718e-05
3.13943e-05
3.27583e-05
3.39437e-05
3.49122e-05
3.56179e-05
3.60219e-05
3.60976e-05
3.57773e-05
3.52318e-05
3.46037e-05
3.39836e-05
3.34146e-05
3.29022e-05
3.2434e-05
3.19904e-05
3.15479e-05
3.1081e-05
3.05602e-05
2.99508e-05
2.92151e-05
2.83262e-05
2.72999e-05
2.6226e-05
2.52621e-05
2.45168e-05
2.38238e-05
2.33007e-05
2.3008e-05
2.24341e-05
2.33851e-05
1.68218e-05
1.30996e-05
1.5649e-05
)
;
    }
    sWall
    {
        type            calculated;
        value           uniform -0.000153116;
    }
    nWall
    {
        type            calculated;
        value           nonuniform List<scalar> 6(-3.83004e-05 -4.07028e-05 -4.8989e-05 -4.40617e-05 -5.01585e-05 -6.46588e-05);
    }
    sideWalls
    {
        type            empty;
        value           nonuniform 0();
    }
    glass1
    {
        type            calculated;
        value           nonuniform List<scalar> 9(-5.62716e-05 -0.000146367 -0.000217892 -0.000276352 -0.000325863 -0.000369019 -0.000407879 -0.00045529 -0.000510213);
    }
    glass2
    {
        type            calculated;
        value           nonuniform List<scalar> 2(-0.000196556 -0.000206329);
    }
    sun
    {
        type            calculated;
        value           uniform 0;
    }
    heatsource1
    {
        type            calculated;
        value           nonuniform List<scalar> 3(2.03239e-07 2.03334e-07 2.03912e-07);
    }
    heatsource2
    {
        type            calculated;
        value           nonuniform List<scalar> 4(5.0744e-08 5.09089e-08 0 0);
    }
    Table_master
    {
        type            calculated;
        value           nonuniform List<scalar> 9(-1.53117e-07 -1.53154e-07 -1.53147e-07 -1.53135e-07 -1.53108e-07 -1.53069e-07 -1.52999e-07 -1.5293e-07 -1.52806e-07);
    }
    Table_slave
    {
        type            calculated;
        value           nonuniform List<scalar> 9(1.51895e-07 1.51925e-07 1.51968e-07 1.52032e-07 1.52121e-07 1.52239e-07 1.52389e-07 1.52571e-07 1.52537e-07);
    }
    inlet
    {
        type            calculated;
        value           uniform 4.7735e-05;
    }
    outlet
    {
        type            calculated;
        value           nonuniform List<scalar> 2(-0.00403182 0.00646321);
    }
}


// ************************************************************************* //
