// -*- C++ -*-
// File generated by PyFoam - sorry for the ugliness

FoamFile
{
 version 2.0;
 format ascii;
 class volScalarField;
 location "200";
 object T;
}

dimensions [ 0 0 0 1 0 0 0 ];

internalField nonuniform List<scalar> 459
(
  302.452
  302.094
  302.089
  302.099
  302.108
  302.117
  302.125
  302.132
  302.138
  302.143
  302.146
  302.146
  302.145
  302.142
  302.14
  301.254
  301.245
  301.243
  301.18
  301.104
  301.075
  301.072
  301.092
  301.106
  301.104
  301.091
  301.082
  301.078
  301.084
  301.106
  301.144
  301.165
  301.162
  301.171
  302.713
  302.193
  302.153
  302.163
  302.177
  302.19
  302.201
  302.211
  302.219
  302.223
  302.224
  302.219
  302.208
  302.188
  302.158
  302.12
  301.968
  301.391
  301.401
  301.407
  301.411
  301.395
  301.334
  301.224
  301.159
  301.178
  301.158
  301.162
  301.162
  301.169
  301.192
  301.264
  301.351
  301.322
  301.249
  301.201
  302.952
  302.328
  302.245
  302.244
  302.259
  302.275
  302.289
  302.302
  302.312
  302.317
  302.317
  302.308
  302.29
  302.259
  302.214
  302.16
  302.107
  301.716
  301.68
  301.684
  301.724
  301.772
  301.776
  301.494
  301.396
  301.298
  301.224
  301.276
  301.326
  301.372
  301.419
  301.473
  301.526
  301.416
  301.357
  301.316
  303.174
  302.502
  302.39
  302.36
  302.363
  302.375
  302.388
  302.401
  302.413
  302.42
  302.421
  302.412
  302.391
  302.356
  302.303
  302.234
  302.153
  302.084
  302.02
  302.017
  302.065
  302.129
  302.178
  302.218
  302.25
  302.256
  302.261
  302.266
  302.27
  302.273
  302.273
  302.268
  302.243
  302.122
  301.97
  301.877
  301.888
  303.388
  302.714
  302.615
  302.568
  302.536
  302.518
  302.513
  302.516
  302.524
  302.532
  302.535
  302.529
  302.513
  302.484
  302.444
  302.397
  302.347
  302.304
  302.273
  302.268
  302.28
  302.297
  302.311
  302.322
  302.328
  302.331
  302.335
  302.34
  302.346
  302.352
  302.357
  302.359
  302.354
  302.33
  302.294
  302.252
  302.232
  302.273
  302.271
  302.283
  303.593
  302.964
  302.931
  302.904
  302.835
  302.763
  302.708
  302.677
  302.662
  302.656
  302.656
  302.651
  302.638
  302.613
  302.578
  302.535
  302.492
  302.453
  302.424
  302.408
  302.401
  302.398
  302.396
  302.394
  302.391
  302.39
  302.391
  302.396
  302.404
  302.415
  302.426
  302.437
  302.447
  302.457
  302.468
  302.481
  302.5
  302.501
  302.424
  302.351
  303.79
  303.264
  303.371
  303.336
  303.227
  303.11
  303.007
  302.925
  302.866
  302.826
  302.797
  302.785
  302.77
  302.747
  302.714
  302.674
  302.631
  302.591
  302.557
  302.531
  302.511
  302.496
  302.483
  302.47
  302.458
  302.448
  302.443
  302.444
  302.452
  302.467
  302.486
  302.506
  302.526
  302.546
  302.564
  302.58
  302.59
  302.585
  302.539
  302.374
  304.052
  303.715
  303.734
  303.67
  303.56
  303.43
  303.305
  303.194
  303.104
  303.037
  302.989
  302.947
  302.917
  302.889
  302.856
  302.816
  302.773
  302.731
  302.692
  302.659
  302.63
  302.605
  302.582
  302.559
  302.537
  302.516
  302.498
  302.487
  302.488
  302.502
  302.524
  302.549
  302.572
  302.594
  302.612
  302.627
  302.639
  302.651
  302.662
  302.672
  304.416
  304.281
  303.96
  303.845
  303.725
  303.605
  303.488
  303.378
  303.285
  303.211
  303.156
  303.113
  303.073
  303.034
  302.997
  302.959
  302.917
  302.875
  302.834
  302.795
  302.759
  302.727
  302.696
  302.666
  302.634
  302.603
  302.573
  302.545
  302.526
  302.519
  302.523
  302.534
  302.549
  302.562
  302.574
  302.588
  302.608
  302.631
  302.662
  302.755
  302.926
  303.513
  303.589
  303.56
  303.497
  303.425
  303.358
  303.301
  303.255
  303.218
  303.185
  303.154
  303.121
  303.086
  303.049
  303.01
  302.97
  302.931
  302.893
  302.856
  302.821
  302.786
  302.751
  302.715
  302.677
  302.639
  302.603
  302.574
  302.554
  302.545
  302.544
  302.547
  302.55
  302.552
  302.553
  302.556
  302.564
  302.6
  303.061
  303.354
  303.406
  303.473
  303.46
  303.421
  303.378
  303.339
  303.305
  303.276
  303.25
  303.225
  303.202
  303.176
  303.149
  303.119
  303.087
  303.053
  303.019
  302.983
  302.948
  302.913
  302.878
  302.841
  302.803
  302.761
  302.718
  302.675
  302.636
  302.606
  302.585
  302.572
  302.563
  302.557
  302.554
  302.554
  302.56
  302.601
  303.077
  303.055
  303.064
  303.21
  303.284
  303.385
  303.414
  303.394
  303.369
  303.345
  303.323
  303.302
  303.283
  303.265
  303.247
  303.229
  303.212
  303.193
  303.173
  303.152
  303.13
  303.107
  303.082
  303.055
  303.027
  302.998
  302.966
  302.931
  302.894
  302.85
  302.803
  302.754
  302.711
  302.676
  302.649
  302.629
  302.614
  302.601
  302.59
  302.616
)
;

boundaryField
{
  floor
  {
    type wallHeatTransfer;
    Tinf uniform 305.2;
    alphaWall uniform 0.24;
    value nonuniform List<scalar> 29
(
  302.569
  302.101
  302.045
  302.031
  302.079
  302.175
  302.257
  302.32
  302.349
  302.377
  302.365
  302.336
  302.285
  302.21
  302.121
  302.041
  301.986
  301.962
  301.964
  302.025
  302.025
  301.911
  301.931
  302.25
  302.569
  302.101
  302.036
  302.146
  302.41
)
;
  }
  ceiling
  {
    type wallHeatTransfer;
    Tinf uniform 303.2;
    alphaWall uniform 0.24;
    value nonuniform List<scalar> 43
(
  303.082
  303.06
  303.067
  303.21
  303.28
  303.373
  303.4
  303.38
  303.356
  303.333
  303.312
  303.293
  303.275
  303.258
  303.242
  303.226
  303.21
  303.194
  303.177
  303.158
  303.139
  303.119
  303.097
  303.074
  303.05
  303.025
  302.997
  302.966
  302.932
  302.893
  302.848
  302.802
  302.76
  302.726
  302.7
  302.682
  302.67
  302.659
  302.649
  302.676
  304.365
  304.24
  303.064
)
;
  }
  sWall
  {
    type wallHeatTransfer;
    Tinf uniform 315.2;
    alphaWall uniform 0.36;
    value uniform 303.757;
  }
  nWall
  {
    type wallHeatTransfer;
    Tinf uniform 307.2;
    alphaWall uniform 0.36;
    value nonuniform List<scalar> 6
(
  302.999
  303.01
  303.046
  303.115
  303.165
  303.288
)
;
  }
  sideWalls
  {
    type empty;
  }
  glass1
  {
    type wallHeatTransfer;
    Tinf uniform 315.2;
    alphaWall uniform 4.3;
    value nonuniform List<scalar> 9
(
  312.02
  310.699
  309.887
  309.346
  308.994
  308.769
  308.657
  308.839
  309.178
)
;
  }
  glass2
  {
    type wallHeatTransfer;
    Tinf uniform 307.2;
    alphaWall uniform 4.3;
    value nonuniform List<scalar> 2
(
  305.526
  305.428
)
;
  }
  sun
  {
    type wallHeatTransfer;
    Tinf uniform 305.2;
    alphaWall uniform 0.24;
    value nonuniform List<scalar> 14
(
  302.839
  302.528
  302.589
  302.595
  302.596
  302.595
  302.593
  302.591
  302.588
  302.585
  302.581
  302.577
  302.573
  302.569
)
;
  }
  heatsource1
  {
    type fixedGradient;
    gradient uniform 0;
  }
  heatsource2
  {
    type fixedGradient;
    gradient uniform 0;
  }
  Table_master
  {
    type zeroGradient;
  }
  Table_slave
  {
    type zeroGradient;
  }
  inlet
  {
    type fixedValue;
    value uniform 290.15;
  }
  outlet
  {
    type zeroGradient;
  }
} 	// ************************************************************************* //

