// -*- C++ -*-
// File generated by PyFoam - sorry for the ugliness

FoamFile
{
 version 2.0;
 format ascii;
 class volScalarField;
 location "490";
 object T;
}

dimensions [ 0 0 0 1 0 0 0 ];

internalField nonuniform List<scalar> 459
(
  302.092
  302.017
  302.016
  302.017
  302.018
  302.018
  302.019
  302.019
  302.019
  302.022
  302.028
  302.043
  302.048
  302.047
  302.037
  302.097
  302.138
  302.163
  302.178
  302.19
  302.198
  302.203
  302.205
  302.206
  302.207
  302.208
  302.209
  302.21
  302.211
  302.211
  302.212
  302.212
  302.21
  302.196
  302.138
  302.031
  302.026
  302.027
  302.028
  302.028
  302.026
  302.022
  302.018
  302.019
  302.03
  302.048
  302.059
  302.062
  302.056
  302.059
  302.062
  302.128
  302.15
  302.17
  302.191
  302.211
  302.226
  302.231
  302.235
  302.237
  302.24
  302.242
  302.245
  302.246
  302.248
  302.247
  302.245
  302.24
  302.231
  302.223
  302.185
  302.043
  302.035
  302.037
  302.04
  302.04
  302.037
  302.026
  302.013
  302.01
  302.024
  302.049
  302.067
  302.075
  302.074
  302.073
  302.07
  302.121
  302.144
  302.173
  302.204
  302.233
  302.255
  302.256
  302.257
  302.259
  302.261
  302.264
  302.266
  302.268
  302.27
  302.27
  302.269
  302.263
  302.25
  302.239
  302.234
  302.058
  302.044
  302.05
  302.058
  302.062
  302.058
  302.037
  302.01
  302.001
  302.018
  302.048
  302.075
  302.091
  302.093
  302.091
  302.085
  302.091
  302.113
  302.147
  302.189
  302.231
  302.268
  302.297
  302.323
  302.343
  302.36
  302.375
  302.388
  302.399
  302.408
  302.416
  302.421
  302.379
  302.334
  302.292
  302.263
  302.285
  302.077
  302.055
  302.062
  302.077
  302.091
  302.085
  302.049
  302.007
  301.992
  302.011
  302.049
  302.088
  302.113
  302.123
  302.123
  302.122
  302.136
  302.163
  302.201
  302.243
  302.285
  302.323
  302.355
  302.384
  302.406
  302.424
  302.439
  302.45
  302.459
  302.463
  302.464
  302.46
  302.436
  302.395
  302.345
  302.3
  302.302
  302.307
  302.353
  302.332
  302.103
  302.07
  302.074
  302.093
  302.119
  302.104
  302.053
  302.002
  301.982
  302.005
  302.055
  302.108
  302.147
  302.166
  302.172
  302.179
  302.199
  302.23
  302.269
  302.311
  302.351
  302.387
  302.417
  302.441
  302.46
  302.474
  302.485
  302.492
  302.497
  302.498
  302.495
  302.488
  302.471
  302.44
  302.4
  302.356
  302.34
  302.333
  302.361
  302.377
  302.145
  302.108
  302.106
  302.122
  302.141
  302.109
  302.043
  301.984
  301.968
  302.003
  302.071
  302.142
  302.195
  302.224
  302.238
  302.251
  302.276
  302.308
  302.346
  302.384
  302.419
  302.449
  302.473
  302.49
  302.502
  302.51
  302.515
  302.518
  302.518
  302.517
  302.512
  302.504
  302.491
  302.468
  302.439
  302.402
  302.378
  302.362
  302.373
  302.442
  302.259
  302.213
  302.195
  302.201
  302.172
  302.093
  302
  301.941
  301.946
  302.011
  302.106
  302.198
  302.262
  302.296
  302.315
  302.332
  302.358
  302.389
  302.422
  302.453
  302.479
  302.499
  302.513
  302.521
  302.526
  302.527
  302.527
  302.525
  302.522
  302.518
  302.513
  302.507
  302.496
  302.48
  302.459
  302.433
  302.413
  302.397
  302.462
  302.532
  302.446
  302.384
  302.333
  302.278
  302.135
  301.979
  301.877
  301.862
  301.929
  302.052
  302.18
  302.287
  302.345
  302.375
  302.394
  302.413
  302.437
  302.461
  302.484
  302.504
  302.518
  302.527
  302.532
  302.533
  302.532
  302.529
  302.526
  302.521
  302.516
  302.51
  302.503
  302.496
  302.49
  302.485
  302.482
  302.485
  302.495
  302.51
  302.552
  300.721
  300.975
  301.058
  301.182
  301.357
  301.568
  301.787
  301.995
  302.192
  302.317
  302.387
  302.424
  302.445
  302.462
  302.478
  302.495
  302.51
  302.522
  302.53
  302.534
  302.536
  302.535
  302.533
  302.529
  302.526
  302.521
  302.517
  302.513
  302.508
  302.505
  302.501
  302.499
  302.498
  302.5
  302.506
  302.517
  302.536
  302.577
  300.782
  301.061
  301.269
  301.507
  301.732
  301.944
  302.116
  302.254
  302.357
  302.42
  302.456
  302.478
  302.492
  302.504
  302.514
  302.523
  302.529
  302.533
  302.535
  302.535
  302.534
  302.532
  302.529
  302.527
  302.524
  302.522
  302.519
  302.517
  302.514
  302.512
  302.51
  302.508
  302.508
  302.509
  302.512
  302.52
  302.535
  302.562
  301.374
  301.356
  301.355
  301.645
  301.886
  302.083
  302.212
  302.299
  302.366
  302.417
  302.454
  302.477
  302.492
  302.501
  302.508
  302.513
  302.516
  302.518
  302.519
  302.518
  302.516
  302.515
  302.512
  302.51
  302.509
  302.507
  302.506
  302.505
  302.504
  302.504
  302.504
  302.505
  302.505
  302.506
  302.506
  302.508
  302.51
  302.515
  302.518
  302.557
)
;

boundaryField
{
  floor
  {
    type wallHeatTransfer;
    Tinf uniform 300.35;
    alphaWall uniform 0.24;
    value nonuniform List<scalar> 29
(
  301.799
  301.749
  301.852
  301.891
  301.908
  301.918
  301.921
  301.914
  301.903
  301.891
  301.879
  301.867
  301.855
  301.844
  301.833
  301.822
  301.81
  301.794
  301.768
  301.724
  301.724
  301.793
  301.826
  301.874
  301.799
  301.749
  301.859
  301.875
  301.893
)
;
  }
  ceiling
  {
    type wallHeatTransfer;
    Tinf uniform 300.35;
    alphaWall uniform 0.24;
    value nonuniform List<scalar> 43
(
  301.285
  301.272
  301.274
  301.553
  301.776
  301.956
  302.073
  302.152
  302.209
  302.251
  302.278
  302.294
  302.303
  302.31
  302.315
  302.32
  302.323
  302.325
  302.325
  302.324
  302.322
  302.32
  302.317
  302.315
  302.312
  302.309
  302.304
  302.3
  302.294
  302.289
  302.285
  302.281
  302.279
  302.279
  302.281
  302.283
  302.287
  302.29
  302.288
  302.317
  302.39
  302.327
  300.739
)
;
  }
  sWall
  {
    type wallHeatTransfer;
    Tinf uniform 306.167;
    alphaWall uniform 0.36;
    value uniform 301.974;
  }
  nWall
  {
    type wallHeatTransfer;
    Tinf uniform 305.15;
    alphaWall uniform 0.36;
    value nonuniform List<scalar> 6
(
  303.043
  302.929
  302.874
  302.94
  302.908
  302.958
)
;
  }
  sideWalls
  {
    type empty;
  }
  glass1
  {
    type wallHeatTransfer;
    Tinf uniform 306.167;
    alphaWall uniform 4.3;
    value nonuniform List<scalar> 9
(
  305.074
  304.914
  304.804
  304.715
  304.636
  304.56
  304.496
  304.504
  304.559
)
;
  }
  glass2
  {
    type wallHeatTransfer;
    Tinf uniform 305.15;
    alphaWall uniform 4.3;
    value nonuniform List<scalar> 2
(
  304.275
  304.289
)
;
  }
  sun
  {
    type wallHeatTransfer;
    Tinf uniform 300.35;
    alphaWall uniform 0.24;
    value nonuniform List<scalar> 14
(
  301.863
  301.814
  301.819
  301.828
  301.836
  301.843
  301.849
  301.854
  301.857
  301.86
  301.864
  301.866
  301.855
  301.832
)
;
  }
  heatsource1
  {
    type fixedGradient;
    gradient uniform 0;
  }
  heatsource2
  {
    type fixedGradient;
    gradient uniform 0;
  }
  Table_master
  {
    type zeroGradient;
  }
  Table_slave
  {
    type zeroGradient;
  }
  inlet
  {
    type fixedValue;
    value uniform 300.15;
  }
  outlet
  {
    type zeroGradient;
  }
} 	// ************************************************************************* //

