/*--------------------------------*- C++ -*----------------------------------*\
  =========                 |
  \\      /  F ield         | OpenFOAM: The Open Source CFD Toolbox
   \\    /   O peration     | Website:  https://openfoam.org
    \\  /    A nd           | Version:  6
     \\/     M anipulation  |
\*---------------------------------------------------------------------------*/
FoamFile
{
    version     2.0;
    format      ascii;
    class       volScalarField;
    location    "60";
    object      nut;
}
// * * * * * * * * * * * * * * * * * * * * * * * * * * * * * * * * * * * * * //

dimensions      [0 2 -1 0 0 0 0];

internalField   nonuniform List<scalar> 
459
(
0.0010027
0.00110519
0.00113896
0.0011993
0.00125685
0.00131393
0.00137269
0.00141834
0.00144469
0.0014463
0.00142081
0.00136554
0.00123586
0.00105842
0.000888603
0.000654457
0.000744526
0.000679486
0.000633668
0.000599176
0.000562253
0.000509421
0.00045618
0.00040747
0.000363388
0.000325295
0.000294633
0.000272124
0.000257446
0.000250364
0.000255962
0.000298386
0.00044391
0.000540254
0.00132603
0.003352
0.0032699
0.00381194
0.00436832
0.00488678
0.00527016
0.00563339
0.00595192
0.00619246
0.00632859
0.00633533
0.00616255
0.00562169
0.00372369
0.00108933
0.000851486
0.000917204
0.00304147
0.00253988
0.00261169
0.00270663
0.00252226
0.00177027
0.00142244
0.00115974
0.000961935
0.000813899
0.000706187
0.000631038
0.000580323
0.000550956
0.000574502
0.000762276
0.00116387
0.000672686
0.00159384
0.00455125
0.00408889
0.00488308
0.00529304
0.00560257
0.00584895
0.00613851
0.0064755
0.00683097
0.00716348
0.00741381
0.00749964
0.0072483
0.00628746
0.00404175
0.00103325
0.00100496
0.00309275
0.00277027
0.00304367
0.00336747
0.00302778
0.000706465
0.000568807
0.000470875
0.000399333
0.000346228
0.000307764
0.000282056
0.000268068
0.00027162
0.000471467
0.000850338
0.00142822
0.000759987
0.00184927
0.00565932
0.00413927
0.00506744
0.00526971
0.00535136
0.00547614
0.00570433
0.00605649
0.00649741
0.00697141
0.00737508
0.00762442
0.00766047
0.0072883
0.00599878
0.00308872
0.0011444
0.0017237
0.00210294
0.00267243
0.00333315
0.00389738
0.00358694
0.000746723
0.000631908
0.000604973
0.000621611
0.000650422
0.000679283
0.000702203
0.000713972
0.000708331
0.000912574
0.00123179
0.00180478
0.000845597
0.00211065
0.00706795
0.00445217
0.00499472
0.0051735
0.00512448
0.00518177
0.00536251
0.00572863
0.00622009
0.00674407
0.00719166
0.00748434
0.00758803
0.00744169
0.00680958
0.00532583
0.00407224
0.00393567
0.00404936
0.0043088
0.00469273
0.00506066
0.00498873
0.0039686
0.00368097
0.00364013
0.00363616
0.00365758
0.00369223
0.00371965
0.00371389
0.00365232
0.00348649
0.0031586
0.00288036
0.00174196
0.000910978
0.000854873
0.00076588
0.00239028
0.00864416
0.00586445
0.00515339
0.00536746
0.00521357
0.0051829
0.00529466
0.00562831
0.00614662
0.00671554
0.00718586
0.00745762
0.00751098
0.00737454
0.00703353
0.00638984
0.00582652
0.00562672
0.00562786
0.00574157
0.00591763
0.00604147
0.00590634
0.00546069
0.00514869
0.00491595
0.00476787
0.00470135
0.00468788
0.00468915
0.00466234
0.00458495
0.00447447
0.00429137
0.00398319
0.00315916
0.00222542
0.00196197
0.000855629
0.00264533
0.00976809
0.00803736
0.0064307
0.00606536
0.00561295
0.0053304
0.00536555
0.00573037
0.00631945
0.00694863
0.00743567
0.00767161
0.00765362
0.00747151
0.0072424
0.00697776
0.00673973
0.00658654
0.00650949
0.00648215
0.00645061
0.00632557
0.00605519
0.00571116
0.00542202
0.00515932
0.00500607
0.0049395
0.00491472
0.00488807
0.00481017
0.00465814
0.00448714
0.00438236
0.00429447
0.00388297
0.00312554
0.00265004
0.000946839
0.00270111
0.0087453
0.00774392
0.0070193
0.00620365
0.00551696
0.00524707
0.00544551
0.00602559
0.00678875
0.0074982
0.00797091
0.00813174
0.00802576
0.00779171
0.00756821
0.00734626
0.00710832
0.0068745
0.00665174
0.00642425
0.00617076
0.00589358
0.00563506
0.00544544
0.00532041
0.00519248
0.00512607
0.0050846
0.00502887
0.00492932
0.00474873
0.0044761
0.0041928
0.0040476
0.00406049
0.0037509
0.00302042
0.00303722
0.00100055
0.00263731
0.00313529
0.00360535
0.00367469
0.00379416
0.00413844
0.00477694
0.00571139
0.00679442
0.00776828
0.00843592
0.00872319
0.00867034
0.00839838
0.00791546
0.00739536
0.00696428
0.00660878
0.00629105
0.00599903
0.00574379
0.00554825
0.0054347
0.00541185
0.00546273
0.00553652
0.00554567
0.00552698
0.00545783
0.00531208
0.00507256
0.00471121
0.00420221
0.00358995
0.00301405
0.00258791
0.00230626
0.00205766
0.00186901
0.00116971
0.00191875
0.00356536
0.00486973
0.00602852
0.00713107
0.00818116
0.00897102
0.00935469
0.00937007
0.00904772
0.00845345
0.00781246
0.00723796
0.00677803
0.00644213
0.00619756
0.00601883
0.0059056
0.00586714
0.0059071
0.00601675
0.00617467
0.00634835
0.00649279
0.0065419
0.00650958
0.00639805
0.00619069
0.00588224
0.00548666
0.00502242
0.00452194
0.00399673
0.00347284
0.00298314
0.00258606
0.00230534
0.00149868
0.00187245
0.00396083
0.00580987
0.0071746
0.00838182
0.00937583
0.00978388
0.00961665
0.00910464
0.00847766
0.00789626
0.00741521
0.00704869
0.00678752
0.00661999
0.00653934
0.00653826
0.00660984
0.00674536
0.00693154
0.00715019
0.00738048
0.00760063
0.00778635
0.00790756
0.00794739
0.00790953
0.00778979
0.00757643
0.00727726
0.00688014
0.00636812
0.00575334
0.00507168
0.00438408
0.00379267
0.00409378
0.00177252
0.00141345
0.00152462
0.00165497
0.00174757
0.00184069
0.00195957
0.00203769
0.0020661
0.00204166
0.00199413
0.00192774
0.00185905
0.00180333
0.00176411
0.00173998
0.00172873
0.00172818
0.00173615
0.00175051
0.00176926
0.00179047
0.0018123
0.0018331
0.00185163
0.00186684
0.00187745
0.00188266
0.00188367
0.0018811
0.00187312
0.00185846
0.00183626
0.00180608
0.00176799
0.00172162
0.00166448
0.00158781
0.00150586
0.00149438
0.00141853
)
;

boundaryField
{
    floor
    {
        type            nutkWallFunction;
        Cmu             0.09;
        kappa           0.41;
        E               9.8;
        value           nonuniform List<scalar> 
29
(
0.000107539
7.91073e-05
9.01676e-05
8.21907e-05
7.65233e-05
7.22278e-05
6.75928e-05
6.08896e-05
5.40475e-05
4.77e-05
4.18737e-05
3.67681e-05
3.26046e-05
2.95147e-05
2.7484e-05
2.65017e-05
2.72906e-05
3.31512e-05
5.24972e-05
6.48263e-05
6.48262e-05
8.13825e-05
9.20831e-05
0.000102429
0.000107539
7.91073e-05
0.000110946
0.000121335
0.000137596
)
;
    }
    ceiling
    {
        type            nutkWallFunction;
        Cmu             0.09;
        kappa           0.41;
        E               9.8;
        value           nonuniform List<scalar> 
43
(
0.000168378
0.000180902
0.000195465
0.000205779
0.000216076
0.000229125
0.000237657
0.000240754
0.000238101
0.000232924
0.000225669
0.000218134
0.000211998
0.000207668
0.000205
0.000203756
0.000203696
0.000204582
0.000206175
0.000208251
0.000210597
0.000213005
0.000215297
0.000217335
0.000219007
0.000220171
0.000220743
0.000220855
0.000220573
0.000219697
0.000218087
0.000215646
0.000212323
0.000208119
0.00020299
0.000196645
0.000188091
0.000178897
0.000177597
0.000169031
0.000302106
0.000354385
0.000219435
)
;
    }
    sWall
    {
        type            nutkWallFunction;
        Cmu             0.09;
        kappa           0.41;
        E               9.8;
        value           uniform 0.00016842;
    }
    nWall
    {
        type            nutkWallFunction;
        Cmu             0.09;
        kappa           0.41;
        E               9.8;
        value           nonuniform List<scalar> 6(9.27822e-05 0.000103616 0.000114488 0.000178113 0.00020865 0.000169049);
    }
    sideWalls
    {
        type            empty;
    }
    glass1
    {
        type            nutkWallFunction;
        Cmu             0.09;
        kappa           0.41;
        E               9.8;
        value           nonuniform List<scalar> 9(0.000121121 0.000158639 0.000188924 0.000217287 0.000245872 0.000276036 0.000303224 0.000309138 0.000302386);
    }
    glass2
    {
        type            nutkWallFunction;
        Cmu             0.09;
        kappa           0.41;
        E               9.8;
        value           nonuniform List<scalar> 2(0.000120837 0.000140609);
    }
    sun
    {
        type            nutkWallFunction;
        Cmu             0.09;
        kappa           0.41;
        E               9.8;
        value           nonuniform List<scalar> 
14
(
0.000121063
0.000133059
0.000136984
0.000143964
0.000150586
0.00015712
0.000163812
0.000168991
0.000171971
0.000172154
0.000169273
0.000163005
0.000148174
0.0001276
)
;
    }
    heatsource1
    {
        type            nutkWallFunction;
        Cmu             0.09;
        kappa           0.41;
        E               9.8;
        value           nonuniform List<scalar> 3(0.000110244 0.000103532 9.27825e-05);
    }
    heatsource2
    {
        type            nutkWallFunction;
        Cmu             0.09;
        kappa           0.41;
        E               9.8;
        value           nonuniform List<scalar> 4(0.000131217 0.000103098 0.000103098 0.000124646);
    }
    Table_master
    {
        type            nutkWallFunction;
        Cmu             0.09;
        kappa           0.41;
        E               9.8;
        value           nonuniform List<scalar> 9(8.55117e-05 6.83988e-05 5.59208e-05 4.66028e-05 3.95511e-05 3.43592e-05 3.08447e-05 2.89182e-05 2.94198e-05);
    }
    Table_slave
    {
        type            nutkWallFunction;
        Cmu             0.09;
        kappa           0.41;
        E               9.8;
        value           nonuniform List<scalar> 9(9.04329e-05 7.63072e-05 7.29612e-05 7.50397e-05 7.86186e-05 8.2185e-05 8.50053e-05 8.64507e-05 8.57631e-05);
    }
    inlet
    {
        type            calculated;
        value           uniform 6.7082e-05;
    }
    outlet
    {
        type            calculated;
        value           nonuniform List<scalar> 2(0.00141345 0.00152462);
    }
}


// ************************************************************************* //
