// -*- C++ -*-
// File generated by PyFoam - sorry for the ugliness

FoamFile
{
 version 2.0;
 format ascii;
 class volVectorField;
 location "230";
 object U;
}

dimensions [ 0 1 -1 0 0 0 0 ];

internalField nonuniform List<vector> 459
(
  (0.00820976 0.070653 0)
  (-0.140003 0.0240378 0)
  (-0.167995 0.0132809 0)
  (-0.192553 0.00496661 0)
  (-0.204414 -0.00384609 0)
  (-0.201213 -0.0132809 0)
  (-0.182092 -0.0235583 0)
  (-0.148515 -0.033244 0)
  (-0.104895 -0.0401482 0)
  (-0.0579623 -0.0425109 0)
  (-0.0116684 -0.0380833 0)
  (0.0266918 -0.0241496 0)
  (0.0446266 -0.01109 0)
  (0.0470461 0.00469374 0)
  (0.0637001 0.031142 0)
  (-0.0993873 0.00603337 0)
  (0.0183831 0.00386095 0)
  (-0.00213652 -0.0108746 0)
  (0.0191058 -0.0189708 0)
  (0.036981 -0.0168416 0)
  (0.0534194 -0.012599 0)
  (0.0648849 -0.00739736 0)
  (0.0711873 -0.00445027 0)
  (0.0738724 -0.00332374 0)
  (0.0750024 -0.00287145 0)
  (0.0756472 -0.00256379 0)
  (0.075964 -0.0022635 0)
  (0.0757617 -0.00183416 0)
  (0.0746378 -0.00101963 0)
  (0.0716941 0.000729539 0)
  (0.0651253 0.00433309 0)
  (0.0533196 0.00983088 0)
  (0.0110253 0.0207006 0)
  (0.0858327 0.00587636 0)
  (0.133354 0.144979 0)
  (-0.125696 0.065212 0)
  (-0.135737 0.0462691 0)
  (-0.161065 0.0293318 0)
  (-0.173549 0.00985146 0)
  (-0.171553 -0.0124798 0)
  (-0.154316 -0.0361811 0)
  (-0.124241 -0.0567388 0)
  (-0.0863126 -0.0692641 0)
  (-0.0468408 -0.0713092 0)
  (-0.0103455 -0.0616865 0)
  (0.0202709 -0.0411224 0)
  (0.0397295 -0.0188669 0)
  (0.0521652 0.00499799 0)
  (0.065285 0.0318601 0)
  (0.0633237 0.0353921 0)
  (0.0427439 0.0394368 0)
  (-0.124428 0.00466325 0)
  (0.0285831 -0.0102117 0)
  (0.0280251 -0.0243683 0)
  (0.040734 -0.0295588 0)
  (0.0538343 -0.0264121 0)
  (0.0647685 -0.0196303 0)
  (0.0704272 -0.00859046 0)
  (0.071831 -0.0019438 0)
  (0.0717911 0.000599317 0)
  (0.0719201 0.00155129 0)
  (0.0722486 0.00210459 0)
  (0.0725121 0.00262583 0)
  (0.0725939 0.00337187 0)
  (0.0724127 0.00486542 0)
  (0.0713632 0.00828525 0)
  (0.0666672 0.0169133 0)
  (0.0571811 0.0265585 0)
  (0.0122474 0.0398612 0)
  (0.138944 0.026916 0)
  (0.24988 0.216711 0)
  (-0.130689 0.101034 0)
  (-0.103376 0.0733753 0)
  (-0.127888 0.0450797 0)
  (-0.139943 0.0131656 0)
  (-0.137747 -0.0228969 0)
  (-0.120323 -0.0601506 0)
  (-0.0921344 -0.0905264 0)
  (-0.0591909 -0.106439 0)
  (-0.0268697 -0.105891 0)
  (0.00193617 -0.0895364 0)
  (0.0249236 -0.0632372 0)
  (0.0420515 -0.0345723 0)
  (0.0538849 -0.00578971 0)
  (0.0619401 0.0222812 0)
  (0.0606669 0.0409332 0)
  (0.0500243 0.0724253 0)
  (-0.10288 -0.0123522 0)
  (0.0477538 -0.0370001 0)
  (0.0561357 -0.0439229 0)
  (0.0625488 -0.0424502 0)
  (0.0692479 -0.0366174 0)
  (0.0752299 -0.030351 0)
  (0.0766078 -0.0226662 0)
  (0.069538 -0.0146708 0)
  (0.0639104 -0.0104344 0)
  (0.0616157 -0.00810574 0)
  (0.0608593 -0.00661964 0)
  (0.0605459 -0.00554961 0)
  (0.0607287 -0.00450418 0)
  (0.0622183 -0.00287468 0)
  (0.0668716 0.00185793 0)
  (0.0672897 0.0221486 0)
  (0.0610561 0.0382525 0)
  (0.0123729 0.0569387 0)
  (0.17044 0.057509 0)
  (0.358623 0.274445 0)
  (-0.149817 0.131213 0)
  (-0.069339 0.0972688 0)
  (-0.0920187 0.0601044 0)
  (-0.101488 0.0177533 0)
  (-0.0955518 -0.032143 0)
  (-0.0757156 -0.0830782 0)
  (-0.0496515 -0.121403 0)
  (-0.0232649 -0.138364 0)
  (0.000849045 -0.134012 0)
  (0.0206857 -0.11248 0)
  (0.0366505 -0.0818767 0)
  (0.0494328 -0.048352 0)
  (0.059356 -0.0154812 0)
  (0.068298 0.015476 0)
  (0.0784864 0.0417187 0)
  (0.0930441 0.0706182 0)
  (0.120534 0.00942637 0)
  (0.111173 -0.011306 0)
  (0.102617 -0.0330188 0)
  (0.0909867 -0.0422438 0)
  (0.0826695 -0.0416918 0)
  (0.0773771 -0.0363022 0)
  (0.0728052 -0.0280995 0)
  (0.0730806 -0.0166344 0)
  (0.0804748 -0.0107475 0)
  (0.0856842 -0.00751137 0)
  (0.0876209 -0.00554763 0)
  (0.0877865 -0.00403377 0)
  (0.0865941 -0.00253214 0)
  (0.083663 -0.00072954 0)
  (0.0777799 0.00187701 0)
  (0.0661502 0.00601009 0)
  (0.0577585 0.0278104 0)
  (0.0598505 0.0463426 0)
  (0.0178876 0.068234 0)
  (0.189956 0.100873 0)
  (0.457325 0.318492 0)
  (-0.178107 0.153863 0)
  (-0.0350457 0.111978 0)
  (-0.0536606 0.0696065 0)
  (-0.0577661 0.0196411 0)
  (-0.0407137 -0.0440199 0)
  (-0.0181735 -0.105511 0)
  (0.00327307 -0.146659 0)
  (0.0203178 -0.160362 0)
  (0.0332225 -0.15163 0)
  (0.0430448 -0.126974 0)
  (0.0506032 -0.0934323 0)
  (0.0565558 -0.0574771 0)
  (0.0619422 -0.0234629 0)
  (0.0688346 0.00653156 0)
  (0.0785976 0.0294895 0)
  (0.093922 0.0404143 0)
  (0.107275 0.0118361 0)
  (0.106471 -0.0089964 0)
  (0.0974564 -0.0246795 0)
  (0.086635 -0.0320979 0)
  (0.0764605 -0.0327265 0)
  (0.0678679 -0.0289198 0)
  (0.0610981 -0.0216871 0)
  (0.0581277 -0.0107672 0)
  (0.0586948 -0.00426915 0)
  (0.0593484 -0.00132975 0)
  (0.0593047 0.000213616 0)
  (0.0590681 0.00163385 0)
  (0.0588493 0.00350686 0)
  (0.0583162 0.00634584 0)
  (0.0570592 0.0107886 0)
  (0.0545909 0.0176705 0)
  (0.0534592 0.0310846 0)
  (0.0626499 0.0456925 0)
  (0.0483409 0.0605902 0)
  (0.133435 0.0971529 0)
  (0.123033 0.0779908 0)
  (0.104871 0.0569837 0)
  (-0.118136 0.0584478 0)
  (0.535204 0.353788 0)
  (-0.21005 0.166849 0)
  (-0.00628831 0.110798 0)
  (-0.0126873 0.071807 0)
  (-0.00525333 0.0146506 0)
  (0.0292607 -0.0660991 0)
  (0.0496677 -0.126442 0)
  (0.0621022 -0.161213 0)
  (0.0675905 -0.170314 0)
  (0.0681472 -0.157954 0)
  (0.0657241 -0.130604 0)
  (0.0620317 -0.0954949 0)
  (0.0585054 -0.0591058 0)
  (0.0565732 -0.0262737 0)
  (0.0579262 0.000408504 0)
  (0.0631773 0.0185543 0)
  (0.0733056 0.0238116 0)
  (0.0803418 0.0100198 0)
  (0.0794779 -0.00531466 0)
  (0.072734 -0.0163891 0)
  (0.0635815 -0.0222233 0)
  (0.0539309 -0.0232622 0)
  (0.0449738 -0.0206786 0)
  (0.0376024 -0.0154021 0)
  (0.032949 -0.00850871 0)
  (0.0310446 -0.00399668 0)
  (0.0304414 -0.0019123 0)
  (0.0304893 -0.000902453 0)
  (0.0312576 8.23146e-05 0)
  (0.0328707 0.00176535 0)
  (0.0349791 0.00475214 0)
  (0.0375392 0.00960122 0)
  (0.0404188 0.0166671 0)
  (0.0446294 0.026445 0)
  (0.0546147 0.0364533 0)
  (0.054079 0.0404462 0)
  (0.0841107 0.0584315 0)
  (0.0828482 0.047377 0)
  (0.0977316 0.0460352 0)
  (-0.129995 0.0836096 0)
  (0.590597 0.384411 0)
  (-0.228711 0.151909 0)
  (0.0230078 0.0692564 0)
  (0.0436198 0.0428734 0)
  (0.0799672 -0.0202228 0)
  (0.109593 -0.0909769 0)
  (0.123836 -0.141202 0)
  (0.124777 -0.166078 0)
  (0.115645 -0.167503 0)
  (0.10027 -0.150225 0)
  (0.0823425 -0.120662 0)
  (0.0648942 -0.0855875 0)
  (0.0501677 -0.0509004 0)
  (0.0398138 -0.0213638 0)
  (0.0346053 0.000717335 0)
  (0.035753 0.0138815 0)
  (0.041392 0.0167448 0)
  (0.0451768 0.00871122 0)
  (0.0442274 -0.0015653 0)
  (0.0391862 -0.00939915 0)
  (0.0314963 -0.0136667 0)
  (0.0228591 -0.0145187 0)
  (0.0145249 -0.0127634 0)
  (0.00756873 -0.00930409 0)
  (0.00297226 -0.00527728 0)
  (0.000848037 -0.00270215 0)
  (0.000349144 -0.0017841 0)
  (0.000899015 -0.00173616 0)
  (0.00238902 -0.00177015 0)
  (0.00500094 -0.00115713 0)
  (0.00920335 0.000896683 0)
  (0.0149019 0.00500138 0)
  (0.0214609 0.0109805 0)
  (0.029285 0.018384 0)
  (0.0395559 0.0257908 0)
  (0.0445061 0.0293502 0)
  (0.0582031 0.0419439 0)
  (0.0635305 0.0491329 0)
  (0.107588 0.0656665 0)
  (-0.109736 0.132241 0)
  (0.683516 0.380662 0)
  (-0.0455346 0.123009 0)
  (0.0931425 -0.0107011 0)
  (0.157497 -0.0592909 0)
  (0.19716 -0.0920966 0)
  (0.211171 -0.123553 0)
  (0.206157 -0.146206 0)
  (0.185665 -0.15379 0)
  (0.154534 -0.145505 0)
  (0.118488 -0.124034 0)
  (0.0826268 -0.0943402 0)
  (0.0508735 -0.0621394 0)
  (0.0259641 -0.0323261 0)
  (0.00951076 -0.00927622 0)
  (0.000966381 0.0056763 0)
  (0.000938843 0.0127543 0)
  (0.00437807 0.0132924 0)
  (0.00653633 0.00801863 0)
  (0.00521565 0.0014615 0)
  (0.00133228 -0.00360631 0)
  (-0.00526716 -0.00621051 0)
  (-0.0125848 -0.00664844 0)
  (-0.0194612 -0.00566377 0)
  (-0.0249504 -0.00401759 0)
  (-0.0284428 -0.00250652 0)
  (-0.0300336 -0.00193834 0)
  (-0.0303356 -0.00235957 0)
  (-0.0298205 -0.00339284 0)
  (-0.0286719 -0.00459805 0)
  (-0.0268323 -0.00553872 0)
  (-0.0239483 -0.00576196 0)
  (-0.0191832 -0.00472525 0)
  (-0.0112646 -0.00200503 0)
  (-0.00118595 0.00202785 0)
  (0.00951977 0.0062458 0)
  (0.0155557 0.00832583 0)
  (0.0245115 0.0156156 0)
  (0.0309474 0.0220078 0)
  (0.107996 0.0741953 0)
  (-0.358376 0.196417 0)
  (0.810399 0.36676 0)
  (0.388137 0.254395 0)
  (0.39979 0.171994 0)
  (0.418657 0.0895929 0)
  (0.389498 0.015045 0)
  (0.33844 -0.0456348 0)
  (0.281149 -0.0838659 0)
  (0.220295 -0.0984771 0)
  (0.158849 -0.0938991 0)
  (0.100953 -0.0760853 0)
  (0.0503788 -0.0515825 0)
  (0.0100423 -0.0266134 0)
  (-0.0177485 -0.00596198 0)
  (-0.031781 0.00542137 0)
  (-0.0365391 0.0108025 0)
  (-0.0362734 0.0128074 0)
  (-0.0342754 0.0122375 0)
  (-0.0333532 0.00933706 0)
  (-0.0348781 0.00582893 0)
  (-0.0384505 0.00309908 0)
  (-0.0432073 0.00156192 0)
  (-0.0483762 0.000944666 0)
  (-0.0530687 0.000804639 0)
  (-0.0566982 0.000733126 0)
  (-0.0590467 0.000389763 0)
  (-0.0603706 -0.000467459 0)
  (-0.0611901 -0.00179736 0)
  (-0.0618923 -0.00342447 0)
  (-0.0628556 -0.00505442 0)
  (-0.0645077 -0.00629046 0)
  (-0.0673682 -0.00655766 0)
  (-0.0720897 -0.00485632 0)
  (-0.0793697 0.000137709 0)
  (-0.0887956 0.00897018 0)
  (-0.102294 0.0224544 0)
  (-0.124246 0.0418443 0)
  (-0.153612 0.0679911 0)
  (-0.191605 0.0971211 0)
  (-0.252565 0.121724 0)
  (-0.489716 0.128843 0)
  (0.144999 -0.00722807 0)
  (0.199408 -0.0190717 0)
  (0.213454 -0.0510093 0)
  (0.184882 -0.0641627 0)
  (0.144957 -0.0626988 0)
  (0.0990365 -0.0538083 0)
  (0.0512061 -0.0399288 0)
  (0.00453382 -0.0211854 0)
  (-0.0335405 -0.00296008 0)
  (-0.0567205 0.00791363 0)
  (-0.0689235 0.0138306 0)
  (-0.0729831 0.0162196 0)
  (-0.0735623 0.0172987 0)
  (-0.0724118 0.0176679 0)
  (-0.0709275 0.0173851 0)
  (-0.0703193 0.0164124 0)
  (-0.0711135 0.015253 0)
  (-0.0730347 0.0144125 0)
  (-0.0754928 0.0140822 0)
  (-0.0779752 0.0141209 0)
  (-0.080174 0.0143278 0)
  (-0.0820117 0.0146056 0)
  (-0.0835795 0.0149399 0)
  (-0.0850678 0.015357 0)
  (-0.086682 0.0159558 0)
  (-0.0886644 0.0169108 0)
  (-0.0911325 0.018519 0)
  (-0.094124 0.0211248 0)
  (-0.0977101 0.0242076 0)
  (-0.101752 0.0277962 0)
  (-0.1058 0.0319026 0)
  (-0.109801 0.0378549 0)
  (-0.113407 0.0474705 0)
  (-0.115978 0.0626243 0)
  (-0.115196 0.0828946 0)
  (-0.108081 0.0964214 0)
  (-0.0966055 0.0654496 0)
  (-0.133934 -0.162628 0)
  (0.0329142 0.100294 0)
  (0.0335846 0.0196334 0)
  (0.0163915 -0.0334689 0)
  (0.00890134 -0.0522101 0)
  (-0.0173348 -0.0535694 0)
  (-0.0448516 -0.0532554 0)
  (-0.0703716 -0.0515643 0)
  (-0.0890525 -0.0512107 0)
  (-0.0994107 -0.0529363 0)
  (-0.103776 -0.0558406 0)
  (-0.105023 -0.0587835 0)
  (-0.104212 -0.0613021 0)
  (-0.102357 -0.0628943 0)
  (-0.0999003 -0.0640601 0)
  (-0.0973218 -0.0655367 0)
  (-0.0951224 -0.0678215 0)
  (-0.0935864 -0.0707906 0)
  (-0.0926854 -0.0740219 0)
  (-0.0922203 -0.077165 0)
  (-0.0919919 -0.0801244 0)
  (-0.0918924 -0.0829889 0)
  (-0.0919173 -0.0859233 0)
  (-0.0921431 -0.0891225 0)
  (-0.0927075 -0.0927457 0)
  (-0.0937748 -0.0968074 0)
  (-0.0954829 -0.101077 0)
  (-0.097842 -0.105173 0)
  (-0.100603 -0.108393 0)
  (-0.103348 -0.109078 0)
  (-0.105505 -0.105806 0)
  (-0.106075 -0.0970991 0)
  (-0.103438 -0.0819155 0)
  (-0.0951534 -0.0603709 0)
  (-0.0784529 -0.0340897 0)
  (-0.0522721 -0.00819444 0)
  (-0.0177724 0.000804901 0)
  (0.0756211 -0.0969579 0)
  (-0.0889962 -0.15314 0)
  (-0.0373663 -0.241081 0)
  (-0.289935 -0.043386 0)
  (-0.219835 0.174391 0)
  (-0.186709 0.171518 0)
  (-0.163226 0.179315 0)
  (-0.159252 0.186286 0)
  (-0.161828 0.188528 0)
  (-0.164298 0.194096 0)
  (-0.16309 0.201824 0)
  (-0.158844 0.212523 0)
  (-0.152463 0.223588 0)
  (-0.14543 0.232956 0)
  (-0.138768 0.24024 0)
  (-0.132832 0.245547 0)
  (-0.127523 0.249351 0)
  (-0.122546 0.252559 0)
  (-0.117802 0.25594 0)
  (-0.11342 0.259829 0)
  (-0.109586 0.26406 0)
  (-0.106405 0.268256 0)
  (-0.103877 0.27213 0)
  (-0.101955 0.275618 0)
  (-0.100585 0.278851 0)
  (-0.0997179 0.282087 0)
  (-0.0993055 0.285654 0)
  (-0.0992956 0.289874 0)
  (-0.0996063 0.294966 0)
  (-0.100074 0.300931 0)
  (-0.100448 0.307605 0)
  (-0.100418 0.31449 0)
  (-0.0994925 0.32024 0)
  (-0.096925 0.323801 0)
  (-0.0916002 0.324244 0)
  (-0.0819161 0.321328 0)
  (-0.0663859 0.316307 0)
  (-0.0451657 0.312232 0)
  (-0.0204097 0.31426 0)
  (0.0167646 0.323456 0)
  (0.107114 0.388444 0)
  (-0.248171 0.402565 0)
)
;

boundaryField
{
  floor
  {
    type noSlip;
  }
  ceiling
  {
    type noSlip;
  }
  sWall
  {
    type noSlip;
  }
  nWall
  {
    type noSlip;
  }
  sideWalls
  {
    type empty;
  }
  glass1
  {
    type noSlip;
  }
  glass2
  {
    type noSlip;
  }
  sun
  {
    type noSlip;
  }
  heatsource1
  {
    type noSlip;
  }
  heatsource2
  {
    type noSlip;
  }
  Table_master
  {
    type noSlip;
  }
  Table_slave
  {
    type noSlip;
  }
  inlet
  {
    type fixedValue;
    value uniform (0.277164 -0.114805 0);
  }
  outlet
  {
    type zeroGradient;
  }
} 	// ************************************************************************* //

