/*--------------------------------*- C++ -*----------------------------------*\
  =========                 |
  \\      /  F ield         | OpenFOAM: The Open Source CFD Toolbox
   \\    /   O peration     | Website:  https://openfoam.org
    \\  /    A nd           | Version:  6
     \\/     M anipulation  |
\*---------------------------------------------------------------------------*/
FoamFile
{
    version     2.0;
    format      ascii;
    class       volScalarField;
    location    "150";
    object      epsilon;
}
// * * * * * * * * * * * * * * * * * * * * * * * * * * * * * * * * * * * * * //

dimensions      [0 2 -3 0 0 0 0];

internalField   nonuniform List<scalar> 
459
(
0.000547431
0.000906746
0.00121696
0.00150231
0.00149029
0.00134745
0.00117549
0.00101701
0.000879867
0.000763188
0.000664767
0.000575151
0.000487785
0.000396157
0.000302339
6.67726e-05
0.000139127
0.000205403
0.000211734
0.000199697
0.000177808
0.000148651
0.000122689
0.000101955
8.56782e-05
7.28284e-05
6.2554e-05
5.4218e-05
4.7345e-05
4.14194e-05
3.59992e-05
3.06593e-05
2.37459e-05
1.82141e-05
0.00107893
0.0012746
0.00116491
0.0011641
0.00101571
0.000895551
0.000730353
0.000598631
0.000512452
0.000458416
0.000420716
0.000385248
0.000345038
0.000298391
0.000250753
0.000291188
0.000196211
0.000176373
0.00044196
0.000228372
0.000180235
0.000156375
0.000137747
0.000135434
0.000113175
9.17373e-05
7.42121e-05
6.04375e-05
4.96918e-05
4.12511e-05
3.45824e-05
2.94472e-05
2.66954e-05
2.8874e-05
2.595e-05
2.89122e-05
0.00176196
0.00245257
0.00173051
0.00124851
0.000927262
0.000853818
0.000657143
0.000495815
0.000402823
0.000353332
0.000322756
0.000295814
0.000266544
0.000234905
0.000205543
0.000197826
0.000208008
0.000167716
0.000311378
0.000211423
0.000179919
0.000160865
0.000153207
0.000343573
0.000232664
0.000162433
0.000117356
8.76741e-05
6.75681e-05
5.36814e-05
4.43107e-05
3.84958e-05
2.90947e-05
2.88121e-05
3.4397e-05
3.98277e-05
0.00262092
0.00424057
0.00244029
0.00131228
0.000936509
0.000914271
0.000650954
0.000427047
0.000312964
0.000264855
0.000243809
0.000227591
0.00020924
0.000189611
0.000172842
0.000162086
0.000167683
0.000212557
0.000201849
0.000182237
0.000179716
0.000177878
0.000169556
0.000170558
0.000466493
0.000352802
0.000275317
0.000216471
0.000168819
0.00012896
9.52422e-05
6.67001e-05
4.18509e-05
2.48052e-05
2.418e-05
6.60851e-05
6.09875e-05
0.00356753
0.00622784
0.00315487
0.00136424
0.00104872
0.00107563
0.000706688
0.000379917
0.000231934
0.000186613
0.000178428
0.000174606
0.000168092
0.000160933
0.000157115
0.000156353
0.000176542
0.000199159
0.000205165
0.000218669
0.000228568
0.000225138
0.000208544
0.000189101
0.000192145
0.00018495
0.000173682
0.000155866
0.000132726
0.000106782
7.98151e-05
5.40602e-05
2.84661e-05
1.98558e-05
2.15089e-05
7.16215e-05
8.11599e-05
9.32326e-05
7.56034e-05
5.29677e-05
0.00441546
0.0078837
0.00364244
0.00142979
0.00124335
0.0013071
0.000799862
0.000342523
0.000174776
0.000140713
0.000139755
0.000143602
0.000147158
0.000151962
0.000162604
0.000181623
0.000220741
0.000260727
0.000293647
0.000313436
0.000312437
0.000289423
0.000252626
0.000214546
0.000185678
0.000165161
0.000147292
0.000126745
0.000102912
7.56525e-05
5.23308e-05
3.43538e-05
2.15837e-05
2.08645e-05
2.64349e-05
5.95411e-05
9.1669e-05
8.56403e-05
7.28416e-05
5.58708e-05
0.00478655
0.00790274
0.00334036
0.00159985
0.00150658
0.00158137
0.000895106
0.000340682
0.000172292
0.000139036
0.000138916
0.00014637
0.000157016
0.000172671
0.000198628
0.000235894
0.000290925
0.000349567
0.000389144
0.00039544
0.000368809
0.000318934
0.000260054
0.000202856
0.000162818
0.000136819
0.000114878
9.29665e-05
7.13054e-05
5.15146e-05
3.70061e-05
2.84472e-05
2.53875e-05
2.81594e-05
3.44465e-05
4.45478e-05
7.5158e-05
7.34087e-05
8.84198e-05
5.75441e-05
0.00432
0.00664381
0.00309812
0.00180295
0.00180355
0.00185255
0.000968212
0.000372493
0.000223379
0.000197522
0.000201307
0.000213192
0.000229995
0.000253552
0.000287847
0.000335771
0.000399601
0.000453363
0.000470782
0.000441583
0.000378232
0.000304348
0.000236671
0.000183609
0.000146279
0.000119156
9.69837e-05
7.80054e-05
6.26716e-05
5.20017e-05
4.6837e-05
4.62843e-05
4.76118e-05
4.70639e-05
4.4404e-05
4.69026e-05
6.01763e-05
7.62196e-05
9.54116e-05
8.63027e-05
0.00362561
0.0037681
0.00236083
0.00180677
0.00207218
0.00203342
0.000950697
0.000493275
0.000397659
0.000392732
0.000407391
0.000426122
0.000447201
0.000472396
0.000503941
0.000541443
0.000577842
0.000592957
0.000571534
0.0005155
0.000441677
0.000368067
0.000304833
0.000254955
0.000216926
0.000188122
0.000166795
0.000152732
0.000146512
0.00014859
0.000158232
0.000171656
0.000180182
0.000171562
0.000141993
0.000108026
9.3343e-05
0.000111992
0.000188252
0.000448317
0.000701704
0.00184158
0.00259433
0.00157353
0.000982745
0.000895269
0.000929459
0.000984197
0.00103004
0.00106197
0.00108208
0.00109403
0.00110068
0.001102
0.00109399
0.00106997
0.00102825
0.000973771
0.000914121
0.000855207
0.000800123
0.0007505
0.000707728
0.000673833
0.000651357
0.000643171
0.000652044
0.000679791
0.000725337
0.000780952
0.000827343
0.000832811
0.000766943
0.000628188
0.000465249
0.000376451
0.00051191
0.000884045
0.00489118
0.00662742
0.00492447
0.00267784
0.00209419
0.00212866
0.00229744
0.00246441
0.00258599
0.00265655
0.00268587
0.00268861
0.00267999
0.00267282
0.00267333
0.00267801
0.00267475
0.00265346
0.00261221
0.00255495
0.0024871
0.00241481
0.00234563
0.00228865
0.00225341
0.00224984
0.00228857
0.00238022
0.00253127
0.00273335
0.0029448
0.00307306
0.00299153
0.0026201
0.0020264
0.0016009
0.00200235
0.00177841
0.00132369
0.00164309
0.00216976
0.00248725
0.00232932
0.00211588
0.0019828
0.00194583
0.00194576
0.00195404
0.0019623
0.00196955
0.0019768
0.00198469
0.00199226
0.00199629
0.00199193
0.00197517
0.001946
0.0019083
0.00186717
0.00182683
0.00179017
0.00175927
0.00173603
0.0017225
0.00172092
0.0017335
0.00176182
0.00180551
0.00185998
0.00191354
0.00194577
0.00193135
0.00184953
0.00168992
0.00146047
0.0012387
0.00120164
0.00101227
)
;

boundaryField
{
    floor
    {
        Cmu             0.09;
        kappa           0.41;
        E               9.8;
        type            epsilonWallFunction;
        value           nonuniform List<scalar> 
29
(
0.000302339
6.67726e-05
0.000139127
0.000205403
0.000211734
0.000199697
0.000177808
0.000148651
0.000122689
0.000101955
8.56782e-05
7.28284e-05
6.2554e-05
5.4218e-05
4.7345e-05
4.14194e-05
3.59992e-05
3.06593e-05
2.37459e-05
1.82141e-05
1.82141e-05
2.89122e-05
3.98277e-05
6.09875e-05
0.000302339
6.67726e-05
0.000176373
0.000167716
0.000212557
)
;
    }
    ceiling
    {
        Cmu             0.09;
        kappa           0.41;
        E               9.8;
        type            epsilonWallFunction;
        value           nonuniform List<scalar> 
43
(
0.00132369
0.00164309
0.00216976
0.00248725
0.00232932
0.00211588
0.0019828
0.00194583
0.00194576
0.00195404
0.0019623
0.00196955
0.0019768
0.00198469
0.00199226
0.00199629
0.00199193
0.00197517
0.001946
0.0019083
0.00186717
0.00182683
0.00179017
0.00175927
0.00173603
0.0017225
0.00172092
0.0017335
0.00176182
0.00180551
0.00185998
0.00191354
0.00194577
0.00193135
0.00184953
0.00168992
0.00146047
0.0012387
0.00120164
0.00101227
0.00362561
0.0037681
0.00489118
)
;
    }
    sWall
    {
        Cmu             0.09;
        kappa           0.41;
        E               9.8;
        type            epsilonWallFunction;
        value           uniform 0.00132369;
    }
    nWall
    {
        Cmu             0.09;
        kappa           0.41;
        E               9.8;
        type            epsilonWallFunction;
        value           nonuniform List<scalar> 6(5.29677e-05 5.58708e-05 5.75441e-05 0.000884045 0.00177841 0.00101227);
    }
    sideWalls
    {
        type            empty;
    }
    glass1
    {
        Cmu             0.09;
        kappa           0.41;
        E               9.8;
        type            epsilonWallFunction;
        value           nonuniform List<scalar> 9(0.000547431 0.00107893 0.00176196 0.00262092 0.00356753 0.00441546 0.00478655 0.00432 0.00362561);
    }
    glass2
    {
        Cmu             0.09;
        kappa           0.41;
        E               9.8;
        type            epsilonWallFunction;
        value           nonuniform List<scalar> 2(8.63027e-05 0.000448317);
    }
    sun
    {
        Cmu             0.09;
        kappa           0.41;
        E               9.8;
        type            epsilonWallFunction;
        value           nonuniform List<scalar> 
14
(
0.000547431
0.000906746
0.00121696
0.00150231
0.00149029
0.00134745
0.00117549
0.00101701
0.000879867
0.000763188
0.000664767
0.000575151
0.000487785
0.000396157
)
;
    }
    heatsource1
    {
        Cmu             0.09;
        kappa           0.41;
        E               9.8;
        type            epsilonWallFunction;
        value           nonuniform List<scalar> 3(9.32326e-05 7.56034e-05 5.29677e-05);
    }
    heatsource2
    {
        Cmu             0.09;
        kappa           0.41;
        E               9.8;
        type            epsilonWallFunction;
        value           nonuniform List<scalar> 4(0.000291188 0.000196211 0.000196211 0.000208008);
    }
    Table_master
    {
        Cmu             0.09;
        kappa           0.41;
        E               9.8;
        type            epsilonWallFunction;
        value           nonuniform List<scalar> 9(0.000343573 0.000232664 0.000162433 0.000117356 8.76741e-05 6.75681e-05 5.36814e-05 4.43107e-05 3.84958e-05);
    }
    Table_slave
    {
        Cmu             0.09;
        kappa           0.41;
        E               9.8;
        type            epsilonWallFunction;
        value           nonuniform List<scalar> 9(0.000466493 0.000352802 0.000275317 0.000216471 0.000168819 0.00012896 9.52422e-05 6.67001e-05 4.18509e-05);
    }
    inlet
    {
        type            turbulentMixingLengthDissipationRateInlet;
        mixingLength    0.01;
        phi             phi;
        k               k;
        value           uniform 0.000101881;
    }
    outlet
    {
        type            zeroGradient;
    }
}


// ************************************************************************* //
