// -*- C++ -*-
// File generated by PyFoam - sorry for the ugliness

FoamFile
{
 version 2.0;
 format ascii;
 class volVectorField;
 location "600";
 object U;
}

dimensions [ 0 1 -1 0 0 0 0 ];

internalField nonuniform List<vector> 459
(
  (0.0754314 0.0760844 0)
  (-0.150069 0.0117589 0)
  (-0.153551 0.0132117 0)
  (-0.179839 0.0111997 0)
  (-0.20309 0.00817236 0)
  (-0.22271 0.00470542 0)
  (-0.237943 0.000830442 0)
  (-0.248025 -0.00355738 0)
  (-0.252007 -0.0086179 0)
  (-0.248541 -0.014574 0)
  (-0.235962 -0.0220446 0)
  (-0.211418 -0.0315296 0)
  (-0.173327 -0.0448418 0)
  (-0.131305 -0.0658082 0)
  (-0.12034 -0.0952147 0)
  (0.0758469 -0.0413532 0)
  (0.0505104 -0.0252985 0)
  (0.0627556 -0.0152614 0)
  (0.0755183 -0.0101011 0)
  (0.0824706 -0.00727302 0)
  (0.0862451 -0.00513872 0)
  (0.0882002 -0.00309492 0)
  (0.0879827 -0.0018213 0)
  (0.0865112 -0.00121454 0)
  (0.0847693 -0.000906256 0)
  (0.0830864 -0.00069067 0)
  (0.0814022 -0.000492616 0)
  (0.0795552 -0.000234019 0)
  (0.0772567 0.000254923 0)
  (0.0738505 0.0013578 0)
  (0.0680272 0.00360973 0)
  (0.0583727 0.00613466 0)
  (0.0489537 0.008192 0)
  (-0.011538 0.0243278 0)
  (0.279346 0.162822 0)
  (-0.163307 0.0393976 0)
  (-0.132215 0.0425382 0)
  (-0.163209 0.0389566 0)
  (-0.187184 0.0342107 0)
  (-0.207282 0.028688 0)
  (-0.2231 0.0221809 0)
  (-0.234057 0.0143506 0)
  (-0.239298 0.00481958 0)
  (-0.237577 -0.00677372 0)
  (-0.228275 -0.0199583 0)
  (-0.210512 -0.0345372 0)
  (-0.185428 -0.0518062 0)
  (-0.159325 -0.0741856 0)
  (-0.138162 -0.0943779 0)
  (-0.103546 -0.0787859 0)
  (-0.0649419 -0.0647279 0)
  (0.075203 -0.0570505 0)
  (0.0315577 -0.0274491 0)
  (0.0405839 -0.0123875 0)
  (0.0516799 -0.00761882 0)
  (0.0590518 -0.0060244 0)
  (0.0644143 -0.00384879 0)
  (0.0681218 0.000880252 0)
  (0.068864 0.00344025 0)
  (0.0686641 0.00420847 0)
  (0.0686808 0.00431989 0)
  (0.0689045 0.00430104 0)
  (0.0691174 0.00432299 0)
  (0.0692414 0.00455267 0)
  (0.0692256 0.00535247 0)
  (0.0685141 0.0076446 0)
  (0.0645891 0.0140718 0)
  (0.0544343 0.0196771 0)
  (0.0502282 0.0231372 0)
  (-0.0557346 0.0510402 0)
  (0.45932 0.247856 0)
  (-0.2061 0.0721808 0)
  (-0.103147 0.0720854 0)
  (-0.139291 0.0623259 0)
  (-0.160911 0.0530446 0)
  (-0.179505 0.0428305 0)
  (-0.194548 0.0310409 0)
  (-0.205529 0.0172357 0)
  (-0.211543 0.00116892 0)
  (-0.211172 -0.0169946 0)
  (-0.203995 -0.0370473 0)
  (-0.190478 -0.0580884 0)
  (-0.172624 -0.0795495 0)
  (-0.153713 -0.100337 0)
  (-0.132991 -0.11418 0)
  (-0.106698 -0.113529 0)
  (-0.0988999 -0.121606 0)
  (0.0424794 -0.0661144 0)
  (0.0034114 -0.0374157 0)
  (0.0171824 -0.0233944 0)
  (0.0292878 -0.0182466 0)
  (0.0388016 -0.0156407 0)
  (0.046256 -0.0134645 0)
  (0.0522198 -0.00897848 0)
  (0.0517355 -0.00578066 0)
  (0.0510582 -0.00428186 0)
  (0.051914 -0.00358033 0)
  (0.0534807 -0.00316828 0)
  (0.0551467 -0.00285309 0)
  (0.0569322 -0.00246195 0)
  (0.0594031 -0.0016221 0)
  (0.0639244 0.00170313 0)
  (0.0632043 0.0196411 0)
  (0.0501742 0.0320348 0)
  (0.0565892 0.0394029 0)
  (-0.0955451 0.0778779 0)
  (0.612315 0.318535 0)
  (-0.259514 0.10703 0)
  (-0.067916 0.0986816 0)
  (-0.11097 0.0836274 0)
  (-0.127495 0.0719622 0)
  (-0.142782 0.0593707 0)
  (-0.155842 0.0447213 0)
  (-0.166128 0.0272468 0)
  (-0.172557 0.00637156 0)
  (-0.173236 -0.0178573 0)
  (-0.167645 -0.0441415 0)
  (-0.157549 -0.0703024 0)
  (-0.145304 -0.0943464 0)
  (-0.13344 -0.114191 0)
  (-0.122806 -0.126584 0)
  (-0.116108 -0.129753 0)
  (-0.117405 -0.116568 0)
  (-0.0920048 -0.0497669 0)
  (-0.0269404 -0.0747553 0)
  (-0.013135 -0.0544564 0)
  (0.00201703 -0.0384182 0)
  (0.0142931 -0.0294806 0)
  (0.0233185 -0.0242812 0)
  (0.0298132 -0.019543 0)
  (0.0385969 -0.0146738 0)
  (0.0523503 -0.0125571 0)
  (0.0647922 -0.0110217 0)
  (0.075232 -0.00951176 0)
  (0.08343 -0.00760999 0)
  (0.0885385 -0.00509994 0)
  (0.0890599 -0.00193637 0)
  (0.0834991 0.00217845 0)
  (0.069886 0.00783109 0)
  (0.0554763 0.029414 0)
  (0.0411201 0.0474149 0)
  (0.0626412 0.0603211 0)
  (-0.140177 0.100539 0)
  (0.737943 0.376111 0)
  (-0.311112 0.1411 0)
  (-0.029786 0.116031 0)
  (-0.0795615 0.0984575 0)
  (-0.0895978 0.0858251 0)
  (-0.099978 0.0717822 0)
  (-0.109334 0.0550688 0)
  (-0.117274 0.0346988 0)
  (-0.122731 0.00984641 0)
  (-0.12299 -0.0194305 0)
  (-0.117443 -0.0507072 0)
  (-0.109264 -0.079942 0)
  (-0.10062 -0.104368 0)
  (-0.0933186 -0.122692 0)
  (-0.0880918 -0.134381 0)
  (-0.0851102 -0.139584 0)
  (-0.0793633 -0.13367 0)
  (-0.059472 -0.107411 0)
  (-0.0320822 -0.0971472 0)
  (-0.0161737 -0.0698588 0)
  (-0.00546942 -0.051275 0)
  (0.00442312 -0.0395285 0)
  (0.0123179 -0.0325458 0)
  (0.0197199 -0.0269468 0)
  (0.028818 -0.0212683 0)
  (0.039418 -0.0180703 0)
  (0.0495216 -0.015939 0)
  (0.0586883 -0.0134456 0)
  (0.0665733 -0.00960036 0)
  (0.0724016 -0.00371116 0)
  (0.0750514 0.00407815 0)
  (0.0728904 0.0130647 0)
  (0.0660159 0.0236403 0)
  (0.0567685 0.0408433 0)
  (0.0427669 0.0607748 0)
  (0.070537 0.0821042 0)
  (-0.039499 0.114673 0)
  (0.0433457 0.0198371 0)
  (-0.0747763 -0.041435 0)
  (-0.286921 -0.064831 0)
  (0.823866 0.426857 0)
  (-0.354396 0.16982 0)
  (0.00148859 0.117495 0)
  (-0.0445564 0.106941 0)
  (-0.0488592 0.0944872 0)
  (-0.0540865 0.0793964 0)
  (-0.0585298 0.0616171 0)
  (-0.0624083 0.039905 0)
  (-0.0651702 0.0127424 0)
  (-0.0618585 -0.0210175 0)
  (-0.0550807 -0.0568744 0)
  (-0.0489618 -0.0875539 0)
  (-0.0444393 -0.110838 0)
  (-0.0423297 -0.126852 0)
  (-0.0427328 -0.136422 0)
  (-0.0448654 -0.140122 0)
  (-0.0448656 -0.136532 0)
  (-0.0358252 -0.127493 0)
  (-0.0233509 -0.112755 0)
  (-0.0135074 -0.0793485 0)
  (-0.00850883 -0.0585842 0)
  (-0.00345618 -0.0466099 0)
  (0.00157871 -0.0390347 0)
  (0.00694452 -0.033814 0)
  (0.0133859 -0.0297318 0)
  (0.0207241 -0.027278 0)
  (0.0283134 -0.0252979 0)
  (0.0358665 -0.0225336 0)
  (0.043199 -0.0178254 0)
  (0.0499018 -0.0100499 0)
  (0.0559057 0.00133929 0)
  (0.058125 0.0144939 0)
  (0.0572565 0.0285536 0)
  (0.0559487 0.0453762 0)
  (0.051328 0.0650582 0)
  (0.0788573 0.0900371 0)
  (0.0464728 0.109795 0)
  (0.0964368 0.0706884 0)
  (0.12267 0.0449105 0)
  (-0.145599 -0.0154395 0)
  (0.846638 0.472315 0)
  (-0.374769 0.163235 0)
  (0.0209322 0.0767773 0)
  (0.00509939 0.10777 0)
  (0.000539604 0.105176 0)
  (-0.00338017 0.084756 0)
  (-0.00373704 0.0636768 0)
  (-0.00260556 0.0409752 0)
  (-0.00179764 0.0112219 0)
  (0.0120032 -0.028142 0)
  (0.0193502 -0.0643239 0)
  (0.0214841 -0.0921982 0)
  (0.0198849 -0.111946 0)
  (0.0149667 -0.124781 0)
  (0.00739847 -0.132097 0)
  (-0.00178368 -0.135205 0)
  (-0.0103941 -0.134914 0)
  (-0.0118621 -0.134222 0)
  (-0.0111841 -0.12064 0)
  (-0.00862101 -0.0822554 0)
  (-0.0103902 -0.0602138 0)
  (-0.0106188 -0.0485987 0)
  (-0.0101546 -0.0418589 0)
  (-0.00877867 -0.0376143 0)
  (-0.00637817 -0.0348535 0)
  (-0.00310137 -0.0331685 0)
  (0.000909005 -0.0316901 0)
  (0.0054487 -0.0294067 0)
  (0.0106129 -0.0251684 0)
  (0.0166066 -0.0175491 0)
  (0.0240552 -0.00504502 0)
  (0.0334897 0.0110025 0)
  (0.0393767 0.0264819 0)
  (0.0460495 0.042114 0)
  (0.0521452 0.0584032 0)
  (0.0782241 0.0790149 0)
  (0.0885909 0.0864433 0)
  (0.126163 0.0550755 0)
  (0.169518 0.0421972 0)
  (-0.0334264 0.0953792 0)
  (0.944361 0.489777 0)
  (-0.134833 0.145711 0)
  (0.0832967 0.00744493 0)
  (0.122107 0.0454251 0)
  (0.0989541 0.0725481 0)
  (0.0809115 0.0627264 0)
  (0.0771212 0.0411466 0)
  (0.0801016 0.0170093 0)
  (0.087105 -0.013993 0)
  (0.102398 -0.0433638 0)
  (0.105514 -0.0689716 0)
  (0.0999883 -0.0894054 0)
  (0.089023 -0.104193 0)
  (0.0743473 -0.113781 0)
  (0.0573627 -0.119205 0)
  (0.0395524 -0.121959 0)
  (0.0216093 -0.124172 0)
  (0.0104353 -0.129347 0)
  (0.000456059 -0.120165 0)
  (-0.00350177 -0.0784919 0)
  (-0.0127734 -0.0562363 0)
  (-0.0187634 -0.0459809 0)
  (-0.0232678 -0.0404256 0)
  (-0.0265848 -0.0372111 0)
  (-0.0289483 -0.0354145 0)
  (-0.0305917 -0.0344432 0)
  (-0.0316753 -0.0336191 0)
  (-0.0321775 -0.0322088 0)
  (-0.0318534 -0.0294649 0)
  (-0.0301952 -0.0246213 0)
  (-0.0258972 -0.0169192 0)
  (-0.0139455 -0.00545382 0)
  (-0.000506228 0.00885523 0)
  (0.0118263 0.0211512 0)
  (0.0238345 0.0296311 0)
  (0.0472502 0.0389467 0)
  (0.0669719 0.030753 0)
  (0.0870537 -0.00467248 0)
  (0.14945 0.0426016 0)
  (-0.459005 0.221873 0)
  (1.07215 0.451526 0)
  (0.518524 0.301487 0)
  (0.5189 0.23434 0)
  (0.486263 0.196673 0)
  (0.40153 0.170684 0)
  (0.327993 0.132909 0)
  (0.285434 0.0910132 0)
  (0.262834 0.0517824 0)
  (0.250338 0.0157345 0)
  (0.230269 -0.0185316 0)
  (0.206856 -0.0471488 0)
  (0.181605 -0.0684359 0)
  (0.155056 -0.0828038 0)
  (0.127612 -0.0916344 0)
  (0.0998339 -0.0965893 0)
  (0.0724328 -0.0995588 0)
  (0.0454544 -0.103387 0)
  (0.0272096 -0.112994 0)
  (0.00804972 -0.108807 0)
  (0.000187619 -0.067442 0)
  (-0.016789 -0.0467883 0)
  (-0.028396 -0.03946 0)
  (-0.0374769 -0.0357524 0)
  (-0.0453188 -0.0335604 0)
  (-0.052564 -0.0322893 0)
  (-0.0595916 -0.0314638 0)
  (-0.0666888 -0.0304995 0)
  (-0.0740617 -0.0287061 0)
  (-0.0819126 -0.0253068 0)
  (-0.090552 -0.019482 0)
  (-0.100378 -0.0104569 0)
  (-0.111465 0.00224684 0)
  (-0.121482 0.0176749 0)
  (-0.136266 0.035093 0)
  (-0.162377 0.0541843 0)
  (-0.201646 0.0734114 0)
  (-0.258601 0.0874825 0)
  (-0.323697 0.0936933 0)
  (-0.396003 0.0931866 0)
  (-0.664945 0.0863152 0)
  (-0.23643 0.103638 0)
  (0.175144 0.176729 0)
  (0.263978 0.170935 0)
  (0.260718 0.139804 0)
  (0.261618 0.0999249 0)
  (0.264241 0.0595531 0)
  (0.261937 0.0237201 0)
  (0.252252 -0.00558126 0)
  (0.234223 -0.0276558 0)
  (0.210433 -0.0433633 0)
  (0.182754 -0.0538236 0)
  (0.152741 -0.0601726 0)
  (0.121556 -0.0635712 0)
  (0.0898633 -0.0654769 0)
  (0.057643 -0.0690155 0)
  (0.0358082 -0.083074 0)
  (0.00480682 -0.0843943 0)
  (-0.00379039 -0.0401183 0)
  (-0.0251404 -0.0271138 0)
  (-0.0401927 -0.0249015 0)
  (-0.0515154 -0.0242875 0)
  (-0.0618013 -0.024084 0)
  (-0.0719492 -0.0240666 0)
  (-0.082256 -0.0239483 0)
  (-0.0928845 -0.023309 0)
  (-0.103803 -0.0215693 0)
  (-0.114722 -0.0179899 0)
  (-0.125019 -0.0117417 0)
  (-0.133658 -0.00202825 0)
  (-0.139335 0.0115551 0)
  (-0.142473 0.0288989 0)
  (-0.144611 0.0501753 0)
  (-0.147524 0.0739094 0)
  (-0.152121 0.0953995 0)
  (-0.155184 0.102922 0)
  (-0.137115 0.0741189 0)
  (-0.082891 -0.0326305 0)
  (-0.291846 -0.228294 0)
  (-0.120341 0.256361 0)
  (0.0883322 0.185533 0)
  (0.107294 0.137483 0)
  (0.14006 0.112724 0)
  (0.175103 0.0833176 0)
  (0.201642 0.0538758 0)
  (0.215159 0.0303818 0)
  (0.216019 0.0146887 0)
  (0.207744 0.00345448 0)
  (0.19226 -0.00505519 0)
  (0.171736 -0.0112704 0)
  (0.147747 -0.0154295 0)
  (0.121386 -0.0178483 0)
  (0.0931903 -0.0195283 0)
  (0.0628865 -0.0256941 0)
  (0.0395659 -0.055608 0)
  (-0.0160031 -0.0623279 0)
  (-0.0287264 0.0135678 0)
  (-0.0452297 0.0299243 0)
  (-0.0578201 0.027249 0)
  (-0.0674131 0.0267911 0)
  (-0.076221 0.0270881 0)
  (-0.084722 0.0267291 0)
  (-0.0930063 0.0258919 0)
  (-0.101065 0.0249458 0)
  (-0.108744 0.0241453 0)
  (-0.115739 0.0236371 0)
  (-0.121541 0.0234681 0)
  (-0.125144 0.0235374 0)
  (-0.124848 0.0267296 0)
  (-0.118657 0.035238 0)
  (-0.105567 0.0498021 0)
  (-0.0862446 0.069713 0)
  (-0.0624514 0.0897128 0)
  (-0.0375636 0.100964 0)
  (0.00669928 0.0824484 0)
  (0.145754 0.0047243 0)
  (-0.208613 -0.141742 0)
  (-0.162062 -0.370875 0)
  (-0.449885 -0.1005 0)
  (-0.326531 0.156594 0)
  (-0.171582 0.0630728 0)
  (-0.0823299 0.0376139 0)
  (0.0230718 0.033569 0)
  (0.0885055 0.0123143 0)
  (0.136606 -0.00900655 0)
  (0.166268 -0.0279337 0)
  (0.178726 -0.044677 0)
  (0.178503 -0.0584698 0)
  (0.16925 -0.0697377 0)
  (0.15377 -0.0797997 0)
  (0.134281 -0.0897055 0)
  (0.11242 -0.100517 0)
  (0.0892572 -0.113629 0)
  (0.0645226 -0.131755 0)
  (0.0416438 -0.160133 0)
  (-0.0485823 -0.165913 0)
  (-0.0640858 -0.152738 0)
  (-0.0700447 -0.147274 0)
  (-0.0773132 -0.143317 0)
  (-0.0856558 -0.138292 0)
  (-0.0936416 -0.132361 0)
  (-0.101077 -0.125777 0)
  (-0.108002 -0.11863 0)
  (-0.114298 -0.110905 0)
  (-0.11964 -0.102451 0)
  (-0.123491 -0.0929331 0)
  (-0.125085 -0.0817759 0)
  (-0.123321 -0.068115 0)
  (-0.116201 -0.0535311 0)
  (-0.100523 -0.0375822 0)
  (-0.0739344 -0.0193751 0)
  (-0.0378219 0.00189275 0)
  (0.0228849 0.0285737 0)
  (0.0756955 0.0294708 0)
  (0.125913 0.00620466 0)
  (0.179205 -0.0367359 0)
  (-0.174195 -0.107015 0)
)
;

boundaryField
{
  floor
  {
    type noSlip;
  }
  ceiling
  {
    type noSlip;
  }
  sWall
  {
    type noSlip;
  }
  nWall
  {
    type noSlip;
  }
  sideWalls
  {
    type empty;
  }
  glass1
  {
    type noSlip;
  }
  glass2
  {
    type noSlip;
  }
  sun
  {
    type noSlip;
  }
  heatsource1
  {
    type noSlip;
  }
  heatsource2
  {
    type noSlip;
  }
  Table_master
  {
    type noSlip;
  }
  Table_slave
  {
    type noSlip;
  }
  inlet
  {
    type fixedValue;
    value uniform (0.277164 -0.114805 0);
  }
  outlet
  {
    type zeroGradient;
  }
} 	// ************************************************************************* //

