// -*- C++ -*-
// File generated by PyFoam - sorry for the ugliness

FoamFile
{
 version 2.0;
 format ascii;
 class volScalarField;
 location "1200";
 object T;
}

dimensions [ 0 0 0 1 0 0 0 ];

internalField nonuniform List<scalar> 459
(
  306.334
  306.166
  306.103
  306.072
  306.052
  306.038
  306.03
  306.023
  306.016
  306.01
  306.004
  305.997
  305.991
  305.984
  305.975
  303.8
  303.797
  303.792
  303.786
  303.781
  303.774
  303.763
  303.744
  303.722
  303.701
  303.681
  303.658
  303.631
  303.609
  303.598
  303.624
  303.617
  303.605
  303.603
  306.244
  306.007
  305.91
  305.862
  305.835
  305.819
  305.813
  305.813
  305.818
  305.827
  305.839
  305.856
  305.878
  305.905
  305.933
  305.927
  305.914
  303.829
  303.818
  303.805
  303.795
  303.786
  303.772
  303.747
  303.716
  303.69
  303.668
  303.651
  303.637
  303.621
  303.603
  303.599
  303.677
  303.644
  303.617
  303.604
  306.172
  305.831
  305.715
  305.666
  305.641
  305.628
  305.624
  305.63
  305.646
  305.67
  305.702
  305.739
  305.783
  305.831
  305.879
  305.898
  305.899
  303.856
  303.837
  303.832
  303.829
  303.823
  303.807
  303.738
  303.692
  303.668
  303.649
  303.633
  303.62
  303.608
  303.597
  303.619
  303.77
  303.664
  303.63
  303.617
  306.105
  305.674
  305.576
  305.55
  305.538
  305.531
  305.527
  305.531
  305.548
  305.577
  305.616
  305.665
  305.721
  305.782
  305.843
  305.876
  305.854
  304.59
  303.955
  303.906
  303.913
  303.926
  303.938
  303.95
  303.96
  303.964
  303.966
  303.966
  303.966
  303.963
  303.959
  303.952
  303.942
  303.915
  303.856
  303.798
  303.786
  306.033
  305.559
  305.512
  305.517
  305.518
  305.514
  305.506
  305.502
  305.511
  305.537
  305.577
  305.63
  305.692
  305.76
  305.827
  305.856
  305.696
  304.432
  303.994
  303.956
  303.964
  303.977
  303.988
  303.996
  304.002
  304.004
  304.004
  304.001
  303.997
  303.99
  303.983
  303.974
  303.962
  303.945
  303.916
  303.872
  303.841
  303.835
  303.841
  303.911
  305.951
  305.494
  305.499
  305.526
  305.53
  305.524
  305.513
  305.503
  305.51
  305.535
  305.577
  305.631
  305.695
  305.76
  305.811
  305.778
  305.446
  304.334
  304.022
  303.995
  304.006
  304.021
  304.033
  304.043
  304.048
  304.048
  304.045
  304.038
  304.028
  304.017
  304.006
  303.997
  303.988
  303.979
  303.968
  303.954
  303.935
  303.898
  303.868
  303.875
  305.852
  305.477
  305.501
  305.541
  305.548
  305.548
  305.543
  305.54
  305.548
  305.57
  305.607
  305.654
  305.707
  305.754
  305.761
  305.636
  305.184
  304.272
  304.053
  304.038
  304.054
  304.074
  304.09
  304.101
  304.106
  304.104
  304.096
  304.083
  304.066
  304.049
  304.036
  304.028
  304.027
  304.029
  304.034
  304.042
  304.05
  304.046
  303.927
  303.905
  305.751
  305.459
  305.488
  305.552
  305.567
  305.578
  305.584
  305.59
  305.598
  305.615
  305.641
  305.674
  305.705
  305.716
  305.667
  305.461
  304.96
  304.248
  304.097
  304.093
  304.116
  304.143
  304.165
  304.177
  304.181
  304.177
  304.165
  304.145
  304.12
  304.095
  304.076
  304.071
  304.079
  304.095
  304.113
  304.13
  304.144
  304.153
  304.156
  304.15
  305.656
  305.424
  305.419
  305.526
  305.562
  305.585
  305.603
  305.616
  305.626
  305.637
  305.651
  305.664
  305.668
  305.642
  305.545
  305.297
  304.817
  304.273
  304.167
  304.173
  304.204
  304.238
  304.262
  304.273
  304.275
  304.27
  304.256
  304.233
  304.203
  304.17
  304.142
  304.127
  304.124
  304.132
  304.15
  304.172
  304.197
  304.222
  304.25
  304.313
  305.295
  305.479
  305.524
  305.555
  305.578
  305.595
  305.606
  305.612
  305.616
  305.613
  305.594
  305.545
  305.431
  305.197
  304.798
  304.374
  304.305
  304.31
  304.341
  304.365
  304.379
  304.385
  304.384
  304.377
  304.363
  304.341
  304.312
  304.277
  304.242
  304.209
  304.184
  304.169
  304.165
  304.167
  304.175
  304.186
  304.2
  304.228
  305.362
  305.443
  305.475
  305.498
  305.515
  305.528
  305.537
  305.54
  305.537
  305.525
  305.499
  305.449
  305.354
  305.178
  304.836
  304.647
  304.575
  304.548
  304.538
  304.532
  304.527
  304.519
  304.509
  304.495
  304.478
  304.456
  304.428
  304.395
  304.358
  304.318
  304.281
  304.25
  304.228
  304.215
  304.211
  304.212
  304.216
  304.238
  307.295
  306.677
  305.452
  305.405
  305.412
  305.417
  305.421
  305.425
  305.428
  305.43
  305.427
  305.418
  305.4
  305.37
  305.319
  305.162
  305.011
  304.934
  304.887
  304.853
  304.819
  304.786
  304.753
  304.721
  304.69
  304.66
  304.63
  304.601
  304.57
  304.538
  304.503
  304.465
  304.425
  304.387
  304.353
  304.327
  304.303
  304.28
  304.258
  304.258
)
;

boundaryField
{
  floor
  {
    type wallHeatTransfer;
    Tinf uniform 305.2;
    alphaWall uniform 0.24;
    value nonuniform List<scalar> 29
(
  305.914
  304.131
  304.096
  304.093
  304.103
  304.119
  304.133
  304.153
  304.179
  304.201
  304.217
  304.23
  304.241
  304.242
  304.223
  304.176
  304.047
  303.998
  303.989
  304.018
  304.018
  303.95
  303.938
  303.982
  305.914
  304.131
  304.081
  304.063
  304.659
)
;
  }
  ceiling
  {
    type wallHeatTransfer;
    Tinf uniform 303.2;
    alphaWall uniform 0.24;
    value nonuniform List<scalar> 43
(
  306.968
  306.395
  305.282
  305.179
  305.188
  305.195
  305.201
  305.206
  305.211
  305.214
  305.213
  305.206
  305.191
  305.165
  305.119
  304.974
  304.832
  304.756
  304.711
  304.679
  304.649
  304.621
  304.594
  304.567
  304.541
  304.515
  304.489
  304.462
  304.435
  304.407
  304.377
  304.345
  304.311
  304.278
  304.247
  304.221
  304.198
  304.174
  304.154
  304.146
  305.559
  305.344
  305.252
)
;
  }
  sWall
  {
    type wallHeatTransfer;
    Tinf uniform 315.2;
    alphaWall uniform 0.36;
    value uniform 308.207;
  }
  nWall
  {
    type wallHeatTransfer;
    Tinf uniform 307.2;
    alphaWall uniform 0.36;
    value nonuniform List<scalar> 6
(
  304.482
  304.396
  304.387
  304.577
  304.606
  304.703
)
;
  }
  sideWalls
  {
    type empty;
  }
  glass1
  {
    type wallHeatTransfer;
    Tinf uniform 315.2;
    alphaWall uniform 4.3;
    value nonuniform List<scalar> 9
(
  310.95
  310.673
  310.52
  310.408
  310.308
  310.206
  310.085
  309.935
  309.721
)
;
  }
  glass2
  {
    type wallHeatTransfer;
    Tinf uniform 307.2;
    alphaWall uniform 4.3;
    value nonuniform List<scalar> 2
(
  306.131
  306.099
)
;
  }
  sun
  {
    type wallHeatTransfer;
    Tinf uniform 305.2;
    alphaWall uniform 0.24;
    value nonuniform List<scalar> 14
(
  306.27
  306.11
  306.05
  306.019
  305.999
  305.985
  305.976
  305.969
  305.962
  305.955
  305.948
  305.941
  305.934
  305.926
)
;
  }
  heatsource1
  {
    type fixedGradient;
    gradient uniform 0;
  }
  heatsource2
  {
    type fixedGradient;
    gradient uniform 0;
  }
  Table_master
  {
    type zeroGradient;
  }
  Table_slave
  {
    type zeroGradient;
  }
  inlet
  {
    type fixedValue;
    value uniform 290.15;
  }
  outlet
  {
    type zeroGradient;
  }
} 	// ************************************************************************* //

