/*--------------------------------*- C++ -*----------------------------------*\
  =========                 |
  \\      /  F ield         | OpenFOAM: The Open Source CFD Toolbox
   \\    /   O peration     | Website:  https://openfoam.org
    \\  /    A nd           | Version:  6
     \\/     M anipulation  |
\*---------------------------------------------------------------------------*/
FoamFile
{
    version     2.0;
    format      ascii;
    class       volScalarField;
    location    "130";
    object      alphat;
}
// * * * * * * * * * * * * * * * * * * * * * * * * * * * * * * * * * * * * * //

dimensions      [1 -1 -1 0 0 0 0];

internalField   nonuniform List<scalar> 
459
(
0.00139731
0.00169104
0.00192794
0.00193405
0.00186359
0.00177787
0.0016929
0.00161428
0.00154092
0.00147509
0.00141162
0.00134617
0.00127396
0.00118735
0.00108344
0.000680763
0.00087624
0.0010057
0.00101706
0.000998872
0.000961799
0.000906375
0.000850287
0.000799324
0.000754181
0.000714352
0.000679079
0.000647417
0.000618889
0.00059221
0.000565656
0.000536853
0.000494338
0.000452872
0.00175704
0.00620539
0.00654473
0.00565844
0.00571042
0.00555871
0.00526217
0.0050009
0.0047701
0.00442571
0.00399934
0.00349659
0.00291814
0.00227536
0.0016435
0.0010665
0.000932333
0.000944923
0.00339426
0.00335136
0.00377143
0.00402072
0.00384269
0.00280554
0.00233096
0.0020225
0.00179861
0.00162716
0.00149207
0.00138559
0.00128093
0.00116364
0.00104885
0.000976564
0.000821846
0.000523224
0.00205772
0.00800744
0.00735628
0.00540874
0.00583306
0.00610356
0.00599304
0.00591398
0.00586517
0.00565536
0.00524931
0.00466123
0.00393306
0.00312663
0.00233729
0.00164347
0.000952336
0.000934276
0.00290571
0.00374329
0.00462371
0.00515136
0.00467884
0.00120821
0.00106065
0.000941867
0.00084614
0.000768256
0.000704139
0.000650929
0.000608624
0.000578889
0.000665511
0.000845197
0.000970473
0.000581629
0.00233553
0.00900907
0.00719928
0.00472949
0.00563742
0.00633886
0.00628743
0.0062885
0.00634801
0.0062004
0.0058225
0.00525178
0.00454063
0.00375368
0.00295902
0.00221577
0.00145165
0.000981772
0.00169849
0.00290836
0.00441479
0.00566341
0.0063466
0.00571695
0.0013429
0.00122342
0.00112746
0.00104266
0.000962427
0.000882811
0.000801059
0.000714352
0.000614422
0.000639222
0.000807372
0.00120516
0.000671214
0.00257264
0.0094162
0.00661718
0.00415493
0.00560318
0.00674424
0.00672119
0.00677433
0.00680331
0.00656646
0.00618986
0.00569517
0.00509978
0.0044566
0.00381813
0.00327115
0.00290382
0.00329525
0.00447138
0.00583775
0.00701769
0.00782831
0.00820883
0.00798657
0.00649829
0.00559114
0.00478268
0.00405215
0.00336597
0.00270432
0.00207302
0.00148357
0.000922803
0.0007668
0.000886941
0.00132646
0.00103462
0.000764899
0.000702524
0.000604697
0.00274272
0.00944377
0.00580673
0.00367533
0.00561471
0.00710028
0.0071448
0.0072659
0.00728882
0.00703924
0.00673876
0.00640622
0.00601471
0.00564326
0.00535028
0.00527979
0.00557951
0.00662956
0.00783031
0.00877782
0.00939688
0.0096836
0.00966857
0.00932502
0.00851999
0.00745948
0.00634031
0.00524339
0.00418561
0.00313015
0.00221858
0.00153711
0.00112146
0.00109722
0.00122021
0.00146633
0.00135965
0.00109938
0.000925014
0.000589193
0.00280872
0.0089398
0.00474759
0.00326729
0.00556059
0.00731846
0.00737753
0.00752223
0.00762321
0.00749507
0.0073622
0.00725733
0.00717529
0.0071542
0.00727016
0.00763611
0.00832557
0.00931456
0.0100783
0.0105115
0.0106395
0.0105032
0.0101489
0.00954239
0.00863929
0.00754182
0.00635742
0.00516617
0.00402651
0.00299968
0.00220742
0.00173259
0.00156984
0.00160891
0.00161849
0.00152122
0.00139438
0.00108927
0.000938708
0.000547592
0.00270718
0.00698178
0.00362763
0.00304617
0.00531174
0.00735119
0.00757947
0.00765097
0.00759177
0.00752534
0.00756164
0.00767581
0.0078566
0.00812453
0.00851671
0.00906623
0.00974727
0.0103851
0.0107303
0.0107506
0.0104896
0.00998066
0.0092952
0.00850244
0.00760632
0.00662371
0.00559314
0.00457686
0.00365263
0.0029062
0.00241896
0.00221193
0.00220904
0.00223846
0.00211625
0.00182412
0.00146649
0.00111328
0.000888225
0.000518264
0.00254113
0.00249222
0.00201674
0.00269917
0.00525716
0.00744112
0.00786639
0.00767832
0.00747531
0.00747822
0.00761756
0.00782965
0.00809708
0.00842294
0.00880972
0.00923647
0.00963051
0.00985286
0.00979444
0.00944491
0.00886254
0.00815555
0.00740285
0.00665319
0.00592368
0.00521799
0.00455166
0.00396442
0.00351029
0.003239
0.00317479
0.00328834
0.00347654
0.00356976
0.00340982
0.00294943
0.00228051
0.00163031
0.00111433
0.000550584
0.000702375
0.00327759
0.00644398
0.00801386
0.00797813
0.00784478
0.00788334
0.00803471
0.00821526
0.00839287
0.00856136
0.00871967
0.0088599
0.00895763
0.00896824
0.00884065
0.0085609
0.00816297
0.00770129
0.00722428
0.0067627
0.00633215
0.00593959
0.00559271
0.00530626
0.00510239
0.00500521
0.00503264
0.00518502
0.00542922
0.00568562
0.00583377
0.00574751
0.00533357
0.00457518
0.00359833
0.00258612
0.000917592
0.00276231
0.00860916
0.00903653
0.00834199
0.00802749
0.00809054
0.00832085
0.00856355
0.00875839
0.00889541
0.00898115
0.00902415
0.00903023
0.00900071
0.00893173
0.00881689
0.00865414
0.00845152
0.00822446
0.00798771
0.00775164
0.00752455
0.00731565
0.00713701
0.00700317
0.00693043
0.00693533
0.00703142
0.00722225
0.00748976
0.00778101
0.00800284
0.00803557
0.00776453
0.00713601
0.00621681
0.0050888
0.00167871
0.0017755
0.00190835
0.00210322
0.00220369
0.0021715
0.00212649
0.00210397
0.00210284
0.00210774
0.00211261
0.00211622
0.00211881
0.00212094
0.00212291
0.00212447
0.00212459
0.00212169
0.00211442
0.00210277
0.00208795
0.00207163
0.00205524
0.00203991
0.00202653
0.00201593
0.00200898
0.0020067
0.00201016
0.0020203
0.00203753
0.00206097
0.0020875
0.00211114
0.00212384
0.00211848
0.00209224
0.00204697
0.00198538
0.00190652
0.00162105
)
;

boundaryField
{
    floor
    {
        type            compressible::alphatWallFunction;
        Prt             0.85;
        value           nonuniform List<scalar> 
29
(
0.000154295
9.67015e-05
0.000125076
0.00014345
0.000145054
0.000142497
0.000137264
0.000129393
0.00012137
0.000114025
0.000107471
0.00010165
9.64626e-05
9.17778e-05
8.75325e-05
8.35408e-05
7.95457e-05
7.51856e-05
6.86954e-05
6.22981e-05
6.22974e-05
7.31165e-05
8.1959e-05
9.53129e-05
0.000154293
9.67004e-05
0.00013486
0.000133343
0.000140045
)
;
    }
    ceiling
    {
        type            compressible::alphatWallFunction;
        Prt             0.85;
        value           nonuniform List<scalar> 
43
(
0.000248121
0.000265587
0.000290973
0.000303969
0.000299824
0.000294013
0.000291102
0.000290958
0.000291594
0.000292226
0.000292694
0.00029303
0.000293306
0.000293562
0.000293764
0.000293779
0.000293403
0.000292461
0.00029095
0.000289029
0.00028691
0.00028478
0.000282787
0.000281046
0.000279664
0.000278759
0.000278461
0.00027891
0.00028023
0.00028247
0.000285514
0.000288957
0.000292021
0.000293665
0.000292971
0.000289572
0.000283702
0.000275698
0.000265392
0.000227582
0.000346999
0.000340759
0.000375047
)
;
    }
    sWall
    {
        type            compressible::alphatWallFunction;
        Prt             0.85;
        value           uniform 0.000247743;
    }
    nWall
    {
        type            compressible::alphatWallFunction;
        Prt             0.85;
        value           nonuniform List<scalar> 6(8.51589e-05 8.28321e-05 7.65525e-05 0.000130706 0.00023488 0.000227298);
    }
    sideWalls
    {
        type            empty;
    }
    glass1
    {
        type            compressible::alphatWallFunction;
        Prt             0.85;
        value           nonuniform List<scalar> 9(0.000195979 0.000243926 0.000283176 0.000318897 0.000349041 0.000370481 0.000378771 0.000366055 0.000345136);
    }
    glass2
    {
        type            compressible::alphatWallFunction;
        Prt             0.85;
        value           nonuniform List<scalar> 2(7.2076e-05 7.70787e-05);
    }
    sun
    {
        type            compressible::alphatWallFunction;
        Prt             0.85;
        value           nonuniform List<scalar> 
14
(
0.000197442
0.00023683
0.00026805
0.000268809
0.00025958
0.000248301
0.00023706
0.000226604
0.000216795
0.000207949
0.000199376
0.000190491
0.000180631
0.000168718
)
;
    }
    heatsource1
    {
        type            compressible::alphatWallFunction;
        Prt             0.85;
        value           nonuniform List<scalar> 3(0.000108808 9.96905e-05 8.51853e-05);
    }
    heatsource2
    {
        type            compressible::alphatWallFunction;
        Prt             0.85;
        value           nonuniform List<scalar> 4(0.00015175 0.00013285 0.000132849 0.000135687);
    }
    Table_master
    {
        type            compressible::alphatWallFunction;
        Prt             0.85;
        value           nonuniform List<scalar> 9(0.000171435 0.000150949 0.000134217 0.000120553 0.000109301 9.99342e-05 9.20825e-05 8.57838e-05 8.13245e-05);
    }
    Table_slave
    {
        type            compressible::alphatWallFunction;
        Prt             0.85;
        value           nonuniform List<scalar> 9(0.00018989 0.000173535 0.000160268 0.000148437 0.000137138 0.000125817 0.000114065 0.000101443 8.66612e-05);
    }
    inlet
    {
        type            fixedValue;
        value           uniform 1.94e-05;
    }
    outlet
    {
        type            zeroGradient;
    }
}


// ************************************************************************* //
