/*--------------------------------*- C++ -*----------------------------------*\
  =========                 |
  \\      /  F ield         | OpenFOAM: The Open Source CFD Toolbox
   \\    /   O peration     | Website:  https://openfoam.org
    \\  /    A nd           | Version:  6
     \\/     M anipulation  |
\*---------------------------------------------------------------------------*/
FoamFile
{
    version     2.0;
    format      ascii;
    class       volScalarField;
    location    "190";
    object      nut;
}
// * * * * * * * * * * * * * * * * * * * * * * * * * * * * * * * * * * * * * //

dimensions      [0 2 -1 0 0 0 0];

internalField   nonuniform List<scalar> 
459
(
0.00111834
0.00124984
0.00131283
0.00139383
0.00147717
0.00156312
0.00163216
0.00167498
0.00168497
0.00159589
0.00149991
0.00138824
0.00125657
0.00113675
0.00101029
0.000602227
0.000749021
0.000826107
0.000896793
0.00090247
0.000880322
0.000821845
0.000759671
0.000704711
0.000657591
0.000617112
0.000582086
0.000551317
0.000524026
0.00049884
0.00047405
0.000448159
0.000410761
0.000389409
0.0013992
0.00368922
0.00378031
0.00442388
0.00502978
0.00547315
0.00587769
0.0062424
0.00656453
0.00669174
0.00647619
0.00606581
0.00542174
0.00425067
0.00277871
0.0011631
0.000984077
0.000883057
0.0024958
0.00255436
0.00292387
0.00326879
0.00326126
0.00226446
0.00186559
0.0016081
0.00142391
0.00128609
0.00117997
0.00109796
0.0010175
0.000924171
0.000831493
0.000802004
0.000737424
0.000483674
0.00163104
0.00509245
0.00479323
0.00531991
0.00562667
0.00584884
0.0060983
0.00649684
0.00705371
0.00748528
0.00761078
0.00747692
0.00710336
0.00627802
0.00493186
0.00308153
0.00111026
0.00100107
0.00313625
0.00284245
0.00331294
0.00392274
0.00388684
0.00110316
0.000952539
0.000829372
0.000730517
0.000651097
0.000586868
0.000534662
0.000494384
0.000467492
0.000541165
0.000711553
0.000913439
0.00055676
0.00185252
0.00622912
0.00514548
0.00553933
0.00555587
0.00553925
0.00561836
0.00604583
0.00674658
0.00735115
0.00769268
0.00775697
0.00759486
0.0071383
0.0062391
0.00474847
0.0024426
0.00118853
0.00155233
0.00210435
0.00306878
0.00417237
0.00502529
0.00489391
0.00123108
0.00112331
0.0010384
0.000968873
0.000907924
0.000850268
0.000792468
0.000731718
0.000663661
0.000590009
0.00067678
0.00107558
0.000643967
0.00208077
0.00757897
0.00576085
0.00591424
0.00570674
0.00539828
0.00533465
0.00579379
0.0065527
0.00726631
0.00770234
0.00782911
0.00773091
0.00745205
0.00691608
0.0059769
0.00450843
0.00357128
0.00380787
0.00454902
0.00550836
0.00636222
0.00691485
0.00697866
0.0059759
0.0053427
0.00489841
0.00445525
0.00396784
0.00344866
0.00290238
0.00232828
0.00173073
0.00118997
0.000927333
0.00110926
0.000913209
0.000704996
0.00079844
0.0012317
0.00232442
0.0091003
0.00734972
0.00678929
0.00604938
0.00538938
0.00525712
0.00576249
0.00662109
0.00742651
0.00790664
0.00802553
0.00791496
0.00772317
0.00747431
0.00707532
0.00650988
0.00640082
0.00695146
0.00760201
0.00814893
0.00849186
0.0085936
0.00843642
0.00798956
0.00747169
0.00689921
0.00625048
0.0055386
0.00477735
0.00398302
0.00316904
0.00236408
0.00166549
0.00124692
0.00114555
0.00105613
0.00112919
0.00166976
0.00163341
0.00252443
0.0100628
0.00931631
0.00769504
0.00619226
0.00527449
0.00522316
0.00591842
0.00695497
0.00786715
0.00837383
0.00847448
0.00838689
0.00834475
0.0083487
0.00834646
0.00838355
0.00871425
0.0092385
0.0096249
0.00978215
0.00972382
0.00947844
0.00908054
0.00857005
0.00799487
0.00735907
0.0066579
0.00589316
0.00507584
0.00424765
0.0034308
0.00266358
0.00201216
0.00157283
0.00131749
0.00115185
0.0015549
0.00300587
0.00221553
0.00256301
0.00841113
0.00782208
0.00635341
0.00514202
0.00471044
0.00518961
0.00632766
0.00762506
0.00861788
0.00910628
0.00919487
0.00920298
0.00920626
0.00920791
0.00931326
0.00954918
0.00989743
0.0102013
0.0103045
0.0101597
0.00981122
0.00929826
0.00865717
0.00798251
0.00732889
0.00668043
0.0060151
0.00532798
0.0046345
0.00396839
0.00336068
0.00283827
0.00241917
0.00209633
0.00182643
0.0014696
0.00202412
0.00551366
0.00306874
0.00250102
0.00293721
0.00304958
0.00297653
0.00315046
0.00402938
0.00557947
0.00733702
0.00877872
0.00961816
0.00993694
0.00988467
0.00953985
0.0092597
0.00918864
0.00931045
0.00953675
0.00973558
0.00977773
0.00959801
0.0092061
0.00864151
0.00797304
0.0072935
0.00666529
0.00611284
0.00562435
0.00518431
0.0047917
0.00445723
0.00419191
0.00399415
0.00384429
0.00370193
0.00350776
0.00320339
0.00271584
0.00328969
0.00759945
0.0034759
0.000713656
0.00156177
0.00365757
0.00607563
0.00817619
0.00955124
0.0101809
0.0101948
0.00978576
0.00932645
0.00899934
0.00884305
0.00883159
0.00889635
0.00895343
0.00891776
0.00874448
0.00844271
0.00805653
0.00763845
0.00723283
0.00687172
0.00657069
0.00633041
0.00614551
0.00601325
0.00593483
0.00591116
0.00593692
0.00599434
0.00604734
0.00603648
0.00588087
0.0055022
0.00498074
0.005384
0.00820523
0.00297914
0.00168093
0.00670525
0.00868526
0.0100496
0.0107769
0.0108336
0.0102756
0.00956732
0.00900177
0.00864784
0.00846697
0.00839541
0.0083864
0.00840751
0.0084299
0.00842447
0.00837095
0.00826761
0.0081269
0.00796779
0.00780978
0.00766765
0.00754985
0.00746102
0.00740459
0.00738444
0.00740433
0.00746567
0.00756401
0.00768348
0.00778686
0.00780168
0.00761992
0.00716444
0.00655562
0.00628543
0.00630941
0.00250321
0.00156122
0.00172571
0.00193154
0.00220261
0.00232447
0.00235913
0.00231638
0.00223535
0.00215062
0.00207028
0.00201795
0.00199028
0.00197953
0.00198001
0.00198721
0.00199717
0.00200602
0.00201047
0.00200908
0.00200243
0.0019925
0.00198156
0.00197143
0.00196328
0.00195775
0.00195518
0.00195573
0.00195952
0.00196651
0.00197625
0.00198753
0.00199772
0.0020021
0.0019948
0.00197643
0.0019714
0.00202555
0.00215175
0.00226195
0.00206656
)
;

boundaryField
{
    floor
    {
        type            nutkWallFunction;
        Cmu             0.09;
        kappa           0.41;
        E               9.8;
        value           nonuniform List<scalar> 
29
(
0.000121939
7.26239e-05
9.07162e-05
0.000100045
0.000108509
0.000109186
0.000106545
9.9533e-05
9.20133e-05
8.53055e-05
7.95049e-05
7.4482e-05
7.01037e-05
6.62311e-05
6.2774e-05
5.9564e-05
5.63848e-05
5.3042e-05
4.81705e-05
4.53628e-05
4.53627e-05
5.76159e-05
6.69114e-05
7.78119e-05
0.000121939
7.26239e-05
0.000106868
0.000120855
0.000142688
)
;
    }
    ceiling
    {
        type            nutkWallFunction;
        Cmu             0.09;
        kappa           0.41;
        E               9.8;
        value           nonuniform List<scalar> 
43
(
0.000185032
0.000203347
0.000226004
0.00025547
0.000268598
0.000272323
0.000267745
0.000259034
0.000249888
0.00024118
0.00023549
0.000232475
0.000231304
0.000231358
0.000232146
0.000233235
0.000234201
0.000234688
0.000234537
0.000233812
0.00023273
0.000231536
0.00023043
0.000229539
0.000228935
0.000228652
0.000228712
0.000229126
0.00022989
0.000230954
0.000232185
0.000233296
0.000233773
0.000232976
0.00023097
0.000230421
0.000236327
0.000250028
0.000261923
0.000240792
0.000287471
0.000333512
0.000198321
)
;
    }
    sWall
    {
        type            nutkWallFunction;
        Cmu             0.09;
        kappa           0.41;
        E               9.8;
        value           uniform 0.000185073;
    }
    nWall
    {
        type            nutkWallFunction;
        Cmu             0.09;
        kappa           0.41;
        E               9.8;
        value           nonuniform List<scalar> 6(0.000147685 0.000193127 0.000256904 0.000337962 0.000287742 0.000240783);
    }
    sideWalls
    {
        type            empty;
    }
    glass1
    {
        type            nutkWallFunction;
        Cmu             0.09;
        kappa           0.41;
        E               9.8;
        value           nonuniform List<scalar> 9(0.000134643 0.000166908 0.000192991 0.000217531 0.000242488 0.000268809 0.000290195 0.000294304 0.000287712);
    }
    glass2
    {
        type            nutkWallFunction;
        Cmu             0.09;
        kappa           0.41;
        E               9.8;
        value           nonuniform List<scalar> 2(0.000347091 0.00038926);
    }
    sun
    {
        type            nutkWallFunction;
        Cmu             0.09;
        kappa           0.41;
        E               9.8;
        value           nonuniform List<scalar> 
14
(
0.000134565
0.000149745
0.000156954
0.000166166
0.000175583
0.000185235
0.000192944
0.000197707
0.000198816
0.000188895
0.00017814
0.000165532
0.000150518
0.000136702
)
;
    }
    heatsource1
    {
        type            nutkWallFunction;
        Cmu             0.09;
        kappa           0.41;
        E               9.8;
        value           nonuniform List<scalar> 3(8.53319e-05 9.67084e-05 0.000147703);
    }
    heatsource2
    {
        type            nutkWallFunction;
        Cmu             0.09;
        kappa           0.41;
        E               9.8;
        value           nonuniform List<scalar> 4(0.000139761 0.000118858 0.000118858 0.000133631);
    }
    Table_master
    {
        type            nutkWallFunction;
        Cmu             0.09;
        kappa           0.41;
        E               9.8;
        value           nonuniform List<scalar> 9(0.000132814 0.000115136 0.00010044 8.84599e-05 7.86947e-05 7.06923e-05 6.4109e-05 5.89757e-05 5.55198e-05);
    }
    Table_slave
    {
        type            nutkWallFunction;
        Cmu             0.09;
        kappa           0.41;
        E               9.8;
        value           nonuniform List<scalar> 9(0.000147613 0.000135159 0.000125252 0.000117069 0.000109841 0.000102951 9.59886e-05 8.86056e-05 8.0247e-05);
    }
    inlet
    {
        type            calculated;
        value           uniform 0.000100623;
    }
    outlet
    {
        type            calculated;
        value           nonuniform List<scalar> 2(0.00156122 0.00172571);
    }
}


// ************************************************************************* //
