/*--------------------------------*- C++ -*----------------------------------*\
  =========                 |
  \\      /  F ield         | OpenFOAM: The Open Source CFD Toolbox
   \\    /   O peration     | Website:  https://openfoam.org
    \\  /    A nd           | Version:  6
     \\/     M anipulation  |
\*---------------------------------------------------------------------------*/
FoamFile
{
    version     2.0;
    format      ascii;
    class       volScalarField;
    location    "400";
    object      epsilon;
}
// * * * * * * * * * * * * * * * * * * * * * * * * * * * * * * * * * * * * * //

dimensions      [0 2 -3 0 0 0 0];

internalField   nonuniform List<scalar> 
459
(
0.000163468
0.000183034
8.96993e-05
7.16743e-05
7.14743e-05
7.38562e-05
7.72161e-05
8.12656e-05
8.58568e-05
9.07999e-05
9.57474e-05
0.000100149
0.000103301
0.000104082
9.92242e-05
2.21006e-05
1.67403e-05
1.65214e-05
1.67451e-05
1.47359e-05
1.33285e-05
1.16364e-05
1.14978e-05
1.22898e-05
1.36546e-05
1.48224e-05
1.49142e-05
1.43604e-05
1.34757e-05
1.22542e-05
1.08645e-05
9.36034e-06
7.96288e-06
6.0028e-06
0.000990775
0.00204666
0.000263086
7.25124e-05
5.28711e-05
5.15245e-05
5.37383e-05
5.74178e-05
6.2175e-05
6.79956e-05
7.49704e-05
8.31413e-05
9.2193e-05
0.000101031
0.000110232
0.000145918
5.05427e-05
5.60436e-05
4.29427e-05
3.25004e-05
2.90783e-05
2.5209e-05
2.13222e-05
1.59377e-05
1.89162e-05
2.47607e-05
3.06995e-05
3.42794e-05
3.46848e-05
3.22798e-05
2.80473e-05
2.29541e-05
1.7594e-05
1.37337e-05
1.48942e-05
7.943e-06
0.00267081
0.00674561
0.00096761
0.00018433
8.59302e-05
6.81031e-05
6.51593e-05
6.72009e-05
7.18635e-05
7.8509e-05
8.70277e-05
9.74076e-05
0.000109403
0.000122239
0.000135404
0.000152845
0.000193639
0.000123608
8.15923e-05
6.19562e-05
5.12328e-05
4.10623e-05
3.05245e-05
1.41652e-05
1.56397e-05
1.82157e-05
2.05859e-05
2.24622e-05
2.38243e-05
2.47333e-05
2.65301e-05
3.12755e-05
2.23695e-05
2.14218e-05
2.64836e-05
3.72685e-05
0.00520961
0.0140216
0.00285775
0.00060165
0.000207421
0.000120163
9.46067e-05
8.81836e-05
8.95966e-05
9.52424e-05
0.000103814
0.000114677
0.000127212
0.000140656
0.00015485
0.00017247
0.000204959
0.000277716
9.96556e-05
7.60542e-05
6.88443e-05
6.83699e-05
7.31644e-05
8.48095e-05
0.0001089
0.000102541
9.707e-05
9.21916e-05
8.84216e-05
8.64119e-05
8.7079e-05
9.19474e-05
0.00010412
6.07616e-05
7.12828e-05
9.10178e-05
0.000131127
0.00831609
0.0223261
0.00628856
0.00183591
0.000681838
0.000297685
0.000172624
0.000132065
0.000120528
0.000121274
0.000128436
0.000139433
0.000152343
0.000164726
0.000173263
0.000174099
0.000164397
0.000142697
0.000111246
9.68505e-05
9.12186e-05
8.9254e-05
8.84184e-05
8.73819e-05
8.53711e-05
8.15206e-05
7.78624e-05
7.47566e-05
7.25633e-05
7.17545e-05
7.29421e-05
7.68642e-05
8.42462e-05
9.5376e-05
0.000115952
0.000146268
0.000187021
0.000250181
0.000202754
0.000121634
0.0118146
0.0283537
0.0118763
0.00464745
0.00217071
0.000939655
0.00043263
0.000240707
0.000180735
0.000163994
0.000165155
0.000175484
0.000191004
0.000208337
0.00022334
0.000230806
0.000225856
0.000207978
0.000185395
0.000168247
0.000157391
0.000150906
0.000146404
0.000142245
0.000137378
0.00013177
0.000126049
0.000120531
0.000115572
0.000111725
0.000109853
0.000111266
0.000117775
0.000131596
0.000155221
0.000190323
0.000235595
0.000282325
0.000304495
0.000138037
0.0150532
0.0281948
0.0200804
0.0113739
0.00600108
0.00288292
0.00129215
0.000567091
0.000320939
0.000244669
0.000225143
0.00022888
0.000245179
0.000268205
0.000292799
0.000312204
0.000319543
0.0003124
0.000296248
0.000279094
0.000265123
0.000254829
0.000247101
0.000240375
0.000233356
0.000225692
0.000217604
0.000209347
0.000201248
0.000193803
0.000187826
0.000184692
0.000186704
0.000197468
0.000221992
0.000266326
0.000339232
0.000455857
0.000618649
0.000659646
0.0141072
0.0271586
0.0383603
0.0257921
0.0138737
0.00645826
0.00287398
0.00132444
0.000687826
0.00043677
0.000347419
0.00032766
0.000338688
0.000364192
0.000397175
0.000428961
0.000451137
0.000458464
0.000452958
0.000440981
0.00042797
0.000416435
0.000406783
0.000398155
0.000389265
0.000379537
0.000369019
0.000357943
0.000346632
0.000335545
0.000325396
0.000317353
0.000313359
0.000316732
0.000333093
0.000370488
0.000443875
0.00061373
0.00100353
0.00099066
0.0118072
0.0213536
0.140047
0.0784574
0.0306696
0.0112784
0.00451015
0.00209851
0.00116365
0.000779202
0.000624192
0.000573244
0.000570598
0.000591282
0.000622826
0.000658328
0.000688874
0.000707999
0.000714222
0.000710692
0.000702239
0.000692021
0.000681628
0.00067125
0.00065983
0.000646932
0.000632736
0.000617559
0.000601701
0.00058545
0.0005692
0.000553673
0.000540259
0.000531571
0.000531955
0.000545778
0.000570298
0.00061582
0.00100574
0.0012055
0.394147
0.216383
0.0397316
0.0104753
0.00460989
0.00265689
0.00182189
0.00145385
0.0013069
0.00126519
0.00126897
0.00128765
0.00130756
0.00132305
0.00133412
0.00133992
0.00133908
0.00133156
0.00132052
0.00130671
0.00129106
0.00127418
0.00125432
0.00123169
0.00120735
0.00118225
0.00115702
0.00113193
0.00110706
0.00108247
0.0010585
0.00103614
0.00101714
0.00100262
0.000988852
0.000978086
0.00110946
0.00140338
0.222071
0.107169
0.033268
0.012934
0.00656574
0.0042099
0.00325873
0.002925
0.00288999
0.00297591
0.00307868
0.00314807
0.00317296
0.00316241
0.00312858
0.00308061
0.00302489
0.00296681
0.00290879
0.00285344
0.00280274
0.00275707
0.00271044
0.00266159
0.00261173
0.00256224
0.0025137
0.00246567
0.00241693
0.0023659
0.0023113
0.00225283
0.00219096
0.00212416
0.00204591
0.00193029
0.0022436
0.00183632
0.000990355
0.00248873
0.0606296
0.0434578
0.0251554
0.0145831
0.00897244
0.00592797
0.00420704
0.00321668
0.0026599
0.00236878
0.00223219
0.00217693
0.00215727
0.00214801
0.00213762
0.00212182
0.00209953
0.00207106
0.00203775
0.00200061
0.0019607
0.00191892
0.0018792
0.00183918
0.00179753
0.00175395
0.00170848
0.0016611
0.00161136
0.00155836
0.00150077
0.00143691
0.00136477
0.00128134
0.00118114
0.00105384
0.000948443
0.00069464
)
;

boundaryField
{
    floor
    {
        Cmu             0.09;
        kappa           0.41;
        E               9.8;
        type            epsilonWallFunction;
        value           nonuniform List<scalar> 
29
(
9.92242e-05
2.21006e-05
1.67403e-05
1.65214e-05
1.67451e-05
1.47359e-05
1.33285e-05
1.16364e-05
1.14978e-05
1.22898e-05
1.36546e-05
1.48224e-05
1.49142e-05
1.43604e-05
1.34757e-05
1.22542e-05
1.08645e-05
9.36034e-06
7.96288e-06
6.0028e-06
6.0028e-06
7.943e-06
3.72685e-05
0.000131127
9.92242e-05
2.21006e-05
5.60436e-05
0.000123608
0.000277716
)
;
    }
    ceiling
    {
        Cmu             0.09;
        kappa           0.41;
        E               9.8;
        type            epsilonWallFunction;
        value           nonuniform List<scalar> 
43
(
0.000990355
0.00248873
0.0606296
0.0434578
0.0251554
0.0145831
0.00897244
0.00592797
0.00420704
0.00321668
0.0026599
0.00236878
0.00223219
0.00217693
0.00215727
0.00214801
0.00213762
0.00212182
0.00209953
0.00207106
0.00203775
0.00200061
0.0019607
0.00191892
0.0018792
0.00183918
0.00179753
0.00175395
0.00170848
0.0016611
0.00161136
0.00155836
0.00150077
0.00143691
0.00136477
0.00128134
0.00118114
0.00105384
0.000948443
0.00069464
0.0118072
0.0213536
0.222071
)
;
    }
    sWall
    {
        Cmu             0.09;
        kappa           0.41;
        E               9.8;
        type            epsilonWallFunction;
        value           uniform 0.000990355;
    }
    nWall
    {
        Cmu             0.09;
        kappa           0.41;
        E               9.8;
        type            epsilonWallFunction;
        value           nonuniform List<scalar> 6(0.000121634 0.000138037 0.000659646 0.00140338 0.00183632 0.00069464);
    }
    sideWalls
    {
        type            empty;
    }
    glass1
    {
        Cmu             0.09;
        kappa           0.41;
        E               9.8;
        type            epsilonWallFunction;
        value           nonuniform List<scalar> 9(0.000163468 0.000990775 0.00267081 0.00520961 0.00831609 0.0118146 0.0150532 0.0141072 0.0118072);
    }
    glass2
    {
        Cmu             0.09;
        kappa           0.41;
        E               9.8;
        type            epsilonWallFunction;
        value           nonuniform List<scalar> 2(0.00099066 0.0012055);
    }
    sun
    {
        Cmu             0.09;
        kappa           0.41;
        E               9.8;
        type            epsilonWallFunction;
        value           nonuniform List<scalar> 
14
(
0.000163468
0.000183034
8.96993e-05
7.16743e-05
7.14743e-05
7.38562e-05
7.72161e-05
8.12656e-05
8.58568e-05
9.07999e-05
9.57474e-05
0.000100149
0.000103301
0.000104082
)
;
    }
    heatsource1
    {
        Cmu             0.09;
        kappa           0.41;
        E               9.8;
        type            epsilonWallFunction;
        value           nonuniform List<scalar> 3(0.000250181 0.000202754 0.000121634);
    }
    heatsource2
    {
        Cmu             0.09;
        kappa           0.41;
        E               9.8;
        type            epsilonWallFunction;
        value           nonuniform List<scalar> 4(0.000145918 5.05427e-05 5.05427e-05 0.000193639);
    }
    Table_master
    {
        Cmu             0.09;
        kappa           0.41;
        E               9.8;
        type            epsilonWallFunction;
        value           nonuniform List<scalar> 9(1.41652e-05 1.56397e-05 1.82157e-05 2.05859e-05 2.24622e-05 2.38243e-05 2.47333e-05 2.65301e-05 3.12755e-05);
    }
    Table_slave
    {
        Cmu             0.09;
        kappa           0.41;
        E               9.8;
        type            epsilonWallFunction;
        value           nonuniform List<scalar> 9(0.0001089 0.000102541 9.707e-05 9.21916e-05 8.84216e-05 8.64119e-05 8.7079e-05 9.19474e-05 0.00010412);
    }
    inlet
    {
        type            turbulentMixingLengthDissipationRateInlet;
        mixingLength    0.01;
        phi             phi;
        k               k;
        value           uniform 0.394147;
    }
    outlet
    {
        type            zeroGradient;
    }
}


// ************************************************************************* //
