/*--------------------------------*- C++ -*----------------------------------*\
  =========                 |
  \\      /  F ield         | OpenFOAM: The Open Source CFD Toolbox
   \\    /   O peration     | Website:  https://openfoam.org
    \\  /    A nd           | Version:  6
     \\/     M anipulation  |
\*---------------------------------------------------------------------------*/
FoamFile
{
    version     2.0;
    format      ascii;
    class       volScalarField;
    location    "330";
    object      alphat;
}
// * * * * * * * * * * * * * * * * * * * * * * * * * * * * * * * * * * * * * //

dimensions      [1 -1 -1 0 0 0 0];

internalField   nonuniform List<scalar> 
459
(
0.00218088
0.00245327
0.00240316
0.00224644
0.00207602
0.00192138
0.00178744
0.00166801
0.00155924
0.00145819
0.00136222
0.00126845
0.00117306
0.00106894
0.000956827
0.000738484
0.000974507
0.000902744
0.000831808
0.000769377
0.000712421
0.000660733
0.000615796
0.000576718
0.000542628
0.000512717
0.000486273
0.000462643
0.000440867
0.000419849
0.00039825
0.000378388
0.000368223
0.000470193
0.00257248
0.00777053
0.00681876
0.005998
0.00539262
0.00493497
0.00452771
0.00415829
0.00381003
0.00346817
0.00311629
0.00273725
0.00231795
0.0018493
0.00138087
0.000914898
0.00078583
0.000961758
0.00302126
0.00251569
0.00247192
0.00240935
0.00224558
0.00185734
0.00159549
0.00140754
0.00126527
0.00115392
0.00106343
0.000976476
0.000885044
0.000787319
0.000702255
0.000746128
0.000814244
0.000608303
0.00272209
0.00972218
0.00745643
0.00614203
0.00548964
0.00518658
0.00498963
0.00479915
0.00456907
0.00427898
0.003918
0.00348134
0.00297468
0.00241628
0.00185875
0.00133668
0.000793174
0.000931215
0.0024775
0.00285354
0.00312388
0.00317258
0.00282201
0.000827182
0.000715803
0.000630537
0.000563933
0.000510967
0.000468352
0.000435096
0.000410565
0.000395364
0.00047
0.000698729
0.00106707
0.000718779
0.00270783
0.00955832
0.0067206
0.00518409
0.00480196
0.00491108
0.00500373
0.0049869
0.00485756
0.00461965
0.00427904
0.00384488
0.00333797
0.00278915
0.00223495
0.00170273
0.0011958
0.000833794
0.00185273
0.00265648
0.0033715
0.00377412
0.00386042
0.00338849
0.000907807
0.000811196
0.000730674
0.000660002
0.000595282
0.000533603
0.000472119
0.000408248
0.00034399
0.000590942
0.00071384
0.00137262
0.000853314
0.0026631
0.00804007
0.00553816
0.00454012
0.00477067
0.00503184
0.00511892
0.00511687
0.00501721
0.00481891
0.00452788
0.00414702
0.00370577
0.00324927
0.0028026
0.00243365
0.00223698
0.00278433
0.00366624
0.00439244
0.0047768
0.00487388
0.00478437
0.00448024
0.00347632
0.00288365
0.00241011
0.00199464
0.00161909
0.00128138
0.000988234
0.000829141
0.000911213
0.00126035
0.00107882
0.00148312
0.00128967
0.000922241
0.00101382
0.00137888
0.00256926
0.00642326
0.00447707
0.00444057
0.00513222
0.00538021
0.00539989
0.0053669
0.00528166
0.00513924
0.00494386
0.00470647
0.00444745
0.00419875
0.00398193
0.00396304
0.0042394
0.00506516
0.00556925
0.00578617
0.00577021
0.00559456
0.00533992
0.00498408
0.00433885
0.00368803
0.00307548
0.00249868
0.00198064
0.00162686
0.0014823
0.00158872
0.00191448
0.00225977
0.00225896
0.0022291
0.00168402
0.00157741
0.00224287
0.00187258
0.00243182
0.00512297
0.00386107
0.00448823
0.00532427
0.00563224
0.00564885
0.00561474
0.00555674
0.00547651
0.00538271
0.00529166
0.00522373
0.00520676
0.00527311
0.00548313
0.00586167
0.00628594
0.00639866
0.00628307
0.00601321
0.00564976
0.0052199
0.00474627
0.00421433
0.00366669
0.00314117
0.00267836
0.00233546
0.00218242
0.00225059
0.00254096
0.00297792
0.00332164
0.00334138
0.00298224
0.00218479
0.00246813
0.00430207
0.00250705
0.00223341
0.00386812
0.00337022
0.00485756
0.00543134
0.00562169
0.00561799
0.00561056
0.00560577
0.0055958
0.00558622
0.00559417
0.00562974
0.00571281
0.00585564
0.00605336
0.00626428
0.00637412
0.00629294
0.00603987
0.00566487
0.00520197
0.00471801
0.00428111
0.00388376
0.00352392
0.00321972
0.00300485
0.00291921
0.00299846
0.00325836
0.00368355
0.00418685
0.00458575
0.00475248
0.00462432
0.00378966
0.00369406
0.00745482
0.0033824
0.0018725
0.00180636
0.00250733
0.00574049
0.00635949
0.00630349
0.0063065
0.00637277
0.00643694
0.00647363
0.00648243
0.0064841
0.0064851
0.00649791
0.00653284
0.00658523
0.00662756
0.00661127
0.00649914
0.0062916
0.00601337
0.00567391
0.00532518
0.00500889
0.00473425
0.00450805
0.00434464
0.00426631
0.00429914
0.00446654
0.00477825
0.00521325
0.00569326
0.00607686
0.00627398
0.00632382
0.00590196
0.00550678
0.00922587
0.00371543
0.00134515
0.00596948
0.00770062
0.00794513
0.00813423
0.0082758
0.00833944
0.00833687
0.0082763
0.00819037
0.00810153
0.00802663
0.00798043
0.00796874
0.00797607
0.00797173
0.00793349
0.0078476
0.00770398
0.00749143
0.00726042
0.00704354
0.00685102
0.00669161
0.00657841
0.00652958
0.00656643
0.00670823
0.00696181
0.00730453
0.00766514
0.00791357
0.00801695
0.00808752
0.00809241
0.00790722
0.00930577
0.00306911
0.00300129
0.00917203
0.00988324
0.0099788
0.0101193
0.0102376
0.010235
0.0101749
0.0100868
0.00998039
0.00986828
0.00976244
0.00967922
0.0096428
0.00966577
0.00970766
0.00973818
0.00972405
0.00961831
0.00944769
0.00927197
0.0091098
0.00896546
0.0088438
0.00875386
0.00870911
0.00872665
0.00882432
0.00901296
0.00928038
0.00956693
0.00974231
0.00974338
0.00969792
0.0095705
0.00907162
0.00749144
0.00254549
0.00151136
0.00125143
0.00196758
0.00248624
0.00254657
0.00251099
0.00248162
0.00246743
0.00245994
0.00244862
0.00243306
0.00241451
0.00239424
0.00237329
0.00235267
0.00233612
0.00232988
0.00232823
0.00232641
0.00232086
0.00231348
0.00230475
0.00229528
0.00228635
0.0022785
0.00227223
0.00226826
0.00226753
0.00227117
0.0022801
0.00229427
0.00231113
0.00232375
0.00232685
0.00232566
0.00232401
0.00233254
0.00237592
0.00238068
0.00212021
)
;

boundaryField
{
    floor
    {
        type            compressible::alphatWallFunction;
        Prt             0.85;
        value           nonuniform List<scalar> 
29
(
0.000136602
0.000105235
0.000139121
0.000128936
0.000118773
0.000109743
0.000101426
9.38088e-05
8.7127e-05
8.12672e-05
7.61149e-05
7.15606e-05
6.75062e-05
6.38596e-05
6.04778e-05
5.71932e-05
5.37956e-05
5.06501e-05
4.90326e-05
6.50293e-05
6.50285e-05
8.60163e-05
0.000102371
0.000121881
0.0001366
0.000105234
0.000137315
0.000132982
0.000119045
)
;
    }
    ceiling
    {
        type            compressible::alphatWallFunction;
        Prt             0.85;
        value           nonuniform List<scalar> 
43
(
0.000213489
0.000178165
0.000273705
0.000340446
0.000348063
0.000343508
0.000339748
0.000337923
0.000336953
0.000335498
0.000333503
0.000331126
0.000328528
0.00032584
0.000323193
0.000321065
0.000320262
0.000320048
0.000319814
0.000319102
0.000318156
0.000317036
0.000315819
0.000314671
0.000313662
0.000312856
0.000312345
0.000312251
0.000312718
0.000313864
0.000315684
0.000317847
0.000319464
0.00031986
0.000319705
0.000319494
0.000320586
0.00032614
0.00032675
0.000293237
0.000260841
0.00025213
0.000405195
)
;
    }
    sWall
    {
        type            compressible::alphatWallFunction;
        Prt             0.85;
        value           uniform 0.000213815;
    }
    nWall
    {
        type            compressible::alphatWallFunction;
        Prt             0.85;
        value           nonuniform List<scalar> 6(0.000195132 0.000260986 0.000342898 0.000413607 0.000347788 0.000293271);
    }
    sideWalls
    {
        type            empty;
    }
    glass1
    {
        type            compressible::alphatWallFunction;
        Prt             0.85;
        value           nonuniform List<scalar> 9(0.000302921 0.000353222 0.000372207 0.000370393 0.000364706 0.00035275 0.000335147 0.000309545 0.000262365);
    }
    glass2
    {
        type            compressible::alphatWallFunction;
        Prt             0.85;
        value           nonuniform List<scalar> 2(0.000454851 0.000495838);
    }
    sun
    {
        type            compressible::alphatWallFunction;
        Prt             0.85;
        value           nonuniform List<scalar> 
14
(
0.000301009
0.000335949
0.000329556
0.000309463
0.000287442
0.00026729
0.000249693
0.000233879
0.000219368
0.000205785
0.000192786
0.000179986
0.000166852
0.000152376
)
;
    }
    heatsource1
    {
        type            compressible::alphatWallFunction;
        Prt             0.85;
        value           nonuniform List<scalar> 3(0.00013142 0.000144369 0.00019476);
    }
    heatsource2
    {
        type            compressible::alphatWallFunction;
        Prt             0.85;
        value           nonuniform List<scalar> 4(0.000130373 0.000111841 0.00011184 0.000112903);
    }
    Table_master
    {
        type            compressible::alphatWallFunction;
        Prt             0.85;
        value           nonuniform List<scalar> 9(0.000117811 0.000101633 8.90426e-05 7.90628e-05 7.10221e-05 6.44768e-05 5.93166e-05 5.54779e-05 5.30846e-05);
    }
    Table_slave
    {
        type            compressible::alphatWallFunction;
        Prt             0.85;
        value           nonuniform List<scalar> 9(0.000129362 0.000115509 0.000103812 9.34174e-05 8.37788e-05 7.44719e-05 6.5059e-05 5.51138e-05 4.49037e-05);
    }
    inlet
    {
        type            fixedValue;
        value           uniform 1.94e-05;
    }
    outlet
    {
        type            zeroGradient;
    }
}


// ************************************************************************* //
