// -*- C++ -*-
// File generated by PyFoam - sorry for the ugliness

FoamFile
{
 version 2.0;
 format ascii;
 class volScalarField;
 location "90";
 object T;
}

dimensions [ 0 0 0 1 0 0 0 ];

internalField nonuniform List<scalar> 459
(
  302.402
  302.352
  302.399
  302.46
  302.504
  302.533
  302.551
  302.563
  302.574
  302.585
  302.596
  302.606
  302.615
  302.624
  302.63
  303.632
  303.527
  303.451
  303.454
  303.486
  303.518
  303.545
  303.568
  303.589
  303.609
  303.627
  303.645
  303.663
  303.68
  303.698
  303.717
  303.741
  303.776
  303.848
  302.432
  302.338
  302.411
  302.561
  302.67
  302.734
  302.77
  302.788
  302.8
  302.804
  302.802
  302.792
  302.772
  302.741
  302.7
  302.713
  302.737
  303.664
  303.417
  303.369
  303.399
  303.457
  303.513
  303.548
  303.579
  303.607
  303.633
  303.658
  303.681
  303.703
  303.724
  303.744
  303.763
  303.784
  303.814
  303.88
  302.341
  302.304
  302.429
  302.727
  302.923
  303.024
  303.068
  303.082
  303.076
  303.053
  303.021
  302.979
  302.929
  302.871
  302.808
  302.78
  302.772
  303.435
  303.247
  303.271
  303.361
  303.465
  303.553
  303.577
  303.605
  303.635
  303.663
  303.691
  303.717
  303.743
  303.769
  303.793
  303.816
  303.834
  303.854
  303.91
  302.285
  302.265
  302.46
  302.979
  303.264
  303.379
  303.404
  303.383
  303.333
  303.274
  303.21
  303.143
  303.072
  302.997
  302.918
  302.862
  302.823
  302.842
  302.925
  303.055
  303.225
  303.401
  303.56
  303.684
  303.781
  303.854
  303.916
  303.972
  304.024
  304.072
  304.116
  304.154
  304.183
  304.056
  303.97
  303.926
  303.947
  302.255
  302.232
  302.465
  303.257
  303.602
  303.689
  303.666
  303.598
  303.519
  303.441
  303.363
  303.285
  303.205
  303.124
  303.044
  302.982
  302.946
  302.983
  303.097
  303.262
  303.45
  303.636
  303.8
  303.932
  304.041
  304.121
  304.187
  304.238
  304.278
  304.307
  304.326
  304.332
  304.319
  304.223
  304.102
  304.015
  303.993
  304.051
  304.311
  305.122
  302.22
  302.193
  302.418
  303.419
  303.82
  303.882
  303.835
  303.756
  303.674
  303.594
  303.512
  303.435
  303.358
  303.283
  303.216
  303.174
  303.174
  303.26
  303.416
  303.6
  303.788
  303.963
  304.111
  304.227
  304.315
  304.383
  304.431
  304.465
  304.488
  304.5
  304.5
  304.484
  304.446
  304.351
  304.225
  304.123
  304.071
  304.121
  304.361
  305.018
  302.154
  302.099
  302.244
  303.429
  303.937
  304.024
  303.986
  303.917
  303.84
  303.768
  303.699
  303.633
  303.569
  303.514
  303.477
  303.477
  303.531
  303.66
  303.826
  304
  304.169
  304.317
  304.436
  304.524
  304.587
  304.63
  304.655
  304.67
  304.676
  304.671
  304.653
  304.618
  304.561
  304.461
  304.331
  304.227
  304.154
  304.204
  304.451
  305.048
  302.145
  301.99
  301.913
  303.338
  304.026
  304.166
  304.154
  304.106
  304.051
  303.994
  303.943
  303.898
  303.862
  303.84
  303.842
  303.884
  303.975
  304.113
  304.258
  304.403
  304.539
  304.652
  304.734
  304.789
  304.825
  304.841
  304.848
  304.846
  304.836
  304.814
  304.779
  304.726
  304.653
  304.553
  304.437
  304.332
  304.242
  304.305
  304.518
  304.807
  302.173
  302.026
  301.513
  303.174
  304.117
  304.315
  304.339
  304.323
  304.298
  304.272
  304.249
  304.231
  304.226
  304.238
  304.273
  304.337
  304.43
  304.543
  304.655
  304.76
  304.85
  304.921
  304.971
  305.002
  305.013
  305.014
  305.006
  304.991
  304.966
  304.93
  304.882
  304.819
  304.74
  304.648
  304.548
  304.455
  304.376
  304.452
  304.633
  304.843
  301.238
  302.979
  304.254
  304.482
  304.532
  304.543
  304.546
  304.549
  304.555
  304.568
  304.589
  304.623
  304.671
  304.735
  304.811
  304.89
  304.963
  305.027
  305.077
  305.113
  305.133
  305.141
  305.139
  305.129
  305.113
  305.09
  305.059
  305.02
  304.972
  304.916
  304.852
  304.783
  304.713
  304.652
  304.618
  304.677
  304.8
  304.934
  304.214
  304.391
  304.589
  304.673
  304.709
  304.73
  304.75
  304.772
  304.797
  304.827
  304.861
  304.901
  304.947
  304.998
  305.05
  305.098
  305.14
  305.172
  305.194
  305.207
  305.212
  305.21
  305.203
  305.19
  305.173
  305.151
  305.124
  305.092
  305.056
  305.017
  304.977
  304.937
  304.901
  304.874
  304.864
  304.896
  304.98
  305.041
  304.728
  304.724
  304.723
  304.759
  304.813
  304.85
  304.882
  304.912
  304.942
  304.973
  305.004
  305.036
  305.068
  305.1
  305.131
  305.161
  305.187
  305.209
  305.226
  305.237
  305.243
  305.245
  305.243
  305.237
  305.229
  305.218
  305.205
  305.189
  305.172
  305.154
  305.135
  305.116
  305.099
  305.084
  305.073
  305.067
  305.068
  305.087
  305.134
  305.16
)
;

boundaryField
{
  floor
  {
    type wallHeatTransfer;
    Tinf uniform 299.755;
    alphaWall uniform 0.24;
    value nonuniform List<scalar> 29
(
  302.264
  303.081
  303.066
  303.043
  303.063
  303.092
  303.115
  303.124
  303.126
  303.127
  303.127
  303.126
  303.126
  303.125
  303.125
  303.125
  303.125
  303.126
  303.127
  303.147
  303.147
  303.202
  303.238
  303.285
  302.264
  303.081
  303.152
  302.963
  302.46
)
;
  }
  ceiling
  {
    type wallHeatTransfer;
    Tinf uniform 299.755;
    alphaWall uniform 0.24;
    value nonuniform List<scalar> 43
(
  304.298
  304.317
  304.352
  304.407
  304.457
  304.491
  304.52
  304.547
  304.576
  304.605
  304.635
  304.666
  304.698
  304.729
  304.76
  304.788
  304.812
  304.831
  304.845
  304.853
  304.856
  304.855
  304.851
  304.844
  304.834
  304.821
  304.806
  304.788
  304.768
  304.745
  304.722
  304.698
  304.675
  304.655
  304.643
  304.64
  304.652
  304.685
  304.734
  304.71
  301.959
  301.814
  303.958
)
;
  }
  sWall
  {
    type wallHeatTransfer;
    Tinf uniform 303.161;
    alphaWall uniform 0.36;
    value uniform 304.533;
  }
  nWall
  {
    type wallHeatTransfer;
    Tinf uniform 303.145;
    alphaWall uniform 0.36;
    value nonuniform List<scalar> 6
(
  304.73
  304.674
  304.748
  304.75
  304.83
  304.918
)
;
  }
  sideWalls
  {
    type empty;
  }
  glass1
  {
    type wallHeatTransfer;
    Tinf uniform 303.161;
    alphaWall uniform 4.3;
    value nonuniform List<scalar> 9
(
  302.949
  302.963
  302.897
  302.856
  302.829
  302.804
  302.767
  302.772
  302.8
)
;
  }
  glass2
  {
    type wallHeatTransfer;
    Tinf uniform 303.145;
    alphaWall uniform 4.3;
    value nonuniform List<scalar> 2
(
  303.798
  303.88
)
;
  }
  sun
  {
    type wallHeatTransfer;
    Tinf uniform 299.755;
    alphaWall uniform 0.24;
    value nonuniform List<scalar> 14
(
  302.07
  302.092
  302.15
  302.203
  302.238
  302.258
  302.268
  302.272
  302.276
  302.279
  302.282
  302.283
  302.282
  302.277
)
;
  }
  heatsource1
  {
    type fixedGradient;
    gradient uniform 0;
  }
  heatsource2
  {
    type fixedGradient;
    gradient uniform 0;
  }
  Table_master
  {
    type zeroGradient;
  }
  Table_slave
  {
    type zeroGradient;
  }
  inlet
  {
    type fixedValue;
    value uniform 300.15;
  }
  outlet
  {
    type zeroGradient;
  }
} 	// ************************************************************************* //

