/*--------------------------------*- C++ -*----------------------------------*\
  =========                 |
  \\      /  F ield         | OpenFOAM: The Open Source CFD Toolbox
   \\    /   O peration     | Website:  https://openfoam.org
    \\  /    A nd           | Version:  6
     \\/     M anipulation  |
\*---------------------------------------------------------------------------*/
FoamFile
{
    version     2.0;
    format      ascii;
    class       volScalarField;
    location    "1000";
    object      nut;
}
// * * * * * * * * * * * * * * * * * * * * * * * * * * * * * * * * * * * * * //

dimensions      [0 2 -1 0 0 0 0];

internalField   nonuniform List<scalar> 
459
(
0.0017648
0.00236507
0.00234268
0.0022527
0.00216107
0.00207761
0.0020012
0.00193049
0.00186568
0.00180377
0.00174206
0.00167749
0.00160559
0.00151768
0.00140788
0.000555897
0.000666513
0.000757608
0.000862306
0.00092679
0.000947334
0.000879581
0.000805654
0.000740242
0.000681611
0.000627195
0.000575639
0.000524961
0.00047521
0.00042788
0.000384737
0.000347777
0.000312127
0.000346493
0.00224465
0.0036566
0.00413303
0.00415017
0.00405106
0.00396805
0.00390727
0.00385676
0.00377651
0.00365655
0.00348371
0.0032433
0.00291982
0.00249488
0.00196396
0.00139799
0.00125684
0.00060981
0.00138586
0.00180644
0.00231067
0.00280317
0.00299148
0.00198965
0.00160892
0.00138358
0.0012478
0.00114893
0.0010377
0.00092699
0.00082565
0.000740687
0.000690976
0.000714385
0.000629131
0.000426583
0.00272574
0.00472649
0.00484123
0.00457436
0.00443498
0.0044694
0.00459636
0.0047432
0.00482974
0.00480429
0.00463747
0.00432103
0.00386424
0.00328887
0.0026404
0.00201608
0.00128212
0.000696928
0.00211555
0.00192218
0.00228291
0.00295472
0.00331171
0.00111905
0.000957052
0.000806912
0.000682899
0.000592434
0.000534076
0.000493718
0.000463653
0.000441558
0.000492659
0.000625466
0.000704188
0.000471821
0.00287659
0.00603308
0.00533439
0.00462199
0.00459843
0.00501615
0.00557368
0.00594591
0.00604595
0.00591129
0.00559162
0.00512655
0.00454884
0.00388659
0.00317479
0.00247307
0.00168057
0.00123829
0.00111238
0.00122084
0.0016547
0.00247517
0.00347927
0.00405541
0.00132646
0.00124987
0.0011845
0.00112606
0.0010764
0.00102855
0.000977528
0.000919187
0.000847641
0.000691327
0.000630068
0.000737214
0.000529375
0.00295591
0.0067416
0.005125
0.00451608
0.00533769
0.0065555
0.00725042
0.00724855
0.00700905
0.00664406
0.00618046
0.00562513
0.00500138
0.0043293
0.00363538
0.00296184
0.00228844
0.0019121
0.00175271
0.00189613
0.00258668
0.00372703
0.00494039
0.00582811
0.0058395
0.00566983
0.00551014
0.00539036
0.00507925
0.00460668
0.00399905
0.00327361
0.00244964
0.00161621
0.0010831
0.000946461
0.000760815
0.000606306
0.000626876
0.000758128
0.00300788
0.00652537
0.00446525
0.00520788
0.00684491
0.00769869
0.00791701
0.00774648
0.00736996
0.00694042
0.00646835
0.00591322
0.00533008
0.00472385
0.00410743
0.00354062
0.00302637
0.00280453
0.00294863
0.00366972
0.00494465
0.00632497
0.0074226
0.00804592
0.00820203
0.00815634
0.00803488
0.00770328
0.00716255
0.00642265
0.00550748
0.00445443
0.00331795
0.00223953
0.00151021
0.00121984
0.00106176
0.00109764
0.00144046
0.000988766
0.00305402
0.00559702
0.00396335
0.00499413
0.00689282
0.0077586
0.00792544
0.00779678
0.00750384
0.00711104
0.00669266
0.00624992
0.00578712
0.00530833
0.00479141
0.00441712
0.0042246
0.00455907
0.00554411
0.00702353
0.00841496
0.0094324
0.00996528
0.0100474
0.00983116
0.00951682
0.00908862
0.00853103
0.00780939
0.00691441
0.00586809
0.00473346
0.00358434
0.00256664
0.00185151
0.00150292
0.00127753
0.00142929
0.00215946
0.00133957
0.00309192
0.00460524
0.00412376
0.00507448
0.00627765
0.00719834
0.0075055
0.0076114
0.00759692
0.00745289
0.00719757
0.0069075
0.00661825
0.00635436
0.00615327
0.00615552
0.00656536
0.0076224
0.00906416
0.010404
0.0111661
0.0114373
0.0112905
0.0108388
0.010201
0.00952826
0.00886411
0.00815387
0.00735647
0.00646318
0.00549658
0.00451169
0.00358188
0.00280387
0.00224496
0.00188092
0.00162604
0.00186728
0.00413549
0.00226998
0.00313349
0.00355103
0.00464797
0.00667552
0.00647888
0.00702452
0.0072973
0.00751569
0.00769742
0.00781691
0.00784407
0.0078093
0.00779772
0.00785857
0.00805367
0.0084761
0.00921887
0.0102391
0.011204
0.0117803
0.0118227
0.0114155
0.0107021
0.00984316
0.00898814
0.00820651
0.00748701
0.00678605
0.00607916
0.00537036
0.00468648
0.00406833
0.00355549
0.00317496
0.00292133
0.00275858
0.00266922
0.00316883
0.00629779
0.00263467
0.0045239
0.00807325
0.0074307
0.00751763
0.00769622
0.00793191
0.00818291
0.00842151
0.00862014
0.00875955
0.00892546
0.009168
0.00950765
0.0099426
0.010427
0.0108281
0.0109832
0.0108016
0.0103182
0.00965954
0.00895455
0.00829006
0.00770848
0.00720826
0.00676686
0.00636608
0.00600215
0.00568271
0.0054204
0.00522638
0.00510358
0.00504035
0.00500387
0.00494005
0.00482227
0.00509658
0.0070256
0.00235694
0.00277193
0.00789269
0.00829236
0.00814969
0.00815306
0.00822626
0.00830424
0.00836092
0.00838974
0.00839545
0.00843937
0.00856307
0.0087585
0.00899574
0.00921887
0.0093519
0.00933735
0.00917056
0.00889604
0.00857548
0.00825854
0.00797211
0.00772339
0.00750767
0.00731841
0.00715372
0.00701679
0.00691375
0.00685089
0.00683127
0.00684999
0.00688689
0.00689764
0.00681573
0.00660227
0.00635831
0.00573003
0.00204297
0.00102413
0.00145483
0.00193033
0.00201125
0.00197646
0.00194473
0.00193584
0.00193543
0.00193931
0.00194811
0.00196419
0.00199068
0.00202233
0.00205472
0.00208573
0.00211201
0.00212938
0.00213414
0.00212549
0.00210602
0.00208082
0.00205512
0.00203227
0.00201349
0.00199865
0.00198717
0.00197863
0.00197291
0.00197018
0.0019707
0.0019746
0.00198148
0.00199
0.00199763
0.00200237
0.00200864
0.00203049
0.00206799
0.0020418
0.00178006
)
;

boundaryField
{
    floor
    {
        type            nutkWallFunction;
        Cmu             0.09;
        kappa           0.41;
        E               9.8;
        value           nonuniform List<scalar> 
29
(
0.000167847
6.6711e-05
8.05388e-05
9.17162e-05
0.000104367
0.000112064
0.000114501
0.000106428
9.75367e-05
8.95871e-05
8.23874e-05
7.56379e-05
6.91761e-05
6.27565e-05
5.63838e-05
5.02506e-05
4.4593e-05
3.96896e-05
3.49004e-05
3.95713e-05
3.95712e-05
5.01723e-05
5.60449e-05
6.34141e-05
0.000167847
6.67109e-05
7.35173e-05
8.43506e-05
0.000148489
)
;
    }
    ceiling
    {
        type            nutkWallFunction;
        Cmu             0.09;
        kappa           0.41;
        E               9.8;
        value           nonuniform List<scalar> 
43
(
0.000123738
0.000173434
0.000226162
0.000235014
0.000231214
0.00022774
0.000226764
0.000226718
0.000227142
0.000228106
0.000229867
0.000232764
0.000236222
0.000239756
0.000243135
0.000245996
0.000247888
0.00024841
0.000247476
0.000245367
0.00024263
0.000239833
0.000237344
0.000235295
0.000233675
0.000232421
0.000231486
0.00023086
0.000230561
0.000230619
0.000231046
0.0002318
0.000232733
0.000233569
0.000234089
0.000234774
0.000237158
0.000241241
0.000238383
0.000209641
0.000354052
0.000397164
0.000316458
)
;
    }
    sWall
    {
        type            nutkWallFunction;
        Cmu             0.09;
        kappa           0.41;
        E               9.8;
        value           uniform 0.000123746;
    }
    nWall
    {
        type            nutkWallFunction;
        Cmu             0.09;
        kappa           0.41;
        E               9.8;
        value           nonuniform List<scalar> 6(9.18512e-05 0.00011951 0.000160258 0.000272482 0.000238517 0.000209648);
    }
    sideWalls
    {
        type            empty;
    }
    glass1
    {
        type            nutkWallFunction;
        Cmu             0.09;
        kappa           0.41;
        E               9.8;
        value           nonuniform List<scalar> 9(0.000207973 0.000260447 0.000311752 0.000327641 0.000335961 0.000341399 0.000346218 0.00035017 0.000354497);
    }
    glass2
    {
        type            nutkWallFunction;
        Cmu             0.09;
        kappa           0.41;
        E               9.8;
        value           nonuniform List<scalar> 2(0.00026307 0.000302048);
    }
    sun
    {
        type            nutkWallFunction;
        Cmu             0.09;
        kappa           0.41;
        E               9.8;
        value           nonuniform List<scalar> 
14
(
0.000207769
0.000273064
0.000270655
0.000260984
0.000251095
0.000242049
0.000233733
0.000226007
0.000218898
0.000212083
0.000205265
0.000198101
0.000190089
0.000180239
)
;
    }
    heatsource1
    {
        type            nutkWallFunction;
        Cmu             0.09;
        kappa           0.41;
        E               9.8;
        value           nonuniform List<scalar> 3(7.31101e-05 7.56857e-05 9.18502e-05);
    }
    heatsource2
    {
        type            nutkWallFunction;
        Cmu             0.09;
        kappa           0.41;
        E               9.8;
        value           nonuniform List<scalar> 4(0.000166731 0.000150624 0.000150624 0.000153523);
    }
    Table_master
    {
        type            nutkWallFunction;
        Cmu             0.09;
        kappa           0.41;
        E               9.8;
        value           nonuniform List<scalar> 9(0.000134671 0.000115654 9.76955e-05 8.25695e-05 7.13344e-05 6.39725e-05 5.88196e-05 5.49458e-05 5.20784e-05);
    }
    Table_slave
    {
        type            nutkWallFunction;
        Cmu             0.09;
        kappa           0.41;
        E               9.8;
        value           nonuniform List<scalar> 9(0.000158574 0.000149807 0.000142276 0.000135503 0.000129715 0.00012411 0.0001181 0.000111182 0.000102626);
    }
    inlet
    {
        type            calculated;
        value           uniform 0.000100623;
    }
    outlet
    {
        type            calculated;
        value           nonuniform List<scalar> 2(0.00102413 0.00145483);
    }
}


// ************************************************************************* //
