// -*- C++ -*-
// File generated by PyFoam - sorry for the ugliness

FoamFile
{
 version 2.0;
 format ascii;
 class volVectorField;
 location "1000";
 object U;
}

dimensions [ 0 1 -1 0 0 0 0 ];

internalField nonuniform List<vector> 459
(
  (0.0330478 0.0854146 0)
  (-0.166028 0.0256449 0)
  (-0.190553 0.0178318 0)
  (-0.221129 0.0123309 0)
  (-0.243445 0.00631773 0)
  (-0.256668 1.31031e-05 0)
  (-0.259472 -0.00663877 0)
  (-0.250639 -0.0136424 0)
  (-0.230824 -0.0205321 0)
  (-0.201465 -0.0262588 0)
  (-0.165533 -0.02998 0)
  (-0.126441 -0.0314272 0)
  (-0.087435 -0.0311266 0)
  (-0.0532762 -0.0307329 0)
  (-0.0376516 -0.031988 0)
  (-0.00258332 0.00739771 0)
  (-0.0222778 -0.0175031 0)
  (0.00144936 -0.0262089 0)
  (0.0223152 -0.0194377 0)
  (0.0380084 -0.0130534 0)
  (0.0496017 -0.00833389 0)
  (0.056447 -0.00499534 0)
  (0.0598591 -0.00324961 0)
  (0.0614061 -0.00249355 0)
  (0.0622166 -0.00213397 0)
  (0.0627329 -0.00190094 0)
  (0.0630061 -0.00170847 0)
  (0.0629682 -0.00147184 0)
  (0.0624122 -0.00102081 0)
  (0.0607691 3.43001e-05 0)
  (0.0568322 0.00223047 0)
  (0.049276 0.00462497 0)
  (0.041428 0.0067169 0)
  (-0.0103432 0.0203956 0)
  (0.205309 0.174503 0)
  (-0.154239 0.0670992 0)
  (-0.152524 0.0520993 0)
  (-0.183742 0.0406461 0)
  (-0.205532 0.0278343 0)
  (-0.218718 0.0136604 0)
  (-0.221961 -0.0021351 0)
  (-0.213842 -0.0191199 0)
  (-0.195541 -0.0351896 0)
  (-0.168867 -0.0478434 0)
  (-0.137021 -0.0552944 0)
  (-0.103413 -0.0570723 0)
  (-0.0712644 -0.0538557 0)
  (-0.0443288 -0.0472311 0)
  (-0.0272161 -0.0383743 0)
  (-0.0136351 -0.0188289 0)
  (-0.00717195 0.0132607 0)
  (0.0600634 0.0312375 0)
  (0.0315718 -0.0198629 0)
  (0.0385866 -0.0305553 0)
  (0.0493465 -0.0258907 0)
  (0.0577704 -0.0178089 0)
  (0.0633389 -0.010433 0)
  (0.0655322 -0.00429793 0)
  (0.0658403 -0.000896952 0)
  (0.0657502 0.000559121 0)
  (0.0658307 0.00122506 0)
  (0.0659928 0.00164727 0)
  (0.0661074 0.00201767 0)
  (0.0661342 0.0024995 0)
  (0.06602 0.00342877 0)
  (0.0652322 0.00572203 0)
  (0.0613481 0.0120436 0)
  (0.0515805 0.0174519 0)
  (0.0452038 0.0213464 0)
  (-0.0437674 0.0440447 0)
  (0.363106 0.26074 0)
  (-0.169936 0.106402 0)
  (-0.113942 0.0838349 0)
  (-0.143702 0.0634666 0)
  (-0.162652 0.0424517 0)
  (-0.174467 0.0195295 0)
  (-0.17699 -0.00607851 0)
  (-0.167976 -0.0332021 0)
  (-0.149666 -0.0580904 0)
  (-0.124629 -0.0766911 0)
  (-0.0963484 -0.086608 0)
  (-0.0677897 -0.0877216 0)
  (-0.0412458 -0.0811873 0)
  (-0.0189251 -0.0685699 0)
  (-0.00265966 -0.0509054 0)
  (0.00979109 -0.0252873 0)
  (0.0165255 0.00907471 0)
  (0.105476 -0.0392721 0)
  (0.0728733 -0.0431684 0)
  (0.0689489 -0.0394194 0)
  (0.0711315 -0.0315787 0)
  (0.0726745 -0.0224399 0)
  (0.0735055 -0.0147864 0)
  (0.0718016 -0.0120391 0)
  (0.0678096 -0.00861043 0)
  (0.0650585 -0.00675367 0)
  (0.0638167 -0.00570285 0)
  (0.0632715 -0.00503552 0)
  (0.0630054 -0.00456942 0)
  (0.0630538 -0.00411652 0)
  (0.0638854 -0.00331651 0)
  (0.0667109 -0.000188427 0)
  (0.0646679 0.0170278 0)
  (0.0514066 0.0292553 0)
  (0.0507983 0.0379657 0)
  (-0.0732052 0.0691546 0)
  (0.505052 0.329897 0)
  (-0.20324 0.141049 0)
  (-0.0737617 0.110374 0)
  (-0.101254 0.0823467 0)
  (-0.114373 0.0553999 0)
  (-0.122225 0.0254348 0)
  (-0.121075 -0.00963924 0)
  (-0.108744 -0.0472757 0)
  (-0.0896191 -0.0802032 0)
  (-0.0669702 -0.103189 0)
  (-0.0440139 -0.114031 0)
  (-0.0225477 -0.113738 0)
  (-0.0033511 -0.104106 0)
  (0.0130263 -0.086881 0)
  (0.0264361 -0.0649588 0)
  (0.0407726 -0.0389708 0)
  (0.0628633 -0.0123428 0)
  (0.0933952 2.69594e-05 0)
  (0.101048 -0.0329786 0)
  (0.0875015 -0.0382699 0)
  (0.0789504 -0.0340646 0)
  (0.0747875 -0.0277931 0)
  (0.0720636 -0.0204121 0)
  (0.0707613 -0.011862 0)
  (0.0724886 -0.00695638 0)
  (0.0766067 -0.00549268 0)
  (0.0800178 -0.00467477 0)
  (0.0823327 -0.00403981 0)
  (0.0837489 -0.00321899 0)
  (0.0837073 -0.00195747 0)
  (0.0811482 -3.73528e-05 0)
  (0.0748335 0.00282859 0)
  (0.0619702 0.00717074 0)
  (0.0510452 0.0274243 0)
  (0.040404 0.0442405 0)
  (0.0536756 0.0578229 0)
  (-0.103572 0.091979 0)
  (0.626955 0.383371 0)
  (-0.24393 0.169271 0)
  (-0.034765 0.125031 0)
  (-0.0571886 0.0925197 0)
  (-0.0619431 0.0622613 0)
  (-0.0626906 0.027408 0)
  (-0.0517845 -0.0162979 0)
  (-0.0338893 -0.0631905 0)
  (-0.014976 -0.100698 0)
  (0.0027147 -0.124459 0)
  (0.0171995 -0.13316 0)
  (0.0285626 -0.129853 0)
  (0.037327 -0.117577 0)
  (0.0442065 -0.0988655 0)
  (0.0503354 -0.0763849 0)
  (0.0576853 -0.0527834 0)
  (0.0688513 -0.0335064 0)
  (0.0793076 -0.0288809 0)
  (0.0808829 -0.0346953 0)
  (0.0743477 -0.0334746 0)
  (0.0663425 -0.0285258 0)
  (0.060233 -0.0229679 0)
  (0.0559291 -0.0172375 0)
  (0.0536451 -0.011362 0)
  (0.053752 -0.00622542 0)
  (0.0558993 -0.00387964 0)
  (0.0582993 -0.00304295 0)
  (0.0606371 -0.0023391 0)
  (0.0628097 -0.000835229 0)
  (0.0644391 0.00202324 0)
  (0.0643493 0.0063511 0)
  (0.0619541 0.0123124 0)
  (0.056559 0.0205564 0)
  (0.0500036 0.0359709 0)
  (0.0410092 0.0544964 0)
  (0.061942 0.0750015 0)
  (-0.0169954 0.104225 0)
  (0.045467 0.0341088 0)
  (-0.0611916 -0.0343378 0)
  (-0.268935 -0.0566287 0)
  (0.714603 0.42788 0)
  (-0.283182 0.188076 0)
  (-0.00571803 0.119886 0)
  (-0.011767 0.0916131 0)
  (-0.00495236 0.0622576 0)
  (0.00527172 0.0206955 0)
  (0.0339292 -0.0335978 0)
  (0.0549936 -0.081772 0)
  (0.0698169 -0.116129 0)
  (0.0783555 -0.135281 0)
  (0.0813836 -0.140423 0)
  (0.0803916 -0.13427 0)
  (0.0767495 -0.119852 0)
  (0.0718634 -0.100155 0)
  (0.0672084 -0.0780756 0)
  (0.0641446 -0.0563015 0)
  (0.063561 -0.0385555 0)
  (0.0630915 -0.029423 0)
  (0.0590596 -0.0270787 0)
  (0.0514545 -0.024912 0)
  (0.043232 -0.0212971 0)
  (0.0366544 -0.0173215 0)
  (0.0321444 -0.0134601 0)
  (0.0298714 -0.00978439 0)
  (0.0298133 -0.00694393 0)
  (0.0314964 -0.00601655 0)
  (0.0339969 -0.00601337 0)
  (0.036973 -0.00573879 0)
  (0.0402603 -0.00423545 0)
  (0.0436397 -0.000642087 0)
  (0.046632 0.00531927 0)
  (0.0482016 0.0133357 0)
  (0.0485532 0.0236182 0)
  (0.0490954 0.0379212 0)
  (0.0484132 0.0558586 0)
  (0.0703576 0.0787 0)
  (0.0523144 0.0972447 0)
  (0.0914965 0.0683035 0)
  (0.114485 0.0446006 0)
  (-0.12812 -0.00727336 0)
  (0.767539 0.468468 0)
  (-0.301733 0.173469 0)
  (0.0220182 0.067757 0)
  (0.049516 0.0629144 0)
  (0.0701956 0.0439386 0)
  (0.103069 -0.00363358 0)
  (0.134794 -0.0572478 0)
  (0.153111 -0.0982566 0)
  (0.159137 -0.124016 0)
  (0.154947 -0.135496 0)
  (0.143168 -0.13484 0)
  (0.126662 -0.124888 0)
  (0.107968 -0.108537 0)
  (0.0892422 -0.088705 0)
  (0.0722327 -0.0679768 0)
  (0.0580455 -0.0484172 0)
  (0.0471901 -0.03268 0)
  (0.0385536 -0.0231483 0)
  (0.0301503 -0.0188547 0)
  (0.0216224 -0.0164866 0)
  (0.0139745 -0.0142024 0)
  (0.00817236 -0.0120577 0)
  (0.00440895 -0.0102242 0)
  (0.00267948 -0.00872744 0)
  (0.00282197 -0.00792288 0)
  (0.00433183 -0.00821211 0)
  (0.00659597 -0.00894693 0)
  (0.00939815 -0.00926482 0)
  (0.0127876 -0.00832232 0)
  (0.0168975 -0.00511418 0)
  (0.0226522 0.00133256 0)
  (0.0283825 0.0101179 0)
  (0.0338311 0.0205109 0)
  (0.0408163 0.0331445 0)
  (0.0486344 0.0477885 0)
  (0.0703943 0.0661841 0)
  (0.0840175 0.0745298 0)
  (0.115882 0.0525214 0)
  (0.155399 0.0440117 0)
  (-0.0361773 0.0925884 0)
  (0.872351 0.469786 0)
  (-0.0642423 0.152096 0)
  (0.10999 -0.0138062 0)
  (0.181738 -0.0410254 0)
  (0.212323 -0.0527056 0)
  (0.243753 -0.0752172 0)
  (0.261508 -0.0974934 0)
  (0.262288 -0.113355 0)
  (0.247672 -0.120837 0)
  (0.221734 -0.119993 0)
  (0.188971 -0.112049 0)
  (0.153418 -0.0988144 0)
  (0.118224 -0.0820429 0)
  (0.0857776 -0.0639204 0)
  (0.0576893 -0.0463638 0)
  (0.0345806 -0.0305771 0)
  (0.0172415 -0.0187136 0)
  (0.00474749 -0.0120895 0)
  (-0.00482246 -0.00951455 0)
  (-0.0121309 -0.00875001 0)
  (-0.0179299 -0.00833786 0)
  (-0.0221538 -0.00810951 0)
  (-0.0249105 -0.00809666 0)
  (-0.0263457 -0.00833958 0)
  (-0.0266854 -0.00898165 0)
  (-0.0263403 -0.0100972 0)
  (-0.0256988 -0.0113604 0)
  (-0.0248681 -0.0123173 0)
  (-0.0236898 -0.0124788 0)
  (-0.0217675 -0.0112536 0)
  (-0.0181291 -0.00789711 0)
  (-0.00953869 -0.00172392 0)
  (-0.00121948 0.00629641 0)
  (0.00929757 0.0144698 0)
  (0.0209735 0.0215247 0)
  (0.0407247 0.0288517 0)
  (0.0597439 0.0224142 0)
  (0.0797543 -0.00468217 0)
  (0.138485 0.0391426 0)
  (-0.405083 0.202557 0)
  (1.01935 0.42288 0)
  (0.484888 0.27946 0)
  (0.499725 0.182952 0)
  (0.526175 0.111685 0)
  (0.507192 0.0603838 0)
  (0.465291 0.0132502 0)
  (0.416542 -0.0260208 0)
  (0.362984 -0.0529031 0)
  (0.304914 -0.0666222 0)
  (0.24524 -0.0691915 0)
  (0.187428 -0.0639831 0)
  (0.134074 -0.0541539 0)
  (0.0867467 -0.0415783 0)
  (0.0470057 -0.0284738 0)
  (0.0149288 -0.0166443 0)
  (-0.0104912 -0.00716288 0)
  (-0.0254316 -0.00291724 0)
  (-0.0346391 -0.00188412 0)
  (-0.040827 -0.0023911 0)
  (-0.0456233 -0.00338316 0)
  (-0.0495521 -0.00438816 0)
  (-0.05275 -0.00537546 0)
  (-0.0553247 -0.00637549 0)
  (-0.0574348 -0.0074226 0)
  (-0.0593197 -0.0085611 0)
  (-0.0613312 -0.0097761 0)
  (-0.063821 -0.0108531 0)
  (-0.0670846 -0.0114267 0)
  (-0.071437 -0.0109722 0)
  (-0.0773048 -0.0087814 0)
  (-0.0852317 -0.00402965 0)
  (-0.0951869 0.00383753 0)
  (-0.105338 0.0143066 0)
  (-0.12012 0.0275973 0)
  (-0.143316 0.0438413 0)
  (-0.177431 0.0619805 0)
  (-0.225814 0.0781598 0)
  (-0.281486 0.0898242 0)
  (-0.34948 0.0969109 0)
  (-0.609163 0.0999551 0)
  (-0.150792 0.00195492 0)
  (0.121372 0.00174108 0)
  (0.200489 -0.0315574 0)
  (0.187483 -0.0416463 0)
  (0.171405 -0.0397737 0)
  (0.149335 -0.03498 0)
  (0.119904 -0.0288568 0)
  (0.0861863 -0.0215495 0)
  (0.051686 -0.0135239 0)
  (0.0168704 -0.00538824 0)
  (-0.0165796 0.00218929 0)
  (-0.0389753 0.00650298 0)
  (-0.0544338 0.00884988 0)
  (-0.0636818 0.00936189 0)
  (-0.068787 0.00854206 0)
  (-0.0723288 0.0076173 0)
  (-0.0751269 0.00686218 0)
  (-0.077612 0.00628669 0)
  (-0.0801039 0.00580174 0)
  (-0.0827284 0.00514551 0)
  (-0.0854626 0.00437989 0)
  (-0.0883882 0.00352543 0)
  (-0.0916296 0.00264075 0)
  (-0.0953295 0.00185068 0)
  (-0.0995664 0.0014035 0)
  (-0.104337 0.00161013 0)
  (-0.10957 0.00279908 0)
  (-0.115089 0.00527852 0)
  (-0.120284 0.00956775 0)
  (-0.124413 0.0165636 0)
  (-0.127838 0.0273866 0)
  (-0.130768 0.0424203 0)
  (-0.133867 0.0608589 0)
  (-0.137571 0.0792938 0)
  (-0.138842 0.0882133 0)
  (-0.121416 0.0671367 0)
  (-0.0785514 -0.023024 0)
  (-0.273957 -0.198292 0)
  (0.0155408 0.194571 0)
  (0.0412381 0.0703386 0)
  (0.00037597 0.00592926 0)
  (-0.0126056 -0.00215529 0)
  (-0.0259199 -0.000190387 0)
  (-0.0407956 9.68532e-05 0)
  (-0.0570286 0.00117754 0)
  (-0.0724975 0.00341273 0)
  (-0.0847163 0.00551882 0)
  (-0.0914636 0.00586138 0)
  (-0.0957887 0.00394623 0)
  (-0.0975891 -5.19987e-05 0)
  (-0.097896 -0.00458941 0)
  (-0.0973564 -0.00946705 0)
  (-0.0968753 -0.014679 0)
  (-0.09699 -0.0197569 0)
  (-0.0977284 -0.0244152 0)
  (-0.0989922 -0.0283922 0)
  (-0.100653 -0.0314964 0)
  (-0.102633 -0.0336322 0)
  (-0.104995 -0.0349522 0)
  (-0.107651 -0.0354193 0)
  (-0.110507 -0.0349843 0)
  (-0.113475 -0.0338229 0)
  (-0.116437 -0.0319705 0)
  (-0.119154 -0.0292015 0)
  (-0.121254 -0.0250988 0)
  (-0.12226 -0.0190499 0)
  (-0.121744 -0.0111293 0)
  (-0.118828 -0.00103199 0)
  (-0.112147 0.011965 0)
  (-0.100419 0.0285049 0)
  (-0.0831993 0.0481023 0)
  (-0.0612435 0.0668436 0)
  (-0.0374201 0.0777934 0)
  (0.0024028 0.0619121 0)
  (0.142873 -0.00828824 0)
  (-0.204865 -0.108426 0)
  (-0.043301 -0.319753 0)
  (-0.413098 -0.123185 0)
  (-0.301151 0.0643471 0)
  (-0.249746 -0.0172169 0)
  (-0.209934 -0.0226135 0)
  (-0.198665 -0.01162 0)
  (-0.19419 -0.00195885 0)
  (-0.190706 0.00604215 0)
  (-0.186176 0.0135531 0)
  (-0.1797 0.0210257 0)
  (-0.171107 0.0285405 0)
  (-0.160715 0.0359995 0)
  (-0.149659 0.0432376 0)
  (-0.139095 0.0502436 0)
  (-0.129812 0.0572953 0)
  (-0.122082 0.0643435 0)
  (-0.115948 0.0713293 0)
  (-0.111238 0.0780273 0)
  (-0.107713 0.0840281 0)
  (-0.105167 0.0889504 0)
  (-0.103419 0.0925418 0)
  (-0.102313 0.0946796 0)
  (-0.101763 0.0954464 0)
  (-0.101729 0.0948004 0)
  (-0.102168 0.0927084 0)
  (-0.103002 0.089547 0)
  (-0.104103 0.0856185 0)
  (-0.105257 0.0810175 0)
  (-0.106083 0.0757902 0)
  (-0.105909 0.070037 0)
  (-0.103473 0.0650192 0)
  (-0.0969433 0.0616509 0)
  (-0.0839539 0.0608138 0)
  (-0.0627071 0.0634645 0)
  (-0.0336492 0.070136 0)
  (0.0120043 0.0799118 0)
  (0.0550121 0.0808816 0)
  (0.095793 0.0681573 0)
  (0.160926 0.0425287 0)
  (-0.232248 -0.00748836 0)
)
;

boundaryField
{
  floor
  {
    type noSlip;
  }
  ceiling
  {
    type noSlip;
  }
  sWall
  {
    type noSlip;
  }
  nWall
  {
    type noSlip;
  }
  sideWalls
  {
    type empty;
  }
  glass1
  {
    type noSlip;
  }
  glass2
  {
    type noSlip;
  }
  sun
  {
    type noSlip;
  }
  heatsource1
  {
    type noSlip;
  }
  heatsource2
  {
    type noSlip;
  }
  Table_master
  {
    type noSlip;
  }
  Table_slave
  {
    type noSlip;
  }
  inlet
  {
    type fixedValue;
    value uniform (0.1 0 0);
  }
  outlet
  {
    type zeroGradient;
  }
} 	// ************************************************************************* //

