/*--------------------------------*- C++ -*----------------------------------*\
  =========                 |
  \\      /  F ield         | OpenFOAM: The Open Source CFD Toolbox
   \\    /   O peration     | Website:  https://openfoam.org
    \\  /    A nd           | Version:  6
     \\/     M anipulation  |
\*---------------------------------------------------------------------------*/
FoamFile
{
    version     2.0;
    format      ascii;
    class       volScalarField;
    location    "300";
    object      T;
}
// * * * * * * * * * * * * * * * * * * * * * * * * * * * * * * * * * * * * * //

dimensions      [0 0 0 1 0 0 0];

internalField   nonuniform List<scalar> 
459
(
306.061
305.904
305.734
304.727
304.198
303.975
303.865
303.816
303.784
303.766
303.757
303.751
303.748
303.746
303.746
303.075
303.072
303.078
303.056
303.033
303.029
303.039
303.054
303.07
303.074
303.063
303.057
303.058
303.064
303.081
303.117
303.148
303.15
303.15
306.347
306.247
306.194
306.035
305.627
305.176
304.574
304.011
303.874
303.826
303.81
303.801
303.793
303.783
303.766
303.742
303.662
303.153
303.158
303.168
303.187
303.194
303.162
303.092
303.119
303.125
303.141
303.141
303.145
303.165
303.214
303.281
303.352
303.339
303.258
303.181
306.366
306.223
306.186
306.152
305.993
305.677
305.201
304.603
304.01
303.89
303.866
303.859
303.85
303.834
303.809
303.777
303.742
303.416
303.388
303.392
303.423
303.455
303.473
303.328
303.241
303.183
303.243
303.298
303.344
303.388
303.433
303.488
303.541
303.444
303.384
303.339
306.226
306.018
305.997
306.029
306.001
305.812
305.425
304.859
304.162
303.96
303.928
303.925
303.92
303.906
303.879
303.837
303.783
303.734
303.689
303.697
303.747
303.807
303.859
303.896
303.924
303.931
303.937
303.943
303.949
303.956
303.964
303.969
303.961
303.888
303.842
303.8
303.799
306.125
305.831
305.828
305.916
305.958
305.833
305.481
304.902
304.214
304.023
303.994
303.999
304.007
304.006
303.996
303.977
303.953
303.93
303.915
303.917
303.933
303.952
303.966
303.977
303.984
303.989
303.995
304.002
304.012
304.022
304.034
304.045
304.053
304.052
304.057
304.062
304.055
304.081
304.075
304.08
306.032
305.696
305.741
305.86
305.929
305.806
305.428
304.838
304.243
304.073
304.057
304.071
304.088
304.098
304.098
304.089
304.073
304.056
304.042
304.035
304.034
304.034
304.035
304.035
304.035
304.036
304.039
304.045
304.055
304.069
304.086
304.103
304.121
304.137
304.153
304.167
304.178
304.184
304.141
304.109
305.931
305.632
305.735
305.846
305.87
305.718
305.33
304.766
304.266
304.122
304.114
304.139
304.166
304.187
304.196
304.195
304.185
304.17
304.154
304.14
304.129
304.119
304.111
304.103
304.095
304.088
304.084
304.083
304.089
304.102
304.12
304.141
304.161
304.179
304.194
304.207
304.215
304.216
304.198
304.12
305.822
305.598
305.696
305.799
305.771
305.596
305.222
304.715
304.303
304.179
304.176
304.206
304.243
304.273
304.291
304.298
304.294
304.283
304.268
304.251
304.235
304.219
304.203
304.187
304.171
304.154
304.139
304.127
304.12
304.123
304.134
304.151
304.171
304.19
304.206
304.22
304.235
304.249
304.264
304.284
305.711
305.517
305.507
305.685
305.64
305.468
305.141
304.713
304.377
304.277
304.271
304.297
304.334
304.365
304.386
304.398
304.4
304.394
304.382
304.366
304.348
304.329
304.309
304.289
304.267
304.243
304.218
304.193
304.172
304.157
304.149
304.15
304.156
304.162
304.167
304.173
304.184
304.202
304.228
304.298
305.254
305.441
305.485
305.368
305.116
304.752
304.541
304.461
304.441
304.449
304.467
304.484
304.497
304.505
304.506
304.502
304.492
304.478
304.461
304.442
304.421
304.398
304.374
304.347
304.318
304.287
304.255
304.225
304.2
304.182
304.172
304.167
304.164
304.163
304.166
304.17
304.178
304.199
305.288
305.342
305.357
305.32
305.115
304.89
304.766
304.704
304.673
304.659
304.651
304.645
304.64
304.633
304.625
304.614
304.601
304.585
304.566
304.546
304.524
304.5
304.475
304.448
304.418
304.386
304.353
304.317
304.282
304.251
304.226
304.209
304.197
304.19
304.186
304.184
304.183
304.204
306.602
306.126
305.358
305.315
305.297
305.292
305.16
305.055
304.991
304.95
304.922
304.898
304.875
304.851
304.828
304.804
304.781
304.757
304.733
304.708
304.683
304.658
304.632
304.606
304.579
304.551
304.522
304.492
304.461
304.427
304.392
304.356
304.323
304.295
304.272
304.253
304.235
304.218
304.201
304.216
)
;

boundaryField
{
    floor
    {
        type            wallHeatTransfer;
        Tinf            uniform 305.2;
        alphaWall       uniform 0.24;
        value           nonuniform List<scalar> 
29
(
303.999
303.623
303.59
303.583
303.632
303.702
303.746
303.769
303.793
303.795
303.776
303.76
303.723
303.679
303.647
303.624
303.613
303.612
303.611
303.642
303.642
303.593
303.664
303.978
303.999
303.623
303.574
303.676
303.915
)
;
    }
    ceiling
    {
        type            wallHeatTransfer;
        Tinf            uniform 303.2;
        alphaWall       uniform 0.24;
        value           nonuniform List<scalar> 
43
(
306.363
305.975
305.283
305.202
305.144
305.14
305.011
304.907
304.841
304.797
304.766
304.74
304.715
304.691
304.668
304.646
304.624
304.602
304.58
304.558
304.536
304.512
304.489
304.465
304.44
304.414
304.388
304.361
304.333
304.303
304.272
304.24
304.211
304.185
304.163
304.143
304.125
304.107
304.094
304.103
305.637
305.458
305.234
)
;
    }
    sWall
    {
        type            wallHeatTransfer;
        Tinf            uniform 315.2;
        alphaWall       uniform 0.36;
        value           uniform 307.478;
    }
    nWall
    {
        type            wallHeatTransfer;
        Tinf            uniform 307.2;
        alphaWall       uniform 0.36;
        value           nonuniform List<scalar> 6(304.601 304.603 304.619 304.552 304.574 304.687);
    }
    sideWalls
    {
        type            empty;
    }
    glass1
    {
        type            wallHeatTransfer;
        Tinf            uniform 315.2;
        alphaWall       uniform 4.3;
        value           nonuniform List<scalar> 9(311.921 311.868 310.536 310.183 309.983 309.805 309.612 309.381 309.068);
    }
    glass2
    {
        type            wallHeatTransfer;
        Tinf            uniform 307.2;
        alphaWall       uniform 4.3;
        value           nonuniform List<scalar> 2(306.175 306.083);
    }
    sun
    {
        type            wallHeatTransfer;
        Tinf            uniform 305.2;
        alphaWall       uniform 0.24;
        value           nonuniform List<scalar> 
14
(
305.984
305.848
305.692
304.774
304.31
304.124
304.044
304.016
304.008
304.006
304.004
304.002
304
303.998
)
;
    }
    heatsource1
    {
        type            fixedGradient;
        gradient        uniform 0;
    }
    heatsource2
    {
        type            fixedGradient;
        gradient        uniform 0;
    }
    Table_master
    {
        type            zeroGradient;
    }
    Table_slave
    {
        type            zeroGradient;
    }
    inlet
    {
        type            fixedValue;
        value           uniform 290.15;
    }
    outlet
    {
        type            zeroGradient;
    }
}


// ************************************************************************* //
