// -*- C++ -*-
// File generated by PyFoam - sorry for the ugliness

FoamFile
{
 version 2.0;
 format ascii;
 class volScalarField;
 location "800";
 object T;
}

dimensions [ 0 0 0 1 0 0 0 ];

internalField nonuniform List<scalar> 459
(
  306.551
  306.337
  306.334
  306.339
  306.344
  306.347
  306.349
  306.35
  306.351
  306.35
  306.347
  306.341
  306.331
  306.319
  306.302
  305.271
  305.217
  305.175
  305.154
  305.157
  305.17
  305.186
  305.197
  305.204
  305.211
  305.216
  305.218
  305.217
  305.224
  305.243
  305.282
  305.318
  305.381
  305.468
  306.727
  306.418
  306.402
  306.413
  306.423
  306.432
  306.438
  306.442
  306.443
  306.441
  306.433
  306.418
  306.396
  306.363
  306.321
  306.278
  306.157
  305.412
  305.422
  305.415
  305.419
  305.428
  305.434
  305.435
  305.435
  305.439
  305.448
  305.466
  305.494
  305.529
  305.568
  305.62
  305.678
  305.668
  305.663
  305.772
  306.887
  306.493
  306.458
  306.472
  306.49
  306.506
  306.519
  306.529
  306.535
  306.535
  306.527
  306.509
  306.477
  306.43
  306.365
  306.29
  306.224
  305.733
  305.729
  305.753
  305.774
  305.779
  305.753
  305.667
  305.698
  305.735
  305.774
  305.815
  305.859
  305.911
  305.975
  306.055
  306.135
  306.126
  306.103
  306.09
  307.033
  306.577
  306.517
  306.527
  306.551
  306.575
  306.598
  306.617
  306.631
  306.637
  306.633
  306.616
  306.582
  306.529
  306.454
  306.354
  306.23
  306.113
  306.035
  306.112
  306.179
  306.234
  306.271
  306.295
  306.315
  306.317
  306.32
  306.323
  306.326
  306.33
  306.334
  306.337
  306.338
  306.331
  306.339
  306.344
  306.352
  307.167
  306.675
  306.596
  306.591
  306.613
  306.642
  306.672
  306.7
  306.724
  306.738
  306.741
  306.73
  306.703
  306.659
  306.599
  306.528
  306.453
  306.388
  306.343
  306.337
  306.349
  306.362
  306.369
  306.372
  306.372
  306.37
  306.37
  306.371
  306.373
  306.377
  306.383
  306.39
  306.399
  306.408
  306.42
  306.432
  306.443
  306.454
  306.446
  306.431
  307.286
  306.792
  306.719
  306.697
  306.7
  306.72
  306.748
  306.779
  306.809
  306.829
  306.838
  306.834
  306.815
  306.78
  306.729
  306.669
  306.605
  306.548
  306.504
  306.478
  306.463
  306.453
  306.446
  306.438
  306.431
  306.425
  306.42
  306.417
  306.415
  306.415
  306.418
  306.422
  306.429
  306.438
  306.449
  306.459
  306.468
  306.473
  306.467
  306.431
  307.396
  306.95
  306.912
  306.887
  306.862
  306.852
  306.859
  306.875
  306.895
  306.911
  306.92
  306.92
  306.908
  306.883
  306.843
  306.792
  306.737
  306.683
  306.637
  306.6
  306.572
  306.55
  306.532
  306.517
  306.504
  306.492
  306.482
  306.474
  306.466
  306.461
  306.457
  306.455
  306.456
  306.459
  306.465
  306.474
  306.485
  306.496
  306.506
  306.516
  307.557
  307.236
  307.22
  307.169
  307.102
  307.054
  307.028
  307.014
  307.005
  307
  306.996
  306.99
  306.978
  306.959
  306.931
  306.893
  306.849
  306.802
  306.757
  306.717
  306.682
  306.654
  306.629
  306.608
  306.59
  306.573
  306.558
  306.544
  306.532
  306.52
  306.51
  306.501
  306.494
  306.489
  306.486
  306.486
  306.49
  306.498
  306.51
  306.526
  307.777
  307.638
  307.439
  307.349
  307.27
  307.209
  307.164
  307.13
  307.104
  307.083
  307.063
  307.045
  307.028
  307.009
  306.986
  306.959
  306.927
  306.891
  306.854
  306.818
  306.785
  306.754
  306.727
  306.702
  306.68
  306.659
  306.64
  306.622
  306.606
  306.589
  306.574
  306.56
  306.546
  306.534
  306.524
  306.515
  306.509
  306.505
  306.506
  306.519
  306.269
  306.995
  307.109
  307.122
  307.116
  307.105
  307.091
  307.078
  307.064
  307.051
  307.037
  307.022
  307.006
  306.988
  306.967
  306.943
  306.916
  306.889
  306.861
  306.834
  306.808
  306.783
  306.759
  306.737
  306.715
  306.694
  306.674
  306.655
  306.636
  306.618
  306.6
  306.583
  306.568
  306.553
  306.539
  306.527
  306.516
  306.51
  306.404
  306.791
  306.909
  306.984
  307.02
  307.034
  307.038
  307.036
  307.031
  307.025
  307.017
  307.008
  306.998
  306.987
  306.973
  306.958
  306.94
  306.92
  306.9
  306.878
  306.856
  306.833
  306.811
  306.789
  306.767
  306.745
  306.723
  306.702
  306.681
  306.66
  306.64
  306.62
  306.6
  306.581
  306.562
  306.541
  306.52
  306.51
  308.453
  307.984
  306.576
  306.653
  306.765
  306.884
  306.937
  306.96
  306.971
  306.976
  306.977
  306.976
  306.973
  306.969
  306.964
  306.957
  306.949
  306.94
  306.929
  306.916
  306.902
  306.887
  306.87
  306.852
  306.834
  306.814
  306.794
  306.773
  306.752
  306.731
  306.709
  306.686
  306.663
  306.64
  306.616
  306.591
  306.565
  306.535
  306.493
  306.425
)
;

boundaryField
{
  floor
  {
    type wallHeatTransfer;
    Tinf uniform 305.2;
    alphaWall uniform 0.24;
    value nonuniform List<scalar> 29
(
  306.157
  305.25
  305.212
  305.182
  305.168
  305.17
  305.179
  305.19
  305.198
  305.203
  305.208
  305.212
  305.213
  305.212
  305.217
  305.231
  305.26
  305.288
  305.337
  305.394
  305.394
  305.656
  305.943
  306.18
  306.157
  305.25
  305.362
  305.641
  305.998
)
;
  }
  ceiling
  {
    type wallHeatTransfer;
    Tinf uniform 303.2;
    alphaWall uniform 0.24;
    value nonuniform List<scalar> 43
(
  308.047
  307.698
  306.453
  306.505
  306.575
  306.67
  306.702
  306.707
  306.703
  306.697
  306.69
  306.684
  306.679
  306.674
  306.67
  306.664
  306.657
  306.649
  306.639
  306.628
  306.615
  306.6
  306.585
  306.568
  306.55
  306.532
  306.513
  306.494
  306.474
  306.454
  306.433
  306.412
  306.39
  306.367
  306.343
  306.318
  306.29
  306.255
  306.211
  306.132
  307.556
  307.447
  306.319
)
;
  }
  sWall
  {
    type wallHeatTransfer;
    Tinf uniform 315.2;
    alphaWall uniform 0.36;
    value uniform 309.208;
  }
  nWall
  {
    type wallHeatTransfer;
    Tinf uniform 307.2;
    alphaWall uniform 0.36;
    value nonuniform List<scalar> 6
(
  306.604
  306.596
  306.615
  306.589
  306.58
  306.526
)
;
  }
  sideWalls
  {
    type empty;
  }
  glass1
  {
    type wallHeatTransfer;
    Tinf uniform 315.2;
    alphaWall uniform 4.3;
    value nonuniform List<scalar> 9
(
  313.183
  312.472
  311.999
  311.646
  311.385
  311.188
  311.063
  311.14
  311.329
)
;
  }
  glass2
  {
    type wallHeatTransfer;
    Tinf uniform 307.2;
    alphaWall uniform 4.3;
    value nonuniform List<scalar> 2
(
  306.959
  306.944
)
;
  }
  sun
  {
    type wallHeatTransfer;
    Tinf uniform 305.2;
    alphaWall uniform 0.24;
    value nonuniform List<scalar> 14
(
  306.345
  306.167
  306.154
  306.162
  306.169
  306.176
  306.181
  306.186
  306.19
  306.192
  306.192
  306.188
  306.182
  306.172
)
;
  }
  heatsource1
  {
    type fixedGradient;
    gradient uniform 0;
  }
  heatsource2
  {
    type fixedGradient;
    gradient uniform 0;
  }
  Table_master
  {
    type zeroGradient;
  }
  Table_slave
  {
    type zeroGradient;
  }
  inlet
  {
    type fixedValue;
    value uniform 299.15;
  }
  outlet
  {
    type zeroGradient;
  }
} 	// ************************************************************************* //

