/*--------------------------------*- C++ -*----------------------------------*\
  =========                 |
  \\      /  F ield         | OpenFOAM: The Open Source CFD Toolbox
   \\    /   O peration     | Website:  https://openfoam.org
    \\  /    A nd           | Version:  6
     \\/     M anipulation  |
\*---------------------------------------------------------------------------*/
FoamFile
{
    version     2.0;
    format      ascii;
    class       surfaceScalarField;
    location    "320";
    object      phi;
}
// * * * * * * * * * * * * * * * * * * * * * * * * * * * * * * * * * * * * * //

dimensions      [1 0 -1 0 0 0 0];

internalField   nonuniform List<scalar> 
852
(
0.00280734
-0.00282558
0.00347803
-0.000670772
0.00423543
-0.000757481
0.00472319
-0.000487842
0.00487869
-0.000155575
0.00484764
3.097e-05
0.00472275
0.000124811
0.00453548
0.000187196
0.00429779
0.000237613
0.00401231
0.000285406
0.00366906
0.000343177
0.00323918
0.0004298
0.00265806
0.000581045
0.00174996
0.000908029
0.00174518
0.00022593
-0.000231979
0.000498657
-0.0002728
0.000914327
-0.000415745
0.00123475
-0.000320496
0.0014165
-0.000181829
0.00149298
-7.65459e-05
0.00152541
-3.25109e-05
0.00154987
-2.45304e-05
0.0015681
-1.82999e-05
0.00157985
-1.18207e-05
0.00158502
-5.24213e-06
0.00158006
4.88913e-06
0.00155623
2.37515e-05
0.00149642
5.97385e-05
0.00136803
0.000128323
0.00111953
0.000248421
0.000727545
0.000391917
3.90968e-05
0.000688377
3.06572e-05
0.00133205
-0.00420894
0.00240064
-0.00173945
0.00314108
-0.00149799
0.00343511
-0.000781951
0.00352423
-0.00024477
0.00350565
4.9466e-05
0.00341408
0.000216309
0.00327543
0.00032577
0.0031055
0.000407463
0.00291022
0.000480616
0.00268856
0.00056476
0.00243699
0.000681297
0.00216375
0.000854209
0.00197399
0.00109772
0.00228876
0.00143033
0.00108069
0.00120795
0.00108057
-4.76151e-05
-0.000199392
0.000633337
-0.000953829
0.000993759
-0.000776244
0.00122621
-0.000553026
0.00133912
-0.000294811
0.00135642
-9.3923e-05
0.00135758
-3.37526e-05
0.00136712
-3.4142e-05
0.00137412
-2.53765e-05
0.00137983
-1.76091e-05
0.00138491
-1.03899e-05
0.00138787
1.8482e-06
0.00138565
2.59008e-05
0.0013713
7.40125e-05
0.0013095
0.000190055
0.00107186
0.000485989
0.000745339
0.000718362
0.000494225
0.000939418
0.000503237
0.000594129
-0.0048864
0.00156303
-0.00270843
0.00206562
-0.00200066
0.00213679
-0.000853199
0.0021316
-0.000239655
0.00209834
8.26604e-05
0.002037
0.000277571
0.00196032
0.000402374
0.00187703
0.000490683
0.00179004
0.000567531
0.00170155
0.000653169
0.00161739
0.000765385
0.00155237
0.000919155
0.00152526
0.00112476
0.00151498
0.00144053
0.00109324
0.00162962
0.00217373
0.000626877
-0.000851476
0.000903108
-0.00123014
0.00119017
-0.00106338
0.00132889
-0.000691832
0.00134698
-0.000312981
0.00118778
6.52018e-05
0.0011541
0.00112004
0.00109474
0.0010772
0.00106689
0.00106882
0.0010948
0.00116889
0.00135902
0.00101429
0.00083065
0.000812224
0.000920353
0.000703695
0.00104787
0.00117466
0.000106429
-0.00510917
0.000707365
-0.00330945
0.000875299
-0.00216867
0.000782382
-0.000760355
0.000723147
-0.000180493
0.000697301
0.000108435
0.000693662
0.000281138
0.000701601
0.000394363
0.000715226
0.000476986
0.000734783
0.000547902
0.000765055
0.000622824
0.000813852
0.000716516
0.000890415
0.00084252
0.00100216
0.00101294
0.00118715
0.00125546
0.00145669
0.00136001
0.00229838
0.00133196
0.00210105
0.000165281
0.00208678
-0.00083729
0.001788
-0.000931435
0.00156923
-0.000844691
0.00145708
-0.000579765
0.00142461
-0.000280592
0.00152564
-3.59145e-05
0.00146368
6.17347e-05
0.00139352
6.99263e-05
0.00130135
9.19393e-05
0.00118526
0.00011585
0.00104258
0.000142448
0.0008656
0.000176746
0.000639421
0.000225944
0.000341614
0.000297572
2.36943e-05
0.000317686
0.000459215
0.00039506
0.00064459
0.000734906
0.000875509
0.000816882
0.00201005
-0.000380761
-0.00487784
-0.000363242
-0.00332705
-0.000297594
-0.0022344
-0.000360609
-0.000697412
-0.000419555
-0.000121617
-0.000427883
0.000116694
-0.000394676
0.000247861
-0.000337505
0.000337121
-0.000264467
0.000403877
-0.000175288
0.000458652
-6.34282e-05
0.000510893
8.14188e-05
0.000571598
0.000271026
0.000652841
0.000522139
0.000761755
0.000884899
0.000892632
0.00134453
0.000900303
0.00192742
0.000749
0.00209287
-2.39381e-07
0.00178168
-0.000526185
0.00151336
-0.000663193
0.00125715
-0.000588567
0.00107008
-0.000392785
0.000959442
-0.000170034
0.000901813
2.1632e-05
0.000836417
0.000127049
0.000744614
0.000161647
0.000645843
0.000190629
0.000532727
0.000228885
0.000395115
0.000279978
0.000227706
0.000344074
4.04612e-05
0.000413108
-0.000106568
0.000444523
-0.000108015
0.000319056
8.81665e-05
0.000198804
0.000516708
0.000306291
0.00124298
9.05347e-05
0.00235626
0.000896702
0.00106252
0.00129346
-0.000323508
0.00138575
-0.00036498
-0.000888187
-0.00417255
-0.00108776
-0.00312756
-0.00101142
-0.00231082
-0.00107673
-0.00063217
-0.00114944
-4.89827e-05
-0.00117882
0.000146004
-0.00115992
0.000228894
-0.00110117
0.000278302
-0.00101049
0.000313124
-0.0008906
0.000338692
-0.000739191
0.000359414
-0.000549086
0.000381422
-0.000306662
0.000410346
9.4158e-06
0.000445604
0.000409538
0.000492437
0.000838159
0.000471607
0.00126236
0.000324722
0.00132184
-5.98049e-05
0.00113063
-0.000335056
0.000886399
-0.000419048
0.000644772
-0.000347026
0.000449163
-0.000197261
0.00031597
-3.69258e-05
0.000242317
9.52033e-05
0.000194548
0.000174736
0.000133869
0.000222244
5.80424e-05
0.000266374
-3.21512e-05
0.000318997
-0.000131921
0.000379667
-0.000226749
0.000438823
-0.000290173
0.000476453
-0.000289275
0.000443546
-0.000246792
0.000276495
-0.000150726
0.000102659
9.19049e-05
6.35809e-05
0.000248099
-6.57391e-05
0.000507014
0.000637711
0.000173309
0.00162709
-0.0004571
0.00201608
-0.000862204
-0.00133662
-0.00305214
-0.00169548
-0.00276878
-0.00153308
-0.0024733
-0.00153119
-0.000634136
-0.00159249
1.22411e-05
-0.00163975
0.000193191
-0.00164395
0.000233023
-0.00160161
0.000235892
-0.00151789
0.000229338
-0.00139685
0.000217579
-0.00123925
0.000201742
-0.00104286
0.000184957
-0.000803365
0.000170774
-0.000518863
0.000161027
-0.000184024
0.00015752
0.000154664
0.00013284
0.000419413
5.98891e-05
0.000449864
-9.03431e-05
0.000324057
-0.000209337
0.000132003
-0.000227082
-5.70783e-05
-0.000158032
-0.000201862
-5.2562e-05
-0.000287005
4.81342e-05
-0.000322177
0.000130293
-0.000342174
0.000194651
-0.000368888
0.000248877
-0.000404423
0.000301827
-0.000441978
0.000356472
-0.00047112
0.00040873
-0.000479322
0.000446946
-0.000452846
0.000449897
-0.000392795
0.000383417
-0.000345777
0.000229398
-0.000313675
7.04775e-05
-0.000237416
-1.2759e-05
-0.00029849
-4.74391e-06
-0.000261478
0.000600623
-0.000337365
0.0017029
-0.000149281
0.00182792
-0.00104941
-0.00171352
-0.00158777
-0.00239147
-0.00209091
-0.00211883
-0.00274604
-0.00179683
-0.000956227
-0.00178502
3.48577e-07
-0.00184256
0.000250647
-0.0018638
0.000254189
-0.00183832
0.000210332
-0.00177281
0.000163748
-0.00167259
0.000117286
-0.00154005
6.91188e-05
-0.00137775
2.25783e-05
-0.00118849
-1.85694e-05
-0.000978011
-4.95288e-05
-0.000753981
-6.65939e-05
-0.000544112
-7.7114e-05
-0.000389676
-9.46349e-05
-0.000349651
-0.000130456
-0.000409802
-0.000149274
-0.000514907
-0.000122063
-0.000613841
-5.91841e-05
-0.000679876
1.33893e-05
-0.000709693
7.78681e-05
-0.000714439
0.000134958
-0.0007089
0.00018903
-0.000701277
0.000241174
-0.000691384
0.000291853
-0.000674182
0.00033919
-0.000642919
0.000377387
-0.000591333
0.00039528
-0.000516963
0.000375449
-0.000431342
0.000297717
-0.000362703
0.00016068
-0.000302326
1.00212e-05
-0.000220091
-9.50725e-05
-0.000143024
-8.18887e-05
0.000132268
0.000325253
0.000625825
0.00120926
0.00146201
0.000991662
0.000176071
-0.00191757
-0.00404998
-0.00229625
-0.00449984
-0.0014899
-0.0017627
-0.00162945
0.0001398
-0.00172833
0.000349438
-0.00174629
0.000272056
-0.0017174
0.000181342
-0.00166254
0.000108803
-0.0015879
4.25512e-05
-0.00149356
-2.53174e-05
-0.00138646
-8.46101e-05
-0.00127242
-0.00013271
-0.00115544
-0.0001666
-0.00104026
-0.000181869
-0.000935943
-0.000181518
-0.000858071
-0.000172596
-0.000829625
-0.000158989
-0.000845902
-0.000133083
-0.000879491
-8.85592e-05
-0.000908759
-3.00004e-05
-0.000923283
2.78309e-05
-0.00092042
7.49226e-05
-0.000904497
0.000118953
-0.000878569
0.00016302
-0.000844366
0.00020689
-0.000801451
0.000248859
-0.000747969
0.000285628
-0.000681929
0.000311268
-0.000602882
0.000316154
-0.000514628
0.000287117
-0.000428914
0.000211925
-0.000360504
9.2192e-05
-0.000298587
-5.1973e-05
-0.000212051
-0.000181686
-5.1516e-05
-0.000242501
0.000326613
-5.29533e-05
0.00104957
0.000486225
0.00169553
0.000345625
0.00161356
0.000930029
-0.000917694
-0.000931663
9.88628e-05
-0.00130195
0.00050996
-0.00133027
0.000377642
-0.00128107
0.000222744
-0.00121034
0.000110491
-0.00114465
4.29932e-05
-0.00108784
-1.43681e-05
-0.00104138
-7.18952e-05
-0.00100642
-0.000119682
-0.000981684
-0.000157559
-0.000964629
-0.000183763
-0.0009528
-0.000193801
-0.000944856
-0.000189559
-0.000943275
-0.000174269
-0.000954948
-0.000147404
-0.000975649
-0.000112467
-0.000992121
-7.21708e-05
-0.000997673
-2.45309e-05
-0.000993768
2.3844e-05
-0.00097916
6.02327e-05
-0.00095382
9.35323e-05
-0.000916812
0.000125932
-0.000867548
0.000157546
-0.000805762
0.000186994
-0.000731794
0.000211581
-0.000647376
0.000226771
-0.000556921
0.000225622
-0.000469099
0.000199217
-0.000397154
0.000139902
-0.000355402
5.03636e-05
-0.000350654
-5.67982e-05
-0.000375992
-0.000156425
-0.000397807
-0.000220762
-0.00035162
-9.92173e-05
-0.000145921
0.000280448
-0.000105897
0.000305524
0.00145995
-0.00137243
0.000395529
-0.00147758
0.000203859
-0.00110082
0.00013304
-0.000805009
8.16696e-05
-0.000615423
3.30047e-05
-0.000502026
-3.05478e-06
-0.000428738
-3.044e-05
-0.000389434
-5.38148e-05
-0.000390256
-7.12124e-05
-0.000421654
-8.84198e-05
-0.000474771
-0.000104571
-0.000540509
-0.00011815
-0.000605054
-0.000129373
-0.000663997
-0.000130724
-0.00072861
-0.000109752
-0.000794268
-8.18349e-05
-0.000855201
-5.16194e-05
-0.000907113
-2.03425e-05
-0.000940095
8.36984e-06
-0.000949772
3.34389e-05
-0.000947134
5.75138e-05
-0.000932313
7.86308e-05
-0.000904144
9.76836e-05
-0.000861543
0.000114865
-0.000804094
0.000129465
-0.000732498
0.000139906
-0.000649403
0.000143599
-0.00056078
0.00013692
-0.000477718
0.000116078
-0.000417797
7.99043e-05
-0.000400107
3.25972e-05
-0.000440253
-1.67281e-05
-0.00053658
-6.01742e-05
-0.000685227
-7.21904e-05
-0.000760727
-2.37935e-05
-0.00060249
0.000122135
-0.000692213
0.00039517
0.000706359
-0.00220597
0.000907884
0.00115717
0.00125662
0.00129652
0.00128977
0.00123749
0.00115175
0.00104089
0.000908458
0.000760087
0.000595738
0.000416311
0.000224266
2.18553e-05
-0.000181113
-0.000362573
-0.000515798
-0.000638625
-0.000730129
-0.00079298
-0.000830857
-0.000844792
-0.000837746
-0.000811764
-0.000768683
-0.000711031
-0.000642882
-0.000570868
-0.000505212
-0.00045992
-0.000450222
-0.000487315
-0.000573408
-0.000702721
-0.000843867
-0.000936262
-0.000881656
-0.000553967
)
;

boundaryField
{
    floor
    {
        type            calculated;
        value           nonuniform List<scalar> 
29
(
0
0
0
0
0
0
0
0
0
0
0
0
0
0
0
0
0
0
0
0
8.36755e-06
2.15723e-05
3.22005e-05
4.00419e-05
4.70136e-06
5.97687e-06
1.49552e-05
2.51315e-05
3.19804e-05
)
;
    }
    ceiling
    {
        type            calculated;
        value           nonuniform List<scalar> 
43
(
0.000223083
0.000253718
0.000145905
0.000104118
9.28707e-05
8.81726e-05
8.5057e-05
8.24769e-05
8.02246e-05
7.84332e-05
7.69826e-05
7.57632e-05
7.46967e-05
7.37436e-05
7.28967e-05
7.21133e-05
7.16063e-05
7.12996e-05
7.11229e-05
7.10782e-05
7.11395e-05
7.12341e-05
7.13689e-05
7.15044e-05
7.16219e-05
7.17057e-05
7.17344e-05
7.16795e-05
7.15073e-05
7.11867e-05
7.07092e-05
7.01293e-05
6.9614e-05
6.92891e-05
6.9063e-05
6.88808e-05
6.85251e-05
6.74528e-05
6.74045e-05
7.4337e-05
4.32901e-05
4.14309e-05
5.90435e-05
)
;
    }
    sWall
    {
        type            calculated;
        value           uniform 0.000297435;
    }
    nWall
    {
        type            calculated;
        value           nonuniform List<scalar> 6(4.11905e-05 4.00468e-05 3.7851e-05 4.76257e-05 6.13043e-05 7.7978e-05);
    }
    sideWalls
    {
        type            empty;
        value           nonuniform 0();
    }
    glass1
    {
        type            calculated;
        value           nonuniform List<scalar> 9(1.81662e-05 5.12266e-05 8.32466e-05 0.000116267 0.000149342 0.000182823 0.000216121 0.000249072 0.000286423);
    }
    glass2
    {
        type            calculated;
        value           nonuniform List<scalar> 2(0.000236445 0.000257969);
    }
    sun
    {
        type            calculated;
        value           uniform 0;
    }
    heatsource1
    {
        type            calculated;
        value           nonuniform List<scalar> 3(2.03846e-07 2.04096e-07 2.04282e-07);
    }
    heatsource2
    {
        type            calculated;
        value           nonuniform List<scalar> 4(5.11929e-08 5.13336e-08 0 0);
    }
    Table_master
    {
        type            calculated;
        value           nonuniform List<scalar> 9(-1.53401e-07 -1.53441e-07 -1.53447e-07 -1.53447e-07 -1.53442e-07 -1.53433e-07 -1.53413e-07 -1.53381e-07 -1.53316e-07);
    }
    Table_slave
    {
        type            calculated;
        value           nonuniform List<scalar> 9(1.53137e-07 1.5318e-07 1.53186e-07 1.53198e-07 1.53217e-07 1.53242e-07 1.53274e-07 1.53313e-07 1.53377e-07);
    }
    inlet
    {
        type            calculated;
        value           uniform -0.00451222;
    }
    outlet
    {
        type            calculated;
        value           nonuniform List<scalar> 2(0.00168517 -0.00336785);
    }
}


// ************************************************************************* //
