/*--------------------------------*- C++ -*----------------------------------*\
  =========                 |
  \\      /  F ield         | OpenFOAM: The Open Source CFD Toolbox
   \\    /   O peration     | Website:  https://openfoam.org
    \\  /    A nd           | Version:  6
     \\/     M anipulation  |
\*---------------------------------------------------------------------------*/
FoamFile
{
    version     2.0;
    format      ascii;
    class       volScalarField;
    location    "320";
    object      T;
}
// * * * * * * * * * * * * * * * * * * * * * * * * * * * * * * * * * * * * * //

dimensions      [0 0 0 1 0 0 0];

internalField   nonuniform List<scalar> 
459
(
302.364
302.391
302.419
302.439
302.45
302.458
302.465
302.472
302.478
302.483
302.488
302.493
302.497
302.5
302.493
302.758
302.806
302.842
302.868
302.886
302.898
302.907
302.915
302.923
302.931
302.938
302.944
302.951
302.957
302.963
302.969
302.975
302.98
302.95
302.396
302.45
302.498
302.531
302.548
302.558
302.564
302.569
302.571
302.572
302.571
302.568
302.561
302.55
302.53
302.54
302.558
302.792
302.827
302.873
302.915
302.947
302.968
302.984
302.999
303.013
303.027
303.041
303.054
303.065
303.073
303.076
303.071
303.059
303.038
303.061
302.397
302.476
302.563
302.62
302.647
302.657
302.659
302.656
302.651
302.644
302.636
302.625
302.612
302.594
302.572
302.566
302.571
302.736
302.805
302.885
302.95
302.994
303.019
303.032
303.048
303.064
303.081
303.098
303.115
303.13
303.141
303.145
303.136
303.114
303.087
303.097
302.379
302.48
302.634
302.741
302.775
302.774
302.759
302.741
302.725
302.71
302.694
302.677
302.657
302.635
302.609
302.594
302.589
302.612
302.698
302.807
302.922
303.014
303.074
303.108
303.142
303.176
303.208
303.239
303.27
303.303
303.339
303.382
303.415
303.186
303.154
303.128
303.124
302.345
302.46
302.703
302.89
302.908
302.883
302.852
302.825
302.802
302.782
302.761
302.74
302.715
302.689
302.662
302.646
302.647
302.703
302.821
302.956
303.074
303.162
303.218
303.253
303.286
303.315
303.339
303.361
303.381
303.401
303.423
303.441
303.419
303.287
303.22
303.192
303.16
303.175
303.288
303.513
302.286
302.401
302.715
303.005
303.027
303
302.968
302.94
302.916
302.894
302.873
302.851
302.829
302.805
302.782
302.782
302.819
302.932
303.062
303.183
303.277
303.34
303.377
303.399
303.414
303.429
303.443
303.456
303.467
303.476
303.484
303.483
303.46
303.405
303.354
303.332
303.235
303.222
303.352
303.523
302.187
302.257
302.615
303.121
303.187
303.174
303.149
303.126
303.107
303.09
303.075
303.061
303.048
303.037
303.033
303.055
303.122
303.238
303.337
303.417
303.473
303.504
303.517
303.519
303.521
303.525
303.53
303.534
303.538
303.54
303.541
303.539
303.529
303.506
303.471
303.413
303.312
303.285
303.386
303.543
302.037
301.991
302.298
303.217
303.415
303.433
303.424
303.413
303.403
303.395
303.389
303.384
303.382
303.383
303.391
303.414
303.461
303.52
303.568
303.602
303.622
303.629
303.626
303.62
303.614
303.611
303.608
303.606
303.605
303.604
303.603
303.602
303.597
303.584
303.557
303.506
303.41
303.351
303.419
303.577
301.833
301.566
301.521
303.177
303.689
303.777
303.787
303.782
303.772
303.761
303.749
303.736
303.718
303.699
303.686
303.682
303.688
303.701
303.713
303.72
303.721
303.717
303.708
303.699
303.69
303.683
303.676
303.67
303.666
303.662
303.659
303.655
303.648
303.635
303.61
303.572
303.506
303.447
303.48
303.611
300.505
302.992
304.038
304.19
304.201
304.179
304.144
304.103
304.057
304.004
303.949
303.898
303.854
303.822
303.803
303.794
303.789
303.784
303.777
303.769
303.759
303.749
303.74
303.732
303.724
303.717
303.71
303.704
303.697
303.689
303.677
303.66
303.636
303.606
303.57
303.537
303.549
303.6
304.868
304.808
304.79
304.746
304.674
304.589
304.501
304.409
304.312
304.216
304.121
304.034
303.957
303.896
303.857
303.835
303.822
303.812
303.803
303.794
303.784
303.775
303.766
303.758
303.75
303.742
303.734
303.726
303.716
303.705
303.689
303.669
303.646
303.623
303.602
303.588
303.593
303.609
312.017
311.689
308.998
307.405
306.497
305.931
305.543
305.252
305.014
304.813
304.635
304.474
304.324
304.184
304.056
303.942
303.878
303.846
303.829
303.816
303.806
303.797
303.787
303.779
303.77
303.763
303.755
303.747
303.738
303.729
303.717
303.702
303.683
303.661
303.639
303.621
303.61
303.606
303.61
303.623
)
;

boundaryField
{
    floor
    {
        type            wallHeatTransfer;
        Tinf            uniform 297.65;
        alphaWall       uniform 0.24;
        value           nonuniform List<scalar> 
29
(
301.87
301.969
302.152
302.147
302.126
302.099
302.065
302.028
301.992
301.957
301.923
301.891
301.86
301.83
301.801
301.77
301.735
301.701
301.686
301.846
301.846
302.11
302.242
302.363
301.87
301.969
302.132
302.07
301.908
)
;
    }
    ceiling
    {
        type            wallHeatTransfer;
        Tinf            uniform 297.65;
        alphaWall       uniform 0.24;
        value           nonuniform List<scalar> 
43
(
310.708
310.212
308.156
306.807
305.966
305.429
305.06
304.784
304.56
304.369
304.2
304.046
303.903
303.769
303.646
303.537
303.475
303.445
303.429
303.417
303.406
303.396
303.386
303.377
303.368
303.359
303.351
303.344
303.337
303.329
303.32
303.308
303.291
303.271
303.251
303.234
303.225
303.227
303.231
303.206
301.511
301.257
304.488
)
;
    }
    sWall
    {
        type            wallHeatTransfer;
        Tinf            uniform 298.15;
        alphaWall       uniform 0.36;
        value           uniform 310.207;
    }
    nWall
    {
        type            wallHeatTransfer;
        Tinf            uniform 299.15;
        alphaWall       uniform 0.36;
        value           nonuniform List<scalar> 6(302.905 303.038 303.154 303.264 303.218 303.171);
    }
    sideWalls
    {
        type            empty;
    }
    glass1
    {
        type            wallHeatTransfer;
        Tinf            uniform 298.15;
        alphaWall       uniform 4.3;
        value           nonuniform List<scalar> 9(299.981 300.145 300.197 300.184 300.152 300.092 299.997 299.858 299.633);
    }
    glass2
    {
        type            wallHeatTransfer;
        Tinf            uniform 299.15;
        alphaWall       uniform 4.3;
        value           nonuniform List<scalar> 2(301.492 301.6);
    }
    sun
    {
        type            wallHeatTransfer;
        Tinf            uniform 297.65;
        alphaWall       uniform 0.24;
        value           nonuniform List<scalar> 
14
(
302.043
302.097
302.119
302.12
302.11
302.095
302.081
302.065
302.048
302.031
302.011
301.988
301.961
301.925
)
;
    }
    heatsource1
    {
        type            fixedGradient;
        gradient        uniform 0;
    }
    heatsource2
    {
        type            fixedGradient;
        gradient        uniform 0;
    }
    Table_master
    {
        type            zeroGradient;
    }
    Table_slave
    {
        type            zeroGradient;
    }
    inlet
    {
        type            fixedValue;
        value           uniform 299.15;
    }
    outlet
    {
        type            zeroGradient;
    }
}


// ************************************************************************* //
