/*--------------------------------*- C++ -*----------------------------------*\
  =========                 |
  \\      /  F ield         | OpenFOAM: The Open Source CFD Toolbox
   \\    /   O peration     | Website:  https://openfoam.org
    \\  /    A nd           | Version:  6
     \\/     M anipulation  |
\*---------------------------------------------------------------------------*/
FoamFile
{
    version     2.0;
    format      ascii;
    class       volScalarField;
    location    "1200";
    object      alphat;
}
// * * * * * * * * * * * * * * * * * * * * * * * * * * * * * * * * * * * * * //

dimensions      [1 -1 -1 0 0 0 0];

internalField   nonuniform List<scalar> 
459
(
0.000850117
0.000900205
0.000856981
0.000856373
0.000858207
0.000860783
0.000850149
0.000833708
0.00081882
0.000808554
0.00080364
0.000803413
0.000806498
0.000810798
0.000810753
0.000311361
0.00030361
0.000293964
0.000280985
0.000263785
0.000251141
0.00023288
0.000241289
0.000259095
0.000279358
0.000299092
0.000314419
0.000319055
0.000309313
0.00029564
0.000284361
0.000269823
0.000256985
0.000240439
0.00138071
0.00331836
0.00315213
0.00335705
0.00352291
0.00364317
0.00392162
0.00410332
0.00405711
0.00387179
0.00363057
0.00335282
0.00300683
0.00251132
0.0017646
0.000907746
0.000589994
0.000451912
0.00112658
0.00120878
0.00109297
0.000857288
0.00053852
0.00035852
0.000423138
0.000572879
0.000742489
0.000890738
0.000991278
0.00102454
0.00094312
0.000832037
0.000859965
0.000716764
0.000576345
0.000344837
0.00177267
0.00562566
0.00556903
0.00568922
0.00514032
0.00453664
0.00468029
0.00524669
0.00558895
0.005546
0.00529337
0.00493593
0.0044794
0.00385889
0.002997
0.00196707
0.00100673
0.00071669
0.00215099
0.00206825
0.00169553
0.00127376
0.000882526
0.000299005
0.000298604
0.0003239
0.000348435
0.000373123
0.000400579
0.000435779
0.000486984
0.000567408
0.00151029
0.00148689
0.00168266
0.000560473
0.00186602
0.00338096
0.00390371
0.00468336
0.00544083
0.00570461
0.005281
0.00543449
0.00613375
0.00647003
0.00646445
0.00628993
0.00599159
0.00551337
0.00473211
0.0035358
0.00205194
0.00102417
0.00268024
0.00320356
0.00271209
0.00208727
0.00152137
0.00106054
0.000726374
0.000722438
0.000719111
0.000716198
0.00071533
0.000718533
0.000728878
0.0007522
0.000801439
0.00216542
0.00219508
0.00247844
0.000797352
0.00339962
0.00319185
0.00317719
0.00355491
0.00436297
0.00515498
0.00534026
0.00541836
0.00606139
0.00677064
0.00711189
0.00726133
0.00732275
0.00730808
0.00718388
0.00690281
0.00645372
0.00593957
0.00579284
0.00545176
0.00511176
0.00483841
0.00462283
0.00442593
0.00425984
0.00415321
0.0040429
0.00392215
0.0037907
0.00364956
0.00350016
0.00334414
0.00318091
0.00300535
0.002575
0.00205498
0.00154309
0.000836718
0.000862806
0.00084316
0.00400253
0.00393124
0.00343655
0.00336975
0.00393209
0.00472654
0.00511082
0.00503775
0.00563781
0.00648566
0.00710643
0.00752357
0.00786011
0.00813129
0.00830878
0.00834681
0.00819986
0.00787007
0.00747577
0.00710633
0.0068131
0.00658649
0.00640363
0.00624422
0.00609302
0.00594022
0.00577986
0.00560871
0.00542509
0.00522812
0.00501701
0.00479059
0.00454609
0.00427509
0.00396004
0.003607
0.00323324
0.00289819
0.00266844
0.00105582
0.00456389
0.00474661
0.00390689
0.00338523
0.00381356
0.00459945
0.00500728
0.00494528
0.00502208
0.00579819
0.00658088
0.00715661
0.00769449
0.00819689
0.00861086
0.00887557
0.00893804
0.00879206
0.00851775
0.00821699
0.00794739
0.00771845
0.00752185
0.00734553
0.00717742
0.0070092
0.00683677
0.00665642
0.00646527
0.00626141
0.00604387
0.005813
0.00557068
0.00531826
0.00505277
0.00476748
0.00445612
0.00415957
0.0040667
0.00124555
0.00522668
0.00595132
0.00545396
0.00352107
0.00404398
0.0048766
0.00521338
0.0051267
0.00512851
0.00549152
0.00595982
0.00648431
0.00708217
0.00771649
0.00831802
0.00880128
0.00909395
0.00916349
0.00906799
0.00888599
0.00867907
0.00847595
0.00828424
0.00810297
0.00792819
0.00775607
0.00758363
0.00740741
0.00722396
0.00703022
0.00682394
0.00660407
0.00637089
0.00612443
0.00586232
0.00558225
0.00529285
0.00503713
0.00493044
0.00142475
0.00619234
0.00782363
0.012702
0.00442613
0.0040588
0.00535958
0.00575388
0.00557819
0.00551327
0.00562188
0.00586374
0.00628023
0.00680358
0.00737992
0.00796017
0.0084775
0.00887763
0.00912128
0.00921301
0.00918627
0.00908923
0.00895679
0.00880625
0.00864627
0.00848208
0.0083167
0.00815123
0.00798481
0.00781521
0.00763939
0.0074541
0.00725644
0.00704397
0.0068137
0.0065602
0.00627502
0.00595207
0.00559885
0.00512585
0.00155184
0.0216041
0.0120919
0.00416277
0.00561369
0.00630478
0.00617611
0.00620927
0.00635336
0.00667736
0.00714774
0.00765907
0.00812543
0.00851841
0.00882756
0.00907902
0.00927804
0.00941753
0.00948354
0.00948774
0.00944135
0.00935301
0.0092345
0.00909767
0.00895159
0.00880204
0.00865168
0.00850059
0.00834689
0.00818738
0.008018
0.00783421
0.00763071
0.0073999
0.00712743
0.00678215
0.00629227
0.00539343
0.00176321
0.00873926
0.011413
0.00775184
0.00591734
0.00532048
0.00529013
0.00565594
0.00633478
0.0071817
0.00802808
0.00873165
0.00918715
0.00943988
0.00957029
0.00964755
0.00970717
0.00976189
0.00981015
0.00984281
0.00983902
0.00978737
0.00970234
0.00959808
0.00948491
0.00936919
0.00925416
0.00914078
0.00902831
0.00891458
0.00879593
0.00866685
0.00851914
0.00834059
0.00811312
0.00780681
0.00734641
0.00639955
0.00216086
0.0013595
0.00176218
0.0051437
0.00464503
0.00404708
0.00352775
0.0031243
0.00281659
0.00258595
0.00242448
0.00232801
0.002287
0.00228334
0.00230099
0.00231899
0.00232872
0.00232881
0.00232192
0.00231092
0.00229795
0.00228358
0.00226861
0.00225362
0.00223735
0.00221967
0.00220101
0.0021819
0.00216285
0.0021442
0.0021262
0.00210897
0.00209245
0.00207638
0.00206013
0.00204243
0.00202115
0.00199279
0.0019503
0.00186821
0.00162175
)
;

boundaryField
{
    floor
    {
        type            compressible::alphatWallFunction;
        Prt             0.85;
        value           nonuniform List<scalar> 
29
(
0.000115494
3.95809e-05
3.83231e-05
3.67527e-05
3.46199e-05
3.17706e-05
2.96605e-05
2.65749e-05
2.79956e-05
3.09795e-05
3.4343e-05
3.75881e-05
4.00898e-05
4.08422e-05
3.92583e-05
3.70236e-05
3.51689e-05
3.27634e-05
3.06232e-05
2.78432e-05
2.78427e-05
4.49859e-05
7.85119e-05
0.000113562
0.000115492
3.95804e-05
6.19354e-05
0.000101779
0.000145885
)
;
    }
    ceiling
    {
        type            compressible::alphatWallFunction;
        Prt             0.85;
        value           nonuniform List<scalar> 
43
(
0.000192678
0.000246621
0.000664833
0.00060559
0.000533702
0.000470394
0.00042056
0.000382105
0.000352994
0.00033245
0.000320107
0.000314839
0.000314362
0.000316618
0.000318915
0.000320149
0.00032015
0.000319257
0.000317836
0.000316163
0.000314308
0.000312375
0.000310439
0.000308334
0.000306048
0.000303634
0.000301163
0.000298696
0.000296281
0.000293949
0.000291715
0.000289572
0.000287486
0.000285373
0.000283071
0.000280299
0.0002766
0.000271048
0.00026029
0.000227677
0.000787501
0.000974575
0.00107801
)
;
    }
    sWall
    {
        type            compressible::alphatWallFunction;
        Prt             0.85;
        value           uniform 0.000191908;
    }
    nWall
    {
        type            compressible::alphatWallFunction;
        Prt             0.85;
        value           nonuniform List<scalar> 6(0.000120102 0.000150235 0.000176528 0.000246246 0.000298165 0.000227449);
    }
    sideWalls
    {
        type            empty;
    }
    glass1
    {
        type            compressible::alphatWallFunction;
        Prt             0.85;
        value           nonuniform List<scalar> 9(0.000118464 0.000191476 0.000243469 0.000255833 0.000451535 0.000525233 0.000592647 0.000671196 0.000783967);
    }
    glass2
    {
        type            compressible::alphatWallFunction;
        Prt             0.85;
        value           nonuniform List<scalar> 2(0.000201081 0.000218253);
    }
    sun
    {
        type            compressible::alphatWallFunction;
        Prt             0.85;
        value           nonuniform List<scalar> 
14
(
0.000121145
0.000128302
0.000122123
0.00012204
0.000122308
0.000122682
0.00012116
0.0001188
0.000116657
0.000115177
0.000114467
0.000114434
0.000114879
0.0001155
)
;
    }
    heatsource1
    {
        type            compressible::alphatWallFunction;
        Prt             0.85;
        value           nonuniform List<scalar> 3(0.00011915 0.000122894 0.000120087);
    }
    heatsource2
    {
        type            compressible::alphatWallFunction;
        Prt             0.85;
        value           nonuniform List<scalar> 4(0.000129344 8.29905e-05 8.29895e-05 0.000143367);
    }
    Table_master
    {
        type            compressible::alphatWallFunction;
        Prt             0.85;
        value           nonuniform List<scalar> 9(3.76111e-05 3.75459e-05 4.16649e-05 4.56185e-05 4.95586e-05 5.38988e-05 5.94065e-05 6.73208e-05 7.95502e-05);
    }
    Table_slave
    {
        type            compressible::alphatWallFunction;
        Prt             0.85;
        value           nonuniform List<scalar> 9(0.000103183 0.000102605 0.000102117 0.000101689 0.000101562 0.00010203 0.000103542 0.000106944 0.000114085);
    }
    inlet
    {
        type            fixedValue;
        value           uniform 1.94e-05;
    }
    outlet
    {
        type            zeroGradient;
    }
}


// ************************************************************************* //
