/*--------------------------------*- C++ -*----------------------------------*\
  =========                 |
  \\      /  F ield         | OpenFOAM: The Open Source CFD Toolbox
   \\    /   O peration     | Website:  https://openfoam.org
    \\  /    A nd           | Version:  6
     \\/     M anipulation  |
\*---------------------------------------------------------------------------*/
FoamFile
{
    version     2.0;
    format      ascii;
    class       volScalarField;
    location    "460";
    object      alphat;
}
// * * * * * * * * * * * * * * * * * * * * * * * * * * * * * * * * * * * * * //

dimensions      [1 -1 -1 0 0 0 0];

internalField   nonuniform List<scalar> 
459
(
0.000790754
0.000884326
0.000931894
0.000988247
0.00104369
0.00110331
0.00115968
0.00120666
0.00123692
0.00123879
0.00116495
0.00107954
0.000972678
0.000869662
0.000765415
0.000473291
0.000628657
0.000722494
0.00074025
0.000736136
0.000716153
0.000676669
0.000634228
0.000595085
0.000560141
0.000529041
0.000501384
0.000476695
0.000454169
0.000432876
0.000411559
0.000388251
0.000353016
0.000315972
0.000976507
0.00248045
0.00253193
0.00296602
0.00341213
0.00376103
0.00409362
0.0044328
0.00476534
0.00504925
0.00512452
0.00487972
0.00442583
0.00345901
0.00223156
0.000884337
0.000738383
0.000710308
0.002472
0.00253922
0.00288723
0.00309714
0.00296452
0.00211244
0.00175918
0.00153098
0.00136491
0.00123766
0.0011349
0.00104176
0.000951284
0.000858383
0.000774041
0.000721216
0.000589116
0.000373919
0.00113113
0.00340812
0.00322205
0.00361226
0.00385803
0.00403887
0.00425021
0.00455283
0.00499829
0.00553736
0.00591673
0.00596049
0.00573525
0.00511217
0.00401664
0.00247741
0.000843813
0.000750753
0.00218013
0.00291312
0.00360082
0.00400644
0.00362161
0.000907063
0.000793458
0.00070262
0.000630332
0.000572384
0.000525494
0.000487721
0.000457834
0.000436046
0.000493799
0.000607041
0.000639627
0.000406146
0.00127829
0.00408636
0.00336941
0.00368316
0.0036975
0.00372501
0.00382256
0.00408835
0.00462955
0.00533891
0.00587641
0.00612252
0.00610546
0.00581229
0.00511373
0.0039191
0.00204004
0.000938912
0.00144491
0.00237351
0.00353253
0.00447391
0.00495966
0.0044172
0.000998981
0.000909472
0.000845725
0.000796928
0.000755506
0.00071749
0.000680615
0.000641451
0.000595859
0.000555717
0.00058948
0.000718145
0.000451706
0.00143096
0.00487453
0.00352515
0.00372366
0.00362999
0.00354737
0.00354311
0.00378697
0.00441135
0.00517565
0.00579316
0.00611715
0.00618201
0.00605844
0.00570496
0.00505508
0.00409704
0.00380352
0.00440609
0.00515863
0.00580486
0.00621499
0.00634351
0.00606315
0.00489737
0.00435698
0.00405576
0.00384216
0.00363727
0.00336104
0.00298344
0.00251135
0.00197309
0.0014482
0.00107922
0.000993366
0.000709642
0.000510946
0.00051265
0.000513389
0.00159907
0.00582145
0.00428057
0.00394812
0.00388262
0.00360544
0.00348139
0.00371234
0.00436453
0.00519842
0.00586936
0.00620959
0.0062857
0.0062634
0.00621815
0.00611491
0.00600497
0.00634047
0.00687576
0.00726228
0.0074486
0.00743417
0.00724701
0.00690172
0.00638257
0.00594844
0.00560331
0.00529858
0.00499494
0.00465753
0.00423212
0.00371402
0.00311115
0.00247119
0.00190141
0.00155461
0.00122064
0.000987116
0.00114744
0.000675475
0.00175735
0.00653647
0.00562347
0.00471222
0.00431728
0.00376238
0.00350268
0.00375893
0.00450465
0.00543245
0.00614731
0.00648603
0.00658202
0.00671028
0.00694049
0.00716855
0.00744239
0.00786036
0.00817867
0.00824997
0.00810962
0.00780423
0.00738905
0.00691651
0.00643345
0.00602235
0.0056706
0.00534602
0.00502498
0.00470074
0.00436681
0.00402765
0.00360778
0.00312905
0.00263208
0.00222165
0.00183396
0.00151573
0.00148744
0.000808078
0.00179918
0.00589565
0.00531571
0.00483487
0.0041156
0.00352147
0.00340129
0.00389093
0.00485457
0.00590405
0.00662776
0.00694567
0.00708707
0.00731994
0.00748616
0.00769738
0.0079776
0.00824062
0.00832518
0.00814892
0.00777302
0.00726591
0.00670026
0.00614743
0.00566413
0.00527179
0.00494399
0.00465171
0.00437781
0.0041136
0.00386214
0.0036526
0.00351074
0.00333768
0.00308432
0.00286188
0.00263006
0.00224195
0.00249526
0.00104524
0.0017716
0.00209305
0.00227025
0.0022687
0.00226569
0.00248496
0.00314341
0.00425808
0.00556778
0.00666427
0.00723858
0.00746202
0.00741646
0.00727132
0.00724208
0.00734604
0.00748972
0.00753983
0.00740692
0.0070956
0.00664779
0.00613488
0.00563492
0.00519994
0.00484079
0.00454045
0.00427147
0.00401232
0.00374944
0.00346722
0.00314899
0.00281214
0.00251882
0.00230481
0.00214236
0.0020005
0.00187279
0.00175747
0.00167594
0.00110878
0.000470832
0.00101294
0.0019271
0.00318872
0.00466156
0.00605433
0.00705762
0.00756013
0.00752402
0.00716721
0.00684237
0.00667481
0.00663065
0.00663639
0.00661556
0.00651061
0.00631373
0.00606159
0.00580084
0.00556362
0.00535848
0.00517497
0.00499068
0.00478791
0.00455304
0.00427591
0.00395643
0.00360548
0.00323902
0.0028743
0.00254837
0.00228888
0.0021104
0.00199936
0.00191574
0.00182131
0.00172504
0.00123537
0.00158709
0.00580178
0.00750873
0.00817164
0.0082864
0.00822187
0.00796374
0.00750361
0.00697134
0.00656166
0.00633837
0.00624587
0.00621574
0.00620465
0.00619009
0.00616088
0.00611617
0.00606375
0.00601323
0.00597087
0.0059364
0.00590326
0.00585896
0.0057892
0.00567831
0.0055094
0.00526868
0.00495008
0.00455734
0.00410577
0.00364234
0.00320665
0.0028336
0.00253671
0.00230272
0.00212945
0.00270948
0.00136407
0.00172678
0.0018312
0.00194146
0.00222883
0.00214916
0.00201279
0.00189329
0.00179602
0.00170271
0.00161353
0.00154319
0.00149966
0.00147802
0.00146979
0.00146886
0.00147101
0.00147325
0.00147372
0.00147203
0.00146891
0.00146532
0.00146173
0.00145801
0.00145342
0.0014469
0.00143691
0.00142171
0.0014
0.00137132
0.0013365
0.00129808
0.0012601
0.00122547
0.00119745
0.00117791
0.00116595
0.00115481
0.0011334
0.00113778
0.00111659
)
;

boundaryField
{
    floor
    {
        type            compressible::alphatWallFunction;
        Prt             0.85;
        value           nonuniform List<scalar> 
29
(
0.000108955
6.53172e-05
8.88449e-05
0.000102701
0.000105298
0.000104698
0.000101774
9.59673e-05
8.96794e-05
8.38341e-05
7.85756e-05
7.38612e-05
6.96395e-05
6.58459e-05
6.23631e-05
5.90504e-05
5.57132e-05
5.20383e-05
4.64278e-05
4.04488e-05
4.04482e-05
4.97647e-05
5.4863e-05
6.19828e-05
0.000108953
6.53163e-05
0.000100912
0.000106822
0.000133864
)
;
    }
    ceiling
    {
        type            compressible::alphatWallFunction;
        Prt             0.85;
        value           nonuniform List<scalar> 
43
(
0.000241451
0.000255233
0.000269693
0.000306979
0.000296704
0.000279016
0.00026341
0.000250627
0.000238291
0.000226433
0.000217029
0.000211186
0.000208275
0.000207167
0.000207042
0.000207332
0.000207634
0.000207697
0.000207469
0.000207049
0.000206564
0.00020608
0.000205578
0.000204958
0.000204077
0.000202728
0.000200672
0.000197733
0.000193841
0.000189105
0.000183862
0.00017866
0.000173903
0.000170041
0.000167343
0.000165688
0.000164144
0.000161175
0.000161784
0.000158843
0.000247389
0.000289431
0.000222861
)
;
    }
    sWall
    {
        type            compressible::alphatWallFunction;
        Prt             0.85;
        value           uniform 0.000241178;
    }
    nWall
    {
        type            compressible::alphatWallFunction;
        Prt             0.85;
        value           nonuniform List<scalar> 6(7.12731e-05 9.55746e-05 0.000114923 0.000175022 0.000192611 0.000158605);
    }
    sideWalls
    {
        type            empty;
    }
    glass1
    {
        type            compressible::alphatWallFunction;
        Prt             0.85;
        value           nonuniform List<scalar> 9(0.000111953 0.00013842 0.000160006 0.000180244 0.000200965 0.000223499 0.000244482 0.000250004 0.000246394);
    }
    glass2
    {
        type            compressible::alphatWallFunction;
        Prt             0.85;
        value           nonuniform List<scalar> 2(0.000148208 0.000157081);
    }
    sun
    {
        type            compressible::alphatWallFunction;
        Prt             0.85;
        value           nonuniform List<scalar> 
14
(
0.00011263
0.000126088
0.000132865
0.000140841
0.000148637
0.000156967
0.000164795
0.000171285
0.000175449
0.000175705
0.000165523
0.000153653
0.000138645
0.000123993
)
;
    }
    heatsource1
    {
        type            compressible::alphatWallFunction;
        Prt             0.85;
        value           nonuniform List<scalar> 3(7.10219e-05 7.12818e-05 7.13941e-05);
    }
    heatsource2
    {
        type            compressible::alphatWallFunction;
        Prt             0.85;
        value           nonuniform List<scalar> 4(0.000126015 0.000104941 0.00010494 0.000120207);
    }
    Table_master
    {
        type            compressible::alphatWallFunction;
        Prt             0.85;
        value           nonuniform List<scalar> 9(0.000129256 0.000112945 9.9702e-05 8.9015e-05 8.03394e-05 7.32396e-05 6.74627e-05 6.28517e-05 5.94663e-05);
    }
    Table_slave
    {
        type            compressible::alphatWallFunction;
        Prt             0.85;
        value           nonuniform List<scalar> 9(0.00014228 0.000129603 0.000120485 0.00011345 0.000107438 0.000101885 9.64648e-05 9.06688e-05 8.38666e-05);
    }
    inlet
    {
        type            fixedValue;
        value           uniform 1.94e-05;
    }
    outlet
    {
        type            zeroGradient;
    }
}


// ************************************************************************* //
