/*--------------------------------*- C++ -*----------------------------------*\
  =========                 |
  \\      /  F ield         | OpenFOAM: The Open Source CFD Toolbox
   \\    /   O peration     | Website:  https://openfoam.org
    \\  /    A nd           | Version:  6
     \\/     M anipulation  |
\*---------------------------------------------------------------------------*/
FoamFile
{
    version     2.0;
    format      ascii;
    class       volScalarField;
    location    "460";
    object      nut;
}
// * * * * * * * * * * * * * * * * * * * * * * * * * * * * * * * * * * * * * //

dimensions      [0 2 -1 0 0 0 0];

internalField   nonuniform List<scalar> 
459
(
0.00067596
0.00075586
0.000796518
0.000844688
0.000892082
0.000943043
0.000991235
0.0010314
0.00105728
0.00105893
0.000995879
0.000922899
0.000831551
0.000743484
0.00065435
0.000404803
0.000537705
0.000617976
0.000633189
0.000629695
0.000612619
0.000578854
0.000542555
0.000509076
0.000479187
0.000452587
0.000428931
0.000407814
0.000388547
0.000370334
0.000352101
0.000332164
0.000302023
0.000270332
0.000834817
0.00212018
0.00216417
0.00253521
0.00291651
0.00321472
0.003499
0.00378893
0.00407327
0.00431624
0.00438101
0.00417197
0.00378401
0.0029574
0.00190791
0.000756084
0.000631304
0.000607535
0.00211431
0.00217191
0.00246975
0.00264948
0.00253616
0.00180725
0.00150505
0.00130984
0.00116777
0.00105892
0.000971013
0.000891334
0.000813937
0.000734455
0.000662293
0.000617092
0.00050406
0.000319935
0.000967081
0.00291321
0.0027541
0.00308764
0.0032977
0.00345226
0.00363285
0.00389147
0.00427231
0.00473351
0.00505843
0.0050963
0.00490395
0.00437121
0.00343441
0.00211827
0.000721482
0.000642064
0.0018646
0.00249174
0.00308029
0.00342762
0.00309863
0.000776085
0.000678893
0.000601179
0.000539336
0.000489761
0.000449648
0.000417334
0.000391766
0.000373126
0.000422549
0.000519446
0.000547319
0.000347531
0.001093
0.0034931
0.00288015
0.00314834
0.00316061
0.0031841
0.0032674
0.00349444
0.00395706
0.00456387
0.00502411
0.00523519
0.00522099
0.00497038
0.00437294
0.00335128
0.00174442
0.000802867
0.00123564
0.00202999
0.00302171
0.00382756
0.00424371
0.00377996
0.000854943
0.000778397
0.000723882
0.000682154
0.00064673
0.000614215
0.000582672
0.000549164
0.000510145
0.000475707
0.000504537
0.000614591
0.000386547
0.00122366
0.00416702
0.00301338
0.00318309
0.00310306
0.00303246
0.00302865
0.00323685
0.00377052
0.0044243
0.00495309
0.00523103
0.00528709
0.0051816
0.00487921
0.00432327
0.00350384
0.00325294
0.00376865
0.00441292
0.00496651
0.00531825
0.00542899
0.00518967
0.00419228
0.00373001
0.00347237
0.00328968
0.00311441
0.00287798
0.00255471
0.00215048
0.00168954
0.00123998
0.000923917
0.000850281
0.000607352
0.000437301
0.000438769
0.000439445
0.00136753
0.0049768
0.0036593
0.00337513
0.00331924
0.00308229
0.00297598
0.00317308
0.00373048
0.0044438
0.0050185
0.00531066
0.00537659
0.00535785
0.00531913
0.0052307
0.00513665
0.00542399
0.00588259
0.00621419
0.00637462
0.00636323
0.00620386
0.00590892
0.00546496
0.00509362
0.00479836
0.00453763
0.00427774
0.00398887
0.00362456
0.0031808
0.00266443
0.00211621
0.0016281
0.00133097
0.0010449
0.000844961
0.00098218
0.000578222
0.00150303
0.00558855
0.0048077
0.00402867
0.00369113
0.00321659
0.00299419
0.00321284
0.00385019
0.00464397
0.00525662
0.00554792
0.00563117
0.00574141
0.00593845
0.00613354
0.00636802
0.00672625
0.00699952
0.00706156
0.00694243
0.00668186
0.00632709
0.00592299
0.0055097
0.00515789
0.00485682
0.00457893
0.00430403
0.00402633
0.00374029
0.00344974
0.00309002
0.00267986
0.00225405
0.00190237
0.00157021
0.00129764
0.00127336
0.00069178
0.001539
0.00504165
0.00454544
0.00413423
0.00351907
0.00301066
0.00290735
0.00332544
0.00414919
0.00504744
0.00566832
0.00594242
0.00606483
0.00626473
0.00640713
0.006588
0.00682818
0.00705403
0.00712731
0.0069773
0.00665621
0.00622257
0.00573857
0.00526538
0.0048516
0.00451563
0.00423489
0.00398454
0.0037499
0.00352354
0.00330809
0.00312855
0.00300697
0.00285864
0.00264148
0.0024508
0.00225208
0.00191961
0.00213638
0.000894986
0.00151565
0.00179041
0.00194182
0.00194033
0.0019373
0.0021241
0.00268627
0.00363866
0.00475875
0.00569831
0.00619248
0.00638636
0.00634867
0.00622494
0.00620012
0.00628936
0.00641281
0.00645632
0.00634315
0.00607708
0.00569395
0.00525492
0.00482683
0.00445431
0.00414668
0.00388937
0.00365892
0.00343686
0.00321161
0.00296979
0.00269713
0.00240854
0.00215724
0.00197388
0.0018347
0.00171317
0.00160377
0.00150502
0.00143522
0.000949593
0.000401561
0.000864096
0.00164427
0.0027216
0.00398047
0.00517257
0.00603345
0.00646753
0.00644018
0.00613643
0.00585903
0.00571589
0.00567831
0.00568349
0.00566599
0.00557646
0.00540816
0.00519241
0.00496919
0.00476604
0.00459031
0.00443307
0.00427513
0.00410135
0.00390007
0.00366259
0.00338884
0.00308816
0.0027742
0.00246176
0.00218256
0.00196028
0.00180739
0.00171227
0.00164066
0.00155982
0.00147744
0.00105818
0.00135416
0.00495348
0.00641508
0.0069852
0.00708626
0.0070339
0.00681567
0.00642397
0.00596963
0.00561956
0.00542872
0.00534973
0.00532413
0.00531482
0.00530253
0.00527768
0.0052395
0.00519465
0.00515138
0.00511506
0.00508545
0.00505698
0.00501893
0.00495907
0.00486397
0.00471918
0.0045129
0.00423992
0.00390345
0.00351661
0.00311963
0.00274642
0.00242687
0.00217258
0.00197217
0.0018238
0.00232067
0.00116841
0.00147575
0.00156495
0.00165917
0.0019059
0.00183865
0.0017226
0.00162075
0.00153779
0.00145812
0.00138192
0.00132179
0.00128458
0.00126609
0.00125907
0.00125829
0.00126015
0.00126208
0.00126248
0.00126103
0.00125835
0.00125525
0.00125216
0.00124895
0.00124499
0.00123938
0.00123079
0.00121775
0.00119914
0.00117456
0.00114473
0.00111181
0.00107927
0.0010496
0.0010256
0.00100886
0.000998611
0.000989064
0.000970735
0.000974501
0.000956441
)
;

boundaryField
{
    floor
    {
        type            nutkWallFunction;
        Cmu             0.09;
        kappa           0.41;
        E               9.8;
        value           nonuniform List<scalar> 
29
(
7.91192e-05
4.74367e-05
6.45367e-05
7.46084e-05
7.64987e-05
7.6065e-05
7.39417e-05
6.97218e-05
6.51517e-05
6.09034e-05
5.70815e-05
5.36553e-05
5.05871e-05
4.78302e-05
4.52991e-05
4.28917e-05
4.04666e-05
3.77962e-05
3.37191e-05
2.93743e-05
2.93743e-05
3.61472e-05
3.9855e-05
4.50337e-05
7.91192e-05
4.74367e-05
7.33073e-05
7.75971e-05
9.72381e-05
)
;
    }
    ceiling
    {
        type            nutkWallFunction;
        Cmu             0.09;
        kappa           0.41;
        E               9.8;
        value           nonuniform List<scalar> 
43
(
0.000175344
0.00018535
0.000195853
0.000223062
0.000215691
0.000202896
0.00019159
0.000182322
0.00017337
0.000164758
0.000157925
0.000153678
0.000151563
0.00015076
0.000150672
0.000150885
0.000151106
0.000151152
0.000150985
0.000150678
0.000150323
0.000149968
0.0001496
0.000149146
0.000148502
0.000147517
0.000146018
0.000143877
0.000141042
0.000137592
0.000133775
0.000129987
0.000126524
0.000123712
0.000121748
0.000120542
0.000119418
0.000117258
0.000117703
0.000115571
0.00017983
0.000210375
0.000161598
)
;
    }
    sWall
    {
        type            nutkWallFunction;
        Cmu             0.09;
        kappa           0.41;
        E               9.8;
        value           uniform 0.000175355;
    }
    nWall
    {
        type            nutkWallFunction;
        Cmu             0.09;
        kappa           0.41;
        E               9.8;
        value           nonuniform List<scalar> 6(5.1936e-05 6.96315e-05 8.37211e-05 0.00012753 0.000140337 0.000115575);
    }
    sideWalls
    {
        type            empty;
    }
    glass1
    {
        type            nutkWallFunction;
        Cmu             0.09;
        kappa           0.41;
        E               9.8;
        value           nonuniform List<scalar> 9(8.17753e-05 0.000101088 0.000116837 0.000131601 0.000146715 0.000163151 0.000178454 0.00018249 0.000179872);
    }
    glass2
    {
        type            nutkWallFunction;
        Cmu             0.09;
        kappa           0.41;
        E               9.8;
        value           nonuniform List<scalar> 2(0.000108283 0.000114768);
    }
    sun
    {
        type            nutkWallFunction;
        Cmu             0.09;
        kappa           0.41;
        E               9.8;
        value           nonuniform List<scalar> 
14
(
8.17838e-05
9.15515e-05
9.64744e-05
0.000102269
0.000107932
0.000113983
0.000119671
0.000124386
0.000127414
0.000127605
0.000120216
0.000111595
0.000100691
9.00466e-05
)
;
    }
    heatsource1
    {
        type            nutkWallFunction;
        Cmu             0.09;
        kappa           0.41;
        E               9.8;
        value           nonuniform List<scalar> 3(5.16669e-05 5.18571e-05 5.19439e-05);
    }
    heatsource2
    {
        type            nutkWallFunction;
        Cmu             0.09;
        kappa           0.41;
        E               9.8;
        value           nonuniform List<scalar> 4(9.15777e-05 7.62637e-05 7.62637e-05 8.73628e-05);
    }
    Table_master
    {
        type            nutkWallFunction;
        Cmu             0.09;
        kappa           0.41;
        E               9.8;
        value           nonuniform List<scalar> 9(9.40043e-05 8.21427e-05 7.25122e-05 6.47407e-05 5.84318e-05 5.3269e-05 4.90681e-05 4.57151e-05 4.32532e-05);
    }
    Table_slave
    {
        type            nutkWallFunction;
        Cmu             0.09;
        kappa           0.41;
        E               9.8;
        value           nonuniform List<scalar> 9(0.000103499 9.42844e-05 8.76566e-05 8.25432e-05 7.81727e-05 7.41359e-05 7.01949e-05 6.59797e-05 6.10314e-05);
    }
    inlet
    {
        type            calculated;
        value           uniform 0.000100623;
    }
    outlet
    {
        type            calculated;
        value           nonuniform List<scalar> 2(0.00147575 0.00156495);
    }
}


// ************************************************************************* //
