/*--------------------------------*- C++ -*----------------------------------*\
  =========                 |
  \\      /  F ield         | OpenFOAM: The Open Source CFD Toolbox
   \\    /   O peration     | Website:  https://openfoam.org
    \\  /    A nd           | Version:  6
     \\/     M anipulation  |
\*---------------------------------------------------------------------------*/
FoamFile
{
    version     2.0;
    format      ascii;
    class       volScalarField;
    location    "500";
    object      nut;
}
// * * * * * * * * * * * * * * * * * * * * * * * * * * * * * * * * * * * * * //

dimensions      [0 2 -1 0 0 0 0];

internalField   nonuniform List<scalar> 
459
(
0.000704886
0.000730344
0.000700897
0.00072857
0.000755231
0.000779562
0.00080203
0.000823386
0.000844586
0.000865758
0.000882859
0.000894098
0.000897638
0.000892024
0.000873964
0.000472453
0.000555504
0.000568562
0.000575711
0.000568428
0.000536114
0.000488647
0.000445723
0.000403539
0.000361546
0.000320506
0.000282207
0.000248647
0.000221172
0.000199983
0.000186387
0.000220111
0.000452879
0.00035195
0.00114483
0.00186528
0.00147516
0.00182714
0.00198594
0.00215511
0.0023283
0.00249224
0.00262726
0.0027205
0.00277404
0.00275765
0.00262152
0.00228807
0.00167607
0.000908703
0.000649884
0.000651137
0.00226579
0.00210713
0.00181655
0.00149497
0.00119208
0.00102942
0.0008985
0.000763938
0.000645599
0.000555221
0.000490267
0.000445633
0.000417052
0.000399863
0.000396873
0.000380025
0.00095684
0.000464567
0.00154481
0.00297601
0.00155631
0.00258459
0.00284781
0.00301614
0.00315748
0.00327434
0.00336648
0.0034321
0.00346757
0.00344012
0.00330102
0.00298084
0.0024173
0.00166033
0.000927936
0.000808357
0.00258237
0.00223452
0.00169487
0.00125001
0.00090226
0.000395521
0.000352381
0.00032772
0.000299511
0.000276885
0.00026093
0.000248425
0.000238744
0.00023456
0.0003785
0.000492644
0.00150687
0.00054907
0.00194159
0.00453068
0.00162213
0.00283903
0.00332806
0.00348467
0.00358806
0.00366756
0.00373356
0.00378869
0.00384101
0.00387317
0.00384678
0.00368831
0.00328973
0.00256706
0.00162932
0.000958173
0.00162365
0.00224234
0.00190779
0.00149282
0.00117052
0.000881149
0.000649897
0.000661642
0.000679068
0.000700653
0.000712045
0.000719598
0.000717814
0.000699363
0.000661632
0.000704219
0.000778329
0.00133673
0.000710395
0.00232729
0.00640138
0.0021173
0.00264331
0.00351503
0.00370909
0.00379498
0.00385076
0.00389714
0.00394689
0.00401864
0.00413445
0.00428291
0.00442267
0.0044754
0.00434292
0.00396459
0.0033412
0.00261834
0.00243841
0.00219466
0.00200203
0.00191452
0.00190285
0.00196408
0.0020919
0.00225966
0.00245359
0.0025828
0.0026301
0.00261709
0.00253019
0.00234898
0.00200109
0.00161127
0.00124838
0.00123886
0.00074019
0.000757654
0.000873151
0.00270376
0.00825164
0.0034892
0.0023471
0.00327402
0.00366975
0.00382935
0.00389951
0.00391483
0.00391172
0.00394528
0.00406825
0.00427218
0.00454156
0.00481961
0.00498714
0.00489328
0.00445674
0.00377837
0.00310387
0.0026012
0.00230498
0.0021171
0.00198911
0.00193989
0.00199021
0.00214027
0.00236368
0.00258861
0.00273015
0.00280059
0.00280947
0.00274828
0.00253525
0.00219858
0.00162353
0.00138956
0.00113017
0.00142634
0.0009355
0.00306889
0.00971562
0.00611771
0.00322853
0.0025723
0.00290079
0.00338263
0.00373062
0.00389963
0.00382385
0.00379219
0.00385573
0.00399061
0.0042068
0.00449447
0.00477726
0.00490809
0.00475174
0.00429657
0.00369452
0.00315414
0.00275015
0.00241573
0.00211642
0.00188454
0.00178934
0.00186872
0.00209478
0.00236719
0.00258421
0.00273969
0.00284375
0.00291835
0.00290907
0.00266644
0.00226153
0.00195731
0.00180327
0.00176421
0.00110667
0.00316058
0.00987203
0.00781017
0.00604813
0.00441125
0.00344578
0.00323129
0.00344024
0.00373909
0.00373864
0.00368143
0.00366167
0.0036903
0.0037703
0.00390819
0.00409494
0.00426617
0.00430668
0.0041418
0.00382157
0.00347083
0.00315351
0.00281714
0.00244455
0.0020527
0.00175899
0.00170274
0.0019054
0.00223348
0.00251635
0.00270696
0.00285889
0.00303629
0.00328644
0.00349329
0.00340601
0.0036029
0.00383785
0.00423025
0.00156081
0.00308371
0.00371579
0.00414727
0.00430187
0.00416859
0.00384262
0.00354557
0.00337186
0.00330755
0.00328451
0.0032915
0.00331202
0.00333494
0.00335626
0.00338011
0.00341463
0.00345718
0.00347952
0.00344309
0.00334
0.00320041
0.0030581
0.00291777
0.00272497
0.00236795
0.00188663
0.0016055
0.00171583
0.00209135
0.00246604
0.00265936
0.00272678
0.00273083
0.002706
0.00267854
0.00264297
0.00254531
0.0023552
0.00216071
0.0014537
0.00236587
0.0038985
0.00407095
0.0039652
0.00378877
0.00362365
0.00349364
0.00338848
0.00329893
0.00321753
0.00313648
0.0030512
0.00296208
0.00287417
0.00279429
0.00272576
0.00266577
0.00261025
0.00256002
0.00252088
0.00249724
0.00247061
0.00237069
0.00207958
0.00155749
0.00143778
0.00178272
0.00230553
0.00263229
0.00278429
0.00285266
0.00286743
0.00281816
0.00270029
0.00250835
0.00224713
0.00194445
0.00119364
0.00229451
0.00425871
0.00431121
0.00413298
0.00394909
0.00375582
0.0035678
0.00339275
0.00321444
0.00301595
0.00281462
0.00262043
0.00243939
0.00227552
0.00213196
0.00201115
0.00191439
0.00184201
0.00179456
0.00177406
0.00177439
0.00180161
0.00184741
0.00180866
0.00149223
0.00108032
0.00121888
0.00171625
0.00215823
0.00247153
0.0026846
0.00285828
0.00297052
0.00299561
0.00290007
0.00277764
0.00248789
0.0012119
0.00189145
0.00202582
0.00214188
0.00227299
0.00215081
0.00198223
0.00184429
0.00171631
0.00159706
0.00148547
0.00138411
0.00129509
0.00121306
0.00113524
0.00106029
0.000987872
0.000918382
0.000852717
0.000791997
0.000737235
0.000689133
0.000648115
0.000615853
0.000591626
0.000572527
0.000553305
0.00053063
0.000512854
0.000564963
0.000688368
0.000755824
0.000827922
0.00092209
0.00102804
0.00114096
0.00125734
0.00128652
0.00124772
0.00116418
0.0010719
)
;

boundaryField
{
    floor
    {
        type            nutkWallFunction;
        Cmu             0.09;
        kappa           0.41;
        E               9.8;
        value           nonuniform List<scalar> 
29
(
0.000105783
5.61943e-05
6.67809e-05
6.84267e-05
6.93272e-05
6.84157e-05
6.43375e-05
5.8285e-05
5.27492e-05
4.72436e-05
4.169e-05
3.61822e-05
3.09592e-05
2.63052e-05
2.24318e-05
1.93997e-05
1.74254e-05
2.22492e-05
5.36004e-05
4.03642e-05
4.03641e-05
5.51357e-05
6.59369e-05
8.59521e-05
0.000105783
5.61942e-05
7.87188e-05
9.79209e-05
0.000115814
)
;
    }
    ceiling
    {
        type            nutkWallFunction;
        Cmu             0.09;
        kappa           0.41;
        E               9.8;
        value           nonuniform List<scalar> 
43
(
0.000221513
0.000236179
0.000248764
0.000262951
0.000249799
0.000231503
0.000216402
0.000202281
0.000189019
0.00017651
0.000165058
0.000154923
0.000145515
0.000136523
0.000127796
0.000119298
0.000111075
0.000103238
9.59276e-05
8.92782e-05
8.33892e-05
7.83293e-05
7.43237e-05
7.12993e-05
6.89021e-05
6.64772e-05
6.36015e-05
6.13585e-05
6.80451e-05
8.33461e-05
9.15702e-05
0.000100283
0.000111533
0.000124029
0.000137181
0.000150596
0.000153935
0.000149491
0.000139867
0.000129148
0.000348858
0.000414063
0.000265154
)
;
    }
    sWall
    {
        type            nutkWallFunction;
        Cmu             0.09;
        kappa           0.41;
        E               9.8;
        value           uniform 0.000221571;
    }
    nWall
    {
        type            nutkWallFunction;
        Cmu             0.09;
        kappa           0.41;
        E               9.8;
        value           nonuniform List<scalar> 6(0.000105683 0.000113104 0.000133198 0.00014328 0.000145384 0.000129156);
    }
    sideWalls
    {
        type            empty;
    }
    glass1
    {
        type            nutkWallFunction;
        Cmu             0.09;
        kappa           0.41;
        E               9.8;
        value           nonuniform List<scalar> 9(8.52853e-05 0.000137751 0.000183404 0.000227397 0.00026923 0.000309354 0.000347713 0.000357279 0.000349287);
    }
    glass2
    {
        type            nutkWallFunction;
        Cmu             0.09;
        kappa           0.41;
        E               9.8;
        value           nonuniform List<scalar> 2(0.00018505 0.000173003);
    }
    sun
    {
        type            nutkWallFunction;
        Cmu             0.09;
        kappa           0.41;
        E               9.8;
        value           nonuniform List<scalar> 
14
(
8.53205e-05
8.84355e-05
8.48343e-05
8.8221e-05
9.14693e-05
9.44218e-05
9.71387e-05
9.97127e-05
0.00010226
0.000104797
0.000106841
0.000108182
0.000108604
0.000107937
)
;
    }
    heatsource1
    {
        type            nutkWallFunction;
        Cmu             0.09;
        kappa           0.41;
        E               9.8;
        value           nonuniform List<scalar> 3(8.96165e-05 9.17691e-05 0.00010568);
    }
    heatsource2
    {
        type            nutkWallFunction;
        Cmu             0.09;
        kappa           0.41;
        E               9.8;
        value           nonuniform List<scalar> 4(0.000109927 7.85559e-05 7.85558e-05 0.000112218);
    }
    Table_master
    {
        type            nutkWallFunction;
        Cmu             0.09;
        kappa           0.41;
        E               9.8;
        value           nonuniform List<scalar> 9(4.62101e-05 4.04834e-05 3.71718e-05 3.33459e-05 3.02467e-05 2.80384e-05 2.62949e-05 2.4937e-05 2.43458e-05);
    }
    Table_slave
    {
        type            nutkWallFunction;
        Cmu             0.09;
        kappa           0.41;
        E               9.8;
        value           nonuniform List<scalar> 9(7.85594e-05 8.00104e-05 8.21548e-05 8.4797e-05 8.61846e-05 8.7104e-05 8.68808e-05 8.46156e-05 7.99711e-05);
    }
    inlet
    {
        type            calculated;
        value           uniform 0.000100623;
    }
    outlet
    {
        type            calculated;
        value           nonuniform List<scalar> 2(0.00189145 0.00202582);
    }
}


// ************************************************************************* //
