/*--------------------------------*- C++ -*----------------------------------*\
  =========                 |
  \\      /  F ield         | OpenFOAM: The Open Source CFD Toolbox
   \\    /   O peration     | Website:  https://openfoam.org
    \\  /    A nd           | Version:  6
     \\/     M anipulation  |
\*---------------------------------------------------------------------------*/
FoamFile
{
    version     2.0;
    format      ascii;
    class       volScalarField;
    location    "100";
    object      alphat;
}
// * * * * * * * * * * * * * * * * * * * * * * * * * * * * * * * * * * * * * //

dimensions      [1 -1 -1 0 0 0 0];

internalField   nonuniform List<scalar> 
459
(
0.00239682
0.00273124
0.00268111
0.00251571
0.00233395
0.00216754
0.00202332
0.00189486
0.00177809
0.00166986
0.00156723
0.00146698
0.00136473
0.00125254
0.0011296
0.000762922
0.000987221
0.0010694
0.00108557
0.00106186
0.00102245
0.000964837
0.000907082
0.000855482
0.000810481
0.00077122
0.000736699
0.000706142
0.000678723
0.000652922
0.000626964
0.000598622
0.000554362
0.000520891
0.00280952
0.00854843
0.007566
0.0067094
0.00607272
0.0055991
0.00517916
0.00479886
0.00443745
0.00407535
0.00369146
0.00326501
0.00278139
0.00223444
0.00166843
0.00109949
0.00096055
0.00112813
0.00365231
0.00334045
0.00361982
0.003864
0.00376154
0.00280874
0.00235853
0.00206552
0.00185713
0.00170294
0.001586
0.00148962
0.00138845
0.00127564
0.00116747
0.00111246
0.000967057
0.000619448
0.00295769
0.0106676
0.00830942
0.00692867
0.00624802
0.00595499
0.00578606
0.00562363
0.00540912
0.00511477
0.00472697
0.00424089
0.00366238
0.00301166
0.00233527
0.00169044
0.000983068
0.00109795
0.00338989
0.00363948
0.00427839
0.00478396
0.0045106
0.00127949
0.00113136
0.00101123
0.000914371
0.00083614
0.000772727
0.000721494
0.000681798
0.000654143
0.000753515
0.000960202
0.00113263
0.000684137
0.00293261
0.010502
0.00762395
0.00599443
0.00563881
0.00584591
0.00602542
0.00606277
0.00595533
0.00570906
0.00533794
0.00485944
0.00429131
0.00365947
0.00298891
0.00231502
0.00154068
0.00102848
0.00194892
0.00292395
0.00417121
0.00525958
0.00592881
0.00553853
0.00141466
0.00130734
0.00122178
0.00114961
0.00108368
0.00101946
0.000953687
0.000883365
0.000802591
0.000768011
0.000907659
0.00134034
0.000771198
0.00287777
0.00891755
0.00654907
0.00551462
0.00592941
0.00634582
0.00652489
0.00657595
0.00649928
0.00629229
0.00596916
0.00555844
0.00507377
0.00454876
0.00400698
0.00350992
0.00311991
0.00339339
0.00445126
0.0056413
0.0066492
0.00736025
0.00774794
0.0077068
0.00664622
0.00603276
0.00552573
0.00500805
0.00446997
0.00390616
0.00331281
0.00268813
0.00202626
0.00142758
0.00116578
0.00140426
0.00111661
0.000839002
0.000872057
0.00127939
0.00278162
0.00715509
0.00547293
0.0055262
0.00645598
0.00687168
0.00699641
0.00702959
0.0069913
0.00688609
0.0067206
0.00650335
0.00622566
0.00594539
0.00570865
0.00562979
0.00583882
0.00670594
0.00762921
0.00836453
0.00887462
0.00915396
0.00922923
0.00912018
0.00877289
0.00832004
0.00773526
0.00705802
0.00630981
0.00550374
0.00464958
0.00375957
0.00285864
0.00204752
0.00155712
0.00146816
0.00131981
0.00138018
0.00192952
0.00168815
0.00264462
0.00570896
0.00475176
0.00544104
0.00632983
0.00663691
0.0066514
0.00664089
0.00666478
0.00672623
0.00681681
0.00692303
0.0070368
0.00716161
0.0073412
0.00767872
0.00823862
0.00899313
0.00955894
0.0099253
0.0100907
0.0100744
0.00991956
0.00967267
0.00931879
0.00885004
0.00827216
0.00759418
0.0068297
0.00598931
0.00509864
0.00417844
0.00326385
0.00243016
0.00185391
0.0015469
0.00138773
0.00176882
0.00315962
0.00235105
0.00246865
0.00433831
0.00424143
0.00572463
0.00617954
0.00629271
0.00624207
0.00627635
0.00638439
0.00653783
0.00673619
0.00698138
0.00727946
0.00764355
0.00809648
0.00866923
0.00927707
0.00981474
0.0101674
0.010306
0.010237
0.00999362
0.00962538
0.00916383
0.00866342
0.00814773
0.00758602
0.00695875
0.00626484
0.0055151
0.00473126
0.00394076
0.00317748
0.00249979
0.00197737
0.0016224
0.00148422
0.00208133
0.00577209
0.00334542
0.00218849
0.00224362
0.00351204
0.00703733
0.00705926
0.00686641
0.00672863
0.00676255
0.00688453
0.00705598
0.00727232
0.00753004
0.00783201
0.00818386
0.00858896
0.0090349
0.00945812
0.00976748
0.00989561
0.00981581
0.00953851
0.00911125
0.00858108
0.00805215
0.00755342
0.00706994
0.00657591
0.0060552
0.00550804
0.00494724
0.00439297
0.0038672
0.00338829
0.00296941
0.00261214
0.00233059
0.00227105
0.00331606
0.00819033
0.00382452
0.00209291
0.00808137
0.00848573
0.00822892
0.00796265
0.00785508
0.00788742
0.00806284
0.00831594
0.00859251
0.00887659
0.00916156
0.00943436
0.00966796
0.00981935
0.00984817
0.00974869
0.00954551
0.00926002
0.00893673
0.00861071
0.00829563
0.00799377
0.00770112
0.00741382
0.00713325
0.00686632
0.00662257
0.00640967
0.00622725
0.00605896
0.00586519
0.00558862
0.00520111
0.00487925
0.00573461
0.00912117
0.00332608
0.00322678
0.0101857
0.0104441
0.00993966
0.00957064
0.00929081
0.00910727
0.00925164
0.00954125
0.00982766
0.0100833
0.0103085
0.0105006
0.0106456
0.0107175
0.0106843
0.0105339
0.0103366
0.01012
0.00990228
0.0096929
0.00949388
0.00930552
0.00912939
0.00896931
0.00883114
0.00872179
0.00864734
0.00860944
0.00859801
0.00857884
0.00847918
0.00819557
0.00767604
0.00708673
0.00696567
0.00709156
0.00282316
0.00128607
0.00106143
0.00152917
0.00233881
0.00253508
0.0025336
0.00248544
0.00242419
0.00236045
0.00236211
0.00238544
0.0024065
0.00242373
0.00243789
0.00244862
0.00245453
0.00245422
0.00244838
0.00244124
0.00242983
0.00241659
0.00240306
0.00239009
0.00237853
0.00236874
0.00236095
0.00235535
0.00235209
0.00235114
0.002352
0.00235319
0.00235173
0.00234275
0.00232148
0.00229236
0.00228568
0.00234965
0.00249126
0.00259463
0.00235984
)
;

boundaryField
{
    floor
    {
        type            compressible::alphatWallFunction;
        Prt             0.85;
        value           nonuniform List<scalar> 
29
(
0.000160899
0.000108882
0.000140995
0.000152548
0.000154808
0.000151499
0.000145977
0.000137856
0.000129656
0.000122278
0.000115799
0.000110112
0.000105082
0.000100605
9.65683e-05
9.27511e-05
8.88916e-05
8.46549e-05
7.79888e-05
7.2897e-05
7.28961e-05
8.77432e-05
9.73299e-05
0.000110063
0.000160898
0.000108881
0.00016071
0.000156496
0.000146786
)
;
    }
    ceiling
    {
        type            compressible::alphatWallFunction;
        Prt             0.85;
        value           nonuniform List<scalar> 
43
(
0.000182741
0.000151651
0.000215631
0.000321596
0.000346618
0.000346409
0.000340258
0.000332424
0.000324255
0.00032447
0.000327459
0.000330152
0.000332354
0.000334163
0.000335533
0.000336288
0.000336251
0.000335508
0.0003346
0.000333146
0.000331456
0.000329729
0.000328073
0.000326594
0.000325342
0.000324344
0.000323626
0.000323206
0.00032308
0.000323182
0.000323325
0.000323125
0.000321959
0.000319221
0.000315482
0.000314635
0.00032286
0.000340959
0.000354103
0.000324201
0.000302001
0.000309089
0.000433257
)
;
    }
    sWall
    {
        type            compressible::alphatWallFunction;
        Prt             0.85;
        value           uniform 0.000182975;
    }
    nWall
    {
        type            compressible::alphatWallFunction;
        Prt             0.85;
        value           nonuniform List<scalar> 6(0.000181707 0.000236745 0.000323071 0.000445609 0.000383007 0.000324283);
    }
    sideWalls
    {
        type            empty;
    }
    glass1
    {
        type            compressible::alphatWallFunction;
        Prt             0.85;
        value           nonuniform List<scalar> 9(0.000331344 0.000383885 0.000402533 0.000399371 0.000392455 0.00038029 0.00036287 0.000340337 0.000304122);
    }
    glass2
    {
        type            compressible::alphatWallFunction;
        Prt             0.85;
        value           nonuniform List<scalar> 2(0.000451181 0.000510145);
    }
    sun
    {
        type            compressible::alphatWallFunction;
        Prt             0.85;
        value           nonuniform List<scalar> 
14
(
0.000328801
0.000371242
0.000364921
0.000343965
0.000320767
0.000299358
0.000280661
0.000263884
0.000248527
0.000234194
0.000220508
0.000207041
0.000193199
0.000177876
)
;
    }
    heatsource1
    {
        type            compressible::alphatWallFunction;
        Prt             0.85;
        value           nonuniform List<scalar> 3(0.000119493 0.00012423 0.000181188);
    }
    heatsource2
    {
        type            compressible::alphatWallFunction;
        Prt             0.85;
        value           nonuniform List<scalar> 4(0.00015637 0.000136867 0.000136865 0.000140048);
    }
    Table_master
    {
        type            compressible::alphatWallFunction;
        Prt             0.85;
        value           nonuniform List<scalar> 9(0.000181228 0.00016081 0.000144027 0.000130323 0.000119131 0.000109967 0.000102497 9.66648e-05 9.25766e-05);
    }
    Table_slave
    {
        type            compressible::alphatWallFunction;
        Prt             0.85;
        value           nonuniform List<scalar> 9(0.000199629 0.000185037 0.000173306 0.000163338 0.00015417 0.000145178 0.000135901 0.000125899 0.000114293);
    }
    inlet
    {
        type            fixedValue;
        value           uniform 1.94e-05;
    }
    outlet
    {
        type            zeroGradient;
    }
}


// ************************************************************************* //
