// -*- C++ -*-
// File generated by PyFoam - sorry for the ugliness

FoamFile
{
 version 2.0;
 format ascii;
 class volVectorField;
 location "200";
 object U;
}

dimensions [ 0 1 -1 0 0 0 0 ];

internalField nonuniform List<vector> 459
(
  (0.0871273 0.0732873 0)
  (-0.145633 0.00777196 0)
  (-0.14065 0.0109416 0)
  (-0.163183 0.0100578 0)
  (-0.183711 0.00783077 0)
  (-0.201412 0.00500404 0)
  (-0.215371 0.00169122 0)
  (-0.22473 -0.00216154 0)
  (-0.228513 -0.00667706 0)
  (-0.225441 -0.0120531 0)
  (-0.213796 -0.0188111 0)
  (-0.190988 -0.0273811 0)
  (-0.155747 -0.0392938 0)
  (-0.116908 -0.0577369 0)
  (-0.106141 -0.0829059 0)
  (0.0771097 0.00146832 0)
  (-0.0143978 -0.0123845 0)
  (0.0180266 -0.0152598 0)
  (0.0378536 -0.0136247 0)
  (0.0527891 -0.0118965 0)
  (0.0649768 -0.00945736 0)
  (0.0733246 -0.00526749 0)
  (0.0764502 -0.002773 0)
  (0.0760721 -0.00178342 0)
  (0.0746203 -0.00135882 0)
  (0.0731275 -0.00106776 0)
  (0.0716236 -0.000823533 0)
  (0.0699584 -0.000570301 0)
  (0.0679407 -0.000158579 0)
  (0.0650756 0.00075548 0)
  (0.060286 0.00261281 0)
  (0.0524524 0.00450641 0)
  (0.0472623 0.0056896 0)
  (-0.017968 0.0233701 0)
  (0.294605 0.158455 0)
  (-0.165143 0.0309708 0)
  (-0.124943 0.0358133 0)
  (-0.153199 0.0339408 0)
  (-0.174901 0.0304082 0)
  (-0.193372 0.0257946 0)
  (-0.208098 0.0200374 0)
  (-0.218437 0.0129003 0)
  (-0.223522 0.00407865 0)
  (-0.222205 -0.00676377 0)
  (-0.213659 -0.0193634 0)
  (-0.196882 -0.0335558 0)
  (-0.172501 -0.0503405 0)
  (-0.145216 -0.0716394 0)
  (-0.119766 -0.0915307 0)
  (-0.0849913 -0.0817341 0)
  (-0.0347008 -0.0304328 0)
  (0.11068 -0.0104607 0)
  (0.0302932 -0.0103361 0)
  (0.0254154 -0.015148 0)
  (0.0363268 -0.0174056 0)
  (0.0467525 -0.0179962 0)
  (0.0564117 -0.0154834 0)
  (0.0639152 -0.00472897 0)
  (0.0650001 0.00151633 0)
  (0.0638805 0.00364809 0)
  (0.0632069 0.00423747 0)
  (0.0630549 0.00442107 0)
  (0.0629778 0.00447537 0)
  (0.0628283 0.0045842 0)
  (0.062597 0.00509417 0)
  (0.061805 0.00681284 0)
  (0.058267 0.011954 0)
  (0.0492534 0.016115 0)
  (0.0501085 0.0180025 0)
  (-0.06757 0.0495982 0)
  (0.473793 0.242359 0)
  (-0.211587 0.062477 0)
  (-0.10062 0.0629605 0)
  (-0.135686 0.0556102 0)
  (-0.156256 0.0483221 0)
  (-0.174247 0.0397339 0)
  (-0.189085 0.0293541 0)
  (-0.200245 0.0168508 0)
  (-0.206881 0.00202994 0)
  (-0.207741 -0.0150076 0)
  (-0.202344 -0.0341651 0)
  (-0.191132 -0.0547137 0)
  (-0.175703 -0.075952 0)
  (-0.15874 -0.0966794 0)
  (-0.140434 -0.11162 0)
  (-0.121589 -0.114289 0)
  (-0.128325 -0.117478 0)
  (0.0592253 -0.00874946 0)
  (-0.022104 -0.0159055 0)
  (-0.00173972 -0.0257475 0)
  (0.0171306 -0.0290141 0)
  (0.0299815 -0.0298948 0)
  (0.0397229 -0.0302985 0)
  (0.0517991 -0.0186795 0)
  (0.0482101 -0.0103997 0)
  (0.0445447 -0.00655075 0)
  (0.0447724 -0.00472744 0)
  (0.046655 -0.00369513 0)
  (0.0486449 -0.00306891 0)
  (0.0505662 -0.00260237 0)
  (0.0529249 -0.00189532 0)
  (0.0567795 0.00107914 0)
  (0.0562967 0.0173008 0)
  (0.0442242 0.02729 0)
  (0.0585185 0.0317627 0)
  (-0.112174 0.0750463 0)
  (0.623355 0.312705 0)
  (-0.264584 0.0978454 0)
  (-0.0691585 0.0885831 0)
  (-0.112213 0.0762368 0)
  (-0.128961 0.0668332 0)
  (-0.144493 0.0561199 0)
  (-0.157952 0.0431316 0)
  (-0.168844 0.0272722 0)
  (-0.176288 0.00812759 0)
  (-0.178808 -0.0142284 0)
  (-0.175655 -0.0387694 0)
  (-0.168727 -0.0635797 0)
  (-0.160155 -0.0865612 0)
  (-0.15245 -0.105425 0)
  (-0.147569 -0.116697 0)
  (-0.15054 -0.116924 0)
  (-0.165005 -0.0959292 0)
  (-0.147693 -0.0260756 0)
  (-0.088557 -0.0339415 0)
  (-0.0532681 -0.0419399 0)
  (-0.0223678 -0.0505547 0)
  (0.000150095 -0.0456504 0)
  (0.0117598 -0.0407354 0)
  (0.0156656 -0.037115 0)
  (0.0237554 -0.0227271 0)
  (0.0423674 -0.0171686 0)
  (0.0585763 -0.0142436 0)
  (0.0719377 -0.0121288 0)
  (0.0828733 -0.00991022 0)
  (0.0906855 -0.00710095 0)
  (0.0938979 -0.0035288 0)
  (0.0901253 0.00121528 0)
  (0.078058 0.0075762 0)
  (0.0610382 0.0266369 0)
  (0.0427075 0.0427184 0)
  (0.0679207 0.0534301 0)
  (-0.1634 0.0962058 0)
  (0.744864 0.370594 0)
  (-0.313573 0.133463 0)
  (-0.034253 0.106726 0)
  (-0.0840979 0.091623 0)
  (-0.0953989 0.0811551 0)
  (-0.106482 0.0690465 0)
  (-0.116459 0.0541531 0)
  (-0.124973 0.0356949 0)
  (-0.131324 0.0130767 0)
  (-0.133657 -0.0136168 0)
  (-0.130531 -0.0423638 0)
  (-0.125195 -0.0695763 0)
  (-0.119677 -0.0924279 0)
  (-0.115825 -0.109377 0)
  (-0.114907 -0.119455 0)
  (-0.11758 -0.121948 0)
  (-0.1185 -0.111417 0)
  (-0.105673 -0.0806017 0)
  (-0.079491 -0.071038 0)
  (-0.0516552 -0.073861 0)
  (-0.0266738 -0.0759148 0)
  (-0.00802309 -0.060894 0)
  (0.00204923 -0.0495095 0)
  (0.00852126 -0.0408276 0)
  (0.0183813 -0.0289952 0)
  (0.0312834 -0.0231633 0)
  (0.0437001 -0.0201461 0)
  (0.0550384 -0.0175058 0)
  (0.0651549 -0.0137731 0)
  (0.073373 -0.0078523 0)
  (0.0785994 0.000860069 0)
  (0.0786592 0.0113646 0)
  (0.0732279 0.0235048 0)
  (0.0640415 0.0404915 0)
  (0.0480285 0.0587529 0)
  (0.0761264 0.0783607 0)
  (-0.0458332 0.109391 0)
  (0.0477679 0.0193655 0)
  (-0.0737571 -0.0397448 0)
  (-0.294121 -0.0639865 0)
  (0.82714 0.421932 0)
  (-0.354207 0.164241 0)
  (-0.00550079 0.110877 0)
  (-0.0512939 0.10145 0)
  (-0.0576397 0.0906505 0)
  (-0.0636537 0.077342 0)
  (-0.0686513 0.0612933 0)
  (-0.0728181 0.0414685 0)
  (-0.0761306 0.0167668 0)
  (-0.0756024 -0.013492 0)
  (-0.0706092 -0.0461181 0)
  (-0.0663194 -0.0744728 0)
  (-0.0636453 -0.0959743 0)
  (-0.0634768 -0.110359 0)
  (-0.0661972 -0.117582 0)
  (-0.070881 -0.117463 0)
  (-0.0731362 -0.108648 0)
  (-0.0678926 -0.0953109 0)
  (-0.0562566 -0.0907585 0)
  (-0.0407922 -0.0948377 0)
  (-0.0242533 -0.095311 0)
  (-0.0109304 -0.0717312 0)
  (-0.00491006 -0.0567713 0)
  (0.000101201 -0.0470581 0)
  (0.00675885 -0.0386854 0)
  (0.0151 -0.0339726 0)
  (0.0238794 -0.0311862 0)
  (0.0327176 -0.0284328 0)
  (0.0414647 -0.0241182 0)
  (0.0498745 -0.0166366 0)
  (0.0574191 -0.00461786 0)
  (0.0627121 0.0108395 0)
  (0.0634633 0.0273207 0)
  (0.0627439 0.0454006 0)
  (0.0576952 0.0646066 0)
  (0.0844115 0.0884749 0)
  (0.0494594 0.105556 0)
  (0.100927 0.0690783 0)
  (0.125966 0.0451905 0)
  (-0.143682 -0.011901 0)
  (0.848273 0.468092 0)
  (-0.373308 0.160861 0)
  (0.0136446 0.0751684 0)
  (-0.00252477 0.104791 0)
  (-0.0100521 0.101828 0)
  (-0.0147658 0.0829314 0)
  (-0.0155464 0.0636234 0)
  (-0.0144662 0.0428696 0)
  (-0.0134377 0.0171551 0)
  (-0.00390639 -0.0170464 0)
  (0.00372964 -0.0520476 0)
  (0.00544055 -0.0782269 0)
  (0.0035857 -0.0962788 0)
  (-0.00162764 -0.107617 0)
  (-0.00959107 -0.112538 0)
  (-0.0187655 -0.111767 0)
  (-0.0262493 -0.105701 0)
  (-0.0295554 -0.0986138 0)
  (-0.03034 -0.0975536 0)
  (-0.0263863 -0.105548 0)
  (-0.0187574 -0.108755 0)
  (-0.0112992 -0.0777816 0)
  (-0.0105825 -0.0600165 0)
  (-0.00987838 -0.0503672 0)
  (-0.00797783 -0.0440379 0)
  (-0.00486672 -0.0403218 0)
  (-0.000921416 -0.0381318 0)
  (0.00379519 -0.0360162 0)
  (0.00922399 -0.0324816 0)
  (0.0157014 -0.0257566 0)
  (0.0235426 -0.0137317 0)
  (0.0360662 0.00507214 0)
  (0.0437852 0.0239303 0)
  (0.051033 0.0416448 0)
  (0.0573636 0.0583291 0)
  (0.0828745 0.0782089 0)
  (0.0933113 0.0833397 0)
  (0.130918 0.0525591 0)
  (0.17445 0.0424072 0)
  (-0.0305963 0.098746 0)
  (0.947408 0.487966 0)
  (-0.141997 0.143521 0)
  (0.0784305 0.00756112 0)
  (0.115125 0.0461606 0)
  (0.0888289 0.0728075 0)
  (0.0688067 0.0629492 0)
  (0.0641021 0.042625 0)
  (0.0667877 0.0211611 0)
  (0.0714039 -0.00611439 0)
  (0.0866653 -0.033525 0)
  (0.091275 -0.0573175 0)
  (0.0872561 -0.0761376 0)
  (0.0779735 -0.0894093 0)
  (0.0651587 -0.0973628 0)
  (0.0500514 -0.100615 0)
  (0.0341156 -0.0999396 0)
  (0.0191269 -0.0962552 0)
  (0.00678088 -0.092115 0)
  (-0.0054099 -0.0932469 0)
  (-0.0112341 -0.106555 0)
  (-0.0122981 -0.116341 0)
  (-0.0101537 -0.0788119 0)
  (-0.0155614 -0.0587002 0)
  (-0.0207476 -0.0491414 0)
  (-0.0244847 -0.0438672 0)
  (-0.0273511 -0.04102 0)
  (-0.0295673 -0.0395188 0)
  (-0.031162 -0.0382413 0)
  (-0.0319516 -0.0360779 0)
  (-0.0314762 -0.0319712 0)
  (-0.028798 -0.0248839 0)
  (-0.021163 -0.0136589 0)
  (-0.000739042 0.00325411 0)
  (0.0120491 0.0192729 0)
  (0.0242796 0.0288571 0)
  (0.0469463 0.0378851 0)
  (0.0650057 0.0284402 0)
  (0.0826163 -0.00505996 0)
  (0.14597 0.0486765 0)
  (-0.481847 0.232002 0)
  (1.07765 0.449999 0)
  (0.519474 0.299875 0)
  (0.517151 0.235857 0)
  (0.480588 0.198549 0)
  (0.39279 0.172257 0)
  (0.316964 0.134178 0)
  (0.272635 0.0925227 0)
  (0.248641 0.0544952 0)
  (0.235894 0.0204433 0)
  (0.218244 -0.0113506 0)
  (0.197669 -0.0380468 0)
  (0.175504 -0.0579272 0)
  (0.152267 -0.0710692 0)
  (0.128324 -0.0785176 0)
  (0.10421 -0.0815099 0)
  (0.080623 -0.0812812 0)
  (0.0582861 -0.0790865 0)
  (0.0376504 -0.076736 0)
  (0.0162679 -0.0783651 0)
  (0.00292923 -0.0948736 0)
  (-0.00692556 -0.114322 0)
  (-0.0087043 -0.0716736 0)
  (-0.0199263 -0.051446 0)
  (-0.0319245 -0.0433766 0)
  (-0.041551 -0.0393508 0)
  (-0.050489 -0.0370294 0)
  (-0.0594566 -0.0354926 0)
  (-0.0687795 -0.0337721 0)
  (-0.078687 -0.0307592 0)
  (-0.0894631 -0.0253127 0)
  (-0.101574 -0.0163394 0)
  (-0.11535 -0.00293853 0)
  (-0.129109 0.0146653 0)
  (-0.143661 0.0343643 0)
  (-0.170785 0.0550803 0)
  (-0.21224 0.0750991 0)
  (-0.272113 0.0890893 0)
  (-0.339183 0.094227 0)
  (-0.412756 0.0915702 0)
  (-0.686085 0.0810393 0)
  (-0.223597 0.1098 0)
  (0.175175 0.182563 0)
  (0.260257 0.175688 0)
  (0.255651 0.14348 0)
  (0.256157 0.103263 0)
  (0.259201 0.0635374 0)
  (0.258177 0.0287566 0)
  (0.250739 0.000383716 0)
  (0.235535 -0.0212937 0)
  (0.214785 -0.0365719 0)
  (0.190467 -0.0463857 0)
  (0.164223 -0.051767 0)
  (0.137388 -0.0536973 0)
  (0.110925 -0.0530778 0)
  (0.0853247 -0.0507405 0)
  (0.0602109 -0.0477012 0)
  (0.0326178 -0.0471005 0)
  (0.0168024 -0.0643384 0)
  (-0.00562483 -0.0959845 0)
  (-0.0131918 -0.0463408 0)
  (-0.0271344 -0.0304271 0)
  (-0.0439414 -0.0272874 0)
  (-0.0566722 -0.0265052 0)
  (-0.0684824 -0.0263058 0)
  (-0.0807458 -0.0261585 0)
  (-0.0936838 -0.0253109 0)
  (-0.10704 -0.0227502 0)
  (-0.120081 -0.0173073 0)
  (-0.131496 -0.00780597 0)
  (-0.139697 0.00687251 0)
  (-0.144337 0.0259572 0)
  (-0.147278 0.0495782 0)
  (-0.150941 0.075517 0)
  (-0.156549 0.0982774 0)
  (-0.160765 0.105866 0)
  (-0.143185 0.0759871 0)
  (-0.0869605 -0.0342786 0)
  (-0.292894 -0.239908 0)
  (-0.115503 0.263061 0)
  (0.0834914 0.192209 0)
  (0.105238 0.143563 0)
  (0.139411 0.117472 0)
  (0.175814 0.0873184 0)
  (0.204009 0.0583282 0)
  (0.21942 0.0357677 0)
  (0.222471 0.0210304 0)
  (0.216435 0.0115004 0)
  (0.20365 0.00441217 0)
  (0.186321 -0.000458319 0)
  (0.166051 -0.00319538 0)
  (0.144114 -0.00384613 0)
  (0.121481 -0.00244545 0)
  (0.0987995 0.00110506 0)
  (0.0761379 0.0071377 0)
  (0.0516529 0.0109558 0)
  (0.0373636 -0.029466 0)
  (-0.0105689 -0.0809715 0)
  (-0.0374796 -0.00246645 0)
  (-0.049227 0.0333632 0)
  (-0.0634145 0.0357204 0)
  (-0.0737163 0.0364647 0)
  (-0.0825765 0.0384555 0)
  (-0.0909082 0.0397617 0)
  (-0.0988708 0.0400591 0)
  (-0.106406 0.0395564 0)
  (-0.113217 0.0382779 0)
  (-0.118375 0.035829 0)
  (-0.119867 0.0354993 0)
  (-0.115078 0.0413794 0)
  (-0.102793 0.0547322 0)
  (-0.083929 0.0745759 0)
  (-0.0604146 0.0947451 0)
  (-0.0358543 0.105976 0)
  (0.00905347 0.0877475 0)
  (0.144193 0.00787057 0)
  (-0.204818 -0.15505 0)
  (-0.184876 -0.382579 0)
  (-0.463061 -0.102163 0)
  (-0.334541 0.162597 0)
  (-0.177371 0.0666237 0)
  (-0.0822516 0.0388215 0)
  (0.0290667 0.0307182 0)
  (0.0955357 0.00737958 0)
  (0.145806 -0.0152703 0)
  (0.177466 -0.0353493 0)
  (0.192068 -0.0532771 0)
  (0.19418 -0.0689443 0)
  (0.187812 -0.0816818 0)
  (0.175577 -0.092842 0)
  (0.159604 -0.103451 0)
  (0.141581 -0.114382 0)
  (0.122865 -0.126434 0)
  (0.104557 -0.140251 0)
  (0.0876089 -0.156075 0)
  (0.0728275 -0.173785 0)
  (0.062403 -0.1948 0)
  (-0.0188052 -0.206444 0)
  (-0.0718204 -0.190132 0)
  (-0.0783345 -0.181882 0)
  (-0.086841 -0.178031 0)
  (-0.096038 -0.173891 0)
  (-0.104561 -0.168591 0)
  (-0.111878 -0.161885 0)
  (-0.11782 -0.153405 0)
  (-0.122033 -0.142668 0)
  (-0.123883 -0.128957 0)
  (-0.122363 -0.111173 0)
  (-0.115601 -0.0916017 0)
  (-0.100061 -0.0703878 0)
  (-0.0729878 -0.0471183 0)
  (-0.0361642 -0.0211492 0)
  (0.0290044 0.0110355 0)
  (0.0836475 0.0108952 0)
  (0.136324 -0.0154984 0)
  (0.186647 -0.0643729 0)
  (-0.152543 -0.139277 0)
)
;

boundaryField
{
  floor
  {
    type noSlip;
  }
  ceiling
  {
    type noSlip;
  }
  sWall
  {
    type noSlip;
  }
  nWall
  {
    type noSlip;
  }
  sideWalls
  {
    type empty;
  }
  glass1
  {
    type noSlip;
  }
  glass2
  {
    type noSlip;
  }
  sun
  {
    type noSlip;
  }
  heatsource1
  {
    type noSlip;
  }
  heatsource2
  {
    type noSlip;
  }
  Table_master
  {
    type noSlip;
  }
  Table_slave
  {
    type noSlip;
  }
  inlet
  {
    type fixedValue;
    value uniform (0.277164 -0.114805 0);
  }
  outlet
  {
    type zeroGradient;
  }
} 	// ************************************************************************* //

