// -*- C++ -*-
// File generated by PyFoam - sorry for the ugliness

FoamFile
{
 version 2.0;
 format ascii;
 class volVectorField;
 location "100";
 object U;
}

dimensions [ 0 1 -1 0 0 0 0 ];

internalField nonuniform List<vector> 459
(
  (0.00192301 0.0923062 0)
  (-0.189659 0.0265473 0)
  (-0.220384 0.00422213 0)
  (-0.233156 -0.0137868 0)
  (-0.214246 -0.0332904 0)
  (-0.166681 -0.0550608 0)
  (-0.0979688 -0.0728647 0)
  (-0.0126571 -0.0767051 0)
  (0.0669238 -0.0580158 0)
  (0.117882 -0.0404295 0)
  (0.152464 -0.0247649 0)
  (0.168224 -0.0108254 0)
  (0.162966 0.00387563 0)
  (0.133904 0.0256635 0)
  (0.101157 0.0739537 0)
  (-0.0387587 0.0175305 0)
  (-0.0554372 -0.00976452 0)
  (-0.0349961 -0.0281976 0)
  (-0.00730628 -0.0356224 0)
  (0.027984 -0.0297403 0)
  (0.0530743 -0.0214423 0)
  (0.0713059 -0.0125374 0)
  (0.0827035 -0.00765035 0)
  (0.0885922 -0.00572239 0)
  (0.0917412 -0.00488793 0)
  (0.0939116 -0.00432938 0)
  (0.0955513 -0.00385114 0)
  (0.0965738 -0.00332882 0)
  (0.0965834 -0.00248422 0)
  (0.0946251 -0.000727275 0)
  (0.0887889 0.00279523 0)
  (0.076858 0.00743648 0)
  (0.0575494 0.0141673 0)
  (0.0256404 0.0283652 0)
  (0.162937 0.193944 0)
  (-0.163785 0.0851661 0)
  (-0.173192 0.0438412 0)
  (-0.18855 0.00466548 0)
  (-0.173736 -0.0411024 0)
  (-0.131926 -0.0875977 0)
  (-0.0730778 -0.119446 0)
  (-0.00620132 -0.121533 0)
  (0.053638 -0.0948176 0)
  (0.0972231 -0.0634759 0)
  (0.127093 -0.0335083 0)
  (0.142323 -0.0054071 0)
  (0.144941 0.0218524 0)
  (0.139041 0.0516596 0)
  (0.134154 0.0921778 0)
  (0.127459 0.0851876 0)
  (0.0805501 0.0767191 0)
  (0.00289581 0.0497198 0)
  (-0.00968476 -0.000732779 0)
  (0.0285617 -0.0440237 0)
  (0.0442387 -0.0497484 0)
  (0.0612829 -0.0431243 0)
  (0.0759439 -0.0313685 0)
  (0.0829774 -0.0151788 0)
  (0.0852233 -0.00526046 0)
  (0.0856526 -0.00140783 0)
  (0.0860991 7.77713e-05 0)
  (0.0866707 0.00090653 0)
  (0.0871185 0.00154261 0)
  (0.0873887 0.00237065 0)
  (0.0873922 0.00401972 0)
  (0.086326 0.00769139 0)
  (0.0808357 0.0168402 0)
  (0.0676583 0.0260669 0)
  (0.0483188 0.0369984 0)
  (0.0033952 0.0575432 0)
  (0.308546 0.28845 0)
  (-0.164491 0.130376 0)
  (-0.131524 0.0681891 0)
  (-0.147288 0.0039503 0)
  (-0.132704 -0.0684027 0)
  (-0.092652 -0.138267 0)
  (-0.0425087 -0.178949 0)
  (0.00943636 -0.175503 0)
  (0.0528546 -0.140311 0)
  (0.087201 -0.0969581 0)
  (0.110708 -0.0545306 0)
  (0.123403 -0.0157547 0)
  (0.127908 0.020246 0)
  (0.127128 0.0548727 0)
  (0.125009 0.087817 0)
  (0.112866 0.0950669 0)
  (0.0887688 0.127345 0)
  (0.0547869 0.00725364 0)
  (0.0738969 -0.0416554 0)
  (0.085313 -0.0615526 0)
  (0.0911617 -0.0631696 0)
  (0.0962777 -0.0545017 0)
  (0.101749 -0.0437067 0)
  (0.0992185 -0.0338295 0)
  (0.086877 -0.0219983 0)
  (0.077496 -0.0154788 0)
  (0.0729103 -0.0117461 0)
  (0.0704883 -0.00931162 0)
  (0.0687118 -0.00760723 0)
  (0.0674449 -0.00620491 0)
  (0.0675594 -0.00432029 0)
  (0.0712176 0.00106203 0)
  (0.0686944 0.0237858 0)
  (0.0541657 0.0403423 0)
  (0.0396705 0.0573503 0)
  (-0.0188554 0.0868841 0)
  (0.438839 0.363802 0)
  (-0.181846 0.169624 0)
  (-0.0923206 0.0916582 0)
  (-0.105018 0.00532459 0)
  (-0.0834938 -0.0945092 0)
  (-0.0431142 -0.184823 0)
  (-0.00326858 -0.227707 0)
  (0.0319608 -0.217841 0)
  (0.060858 -0.175688 0)
  (0.0836932 -0.122089 0)
  (0.0983797 -0.0692951 0)
  (0.105787 -0.0225429 0)
  (0.108617 0.0180883 0)
  (0.109946 0.0536779 0)
  (0.114863 0.0848114 0)
  (0.125783 0.105072 0)
  (0.145638 0.137094 0)
  (0.181984 0.107227 0)
  (0.160806 0.0319201 0)
  (0.149618 -0.0213764 0)
  (0.139054 -0.0500677 0)
  (0.127838 -0.0572255 0)
  (0.117997 -0.0512273 0)
  (0.109827 -0.0383432 0)
  (0.109483 -0.0220716 0)
  (0.116944 -0.0129443 0)
  (0.119776 -0.00742006 0)
  (0.116397 -0.00367539 0)
  (0.109351 -0.000773356 0)
  (0.100017 0.0017655 0)
  (0.0883564 0.00437667 0)
  (0.0733359 0.00772238 0)
  (0.0492666 0.0130307 0)
  (0.0365586 0.0373298 0)
  (0.0313922 0.054014 0)
  (0.032965 0.0730347 0)
  (-0.0372414 0.111297 0)
  (0.551827 0.421293 0)
  (-0.207339 0.20026 0)
  (-0.0559735 0.106126 0)
  (-0.054414 0.00233466 0)
  (-0.0189546 -0.124265 0)
  (0.0187224 -0.224601 0)
  (0.0431863 -0.259267 0)
  (0.0608766 -0.243768 0)
  (0.073677 -0.195722 0)
  (0.0817461 -0.134655 0)
  (0.0846799 -0.0750952 0)
  (0.0842298 -0.0243959 0)
  (0.0831349 0.0169391 0)
  (0.0850846 0.0499714 0)
  (0.0937698 0.0756564 0)
  (0.109991 0.0903927 0)
  (0.134715 0.0924769 0)
  (0.154442 0.0404178 0)
  (0.15569 -0.00456067 0)
  (0.149464 -0.0310359 0)
  (0.1374 -0.0438493 0)
  (0.122264 -0.045805 0)
  (0.107434 -0.0396848 0)
  (0.0949631 -0.0277939 0)
  (0.0874815 -0.0108852 0)
  (0.0835183 0.000381293 0)
  (0.0783173 0.00676981 0)
  (0.0715477 0.0106552 0)
  (0.0639601 0.0135815 0)
  (0.0560207 0.0163474 0)
  (0.0476517 0.0196079 0)
  (0.0388162 0.0241468 0)
  (0.0278747 0.0307743 0)
  (0.0207705 0.044292 0)
  (0.0212613 0.0577828 0)
  (0.0406301 0.0767653 0)
  (0.0138015 0.111034 0)
  (0.0703233 0.077126 0)
  (0.018637 0.00821145 0)
  (-0.276094 -0.0288147 0)
  (0.641312 0.465873 0)
  (-0.2351 0.216524 0)
  (-0.0211682 0.09744 0)
  (0.0185817 -0.035112 0)
  (0.0619565 -0.165372 0)
  (0.0871356 -0.248079 0)
  (0.09597 -0.273743 0)
  (0.0943381 -0.251262 0)
  (0.0866637 -0.197596 0)
  (0.0761573 -0.13167 0)
  (0.0644492 -0.0691237 0)
  (0.0541097 -0.018763 0)
  (0.0477851 0.0187627 0)
  (0.0495854 0.0450189 0)
  (0.0593422 0.0622152 0)
  (0.0755686 0.068474 0)
  (0.0975912 0.0606683 0)
  (0.114281 0.029228 0)
  (0.118485 0.00186527 0)
  (0.113047 -0.0169561 0)
  (0.101192 -0.0272818 0)
  (0.0865246 -0.0294089 0)
  (0.0716588 -0.0248847 0)
  (0.0584023 -0.0155514 0)
  (0.0480946 -0.00319813 0)
  (0.0401473 0.00644987 0)
  (0.0340718 0.0122747 0)
  (0.0283153 0.0159209 0)
  (0.0228508 0.018788 0)
  (0.0178667 0.0216583 0)
  (0.0136422 0.0251411 0)
  (0.010907 0.0298875 0)
  (0.00941515 0.0360842 0)
  (0.0116822 0.0429683 0)
  (0.0193656 0.0508667 0)
  (0.0429276 0.0661457 0)
  (0.0461554 0.0835326 0)
  (0.0797863 0.0564402 0)
  (0.101315 0.0406646 0)
  (-0.106433 0.0264376 0)
  (0.73125 0.50441 0)
  (-0.243553 0.192712 0)
  (0.034061 0.015056 0)
  (0.118783 -0.109244 0)
  (0.157814 -0.205662 0)
  (0.165947 -0.261658 0)
  (0.152692 -0.268782 0)
  (0.125495 -0.23555 0)
  (0.091969 -0.176977 0)
  (0.0594782 -0.109841 0)
  (0.0317984 -0.0493 0)
  (0.0123521 -0.00520547 0)
  (0.00418134 0.0225928 0)
  (0.0075618 0.0391407 0)
  (0.018272 0.0484849 0)
  (0.0338328 0.0499625 0)
  (0.0518349 0.0420582 0)
  (0.0640519 0.0230712 0)
  (0.0664457 0.00456366 0)
  (0.0614453 -0.00855602 0)
  (0.0508837 -0.0151642 0)
  (0.0377561 -0.0156814 0)
  (0.0242265 -0.0113368 0)
  (0.0118475 -0.00356321 0)
  (0.0015738 0.00580178 0)
  (-0.00452527 0.0129771 0)
  (-0.00864949 0.0173608 0)
  (-0.0118561 0.0202265 0)
  (-0.0142644 0.0224262 0)
  (-0.015602 0.0244002 0)
  (-0.0151873 0.0264177 0)
  (-0.0118775 0.0287303 0)
  (-0.00534754 0.031345 0)
  (0.00606519 0.0330615 0)
  (0.0200816 0.0355576 0)
  (0.0423577 0.0458458 0)
  (0.0602322 0.054603 0)
  (0.0862527 0.0388966 0)
  (0.130036 0.0379305 0)
  (-0.0683801 0.0905504 0)
  (0.850763 0.483676 0)
  (0.00811577 0.159563 0)
  (0.167307 -0.0679861 0)
  (0.271293 -0.169708 0)
  (0.283948 -0.224743 0)
  (0.253807 -0.246352 0)
  (0.202484 -0.232176 0)
  (0.139823 -0.189439 0)
  (0.0753178 -0.130008 0)
  (0.0206347 -0.0678373 0)
  (-0.0189946 -0.0165131 0)
  (-0.0376048 0.00965782 0)
  (-0.0408635 0.0232269 0)
  (-0.0360289 0.0312288 0)
  (-0.0259355 0.0354589 0)
  (-0.0129526 0.0351987 0)
  (0.000246987 0.0293944 0)
  (0.00803692 0.0179447 0)
  (0.00840328 0.00675045 0)
  (0.00339245 -0.000996782 0)
  (-0.00554931 -0.00424024 0)
  (-0.0164434 -0.00323909 0)
  (-0.0272882 0.000769565 0)
  (-0.0362509 0.00637228 0)
  (-0.0419043 0.0120168 0)
  (-0.0449252 0.0164446 0)
  (-0.0463333 0.0194544 0)
  (-0.0466914 0.02138 0)
  (-0.0460412 0.0224434 0)
  (-0.0440431 0.0226331 0)
  (-0.039895 0.0217331 0)
  (-0.0323991 0.0194646 0)
  (-0.0210277 0.015648 0)
  (-0.00629055 0.0101312 0)
  (0.0111456 0.00480276 0)
  (0.0285883 0.00793172 0)
  (0.0447006 0.0101941 0)
  (0.0566548 0.00115098 0)
  (0.126669 0.0535494 0)
  (-0.439592 0.186689 0)
  (1.02038 0.411543 0)
  (0.48214 0.261144 0)
  (0.490854 0.128205 0)
  (0.47843 -0.022113 0)
  (0.408947 -0.120357 0)
  (0.309599 -0.15841 0)
  (0.204156 -0.148161 0)
  (0.102525 -0.109197 0)
  (0.0108956 -0.0566612 0)
  (-0.0518062 -0.0119096 0)
  (-0.078563 0.00840224 0)
  (-0.086683 0.0166973 0)
  (-0.0860295 0.021199 0)
  (-0.0805039 0.0241241 0)
  (-0.0721245 0.025563 0)
  (-0.0627399 0.0248611 0)
  (-0.0544901 0.0215559 0)
  (-0.0501715 0.0159331 0)
  (-0.0506682 0.0103552 0)
  (-0.0548762 0.00658482 0)
  (-0.0611633 0.00531646 0)
  (-0.067799 0.00620973 0)
  (-0.0734764 0.00852474 0)
  (-0.0773905 0.0115213 0)
  (-0.0792046 0.0145235 0)
  (-0.0792491 0.0169286 0)
  (-0.0780776 0.0184805 0)
  (-0.0761475 0.0191604 0)
  (-0.0738211 0.0189428 0)
  (-0.0715384 0.0177399 0)
  (-0.0700044 0.0154941 0)
  (-0.0706401 0.0126044 0)
  (-0.0762162 0.0108779 0)
  (-0.0893091 0.0137201 0)
  (-0.109308 0.0236073 0)
  (-0.134838 0.040059 0)
  (-0.17025 0.0598146 0)
  (-0.217524 0.0773505 0)
  (-0.283907 0.0860262 0)
  (-0.517032 0.0727973 0)
  (0.0778052 -0.0912618 0)
  (0.173032 -0.121343 0)
  (0.163449 -0.125109 0)
  (0.0908856 -0.0982586 0)
  (0.00468737 -0.0515475 0)
  (-0.0696646 -0.00944263 0)
  (-0.11345 0.0109415 0)
  (-0.132647 0.0183273 0)
  (-0.136924 0.019523 0)
  (-0.135759 0.0193941 0)
  (-0.131678 0.0195427 0)
  (-0.125867 0.0201008 0)
  (-0.119179 0.0206196 0)
  (-0.112566 0.020552 0)
  (-0.10718 0.0195662 0)
  (-0.104216 0.0177633 0)
  (-0.103945 0.0160217 0)
  (-0.10567 0.0151194 0)
  (-0.108292 0.0154553 0)
  (-0.110726 0.016961 0)
  (-0.112207 0.0193028 0)
  (-0.112343 0.0221005 0)
  (-0.111062 0.0250237 0)
  (-0.108572 0.0278001 0)
  (-0.105214 0.0302762 0)
  (-0.101344 0.0324147 0)
  (-0.0973507 0.0342264 0)
  (-0.0937171 0.0357428 0)
  (-0.0910428 0.0369867 0)
  (-0.0899682 0.0379303 0)
  (-0.0909436 0.0387498 0)
  (-0.0937235 0.0408278 0)
  (-0.0969042 0.0472847 0)
  (-0.0986242 0.0606643 0)
  (-0.0979111 0.0781249 0)
  (-0.0907139 0.0857508 0)
  (-0.0750299 0.052534 0)
  (-0.108917 -0.181743 0)
  (0.125615 0.0729803 0)
  (-0.0463571 -0.00195562 0)
  (-0.082078 -0.032595 0)
  (-0.136463 -0.0284013 0)
  (-0.174461 -0.0174773 0)
  (-0.191344 -0.0125735 0)
  (-0.194611 -0.0127243 0)
  (-0.192456 -0.0148688 0)
  (-0.187764 -0.0178139 0)
  (-0.182431 -0.0199135 0)
  (-0.176729 -0.0207906 0)
  (-0.170679 -0.0208601 0)
  (-0.164382 -0.0208108 0)
  (-0.15815 -0.0213247 0)
  (-0.152498 -0.0229315 0)
  (-0.147975 -0.0258599 0)
  (-0.144766 -0.02985 0)
  (-0.142611 -0.0344424 0)
  (-0.140996 -0.0391587 0)
  (-0.139358 -0.0436614 0)
  (-0.137261 -0.047812 0)
  (-0.134451 -0.0516526 0)
  (-0.130869 -0.055354 0)
  (-0.126619 -0.0591227 0)
  (-0.121906 -0.0630436 0)
  (-0.116955 -0.066961 0)
  (-0.111945 -0.0704324 0)
  (-0.106954 -0.0727138 0)
  (-0.101927 -0.0728245 0)
  (-0.096662 -0.0697319 0)
  (-0.0906849 -0.0625169 0)
  (-0.0827531 -0.0503636 0)
  (-0.0703683 -0.032933 0)
  (-0.0508048 -0.0120917 0)
  (-0.0257317 0.00555831 0)
  (0.0168718 -0.00639535 0)
  (0.0976928 -0.0832598 0)
  (-0.0598128 -0.138035 0)
  (-0.0693753 -0.292277 0)
  (-0.369373 -0.0963477 0)
  (-0.315002 0.0802777 0)
  (-0.307716 0.0765297 0)
  (-0.291592 0.0823019 0)
  (-0.288579 0.0906727 0)
  (-0.282471 0.0991618 0)
  (-0.272247 0.105777 0)
  (-0.260602 0.110337 0)
  (-0.24988 0.113827 0)
  (-0.2409 0.116557 0)
  (-0.233474 0.118827 0)
  (-0.226834 0.121019 0)
  (-0.220249 0.123618 0)
  (-0.213252 0.127088 0)
  (-0.205718 0.131779 0)
  (-0.197833 0.137886 0)
  (-0.189966 0.145414 0)
  (-0.182435 0.154141 0)
  (-0.175378 0.16366 0)
  (-0.168755 0.173481 0)
  (-0.162405 0.18319 0)
  (-0.156113 0.19258 0)
  (-0.149672 0.201666 0)
  (-0.14293 0.21061 0)
  (-0.135815 0.219588 0)
  (-0.128329 0.228656 0)
  (-0.120497 0.237662 0)
  (-0.112311 0.246219 0)
  (-0.103682 0.253697 0)
  (-0.094406 0.259292 0)
  (-0.0841126 0.262208 0)
  (-0.072125 0.261873 0)
  (-0.0574164 0.258214 0)
  (-0.0393122 0.252335 0)
  (-0.0187744 0.247575 0)
  (0.0075917 0.24756 0)
  (0.0336931 0.257665 0)
  (0.0969284 0.298144 0)
  (-0.221207 0.331056 0)
)
;

boundaryField
{
  floor
  {
    type noSlip;
  }
  ceiling
  {
    type noSlip;
  }
  sWall
  {
    type noSlip;
  }
  nWall
  {
    type noSlip;
  }
  sideWalls
  {
    type empty;
  }
  glass1
  {
    type noSlip;
  }
  glass2
  {
    type noSlip;
  }
  sun
  {
    type noSlip;
  }
  heatsource1
  {
    type noSlip;
  }
  heatsource2
  {
    type noSlip;
  }
  Table_master
  {
    type noSlip;
  }
  Table_slave
  {
    type noSlip;
  }
  inlet
  {
    type fixedValue;
    value uniform (0.277164 -0.114805 0);
  }
  outlet
  {
    type zeroGradient;
  }
} 	// ************************************************************************* //

