/*--------------------------------*- C++ -*----------------------------------*\
  =========                 |
  \\      /  F ield         | OpenFOAM: The Open Source CFD Toolbox
   \\    /   O peration     | Website:  https://openfoam.org
    \\  /    A nd           | Version:  6
     \\/     M anipulation  |
\*---------------------------------------------------------------------------*/
FoamFile
{
    version     2.0;
    format      ascii;
    class       volScalarField;
    location    "500";
    object      nut;
}
// * * * * * * * * * * * * * * * * * * * * * * * * * * * * * * * * * * * * * //

dimensions      [0 2 -1 0 0 0 0];

internalField   nonuniform List<scalar> 
459
(
0.000694314
0.000709392
0.000614638
0.000632545
0.000656936
0.000681963
0.000707372
0.000733585
0.000761495
0.000786882
0.000807895
0.000822048
0.000826186
0.000816304
0.000784644
0.000277662
0.000275718
0.000255269
0.000253465
0.000254669
0.000255752
0.000258634
0.00026592
0.00028001
0.000301092
0.000329565
0.000367426
0.000411111
0.000458201
0.000512822
0.000563033
0.000576484
0.000540495
0.000460898
0.00125848
0.00231505
0.00157023
0.00237753
0.00265087
0.00285746
0.00306438
0.00325987
0.00342252
0.00356263
0.00365169
0.00364793
0.00347982
0.00302505
0.00212047
0.000824575
0.000581117
0.000385279
0.000828083
0.000601167
0.000545571
0.000477269
0.000420423
0.000399322
0.000388344
0.000432642
0.0005212
0.000641395
0.000766542
0.000909427
0.00107601
0.00124472
0.00162057
0.00141256
0.00105438
0.000570863
0.00176077
0.00412524
0.00172422
0.00306092
0.00391791
0.00422384
0.00445283
0.00465152
0.00481177
0.00493921
0.00500351
0.00495686
0.00472171
0.00418618
0.00324905
0.00199247
0.000826808
0.000539325
0.00141812
0.00105004
0.00083584
0.000657115
0.000486205
0.00024195
0.000260197
0.00030838
0.000362847
0.000419357
0.000481648
0.000558036
0.000657333
0.000786148
0.0021214
0.00195661
0.00148811
0.000879912
0.00223044
0.00636544
0.00239532
0.00291886
0.00442249
0.00492038
0.00519827
0.00542926
0.0056237
0.0057893
0.00591753
0.00596416
0.00584986
0.00545451
0.00463674
0.0033363
0.00183685
0.000900988
0.00162574
0.00184758
0.00167051
0.00147798
0.00126958
0.00105297
0.000797728
0.000801839
0.000802392
0.000800318
0.000799223
0.000805104
0.000826899
0.000876314
0.000967378
0.00273445
0.00269634
0.00223192
0.001123
0.00265922
0.00871623
0.00386115
0.00282085
0.00423949
0.00500944
0.00541515
0.00573424
0.00601246
0.00626788
0.00654775
0.00682448
0.00703812
0.00710444
0.00693162
0.00645944
0.00571773
0.00482921
0.00397338
0.00392522
0.00405979
0.00424359
0.00440329
0.00442288
0.0043605
0.00429218
0.004174
0.00401118
0.00382257
0.00364311
0.0035172
0.0034753
0.00350927
0.00358815
0.0034642
0.00323082
0.00276441
0.00129063
0.00111056
0.000977761
0.00305473
0.0107866
0.00638091
0.00381539
0.00372074
0.00435433
0.00494438
0.00541975
0.00579464
0.00614256
0.0065788
0.00709029
0.00762142
0.00809079
0.00840538
0.00847992
0.00826545
0.00779003
0.00717178
0.00676569
0.00663955
0.00667806
0.00675254
0.00675231
0.00668445
0.006548
0.00634133
0.00606388
0.00571993
0.00532902
0.00493375
0.00458824
0.00431785
0.00409464
0.00387037
0.00360623
0.0032445
0.00282903
0.00218401
0.00105531
0.0033942
0.0120901
0.00948616
0.00645238
0.00456483
0.00400912
0.00425616
0.00470904
0.00507302
0.00542909
0.00590834
0.00654422
0.00729798
0.00807732
0.00876771
0.00925722
0.00945708
0.00936096
0.00905707
0.00871775
0.00849943
0.00841059
0.00837895
0.00834475
0.00828262
0.00817598
0.00801605
0.00779232
0.00748945
0.00709025
0.00658681
0.00600205
0.00539935
0.00484419
0.00435305
0.00388432
0.00337231
0.00281739
0.00221739
0.00107514
0.00342159
0.0110049
0.00982074
0.00877804
0.00702097
0.00566111
0.00498367
0.0047727
0.00477729
0.00486183
0.00508447
0.00551319
0.00618373
0.00705517
0.00799594
0.00884042
0.00940271
0.00965418
0.00964752
0.0095026
0.00935001
0.0092491
0.00919887
0.00917685
0.00916051
0.00913259
0.00908178
0.00899684
0.00886243
0.00865633
0.0083473
0.00789541
0.00726141
0.00645286
0.00559606
0.00481929
0.00408422
0.00345289
0.00299761
0.00153264
0.00327444
0.00379862
0.00821261
0.00880513
0.00783146
0.00671737
0.00584306
0.0052515
0.00488482
0.00468133
0.00464189
0.00477662
0.00511788
0.00570241
0.00650524
0.00739419
0.0081769
0.00873036
0.00902978
0.00913295
0.0091326
0.00910184
0.00907901
0.00907799
0.00909857
0.00913517
0.00918061
0.00922528
0.00925585
0.00925459
0.0091987
0.00905519
0.00879884
0.00844135
0.00803616
0.00754592
0.00692752
0.0058959
0.00543393
0.0016013
0.0177902
0.0167733
0.00972967
0.00764965
0.00655457
0.00584199
0.00536313
0.00504788
0.00485758
0.00477886
0.00481839
0.00499527
0.00533049
0.00581872
0.00639798
0.00696582
0.0074296
0.00774856
0.00793669
0.00803365
0.00807954
0.0081056
0.00813281
0.00817411
0.00823631
0.00832017
0.00841941
0.00851929
0.00859619
0.00861644
0.0085371
0.00830807
0.00789483
0.00727342
0.00644034
0.00541603
0.00430683
0.00143695
0.00653369
0.0136302
0.00959266
0.00753176
0.00638225
0.00565318
0.00517238
0.00486036
0.00467516
0.0045909
0.00459749
0.00468362
0.0048404
0.00506259
0.00533771
0.00563844
0.00592721
0.00617177
0.00635678
0.00648348
0.00656317
0.00661078
0.00664061
0.00666422
0.00668898
0.00671827
0.00675267
0.00678437
0.00680075
0.00678075
0.00667682
0.00644366
0.00604252
0.00545168
0.00466386
0.00368799
0.00305413
0.00134563
0.00175694
0.00263722
0.00472342
0.00428341
0.00357002
0.00300846
0.0025949
0.00228621
0.00204952
0.00186408
0.00171729
0.001602
0.00151257
0.00144567
0.00139884
0.00136955
0.00135501
0.0013517
0.00135532
0.00136151
0.00136692
0.0013697
0.00136929
0.00136599
0.00136052
0.00135376
0.00134667
0.00133995
0.00133373
0.00132801
0.00132204
0.00131418
0.00130315
0.00128676
0.00126248
0.00122715
0.00117538
0.00109796
0.00104889
0.00120266
)
;

boundaryField
{
    floor
    {
        type            nutkWallFunction;
        Cmu             0.09;
        kappa           0.41;
        E               9.8;
        value           nonuniform List<scalar> 
29
(
9.50251e-05
3.03388e-05
3.00652e-05
2.72259e-05
2.6972e-05
2.71408e-05
2.72933e-05
2.76954e-05
2.87067e-05
3.06529e-05
3.35429e-05
3.74054e-05
4.24736e-05
4.82398e-05
5.43683e-05
6.1378e-05
6.77394e-05
6.94323e-05
6.4894e-05
5.47106e-05
5.47106e-05
6.87224e-05
0.000106524
0.000135131
9.50251e-05
3.03387e-05
4.48402e-05
6.47209e-05
0.000108969
)
;
    }
    ceiling
    {
        type            nutkWallFunction;
        Cmu             0.09;
        kappa           0.41;
        E               9.8;
        value           nonuniform List<scalar> 
43
(
0.000206954
0.000302162
0.000516202
0.000471964
0.000399318
0.00034112
0.00029756
0.000264579
0.000238975
0.000218695
0.000202489
0.000189654
0.000179629
0.000172085
0.00016678
0.000163451
0.000161793
0.000161413
0.000161822
0.000162524
0.000163137
0.000163452
0.000163404
0.000163028
0.000162405
0.000161636
0.000160828
0.000160062
0.000159354
0.000158704
0.000158023
0.000157126
0.000155868
0.000153995
0.000151216
0.000147161
0.000141193
0.000132212
0.000126477
0.000144332
0.000368694
0.000422563
0.00069413
)
;
    }
    sWall
    {
        type            nutkWallFunction;
        Cmu             0.09;
        kappa           0.41;
        E               9.8;
        value           uniform 0.000207;
    }
    nWall
    {
        type            nutkWallFunction;
        Cmu             0.09;
        kappa           0.41;
        E               9.8;
        value           nonuniform List<scalar> 6(0.000118115 0.000127291 0.000129592 0.000171067 0.000160707 0.000144341);
    }
    sideWalls
    {
        type            empty;
    }
    glass1
    {
        type            nutkWallFunction;
        Cmu             0.09;
        kappa           0.41;
        E               9.8;
        value           nonuniform List<scalar> 9(8.39769e-05 0.000150878 0.000207478 0.000258793 0.000304632 0.000346229 0.00038149 0.000384334 0.000369131);
    }
    glass2
    {
        type            nutkWallFunction;
        Cmu             0.09;
        kappa           0.41;
        E               9.8;
        value           nonuniform List<scalar> 2(0.000181903 0.000189582);
    }
    sun
    {
        type            nutkWallFunction;
        Cmu             0.09;
        kappa           0.41;
        E               9.8;
        value           nonuniform List<scalar> 
14
(
8.40161e-05
8.58657e-05
7.41655e-05
7.63938e-05
7.94159e-05
8.25027e-05
8.56229e-05
8.8828e-05
9.22252e-05
9.53028e-05
9.7841e-05
9.95459e-05
0.000100043
9.88515e-05
)
;
    }
    heatsource1
    {
        type            nutkWallFunction;
        Cmu             0.09;
        kappa           0.41;
        E               9.8;
        value           nonuniform List<scalar> 3(0.000154441 0.000133616 0.00011811);
    }
    heatsource2
    {
        type            nutkWallFunction;
        Cmu             0.09;
        kappa           0.41;
        E               9.8;
        value           nonuniform List<scalar> 4(9.98407e-05 6.99806e-05 6.99806e-05 0.000100101);
    }
    Table_master
    {
        type            nutkWallFunction;
        Cmu             0.09;
        kappa           0.41;
        E               9.8;
        value           nonuniform List<scalar> 9(2.53686e-05 2.79009e-05 3.45134e-05 4.18379e-05 4.92918e-05 5.73615e-05 6.70817e-05 7.94809e-05 9.52409e-05);
    }
    Table_slave
    {
        type            nutkWallFunction;
        Cmu             0.09;
        kappa           0.41;
        E               9.8;
        value           nonuniform List<scalar> 9(9.66207e-05 9.71237e-05 9.71954e-05 9.69483e-05 9.68176e-05 9.7527e-05 0.000100151 0.000106075 0.000116897);
    }
    inlet
    {
        type            calculated;
        value           uniform 0.0177902;
    }
    outlet
    {
        type            calculated;
        value           nonuniform List<scalar> 2(0.00175694 0.00263722);
    }
}


// ************************************************************************* //
