/*--------------------------------*- C++ -*----------------------------------*\
  =========                 |
  \\      /  F ield         | OpenFOAM: The Open Source CFD Toolbox
   \\    /   O peration     | Website:  https://openfoam.org
    \\  /    A nd           | Version:  6
     \\/     M anipulation  |
\*---------------------------------------------------------------------------*/
FoamFile
{
    version     2.0;
    format      ascii;
    class       volScalarField;
    location    "1100";
    object      alphat;
}
// * * * * * * * * * * * * * * * * * * * * * * * * * * * * * * * * * * * * * //

dimensions      [1 -1 -1 0 0 0 0];

internalField   nonuniform List<scalar> 
459
(
0.00162282
0.00208733
0.00199357
0.00181084
0.00164335
0.00147112
0.00120539
0.000693193
0.000613259
0.000590371
0.000588412
0.000597285
0.000609932
0.000620909
0.000628167
0.000442928
0.000410336
0.000319447
0.000252256
0.000228925
0.000227199
0.000233899
0.00024695
0.000260849
0.000272633
0.000280139
0.000284159
0.000293648
0.000316921
0.000358895
0.000419527
0.00047994
0.000609859
0.00056266
0.00236907
0.00303699
0.00325248
0.00323161
0.00304251
0.00273896
0.00230254
0.00194342
0.00221106
0.0023192
0.00231058
0.00219627
0.00203563
0.00177974
0.00135135
0.000732776
0.000470311
0.000582327
0.00147301
0.00109613
0.000879704
0.000774863
0.000733125
0.000742068
0.000808324
0.000880564
0.000940659
0.000986054
0.00103457
0.00110634
0.00123753
0.00146899
0.00188044
0.00198666
0.00244407
0.000791076
0.00303904
0.00382493
0.00382252
0.00365918
0.00344881
0.00318834
0.00280713
0.00248161
0.00263207
0.00310346
0.00340324
0.00328853
0.00304925
0.00270207
0.00218119
0.00149916
0.000823101
0.000678152
0.00153103
0.00108466
0.000752189
0.000551453
0.000434474
0.000345138
0.000367827
0.000394214
0.000424573
0.000461293
0.000507708
0.000569417
0.000656761
0.000790147
0.00246406
0.00278994
0.00346869
0.000976534
0.00330204
0.00468772
0.00441628
0.00398764
0.00365198
0.00336177
0.00301916
0.00278111
0.00305633
0.00367636
0.00421844
0.00437957
0.00424653
0.00399686
0.00354753
0.0027867
0.00171984
0.000845747
0.00181413
0.00213071
0.00174312
0.00136035
0.00105814
0.000807994
0.000620349
0.000630247
0.000642495
0.000657227
0.000676601
0.00070302
0.000740183
0.000795573
0.000886877
0.00280098
0.00297884
0.00342439
0.0010052
0.00350416
0.00527221
0.00467323
0.00399345
0.00363435
0.00335271
0.0030632
0.00296544
0.00343027
0.004079
0.00475828
0.00522919
0.0053776
0.00542177
0.0054208
0.00535259
0.00515345
0.00479432
0.00457608
0.00427951
0.00397415
0.0037721
0.00365671
0.00358617
0.00351044
0.0034825
0.00344621
0.0034091
0.0033765
0.00335328
0.00334458
0.00335852
0.00340821
0.00352164
0.0031733
0.00259504
0.00189822
0.000960117
0.000993178
0.000952434
0.0037046
0.0052548
0.00420026
0.00377609
0.00347412
0.00325008
0.00305761
0.00312522
0.00370628
0.00434603
0.00504901
0.00565506
0.00593242
0.00604081
0.00614465
0.00625794
0.00631087
0.00621052
0.00598789
0.00573743
0.00554365
0.00538984
0.0052831
0.00520755
0.00513603
0.00505685
0.0049721
0.00488679
0.0048059
0.00473378
0.00467268
0.00462221
0.00457663
0.00450905
0.00434427
0.00407708
0.00373837
0.00347861
0.00334529
0.00120294
0.00394654
0.00482028
0.00334091
0.00345923
0.00331802
0.00318811
0.00310144
0.00329118
0.00391328
0.00451757
0.00516776
0.00573684
0.00599828
0.00606225
0.00618788
0.00638215
0.00655746
0.00662097
0.00656342
0.00645266
0.00634649
0.00624993
0.00616453
0.00608325
0.0059967
0.00590009
0.00579454
0.00568276
0.00556972
0.00546265
0.00536789
0.00528864
0.00522751
0.00518308
0.0051397
0.00506807
0.00492634
0.00478716
0.0048912
0.00141498
0.00427885
0.00478319
0.00406384
0.00285423
0.00330364
0.00331356
0.00327799
0.00350781
0.00412281
0.00469246
0.00519376
0.00554187
0.00571078
0.00578627
0.00597675
0.00623344
0.00647657
0.00663919
0.00670267
0.00669917
0.00666595
0.00661952
0.00656946
0.00651609
0.00645307
0.00638012
0.00629913
0.00620773
0.00610644
0.00600203
0.00590416
0.00581602
0.00573778
0.00566993
0.00561178
0.00556867
0.00555228
0.00555217
0.00574698
0.00161915
0.00482453
0.00576297
0.0087483
0.00362111
0.00331516
0.00392942
0.00382974
0.00397595
0.00457745
0.00499457
0.0052793
0.00552883
0.00573438
0.0059421
0.0061861
0.00642612
0.0066322
0.0067839
0.00687571
0.00691953
0.00693156
0.00692306
0.00690267
0.00687516
0.00683738
0.0067937
0.00675269
0.00670989
0.00665918
0.00659809
0.0065321
0.00646115
0.00638183
0.00629251
0.00619196
0.00608464
0.00599747
0.00596171
0.00581725
0.00163761
0.0148727
0.00903633
0.00457811
0.00526327
0.00517514
0.00517461
0.00559536
0.00591186
0.00624091
0.00660876
0.00690239
0.00712821
0.00729798
0.00741813
0.00750442
0.00757159
0.0076284
0.00767885
0.00772299
0.00775674
0.00777418
0.00777017
0.00774458
0.00771008
0.00768303
0.00766713
0.00765513
0.0076354
0.00760151
0.00754389
0.0074599
0.00735069
0.00721574
0.00704781
0.0068244
0.0064734
0.005546
0.00173179
0.00547729
0.00616774
0.00736564
0.00636522
0.00567892
0.00543418
0.0058116
0.00636776
0.00701305
0.00766986
0.00819358
0.00850301
0.00863732
0.00866347
0.00864438
0.00862362
0.00862344
0.00864879
0.00869352
0.00874591
0.00879031
0.00880035
0.00878086
0.00875715
0.00874587
0.00875444
0.00878356
0.00882349
0.00884559
0.00882104
0.00875828
0.00866272
0.00853204
0.00835572
0.00810871
0.00771029
0.00679479
0.0022474
0.00101854
0.00121459
0.00337132
0.00277498
0.00238392
0.00209994
0.00191462
0.0017977
0.00175654
0.00175688
0.00178184
0.00182124
0.00187402
0.00193189
0.00197952
0.00201163
0.00202965
0.00203784
0.0020408
0.00204201
0.00204346
0.00204568
0.00204791
0.00205042
0.00205298
0.00205453
0.00205572
0.00205724
0.0020593
0.0020615
0.00206337
0.00206511
0.00206426
0.00206032
0.00205272
0.0020401
0.00202037
0.00198931
0.00192566
0.00168779
)
;

boundaryField
{
    floor
    {
        type            compressible::alphatWallFunction;
        Prt             0.85;
        value           nonuniform List<scalar> 
29
(
8.88232e-05
6.06119e-05
5.55116e-05
4.10027e-05
2.99212e-05
2.59866e-05
2.56967e-05
2.68366e-05
2.90412e-05
3.137e-05
3.33304e-05
3.45726e-05
3.52356e-05
3.67984e-05
4.06037e-05
4.73754e-05
5.69767e-05
6.63639e-05
8.60684e-05
7.89775e-05
7.89765e-05
0.000112718
0.000139237
0.000143275
8.88222e-05
6.06111e-05
8.19146e-05
9.61988e-05
0.000120604
)
;
    }
    ceiling
    {
        type            compressible::alphatWallFunction;
        Prt             0.85;
        value           nonuniform List<scalar> 
43
(
0.000145696
0.000172944
0.000451048
0.000376775
0.000327153
0.000290561
0.000266422
0.000251055
0.000245622
0.000245665
0.00024896
0.000254148
0.000261075
0.000268652
0.000274871
0.000279058
0.000281407
0.000282476
0.000282861
0.00028302
0.000283209
0.000283496
0.000283784
0.00028411
0.000284441
0.000284642
0.000284796
0.000284993
0.00028526
0.000285546
0.000285789
0.000286013
0.0002859
0.000285386
0.000284396
0.000282753
0.000280184
0.000276136
0.000267819
0.000236475
0.000626735
0.000737311
0.00070381
)
;
    }
    sWall
    {
        type            compressible::alphatWallFunction;
        Prt             0.85;
        value           uniform 0.000145011;
    }
    nWall
    {
        type            compressible::alphatWallFunction;
        Prt             0.85;
        value           nonuniform List<scalar> 6(0.000135734 0.000170724 0.000199684 0.000242086 0.000309327 0.000236246);
    }
    sideWalls
    {
        type            empty;
    }
    glass1
    {
        type            compressible::alphatWallFunction;
        Prt             0.85;
        value           nonuniform List<scalar> 9(0.000224917 0.000321613 0.000405725 0.000438176 0.000462933 0.00048734 0.000516626 0.00055658 0.000621573);
    }
    glass2
    {
        type            compressible::alphatWallFunction;
        Prt             0.85;
        value           nonuniform List<scalar> 2(0.000227309 0.000229776);
    }
    sun
    {
        type            compressible::alphatWallFunction;
        Prt             0.85;
        value           nonuniform List<scalar> 
14
(
0.000227781
0.000288803
0.000276623
0.000252681
0.000230497
0.000207421
0.000171171
9.84598e-05
8.66182e-05
8.31867e-05
8.28885e-05
8.42169e-05
8.61076e-05
8.77443e-05
)
;
    }
    heatsource1
    {
        type            compressible::alphatWallFunction;
        Prt             0.85;
        value           nonuniform List<scalar> 3(0.000136785 0.000141452 0.000135694);
    }
    heatsource2
    {
        type            compressible::alphatWallFunction;
        Prt             0.85;
        value           nonuniform List<scalar> 4(0.000104123 6.47911e-05 6.47903e-05 0.000117223);
    }
    Table_master
    {
        type            compressible::alphatWallFunction;
        Prt             0.85;
        value           nonuniform List<scalar> 9(4.50899e-05 4.87203e-05 5.2906e-05 5.76771e-05 6.33901e-05 7.05296e-05 7.98962e-05 9.29426e-05 0.000112469);
    }
    Table_slave
    {
        type            compressible::alphatWallFunction;
        Prt             0.85;
        value           nonuniform List<scalar> 9(8.75322e-05 8.90066e-05 9.08272e-05 9.3011e-05 9.5874e-05 9.9762e-05 0.000105202 0.00011325 0.000126374);
    }
    inlet
    {
        type            fixedValue;
        value           uniform 1.94e-05;
    }
    outlet
    {
        type            zeroGradient;
    }
}


// ************************************************************************* //
