/*--------------------------------*- C++ -*----------------------------------*\
  =========                 |
  \\      /  F ield         | OpenFOAM: The Open Source CFD Toolbox
   \\    /   O peration     | Website:  https://openfoam.org
    \\  /    A nd           | Version:  6
     \\/     M anipulation  |
\*---------------------------------------------------------------------------*/
FoamFile
{
    version     2.0;
    format      ascii;
    class       volScalarField;
    location    "380";
    object      nut;
}
// * * * * * * * * * * * * * * * * * * * * * * * * * * * * * * * * * * * * * //

dimensions      [0 2 -1 0 0 0 0];

internalField   nonuniform List<scalar> 
459
(
0.000925785
0.00114278
0.00117776
0.00114262
0.00109581
0.0010506
0.00100878
0.000970264
0.000934958
0.000901092
0.000867118
0.000831334
0.000791381
0.000742717
0.000686211
0.000532419
0.00070018
0.000731629
0.000727208
0.000700471
0.000667507
0.000626546
0.00058657
0.000550858
0.00051953
0.000492034
0.000467733
0.000445945
0.000426323
0.000407837
0.00038924
0.000369536
0.000339695
0.000331109
0.00111217
0.00342827
0.00295334
0.00281326
0.00268188
0.0025696
0.00248753
0.00241241
0.00231226
0.00218666
0.00202972
0.00183321
0.00159119
0.00129942
0.000985724
0.000674132
0.000601835
0.000821242
0.0025235
0.00211641
0.00217828
0.00228656
0.00223816
0.00172631
0.00146415
0.00128513
0.00115248
0.00105028
0.000969885
0.00090642
0.000839637
0.000764477
0.000693371
0.000680457
0.000627172
0.00041692
0.00118029
0.00379625
0.00279476
0.00282907
0.00281227
0.00280668
0.00285587
0.0029207
0.00293778
0.00287551
0.00272097
0.00247526
0.0021514
0.00177105
0.00137394
0.00100712
0.000613247
0.000797822
0.00233574
0.0021945
0.00247994
0.00277963
0.00268978
0.000823982
0.00072908
0.000650687
0.000586344
0.000533362
0.000489486
0.000453076
0.000424234
0.000403483
0.00045382
0.000600855
0.000770136
0.000478976
0.00121436
0.00348938
0.00237135
0.00279246
0.00292759
0.00300915
0.00318456
0.00334462
0.00339666
0.00332884
0.0031503
0.00287725
0.00253098
0.00213655
0.00172245
0.00132145
0.000891746
0.00063148
0.0012319
0.00173546
0.00247223
0.00316648
0.00361725
0.00343195
0.000900055
0.000826722
0.000768657
0.00071803
0.000670383
0.000623066
0.00057423
0.000522128
0.000462574
0.00044208
0.000565547
0.000924065
0.000557224
0.00124904
0.00296426
0.00207668
0.00289131
0.00325271
0.00342231
0.00370623
0.00379821
0.0037682
0.00365449
0.00346179
0.0031971
0.00287879
0.00253007
0.00217565
0.00185256
0.00159603
0.00171816
0.00237016
0.00323799
0.00401871
0.00457755
0.00488115
0.00486703
0.00416972
0.00375289
0.00333556
0.00292886
0.00252458
0.00211963
0.00171201
0.0013026
0.000892654
0.000618591
0.000612193
0.000923969
0.000791617
0.000616236
0.000667064
0.000965247
0.00127467
0.00262695
0.00191876
0.00297756
0.00364328
0.00385325
0.00415356
0.00418125
0.00411313
0.00400502
0.00385303
0.00364853
0.00341734
0.00318559
0.00299106
0.00290617
0.0030205
0.00363997
0.00443844
0.00511301
0.00558677
0.00584382
0.00590963
0.0058026
0.00548153
0.00502753
0.00448323
0.00389826
0.00329889
0.00269969
0.00210927
0.00153511
0.00108398
0.000848103
0.000821538
0.000941345
0.000922823
0.000983461
0.00144994
0.00128508
0.00129772
0.00247836
0.00166792
0.00307325
0.0040671
0.00414464
0.00436358
0.00440671
0.00437427
0.00432923
0.00426944
0.00419544
0.00412457
0.00408139
0.00412772
0.0043358
0.00477289
0.00546463
0.00603401
0.00638908
0.00653984
0.0065088
0.00634366
0.00606653
0.00565862
0.00515761
0.00459079
0.00398535
0.0033706
0.00277763
0.00224155
0.00180389
0.00151958
0.00139771
0.00135423
0.00129215
0.00111236
0.00139056
0.0026342
0.00175046
0.00130316
0.0022889
0.00127555
0.00305433
0.0046077
0.00456558
0.00452755
0.00445524
0.00444198
0.00446706
0.00450799
0.00456484
0.00465271
0.00479757
0.00503651
0.00541547
0.00590649
0.00640219
0.00669441
0.00675578
0.00662158
0.00631981
0.00590245
0.00545111
0.00499505
0.00453498
0.00406358
0.00359183
0.00314908
0.00277335
0.0025003
0.00235052
0.00231433
0.00232673
0.00227416
0.00209707
0.00167564
0.00193055
0.00476906
0.00241742
0.00135867
0.00124299
0.000926498
0.00278491
0.00507727
0.00511962
0.00494693
0.0048657
0.00489501
0.00496338
0.00504575
0.0051444
0.00527153
0.00544235
0.0056697
0.0059525
0.00624
0.00643294
0.00643554
0.00623717
0.00588133
0.00545161
0.00502142
0.00463013
0.0042924
0.00400537
0.0037634
0.0035732
0.00345057
0.00341063
0.00345832
0.00357976
0.00373276
0.00383922
0.00380411
0.00357573
0.00306239
0.00312163
0.00639389
0.00272364
0.000728258
0.00253639
0.00532194
0.00565445
0.00573058
0.00585902
0.00599604
0.0061078
0.00619321
0.00626184
0.00632361
0.00638531
0.00644786
0.0065014
0.00651969
0.00646832
0.00633126
0.00612666
0.00588878
0.00564987
0.00543083
0.00524259
0.00508981
0.00497608
0.00490683
0.0048903
0.00493496
0.00504513
0.00521561
0.005425
0.0056284
0.00575442
0.00571126
0.00547493
0.00500002
0.00486803
0.00669789
0.00231311
0.00212042
0.00607626
0.0063807
0.00641683
0.00659958
0.006823
0.0070027
0.00712217
0.0071923
0.00722736
0.00723838
0.00723285
0.00721578
0.00718978
0.00715363
0.00710193
0.00702809
0.00693239
0.0068233
0.00671129
0.00660365
0.00650585
0.00642386
0.00636532
0.0063389
0.00635362
0.00641739
0.0065349
0.00670414
0.00691044
0.0071169
0.00725243
0.00720571
0.00692167
0.00639793
0.0058827
0.00530033
0.00193963
0.00130696
0.00138612
0.00157491
0.00169006
0.00171972
0.00172678
0.00173321
0.00173886
0.00174247
0.00174425
0.00174492
0.00174516
0.00174551
0.00174635
0.00174773
0.00174918
0.00174961
0.00174781
0.00174333
0.00173674
0.00172909
0.00172137
0.00171436
0.0017087
0.00170496
0.00170367
0.00170535
0.00171044
0.00171915
0.00173124
0.00174568
0.00176004
0.00176988
0.001769
0.00175621
0.00173851
0.00174664
0.00179671
0.00182758
0.00163143
)
;

boundaryField
{
    floor
    {
        type            nutkWallFunction;
        Cmu             0.09;
        kappa           0.41;
        E               9.8;
        value           nonuniform List<scalar> 
29
(
8.30467e-05
6.38684e-05
8.47575e-05
8.86029e-05
8.80641e-05
8.47942e-05
8.07422e-05
7.56736e-05
7.06883e-05
6.61999e-05
6.22331e-05
5.87274e-05
5.56088e-05
5.27956e-05
5.02473e-05
4.78331e-05
4.53903e-05
4.2786e-05
3.88075e-05
3.76538e-05
3.76537e-05
4.90184e-05
5.70509e-05
6.69992e-05
8.30467e-05
6.38684e-05
9.94534e-05
9.66333e-05
7.62883e-05
)
;
    }
    ceiling
    {
        type            nutkWallFunction;
        Cmu             0.09;
        kappa           0.41;
        E               9.8;
        value           nonuniform List<scalar> 
43
(
0.000156248
0.000165251
0.000186503
0.000199327
0.000202615
0.000203398
0.00020411
0.000204736
0.000205135
0.000205332
0.000205406
0.000205433
0.000205472
0.000205565
0.000205718
0.000205879
0.000205926
0.000205727
0.000205232
0.000204503
0.000203657
0.000202802
0.000202025
0.000201398
0.000200983
0.00020084
0.000201026
0.000201589
0.000202553
0.000203892
0.000205488
0.000207074
0.00020816
0.000208061
0.000206649
0.000204691
0.00020559
0.000211116
0.000214515
0.000192809
0.000162106
0.000148899
0.000246453
)
;
    }
    sWall
    {
        type            nutkWallFunction;
        Cmu             0.09;
        kappa           0.41;
        E               9.8;
        value           uniform 0.00015625;
    }
    nWall
    {
        type            nutkWallFunction;
        Cmu             0.09;
        kappa           0.41;
        E               9.8;
        value           nonuniform List<scalar> 6(0.000116617 0.000153748 0.000206008 0.000267229 0.0002268 0.000192808);
    }
    sideWalls
    {
        type            empty;
    }
    glass1
    {
        type            nutkWallFunction;
        Cmu             0.09;
        kappa           0.41;
        E               9.8;
        value           nonuniform List<scalar> 9(0.00011194 0.000133806 0.000141688 0.000145611 0.000149593 0.000152527 0.000155162 0.000155783 0.000162101);
    }
    glass2
    {
        type            nutkWallFunction;
        Cmu             0.09;
        kappa           0.41;
        E               9.8;
        value           nonuniform List<scalar> 2(0.000278298 0.000310781);
    }
    sun
    {
        type            nutkWallFunction;
        Cmu             0.09;
        kappa           0.41;
        E               9.8;
        value           nonuniform List<scalar> 
14
(
0.000111942
0.000137361
0.000141404
0.000137342
0.000131908
0.000126636
0.000121736
0.000117202
0.000113028
0.000109007
0.000104956
0.000100668
9.58562e-05
8.99557e-05
)
;
    }
    heatsource1
    {
        type            nutkWallFunction;
        Cmu             0.09;
        kappa           0.41;
        E               9.8;
        value           nonuniform List<scalar> 3(7.43835e-05 8.06816e-05 0.000116621);
    }
    heatsource2
    {
        type            nutkWallFunction;
        Cmu             0.09;
        kappa           0.41;
        E               9.8;
        value           nonuniform List<scalar> 4(8.15583e-05 7.25955e-05 7.25955e-05 7.40182e-05);
    }
    Table_master
    {
        type            nutkWallFunction;
        Cmu             0.09;
        kappa           0.41;
        E               9.8;
        value           nonuniform List<scalar> 9(9.97857e-05 8.82909e-05 7.86615e-05 7.06534e-05 6.39791e-05 5.83899e-05 5.37046e-05 4.99594e-05 4.72451e-05);
    }
    Table_slave
    {
        type            nutkWallFunction;
        Cmu             0.09;
        kappa           0.41;
        E               9.8;
        value           nonuniform List<scalar> 9(0.000108888 0.000100115 9.31048e-05 8.69408e-05 8.10923e-05 7.52346e-05 6.9132e-05 6.25507e-05 5.49276e-05);
    }
    inlet
    {
        type            calculated;
        value           uniform 0.000100623;
    }
    outlet
    {
        type            calculated;
        value           nonuniform List<scalar> 2(0.00130696 0.00138612);
    }
}


// ************************************************************************* //
