// -*- C++ -*-
// File generated by PyFoam - sorry for the ugliness

FoamFile
{
 version 2.0;
 format ascii;
 class volVectorField;
 location "380";
 object U;
}

dimensions [ 0 1 -1 0 0 0 0 ];

internalField nonuniform List<vector> 459
(
  (-0.0679896 -0.0441317 0)
  (0.0697014 -0.0236581 0)
  (0.100141 -0.0351716 0)
  (0.135265 -0.0304525 0)
  (0.166558 -0.0213036 0)
  (0.185776 -0.0137271 0)
  (0.193816 -0.00831337 0)
  (0.194336 -0.00435836 0)
  (0.189888 -0.00114218 0)
  (0.181872 0.00171491 0)
  (0.170474 0.00460464 0)
  (0.155129 0.00811686 0)
  (0.134241 0.0134719 0)
  (0.10187 0.0248114 0)
  (0.0926866 0.0563135 0)
  (-0.116976 0.00524033 0)
  (0.0260758 0.005685 0)
  (-0.00354993 -0.0125873 0)
  (0.0203925 -0.0199309 0)
  (0.0381915 -0.0160882 0)
  (0.05319 -0.0111417 0)
  (0.0631858 -0.00687841 0)
  (0.0687888 -0.00460938 0)
  (0.0716971 -0.00367155 0)
  (0.0734956 -0.00321916 0)
  (0.074862 -0.002885 0)
  (0.0758404 -0.00254901 0)
  (0.0762356 -0.00209041 0)
  (0.0755568 -0.00121772 0)
  (0.0728727 0.000589434 0)
  (0.0663764 0.0042095 0)
  (0.0549751 0.00957528 0)
  (0.00616063 0.021415 0)
  (0.101588 0.00532899 0)
  (-0.145646 -0.0599781 0)
  (0.0782331 -0.0433082 0)
  (0.0762803 -0.0693163 0)
  (0.110868 -0.0548517 0)
  (0.138402 -0.0331448 0)
  (0.152872 -0.0160849 0)
  (0.15788 -0.00425203 0)
  (0.156813 0.00406132 0)
  (0.151956 0.0102167 0)
  (0.144649 0.0152037 0)
  (0.135346 0.0199616 0)
  (0.124216 0.0255671 0)
  (0.111776 0.0334542 0)
  (0.0980675 0.0460628 0)
  (0.0979124 0.0706489 0)
  (0.0895616 0.0631725 0)
  (0.0556589 0.0551969 0)
  (-0.149783 0.00516862 0)
  (0.039819 -0.0065081 0)
  (0.0312508 -0.0253416 0)
  (0.0432358 -0.0299322 0)
  (0.0557211 -0.0241576 0)
  (0.0648926 -0.0156576 0)
  (0.068941 -0.00709264 0)
  (0.0698846 -0.00227509 0)
  (0.0699703 -0.00034674 0)
  (0.070223 0.000478024 0)
  (0.0705972 0.00101528 0)
  (0.0709011 0.00157596 0)
  (0.0710901 0.00252994 0)
  (0.0709527 0.00432642 0)
  (0.0698612 0.00811832 0)
  (0.0648727 0.017204 0)
  (0.0558625 0.0265837 0)
  (0.00314592 0.0404628 0)
  (0.160953 0.0263389 0)
  (-0.201222 -0.0753386 0)
  (0.0845292 -0.0735949 0)
  (0.0419235 -0.109478 0)
  (0.0799297 -0.0839777 0)
  (0.102071 -0.0502613 0)
  (0.109891 -0.0249375 0)
  (0.110565 -0.00777634 0)
  (0.107271 0.00431183 0)
  (0.102858 0.0132091 0)
  (0.0981105 0.0201927 0)
  (0.0932172 0.0265613 0)
  (0.0883056 0.0335574 0)
  (0.0838161 0.0423271 0)
  (0.0792891 0.0537291 0)
  (0.0792186 0.0693118 0)
  (0.0708922 0.067123 0)
  (0.0541493 0.0845392 0)
  (-0.159225 -0.00360372 0)
  (0.0631527 -0.0423828 0)
  (0.0613736 -0.0477271 0)
  (0.0666157 -0.0430443 0)
  (0.0727156 -0.0332156 0)
  (0.076705 -0.023087 0)
  (0.0748586 -0.0181668 0)
  (0.0683562 -0.0127107 0)
  (0.0633248 -0.009705 0)
  (0.0606416 -0.00795646 0)
  (0.0590831 -0.00679437 0)
  (0.0579789 -0.00591088 0)
  (0.057408 -0.00497837 0)
  (0.0584162 -0.00326782 0)
  (0.0630287 0.00154119 0)
  (0.0621056 0.0220542 0)
  (0.055711 0.0374178 0)
  (-0.00255698 0.0549424 0)
  (0.196443 0.0541997 0)
  (-0.234768 -0.0775093 0)
  (0.0781017 -0.0923541 0)
  (0.00267432 -0.140544 0)
  (0.0453337 -0.105131 0)
  (0.0605237 -0.0576222 0)
  (0.0611225 -0.0247998 0)
  (0.0573351 -0.00406824 0)
  (0.053511 0.00911914 0)
  (0.0519859 0.017531 0)
  (0.0517158 0.0237095 0)
  (0.0521927 0.0294191 0)
  (0.0532823 0.0357733 0)
  (0.0552229 0.0434998 0)
  (0.0578954 0.0529809 0)
  (0.0648063 0.0654876 0)
  (0.0748649 0.0729068 0)
  (0.0881126 0.0908073 0)
  (0.114761 -0.0128282 0)
  (0.107252 -0.0232632 0)
  (0.105263 -0.0433088 0)
  (0.0945972 -0.0484462 0)
  (0.0869707 -0.043023 0)
  (0.0826676 -0.0329732 0)
  (0.0797297 -0.0207155 0)
  (0.0805033 -0.0118824 0)
  (0.083557 -0.00735598 0)
  (0.0833399 -0.00445223 0)
  (0.0798873 -0.00246758 0)
  (0.0745437 -0.000950623 0)
  (0.0679743 0.000334406 0)
  (0.0601497 0.00159016 0)
  (0.0505031 0.00313468 0)
  (0.0333749 0.00578261 0)
  (0.0326863 0.0304796 0)
  (0.0419694 0.044822 0)
  (-0.0101343 0.0610978 0)
  (0.219913 0.089678 0)
  (-0.24553 -0.0666253 0)
  (0.0515365 -0.095879 0)
  (-0.029045 -0.159831 0)
  (0.010071 -0.120076 0)
  (0.0192639 -0.0564663 0)
  (0.0151113 -0.0186168 0)
  (0.00974018 0.00131303 0)
  (0.00930625 0.0111605 0)
  (0.0113431 0.0169556 0)
  (0.0146613 0.0217023 0)
  (0.0189044 0.0265629 0)
  (0.0240711 0.032025 0)
  (0.0304719 0.0384275 0)
  (0.038538 0.0459166 0)
  (0.0509042 0.0550219 0)
  (0.0675492 0.0604612 0)
  (0.0886175 0.0609305 0)
  (0.108217 0.0139755 0)
  (0.110787 -0.0120817 0)
  (0.102595 -0.0313033 0)
  (0.0912945 -0.0373749 0)
  (0.080491 -0.0339443 0)
  (0.0715564 -0.0258335 0)
  (0.0646419 -0.0156332 0)
  (0.0602055 -0.00468526 0)
  (0.0566628 0.00237438 0)
  (0.0524061 0.0061849 0)
  (0.0471755 0.00839005 0)
  (0.0414845 0.00999963 0)
  (0.0355357 0.0114947 0)
  (0.0293016 0.0131986 0)
  (0.0229768 0.0154712 0)
  (0.0145283 0.0186061 0)
  (0.0138878 0.0299391 0)
  (0.0327313 0.0398342 0)
  (0.00365633 0.0481982 0)
  (0.122605 0.086583 0)
  (0.0964156 0.0752375 0)
  (-0.096933 0.0640428 0)
  (0.335375 -0.00864299 0)
  (-0.258977 -0.040852 0)
  (0.0250567 -0.0840414 0)
  (-0.049794 -0.16965 0)
  (-0.0224933 -0.13225 0)
  (-0.014941 -0.0552417 0)
  (-0.0173183 -0.0161318 0)
  (-0.019305 0.000655792 0)
  (-0.0177686 0.00815215 0)
  (-0.0148597 0.0126123 0)
  (-0.0105829 0.0163929 0)
  (-0.00509475 0.0202615 0)
  (0.00195904 0.0246135 0)
  (0.0104614 0.0293897 0)
  (0.0208569 0.0342788 0)
  (0.0345365 0.0388551 0)
  (0.0513233 0.0391436 0)
  (0.0715012 0.0316899 0)
  (0.0849323 0.00621501 0)
  (0.0859724 -0.0141333 0)
  (0.0786821 -0.0250375 0)
  (0.0678342 -0.0274482 0)
  (0.0562745 -0.0237306 0)
  (0.0457233 -0.0166629 0)
  (0.0369644 -0.00803497 0)
  (0.029792 0.000887394 0)
  (0.0245926 0.00688993 0)
  (0.0202364 0.0102289 0)
  (0.0158635 0.0123502 0)
  (0.0113951 0.0141388 0)
  (0.0068691 0.0159834 0)
  (0.00251184 0.0180749 0)
  (-0.00104019 0.020409 0)
  (-0.00426906 0.0218805 0)
  (-0.00262497 0.0232448 0)
  (0.0155244 0.0255947 0)
  (-0.00386999 0.0199429 0)
  (0.048013 0.0551603 0)
  (0.0504795 0.0619861 0)
  (-0.118763 0.0650014 0)
  (0.317875 -0.0262426 0)
  (-0.282442 -0.00699808 0)
  (0.00959924 -0.0738985 0)
  (-0.0616797 -0.187865 0)
  (-0.0414157 -0.147067 0)
  (-0.0346501 -0.0601117 0)
  (-0.0326607 -0.0181292 0)
  (-0.0330851 -0.00119223 0)
  (-0.0321807 0.00531798 0)
  (-0.0299659 0.00855733 0)
  (-0.02624 0.0110446 0)
  (-0.0211007 0.0134972 0)
  (-0.0144754 0.0161009 0)
  (-0.00634593 0.0188521 0)
  (0.00417365 0.0214359 0)
  (0.0164979 0.0229328 0)
  (0.0304218 0.0211277 0)
  (0.0447038 0.0144147 0)
  (0.0520065 0.000993989 0)
  (0.0510718 -0.0101321 0)
  (0.0439366 -0.0159059 0)
  (0.0335504 -0.0163548 0)
  (0.0224464 -0.0127476 0)
  (0.0122014 -0.00676362 0)
  (0.00324619 0.000338505 0)
  (-0.00312623 0.0069491 0)
  (-0.00673816 0.0111257 0)
  (-0.00967418 0.0138156 0)
  (-0.0124627 0.0158789 0)
  (-0.0151862 0.0177104 0)
  (-0.0176341 0.0193711 0)
  (-0.019293 0.0206568 0)
  (-0.0195092 0.0209911 0)
  (-0.0183536 0.0192518 0)
  (-0.0146274 0.0155259 0)
  (-0.00591886 0.0134682 0)
  (-0.0170684 0.0101467 0)
  (0.0111951 0.0450375 0)
  (0.0361325 0.0753198 0)
  (-0.15603 0.0819711 0)
  (0.37409 -0.0344685 0)
  (-0.326883 -0.135562 0)
  (0.00644972 -0.130217 0)
  (-0.0467519 -0.221907 0)
  (-0.0353633 -0.163938 0)
  (-0.0374839 -0.0601376 0)
  (-0.0361537 -0.0163837 0)
  (-0.0398156 -0.000231225 0)
  (-0.0414009 0.00456612 0)
  (-0.0406956 0.00605178 0)
  (-0.0381963 0.00695745 0)
  (-0.0342613 0.00793913 0)
  (-0.0290458 0.00905195 0)
  (-0.0226493 0.0101657 0)
  (-0.0149974 0.0110891 0)
  (-0.00632232 0.0114801 0)
  (0.00305538 0.0102174 0)
  (0.0107302 0.00667628 0)
  (0.0130855 0.000501391 0)
  (0.0106568 -0.00478651 0)
  (0.00382069 -0.00708437 0)
  (-0.0055904 -0.00589387 0)
  (-0.0149166 -0.00231422 0)
  (-0.023082 0.00227928 0)
  (-0.0285779 0.00669625 0)
  (-0.031736 0.0105103 0)
  (-0.0335161 0.0134683 0)
  (-0.0347213 0.0158456 0)
  (-0.0355844 0.017787 0)
  (-0.0360366 0.019281 0)
  (-0.0357823 0.0201546 0)
  (-0.0343878 0.0200718 0)
  (-0.0315378 0.0185601 0)
  (-0.0274452 0.015274 0)
  (-0.02226 0.0112433 0)
  (-0.0162691 0.00950138 0)
  (-0.0152458 0.0113803 0)
  (0.00160028 0.0359182 0)
  (0.0454639 0.0775666 0)
  (-0.13797 0.0746936 0)
  (0.633419 0.0116636 0)
  (-0.506042 0.38382 0)
  (0.15109 0.34126 0)
  (0.0192163 -0.217247 0)
  (0.00865172 -0.157053 0)
  (-0.02706 -0.0403459 0)
  (-0.0375144 -0.00273203 0)
  (-0.0483297 0.00768408 0)
  (-0.0525129 0.0084789 0)
  (-0.0532169 0.00755848 0)
  (-0.052106 0.00687048 0)
  (-0.0498553 0.00665511 0)
  (-0.0467699 0.00678533 0)
  (-0.0430619 0.00709338 0)
  (-0.0389113 0.00744882 0)
  (-0.0345872 0.0076915 0)
  (-0.0305844 0.00751286 0)
  (-0.0280142 0.00658642 0)
  (-0.0283942 0.00470474 0)
  (-0.0315431 0.00313587 0)
  (-0.03675 0.00302696 0)
  (-0.0427362 0.00440035 0)
  (-0.0478353 0.00651642 0)
  (-0.0513765 0.00889708 0)
  (-0.0533985 0.0113551 0)
  (-0.0540992 0.0137786 0)
  (-0.0538577 0.0159901 0)
  (-0.0529698 0.017919 0)
  (-0.0515232 0.0194282 0)
  (-0.0494735 0.0203256 0)
  (-0.0466992 0.0203639 0)
  (-0.0430802 0.0192647 0)
  (-0.0386343 0.0168171 0)
  (-0.033627 0.0131546 0)
  (-0.0282948 0.00925439 0)
  (-0.0226193 0.00673467 0)
  (-0.0165329 0.00755831 0)
  (-0.00220852 0.0209933 0)
  (0.0398715 0.0568556 0)
  (-0.109046 0.0461807 0)
  (0.621033 0.042548 0)
  (0.0906417 -0.149064 0)
  (0.0542473 -0.109172 0)
  (-0.0326046 0.00833679 0)
  (-0.0568355 0.0246147 0)
  (-0.0658666 0.0221735 0)
  (-0.0683097 0.0180974 0)
  (-0.0686735 0.0150734 0)
  (-0.0683002 0.0132293 0)
  (-0.067535 0.0122344 0)
  (-0.0665104 0.0117924 0)
  (-0.0653311 0.0117227 0)
  (-0.0641013 0.0119392 0)
  (-0.0629424 0.0123788 0)
  (-0.0620484 0.0129174 0)
  (-0.0617814 0.0133509 0)
  (-0.0626023 0.0135151 0)
  (-0.0644311 0.0137571 0)
  (-0.0666849 0.0144698 0)
  (-0.0686548 0.0156 0)
  (-0.0698519 0.0168722 0)
  (-0.0701196 0.0181545 0)
  (-0.0694666 0.0193872 0)
  (-0.0679527 0.0205065 0)
  (-0.0656886 0.0213901 0)
  (-0.0627841 0.0219127 0)
  (-0.059326 0.0219284 0)
  (-0.0554031 0.0212804 0)
  (-0.0511327 0.0198081 0)
  (-0.0466956 0.0173713 0)
  (-0.0423837 0.0139253 0)
  (-0.0386114 0.00965674 0)
  (-0.035795 0.0050418 0)
  (-0.0340666 0.000444322 0)
  (-0.031707 0.000612455 0)
  (-0.0237871 0.0113179 0)
  (-0.0127225 0.0335626 0)
  (-0.136686 0.0258042 0)
  (0.374442 0.064267 0)
  (-0.203746 -0.127978 0)
  (-0.0887705 -0.0835963 0)
  (-0.101277 -0.062039 0)
  (-0.0955443 -0.0646177 0)
  (-0.089125 -0.0735756 0)
  (-0.0855387 -0.0806733 0)
  (-0.0839774 -0.0851155 0)
  (-0.08342 -0.0875804 0)
  (-0.0833276 -0.0887207 0)
  (-0.0834164 -0.0889484 0)
  (-0.0835183 -0.0885026 0)
  (-0.0835153 -0.0875583 0)
  (-0.0833231 -0.0863365 0)
  (-0.0829275 -0.0851821 0)
  (-0.0824427 -0.0845271 0)
  (-0.0820811 -0.0846556 0)
  (-0.081921 -0.0853466 0)
  (-0.0818136 -0.0861369 0)
  (-0.0815111 -0.0867244 0)
  (-0.0808163 -0.086969 0)
  (-0.0796089 -0.0867514 0)
  (-0.0778023 -0.0860187 0)
  (-0.0753324 -0.0848247 0)
  (-0.072177 -0.0833252 0)
  (-0.068365 -0.0817298 0)
  (-0.0639841 -0.0802972 0)
  (-0.0591951 -0.0793346 0)
  (-0.0542482 -0.0791936 0)
  (-0.049508 -0.0802329 0)
  (-0.0454892 -0.0827073 0)
  (-0.0428822 -0.0865521 0)
  (-0.0424351 -0.0910241 0)
  (-0.0444167 -0.0939113 0)
  (-0.0465289 -0.0933065 0)
  (-0.0458177 -0.0810538 0)
  (-0.0526677 -0.0563539 0)
  (-0.108742 -0.0491919 0)
  (0.297752 -0.0300712 0)
  (-0.281581 -0.153552 0)
  (-0.141406 0.0467733 0)
  (-0.126417 0.353203 0)
  (-0.130097 0.296031 0)
  (-0.128079 0.281846 0)
  (-0.118202 0.285526 0)
  (-0.109534 0.292296 0)
  (-0.104102 0.297071 0)
  (-0.101217 0.299801 0)
  (-0.0999375 0.30117 0)
  (-0.0995654 0.301688 0)
  (-0.0996249 0.301654 0)
  (-0.0997789 0.301257 0)
  (-0.0997634 0.300682 0)
  (-0.0993643 0.300185 0)
  (-0.098448 0.300117 0)
  (-0.097021 0.300826 0)
  (-0.0952285 0.302444 0)
  (-0.0932175 0.304738 0)
  (-0.0910259 0.307314 0)
  (-0.0886144 0.309862 0)
  (-0.0859296 0.312174 0)
  (-0.0829113 0.314101 0)
  (-0.0794889 0.315571 0)
  (-0.0756079 0.316583 0)
  (-0.0712667 0.317177 0)
  (-0.0665404 0.317401 0)
  (-0.0615953 0.317313 0)
  (-0.0566936 0.316999 0)
  (-0.0521851 0.316608 0)
  (-0.0484911 0.316375 0)
  (-0.0461061 0.31664 0)
  (-0.0455661 0.317762 0)
  (-0.0469739 0.319712 0)
  (-0.0486617 0.320528 0)
  (-0.0480474 0.319612 0)
  (-0.0492126 0.310305 0)
  (-0.0735684 0.296541 0)
  (-0.132516 0.301949 0)
  (0.386122 0.343527 0)
)
;

boundaryField
{
  floor
  {
    type noSlip;
  }
  ceiling
  {
    type noSlip;
  }
  sWall
  {
    type noSlip;
  }
  nWall
  {
    type noSlip;
  }
  sideWalls
  {
    type empty;
  }
  glass1
  {
    type noSlip;
  }
  glass2
  {
    type noSlip;
  }
  sun
  {
    type noSlip;
  }
  heatsource1
  {
    type noSlip;
  }
  heatsource2
  {
    type noSlip;
  }
  Table_master
  {
    type noSlip;
  }
  Table_slave
  {
    type noSlip;
  }
  inlet
  {
    type fixedValue;
    value uniform (0.277164 -0.114805 0);
  }
  outlet
  {
    type zeroGradient;
  }
} 	// ************************************************************************* //

