// -*- C++ -*-
// File generated by PyFoam - sorry for the ugliness

FoamFile
{
 version 2.0;
 format ascii;
 class volScalarField;
 location "300";
 object T;
}

dimensions [ 0 0 0 1 0 0 0 ];

internalField nonuniform List<scalar> 459
(
  302.992
  302.676
  302.667
  302.666
  302.666
  302.665
  302.664
  302.663
  302.662
  302.661
  302.658
  302.654
  302.648
  302.64
  302.631
  302.565
  302.553
  302.547
  302.542
  302.537
  302.533
  302.53
  302.527
  302.524
  302.521
  302.518
  302.515
  302.511
  302.508
  302.504
  302.5
  302.495
  302.489
  302.497
  303.222
  302.704
  302.682
  302.686
  302.691
  302.695
  302.698
  302.7
  302.701
  302.701
  302.697
  302.688
  302.672
  302.65
  302.624
  302.603
  302.584
  302.551
  302.536
  302.526
  302.519
  302.513
  302.508
  302.502
  302.496
  302.491
  302.485
  302.479
  302.473
  302.467
  302.462
  302.457
  302.454
  302.452
  302.451
  302.476
  303.448
  302.749
  302.706
  302.717
  302.731
  302.743
  302.755
  302.764
  302.77
  302.772
  302.767
  302.752
  302.727
  302.691
  302.651
  302.615
  302.589
  302.549
  302.536
  302.528
  302.521
  302.516
  302.511
  302.502
  302.492
  302.482
  302.473
  302.464
  302.456
  302.447
  302.44
  302.434
  302.432
  302.431
  302.432
  302.465
  303.662
  302.81
  302.732
  302.748
  302.771
  302.794
  302.816
  302.835
  302.849
  302.855
  302.852
  302.832
  302.797
  302.747
  302.69
  302.635
  302.589
  302.565
  302.548
  302.543
  302.537
  302.531
  302.525
  302.521
  302.516
  302.512
  302.509
  302.506
  302.502
  302.498
  302.493
  302.487
  302.48
  302.459
  302.44
  302.429
  302.461
  303.859
  302.888
  302.761
  302.771
  302.801
  302.833
  302.866
  302.897
  302.922
  302.937
  302.937
  302.918
  302.876
  302.816
  302.745
  302.675
  302.616
  302.575
  302.552
  302.551
  302.547
  302.541
  302.537
  302.534
  302.531
  302.529
  302.526
  302.523
  302.519
  302.514
  302.506
  302.498
  302.487
  302.471
  302.449
  302.432
  302.45
  302.5
  302.529
  302.541
  304.028
  302.987
  302.81
  302.791
  302.819
  302.854
  302.893
  302.931
  302.967
  302.995
  303.006
  302.989
  302.945
  302.878
  302.798
  302.716
  302.644
  302.587
  302.553
  302.556
  302.554
  302.551
  302.549
  302.547
  302.546
  302.544
  302.542
  302.539
  302.534
  302.527
  302.517
  302.506
  302.493
  302.477
  302.457
  302.438
  302.441
  302.462
  302.47
  302.505
  304.156
  303.151
  302.96
  302.867
  302.851
  302.872
  302.904
  302.94
  302.977
  303.025
  303.047
  303.033
  302.987
  302.918
  302.835
  302.747
  302.666
  302.596
  302.55
  302.561
  302.561
  302.56
  302.559
  302.559
  302.559
  302.559
  302.557
  302.554
  302.548
  302.54
  302.527
  302.512
  302.497
  302.481
  302.463
  302.446
  302.441
  302.447
  302.453
  302.483
  304.38
  303.627
  303.412
  303.212
  303.076
  303.009
  302.99
  302.997
  303.019
  303.06
  303.072
  303.046
  302.992
  302.92
  302.839
  302.756
  302.676
  302.601
  302.546
  302.564
  302.568
  302.568
  302.57
  302.571
  302.573
  302.573
  302.572
  302.569
  302.564
  302.556
  302.545
  302.529
  302.511
  302.496
  302.483
  302.472
  302.472
  302.49
  302.516
  302.679
  304.689
  304.371
  304.1
  303.833
  303.604
  303.432
  303.318
  303.248
  303.211
  303.167
  303.104
  303.031
  302.952
  302.874
  302.798
  302.725
  302.655
  302.589
  302.539
  302.569
  302.574
  302.577
  302.58
  302.583
  302.586
  302.588
  302.589
  302.588
  302.587
  302.584
  302.583
  302.585
  302.59
  302.603
  302.627
  302.661
  302.706
  302.748
  302.775
  302.838
  297.994
  300.834
  302.147
  302.616
  302.799
  302.87
  302.888
  302.883
  302.862
  302.827
  302.786
  302.741
  302.694
  302.649
  302.603
  302.557
  302.525
  302.577
  302.583
  302.586
  302.591
  302.596
  302.601
  302.605
  302.609
  302.612
  302.616
  302.62
  302.625
  302.631
  302.639
  302.652
  302.672
  302.699
  302.728
  302.753
  302.764
  302.776
  298.483
  300.784
  301.712
  302.179
  302.413
  302.524
  302.571
  302.585
  302.59
  302.589
  302.582
  302.572
  302.56
  302.546
  302.531
  302.513
  302.513
  302.593
  302.595
  302.599
  302.605
  302.61
  302.614
  302.619
  302.624
  302.628
  302.633
  302.638
  302.644
  302.649
  302.657
  302.667
  302.682
  302.701
  302.721
  302.739
  302.729
  302.757
  299.869
  299.813
  299.81
  301.213
  301.768
  302.151
  302.287
  302.354
  302.389
  302.406
  302.417
  302.427
  302.436
  302.444
  302.452
  302.458
  302.465
  302.472
  302.512
  302.616
  302.625
  302.629
  302.633
  302.637
  302.64
  302.643
  302.646
  302.648
  302.651
  302.654
  302.657
  302.66
  302.664
  302.67
  302.678
  302.694
  302.705
  302.71
  302.71
  302.746
)
;

boundaryField
{
  floor
  {
    type wallHeatTransfer;
    Tinf uniform 305.2;
    alphaWall uniform 0.24;
    value nonuniform List<scalar> 29
(
  302.96
  302.983
  302.988
  302.996
  303
  303.002
  303.006
  303.016
  303.026
  303.037
  303.049
  303.06
  303.072
  303.083
  303.095
  303.108
  303.121
  303.137
  303.146
  303.185
  303.185
  303.064
  302.997
  302.956
  302.96
  302.983
  302.926
  302.89
  302.874
)
;
  }
  ceiling
  {
    type wallHeatTransfer;
    Tinf uniform 303.2;
    alphaWall uniform 0.24;
    value nonuniform List<scalar> 43
(
  300.084
  300.023
  300.012
  301.327
  301.854
  302.218
  302.349
  302.415
  302.451
  302.471
  302.484
  302.497
  302.509
  302.52
  302.531
  302.542
  302.553
  302.566
  302.609
  302.703
  302.709
  302.712
  302.715
  302.717
  302.719
  302.72
  302.721
  302.721
  302.722
  302.722
  302.722
  302.722
  302.723
  302.726
  302.73
  302.741
  302.751
  302.756
  302.759
  302.793
  304.62
  304.325
  298.755
)
;
  }
  sWall
  {
    type wallHeatTransfer;
    Tinf uniform 315.2;
    alphaWall uniform 0.36;
    value uniform 301.311;
  }
  nWall
  {
    type wallHeatTransfer;
    Tinf uniform 307.2;
    alphaWall uniform 0.36;
    value nonuniform List<scalar> 6
(
  303.366
  303.312
  303.234
  303.397
  303.376
  303.414
)
;
  }
  sideWalls
  {
    type empty;
  }
  glass1
  {
    type wallHeatTransfer;
    Tinf uniform 315.2;
    alphaWall uniform 4.3;
    value nonuniform List<scalar> 9
(
  312.222
  311.397
  310.827
  310.363
  309.988
  309.673
  309.396
  309.431
  309.638
)
;
  }
  glass2
  {
    type wallHeatTransfer;
    Tinf uniform 307.2;
    alphaWall uniform 4.3;
    value nonuniform List<scalar> 2
(
  305.416
  305.551
)
;
  }
  sun
  {
    type wallHeatTransfer;
    Tinf uniform 305.2;
    alphaWall uniform 0.24;
    value nonuniform List<scalar> 14
(
  303.311
  303.031
  303.027
  303.019
  303.012
  303.006
  303.001
  302.996
  302.992
  302.987
  302.983
  302.978
  302.972
  302.966
)
;
  }
  heatsource1
  {
    type fixedGradient;
    gradient uniform 0;
  }
  heatsource2
  {
    type fixedGradient;
    gradient uniform 0;
  }
  Table_master
  {
    type zeroGradient;
  }
  Table_slave
  {
    type zeroGradient;
  }
  inlet
  {
    type fixedValue;
    value uniform 293.15;
  }
  outlet
  {
    type zeroGradient;
  }
} 	// ************************************************************************* //

