/*--------------------------------*- C++ -*----------------------------------*\
  =========                 |
  \\      /  F ield         | OpenFOAM: The Open Source CFD Toolbox
   \\    /   O peration     | Website:  https://openfoam.org
    \\  /    A nd           | Version:  6
     \\/     M anipulation  |
\*---------------------------------------------------------------------------*/
FoamFile
{
    version     2.0;
    format      ascii;
    class       volScalarField;
    location    "470";
    object      alphat;
}
// * * * * * * * * * * * * * * * * * * * * * * * * * * * * * * * * * * * * * //

dimensions      [1 -1 -1 0 0 0 0];

internalField   nonuniform List<scalar> 
459
(
0.00106579
0.00116289
0.00118464
0.00124259
0.00129654
0.0013475
0.00139801
0.00144875
0.00148807
0.00151032
0.00150938
0.0014797
0.00141566
0.00130654
0.00113914
0.000685784
0.000900526
0.000859893
0.000819527
0.000784589
0.000749154
0.000704776
0.000659983
0.000618881
0.000582036
0.000549439
0.000520305
0.00049394
0.000469614
0.000446442
0.00042312
0.000399713
0.000369971
0.000412035
0.00145519
0.00343912
0.0032343
0.003749
0.00426131
0.00478818
0.00526704
0.00564023
0.00600734
0.00634244
0.00660489
0.0067455
0.00669582
0.00630814
0.00499464
0.00119499
0.000700117
0.000942934
0.00274145
0.0025385
0.00267729
0.00278881
0.00271293
0.00210586
0.00180245
0.00159257
0.00143323
0.00130213
0.00118866
0.00108704
0.000991469
0.000900318
0.000824321
0.000826465
0.000769788
0.000515354
0.00178161
0.00465743
0.00395023
0.00494735
0.00541055
0.0057547
0.00602966
0.00626853
0.00657093
0.00693243
0.00732243
0.00768592
0.00794282
0.00799029
0.00750604
0.00567514
0.00121281
0.00114312
0.00222053
0.00291004
0.00340704
0.00368974
0.00342387
0.000966698
0.000847827
0.000754238
0.000680181
0.000620944
0.000573117
0.000534273
0.000503064
0.00047959
0.000543095
0.00070535
0.000874097
0.000564313
0.00209578
0.00593283
0.0038805
0.00516581
0.00550828
0.00557644
0.00562016
0.00573541
0.00598467
0.00636213
0.00684564
0.00737254
0.00784141
0.00818638
0.00820192
0.00758018
0.00529024
0.00148841
0.0022114
0.00300921
0.00380332
0.0044106
0.00472613
0.00427441
0.00106628
0.000972739
0.000912616
0.00087219
0.000842022
0.000814659
0.000783172
0.000750873
0.000712649
0.000684307
0.000731734
0.000998672
0.000634467
0.00241548
0.00758481
0.00412557
0.00488765
0.0053371
0.00524062
0.00513577
0.00520223
0.00544515
0.00583499
0.00637184
0.00697981
0.0075075
0.00788842
0.00806185
0.00794832
0.00738196
0.00630945
0.00609444
0.00613674
0.00621112
0.00623183
0.00615309
0.00584394
0.00488335
0.00448188
0.00428509
0.00416434
0.00406113
0.00393846
0.00375447
0.00337202
0.00283272
0.00221414
0.00169157
0.00151389
0.00107091
0.000718004
0.000704297
0.000671054
0.0027535
0.00940784
0.00557695
0.00459426
0.00506164
0.00513198
0.00493266
0.00500793
0.00524022
0.00562722
0.00617355
0.00679381
0.00734798
0.0077257
0.00789345
0.00789241
0.00779511
0.0076666
0.00760812
0.00751876
0.00735178
0.00710985
0.00681337
0.00647088
0.00607938
0.00579498
0.00559542
0.0054447
0.00531894
0.00519259
0.00502662
0.00474503
0.00429144
0.00367937
0.00300761
0.00248023
0.00192891
0.00148597
0.0016008
0.000829949
0.00307664
0.0107863
0.00811238
0.00563275
0.00513028
0.00525343
0.00516062
0.00514664
0.00529335
0.00566443
0.00624172
0.00690744
0.00749157
0.00786749
0.00801581
0.00802838
0.00803832
0.00808183
0.00805596
0.00787145
0.0075531
0.00716523
0.00676719
0.0064043
0.00610805
0.00589302
0.00573191
0.00560491
0.00550585
0.00542181
0.00531703
0.00515155
0.00489493
0.00448167
0.00395103
0.00340679
0.00282184
0.00225169
0.00208322
0.000978706
0.00315412
0.0101205
0.00858692
0.00740267
0.00658776
0.00609248
0.00559312
0.00535226
0.00546137
0.00590634
0.0065874
0.00732798
0.00792895
0.00827348
0.00837491
0.00834431
0.00827828
0.00817081
0.00794809
0.00759129
0.00718542
0.00679543
0.00645763
0.00618576
0.00597505
0.00580349
0.00564603
0.00549624
0.00536609
0.00526317
0.00515764
0.00500784
0.00484672
0.00469766
0.00438942
0.00403807
0.0036308
0.00297685
0.00313888
0.00122295
0.00308168
0.00369989
0.00429052
0.00446713
0.00449569
0.00449549
0.00462855
0.00498445
0.00559892
0.00642038
0.00731064
0.00809348
0.00860106
0.00878839
0.00872999
0.00852367
0.00819905
0.00784837
0.00751233
0.00718904
0.00690336
0.00666622
0.00647152
0.00630519
0.00614788
0.0059764
0.00577172
0.00552913
0.00526271
0.00499276
0.0046976
0.00430168
0.00381556
0.00337501
0.00302921
0.0027279
0.00247037
0.00225794
0.00211604
0.00131208
0.00252013
0.00419595
0.0047616
0.00527947
0.00589852
0.00659894
0.00734142
0.00805704
0.00867928
0.00911252
0.00921799
0.00900837
0.00864308
0.00828772
0.00799468
0.00779512
0.00765482
0.00753158
0.00741912
0.00730936
0.00719871
0.0070834
0.00695154
0.00678298
0.00655236
0.0062347
0.00581662
0.00531259
0.00476868
0.00421469
0.00368232
0.00322926
0.0028826
0.00264797
0.00248743
0.00234875
0.00225511
0.00156791
0.0023386
0.00434357
0.00544471
0.00652374
0.00745265
0.00814546
0.00874974
0.00930522
0.00978663
0.0100736
0.00997085
0.0095278
0.0090813
0.0087706
0.00860153
0.00853316
0.00851545
0.00850798
0.00848401
0.00842426
0.00834836
0.00827922
0.00822013
0.00816082
0.00807357
0.00791177
0.00761902
0.0071538
0.00654791
0.00585677
0.00513936
0.00446555
0.00388273
0.00341747
0.003062
0.00281023
0.00369034
0.00178553
0.00172659
0.0018799
0.00204305
0.00208311
0.00198245
0.00197865
0.00201756
0.00208834
0.00215394
0.00220234
0.00222169
0.00220443
0.00215957
0.00211471
0.00207322
0.00204456
0.00202796
0.00201817
0.00201089
0.00200395
0.00199656
0.00199115
0.00198787
0.00198554
0.00198257
0.00197541
0.00195906
0.00192868
0.00188269
0.001827
0.00176571
0.00170313
0.00164465
0.00159402
0.00155476
0.0015276
0.00150738
0.00148467
0.00153285
0.00148575
)
;

boundaryField
{
    floor
    {
        type            compressible::alphatWallFunction;
        Prt             0.85;
        value           nonuniform List<scalar> 
29
(
0.000162109
9.74458e-05
0.000128559
0.000122749
0.000116945
0.000111893
0.000106741
0.000100247
9.36409e-05
8.75307e-05
8.20106e-05
7.70905e-05
7.26623e-05
6.86278e-05
6.48811e-05
6.1289e-05
5.76493e-05
5.39701e-05
4.92538e-05
5.59018e-05
5.5901e-05
7.1905e-05
7.93397e-05
8.98541e-05
0.000162107
9.74446e-05
0.000134592
0.000162664
0.000209816
)
;
    }
    ceiling
    {
        type            compressible::alphatWallFunction;
        Prt             0.85;
        value           nonuniform List<scalar> 
43
(
0.000241466
0.000261662
0.000282965
0.000288218
0.00027515
0.000274673
0.00027976
0.00028897
0.000297473
0.000303729
0.000306229
0.000304007
0.000298219
0.000292418
0.000287039
0.000283317
0.000281159
0.000279886
0.000278938
0.000278034
0.000277072
0.000276368
0.000275939
0.000275636
0.000275248
0.000274314
0.000272181
0.000268209
0.000262186
0.000254869
0.000246789
0.000238507
0.000230738
0.000223986
0.000218733
0.000215093
0.000212376
0.000209321
0.000215797
0.000209469
0.000415099
0.000491282
0.000321065
)
;
    }
    sWall
    {
        type            compressible::alphatWallFunction;
        Prt             0.85;
        value           uniform 0.000240367;
    }
    nWall
    {
        type            compressible::alphatWallFunction;
        Prt             0.85;
        value           nonuniform List<scalar> 6(9.48565e-05 0.000118007 0.000139205 0.000220014 0.000248917 0.000208988);
    }
    sideWalls
    {
        type            empty;
    }
    glass1
    {
        type            compressible::alphatWallFunction;
        Prt             0.85;
        value           nonuniform List<scalar> 9(0.000148758 0.000201628 0.000244797 0.000285586 0.000326463 0.000369092 0.000409359 0.000419031 0.000410209);
    }
    glass2
    {
        type            compressible::alphatWallFunction;
        Prt             0.85;
        value           nonuniform List<scalar> 2(0.000172497 0.000184701);
    }
    sun
    {
        type            compressible::alphatWallFunction;
        Prt             0.85;
        value           nonuniform List<scalar> 
14
(
0.000151909
0.000165409
0.000168415
0.0001764
0.000183795
0.000190746
0.000197609
0.000204473
0.000209773
0.000212766
0.000212639
0.000208645
0.000199995
0.000185155
)
;
    }
    heatsource1
    {
        type            compressible::alphatWallFunction;
        Prt             0.85;
        value           nonuniform List<scalar> 3(0.000101959 9.99488e-05 9.5053e-05);
    }
    heatsource2
    {
        type            compressible::alphatWallFunction;
        Prt             0.85;
        value           nonuniform List<scalar> 4(0.000169591 9.93382e-05 9.9337e-05 0.00017205);
    }
    Table_master
    {
        type            compressible::alphatWallFunction;
        Prt             0.85;
        value           nonuniform List<scalar> 9(0.000137718 0.000120782 0.000107249 9.63979e-05 8.76148e-05 8.04483e-05 7.45733e-05 6.98144e-05 6.62105e-05);
    }
    Table_slave
    {
        type            compressible::alphatWallFunction;
        Prt             0.85;
        value           nonuniform List<scalar> 9(0.000151721 0.000138575 0.000130048 0.000124277 0.00011995 0.00011601 0.000111455 0.000106761 0.000101174);
    }
    inlet
    {
        type            fixedValue;
        value           uniform 1.94e-05;
    }
    outlet
    {
        type            zeroGradient;
    }
}


// ************************************************************************* //
