/*--------------------------------*- C++ -*----------------------------------*\
  =========                 |
  \\      /  F ield         | OpenFOAM: The Open Source CFD Toolbox
   \\    /   O peration     | Website:  https://openfoam.org
    \\  /    A nd           | Version:  6
     \\/     M anipulation  |
\*---------------------------------------------------------------------------*/
FoamFile
{
    version     2.0;
    format      ascii;
    class       surfaceScalarField;
    location    "470";
    object      phi;
}
// * * * * * * * * * * * * * * * * * * * * * * * * * * * * * * * * * * * * * //

dimensions      [1 0 -1 0 0 0 0];

internalField   nonuniform List<scalar> 
852
(
-0.00250708
0.00254982
-0.0033668
0.000859712
-0.00404125
0.000674453
-0.00457875
0.00053749
-0.00494741
0.000368661
-0.00512237
0.000174954
-0.00507885
-4.3521e-05
-0.00479432
-0.000284534
-0.00427296
-0.000521363
-0.00355906
-0.000713904
-0.00272712
-0.000831948
-0.00186394
-0.000863182
-0.00105748
-0.000806467
-0.00040841
-0.00064907
-0.000411894
0.000140581
-0.000145522
0.000367849
-0.000227272
0.000728706
-0.000360861
0.00105572
-0.000327023
0.00131209
-0.000256366
0.00149435
-0.000182274
0.00158935
-9.4998e-05
0.00162333
-3.39898e-05
0.00163364
-1.03105e-05
0.00163358
5.12863e-08
0.00162542
8.15829e-06
0.00160841
1.69961e-05
0.00157744
3.09707e-05
0.00151793
5.94994e-05
0.00139547
0.000122455
0.00115049
0.000244975
0.00072903
0.000421454
2.61374e-05
0.000702886
1.94362e-05
-0.00181854
0.00448418
-0.00267598
0.00171715
-0.00338179
0.00138025
-0.00391787
0.00107357
-0.00428483
0.000735613
-0.0044674
0.000357518
-0.00443906
-7.18621e-05
-0.00417986
-0.000543735
-0.00370347
-0.000997754
-0.00306564
-0.00135174
-0.00234647
-0.00155112
-0.00163356
-0.00157609
-0.00100687
-0.00143317
-0.00052011
-0.00113583
-0.000214165
-0.000717843
4.19407e-05
-0.00025616
4.18867e-05
-5.3712e-05
-0.000103907
0.000625166
-0.000906154
0.000976744
-0.000712443
0.00123573
-0.000586014
0.00143795
-0.000458586
0.00157758
-0.000321914
0.00160954
-0.000126964
0.00161787
-4.2327e-05
0.00162587
-1.83126e-05
0.00163225
-6.33894e-06
0.00163618
4.22496e-06
0.00163759
1.55869e-05
0.00163542
3.31326e-05
0.00162492
6.99945e-05
0.0015712
0.000176162
0.00136284
0.00045333
0.00100311
0.000781184
0.00062508
0.00108091
0.000626272
-0.00130254
0.00596466
-0.00205688
0.00247149
-0.00269713
0.0020205
-0.00316792
0.00154435
-0.00349974
0.00106743
-0.0036749
0.000532668
-0.00365094
-9.58273e-05
-0.00339414
-0.000800538
-0.00293563
-0.00145627
-0.00234958
-0.00193779
-0.00171729
-0.00218341
-0.00111189
-0.0021815
-0.000585447
-0.00195961
-0.000179741
-0.00154154
0.00010575
-0.00100334
0.000245933
-0.000396347
0.000287816
0.000909188
-0.00103071
0.00102415
-0.00102112
0.00125421
-0.000942507
0.00141719
-0.000748999
0.00153361
-0.000575006
0.00166157
-0.000449886
0.00153476
0.00149257
0.00147441
0.00146821
0.00147258
0.00148832
0.00152159
0.00159173
0.00176804
0.00156835
0.000653011
0.00132302
0.00102651
0.000952673
0.00145125
0.00155011
-0.00093617
0.00713215
-0.00154794
0.00308325
-0.00199342
0.00246598
-0.0023242
0.00187512
-0.00256891
0.00131214
-0.00270276
0.00066652
-0.00265212
-0.000146475
-0.00236685
-0.00108581
-0.00191996
-0.00190316
-0.00140231
-0.00245544
-0.00088234
-0.00270339
-0.000407693
-0.00265615
3.46422e-06
-0.00237077
0.00035202
-0.0018901
0.000666027
-0.00131735
0.00101205
-0.000742377
0.00163191
-0.000332047
0.00208921
-0.000474655
0.00191357
-0.000855062
0.00173886
-0.000846422
0.00158254
-0.000786187
0.00150105
-0.000667518
0.00146117
-0.000535132
0.00139792
-0.000386641
0.00158451
-0.00018675
0.00170989
-0.000125532
0.00182069
-0.000110961
0.00192454
-0.000104005
0.00201497
-9.05876e-05
0.0020761
-6.12901e-05
0.00207752
-1.57256e-06
0.00197382
0.000103543
0.00169479
0.000278872
0.00167975
0.000668041
0.00157742
0.00112883
0.00137854
0.00165012
0.00289117
-0.000674803
0.00808403
-0.00114817
0.00355661
-0.00128215
0.00259995
-0.00139975
0.00199271
-0.00149394
0.00140632
-0.00153043
0.00070301
-0.00139051
-0.000286406
-0.00105346
-0.00142286
-0.000648462
-0.00230816
-0.000251311
-0.00285259
9.9621e-05
-0.00305432
0.000389653
-0.00294618
0.000622799
-0.00260392
0.000835485
-0.00210279
0.00105659
-0.00153846
0.00132589
-0.00101168
0.00164455
-0.000650709
0.00178989
-0.000619996
0.00162309
-0.000688267
0.00146462
-0.000687962
0.00131688
-0.000638448
0.00120811
-0.000558757
0.00113883
-0.00046586
0.00111493
-0.000362741
0.00118883
-0.000260659
0.00127663
-0.000213344
0.00136859
-0.000202922
0.00146415
-0.000199578
0.00155862
-0.000185063
0.00164242
-0.000145098
0.0017013
-6.04612e-05
0.0017179
8.69405e-05
0.00169183
0.000304925
0.00173347
0.000626394
0.00188252
0.000979773
0.00238087
0.00115177
0.00365104
0.00162098
0.00244639
0.00120445
0.00149447
0.000951711
0.00153416
-0.000595306
0.00899544
-0.00092456
0.00388586
-0.000619741
0.00229513
-0.000430582
0.00180355
-0.000314296
0.00129003
-0.000151625
0.000540333
0.000166548
-0.000604584
0.000524989
-0.0017813
0.000819277
-0.00260245
0.00102199
-0.0030553
0.00113704
-0.00316936
0.00118917
-0.00299831
0.00120277
-0.00261752
0.00120793
-0.00210795
0.00123083
-0.00156137
0.00128868
-0.00106954
0.00135992
-0.000721957
0.00132328
-0.000583357
0.00118256
-0.000547554
0.00102132
-0.000526723
0.000873209
-0.000490346
0.00075747
-0.000443025
0.000683399
-0.000391795
0.000660481
-0.000339829
0.000696112
-0.000296297
0.000764205
-0.000281444
0.000847602
-0.000286327
0.000939598
-0.000291583
0.00103694
-0.00028241
0.00113821
-0.000246377
0.00124416
-0.000166421
0.00134698
-1.5886e-05
0.00144144
0.000210451
0.00157676
0.000491069
0.00178224
0.000774278
0.0019961
0.000937903
0.00229081
0.00132626
0.00201096
0.00148429
0.00122812
0.00173454
0.0028045
-0.000696393
0.0100428
-0.000609873
0.00379934
0.000249098
0.00143615
0.000735339
0.0013173
0.00107053
0.000954836
0.00151214
9.87124e-05
0.00198874
-0.00108119
0.00227181
-0.00206437
0.00236988
-0.00270052
0.00231165
-0.00299707
0.0021399
-0.00299761
0.00190295
-0.00276137
0.00164414
-0.0023587
0.00139801
-0.00186183
0.00119031
-0.00135367
0.00103289
-0.000912123
0.000912293
-0.000601371
0.000774445
-0.000445515
0.000614644
-0.000387758
0.000452686
-0.00036477
0.000310156
-0.000347822
0.000199608
-0.000332483
0.000128222
-0.000320417
0.00010162
-0.000313235
0.000119671
-0.000314356
0.000167404
-0.000329186
0.000230801
-0.000349732
0.000303
-0.00036379
0.000382295
-0.000361714
0.000472359
-0.00033645
0.000584848
-0.000278919
0.000736871
-0.000167918
0.000914462
3.28514e-05
0.00110715
0.000298375
0.00132016
0.000561253
0.00148479
0.000773263
0.00169576
0.00111529
0.00180108
0.00137896
0.00152294
0.00201268
0.00437175
0.002039
0.00839607
0.00260506
0.00323327
0.00268842
0.0013528
0.00296973
0.00103598
0.00338671
0.000537856
0.0039175
-0.000432092
0.0042124
-0.00137609
0.00419317
-0.00204513
0.00391429
-0.00242164
0.00345882
-0.00254159
0.0029068
-0.00244559
0.00232804
-0.00218261
0.00177672
-0.00180738
0.00128425
-0.00136938
0.00087485
-0.000944279
0.000557012
-0.000594293
0.000321128
-0.000365494
0.000131402
-0.000255796
-3.72108e-05
-0.000219153
-0.000186628
-0.00021536
-0.000310762
-0.000223696
-0.000406818
-0.000236435
-0.000473526
-0.000253717
-0.00051024
-0.000276529
-0.000519393
-0.000305212
-0.000509753
-0.000338835
-0.000488955
-0.000370539
-0.000461631
-0.000391123
-0.000430854
-0.000392501
-0.000396531
-0.000370782
-0.000346731
-0.000328728
-0.000248468
-0.00026619
-6.27316e-05
-0.000152893
0.000172808
6.28269e-05
0.000405254
0.000328799
0.00058504
0.000593468
0.000794616
0.000905704
0.000986261
0.00118731
0.000571764
0.00242717
0.00513106
0.00879796
0.0120014
0.010371
0.0029832
0.00934964
0.00205729
0.00862711
0.00126039
0.00792542
0.000269593
0.00705099
-0.000501649
0.00605244
-0.00104656
0.00501414
-0.00138333
0.0039875
-0.00151494
0.00301066
-0.00146874
0.00212307
-0.00129503
0.001358
-0.00104232
0.000717716
-0.000729105
0.000217128
-0.0004437
-0.000141908
-0.000235266
-0.00038357
-0.00012384
-0.000555714
-8.36596e-05
-0.000694158
-8.07169e-05
-0.000810554
-9.89718e-05
-0.000909183
-0.000125075
-0.000993627
-0.000151999
-0.00106649
-0.000180864
-0.00112922
-0.000213804
-0.00118394
-0.000250506
-0.00123387
-0.000288913
-0.0012811
-0.000323316
-0.00132781
-0.000344417
-0.00138089
-0.000339435
-0.00145721
-0.000294464
-0.00157844
-0.000207509
-0.00175873
-8.59132e-05
-0.00200043
8.87972e-05
-0.0022935
0.000355891
-0.0026983
0.000733592
-0.00335711
0.00125227
-0.00440726
0.00195584
-0.00592363
0.00270367
-0.00624092
0.00274445
-0.00090807
0.003798
0.00342608
0.00362815
0.00222718
0.00429624
0.000592323
0.00451691
4.89683e-05
0.0043166
-0.000301313
0.00384461
-0.000574553
0.00318949
-0.000728202
0.00242525
-0.0007507
0.00162243
-0.000665936
0.0008577
-0.000530312
0.000191535
-0.000376167
-0.000338109
-0.000199475
-0.000698212
-8.36086e-05
-0.000920976
-1.25121e-05
-0.00106192
1.70989e-05
-0.00116198
1.63855e-05
-0.00124391
1.203e-06
-0.00131932
-2.35636e-05
-0.00139353
-5.08767e-05
-0.00147171
-7.38262e-05
-0.0015575
-9.50908e-05
-0.00165332
-0.000117991
-0.0017617
-0.000142129
-0.00188387
-0.000166751
-0.0020179
-0.000189297
-0.00215835
-0.000203979
-0.00229856
-0.000199236
-0.00243859
-0.000154438
-0.00258223
-6.38838e-05
-0.00273157
6.3425e-05
-0.00287596
0.000233176
-0.00299986
0.000479787
-0.00310233
0.000836054
-0.00317104
0.00132096
-0.00316015
0.00194495
-0.00294718
0.0024907
-0.00129449
0.00109176
-0.00215906
0.000538724
0.00287443
0.00189116
0.000874761
0.00220072
0.00028279
0.0021585
9.12164e-05
0.0019106
-5.34089e-05
0.00150906
-0.000173013
0.000989436
-0.000208594
0.00042515
-0.000186432
-0.000106085
-0.000134724
-0.00057177
-6.46432e-05
-0.000950006
2.05376e-06
-0.00120038
5.08826e-05
-0.00135834
7.43408e-05
-0.00144862
7.77568e-05
-0.00150293
7.14022e-05
-0.00154373
5.71796e-05
-0.0015817
3.91649e-05
-0.00162772
2.24411e-05
-0.00168478
6.17223e-06
-0.00174953
-9.07999e-06
-0.00182207
-2.25596e-05
-0.00190617
-3.38999e-05
-0.00200627
-4.2038e-05
-0.00212783
-4.52021e-05
-0.00227545
-4.16867e-05
-0.00244926
-3.01733e-05
-0.00263845
-1.00525e-05
-0.00281406
2.11589e-05
-0.00294335
6.54015e-05
-0.0030119
0.000131962
-0.00300973
0.000231004
-0.0028978
0.000367844
-0.00262424
0.000562489
-0.00212196
0.00081867
-0.00119685
0.00101983
0.000351476
0.000942367
0.00142043
2.2795e-05
-0.000694782
-0.00354157
-0.00489652
-0.00204535
-0.00120371
-0.000960492
-0.000912384
-0.00101117
-0.00123076
-0.0014868
-0.00172141
-0.00190516
-0.00202002
-0.0020696
-0.00207163
-0.00205131
-0.00202835
-0.00201221
-0.00201058
-0.00202717
-0.00206066
-0.00211061
-0.00217594
-0.00225484
-0.00234513
-0.00244363
-0.00254546
-0.00264417
-0.00273209
-0.00280104
-0.00284023
-0.00283687
-0.00276879
-0.00260351
-0.00230309
-0.00180944
-0.00106067
-0.000111646
0.000758955
0.000711707
)
;

boundaryField
{
    floor
    {
        type            calculated;
        value           nonuniform List<scalar> 
29
(
0
0
0
0
0
0
0
0
0
0
0
0
0
0
0
0
0
0
0
0
6.69398e-06
1.82376e-05
2.88296e-05
3.7481e-05
3.4832e-06
4.93775e-06
1.2093e-05
1.76071e-05
1.73492e-05
)
;
    }
    ceiling
    {
        type            calculated;
        value           nonuniform List<scalar> 
43
(
2.82085e-05
2.49485e-05
2.32614e-05
3.31185e-05
3.95562e-05
4.30812e-05
4.53502e-05
4.65524e-05
4.74179e-05
4.8153e-05
4.90145e-05
5.01962e-05
5.16263e-05
5.28988e-05
5.40116e-05
5.47878e-05
5.52544e-05
5.55379e-05
5.57433e-05
5.59265e-05
5.61111e-05
5.62445e-05
5.63255e-05
5.63822e-05
5.64532e-05
5.66216e-05
5.7008e-05
5.77402e-05
5.88868e-05
6.03422e-05
6.20362e-05
6.38772e-05
6.57144e-05
6.74146e-05
6.88288e-05
6.98975e-05
7.07906e-05
7.17572e-05
7.00353e-05
7.23171e-05
3.64138e-05
2.98612e-05
1.29481e-05
)
;
    }
    sWall
    {
        type            calculated;
        value           uniform -0.000221561;
    }
    nWall
    {
        type            calculated;
        value           nonuniform List<scalar> 6(-3.99053e-05 -4.22198e-05 -4.43207e-05 -4.35097e-05 -4.38575e-05 -5.54006e-05);
    }
    sideWalls
    {
        type            empty;
        value           nonuniform 0();
    }
    glass1
    {
        type            calculated;
        value           nonuniform List<scalar> 9(-4.27431e-05 -0.00011582 -0.000177948 -0.000231316 -0.000277081 -0.00031611 -0.000350971 -0.000392267 -0.000438307);
    }
    glass2
    {
        type            calculated;
        value           nonuniform List<scalar> 2(-0.000187557 -0.000201794);
    }
    sun
    {
        type            calculated;
        value           uniform 0;
    }
    heatsource1
    {
        type            calculated;
        value           nonuniform List<scalar> 3(2.00218e-07 2.00743e-07 2.01147e-07);
    }
    heatsource2
    {
        type            calculated;
        value           nonuniform List<scalar> 4(5.03943e-08 5.04768e-08 0 0);
    }
    Table_master
    {
        type            calculated;
        value           nonuniform List<scalar> 9(-1.50733e-07 -1.50829e-07 -1.50855e-07 -1.5087e-07 -1.50879e-07 -1.50881e-07 -1.50876e-07 -1.50859e-07 -1.50808e-07);
    }
    Table_slave
    {
        type            calculated;
        value           nonuniform List<scalar> 9(1.50658e-07 1.50674e-07 1.50639e-07 1.50604e-07 1.50573e-07 1.50553e-07 1.50554e-07 1.5056e-07 1.50604e-07);
    }
    inlet
    {
        type            calculated;
        value           uniform -0.00424086;
    }
    outlet
    {
        type            calculated;
        value           nonuniform List<scalar> 2(0.00373492 0.00133);
    }
}


// ************************************************************************* //
