// -*- C++ -*-
// File generated by PyFoam - sorry for the ugliness

FoamFile
{
 version 2.0;
 format ascii;
 class volVectorField;
 location "140";
 object U;
}

dimensions [ 0 1 -1 0 0 0 0 ];

internalField nonuniform List<vector> 459
(
  (-0.00127313 0.0715426 0)
  (-0.144699 0.0239548 0)
  (-0.173847 0.00934779 0)
  (-0.19297 -0.00230343 0)
  (-0.192895 -0.0145908 0)
  (-0.171778 -0.0282492 0)
  (-0.131877 -0.0419476 0)
  (-0.0795346 -0.051897 0)
  (-0.0222586 -0.0541053 0)
  (0.0378394 -0.0400261 0)
  (0.0711543 -0.0269661 0)
  (0.0932247 -0.0146416 0)
  (0.0999225 -0.00237669 0)
  (0.0860435 0.0148092 0)
  (0.0839866 0.0495492 0)
  (-0.0803007 0.00607563 0)
  (-0.00555088 0.00504773 0)
  (-0.0171144 -0.0120501 0)
  (0.00383686 -0.0231297 0)
  (0.0257478 -0.0203846 0)
  (0.0440321 -0.0150848 0)
  (0.0570935 -0.00881514 0)
  (0.0649428 -0.00530676 0)
  (0.0687918 -0.00394056 0)
  (0.0707331 -0.00336766 0)
  (0.0720141 -0.00297895 0)
  (0.0728955 -0.00261899 0)
  (0.0732343 -0.00217473 0)
  (0.0725956 -0.00136087 0)
  (0.0701158 0.000348351 0)
  (0.0640418 0.00384593 0)
  (0.0527473 0.0093333 0)
  (0.00990444 0.0208049 0)
  (0.0891914 0.00610436 0)
  (0.118875 0.148201 0)
  (-0.126518 0.0689787 0)
  (-0.138995 0.0429228 0)
  (-0.1591 0.0184528 0)
  (-0.160538 -0.00978812 0)
  (-0.142 -0.0410684 0)
  (-0.106674 -0.0694307 0)
  (-0.0618675 -0.086194 0)
  (-0.015277 -0.0858388 0)
  (0.0286312 -0.0661934 0)
  (0.0585547 -0.0430367 0)
  (0.0791279 -0.0199372 0)
  (0.0898953 0.00347531 0)
  (0.0919459 0.0278467 0)
  (0.0966065 0.0588904 0)
  (0.0905884 0.0570046 0)
  (0.0580834 0.0545938 0)
  (-0.126339 0.0130343 0)
  (0.0179877 0.00772674 0)
  (0.0217644 -0.0236011 0)
  (0.034588 -0.0329327 0)
  (0.0479943 -0.0300908 0)
  (0.0594014 -0.0225292 0)
  (0.0649964 -0.0105807 0)
  (0.0666239 -0.0032581 0)
  (0.0668204 -0.00044412 0)
  (0.0670893 0.000624486 0)
  (0.0674932 0.00124811 0)
  (0.0678128 0.00180884 0)
  (0.0680044 0.00265643 0)
  (0.0679068 0.00422791 0)
  (0.0669572 0.0076213 0)
  (0.0625454 0.0158621 0)
  (0.0537866 0.0253212 0)
  (0.00763443 0.0391718 0)
  (0.147318 0.025767 0)
  (0.230146 0.221069 0)
  (-0.127434 0.105636 0)
  (-0.106085 0.0670663 0)
  (-0.125816 0.0269129 0)
  (-0.127321 -0.0189047 0)
  (-0.108661 -0.0678614 0)
  (-0.075809 -0.109432 0)
  (-0.0379835 -0.129711 0)
  (-0.000721637 -0.123958 0)
  (0.0309664 -0.0980126 0)
  (0.0553821 -0.0665444 0)
  (0.072575 -0.0348931 0)
  (0.0826322 -0.00443344 0)
  (0.0870031 0.0249783 0)
  (0.0888702 0.0530958 0)
  (0.0810387 0.065062 0)
  (0.0636011 0.0934414 0)
  (-0.15685 0.000889372 0)
  (0.0593223 -0.0329528 0)
  (0.0584495 -0.044786 0)
  (0.0637646 -0.0457494 0)
  (0.0700187 -0.0400474 0)
  (0.0756807 -0.0329922 0)
  (0.0751095 -0.0252753 0)
  (0.0664464 -0.0164161 0)
  (0.0597684 -0.0116709 0)
  (0.0567048 -0.00904762 0)
  (0.055263 -0.00737663 0)
  (0.0543062 -0.00619806 0)
  (0.0537981 -0.00514043 0)
  (0.0546929 -0.00346061 0)
  (0.0587742 0.00133936 0)
  (0.0590667 0.0205524 0)
  (0.0540916 0.0356898 0)
  (0.00361273 0.0538978 0)
  (0.181856 0.0542853 0)
  (0.333412 0.279537 0)
  (-0.141895 0.136343 0)
  (-0.0728898 0.0890159 0)
  (-0.090853 0.0363189 0)
  (-0.0886452 -0.0263962 0)
  (-0.0664047 -0.093266 0)
  (-0.0359969 -0.145408 0)
  (-0.00671474 -0.165734 0)
  (0.0197046 -0.154485 0)
  (0.04099 -0.123628 0)
  (0.0580477 -0.0852926 0)
  (0.0698439 -0.0467632 0)
  (0.0770354 -0.0111209 0)
  (0.0813371 0.0211596 0)
  (0.0860365 0.0500557 0)
  (0.0934667 0.0719521 0)
  (0.105943 0.0995232 0)
  (0.133199 0.0326951 0)
  (0.106458 0.004835 0)
  (0.107087 -0.0270394 0)
  (0.0975909 -0.0425649 0)
  (0.0896207 -0.0446572 0)
  (0.0841925 -0.039475 0)
  (0.0793071 -0.0302059 0)
  (0.0796426 -0.0177642 0)
  (0.086573 -0.0108693 0)
  (0.0903891 -0.00689253 0)
  (0.0895756 -0.00425922 0)
  (0.0861708 -0.0022855 0)
  (0.0812973 -0.000639989 0)
  (0.0749825 0.000996237 0)
  (0.0664479 0.00311797 0)
  (0.0528498 0.00647117 0)
  (0.0449418 0.0261901 0)
  (0.0492455 0.0420138 0)
  (0.00532171 0.0613282 0)
  (0.202414 0.0936338 0)
  (0.426605 0.32399 0)
  (-0.165071 0.159204 0)
  (-0.0405337 0.102618 0)
  (-0.0532304 0.041598 0)
  (-0.0390177 -0.0370552 0)
  (-0.0118558 -0.118405 0)
  (0.013427 -0.174197 0)
  (0.0309642 -0.189163 0)
  (0.0445935 -0.17386 0)
  (0.0549759 -0.138954 0)
  (0.0622084 -0.0959023 0)
  (0.0663571 -0.0532241 0)
  (0.0687003 -0.0152322 0)
  (0.07108 0.017178 0)
  (0.0763314 0.0436741 0)
  (0.086609 0.0618501 0)
  (0.103361 0.0691505 0)
  (0.119486 0.0298617 0)
  (0.120602 0.00207223 0)
  (0.113286 -0.02147 0)
  (0.101864 -0.0334122 0)
  (0.0900124 -0.035561 0)
  (0.0796374 -0.0313822 0)
  (0.0711198 -0.0228325 0)
  (0.0663819 -0.0102341 0)
  (0.0646604 -0.00195749 0)
  (0.0618821 0.0026928 0)
  (0.0579778 0.00544327 0)
  (0.0536205 0.00736718 0)
  (0.0492886 0.00904324 0)
  (0.0450476 0.011003 0)
  (0.0408989 0.0139002 0)
  (0.0365122 0.0185067 0)
  (0.0354015 0.0287278 0)
  (0.0476686 0.0390976 0)
  (0.0323991 0.0497362 0)
  (0.131235 0.0871976 0)
  (0.119946 0.0709853 0)
  (0.097996 0.0548738 0)
  (-0.0717362 0.0594115 0)
  (0.501709 0.358802 0)
  (-0.192007 0.171637 0)
  (-0.0124711 0.100371 0)
  (-0.00970965 0.0364206 0)
  (0.0275596 -0.0641229 0)
  (0.0530023 -0.143554 0)
  (0.0677101 -0.189711 0)
  (0.0730873 -0.199837 0)
  (0.0726424 -0.18024 0)
  (0.0689052 -0.141925 0)
  (0.0634625 -0.0960736 0)
  (0.0576412 -0.0519606 0)
  (0.0531451 -0.0144931 0)
  (0.0514493 0.0150572 0)
  (0.0550976 0.0363013 0)
  (0.0644699 0.0478781 0)
  (0.0795021 0.0468046 0)
  (0.0912327 0.0241516 0)
  (0.093329 0.00238654 0)
  (0.0884295 -0.0135971 0)
  (0.0790931 -0.0223247 0)
  (0.067979 -0.0242148 0)
  (0.0570006 -0.0210031 0)
  (0.0472762 -0.0142338 0)
  (0.0398592 -0.00522686 0)
  (0.0343019 0.00179634 0)
  (0.0300162 0.00604047 0)
  (0.026181 0.00847228 0)
  (0.0228022 0.0100528 0)
  (0.0201087 0.0113687 0)
  (0.0183504 0.0129334 0)
  (0.0179228 0.0153075 0)
  (0.019069 0.0187655 0)
  (0.0232631 0.0234609 0)
  (0.0356862 0.0272372 0)
  (0.0349483 0.0239456 0)
  (0.0715872 0.0425928 0)
  (0.0748361 0.0359271 0)
  (0.0858237 0.0435977 0)
  (-0.0919696 0.0860067 0)
  (0.565776 0.388332 0)
  (-0.205597 0.155126 0)
  (0.0245 0.0499643 0)
  (0.067579 -0.0176105 0)
  (0.107457 -0.0999699 0)
  (0.125783 -0.163385 0)
  (0.127602 -0.195766 0)
  (0.116797 -0.196036 0)
  (0.0981225 -0.170413 0)
  (0.0766508 -0.129502 0)
  (0.0560268 -0.0833136 0)
  (0.038946 -0.0410728 0)
  (0.0272152 -0.00754115 0)
  (0.0220501 0.015986 0)
  (0.0250758 0.0304046 0)
  (0.0338251 0.0365482 0)
  (0.0461699 0.0332917 0)
  (0.0549084 0.0188678 0)
  (0.0565802 0.00388435 0)
  (0.0527884 -0.00707185 0)
  (0.0447817 -0.0129164 0)
  (0.0347009 -0.0138117 0)
  (0.0242898 -0.0108604 0)
  (0.0147899 -0.00533209 0)
  (0.00676583 0.00143776 0)
  (0.00148102 0.00669142 0)
  (-0.00200824 0.00980654 0)
  (-0.00455283 0.0113922 0)
  (-0.00629521 0.0121537 0)
  (-0.00701406 0.0124568 0)
  (-0.00629279 0.0126048 0)
  (-0.00361036 0.0129267 0)
  (0.00156384 0.0135389 0)
  (0.0093308 0.0141462 0)
  (0.0202523 0.014171 0)
  (0.0236659 0.00968219 0)
  (0.0408355 0.0176277 0)
  (0.0552178 0.0213167 0)
  (0.0902019 0.0475636 0)
  (-0.0901386 0.127242 0)
  (0.660547 0.377355 0)
  (-0.0196616 0.123509 0)
  (0.103287 -0.0368909 0)
  (0.191869 -0.100373 0)
  (0.217784 -0.14091 0)
  (0.212426 -0.170572 0)
  (0.188746 -0.181314 0)
  (0.152627 -0.169852 0)
  (0.110056 -0.139309 0)
  (0.0680947 -0.098757 0)
  (0.0318993 -0.0562321 0)
  (0.00570616 -0.0205997 0)
  (-0.0100994 0.00425272 0)
  (-0.0132792 0.0174412 0)
  (-0.00965284 0.0247705 0)
  (-0.00166511 0.0272141 0)
  (0.00801448 0.0238655 0)
  (0.0140668 0.0147591 0)
  (0.0147043 0.00535722 0)
  (0.0110847 -0.00138426 0)
  (0.00430432 -0.00454035 0)
  (-0.00464767 -0.0041498 0)
  (-0.0136742 -0.00123571 0)
  (-0.021527 0.00291706 0)
  (-0.0268225 0.00702003 0)
  (-0.0299753 0.0100711 0)
  (-0.0317949 0.0118536 0)
  (-0.0327616 0.0125301 0)
  (-0.0329443 0.0122542 0)
  (-0.0321243 0.011053 0)
  (-0.0299007 0.00893854 0)
  (-0.0258609 0.00601693 0)
  (-0.019938 0.00258158 0)
  (-0.0128608 -0.000661367 0)
  (-0.00691822 -0.00223532 0)
  (-0.0110701 -0.00163873 0)
  (-0.0120437 0.0108432 0)
  (-0.00370252 0.0408165 0)
  (-0.0266546 0.102453 0)
  (-0.333297 0.170715 0)
  (0.793003 0.359097 0)
  (0.377156 0.247586 0)
  (0.394033 0.152497 0)
  (0.401469 0.0438866 0)
  (0.360102 -0.0443637 0)
  (0.296257 -0.0982981 0)
  (0.225335 -0.117982 0)
  (0.153813 -0.110455 0)
  (0.0855524 -0.0837083 0)
  (0.0271146 -0.0499452 0)
  (-0.0180798 -0.016473 0)
  (-0.040843 0.00280859 0)
  (-0.0499245 0.0126173 0)
  (-0.0503 0.017602 0)
  (-0.0463743 0.0203088 0)
  (-0.0401085 0.0207909 0)
  (-0.0337276 0.0185853 0)
  (-0.0301445 0.0138803 0)
  (-0.0304719 0.00902434 0)
  (-0.0340392 0.00571206 0)
  (-0.0394882 0.00456211 0)
  (-0.0455534 0.00526219 0)
  (-0.0508779 0.00698258 0)
  (-0.0549025 0.00911972 0)
  (-0.0573537 0.0111753 0)
  (-0.0585109 0.0127267 0)
  (-0.0588367 0.0135371 0)
  (-0.058732 0.0135042 0)
  (-0.0585141 0.0125826 0)
  (-0.0585419 0.0108025 0)
  (-0.0593797 0.00845141 0)
  (-0.0619294 0.0063599 0)
  (-0.0673273 0.00611498 0)
  (-0.0764794 0.00973399 0)
  (-0.0902195 0.0187084 0)
  (-0.11006 0.0335211 0)
  (-0.132645 0.0531971 0)
  (-0.157598 0.0709515 0)
  (-0.213539 0.0744363 0)
  (-0.381836 0.0393417 0)
  (0.173901 -0.0479861 0)
  (0.214197 -0.0673806 0)
  (0.206012 -0.0843953 0)
  (0.156345 -0.0818202 0)
  (0.0960626 -0.0670088 0)
  (0.0360703 -0.0450206 0)
  (-0.023425 -0.0151014 0)
  (-0.0612527 0.0038848 0)
  (-0.08209 0.0141156 0)
  (-0.0894564 0.0180886 0)
  (-0.0904969 0.0198632 0)
  (-0.0882213 0.0207274 0)
  (-0.0842712 0.0212781 0)
  (-0.0796896 0.0212987 0)
  (-0.0756918 0.020496 0)
  (-0.0735685 0.0189584 0)
  (-0.0736969 0.0175121 0)
  (-0.0755143 0.0168232 0)
  (-0.0780664 0.0171467 0)
  (-0.080474 0.0183091 0)
  (-0.0821403 0.019915 0)
  (-0.0828478 0.0216622 0)
  (-0.0826 0.023327 0)
  (-0.0815939 0.0247513 0)
  (-0.0801089 0.0258373 0)
  (-0.0784364 0.0265662 0)
  (-0.0768624 0.0270152 0)
  (-0.0756759 0.0273653 0)
  (-0.0751556 0.0278941 0)
  (-0.0755048 0.0289317 0)
  (-0.0767267 0.0308734 0)
  (-0.0785164 0.0344648 0)
  (-0.0803738 0.0413851 0)
  (-0.0817173 0.0543951 0)
  (-0.0808281 0.074776 0)
  (-0.0750856 0.091838 0)
  (-0.0709877 0.072296 0)
  (-0.0570431 -0.152761 0)
  (0.0223245 0.0445006 0)
  (0.00699306 -0.0143478 0)
  (-0.00545375 -0.0497534 0)
  (-0.0362449 -0.0572522 0)
  (-0.0721562 -0.0557726 0)
  (-0.101412 -0.0529937 0)
  (-0.119715 -0.0519761 0)
  (-0.127093 -0.0539803 0)
  (-0.12949 -0.0567409 0)
  (-0.128688 -0.0596479 0)
  (-0.126213 -0.0613414 0)
  (-0.122689 -0.0618723 0)
  (-0.118483 -0.0618166 0)
  (-0.113977 -0.0620403 0)
  (-0.10973 -0.0632838 0)
  (-0.106334 -0.0658294 0)
  (-0.104027 -0.0692922 0)
  (-0.102615 -0.073056 0)
  (-0.101671 -0.0765728 0)
  (-0.100741 -0.0795487 0)
  (-0.0994855 -0.0819415 0)
  (-0.0977146 -0.0838444 0)
  (-0.0953616 -0.0854616 0)
  (-0.0924727 -0.0870637 0)
  (-0.0891814 -0.0889256 0)
  (-0.0856849 -0.0912616 0)
  (-0.0822174 -0.09417 0)
  (-0.0790124 -0.097553 0)
  (-0.0762363 -0.100975 0)
  (-0.0738752 -0.103476 0)
  (-0.0715179 -0.103447 0)
  (-0.0679471 -0.0987546 0)
  (-0.0606455 -0.0873398 0)
  (-0.0462589 -0.0684988 0)
  (-0.0240115 -0.0455898 0)
  (0.0138568 -0.0426846 0)
  (0.0710108 -0.125789 0)
  (-0.0140078 -0.188247 0)
  (-0.0563368 -0.230709 0)
  (-0.269586 -0.0311502 0)
  (-0.22659 0.189026 0)
  (-0.207827 0.189276 0)
  (-0.19932 0.192111 0)
  (-0.199723 0.195777 0)
  (-0.200442 0.202191 0)
  (-0.197558 0.211568 0)
  (-0.191197 0.222742 0)
  (-0.183039 0.232815 0)
  (-0.174981 0.240861 0)
  (-0.167849 0.246693 0)
  (-0.161725 0.250438 0)
  (-0.156144 0.25291 0)
  (-0.15063 0.255109 0)
  (-0.14493 0.257929 0)
  (-0.139106 0.261944 0)
  (-0.133421 0.267255 0)
  (-0.128107 0.273495 0)
  (-0.123232 0.280098 0)
  (-0.118712 0.286546 0)
  (-0.114384 0.292518 0)
  (-0.110084 0.297909 0)
  (-0.105681 0.302771 0)
  (-0.101103 0.307268 0)
  (-0.0963478 0.311626 0)
  (-0.0914832 0.316084 0)
  (-0.0866256 0.320872 0)
  (-0.0818984 0.326203 0)
  (-0.0773797 0.33223 0)
  (-0.0730356 0.338941 0)
  (-0.0686172 0.346 0)
  (-0.0634867 0.352615 0)
  (-0.0564612 0.357653 0)
  (-0.0461044 0.360303 0)
  (-0.031897 0.361769 0)
  (-0.0151441 0.367752 0)
  (0.0173092 0.378755 0)
  (0.0672811 0.439194 0)
  (-0.17038 0.487766 0)
)
;

boundaryField
{
  floor
  {
    type noSlip;
  }
  ceiling
  {
    type noSlip;
  }
  sWall
  {
    type noSlip;
  }
  nWall
  {
    type noSlip;
  }
  sideWalls
  {
    type empty;
  }
  glass1
  {
    type noSlip;
  }
  glass2
  {
    type noSlip;
  }
  sun
  {
    type noSlip;
  }
  heatsource1
  {
    type noSlip;
  }
  heatsource2
  {
    type noSlip;
  }
  Table_master
  {
    type noSlip;
  }
  Table_slave
  {
    type noSlip;
  }
  inlet
  {
    type fixedValue;
    value uniform (0.277164 -0.114805 0);
  }
  outlet
  {
    type zeroGradient;
  }
} 	// ************************************************************************* //

