/*--------------------------------*- C++ -*----------------------------------*\
  =========                 |
  \\      /  F ield         | OpenFOAM: The Open Source CFD Toolbox
   \\    /   O peration     | Website:  https://openfoam.org
    \\  /    A nd           | Version:  6
     \\/     M anipulation  |
\*---------------------------------------------------------------------------*/
FoamFile
{
    version     2.0;
    format      ascii;
    class       volScalarField;
    location    "200";
    object      nut;
}
// * * * * * * * * * * * * * * * * * * * * * * * * * * * * * * * * * * * * * //

dimensions      [0 2 -1 0 0 0 0];

internalField   nonuniform List<scalar> 
459
(
0.00120821
0.00133101
0.0013687
0.00144116
0.00151217
0.00158531
0.0016506
0.00169308
0.00170454
0.0016805
0.00161632
0.00146532
0.00129754
0.00110445
0.000934974
0.000544228
0.000639358
0.000745546
0.000802162
0.000804927
0.000783148
0.00073449
0.000682745
0.00063605
0.000595313
0.000559892
0.000529011
0.000501833
0.000477766
0.000455929
0.000435145
0.000413768
0.000393743
0.000357523
0.00160315
0.00410644
0.00401456
0.00466568
0.00530798
0.00583852
0.00626131
0.00662264
0.00689086
0.00703949
0.00703965
0.00683252
0.00633758
0.0054205
0.00364438
0.00116741
0.000917556
0.000534948
0.00134989
0.00211876
0.00275373
0.00313461
0.00308622
0.00218553
0.00180791
0.00156264
0.00138526
0.00125057
0.00114481
0.00106053
0.000984026
0.000903918
0.000827039
0.000759147
0.000825508
0.000421413
0.00192603
0.00558174
0.00497562
0.00583921
0.00625987
0.0065787
0.0068663
0.00717158
0.00749018
0.00779285
0.00801701
0.00806787
0.00786777
0.00735284
0.00617118
0.00406496
0.00115657
0.00076
0.00145785
0.00233323
0.0032664
0.0039277
0.00375584
0.00100934
0.000877633
0.000772019
0.000687782
0.000620151
0.000565306
0.000520411
0.000484171
0.000456884
0.000512668
0.000615199
0.000955814
0.000466756
0.00223094
0.00697033
0.00511499
0.00606261
0.00624699
0.006378
0.00655021
0.00679906
0.00714448
0.00754701
0.00789397
0.00807539
0.0080775
0.00787091
0.00729485
0.00601733
0.00331147
0.00131836
0.00161427
0.00236504
0.00343152
0.00448235
0.0051727
0.00479695
0.0011486
0.00103925
0.000955741
0.000887714
0.000828799
0.000773698
0.000718964
0.0006618
0.000597537
0.000551048
0.000604462
0.00111031
0.0005009
0.00253911
0.00872152
0.00567901
0.00618594
0.00632219
0.00630541
0.00635738
0.00654255
0.00689786
0.00732842
0.00769951
0.00790496
0.00792661
0.00780842
0.0075476
0.00698342
0.00588197
0.00519563
0.0054691
0.00600856
0.00660374
0.00705599
0.00724004
0.00696124
0.0056363
0.0049347
0.00446786
0.00405622
0.00360753
0.00311828
0.00259492
0.00205479
0.00152667
0.00107814
0.000847172
0.0010573
0.000632898
0.00059403
0.000713743
0.000802307
0.00286454
0.0106592
0.00761369
0.00682207
0.00681319
0.00655586
0.00641044
0.00650356
0.00685015
0.00731339
0.007705
0.0078886
0.00785965
0.00773654
0.00765594
0.00765838
0.00764262
0.00785426
0.00833124
0.00871648
0.00891576
0.00890565
0.00869187
0.00825983
0.00755302
0.00688461
0.00628004
0.00567731
0.00505473
0.00440174
0.00371612
0.00300767
0.00230716
0.00168258
0.00127928
0.0011267
0.000867457
0.000765646
0.00110247
0.000841605
0.00314813
0.0119536
0.0102438
0.00854572
0.00764735
0.00686427
0.00649579
0.00657067
0.00698348
0.00751984
0.00793932
0.00809245
0.00802071
0.00795805
0.00818344
0.00870484
0.00923444
0.00972894
0.0101055
0.010196
0.0100407
0.00968987
0.00919253
0.00857854
0.00786818
0.00717377
0.00651501
0.00587666
0.0052466
0.00463569
0.00402842
0.00342002
0.00280687
0.00221699
0.00178491
0.00149831
0.00126547
0.0012367
0.00129523
0.000986663
0.00319637
0.0102222
0.00933172
0.00813828
0.00703804
0.00637782
0.00627202
0.00665204
0.00731928
0.00798801
0.0084044
0.00847518
0.00838623
0.00857694
0.00932716
0.00992495
0.0103269
0.0105848
0.0106417
0.0104242
0.00997178
0.00934826
0.00861058
0.00780413
0.00698091
0.00620528
0.00549404
0.00485674
0.00431605
0.00389874
0.00359464
0.00333573
0.00302681
0.00267957
0.00247013
0.00244331
0.00266299
0.00320269
0.00394177
0.00150268
0.00310932
0.00365477
0.00392788
0.00401149
0.00429392
0.00497231
0.00598559
0.00714993
0.00819937
0.00884794
0.00897788
0.00878098
0.00899578
0.00946013
0.00992314
0.0101924
0.0102793
0.0102022
0.00992035
0.00941239
0.00871174
0.00787305
0.00695065
0.00600968
0.00512458
0.00434832
0.00370321
0.00319449
0.00282097
0.00256698
0.00240555
0.00231048
0.00226009
0.0022416
0.00225181
0.00227262
0.00225217
0.00214844
0.00199885
0.00139359
0.00123798
0.00307405
0.00614724
0.00821164
0.00944498
0.010039
0.0100874
0.00968865
0.00905399
0.00866846
0.00880574
0.00906872
0.00917749
0.00912121
0.00892377
0.0085628
0.00801169
0.00728369
0.0064359
0.00554715
0.0046972
0.00395124
0.00334519
0.00288436
0.00255714
0.00234325
0.0022188
0.00216129
0.00215223
0.00217789
0.00222736
0.00229029
0.00235124
0.00238344
0.00235638
0.00227322
0.00209182
0.00116711
0.00204964
0.00691987
0.0091686
0.00957556
0.00936291
0.00879545
0.00808681
0.00747675
0.00704834
0.00682854
0.00673542
0.00662415
0.00647236
0.00627873
0.00601235
0.00563886
0.00515438
0.00459888
0.00404079
0.00354406
0.00314288
0.00283945
0.0026171
0.00245466
0.0023348
0.0022469
0.00218744
0.00215812
0.00216251
0.00220232
0.00227413
0.0023661
0.00245686
0.00252451
0.00250677
0.00255372
0.00252364
0.00118832
0.00183993
0.00195123
0.00203203
0.00218756
0.00203148
0.00189368
0.00178043
0.00164941
0.00150706
0.00136977
0.00125427
0.00117025
0.00111212
0.00106984
0.00103539
0.00100277
0.000968013
0.000929672
0.000889053
0.000849223
0.000813341
0.000783343
0.000759675
0.000741861
0.000729345
0.000722126
0.000720995
0.000727334
0.000742647
0.000768038
0.000803985
0.000850524
0.000907549
0.000974715
0.00105233
0.00113472
0.00115315
0.00111018
0.00104687
0.000973338
)
;

boundaryField
{
    floor
    {
        type            nutkWallFunction;
        Cmu             0.09;
        kappa           0.41;
        E               9.8;
        value           nonuniform List<scalar> 
29
(
0.000113047
6.534e-05
7.72511e-05
9.02981e-05
9.71637e-05
9.74986e-05
9.48669e-05
8.89542e-05
8.26148e-05
7.68446e-05
7.17688e-05
6.7321e-05
6.3415e-05
5.99539e-05
5.68697e-05
5.40544e-05
5.1359e-05
4.85697e-05
4.59396e-05
4.11387e-05
4.11386e-05
4.9565e-05
5.54453e-05
5.98259e-05
0.000113047
6.534e-05
6.41644e-05
9.20421e-05
0.00015756
)
;
    }
    ceiling
    {
        type            nutkWallFunction;
        Cmu             0.09;
        kappa           0.41;
        E               9.8;
        value           nonuniform List<scalar> 
43
(
0.000215795
0.000227978
0.000236778
0.00025372
0.000236846
0.000221812
0.000209362
0.000194848
0.000178934
0.00016343
0.000150254
0.000140586
0.000133851
0.000128928
0.000124899
0.00012107
0.000116974
0.000112435
0.000107602
0.000102837
9.85226e-05
9.48983e-05
9.20269e-05
8.98585e-05
8.83306e-05
8.74472e-05
8.73071e-05
8.80795e-05
8.99448e-05
9.30295e-05
9.73772e-05
0.000102973
0.000109783
0.000117741
0.000126859
0.000136456
0.000138592
0.000133606
0.000126221
0.000117579
0.00035148
0.00040776
0.000238516
)
;
    }
    sWall
    {
        type            nutkWallFunction;
        Cmu             0.09;
        kappa           0.41;
        E               9.8;
        value           uniform 0.000215854;
    }
    nWall
    {
        type            nutkWallFunction;
        Cmu             0.09;
        kappa           0.41;
        E               9.8;
        value           nonuniform List<scalar> 6(9.71704e-05 0.000101901 0.000119149 0.000140223 0.000142675 0.000117585);
    }
    sideWalls
    {
        type            empty;
    }
    glass1
    {
        type            nutkWallFunction;
        Cmu             0.09;
        kappa           0.41;
        E               9.8;
        value           nonuniform List<scalar> 9(0.000145101 0.000189947 0.000225689 0.000258846 0.000291869 0.000326287 0.000355948 0.000360976 0.000351935);
    }
    glass2
    {
        type            nutkWallFunction;
        Cmu             0.09;
        kappa           0.41;
        E               9.8;
        value           nonuniform List<scalar> 2(0.00017851 0.000166193);
    }
    sun
    {
        type            nutkWallFunction;
        Cmu             0.09;
        kappa           0.41;
        E               9.8;
        value           nonuniform List<scalar> 
14
(
0.000144954
0.000159013
0.0001633
0.000171504
0.000179502
0.000187696
0.000194974
0.000199692
0.000200961
0.000198292
0.000191151
0.000174214
0.000155187
0.000132941
)
;
    }
    heatsource1
    {
        type            nutkWallFunction;
        Cmu             0.09;
        kappa           0.41;
        E               9.8;
        value           nonuniform List<scalar> 3(7.15973e-05 8.64064e-05 9.71697e-05);
    }
    heatsource2
    {
        type            nutkWallFunction;
        Cmu             0.09;
        kappa           0.41;
        E               9.8;
        value           nonuniform List<scalar> 4(0.000140233 0.000110977 0.000110977 0.000138977);
    }
    Table_master
    {
        type            nutkWallFunction;
        Cmu             0.09;
        kappa           0.41;
        E               9.8;
        value           nonuniform List<scalar> 9(0.000121828 0.000106225 9.35171e-05 8.32341e-05 7.48693e-05 6.80049e-05 6.23253e-05 5.76966e-05 5.41831e-05);
    }
    Table_slave
    {
        type            nutkWallFunction;
        Cmu             0.09;
        kappa           0.41;
        E               9.8;
        value           nonuniform List<scalar> 9(0.000138073 0.000125338 0.000115509 0.000107428 0.000100372 9.37185e-05 8.70538e-05 8.00284e-05 7.20426e-05);
    }
    inlet
    {
        type            calculated;
        value           uniform 0.000100623;
    }
    outlet
    {
        type            calculated;
        value           nonuniform List<scalar> 2(0.00183993 0.00195123);
    }
}


// ************************************************************************* //
