/*--------------------------------*- C++ -*----------------------------------*\
  =========                 |
  \\      /  F ield         | OpenFOAM: The Open Source CFD Toolbox
   \\    /   O peration     | Website:  https://openfoam.org
    \\  /    A nd           | Version:  6
     \\/     M anipulation  |
\*---------------------------------------------------------------------------*/
FoamFile
{
    version     2.0;
    format      ascii;
    class       volScalarField;
    location    "500";
    object      alphat;
}
// * * * * * * * * * * * * * * * * * * * * * * * * * * * * * * * * * * * * * //

dimensions      [1 -1 -1 0 0 0 0];

internalField   nonuniform List<scalar> 
459
(
0.00178162
0.00200067
0.00215356
0.00225928
0.00225599
0.00214978
0.00202019
0.00189148
0.00176165
0.00163148
0.00151445
0.00140844
0.001304
0.00119099
0.00105696
0.000613057
0.000710412
0.000801408
0.000896325
0.000960185
0.000968973
0.000893606
0.000812711
0.000742045
0.000680055
0.000623199
0.000570001
0.000517681
0.000463723
0.000407504
0.000350213
0.000294161
0.000268589
0.00024565
0.00204507
0.00453118
0.00500637
0.00509833
0.00528997
0.00532732
0.00527661
0.00513069
0.00492692
0.00469603
0.00440177
0.00404158
0.00362419
0.00310939
0.00234469
0.00123635
0.00105238
0.000590321
0.00111483
0.00189748
0.00268293
0.00331296
0.00344528
0.00223631
0.00177572
0.0014848
0.00129507
0.00117061
0.0010562
0.000934415
0.00081772
0.000718765
0.000652255
0.00060065
0.000736812
0.000419119
0.00222677
0.00520538
0.0049244
0.00481932
0.00499622
0.00517719
0.00527955
0.00529224
0.00524029
0.00515356
0.00501982
0.00483037
0.00456082
0.00416218
0.00354978
0.00263419
0.00120397
0.000586278
0.00098509
0.00169607
0.00272045
0.00372339
0.00398777
0.00118257
0.00101763
0.000870043
0.000745382
0.000646229
0.000574547
0.000524862
0.00048875
0.00046159
0.000494677
0.00053333
0.000797229
0.000486047
0.00218665
0.00366642
0.00403048
0.00435774
0.00468193
0.00494588
0.00511828
0.00519174
0.00518851
0.00516557
0.00513067
0.00505737
0.00490894
0.00464016
0.00419706
0.00350587
0.00218161
0.00126982
0.00113288
0.00139084
0.00224093
0.00353747
0.0047841
0.00509211
0.0014009
0.00130712
0.001231
0.00116488
0.00110637
0.00105031
0.000992265
0.000928722
0.000854608
0.000707655
0.000593442
0.000830306
0.000534509
0.0022242
0.00336768
0.00399147
0.00438941
0.00480107
0.00517406
0.00544045
0.00557548
0.00563672
0.00565391
0.00560314
0.00549259
0.00531819
0.00506172
0.00470381
0.00421925
0.0034701
0.00298792
0.00304116
0.0037214
0.00491697
0.00621295
0.00722516
0.00766929
0.00696973
0.00643849
0.00602887
0.00567715
0.00521532
0.00463812
0.00396296
0.00320354
0.00238609
0.00159027
0.00103577
0.000905373
0.000696578
0.000565996
0.000692405
0.000862463
0.00318171
0.00511928
0.00517977
0.00520975
0.00572747
0.00631191
0.0067667
0.00703218
0.00705965
0.00683927
0.00655165
0.00627085
0.00600639
0.0057449
0.00548944
0.00526486
0.0050867
0.00527706
0.00608785
0.00731379
0.00851506
0.00939755
0.00984764
0.00986433
0.00950532
0.00903639
0.0085213
0.0078845
0.0071222
0.00624343
0.00526537
0.00421273
0.00313047
0.00213543
0.00144382
0.00113592
0.000979632
0.000974851
0.00115806
0.000819878
0.00348081
0.00736033
0.00574715
0.00582327
0.00755507
0.0088237
0.00931695
0.00900448
0.00831615
0.007837
0.00748791
0.00722898
0.00705068
0.00695013
0.00696262
0.00715576
0.00761713
0.00851617
0.00972248
0.0108186
0.0114788
0.0117164
0.0115679
0.0111218
0.0105024
0.00981858
0.00906027
0.0082133
0.00727746
0.00626603
0.00521432
0.00417079
0.00318885
0.00238427
0.00188815
0.0017108
0.00170733
0.00177599
0.00191297
0.00106666
0.00349322
0.0060114
0.00456209
0.00654347
0.00860937
0.00946759
0.00968306
0.00944144
0.00906075
0.00880711
0.0086716
0.00863909
0.00870833
0.00889555
0.00923398
0.00977344
0.0105652
0.01151
0.0123688
0.0128868
0.012924
0.0125743
0.0119263
0.0110807
0.010142
0.00918009
0.0082088
0.00721104
0.00619058
0.00518241
0.00425205
0.00347272
0.00289766
0.00256319
0.00247414
0.00263147
0.00281468
0.00274444
0.00275089
0.00118036
0.00319994
0.00347787
0.00370426
0.00597479
0.0083209
0.00957771
0.00993857
0.0100254
0.00999248
0.010021
0.0101333
0.010325
0.0105926
0.0109391
0.0113704
0.0118852
0.0124466
0.0129247
0.0131533
0.013021
0.0125203
0.0117285
0.0107467
0.00967186
0.00858014
0.00751234
0.00647248
0.0054667
0.00453441
0.00374221
0.00314701
0.00275725
0.00253485
0.00242516
0.00237123
0.00231325
0.00217763
0.00197521
0.00175062
0.00125991
0.00391762
0.00593755
0.00755869
0.00881584
0.00946096
0.00992796
0.0102595
0.01053
0.0108048
0.0110882
0.0113761
0.0116624
0.0119344
0.0121608
0.0122792
0.0121952
0.0118357
0.0111879
0.0103097
0.00930425
0.0082763
0.00730322
0.00642264
0.00563892
0.00494346
0.00433511
0.00382177
0.00341049
0.00310058
0.00288409
0.00274908
0.00267947
0.00265144
0.00263003
0.00257145
0.00244625
0.00215588
0.00127434
0.0023117
0.00610964
0.00638598
0.00665126
0.00710813
0.00758802
0.00798609
0.0082908
0.0085637
0.00880143
0.00899915
0.00915105
0.00924454
0.00925398
0.00913981
0.00886138
0.00840798
0.00781493
0.00715585
0.00651089
0.00593434
0.00544471
0.00503557
0.00469166
0.00439904
0.00414816
0.00393173
0.00374269
0.00357442
0.00342251
0.00328584
0.003164
0.00305109
0.00293171
0.00275345
0.00268092
0.00238159
0.00133835
0.00200188
0.00175775
0.00172587
0.00157396
0.00156616
0.00158834
0.00161674
0.00164436
0.00167081
0.00169225
0.00170359
0.0017051
0.00169726
0.00168045
0.0016548
0.00162005
0.00157615
0.00152413
0.00146707
0.00140946
0.00135584
0.00130941
0.00127125
0.00124076
0.00121663
0.00119759
0.00118279
0.00117179
0.00116448
0.00116096
0.00116159
0.00116692
0.0011775
0.00119311
0.0012107
0.00122125
0.00119498
0.00111068
0.00109279
0.00135831
)
;

boundaryField
{
    floor
    {
        type            compressible::alphatWallFunction;
        Prt             0.85;
        value           nonuniform List<scalar> 
29
(
0.000150288
8.63539e-05
0.000100753
0.000113996
0.000127621
0.000136689
0.000137928
0.000127223
0.000115614
0.00010536
9.62665e-05
8.7835e-05
7.98593e-05
7.19221e-05
6.36292e-05
5.48603e-05
4.5769e-05
3.66948e-05
3.25081e-05
2.86929e-05
2.86924e-05
5.67619e-05
6.71501e-05
7.45534e-05
0.000150286
8.63529e-05
8.29538e-05
8.23498e-05
0.000179763
)
;
    }
    ceiling
    {
        type            compressible::alphatWallFunction;
        Prt             0.85;
        value           nonuniform List<scalar> 
43
(
0.000277642
0.000245537
0.000241299
0.0002211
0.000220058
0.000223026
0.000226818
0.000230499
0.000234017
0.000236866
0.000238371
0.000238573
0.000237535
0.000235307
0.000231899
0.000227274
0.000221412
0.000214444
0.00020677
0.000198985
0.00019171
0.000185383
0.000180164
0.000175982
0.000172664
0.000170043
0.000168002
0.000166484
0.000165475
0.000164991
0.000165081
0.000165821
0.000167286
0.000169444
0.000171869
0.000173313
0.000169684
0.00015799
0.000155534
0.000192059
0.00042935
0.000463591
0.000317555
)
;
    }
    sWall
    {
        type            compressible::alphatWallFunction;
        Prt             0.85;
        value           uniform 0.000276627;
    }
    nWall
    {
        type            compressible::alphatWallFunction;
        Prt             0.85;
        value           nonuniform List<scalar> 6(0.000122673 0.000116637 0.000151668 0.000180359 0.000189097 0.000191762);
    }
    sideWalls
    {
        type            empty;
    }
    glass1
    {
        type            compressible::alphatWallFunction;
        Prt             0.85;
        value           nonuniform List<scalar> 9(0.000243075 0.000277211 0.000300523 0.000295552 0.000300492 0.000419623 0.000455741 0.000456994 0.000420921);
    }
    glass2
    {
        type            compressible::alphatWallFunction;
        Prt             0.85;
        value           nonuniform List<scalar> 2(0.000166592 0.000177618);
    }
    sun
    {
        type            compressible::alphatWallFunction;
        Prt             0.85;
        value           nonuniform List<scalar> 
14
(
0.000248509
0.000277211
0.000297051
0.000310677
0.000310249
0.000296553
0.000279744
0.000262934
0.000245849
0.000228582
0.000212928
0.000198631
0.000184427
0.000168911
)
;
    }
    heatsource1
    {
        type            compressible::alphatWallFunction;
        Prt             0.85;
        value           nonuniform List<scalar> 3(7.93915e-05 9.81594e-05 0.00012292);
    }
    heatsource2
    {
        type            compressible::alphatWallFunction;
        Prt             0.85;
        value           nonuniform List<scalar> 4(0.000175294 0.000149778 0.000149776 0.000170839);
    }
    Table_master
    {
        type            compressible::alphatWallFunction;
        Prt             0.85;
        value           nonuniform List<scalar> 9(0.000167859 0.000144878 0.000123946 0.000105939 9.13638e-05 8.06609e-05 7.31434e-05 6.76215e-05 6.34337e-05);
    }
    Table_slave
    {
        type            compressible::alphatWallFunction;
        Prt             0.85;
        value           nonuniform List<scalar> 9(0.000197731 0.000184975 0.000174544 0.000165423 0.000157303 0.000149474 0.000141318 0.000132324 0.000121741);
    }
    inlet
    {
        type            fixedValue;
        value           uniform 1.94e-05;
    }
    outlet
    {
        type            zeroGradient;
    }
}


// ************************************************************************* //
