/*--------------------------------*- C++ -*----------------------------------*\
  =========                 |
  \\      /  F ield         | OpenFOAM: The Open Source CFD Toolbox
   \\    /   O peration     | Website:  https://openfoam.org
    \\  /    A nd           | Version:  6
     \\/     M anipulation  |
\*---------------------------------------------------------------------------*/
FoamFile
{
    version     2.0;
    format      ascii;
    class       volScalarField;
    location    "500";
    object      nut;
}
// * * * * * * * * * * * * * * * * * * * * * * * * * * * * * * * * * * * * * //

dimensions      [0 2 -1 0 0 0 0];

internalField   nonuniform List<scalar> 
459
(
0.00153429
0.0017217
0.00185316
0.00194395
0.00194085
0.00184931
0.00173778
0.00162706
0.00151539
0.00140345
0.00130281
0.00121165
0.00112184
0.00102467
0.000909437
0.000528734
0.000612525
0.000690838
0.000772521
0.000827491
0.000835095
0.000770234
0.000700617
0.00063981
0.000586468
0.000537537
0.000491734
0.00044666
0.000400143
0.000351649
0.000302209
0.000253827
0.000231738
0.000211928
0.00176216
0.00390041
0.00430927
0.00438733
0.00455097
0.00458251
0.00453859
0.00441296
0.00423769
0.00403917
0.00378615
0.00347645
0.00311757
0.0026749
0.00201725
0.00106373
0.000905535
0.000509192
0.000961326
0.00163544
0.00231175
0.00285437
0.00296842
0.00192697
0.00153032
0.00127984
0.00111654
0.00100946
0.000911005
0.000806118
0.000705553
0.000620237
0.000562875
0.000518343
0.000635818
0.000361629
0.00191977
0.00448222
0.00423976
0.0041473
0.00429814
0.004453
0.00454062
0.00455138
0.00450669
0.00443217
0.00431727
0.0041545
0.00392286
0.00358023
0.00305373
0.00226627
0.00103592
0.000505728
0.000849296
0.00146148
0.00234352
0.00320733
0.00343526
0.00101882
0.000876846
0.000749832
0.000642563
0.000557248
0.000495571
0.000452817
0.000421731
0.000398342
0.000426918
0.000460287
0.000688027
0.000419423
0.00188689
0.00315972
0.00347033
0.00374959
0.00402697
0.0042532
0.00440112
0.00446421
0.00446148
0.00444186
0.00441203
0.00434924
0.00422187
0.00399103
0.00361025
0.003016
0.00187699
0.00109257
0.000975284
0.00119741
0.00192936
0.00304599
0.00412021
0.00438639
0.00120696
0.00112632
0.00106085
0.00100398
0.000953664
0.000905439
0.000855502
0.000800817
0.000737017
0.000610481
0.000512081
0.000716562
0.000461271
0.00192107
0.00290244
0.00343522
0.00377477
0.00412754
0.00444797
0.00467712
0.00479339
0.00484623
0.00486126
0.00481792
0.00472319
0.00457358
0.00435339
0.00404595
0.00362951
0.00298538
0.00257074
0.00261694
0.00320273
0.00423264
0.00534991
0.00622363
0.0066083
0.00600713
0.0055504
0.00519815
0.00489564
0.00449798
0.00400063
0.00341861
0.00276373
0.00205865
0.00137217
0.000893841
0.000781383
0.00060117
0.000488491
0.00059774
0.00074474
0.00273886
0.00439917
0.00444787
0.004474
0.00492083
0.00542514
0.00581732
0.00604616
0.00607016
0.00588091
0.00563384
0.00539267
0.0051656
0.00494111
0.00472182
0.00452909
0.0043763
0.00454065
0.0052393
0.00629612
0.00733299
0.00809632
0.00848748
0.0085048
0.00819751
0.00779473
0.0073517
0.00680324
0.00614616
0.00538831
0.00454452
0.00363617
0.00270207
0.0018432
0.00124625
0.000980497
0.000845567
0.000841458
0.000999677
0.000707834
0.0029893
0.00630602
0.00492452
0.00500068
0.00649707
0.00759136
0.00801531
0.00774538
0.00715256
0.0067402
0.00644001
0.00621757
0.0060646
0.00597863
0.00599
0.00615699
0.00655515
0.00733075
0.00837217
0.00932007
0.00989328
0.0101026
0.00997835
0.0095965
0.00906417
0.00847552
0.00782193
0.00709141
0.00628389
0.00541089
0.00450289
0.00360179
0.00275376
0.00205884
0.00163033
0.00147713
0.0014741
0.00153343
0.00165173
0.000921043
0.00299625
0.00514183
0.00390708
0.00563044
0.00741217
0.00815027
0.008334
0.00812443
0.00779588
0.00757722
0.00746062
0.00743298
0.00749317
0.00765518
0.00794772
0.00841391
0.0090985
0.0099162
0.0106613
0.0111134
0.0111504
0.0108529
0.0102968
0.00956904
0.00875983
0.00792986
0.0070914
0.00622986
0.00534853
0.00447768
0.0036739
0.00300052
0.00250356
0.00221445
0.0021374
0.00227326
0.00243161
0.00237094
0.00237629
0.00101975
0.00274163
0.00296974
0.00316238
0.0051447
0.00716859
0.00824991
0.00855889
0.00863214
0.0086028
0.00862697
0.00872385
0.00888956
0.00912115
0.00942127
0.00979518
0.010242
0.0107302
0.0111478
0.0113506
0.0112415
0.0108133
0.0101323
0.00928608
0.00835846
0.0074157
0.00649325
0.00559477
0.0047256
0.00391985
0.00323512
0.00272062
0.00238367
0.00219138
0.00209654
0.00204995
0.00199994
0.00188286
0.00170801
0.00151397
0.00108994
0.00332053
0.00511473
0.00651627
0.0075991
0.00815391
0.0085554
0.00884052
0.00907359
0.00931092
0.0095564
0.00980634
0.0100556
0.0102932
0.0104924
0.0105989
0.0105308
0.0102244
0.00966805
0.00891149
0.00804388
0.00715608
0.00631524
0.0055541
0.00487658
0.00427528
0.00374925
0.00330535
0.00294967
0.00268163
0.00249436
0.00237756
0.00231733
0.00229309
0.00227462
0.00222408
0.00211598
0.00186514
0.00110315
0.00199101
0.00527043
0.00550961
0.00573814
0.00613192
0.00654568
0.00688908
0.0071523
0.00738851
0.00759484
0.00776709
0.0079002
0.00798325
0.00799394
0.00789787
0.00765962
0.00726964
0.00675831
0.0061893
0.00563206
0.00513369
0.00471033
0.0043565
0.00405904
0.00380593
0.0035889
0.00340165
0.00323809
0.00309248
0.00296101
0.00284272
0.00273726
0.00263954
0.00253627
0.00238215
0.00231968
0.00206122
0.00115851
0.00173778
0.0015189
0.00148952
0.00135928
0.00135263
0.00137186
0.00139646
0.0014204
0.00144334
0.00146199
0.00147197
0.0014735
0.00146698
0.00145274
0.00143084
0.00140106
0.00136333
0.00131853
0.00126933
0.00121959
0.00117326
0.00113313
0.00110013
0.00107376
0.00105288
0.00103641
0.0010236
0.00101408
0.00100775
0.0010047
0.00100523
0.00100984
0.00101898
0.00103248
0.0010477
0.00105685
0.00103419
0.000961371
0.000946065
0.00117642
)
;

boundaryField
{
    floor
    {
        type            nutkWallFunction;
        Cmu             0.09;
        kappa           0.41;
        E               9.8;
        value           nonuniform List<scalar> 
29
(
0.000110008
6.33576e-05
7.38987e-05
8.35919e-05
9.35623e-05
0.000100199
0.000101111
9.32765e-05
8.47812e-05
7.72771e-05
7.06215e-05
6.44492e-05
5.8608e-05
5.27917e-05
4.67111e-05
4.02782e-05
3.36064e-05
2.69455e-05
2.38709e-05
2.10694e-05
2.10693e-05
4.16705e-05
4.92971e-05
5.47322e-05
0.000110008
6.33576e-05
6.08717e-05
6.04312e-05
0.000131567
)
;
    }
    ceiling
    {
        type            nutkWallFunction;
        Cmu             0.09;
        kappa           0.41;
        E               9.8;
        value           nonuniform List<scalar> 
43
(
0.000204744
0.000180297
0.000176985
0.000162262
0.000161507
0.000163693
0.000166485
0.000169196
0.00017179
0.000173896
0.000175021
0.000175194
0.000174459
0.000172853
0.000170379
0.000167009
0.000162727
0.000157625
0.000151999
0.000146286
0.000140943
0.000136295
0.000132459
0.000129385
0.000126946
0.000125017
0.000123516
0.0001224
0.000121657
0.0001213
0.000121365
0.000121909
0.000122986
0.000124572
0.000126355
0.000127419
0.000124758
0.000116171
0.000114382
0.000141311
0.000312759
0.000336616
0.000232474
)
;
    }
    sWall
    {
        type            nutkWallFunction;
        Cmu             0.09;
        kappa           0.41;
        E               9.8;
        value           uniform 0.000204792;
    }
    nWall
    {
        type            nutkWallFunction;
        Cmu             0.09;
        kappa           0.41;
        E               9.8;
        value           nonuniform List<scalar> 6(9.02187e-05 8.57728e-05 0.000111512 0.000132865 0.000139291 0.000141319);
    }
    sideWalls
    {
        type            empty;
    }
    glass1
    {
        type            nutkWallFunction;
        Cmu             0.09;
        kappa           0.41;
        E               9.8;
        value           nonuniform List<scalar> 9(0.000182227 0.00020764 0.000225002 0.000221399 0.00022516 0.000313037 0.000339313 0.000340022 0.00031327);
    }
    glass2
    {
        type            nutkWallFunction;
        Cmu             0.09;
        kappa           0.41;
        E               9.8;
        value           nonuniform List<scalar> 2(0.000123163 0.000131358);
    }
    sun
    {
        type            nutkWallFunction;
        Cmu             0.09;
        kappa           0.41;
        E               9.8;
        value           nonuniform List<scalar> 
14
(
0.000181998
0.000202876
0.000217376
0.000227324
0.000226982
0.000216947
0.00020465
0.000192357
0.000179866
0.000167243
0.000155799
0.000145347
0.000134963
0.000123621
)
;
    }
    heatsource1
    {
        type            nutkWallFunction;
        Cmu             0.09;
        kappa           0.41;
        E               9.8;
        value           nonuniform List<scalar> 3(5.82414e-05 7.20275e-05 9.02198e-05);
    }
    heatsource2
    {
        type            nutkWallFunction;
        Cmu             0.09;
        kappa           0.41;
        E               9.8;
        value           nonuniform List<scalar> 4(0.000128196 0.000109546 0.000109546 0.000124944);
    }
    Table_master
    {
        type            nutkWallFunction;
        Cmu             0.09;
        kappa           0.41;
        E               9.8;
        value           nonuniform List<scalar> 9(0.000122925 0.000106111 9.07983e-05 7.76279e-05 6.6967e-05 5.91382e-05 5.36385e-05 4.95973e-05 4.65311e-05);
    }
    Table_slave
    {
        type            nutkWallFunction;
        Cmu             0.09;
        kappa           0.41;
        E               9.8;
        value           nonuniform List<scalar> 9(0.000144802 0.000135479 0.000127854 0.000121187 0.000115251 0.000109527 0.000103563 9.69839e-05 8.92407e-05);
    }
    inlet
    {
        type            calculated;
        value           uniform 0.000100623;
    }
    outlet
    {
        type            calculated;
        value           nonuniform List<scalar> 2(0.00173778 0.0015189);
    }
}


// ************************************************************************* //
