/*--------------------------------*- C++ -*----------------------------------*\
  =========                 |
  \\      /  F ield         | OpenFOAM: The Open Source CFD Toolbox
   \\    /   O peration     | Website:  https://openfoam.org
    \\  /    A nd           | Version:  6
     \\/     M anipulation  |
\*---------------------------------------------------------------------------*/
FoamFile
{
    version     2.0;
    format      ascii;
    class       volScalarField;
    location    "1200";
    object      nut;
}
// * * * * * * * * * * * * * * * * * * * * * * * * * * * * * * * * * * * * * //

dimensions      [0 2 -1 0 0 0 0];

internalField   nonuniform List<scalar> 
459
(
0.000784715
0.000847439
0.000812582
0.000786481
0.000757397
0.000736792
0.000712705
0.000687206
0.000663991
0.000646655
0.000635496
0.000629753
0.000627838
0.000628047
0.000632739
0.000496885
0.000479915
0.000312502
0.000229457
0.000198003
0.000188128
0.000184117
0.000196698
0.000212752
0.00023098
0.000249261
0.000265395
0.000274591
0.000276956
0.000294603
0.000341233
0.000413978
0.000574528
0.00054302
0.00117545
0.00350061
0.00364304
0.00368035
0.00354117
0.00333715
0.00321571
0.00319091
0.00314046
0.00298538
0.00274211
0.00245141
0.00213108
0.00176135
0.00128291
0.000723085
0.000631584
0.000675214
0.0016604
0.00111023
0.000824042
0.000559198
0.000381535
0.00031756
0.000380361
0.000490427
0.000611705
0.000720855
0.00080833
0.000874228
0.000945402
0.00111911
0.00154679
0.00175912
0.00235369
0.000794119
0.0013732
0.00504354
0.00557717
0.00589176
0.00555264
0.00495568
0.00437825
0.00414911
0.00420289
0.0042504
0.00410095
0.00377046
0.00333404
0.00282367
0.0022294
0.00157191
0.000865524
0.000812219
0.00197181
0.00148623
0.00113758
0.000793883
0.000534697
0.000276408
0.000303517
0.000339736
0.000379311
0.000424528
0.000478681
0.000547241
0.000641255
0.00078471
0.00235299
0.00268138
0.00349185
0.00102514
0.00157867
0.00256489
0.002995
0.00377026
0.00452278
0.00497161
0.0050479
0.00477389
0.00458851
0.00480749
0.00498831
0.00491857
0.00464316
0.00422085
0.00363639
0.00281458
0.00173111
0.000903526
0.00192308
0.0023422
0.0019658
0.00150857
0.00114032
0.000852033
0.000650774
0.000665528
0.000683745
0.000703903
0.000728072
0.000758962
0.000800952
0.000862712
0.000964246
0.002817
0.00302895
0.00356866
0.0011431
0.00263512
0.00265403
0.00254785
0.00272492
0.00326841
0.00394217
0.00443886
0.0045423
0.00444027
0.0048097
0.00530321
0.00563095
0.00572201
0.00569185
0.0056015
0.00543863
0.00512371
0.00465994
0.00444708
0.00423573
0.00397109
0.00378084
0.00367501
0.00362233
0.00358207
0.00360523
0.00360878
0.00360537
0.00359605
0.00358127
0.00356172
0.00353947
0.00351778
0.00349932
0.0031479
0.00266986
0.00211605
0.00139012
0.00152947
0.00158781
0.00302448
0.00318732
0.00282727
0.00268204
0.00297117
0.00353531
0.00404849
0.00427134
0.00427612
0.00443569
0.00508378
0.0057468
0.00612044
0.00635036
0.00649616
0.00655957
0.00649038
0.00625141
0.00594786
0.0056832
0.00549049
0.00536394
0.00529522
0.00525925
0.00523168
0.00520442
0.00517312
0.00514084
0.00510712
0.00507098
0.00502994
0.00497802
0.00490361
0.00478777
0.00461577
0.0044626
0.00442656
0.00465813
0.00502947
0.00203057
0.00338995
0.00377149
0.00344125
0.00284242
0.00297086
0.00348
0.00396454
0.0042041
0.00427324
0.00444305
0.0048987
0.00548746
0.00597909
0.0063847
0.00670896
0.00693209
0.0070287
0.00697086
0.0068172
0.00665593
0.00652515
0.00642664
0.00635679
0.00630041
0.00623943
0.00617012
0.00610027
0.00603223
0.00596633
0.00590446
0.00585125
0.00581368
0.00580004
0.00581571
0.00585499
0.00590223
0.00595961
0.00632596
0.00740826
0.00244389
0.00384438
0.00448921
0.00549383
0.00316115
0.00324105
0.00379076
0.00428572
0.00452583
0.00465596
0.0048208
0.00506842
0.00538041
0.00573368
0.00610767
0.00648422
0.00683162
0.00709831
0.00723899
0.00727105
0.00725057
0.00721421
0.00717706
0.00714432
0.00710911
0.00705169
0.00697148
0.00688118
0.0067869
0.00668874
0.00658708
0.00648674
0.00639684
0.00633101
0.00630837
0.00635464
0.00649074
0.00665485
0.00686716
0.00857557
0.00290403
0.00452177
0.00570366
0.0107358
0.00469685
0.00364117
0.00463972
0.00518853
0.0053813
0.00544478
0.00555751
0.00575404
0.00600018
0.0062538
0.0065018
0.0067518
0.00700683
0.00724868
0.00744555
0.00758268
0.00767013
0.00772433
0.00775854
0.00778151
0.00779441
0.00778631
0.00774236
0.00767219
0.00758504
0.00748247
0.00736421
0.00723419
0.00709954
0.00696997
0.00686004
0.00679689
0.00683325
0.00702338
0.00737603
0.00869834
0.00293662
0.0180016
0.0115538
0.00552237
0.00653582
0.0072215
0.00736744
0.00745083
0.00759079
0.0077603
0.00791723
0.00803819
0.00812461
0.00819314
0.00826137
0.00833703
0.00841621
0.00849103
0.00855665
0.00861186
0.00865753
0.00869543
0.00872616
0.00874635
0.00874312
0.00871011
0.00865068
0.00856108
0.00844352
0.00830463
0.0081516
0.00799133
0.00783212
0.00768895
0.00759182
0.00758824
0.00771002
0.00758289
0.00218402
0.0058155
0.00841877
0.0080419
0.00819622
0.0085182
0.00882165
0.00909503
0.00932968
0.0095024
0.00959629
0.00961613
0.0095852
0.00953298
0.0094836
0.00944992
0.00943418
0.00943302
0.00944176
0.00945634
0.00947429
0.00949479
0.00951828
0.00954601
0.00957796
0.0096073
0.00961563
0.00957504
0.00949791
0.00939744
0.00928287
0.00915972
0.00903165
0.00890241
0.00877701
0.00865443
0.00851599
0.00762341
0.00208014
0.00193716
0.00182565
0.0031747
0.00301033
0.00279361
0.00261505
0.00251192
0.00245215
0.00241934
0.00240147
0.00239112
0.00238353
0.00237523
0.00236422
0.00235034
0.00233471
0.00231886
0.00230396
0.00229059
0.00227886
0.00226863
0.00225968
0.0022518
0.0022448
0.0022385
0.00223265
0.00222686
0.00222044
0.00221474
0.00220746
0.0021983
0.00218782
0.00217674
0.00216579
0.00215578
0.00214801
0.002146
0.00216105
0.00210219
0.00186978
)
;

boundaryField
{
    floor
    {
        type            nutkWallFunction;
        Cmu             0.09;
        kappa           0.41;
        E               9.8;
        value           nonuniform List<scalar> 
29
(
7.63905e-05
5.92583e-05
5.70842e-05
3.49994e-05
2.34934e-05
1.89949e-05
1.75627e-05
1.6976e-05
1.88012e-05
2.11084e-05
2.37e-05
2.62719e-05
2.8521e-05
2.97945e-05
3.0121e-05
3.25449e-05
3.88637e-05
4.85081e-05
6.91009e-05
6.51228e-05
6.51228e-05
9.61772e-05
0.000123726
0.00013752
7.63905e-05
5.92583e-05
8.16586e-05
9.83769e-05
0.000109336
)
;
    }
    ceiling
    {
        type            nutkWallFunction;
        Cmu             0.09;
        kappa           0.41;
        E               9.8;
        value           nonuniform List<scalar> 
43
(
0.000227364
0.000215018
0.000359459
0.000342226
0.000319372
0.000300401
0.000289366
0.000282938
0.000279393
0.000277452
0.000276322
0.000275492
0.000274587
0.000273393
0.00027189
0.0002702
0.000268485
0.000266873
0.000265424
0.000264152
0.000263043
0.000262071
0.000261215
0.000260455
0.000259769
0.000259132
0.000258501
0.000257802
0.00025718
0.000256385
0.000255388
0.000254248
0.000253043
0.000251851
0.000250763
0.000249916
0.000249695
0.000251321
0.000244931
0.000219505
0.000496619
0.000614013
0.000625284
)
;
    }
    sWall
    {
        type            nutkWallFunction;
        Cmu             0.09;
        kappa           0.41;
        E               9.8;
        value           uniform 0.000227392;
    }
    nWall
    {
        type            nutkWallFunction;
        Cmu             0.09;
        kappa           0.41;
        E               9.8;
        value           nonuniform List<scalar> 6(0.000188205 0.000237118 0.000281749 0.000253809 0.000242535 0.000219512);
    }
    sideWalls
    {
        type            empty;
    }
    glass1
    {
        type            nutkWallFunction;
        Cmu             0.09;
        kappa           0.41;
        E               9.8;
        value           nonuniform List<scalar> 9(9.5042e-05 0.000141343 0.000164077 0.00018726 0.000302365 0.000343425 0.000381463 0.000428184 0.000496822);
    }
    glass2
    {
        type            nutkWallFunction;
        Cmu             0.09;
        kappa           0.41;
        E               9.8;
        value           nonuniform List<scalar> 2(0.000330398 0.000333826);
    }
    sun
    {
        type            nutkWallFunction;
        Cmu             0.09;
        kappa           0.41;
        E               9.8;
        value           nonuniform List<scalar> 
14
(
9.50455e-05
0.000102618
9.84179e-05
9.52607e-05
9.17281e-05
8.92152e-05
8.62664e-05
8.31321e-05
8.02666e-05
7.81191e-05
7.67333e-05
7.60188e-05
7.57805e-05
7.58066e-05
)
;
    }
    heatsource1
    {
        type            nutkWallFunction;
        Cmu             0.09;
        kappa           0.41;
        E               9.8;
        value           nonuniform List<scalar> 3(0.000165901 0.000181663 0.000188218);
    }
    heatsource2
    {
        type            nutkWallFunction;
        Cmu             0.09;
        kappa           0.41;
        E               9.8;
        value           nonuniform List<scalar> 4(8.75388e-05 7.62379e-05 7.62378e-05 0.000104796);
    }
    Table_master
    {
        type            nutkWallFunction;
        Cmu             0.09;
        kappa           0.41;
        E               9.8;
        value           nonuniform List<scalar> 9(3.00115e-05 3.37313e-05 3.86354e-05 4.39176e-05 4.98677e-05 5.68906e-05 6.56432e-05 7.74326e-05 9.50352e-05);
    }
    Table_slave
    {
        type            nutkWallFunction;
        Cmu             0.09;
        kappa           0.41;
        E               9.8;
        value           nonuniform List<scalar> 9(7.86184e-05 8.04463e-05 8.26953e-05 8.51757e-05 8.81389e-05 9.19095e-05 9.70064e-05 0.000104447 0.000116548);
    }
    inlet
    {
        type            calculated;
        value           uniform 0.0180016;
    }
    outlet
    {
        type            calculated;
        value           nonuniform List<scalar> 2(0.00193716 0.00182565);
    }
}


// ************************************************************************* //
