// -*- C++ -*-
// File generated by PyFoam - sorry for the ugliness

FoamFile
{
 version 2.0;
 format ascii;
 class volScalarField;
 location "1200";
 object T;
}

dimensions [ 0 0 0 1 0 0 0 ];

internalField nonuniform List<scalar> 459
(
  309.577
  309.502
  309.521
  309.537
  309.552
  309.565
  309.573
  309.575
  309.575
  309.573
  309.571
  309.569
  309.568
  309.565
  309.559
  308.043
  307.998
  307.89
  307.845
  307.854
  307.895
  307.931
  307.937
  307.924
  307.913
  307.906
  307.903
  307.897
  307.884
  307.889
  307.927
  307.976
  308.104
  308.239
  309.689
  309.623
  309.666
  309.7
  309.724
  309.741
  309.752
  309.756
  309.754
  309.749
  309.741
  309.73
  309.715
  309.694
  309.663
  309.624
  309.546
  308.278
  308.283
  308.267
  308.268
  308.24
  308.233
  308.264
  308.243
  308.226
  308.218
  308.219
  308.227
  308.256
  308.318
  308.391
  308.483
  308.472
  308.475
  308.604
  309.817
  309.739
  309.794
  309.834
  309.861
  309.877
  309.884
  309.886
  309.881
  309.879
  309.874
  309.863
  309.844
  309.812
  309.766
  309.709
  309.644
  308.822
  308.815
  308.812
  308.823
  308.816
  308.765
  308.43
  308.465
  308.522
  308.584
  308.655
  308.737
  308.833
  308.955
  309.133
  309.348
  309.288
  309.179
  309.116
  310.255
  310.188
  310.188
  310.161
  310.128
  310.102
  310.074
  310.017
  309.996
  309.993
  309.997
  309.996
  309.984
  309.954
  309.901
  309.811
  309.67
  309.499
  309.391
  309.542
  309.632
  309.726
  309.817
  309.891
  309.951
  309.969
  309.984
  309.997
  310.009
  310.018
  310.024
  310.024
  310.011
  309.963
  309.963
  309.945
  309.786
  312.114
  311.929
  311.576
  311.172
  310.819
  310.559
  310.377
  310.249
  310.149
  310.1
  310.109
  310.126
  310.135
  310.132
  310.115
  310.081
  310.029
  309.974
  309.941
  309.962
  309.993
  310.033
  310.073
  310.107
  310.132
  310.152
  310.17
  310.187
  310.204
  310.22
  310.236
  310.251
  310.265
  310.276
  310.305
  310.343
  310.404
  310.506
  310.55
  310.586
  312.165
  312.054
  311.873
  311.539
  311.159
  310.827
  310.575
  310.399
  310.283
  310.224
  310.219
  310.252
  310.284
  310.304
  310.312
  310.305
  310.281
  310.253
  310.233
  310.231
  310.239
  310.254
  310.272
  310.291
  310.308
  310.325
  310.34
  310.355
  310.37
  310.384
  310.399
  310.415
  310.431
  310.447
  310.466
  310.488
  310.517
  310.554
  310.59
  310.641
  312.136
  312.007
  311.894
  311.638
  311.268
  310.923
  310.662
  310.486
  310.383
  310.347
  310.362
  310.405
  310.458
  310.502
  310.532
  310.546
  310.543
  310.529
  310.515
  310.507
  310.502
  310.503
  310.507
  310.514
  310.523
  310.532
  310.54
  310.547
  310.554
  310.56
  310.567
  310.573
  310.58
  310.587
  310.592
  310.596
  310.602
  310.613
  310.633
  310.687
  312.104
  312
  311.871
  311.575
  311.231
  310.921
  310.693
  310.566
  310.515
  310.531
  310.592
  310.671
  310.743
  310.802
  310.843
  310.866
  310.873
  310.867
  310.854
  310.839
  310.823
  310.811
  310.802
  310.796
  310.792
  310.789
  310.785
  310.779
  310.772
  310.765
  310.757
  310.749
  310.742
  310.735
  310.727
  310.718
  310.708
  310.697
  310.691
  310.739
  312.084
  312.04
  312.047
  311.541
  311.215
  310.995
  310.854
  310.809
  310.843
  310.928
  311.035
  311.134
  311.209
  311.257
  311.285
  311.297
  311.296
  311.285
  311.265
  311.24
  311.214
  311.187
  311.162
  311.139
  311.117
  311.095
  311.074
  311.051
  311.026
  311
  310.974
  310.947
  310.921
  310.895
  310.869
  310.841
  310.809
  310.77
  310.733
  310.77
  312.76
  312.185
  311.784
  311.595
  311.519
  311.536
  311.605
  311.698
  311.785
  311.847
  311.88
  311.887
  311.876
  311.852
  311.821
  311.784
  311.742
  311.698
  311.652
  311.606
  311.561
  311.516
  311.473
  311.429
  311.385
  311.341
  311.295
  311.248
  311.201
  311.152
  311.104
  311.056
  311.006
  310.954
  310.894
  310.822
  310.739
  310.687
  313.825
  314.337
  314.125
  313.56
  313.184
  312.987
  312.889
  312.836
  312.794
  312.746
  312.687
  312.618
  312.543
  312.464
  312.385
  312.307
  312.23
  312.154
  312.081
  312.009
  311.939
  311.871
  311.805
  311.739
  311.673
  311.607
  311.541
  311.474
  311.407
  311.338
  311.269
  311.199
  311.127
  311.052
  310.968
  310.871
  310.757
  310.639
  321.268
  320.244
  318.084
  317.66
  317.229
  316.73
  316.158
  315.633
  315.182
  314.802
  314.477
  314.193
  313.941
  313.715
  313.511
  313.325
  313.157
  313.003
  312.861
  312.73
  312.609
  312.495
  312.388
  312.287
  312.19
  312.098
  312.008
  311.919
  311.829
  311.739
  311.647
  311.554
  311.46
  311.364
  311.265
  311.164
  311.056
  310.93
  310.765
  310.57
)
;

boundaryField
{
  floor
  {
    type wallHeatTransfer;
    Tinf uniform 305.2;
    alphaWall uniform 0.24;
    value nonuniform List<scalar> 29
(
  308.872
  307.516
  307.468
  307.224
  307.065
  307.008
  307.014
  307.029
  307.062
  307.088
  307.116
  307.143
  307.167
  307.177
  307.171
  307.2
  307.286
  307.397
  307.616
  307.708
  307.708
  308.147
  308.68
  309.316
  308.872
  307.516
  307.815
  308.344
  308.973
)
;
  }
  ceiling
  {
    type wallHeatTransfer;
    Tinf uniform 303.2;
    alphaWall uniform 0.24;
    value nonuniform List<scalar> 43
(
  320.008
  319.001
  317.395
  316.961
  316.509
  315.998
  315.434
  314.925
  314.493
  314.132
  313.824
  313.555
  313.317
  313.101
  312.906
  312.729
  312.567
  312.42
  312.284
  312.159
  312.042
  311.934
  311.832
  311.736
  311.644
  311.556
  311.47
  311.386
  311.301
  311.214
  311.127
  311.038
  310.947
  310.855
  310.761
  310.665
  310.563
  310.448
  310.283
  310.054
  311.784
  311.794
  313.534
)
;
  }
  sWall
  {
    type wallHeatTransfer;
    Tinf uniform 315.2;
    alphaWall uniform 0.36;
    value uniform 320.654;
  }
  nWall
  {
    type wallHeatTransfer;
    Tinf uniform 307.2;
    alphaWall uniform 0.36;
    value nonuniform List<scalar> 6
(
  310.197
  310.313
  310.4
  310.374
  310.318
  310.228
)
;
  }
  sideWalls
  {
    type empty;
  }
  glass1
  {
    type wallHeatTransfer;
    Tinf uniform 315.2;
    alphaWall uniform 4.3;
    value nonuniform List<scalar> 9
(
  313.737
  313.377
  313.258
  313.278
  313.666
  313.6
  313.509
  313.407
  313.288
)
;
  }
  glass2
  {
    type wallHeatTransfer;
    Tinf uniform 307.2;
    alphaWall uniform 4.3;
    value nonuniform List<scalar> 2
(
  309.046
  309.07
)
;
  }
  sun
  {
    type wallHeatTransfer;
    Tinf uniform 305.2;
    alphaWall uniform 0.24;
    value nonuniform List<scalar> 14
(
  308.984
  308.951
  308.95
  308.951
  308.947
  308.946
  308.938
  308.924
  308.907
  308.893
  308.884
  308.878
  308.875
  308.873
)
;
  }
  heatsource1
  {
    type fixedGradient;
    gradient uniform 0;
  }
  heatsource2
  {
    type fixedGradient;
    gradient uniform 0;
  }
  Table_master
  {
    type zeroGradient;
  }
  Table_slave
  {
    type zeroGradient;
  }
  inlet
  {
    type fixedValue;
    value uniform 299.15;
  }
  outlet
  {
    type zeroGradient;
  }
} 	// ************************************************************************* //

