/*--------------------------------*- C++ -*----------------------------------*\
  =========                 |
  \\      /  F ield         | OpenFOAM: The Open Source CFD Toolbox
   \\    /   O peration     | Website:  https://openfoam.org
    \\  /    A nd           | Version:  6
     \\/     M anipulation  |
\*---------------------------------------------------------------------------*/
FoamFile
{
    version     2.0;
    format      ascii;
    class       surfaceScalarField;
    location    "410";
    object      phi;
}
// * * * * * * * * * * * * * * * * * * * * * * * * * * * * * * * * * * * * * //

dimensions      [1 0 -1 0 0 0 0];

internalField   nonuniform List<scalar> 
852
(
0.000858741
-0.00086291
0.00126533
-0.000406656
0.00235889
-0.00109363
0.00328885
-0.00093004
0.00387249
-0.000583705
0.00418268
-0.000310264
0.00430243
-0.000119819
0.00428615
1.62091e-05
0.00416542
0.000120669
0.00395616
0.000209182
0.00365941
0.000296687
0.00325504
0.000404299
0.00268504
0.000569924
0.00177881
0.000906162
0.00177511
-1.38717e-05
8.94908e-06
-0.00015014
0.000136179
0.000194066
-0.000344295
0.000685891
-0.000491911
0.00107863
-0.000392823
0.00134251
-0.000263974
0.00149348
-0.000151051
0.00157481
-8.14238e-05
0.00162764
-5.29204e-05
0.00166624
-3.86876e-05
0.00169382
-2.76695e-05
0.00170989
-1.61648e-05
0.00170839
1.4041e-06
0.00167374
3.45575e-05
0.00157198
0.000101669
0.00134526
0.000226628
0.0009413
0.000403862
0.00020941
0.000731793
0.000202442
0.000380401
-0.00125513
0.00104569
-0.00107202
0.00198594
-0.00203395
0.00274072
-0.0016849
0.00320744
-0.00105051
0.00343827
-0.000541161
0.00350691
-0.000188532
0.00346339
5.96498e-05
0.0033395
0.000244486
0.00315676
0.00039185
0.00292576
0.000527609
0.00265079
0.000679194
0.00234538
0.000875268
0.00211817
0.0011333
0.00242201
0.0014712
0.0011632
0.00125868
0.00116307
-6.31123e-05
6.14112e-05
0.000434129
-0.000361151
0.000841572
-0.000751823
0.00114533
-0.000795753
0.00137917
-0.000626749
0.00152524
-0.000410134
0.00155632
-0.000182217
0.00156709
-9.22798e-05
0.00157728
-6.32043e-05
0.00158599
-4.74827e-05
0.00159285
-3.46203e-05
0.00159802
-2.14246e-05
0.00159908
2.53016e-07
0.00158923
4.43089e-05
0.00153441
0.000156401
0.00131723
0.000443708
0.000971969
0.00074903
0.000588875
0.00111479
0.000773308
0.000108106
-0.00138225
0.000639739
-0.00160372
0.00141283
-0.00280713
0.00202866
-0.00230082
0.00234315
-0.00136508
0.00245595
-0.00065404
0.00245093
-0.000183596
0.00238079
0.000129711
0.00228177
0.000343426
0.00217139
0.00050216
0.00205624
0.00064268
0.00194259
0.000792764
0.00184562
0.000972168
0.00178537
0.00119347
0.00174109
0.00151541
0.00125858
0.00174112
0.00242158
0.000241146
-0.000197535
0.0010381
-0.00115818
0.00142169
-0.0011355
0.00158971
-0.00096386
0.00168645
-0.000723574
0.00174101
-0.000464781
0.00155886
0.00146665
0.00140351
0.00135609
0.00132154
0.00130018
0.00130049
0.00134486
0.00150132
0.00123081
0.000714131
0.000992671
0.000987069
0.000748516
0.00135885
0.00149442
-0.000119512
-0.00128861
0.000122716
-0.00184602
0.000699675
-0.00338418
0.001204
-0.00280524
0.00135363
-0.0015148
0.00133951
-0.000640011
0.00127477
-0.00011895
0.00121922
0.00018518
0.00119355
0.000369021
0.00119083
0.000504797
0.00120349
0.000629939
0.00123184
0.000764339
0.0012828
0.000921128
0.00136496
0.00111123
0.00151927
0.00136102
0.00176423
0.00149608
0.00265669
0.00152905
0.00218129
0.000451381
0.00248932
-0.000505648
0.00218012
-0.00084906
0.00201786
-0.000973312
0.00191219
-0.000858273
0.00183659
-0.000648065
0.00176827
-0.000396551
0.00188428
-0.000116248
0.00188389
1.46131e-07
0.00182389
5.97514e-05
0.00172517
9.84705e-05
0.00159493
0.000129987
0.00143436
0.000160326
0.0012386
0.000195507
0.00099307
0.000245276
0.000657709
0.000335107
0.000755407
0.000616335
0.00080473
0.000937648
0.000903851
0.00125963
0.00236356
-0.000388241
-0.000932675
-0.000404627
-0.00182971
-2.15253e-06
-0.00378674
0.00037151
-0.00317902
0.000391809
-0.00153521
0.00030874
-0.000557038
0.000255796
-6.60952e-05
0.000264231
0.000176659
0.000317337
0.000315832
0.000398085
0.000423966
0.000499912
0.00052803
0.000624923
0.000639248
0.000783819
0.000762152
0.000998878
0.000896091
0.00132387
0.00103595
0.00174652
0.00107337
0.00229462
0.000980871
0.00250037
0.000245556
0.00235936
-0.000364715
0.00215819
-0.00064797
0.00191601
-0.000731219
0.00170379
-0.000646147
0.00152787
-0.000472228
0.00139176
-0.000260539
0.00132165
-4.62286e-05
0.00122555
9.61453e-05
0.0011117
0.000173508
0.000989035
0.000221034
0.000859517
0.000259407
0.000722067
0.000297676
0.000575895
0.000341578
0.000424498
0.000396573
0.000315202
0.000444302
0.0003911
0.000540337
0.000667729
0.000660919
0.00134322
0.000584043
0.00238774
0.00131893
0.00108518
0.00130226
-9.18162e-05
0.00117669
-0.000125831
-0.000570879
-0.000399862
-0.000832406
-0.00156825
-0.000592771
-0.00402647
-0.000344441
-0.00342747
-0.000321674
-0.00155809
-0.000359429
-0.000519382
-0.000369266
-5.63508e-05
-0.00033418
0.000141485
-0.000261608
0.000243173
-0.000156459
0.00031873
-1.91725e-05
0.000390658
0.0001521
0.000467891
0.00036252
0.000551649
0.000626728
0.000631802
0.000968171
0.000694428
0.00136284
0.000678617
0.00180821
0.00053542
0.00194893
0.000104754
0.00183805
-0.000253918
0.00163569
-0.000445696
0.00138501
-0.000480632
0.00113922
-0.000400447
0.00092315
-0.000256255
0.000744082
-8.15699e-05
0.000608503
8.92516e-05
0.000499942
0.000204606
0.000400055
0.000273293
0.000300315
0.000320672
0.000198386
0.000361234
9.58854e-05
0.000400074
9.96791e-07
0.000436364
-6.4321e-05
0.000461787
-6.74814e-05
0.000447358
6.67207e-05
0.000406032
0.000323372
0.000404167
0.000553937
0.000353379
0.000756885
0.00111588
0.000360156
0.00169888
-0.00029676
0.0018335
-0.000455761
-0.000460092
1.75847e-05
-0.0011411
-0.000887314
-0.000955175
-0.00421247
-0.000704022
-0.00367875
-0.000644348
-0.00161789
-0.000662233
-0.000501603
-0.0006831
-3.55811e-05
-0.000666878
0.000125169
-0.000609869
0.000186071
-0.000515914
0.000224683
-0.000387465
0.000262119
-0.000222232
0.000302567
-1.38392e-05
0.000343168
0.00023794
0.000379935
0.000530016
0.000402265
0.000837155
0.000371393
0.00111281
0.000259674
0.00117473
4.27535e-05
0.00106577
-0.000145053
0.000863338
-0.00024336
0.000621457
-0.00023885
0.000381234
-0.000160325
0.000165845
-4.09683e-05
-4.10873e-06
8.82809e-05
-0.000115573
0.000200611
-0.000190345
0.000279274
-0.000254565
0.000337409
-0.00031722
0.000383222
-0.000376733
0.000420642
-0.000425184
0.000448419
-0.000449281
0.000460355
-0.000432204
0.000444604
-0.000369603
0.000384651
-0.000264569
0.000300893
-0.00012908
0.000268574
-5.23342e-05
0.000276531
0.000114635
0.000948813
-1.34772e-05
0.00182689
-0.000170751
0.00199067
-0.000657416
-0.000213736
0.0001847
-0.0012913
0.000190194
-0.000759406
-0.00474442
-0.000499598
-0.00393867
-0.000608802
-0.00150881
-0.000773304
-0.000337213
-0.00087343
6.44395e-05
-0.000900711
0.000152348
-0.000873874
0.000159133
-0.000806564
0.000157274
-0.000706199
0.000161655
-0.000576004
0.000172274
-0.000418453
0.00018552
-0.000236276
0.000197663
-3.61251e-05
0.000202018
0.000150865
0.000184308
0.00027674
0.000133703
0.000274037
4.53585e-05
0.000159266
-3.03826e-05
-2.76383e-05
-5.65586e-05
-0.00023897
-2.7623e-05
-0.000434781
3.53807e-05
-0.000586849
0.000110992
-0.000684131
0.000185456
-0.000738621
0.000254993
-0.000772466
0.000313011
-0.000795973
0.000360808
-0.000811274
0.000398414
-0.00081416
0.00042342
-0.000796661
0.000430811
-0.000749805
0.000413391
-0.000668573
0.000363264
-0.000562466
0.000278437
-0.000445059
0.000183379
-0.000306341
0.00012975
-0.000197566
0.00016765
0.000132249
0.000618896
0.000468881
0.00149016
0.00119798
0.00126147
0.000366392
9.95602e-05
0.000253843
0.000572534
-0.00506315
0.000218783
-0.00358501
-0.000493959
-0.000796221
-0.000935375
0.000104082
-0.00112491
0.000253867
-0.00118758
0.000214907
-0.00118764
0.000159077
-0.00115169
0.000121223
-0.00109179
0.000101649
-0.00101448
9.48493e-05
-0.000925099
9.60391e-05
-0.000829546
0.000102006
-0.000737076
0.000109445
-0.000665582
0.00011271
-0.000637556
0.000105571
-0.000676563
8.42595e-05
-0.000774071
6.7018e-05
-0.000901527
7.07882e-05
-0.00102479
9.55351e-05
-0.00112074
0.000131214
-0.00118216
0.000172301
-0.00121258
0.000215772
-0.00121724
0.000259536
-0.00120427
0.000299934
-0.00117779
0.000334217
-0.00113825
0.000358758
-0.00108382
0.000368887
-0.00101203
0.00035891
-0.000921532
0.000322777
-0.000814693
0.000256314
-0.000699305
0.000162938
-0.000577225
6.11894e-05
-0.000425225
-2.23583e-05
-0.000247806
-9.87692e-06
0.000123749
0.000247235
0.000729845
0.000883958
0.00132043
0.000670781
0.00149871
0.00311493
-0.00173425
0.000337749
-0.000807909
-0.000956262
0.000497644
-0.0014113
0.000558999
-0.00153666
0.000379112
-0.0015656
0.000243734
-0.00156305
0.000156413
-0.00154724
0.000105299
-0.00152401
7.83072e-05
-0.00149623
6.69536e-05
-0.00146653
6.62288e-05
-0.00143792
7.32844e-05
-0.00141425
8.56668e-05
-0.00140122
9.95623e-05
-0.00140541
0.000109658
-0.00143344
0.000112174
-0.00147895
0.000112412
-0.00152597
0.000117699
-0.00156027
0.000129722
-0.00157563
0.000146456
-0.00157042
0.000166975
-0.00154546
0.000190703
-0.00150232
0.000216278
-0.00144353
0.000241038
-0.00137125
0.000261818
-0.00128745
0.000274844
-0.00119454
0.000275864
-0.0010961
0.000260356
-0.000997697
0.000224263
-0.000907321
0.000165825
-0.000833308
8.88129e-05
-0.000778387
6.15659e-06
-0.000727955
-7.29012e-05
-0.000662896
-7.50466e-05
-0.000560105
0.000144336
-0.000285713
0.000609458
-0.000104337
0.000489296
0.00135786
-0.00182868
5.4947e-05
-0.00259159
-4.51175e-05
-0.00235299
0.000258917
-0.00213786
0.000343751
-0.00202162
0.000262753
-0.0019579
0.000179894
-0.00192522
0.000123621
-0.00190991
8.98669e-05
-0.00190321
7.14939e-05
-0.00189981
6.34393e-05
-0.00189637
6.26723e-05
-0.00189062
6.74236e-05
-0.00188133
7.62628e-05
-0.00186904
8.71552e-05
-0.00185662
9.71203e-05
-0.00184818
0.000103619
-0.00184352
0.000107641
-0.00183772
0.000111776
-0.00182531
0.0001172
-0.00180291
0.000123934
-0.00176821
0.000132163
-0.00171946
0.000141839
-0.00165553
0.000152231
-0.00157643
0.000161824
-0.00148341
0.000168683
-0.00137925
0.000170565
-0.00126861
0.000165118
-0.00115858
0.000150202
-0.0010591
0.000124669
-0.000983123
8.9737e-05
-0.000944595
5.01711e-05
-0.000950763
1.22119e-05
-0.001017
-6.77416e-06
-0.00109686
4.7002e-06
-0.00104273
9.00955e-05
-0.000718892
0.000285507
-0.000645861
0.000416153
0.000665372
-0.00391595
-0.00309685
-0.00310202
-0.00320436
-0.00300228
-0.00271566
-0.00251015
-0.00238751
-0.00232115
-0.00228858
-0.00227446
-0.00226847
-0.00226333
-0.00225351
-0.00223491
-0.00220547
-0.00216612
-0.00212036
-0.0020707
-0.00201708
-0.00195819
-0.00189272
-0.00181914
-0.00173595
-0.0016424
-0.00153918
-0.00142896
-0.00131659
-0.00120929
-0.00111641
-0.00104849
-0.00101489
-0.00102034
-0.0010635
-0.00112569
-0.00117665
-0.00114187
-0.000910431
-0.000547778
)
;

boundaryField
{
    floor
    {
        type            calculated;
        value           nonuniform List<scalar> 
29
(
0
0
0
0
0
0
0
0
0
0
0
0
0
0
0
0
0
0
0
0
6.86997e-06
1.791e-05
2.73081e-05
3.46126e-05
3.62669e-06
4.82674e-06
1.05557e-05
1.77104e-05
2.39444e-05
)
;
    }
    ceiling
    {
        type            calculated;
        value           nonuniform List<scalar> 
43
(
6.94255e-05
6.62084e-05
5.99947e-05
5.70994e-05
5.67207e-05
5.70101e-05
5.71261e-05
5.71322e-05
5.71417e-05
5.7183e-05
5.72511e-05
5.73334e-05
5.74166e-05
5.74892e-05
5.75457e-05
5.75924e-05
5.76496e-05
5.77406e-05
5.78723e-05
5.8031e-05
5.81951e-05
5.83448e-05
5.84641e-05
5.85388e-05
5.85543e-05
5.84944e-05
5.83421e-05
5.80816e-05
5.77029e-05
5.72091e-05
5.66269e-05
5.60208e-05
5.55092e-05
5.5257e-05
5.53032e-05
5.55415e-05
5.52061e-05
5.3955e-05
5.33863e-05
5.87923e-05
3.52103e-05
3.58606e-05
3.93772e-05
)
;
    }
    sWall
    {
        type            calculated;
        value           uniform 4.61298e-05;
    }
    nWall
    {
        type            calculated;
        value           nonuniform List<scalar> 6(3.36948e-05 3.30582e-05 3.07921e-05 3.64033e-05 4.65156e-05 5.86871e-05);
    }
    sideWalls
    {
        type            empty;
        value           nonuniform 0();
    }
    glass1
    {
        type            calculated;
        value           nonuniform List<scalar> 9(4.10221e-06 1.17518e-05 1.89519e-05 2.58049e-05 3.22379e-05 3.80009e-05 4.25829e-05 4.65683e-05 4.98739e-05);
    }
    glass2
    {
        type            calculated;
        value           nonuniform List<scalar> 2(0.000174055 0.000187993);
    }
    sun
    {
        type            calculated;
        value           uniform 0;
    }
    heatsource1
    {
        type            calculated;
        value           nonuniform List<scalar> 3(2.05725e-07 2.06141e-07 2.06285e-07);
    }
    heatsource2
    {
        type            calculated;
        value           nonuniform List<scalar> 4(5.16542e-08 5.17984e-08 0 0);
    }
    Table_master
    {
        type            calculated;
        value           nonuniform List<scalar> 9(-1.54695e-07 -1.54786e-07 -1.5481e-07 -1.54822e-07 -1.54825e-07 -1.54823e-07 -1.54814e-07 -1.54784e-07 -1.54719e-07);
    }
    Table_slave
    {
        type            calculated;
        value           nonuniform List<scalar> 9(1.54489e-07 1.54517e-07 1.545e-07 1.54503e-07 1.54518e-07 1.54544e-07 1.5458e-07 1.54626e-07 1.5469e-07);
    }
    inlet
    {
        type            calculated;
        value           uniform -0.00644386;
    }
    outlet
    {
        type            calculated;
        value           nonuniform List<scalar> 2(0.00380027 -0.000885429);
    }
}


// ************************************************************************* //
