// -*- C++ -*-
// File generated by PyFoam - sorry for the ugliness

FoamFile
{
 version 2.0;
 format ascii;
 class volVectorField;
 location "200";
 object U;
}

dimensions [ 0 1 -1 0 0 0 0 ];

internalField nonuniform List<vector> 459
(
  (-0.0867958 -0.0905161 0)
  (0.1311 -0.0470362 0)
  (0.174979 -0.0426123 0)
  (0.204182 -0.0323213 0)
  (0.229301 -0.0212114 0)
  (0.242998 -0.0132662 0)
  (0.246253 -0.00797118 0)
  (0.242548 -0.00395366 0)
  (0.234839 -0.000598717 0)
  (0.223909 0.00248205 0)
  (0.209503 0.00574593 0)
  (0.190649 0.00990212 0)
  (0.16515 0.0164376 0)
  (0.125801 0.0304022 0)
  (0.110246 0.0691764 0)
  (-0.11347 0.00600092 0)
  (0.00924566 0.00659353 0)
  (-0.0132086 -0.0170114 0)
  (0.0192138 -0.0291573 0)
  (0.0416653 -0.0228403 0)
  (0.0621922 -0.0157879 0)
  (0.0763452 -0.00953878 0)
  (0.0843161 -0.00622305 0)
  (0.088294 -0.00490579 0)
  (0.0906086 -0.00430891 0)
  (0.0923485 -0.00387773 0)
  (0.0936356 -0.00345196 0)
  (0.09425 -0.00288956 0)
  (0.0936118 -0.00183823 0)
  (0.0905988 0.000325568 0)
  (0.0830271 0.0046302 0)
  (0.0689345 0.0111439 0)
  (0.0186503 0.024912 0)
  (0.106625 0.0111212 0)
  (-0.217163 -0.124434 0)
  (0.138807 -0.0702328 0)
  (0.132075 -0.0740725 0)
  (0.159116 -0.0487632 0)
  (0.181685 -0.0240339 0)
  (0.191528 -0.00754287 0)
  (0.192508 0.00296518 0)
  (0.188242 0.0101045 0)
  (0.181271 0.0154261 0)
  (0.172321 0.0199733 0)
  (0.161486 0.02481 0)
  (0.148702 0.0311667 0)
  (0.134385 0.0407292 0)
  (0.11876 0.0564615 0)
  (0.118302 0.0870297 0)
  (0.108927 0.0775889 0)
  (0.0677582 0.0673907 0)
  (-0.167713 0.0115891 0)
  (0.0389663 0.00472325 0)
  (0.035351 -0.0320381 0)
  (0.0502128 -0.0403911 0)
  (0.0658751 -0.033433 0)
  (0.0784775 -0.02255 0)
  (0.084489 -0.0101228 0)
  (0.0859441 -0.00301852 0)
  (0.0860164 -0.000284657 0)
  (0.0863004 0.00076672 0)
  (0.0867837 0.00137417 0)
  (0.0871828 0.00195197 0)
  (0.0874265 0.00295462 0)
  (0.0872867 0.00497198 0)
  (0.0859919 0.00938677 0)
  (0.0801345 0.0200334 0)
  (0.0686542 0.0316784 0)
  (0.0121307 0.049078 0)
  (0.176035 0.0351121 0)
  (-0.309286 -0.160383 0)
  (0.152112 -0.121708 0)
  (0.0762553 -0.120137 0)
  (0.108285 -0.0737273 0)
  (0.125422 -0.0371878 0)
  (0.128517 -0.0142668 0)
  (0.125508 0.000474681 0)
  (0.121138 0.0108782 0)
  (0.116703 0.0185721 0)
  (0.112264 0.0250073 0)
  (0.107705 0.0315999 0)
  (0.10306 0.0396685 0)
  (0.0988175 0.0504674 0)
  (0.0945578 0.0649699 0)
  (0.0953357 0.0846779 0)
  (0.0858339 0.0816141 0)
  (0.0658994 0.102309 0)
  (-0.21029 0.00264762 0)
  (0.0850149 -0.050053 0)
  (0.0771471 -0.0594378 0)
  (0.0820605 -0.0559856 0)
  (0.0890824 -0.0450966 0)
  (0.0946349 -0.033385 0)
  (0.0934702 -0.0255441 0)
  (0.0846207 -0.0174009 0)
  (0.0775583 -0.0128544 0)
  (0.0739345 -0.0101742 0)
  (0.0719546 -0.00836596 0)
  (0.0705434 -0.00700802 0)
  (0.069707 -0.00568733 0)
  (0.0706632 -0.0035252 0)
  (0.0758691 0.00226432 0)
  (0.0752358 0.026108 0)
  (0.0674881 0.0450201 0)
  (0.0033692 0.067957 0)
  (0.219161 0.0691057 0)
  (-0.37109 -0.174154 0)
  (0.152119 -0.155225 0)
  (0.00915752 -0.149816 0)
  (0.0568301 -0.0829693 0)
  (0.0650444 -0.037065 0)
  (0.060741 -0.0100872 0)
  (0.0554946 0.00601094 0)
  (0.0541143 0.015622 0)
  (0.0545914 0.0220521 0)
  (0.055976 0.0275661 0)
  (0.0578881 0.0335878 0)
  (0.0603308 0.0410795 0)
  (0.0636924 0.0507427 0)
  (0.0679312 0.0629739 0)
  (0.0772595 0.0790607 0)
  (0.0900495 0.0881855 0)
  (0.106432 0.110108 0)
  (0.1383 0.000738855 0)
  (0.127336 -0.0177871 0)
  (0.128606 -0.0480877 0)
  (0.116399 -0.0584759 0)
  (0.106952 -0.0545911 0)
  (0.100996 -0.0439778 0)
  (0.0960165 -0.0299969 0)
  (0.0961534 -0.0173129 0)
  (0.101166 -0.010542 0)
  (0.102365 -0.00639831 0)
  (0.0991333 -0.00361397 0)
  (0.0934132 -0.00150055 0)
  (0.0862124 0.00027322 0)
  (0.0775195 0.00198178 0)
  (0.0666014 0.00404252 0)
  (0.0480571 0.00735968 0)
  (0.0442317 0.0350243 0)
  (0.0530257 0.0539648 0)
  (-0.0051926 0.0769249 0)
  (0.247694 0.112231 0)
  (-0.390635 -0.166674 0)
  (0.114811 -0.164877 0)
  (-0.0480666 -0.169631 0)
  (0.0117936 -0.0857822 0)
  (0.0109601 -0.0309786 0)
  (0.00402432 -0.00363963 0)
  (0.00159761 0.00861012 0)
  (0.00379899 0.0146005 0)
  (0.00763872 0.0191013 0)
  (0.0125837 0.0237196 0)
  (0.0184222 0.029103 0)
  (0.0252984 0.0356759 0)
  (0.0337177 0.0437621 0)
  (0.0441879 0.05356 0)
  (0.0599543 0.0656069 0)
  (0.0805721 0.0727858 0)
  (0.106118 0.0740566 0)
  (0.129871 0.0191935 0)
  (0.134743 -0.0124954 0)
  (0.12699 -0.0376155 0)
  (0.113901 -0.0467063 0)
  (0.100434 -0.0438562 0)
  (0.0888565 -0.0347572 0)
  (0.0795598 -0.0223965 0)
  (0.0739773 -0.00773364 0)
  (0.0706003 0.00159022 0)
  (0.0661292 0.0064543 0)
  (0.0604393 0.00913053 0)
  (0.0542357 0.0110125 0)
  (0.0478555 0.012735 0)
  (0.0412532 0.0147297 0)
  (0.0345253 0.0175045 0)
  (0.0260612 0.0217779 0)
  (0.0241383 0.035866 0)
  (0.0432351 0.0496592 0)
  (0.0115872 0.063352 0)
  (0.144271 0.109 0)
  (0.118469 0.0927658 0)
  (-0.114032 0.0795212 0)
  (0.403373 -0.0093369 0)
  (-0.404478 -0.142584 0)
  (0.0664485 -0.155932 0)
  (-0.0774505 -0.178724 0)
  (-0.0299913 -0.0946123 0)
  (-0.0281421 -0.0308357 0)
  (-0.0301574 -0.00468465 0)
  (-0.0294274 0.00524152 0)
  (-0.0265922 0.00981498 0)
  (-0.0223134 0.0132644 0)
  (-0.0166729 0.0168861 0)
  (-0.00971113 0.0210724 0)
  (-0.00107707 0.0261343 0)
  (0.00975765 0.0322458 0)
  (0.0227529 0.0388438 0)
  (0.0398866 0.0453996 0)
  (0.0605927 0.0466364 0)
  (0.0853129 0.0386324 0)
  (0.102463 0.00866841 0)
  (0.105149 -0.0157546 0)
  (0.0977365 -0.0300039 0)
  (0.085265 -0.0343378 0)
  (0.0712768 -0.0309463 0)
  (0.0581715 -0.0229903 0)
  (0.0471598 -0.0126696 0)
  (0.0387291 -0.0014513 0)
  (0.0324365 0.00638126 0)
  (0.0276539 0.0106208 0)
  (0.0230111 0.013104 0)
  (0.0184021 0.0150624 0)
  (0.0138815 0.0170345 0)
  (0.00961932 0.0193231 0)
  (0.00620699 0.0221493 0)
  (0.00299748 0.0253148 0)
  (0.00420022 0.0303224 0)
  (0.0232172 0.03567 0)
  (0.00349642 0.0327277 0)
  (0.0612639 0.0720495 0)
  (0.0672747 0.0737496 0)
  (-0.141844 0.0806947 0)
  (0.388199 -0.0309025 0)
  (-0.429419 -0.114098 0)
  (0.0319578 -0.135409 0)
  (-0.0994705 -0.193873 0)
  (-0.0565489 -0.108617 0)
  (-0.0501799 -0.036641 0)
  (-0.0476872 -0.00784118 0)
  (-0.0455528 0.0020633 0)
  (-0.0429193 0.00574661 0)
  (-0.0391883 0.00795829 0)
  (-0.0341199 0.0101756 0)
  (-0.0276349 0.0127398 0)
  (-0.0195634 0.0157275 0)
  (-0.00962658 0.0191779 0)
  (0.00311138 0.0228639 0)
  (0.0185017 0.0255988 0)
  (0.0357703 0.0243083 0)
  (0.0536536 0.0170038 0)
  (0.0634748 0.00131005 0)
  (0.0633874 -0.0121128 0)
  (0.0558158 -0.0197754 0)
  (0.0438908 -0.0212921 0)
  (0.0306437 -0.0176949 0)
  (0.0180994 -0.0109055 0)
  (0.00737928 -0.00252296 0)
  (-0.000977133 0.00586954 0)
  (-0.00527333 0.0113032 0)
  (-0.00836024 0.0144591 0)
  (-0.0111266 0.0166615 0)
  (-0.0137317 0.0185399 0)
  (-0.0160206 0.020287 0)
  (-0.0175617 0.021879 0)
  (-0.0177341 0.0230633 0)
  (-0.0165957 0.0231617 0)
  (-0.0127111 0.0221266 0)
  (-8.67398e-05 0.0223531 0)
  (-0.0148977 0.0184668 0)
  (0.0186358 0.0598304 0)
  (0.0519214 0.0895072 0)
  (-0.189604 0.104255 0)
  (0.456832 -0.0409989 0)
  (-0.470359 -0.0865491 0)
  (0.0238816 -0.0982289 0)
  (-0.106947 -0.222064 0)
  (-0.0668253 -0.131153 0)
  (-0.0591274 -0.0437556 0)
  (-0.05547 -0.0105333 0)
  (-0.054233 -4.33167e-06 0)
  (-0.0528006 0.00291938 0)
  (-0.0502134 0.00391484 0)
  (-0.046367 0.00476572 0)
  (-0.0412837 0.00586857 0)
  (-0.0349496 0.00723634 0)
  (-0.0273104 0.00876385 0)
  (-0.0181651 0.0102874 0)
  (-0.00754418 0.0113887 0)
  (0.00420024 0.0105893 0)
  (0.0140532 0.00691112 0)
  (0.0177034 -0.000176272 0)
  (0.0154911 -0.00658628 0)
  (0.00801859 -0.00987854 0)
  (-0.00285917 -0.00915741 0)
  (-0.0140443 -0.00525969 0)
  (-0.0242419 0.000212998 0)
  (-0.0317247 0.00571831 0)
  (-0.0357924 0.0103702 0)
  (-0.0378882 0.0138255 0)
  (-0.0391241 0.0164134 0)
  (-0.0399202 0.018429 0)
  (-0.0402708 0.0199608 0)
  (-0.039909 0.0209353 0)
  (-0.0384021 0.0211639 0)
  (-0.0353591 0.0203726 0)
  (-0.0308165 0.0183377 0)
  (-0.0245714 0.0158328 0)
  (-0.0159685 0.0156715 0)
  (-0.0161876 0.017987 0)
  (0.00626063 0.0500593 0)
  (0.0639466 0.0943062 0)
  (-0.171756 0.0967493 0)
  (0.783692 0.021802 0)
  (-0.56345 0.252615 0)
  (0.0423966 -0.040973 0)
  (-0.0865404 -0.247212 0)
  (-0.0479309 -0.141612 0)
  (-0.0530411 -0.0362401 0)
  (-0.0583118 -0.00450925 0)
  (-0.0621404 0.00368389 0)
  (-0.0629442 0.00472417 0)
  (-0.0619793 0.00434947 0)
  (-0.0599171 0.00407079 0)
  (-0.0570149 0.00415001 0)
  (-0.0533998 0.00455065 0)
  (-0.0491776 0.00516304 0)
  (-0.0444227 0.00589205 0)
  (-0.039314 0.00656792 0)
  (-0.0343796 0.00678198 0)
  (-0.0309747 0.0060332 0)
  (-0.0309933 0.00395562 0)
  (-0.0342376 0.0019851 0)
  (-0.0403615 0.00165282 0)
  (-0.0478128 0.00316606 0)
  (-0.054677 0.0057536 0)
  (-0.0595237 0.00860916 0)
  (-0.0624404 0.011464 0)
  (-0.0636169 0.01417 0)
  (-0.0635838 0.0165703 0)
  (-0.0627562 0.0185952 0)
  (-0.0612975 0.0201423 0)
  (-0.0591807 0.0210604 0)
  (-0.0562686 0.0211679 0)
  (-0.0523883 0.0202869 0)
  (-0.0474421 0.0183237 0)
  (-0.0415024 0.0154664 0)
  (-0.034579 0.0126102 0)
  (-0.0266087 0.0113248 0)
  (-0.019146 0.0128443 0)
  (-4.5093e-05 0.0297879 0)
  (0.056678 0.0712473 0)
  (-0.139377 0.0605709 0)
  (0.766342 0.0568539 0)
  (-0.0114292 -0.177117 0)
  (-0.00141957 -0.113904 0)
  (-0.047667 -0.00512433 0)
  (-0.0696178 0.0133608 0)
  (-0.0752433 0.0146442 0)
  (-0.0761822 0.0129126 0)
  (-0.076115 0.0113255 0)
  (-0.0757358 0.0103669 0)
  (-0.075172 0.00992713 0)
  (-0.0744309 0.00999763 0)
  (-0.0735621 0.0103979 0)
  (-0.07263 0.0110489 0)
  (-0.0717096 0.0119514 0)
  (-0.0709957 0.0129642 0)
  (-0.0709366 0.0138107 0)
  (-0.0721507 0.0142646 0)
  (-0.0746163 0.0147463 0)
  (-0.0777116 0.0157627 0)
  (-0.0805578 0.0172558 0)
  (-0.0825333 0.0188885 0)
  (-0.0833755 0.0204591 0)
  (-0.0831133 0.0219169 0)
  (-0.0818335 0.0231975 0)
  (-0.079695 0.0241989 0)
  (-0.0768465 0.0247937 0)
  (-0.0734019 0.0248434 0)
  (-0.0694594 0.024213 0)
  (-0.0651274 0.0227852 0)
  (-0.0605492 0.0204862 0)
  (-0.0559324 0.017338 0)
  (-0.0515568 0.0135367 0)
  (-0.0476876 0.00947613 0)
  (-0.0444121 0.00553582 0)
  (-0.0399696 0.00618902 0)
  (-0.0283327 0.0176969 0)
  (-0.0123577 0.0447843 0)
  (-0.17754 0.0340906 0)
  (0.467493 0.0821684 0)
  (-0.22418 -0.157191 0)
  (-0.0851488 -0.106992 0)
  (-0.099532 -0.100346 0)
  (-0.0962262 -0.0996117 0)
  (-0.0921357 -0.0999175 0)
  (-0.0900679 -0.101559 0)
  (-0.0896623 -0.102972 0)
  (-0.0901841 -0.103752 0)
  (-0.0911867 -0.1039 0)
  (-0.0923914 -0.103549 0)
  (-0.0935693 -0.102646 0)
  (-0.094568 -0.101212 0)
  (-0.0952718 -0.0994593 0)
  (-0.0956373 -0.0977813 0)
  (-0.0957978 -0.096713 0)
  (-0.0960303 -0.0966228 0)
  (-0.0964572 -0.0972616 0)
  (-0.0969186 -0.0980799 0)
  (-0.0971188 -0.0987305 0)
  (-0.0968284 -0.0990628 0)
  (-0.0959212 -0.0989511 0)
  (-0.0943255 -0.0983122 0)
  (-0.0919905 -0.0972054 0)
  (-0.0889095 -0.0958101 0)
  (-0.0851294 -0.0943782 0)
  (-0.0807595 -0.0932026 0)
  (-0.075984 -0.0926068 0)
  (-0.0710742 -0.0929378 0)
  (-0.0664098 -0.0945331 0)
  (-0.0625268 -0.097632 0)
  (-0.0601753 -0.102187 0)
  (-0.0601768 -0.107456 0)
  (-0.0624975 -0.11091 0)
  (-0.0641094 -0.107869 0)
  (-0.0616578 -0.0883835 0)
  (-0.0688485 -0.0543793 0)
  (-0.138947 -0.0449818 0)
  (0.361092 -0.00983864 0)
  (-0.394286 -0.107275 0)
  (-0.0626103 0.0703528 0)
  (-0.0638 0.445863 0)
  (-0.0821373 0.346859 0)
  (-0.0955721 0.344631 0)
  (-0.0994151 0.346432 0)
  (-0.10062 0.345144 0)
  (-0.101933 0.34498 0)
  (-0.103786 0.344773 0)
  (-0.106 0.344294 0)
  (-0.108356 0.343542 0)
  (-0.110664 0.34263 0)
  (-0.112734 0.341496 0)
  (-0.114355 0.340209 0)
  (-0.115319 0.339059 0)
  (-0.115487 0.338464 0)
  (-0.114879 0.338856 0)
  (-0.11369 0.340407 0)
  (-0.11212 0.342835 0)
  (-0.110239 0.34566 0)
  (-0.108031 0.348501 0)
  (-0.105468 0.351096 0)
  (-0.102522 0.35326 0)
  (-0.099147 0.354893 0)
  (-0.0953045 0.356004 0)
  (-0.0910061 0.356663 0)
  (-0.086344 0.356963 0)
  (-0.081505 0.357011 0)
  (-0.0767677 0.356945 0)
  (-0.0724822 0.356973 0)
  (-0.0690421 0.357411 0)
  (-0.0668814 0.358698 0)
  (-0.0664409 0.361287 0)
  (-0.0676857 0.36506 0)
  (-0.0688402 0.367519 0)
  (-0.0673261 0.364022 0)
  (-0.0683439 0.347596 0)
  (-0.096103 0.326357 0)
  (-0.155579 0.327196 0)
  (0.447039 0.364737 0)
)
;

boundaryField
{
  floor
  {
    type noSlip;
  }
  ceiling
  {
    type noSlip;
  }
  sWall
  {
    type noSlip;
  }
  nWall
  {
    type noSlip;
  }
  sideWalls
  {
    type empty;
  }
  glass1
  {
    type noSlip;
  }
  glass2
  {
    type noSlip;
  }
  sun
  {
    type noSlip;
  }
  heatsource1
  {
    type noSlip;
  }
  heatsource2
  {
    type noSlip;
  }
  Table_master
  {
    type noSlip;
  }
  Table_slave
  {
    type noSlip;
  }
  inlet
  {
    type fixedValue;
    value uniform (0.277164 -0.114805 0);
  }
  outlet
  {
    type zeroGradient;
  }
} 	// ************************************************************************* //

