/*--------------------------------*- C++ -*----------------------------------*\
  =========                 |
  \\      /  F ield         | OpenFOAM: The Open Source CFD Toolbox
   \\    /   O peration     | Website:  https://openfoam.org
    \\  /    A nd           | Version:  6
     \\/     M anipulation  |
\*---------------------------------------------------------------------------*/
FoamFile
{
    version     2.0;
    format      ascii;
    class       volScalarField;
    location    "190";
    object      alphat;
}
// * * * * * * * * * * * * * * * * * * * * * * * * * * * * * * * * * * * * * //

dimensions      [1 -1 -1 0 0 0 0];

internalField   nonuniform List<scalar> 
459
(
0.00122961
0.00141389
0.00151047
0.00165396
0.00175769
0.00180172
0.00175223
0.0016782
0.00159579
0.00151253
0.00143155
0.00135615
0.00127872
0.00119002
0.00108563
0.000660455
0.000836735
0.000939822
0.000984316
0.000973766
0.000944994
0.000892914
0.000837967
0.000788053
0.000744015
0.000705223
0.000670878
0.000640039
0.000612175
0.000585947
0.000559655
0.000530773
0.000488892
0.000439811
0.0015454
0.00497768
0.00549331
0.00578613
0.00581027
0.00592664
0.00605785
0.00587191
0.00550725
0.00510278
0.00463883
0.00401285
0.0032992
0.0025362
0.00178054
0.0010895
0.000956262
0.000865207
0.002868
0.00284265
0.00320714
0.00352266
0.00347354
0.00253346
0.00212676
0.00186058
0.00166705
0.00151947
0.00140381
0.00131314
0.00121946
0.00110937
0.00100002
0.00092548
0.000759952
0.000487312
0.0018225
0.00711483
0.0071097
0.00666016
0.00589963
0.00591485
0.00640115
0.0064961
0.00627868
0.00598183
0.0056482
0.00513726
0.00442376
0.00355115
0.00263224
0.00178949
0.000982931
0.000919493
0.00290541
0.00300322
0.00366318
0.00426671
0.00412362
0.00116241
0.00102685
0.000913645
0.000820531
0.000743856
0.000680317
0.000627458
0.000585831
0.000557017
0.000633166
0.00078368
0.000837329
0.000524091
0.00209067
0.00875366
0.0081924
0.00688826
0.00542737
0.00550528
0.00625018
0.00653427
0.00636303
0.00609226
0.00585295
0.00550439
0.00494255
0.00417617
0.00329618
0.00240637
0.00148539
0.000986516
0.00142013
0.00219574
0.00340377
0.00458891
0.00537254
0.00510464
0.0012719
0.00116002
0.00107108
0.000995404
0.000925606
0.00085756
0.000788629
0.000716625
0.00063674
0.00060219
0.000714163
0.00097803
0.000582031
0.00234451
0.0101883
0.00924114
0.0068614
0.00501799
0.00531455
0.00628156
0.00670423
0.00650264
0.00618288
0.005987
0.0057409
0.00530737
0.00469751
0.00398374
0.0032622
0.00262434
0.00260757
0.00333067
0.00449925
0.00570189
0.00662391
0.00712348
0.00706682
0.0059175
0.00520714
0.00460556
0.00401527
0.00342995
0.0028477
0.00226651
0.00169616
0.00114787
0.000793808
0.000758351
0.00105267
0.000836808
0.000655446
0.000628711
0.000581789
0.00256232
0.0111653
0.0100466
0.00631329
0.00472551
0.00528531
0.00647363
0.00701337
0.00677406
0.00649354
0.00644779
0.00624189
0.00589965
0.0054773
0.00503182
0.00468601
0.00459269
0.00524316
0.00636835
0.00740875
0.00816543
0.00855607
0.00858757
0.00828236
0.00761432
0.00681402
0.0059284
0.00502948
0.00414287
0.00328068
0.00245242
0.00173112
0.00120004
0.000957863
0.000953725
0.00116097
0.00114643
0.00104709
0.00109554
0.000648395
0.00265477
0.0108357
0.00869987
0.00535923
0.00441351
0.00535345
0.00677743
0.00739237
0.00715002
0.00708507
0.00707042
0.00691618
0.0067448
0.00659149
0.00650253
0.00661516
0.00706264
0.00797813
0.00887981
0.0094397
0.0096487
0.00951944
0.00911274
0.00847938
0.00762423
0.0066659
0.00567322
0.00468706
0.00374898
0.00290883
0.00222188
0.00174114
0.00146713
0.00137802
0.00140289
0.0014348
0.00148704
0.00148456
0.00161703
0.000738574
0.00260345
0.007748
0.00561577
0.00394532
0.00403953
0.0055489
0.00720354
0.00781571
0.00761978
0.00750389
0.00736255
0.00730219
0.00735639
0.00750542
0.00776486
0.00818836
0.00881069
0.00949811
0.00994779
0.0100167
0.00973192
0.00913438
0.00832091
0.00740167
0.00646345
0.00553912
0.00464085
0.00379829
0.00305896
0.00246714
0.00204146
0.00176446
0.00158703
0.00147225
0.00140947
0.00137998
0.0013931
0.00136408
0.0012919
0.000787714
0.0024827
0.00264906
0.00238212
0.00250402
0.00389327
0.00611143
0.00783429
0.00843914
0.00801848
0.00758927
0.00739564
0.00743972
0.00762451
0.007902
0.00825836
0.00867553
0.00908996
0.00934291
0.00928401
0.00887491
0.00817277
0.00730223
0.00639358
0.00554591
0.00480972
0.004184
0.00365467
0.0032225
0.00289117
0.00264697
0.00245328
0.00226354
0.00204631
0.0018088
0.00159123
0.00143243
0.00133368
0.00127314
0.00126201
0.00134511
0.000496899
0.0026885
0.00557722
0.00780478
0.00867205
0.00834609
0.00792941
0.00772928
0.00773903
0.00784546
0.00798764
0.00814156
0.00828817
0.00839272
0.00839684
0.00823115
0.00787584
0.00737799
0.00681952
0.00627865
0.00580518
0.00541896
0.00511886
0.00489512
0.00473882
0.00464092
0.00458396
0.00453512
0.00444617
0.0042629
0.00394574
0.00349989
0.00299678
0.00254266
0.00220255
0.00204307
0.00215382
0.00154344
0.00281965
0.00919948
0.00992839
0.00932542
0.00849361
0.00793806
0.007763
0.00780808
0.00791627
0.00801135
0.00807357
0.00810392
0.00810492
0.00807294
0.00799763
0.0078691
0.00768963
0.00747679
0.00725456
0.00704393
0.00685778
0.00670339
0.00658594
0.00651021
0.00647942
0.00649185
0.00653607
0.0065869
0.00660308
0.00652824
0.00629879
0.00586598
0.00523524
0.00449907
0.00381481
0.00354562
0.00400267
0.00187032
0.00185951
0.0020027
0.00218494
0.00228925
0.00221915
0.0021133
0.00201867
0.00196492
0.00194263
0.00193507
0.00193349
0.00193483
0.0019381
0.00194253
0.00194697
0.0019496
0.0019484
0.001942
0.00193074
0.00191655
0.00190179
0.00188841
0.00187768
0.00187034
0.0018668
0.00186716
0.00187114
0.00187784
0.00188544
0.00189107
0.00189085
0.00188026
0.00185519
0.00181312
0.00175385
0.00167876
0.00159445
0.00155331
0.00160654
0.00154139
)
;

boundaryField
{
    floor
    {
        type            compressible::alphatWallFunction;
        Prt             0.85;
        value           nonuniform List<scalar> 
29
(
0.00015457
9.36605e-05
0.00011937
0.000134095
0.000140389
0.0001389
0.000134828
0.000127418
0.000119546
0.000112341
0.000105938
0.000100261
9.52022e-05
9.06332e-05
8.64819e-05
8.25529e-05
7.85923e-05
7.42148e-05
6.78128e-05
6.02216e-05
6.02208e-05
6.75744e-05
7.32056e-05
8.19772e-05
0.000154568
9.36594e-05
0.00012346
0.000131205
0.000140671
)
;
    }
    ceiling
    {
        type            compressible::alphatWallFunction;
        Prt             0.85;
        value           nonuniform List<scalar> 
43
(
0.000259103
0.00027783
0.000301458
0.000314893
0.000305884
0.000292218
0.00027994
0.000272941
0.000270035
0.000269048
0.000268843
0.000269021
0.000269448
0.000270029
0.000270608
0.000270953
0.000270797
0.00026996
0.000268489
0.000266631
0.000264698
0.000262943
0.000261535
0.000260571
0.000260105
0.000260151
0.000260673
0.000261552
0.000262549
0.000263289
0.000263261
0.000261875
0.000258586
0.000253054
0.000245233
0.000235285
0.000224053
0.000218546
0.000225663
0.000216947
0.000339551
0.000360641
0.000382178
)
;
    }
    sWall
    {
        type            compressible::alphatWallFunction;
        Prt             0.85;
        value           uniform 0.000258688;
    }
    nWall
    {
        type            compressible::alphatWallFunction;
        Prt             0.85;
        value           nonuniform List<scalar> 6(8.16734e-05 9.16126e-05 0.000104873 0.000216903 0.000260247 0.000216643);
    }
    sideWalls
    {
        type            empty;
    }
    glass1
    {
        type            compressible::alphatWallFunction;
        Prt             0.85;
        value           nonuniform List<scalar> 9(0.000172986 0.000215647 0.000252303 0.000287216 0.000319831 0.000347525 0.00035922 0.000352777 0.000337536);
    }
    glass2
    {
        type            compressible::alphatWallFunction;
        Prt             0.85;
        value           nonuniform List<scalar> 2(0.000111821 0.000189921);
    }
    sun
    {
        type            compressible::alphatWallFunction;
        Prt             0.85;
        value           nonuniform List<scalar> 
14
(
0.000174503
0.000199643
0.000212672
0.000231861
0.000245613
0.000251418
0.000244884
0.000235075
0.000224102
0.00021295
0.000202038
0.000191816
0.00018125
0.000169056
)
;
    }
    heatsource1
    {
        type            compressible::alphatWallFunction;
        Prt             0.85;
        value           nonuniform List<scalar> 3(9.27494e-05 8.87781e-05 8.17572e-05);
    }
    heatsource2
    {
        type            compressible::alphatWallFunction;
        Prt             0.85;
        value           nonuniform List<scalar> 4(0.000154963 0.000136244 0.000136243 0.000140011);
    }
    Table_master
    {
        type            compressible::alphatWallFunction;
        Prt             0.85;
        value           nonuniform List<scalar> 9(0.00016509 0.000146194 0.000130192 0.000116855 0.000105736 9.64175e-05 8.85846e-05 8.23592e-05 7.80184e-05);
    }
    Table_slave
    {
        type            compressible::alphatWallFunction;
        Prt             0.85;
        value           nonuniform List<scalar> 9(0.000180169 0.000164762 0.000152391 0.000141772 0.000131894 0.000122179 0.000112243 0.000101753 8.99628e-05);
    }
    inlet
    {
        type            fixedValue;
        value           uniform 1.94e-05;
    }
    outlet
    {
        type            zeroGradient;
    }
}


// ************************************************************************* //
