/*--------------------------------*- C++ -*----------------------------------*\
  =========                 |
  \\      /  F ield         | OpenFOAM: The Open Source CFD Toolbox
   \\    /   O peration     | Website:  https://openfoam.org
    \\  /    A nd           | Version:  6
     \\/     M anipulation  |
\*---------------------------------------------------------------------------*/
FoamFile
{
    version     2.0;
    format      ascii;
    class       volScalarField;
    location    "200";
    object      nut;
}
// * * * * * * * * * * * * * * * * * * * * * * * * * * * * * * * * * * * * * //

dimensions      [0 2 -1 0 0 0 0];

internalField   nonuniform List<scalar> 
459
(
0.000765457
0.000804295
0.00079913
0.000824441
0.000845506
0.000862943
0.000877673
0.000890581
0.000902563
0.000913484
0.000920038
0.000920969
0.000916191
0.000908163
0.00089925
0.000564799
0.00052718
0.000496715
0.000473254
0.00045372
0.000435846
0.000418331
0.000402132
0.000387182
0.000373234
0.000360118
0.000347682
0.000335765
0.000324165
0.000312575
0.00030048
0.000286878
0.000278046
0.000257439
0.00112794
0.00188981
0.00163571
0.00187426
0.00201736
0.00216822
0.00231702
0.00245016
0.00254765
0.00259924
0.0026135
0.00256113
0.00240074
0.00207615
0.00152622
0.000913051
0.000826751
0.000687323
0.000895252
0.00101501
0.00109994
0.00114891
0.00114979
0.00103183
0.000946961
0.00087485
0.000812006
0.00075567
0.000703868
0.00065462
0.00060556
0.000556
0.000515096
0.000476019
0.000570398
0.000346594
0.00145649
0.0027194
0.00181387
0.00255688
0.00274381
0.00287423
0.00296975
0.00304016
0.00309266
0.00312826
0.00315104
0.00313686
0.00305695
0.00288376
0.00257823
0.0020305
0.000980546
0.00077134
0.00129145
0.00153489
0.00169416
0.00178194
0.00166369
0.000518297
0.000470403
0.000432171
0.000401419
0.000376379
0.000355747
0.000338634
0.000324547
0.000313492
0.000344625
0.000389529
0.000643969
0.000409914
0.00179759
0.00398317
0.00172703
0.00280716
0.0030615
0.00313329
0.00315084
0.00314998
0.00315561
0.00317473
0.00320308
0.00321583
0.00318632
0.00309965
0.00295418
0.00273589
0.00227683
0.00090564
0.00157509
0.00190185
0.00207166
0.0021933
0.00226396
0.00205134
0.000573953
0.000555301
0.0005493
0.000546954
0.000542128
0.000530635
0.000515651
0.00049801
0.000474459
0.00043746
0.000421506
0.000778752
0.000461025
0.002153
0.00572694
0.00200788
0.00265939
0.00315803
0.00321138
0.00317651
0.00312494
0.00310287
0.00312301
0.00317607
0.00322388
0.00322497
0.00314905
0.00298745
0.00280572
0.00278514
0.00279168
0.00252605
0.00242341
0.00239451
0.00243073
0.00248945
0.00250823
0.00233356
0.00232741
0.00234969
0.00235639
0.00232746
0.00224951
0.00206693
0.00179567
0.00146725
0.00110584
0.000793192
0.000776548
0.000582774
0.000625804
0.000747155
0.000830147
0.00252453
0.00765686
0.00334789
0.00230536
0.00295986
0.00316116
0.00316691
0.00310044
0.00304103
0.00305058
0.00314729
0.00323687
0.00327164
0.00320767
0.00300472
0.00271293
0.00261174
0.00274378
0.00265393
0.00253403
0.00245641
0.00244602
0.00250201
0.00259134
0.00267493
0.00275886
0.00281998
0.00284711
0.00283569
0.00278461
0.00267061
0.00244823
0.00211927
0.00169557
0.00127157
0.000890895
0.000740665
0.000696984
0.00105816
0.000863301
0.00290668
0.0092593
0.00613447
0.00314117
0.00242971
0.00251033
0.00277436
0.00297898
0.00299188
0.00304318
0.00316623
0.00326571
0.00331109
0.0032542
0.00302785
0.00265045
0.00246261
0.00265531
0.00268086
0.00255087
0.00242802
0.00239897
0.00245796
0.00255809
0.00266703
0.00276452
0.00283325
0.00287091
0.00288097
0.00287001
0.00284266
0.00270971
0.00243258
0.00204346
0.0016506
0.00125127
0.00103019
0.00100457
0.00109702
0.000954695
0.0030115
0.00928501
0.00756593
0.00587501
0.00434167
0.003376
0.00301253
0.00305031
0.00316196
0.0032143
0.00327066
0.00332635
0.00334818
0.0032723
0.00300746
0.00255229
0.00231479
0.00261583
0.00271193
0.00252663
0.00237416
0.00234099
0.0023848
0.00245756
0.00253435
0.00260151
0.002652
0.00268802
0.00271846
0.00275668
0.00281701
0.00287634
0.00270621
0.00238882
0.00211372
0.00199135
0.00215255
0.00274831
0.00366948
0.00153953
0.00296358
0.00361558
0.0040725
0.0042306
0.00411804
0.00382323
0.00354847
0.00339636
0.00331883
0.00330832
0.00333833
0.00337192
0.00336235
0.0032379
0.0028944
0.0023393
0.0020964
0.00259503
0.00273765
0.00246942
0.00229457
0.00224223
0.00225043
0.00227857
0.00230811
0.00232915
0.00233637
0.00232805
0.00230435
0.00226587
0.0022134
0.00214919
0.00208828
0.00205061
0.00206839
0.00213281
0.00217451
0.00212075
0.00198834
0.00142734
0.00213278
0.00361171
0.00395692
0.00395361
0.00385631
0.00376416
0.00369821
0.00363163
0.00355883
0.00346064
0.00330872
0.00304589
0.00257195
0.00193127
0.00175838
0.00258582
0.00269173
0.00237501
0.00218179
0.00210125
0.00206961
0.00205807
0.00205497
0.00205356
0.00204968
0.00204178
0.00203119
0.00202232
0.00202248
0.0020405
0.00206971
0.00210954
0.0021567
0.00218487
0.00214801
0.00202359
0.00181712
0.00116361
0.00226465
0.00415343
0.00440091
0.00429408
0.00415263
0.00399421
0.00382193
0.00363295
0.00336098
0.003048
0.00270982
0.00233146
0.00185278
0.00131442
0.00126526
0.00207979
0.00207464
0.00184556
0.00170323
0.00163153
0.00159616
0.00158657
0.00159977
0.00163369
0.0016858
0.00175272
0.00182955
0.00190907
0.00198348
0.00206891
0.00216274
0.00226077
0.0023519
0.00242402
0.00243305
0.00248065
0.00231046
0.00117765
0.00197653
0.00208468
0.00217546
0.00231863
0.00219668
0.00203168
0.00187868
0.00173649
0.00159718
0.0014618
0.00134922
0.00124573
0.00114438
0.0010402
0.000924261
0.000682263
0.000569366
0.000578613
0.000577374
0.000575729
0.000581854
0.000594006
0.00061057
0.000630823
0.000654351
0.000680893
0.000710351
0.000742851
0.000778883
0.000819532
0.000866523
0.0009184
0.000975724
0.00103906
0.00110892
0.00119958
0.00122894
0.0012021
0.00112479
0.0010411
)
;

boundaryField
{
    floor
    {
        type            nutkWallFunction;
        Cmu             0.09;
        kappa           0.41;
        E               9.8;
        value           nonuniform List<scalar> 
29
(
0.000108795
6.79255e-05
6.31707e-05
5.9289e-05
5.62797e-05
5.37601e-05
5.14428e-05
4.91601e-05
4.70381e-05
4.50698e-05
4.32246e-05
4.14814e-05
3.98207e-05
3.82221e-05
3.6659e-05
3.50897e-05
3.3444e-05
3.1583e-05
3.03687e-05
2.75149e-05
2.75148e-05
3.96774e-05
4.80624e-05
5.47098e-05
0.000108795
6.79254e-05
8.31698e-05
9.3428e-05
0.000109559
)
;
    }
    ceiling
    {
        type            nutkWallFunction;
        Cmu             0.09;
        kappa           0.41;
        E               9.8;
        value           nonuniform List<scalar> 
43
(
0.000230727
0.000242477
0.000252293
0.000267773
0.000254691
0.000236842
0.000220139
0.000204482
0.000189003
0.00017382
0.000161074
0.000149253
0.00013757
0.000125437
0.00011177
8.25592e-05
6.85142e-05
6.96763e-05
6.95204e-05
6.93131e-05
7.00811e-05
7.16027e-05
7.36711e-05
7.61912e-05
7.91068e-05
8.23811e-05
8.59972e-05
8.99664e-05
9.43428e-05
9.92517e-05
0.000104891
0.000111076
0.000117863
0.000125309
0.000133463
0.000143958
0.000147337
0.000144248
0.000135306
0.000125548
0.000336298
0.000403778
0.000261814
)
;
    }
    sWall
    {
        type            nutkWallFunction;
        Cmu             0.09;
        kappa           0.41;
        E               9.8;
        value           uniform 0.00023079;
    }
    nWall
    {
        type            nutkWallFunction;
        Cmu             0.09;
        kappa           0.41;
        E               9.8;
        value           nonuniform List<scalar> 6(0.00010053 0.000104508 0.000115385 0.000139814 0.000141437 0.000125555);
    }
    sideWalls
    {
        type            empty;
    }
    glass1
    {
        type            nutkWallFunction;
        Cmu             0.09;
        kappa           0.41;
        E               9.8;
        value           nonuniform List<scalar> 9(9.27029e-05 0.000135795 0.00017346 0.000211564 0.000250433 0.000290334 0.000330734 0.000341724 0.000336723);
    }
    glass2
    {
        type            nutkWallFunction;
        Cmu             0.09;
        kappa           0.41;
        E               9.8;
        value           nonuniform List<scalar> 2(0.000182656 0.00017002);
    }
    sun
    {
        type            nutkWallFunction;
        Cmu             0.09;
        kappa           0.41;
        E               9.8;
        value           nonuniform List<scalar> 
14
(
9.27133e-05
9.74136e-05
9.679e-05
9.9841e-05
0.000102372
0.000104461
0.000106222
0.000107763
0.00010919
0.00011049
0.000111268
0.000111379
0.000110811
0.000109856
)
;
    }
    heatsource1
    {
        type            nutkWallFunction;
        Cmu             0.09;
        kappa           0.41;
        E               9.8;
        value           nonuniform List<scalar> 3(7.55677e-05 9.04899e-05 0.000100528);
    }
    heatsource2
    {
        type            nutkWallFunction;
        Cmu             0.09;
        kappa           0.41;
        E               9.8;
        value           nonuniform List<scalar> 4(0.000110436 0.000100118 0.000100118 0.000118427);
    }
    Table_master
    {
        type            nutkWallFunction;
        Cmu             0.09;
        kappa           0.41;
        E               9.8;
        value           nonuniform List<scalar> 9(6.20526e-05 5.59237e-05 5.09755e-05 4.69556e-05 4.36536e-05 4.09118e-05 3.86222e-05 3.67264e-05 3.5231e-05);
    }
    Table_slave
    {
        type            nutkWallFunction;
        Cmu             0.09;
        kappa           0.41;
        E               9.8;
        value           nonuniform List<scalar> 9(6.90881e-05 6.67403e-05 6.59832e-05 6.56871e-05 6.50773e-05 6.36219e-05 6.17179e-05 5.94678e-05 5.64481e-05);
    }
    inlet
    {
        type            calculated;
        value           uniform 0.000100623;
    }
    outlet
    {
        type            calculated;
        value           nonuniform List<scalar> 2(0.00197653 0.00208468);
    }
}


// ************************************************************************* //
