// -*- C++ -*-
// File generated by PyFoam - sorry for the ugliness

FoamFile
{
 version 2.0;
 format ascii;
 class volScalarField;
 location "300";
 object T;
}

dimensions [ 0 0 0 1 0 0 0 ];

internalField nonuniform List<scalar> 459
(
  303.578
  303.319
  303.306
  303.302
  303.299
  303.294
  303.29
  303.285
  303.277
  303.266
  303.254
  303.242
  303.233
  303.227
  303.227
  303.309
  303.289
  303.281
  303.283
  303.286
  303.289
  303.293
  303.296
  303.299
  303.302
  303.306
  303.309
  303.312
  303.315
  303.318
  303.321
  303.324
  303.328
  303.345
  303.753
  303.362
  303.338
  303.341
  303.344
  303.345
  303.343
  303.338
  303.324
  303.303
  303.277
  303.252
  303.232
  303.219
  303.212
  303.208
  303.206
  303.309
  303.274
  303.268
  303.27
  303.274
  303.277
  303.278
  303.28
  303.28
  303.281
  303.282
  303.283
  303.284
  303.285
  303.287
  303.29
  303.295
  303.302
  303.33
  303.936
  303.412
  303.374
  303.384
  303.398
  303.409
  303.414
  303.411
  303.391
  303.355
  303.311
  303.269
  303.236
  303.216
  303.208
  303.207
  303.207
  303.253
  303.253
  303.26
  303.269
  303.277
  303.283
  303.283
  303.282
  303.282
  303.282
  303.282
  303.282
  303.281
  303.281
  303.281
  303.283
  303.287
  303.293
  303.322
  304.12
  303.475
  303.409
  303.425
  303.452
  303.479
  303.499
  303.5
  303.472
  303.415
  303.345
  303.283
  303.238
  303.211
  303.203
  303.204
  303.21
  303.22
  303.232
  303.249
  303.266
  303.282
  303.295
  303.305
  303.314
  303.321
  303.328
  303.334
  303.339
  303.342
  303.345
  303.347
  303.348
  303.326
  303.308
  303.299
  303.322
  304.298
  303.554
  303.451
  303.46
  303.497
  303.541
  303.581
  303.587
  303.544
  303.462
  303.366
  303.287
  303.232
  303.203
  303.196
  303.202
  303.214
  303.23
  303.249
  303.271
  303.293
  303.312
  303.328
  303.341
  303.352
  303.361
  303.369
  303.375
  303.379
  303.38
  303.379
  303.376
  303.369
  303.352
  303.329
  303.31
  303.319
  303.386
  303.431
  303.437
  304.459
  303.656
  303.523
  303.51
  303.544
  303.597
  303.653
  303.646
  303.578
  303.474
  303.364
  303.272
  303.213
  303.186
  303.185
  303.201
  303.224
  303.25
  303.278
  303.305
  303.33
  303.351
  303.368
  303.38
  303.391
  303.399
  303.406
  303.41
  303.412
  303.411
  303.406
  303.398
  303.388
  303.371
  303.348
  303.325
  303.321
  303.349
  303.365
  303.399
  304.606
  303.819
  303.685
  303.653
  303.666
  303.708
  303.727
  303.674
  303.566
  303.434
  303.311
  303.219
  303.169
  303.158
  303.174
  303.207
  303.246
  303.285
  303.321
  303.351
  303.376
  303.395
  303.409
  303.42
  303.428
  303.434
  303.438
  303.44
  303.44
  303.436
  303.429
  303.418
  303.405
  303.388
  303.367
  303.345
  303.334
  303.341
  303.351
  303.379
  304.82
  304.231
  304.085
  303.994
  303.945
  303.902
  303.797
  303.638
  303.458
  303.297
  303.18
  303.116
  303.103
  303.128
  303.176
  303.235
  303.291
  303.338
  303.376
  303.403
  303.422
  303.436
  303.447
  303.454
  303.459
  303.463
  303.464
  303.464
  303.462
  303.458
  303.45
  303.439
  303.426
  303.411
  303.395
  303.379
  303.373
  303.385
  303.403
  303.526
  305.126
  304.849
  304.591
  304.357
  304.141
  303.889
  303.578
  303.293
  303.087
  302.974
  302.944
  302.976
  303.048
  303.134
  303.22
  303.304
  303.364
  303.403
  303.429
  303.448
  303.461
  303.471
  303.477
  303.482
  303.485
  303.486
  303.486
  303.485
  303.483
  303.48
  303.479
  303.479
  303.481
  303.488
  303.502
  303.524
  303.556
  303.587
  303.609
  303.661
  296.433
  298.435
  299.671
  300.397
  301.033
  301.591
  302.06
  302.434
  302.721
  302.946
  303.136
  303.263
  303.343
  303.398
  303.434
  303.457
  303.473
  303.484
  303.492
  303.498
  303.502
  303.504
  303.506
  303.507
  303.508
  303.509
  303.51
  303.511
  303.513
  303.515
  303.52
  303.528
  303.541
  303.56
  303.582
  303.605
  303.623
  303.642
  297.095
  298.97
  300.355
  301.263
  301.839
  302.273
  302.614
  302.875
  303.068
  303.207
  303.309
  303.381
  303.427
  303.458
  303.479
  303.492
  303.502
  303.508
  303.513
  303.516
  303.519
  303.521
  303.523
  303.525
  303.526
  303.528
  303.529
  303.531
  303.532
  303.535
  303.538
  303.544
  303.553
  303.566
  303.581
  303.598
  303.596
  303.625
  299.708
  299.63
  299.625
  301.43
  302.235
  302.627
  302.861
  303.032
  303.164
  303.264
  303.339
  303.394
  303.434
  303.461
  303.479
  303.491
  303.499
  303.504
  303.508
  303.511
  303.513
  303.516
  303.518
  303.521
  303.523
  303.525
  303.528
  303.53
  303.532
  303.535
  303.537
  303.54
  303.543
  303.547
  303.552
  303.562
  303.571
  303.576
  303.578
  303.616
)
;

boundaryField
{
  floor
  {
    type wallHeatTransfer;
    Tinf uniform 305.2;
    alphaWall uniform 0.24;
    value nonuniform List<scalar> 29
(
  303.417
  303.67
  303.606
  303.576
  303.581
  303.591
  303.605
  303.621
  303.639
  303.657
  303.674
  303.691
  303.707
  303.722
  303.736
  303.751
  303.766
  303.782
  303.796
  303.833
  303.833
  303.748
  303.705
  303.68
  303.417
  303.67
  303.649
  303.466
  303.386
)
;
  }
  ceiling
  {
    type wallHeatTransfer;
    Tinf uniform 303.2;
    alphaWall uniform 0.24;
    value nonuniform List<scalar> 43
(
  299.955
  299.871
  299.859
  301.54
  302.297
  302.665
  302.884
  303.044
  303.167
  303.259
  303.327
  303.376
  303.41
  303.431
  303.444
  303.452
  303.456
  303.459
  303.461
  303.463
  303.464
  303.466
  303.468
  303.471
  303.473
  303.476
  303.479
  303.482
  303.486
  303.489
  303.493
  303.497
  303.502
  303.507
  303.514
  303.524
  303.533
  303.537
  303.537
  303.569
  305.037
  304.783
  297.486
)
;
  }
  sWall
  {
    type wallHeatTransfer;
    Tinf uniform 315.2;
    alphaWall uniform 0.36;
    value uniform 301.302;
  }
  nWall
  {
    type wallHeatTransfer;
    Tinf uniform 307.2;
    alphaWall uniform 0.36;
    value nonuniform List<scalar> 6
(
  304.144
  304.093
  304.018
  304.157
  304.135
  304.198
)
;
  }
  sideWalls
  {
    type empty;
  }
  glass1
  {
    type wallHeatTransfer;
    Tinf uniform 315.2;
    alphaWall uniform 4.3;
    value nonuniform List<scalar> 9
(
  311.545
  310.911
  310.51
  310.205
  309.95
  309.72
  309.549
  309.619
  309.844
)
;
  }
  glass2
  {
    type wallHeatTransfer;
    Tinf uniform 307.2;
    alphaWall uniform 4.3;
    value nonuniform List<scalar> 2
(
  305.813
  305.907
)
;
  }
  sun
  {
    type wallHeatTransfer;
    Tinf uniform 305.2;
    alphaWall uniform 0.24;
    value nonuniform List<scalar> 14
(
  303.75
  303.506
  303.492
  303.482
  303.473
  303.464
  303.456
  303.447
  303.436
  303.425
  303.414
  303.407
  303.404
  303.407
)
;
  }
  heatsource1
  {
    type fixedGradient;
    gradient uniform 0;
  }
  heatsource2
  {
    type fixedGradient;
    gradient uniform 0;
  }
  Table_master
  {
    type zeroGradient;
  }
  Table_slave
  {
    type zeroGradient;
  }
  inlet
  {
    type fixedValue;
    value uniform 293.15;
  }
  outlet
  {
    type zeroGradient;
  }
} 	// ************************************************************************* //

