/*--------------------------------*- C++ -*----------------------------------*\
  =========                 |
  \\      /  F ield         | OpenFOAM: The Open Source CFD Toolbox
   \\    /   O peration     | Website:  https://openfoam.org
    \\  /    A nd           | Version:  6
     \\/     M anipulation  |
\*---------------------------------------------------------------------------*/
FoamFile
{
    version     2.0;
    format      ascii;
    class       volScalarField;
    location    "1200";
    object      epsilon;
}
// * * * * * * * * * * * * * * * * * * * * * * * * * * * * * * * * * * * * * //

dimensions      [0 2 -3 0 0 0 0];

internalField   nonuniform List<scalar> 
459
(
0.000455529
0.000591675
0.000619324
0.000711794
0.000805796
0.000901185
0.00100206
0.00110369
0.00117485
0.00119734
0.0011575
0.00105301
0.000896338
0.000716542
0.000552527
3.46898e-05
6.08501e-05
8.54243e-05
8.47968e-05
7.71078e-05
6.7367e-05
5.57489e-05
4.54631e-05
3.72328e-05
3.07783e-05
2.57012e-05
2.16849e-05
1.84823e-05
1.58775e-05
1.3703e-05
1.18093e-05
1.00691e-05
9.48808e-06
7.52166e-06
0.00117875
0.00170362
0.000559989
0.000539215
0.00056574
0.000609422
0.000673094
0.000754301
0.000827643
0.000868797
0.000859862
0.000796682
0.000688506
0.000559385
0.000466647
0.000572679
0.00011558
4.33738e-05
9.87235e-05
0.000103172
9.37396e-05
8.02411e-05
6.79374e-05
6.18217e-05
5.03931e-05
4.01369e-05
3.19383e-05
2.55738e-05
2.06689e-05
1.69004e-05
1.40008e-05
1.1874e-05
1.05308e-05
9.95511e-06
3.10665e-05
1.99986e-05
0.00216536
0.00419749
0.000714814
0.000526157
0.000552606
0.000623359
0.000726041
0.000850438
0.00095908
0.00101916
0.00101494
0.000948472
0.000833063
0.000692144
0.000569288
0.000499679
0.000585495
0.000322262
0.000226894
0.00016882
0.000129675
0.000102481
8.75651e-05
0.000163109
0.000111685
7.95219e-05
5.87323e-05
4.48073e-05
3.51651e-05
2.83028e-05
2.33298e-05
1.97559e-05
1.52015e-05
1.31991e-05
6.42889e-05
3.37194e-05
0.0035123
0.00866574
0.00115636
0.000550548
0.000558343
0.000662475
0.00082504
0.00101449
0.00115541
0.00121831
0.00120114
0.00111548
0.000976996
0.000807407
0.000656364
0.000547827
0.000515051
0.000965645
0.000536886
0.000317173
0.000210631
0.000151831
0.00011665
0.000102254
0.000240532
0.000183578
0.000150959
0.000130075
0.000114077
9.89373e-05
8.54938e-05
7.23995e-05
5.85554e-05
3.40323e-05
2.30026e-05
0.00012352
4.60853e-05
0.00534966
0.0153111
0.00229335
0.000683563
0.000600408
0.000744057
0.00103881
0.00131193
0.00145677
0.00149169
0.00143811
0.00131453
0.00113621
0.000927902
0.000723459
0.000549746
0.000424913
0.000368835
0.000293839
0.00022834
0.000177775
0.000140545
0.000113854
9.73759e-05
9.71483e-05
9.239e-05
8.73946e-05
8.23108e-05
7.63929e-05
6.89881e-05
6.10767e-05
5.36442e-05
4.69013e-05
3.7224e-05
2.90799e-05
8.04959e-05
5.86069e-05
8.73523e-05
0.00014888
0.000213956
0.0078779
0.0225607
0.00510122
0.00135033
0.000937606
0.0011071
0.00163498
0.00187344
0.00192701
0.00187918
0.00176327
0.00158429
0.00134783
0.0010771
0.0008086
0.000578356
0.000410685
0.00030902
0.000245908
0.000198737
0.000160327
0.000130475
0.000108794
9.52898e-05
9.01297e-05
8.90149e-05
8.9129e-05
8.88531e-05
8.68883e-05
8.16873e-05
7.18427e-05
6.10459e-05
5.13043e-05
4.25054e-05
3.74085e-05
5.59072e-05
6.10557e-05
7.14726e-05
0.000276144
0.000252075
0.0107673
0.0268631
0.0103898
0.00431863
0.00300442
0.00298204
0.00299594
0.00285186
0.00264954
0.00243644
0.00220657
0.00193398
0.00160809
0.00125081
0.000904144
0.000612725
0.000407522
0.000285494
0.000217396
0.000173358
0.00014045
0.000116382
0.000100425
9.25974e-05
9.15473e-05
9.48837e-05
0.000100467
0.000106934
0.000113134
0.000116876
0.000114319
0.000101046
8.82393e-05
7.83071e-05
7.66483e-05
9.22758e-05
0.000127531
0.000212935
0.000453457
0.000440994
0.0113846
0.0290778
0.0162097
0.0110383
0.00831934
0.00645908
0.00510432
0.00419153
0.00358488
0.00314889
0.00276729
0.0023584
0.00189634
0.00141489
0.000966008
0.000602027
0.000366239
0.000237136
0.000173984
0.000138397
0.000114505
9.91025e-05
9.10006e-05
8.94561e-05
9.34702e-05
0.000101937
0.000114198
0.000130303
0.000150553
0.000174875
0.000202095
0.000226483
0.000240996
0.000276595
0.000353685
0.000568246
0.00108638
0.00197746
0.00510937
0.00140912
0.0104848
0.0174429
0.0138552
0.0105075
0.00810359
0.00650696
0.00547961
0.00482026
0.00435094
0.00391944
0.00342018
0.00280497
0.00210779
0.00144069
0.000866565
0.000432937
0.000246988
0.000163927
0.000123399
0.000100631
8.69443e-05
7.96783e-05
7.8028e-05
8.13967e-05
8.93656e-05
0.000101848
0.000119319
0.000142957
0.000174669
0.000217212
0.000274331
0.000350843
0.000454535
0.000600203
0.000807763
0.00107275
0.00135234
0.0015736
0.0017547
0.00109701
0.00392497
0.00599182
0.00693846
0.00698851
0.00670983
0.00622137
0.00551349
0.00461782
0.00358491
0.00245004
0.00138117
0.000759495
0.000408793
0.000223767
0.000137435
9.64066e-05
7.53663e-05
6.39751e-05
5.84872e-05
5.74725e-05
5.99904e-05
6.57603e-05
7.48289e-05
8.7476e-05
0.000104336
0.000126482
0.000155567
0.000194085
0.000245776
0.000316916
0.00041403
0.000543562
0.000706997
0.000884126
0.00102437
0.00107035
0.000957525
0.000599631
0.00309989
0.00672017
0.00732002
0.00588456
0.00510927
0.004299
0.00333457
0.00239923
0.00162179
0.00102288
0.000580154
0.000318789
0.000178511
0.000107189
7.19477e-05
5.41026e-05
4.49772e-05
4.08885e-05
4.02747e-05
4.23905e-05
4.689e-05
5.36732e-05
6.28566e-05
7.48678e-05
9.04033e-05
0.000110515
0.000136784
0.000171597
0.000218556
0.0002822
0.00036816
0.000481053
0.000619113
0.000772728
0.000873492
0.00094221
0.000851829
0.00062708
0.00216412
0.00256264
0.00287981
0.00352703
0.00309469
0.00258849
0.0022937
0.00196551
0.00158175
0.00119264
0.000843274
0.000560485
0.000354101
0.000223384
0.000148259
0.000105368
7.9697e-05
6.37654e-05
5.41039e-05
4.90053e-05
4.74645e-05
4.88393e-05
5.28165e-05
5.94028e-05
6.83894e-05
7.99355e-05
9.45263e-05
0.000112902
0.000136246
0.000166625
0.000206865
0.000258055
0.00032309
0.000405598
0.000510188
0.00065283
0.000683663
0.000617232
0.000506332
0.000395429
)
;

boundaryField
{
    floor
    {
        Cmu             0.09;
        kappa           0.41;
        E               9.8;
        type            epsilonWallFunction;
        value           nonuniform List<scalar> 
29
(
0.000552527
3.46898e-05
6.08501e-05
8.54243e-05
8.47968e-05
7.71078e-05
6.7367e-05
5.57489e-05
4.54631e-05
3.72328e-05
3.07783e-05
2.57012e-05
2.16849e-05
1.84823e-05
1.58775e-05
1.3703e-05
1.18093e-05
1.00691e-05
9.48808e-06
7.52166e-06
7.52166e-06
1.99986e-05
3.37194e-05
4.60853e-05
0.000552527
3.46898e-05
4.33738e-05
0.000322262
0.000965645
)
;
    }
    ceiling
    {
        Cmu             0.09;
        kappa           0.41;
        E               9.8;
        type            epsilonWallFunction;
        value           nonuniform List<scalar> 
43
(
0.00216412
0.00256264
0.00287981
0.00352703
0.00309469
0.00258849
0.0022937
0.00196551
0.00158175
0.00119264
0.000843274
0.000560485
0.000354101
0.000223384
0.000148259
0.000105368
7.9697e-05
6.37654e-05
5.41039e-05
4.90053e-05
4.74645e-05
4.88393e-05
5.28165e-05
5.94028e-05
6.83894e-05
7.99355e-05
9.45263e-05
0.000112902
0.000136246
0.000166625
0.000206865
0.000258055
0.00032309
0.000405598
0.000510188
0.00065283
0.000683663
0.000617232
0.000506332
0.000395429
0.0104848
0.0174429
0.00309989
)
;
    }
    sWall
    {
        Cmu             0.09;
        kappa           0.41;
        E               9.8;
        type            epsilonWallFunction;
        value           uniform 0.00216412;
    }
    nWall
    {
        Cmu             0.09;
        kappa           0.41;
        E               9.8;
        type            epsilonWallFunction;
        value           nonuniform List<scalar> 6(0.000213956 0.000252075 0.000440994 0.000599631 0.00062708 0.000395429);
    }
    sideWalls
    {
        type            empty;
    }
    glass1
    {
        Cmu             0.09;
        kappa           0.41;
        E               9.8;
        type            epsilonWallFunction;
        value           nonuniform List<scalar> 9(0.000455529 0.00117875 0.00216536 0.0035123 0.00534966 0.0078779 0.0107673 0.0113846 0.0104848);
    }
    glass2
    {
        Cmu             0.09;
        kappa           0.41;
        E               9.8;
        type            epsilonWallFunction;
        value           nonuniform List<scalar> 2(0.00140912 0.00109701);
    }
    sun
    {
        Cmu             0.09;
        kappa           0.41;
        E               9.8;
        type            epsilonWallFunction;
        value           nonuniform List<scalar> 
14
(
0.000455529
0.000591675
0.000619324
0.000711794
0.000805796
0.000901185
0.00100206
0.00110369
0.00117485
0.00119734
0.0011575
0.00105301
0.000896338
0.000716542
)
;
    }
    heatsource1
    {
        Cmu             0.09;
        kappa           0.41;
        E               9.8;
        type            epsilonWallFunction;
        value           nonuniform List<scalar> 3(8.73523e-05 0.00014888 0.000213956);
    }
    heatsource2
    {
        Cmu             0.09;
        kappa           0.41;
        E               9.8;
        type            epsilonWallFunction;
        value           nonuniform List<scalar> 4(0.000572679 0.00011558 0.00011558 0.000585495);
    }
    Table_master
    {
        Cmu             0.09;
        kappa           0.41;
        E               9.8;
        type            epsilonWallFunction;
        value           nonuniform List<scalar> 9(0.000163109 0.000111685 7.95219e-05 5.87323e-05 4.48073e-05 3.51651e-05 2.83028e-05 2.33298e-05 1.97559e-05);
    }
    Table_slave
    {
        Cmu             0.09;
        kappa           0.41;
        E               9.8;
        type            epsilonWallFunction;
        value           nonuniform List<scalar> 9(0.000240532 0.000183578 0.000150959 0.000130075 0.000114077 9.89373e-05 8.54938e-05 7.23995e-05 5.85554e-05);
    }
    inlet
    {
        type            turbulentMixingLengthDissipationRateInlet;
        mixingLength    0.01;
        phi             phi;
        k               k;
        value           uniform 0.000101881;
    }
    outlet
    {
        type            zeroGradient;
    }
}


// ************************************************************************* //
