/*--------------------------------*- C++ -*----------------------------------*\
  =========                 |
  \\      /  F ield         | OpenFOAM: The Open Source CFD Toolbox
   \\    /   O peration     | Website:  https://openfoam.org
    \\  /    A nd           | Version:  6
     \\/     M anipulation  |
\*---------------------------------------------------------------------------*/
FoamFile
{
    version     2.0;
    format      ascii;
    class       volScalarField;
    location    "300";
    object      alphat;
}
// * * * * * * * * * * * * * * * * * * * * * * * * * * * * * * * * * * * * * //

dimensions      [1 -1 -1 0 0 0 0];

internalField   nonuniform List<scalar> 
459
(
0.000835523
0.00086629
0.000839478
0.000871079
0.00090034
0.00092635
0.000949776
0.000971501
0.000992548
0.00101419
0.00103244
0.00104615
0.00105469
0.00105849
0.00105594
0.0005796
0.000712343
0.000760234
0.000763929
0.000743089
0.000708353
0.000647201
0.000587623
0.00053496
0.000486049
0.000438623
0.000388298
0.000327344
0.000262411
0.000233355
0.000248983
0.000332098
0.00059365
0.000509876
0.00133303
0.00208533
0.00165089
0.00198774
0.0021337
0.00229084
0.00245067
0.00260051
0.00272225
0.00279236
0.00282495
0.00278843
0.00263861
0.0023115
0.00175713
0.00113173
0.000755328
0.000657987
0.00222707
0.00281083
0.00317923
0.00312661
0.0027684
0.00191909
0.00159009
0.00131566
0.00108024
0.000874626
0.000709429
0.000606843
0.000578191
0.000620046
0.000709268
0.000705627
0.00129471
0.000644433
0.00179022
0.00330165
0.00174257
0.00280015
0.00303421
0.00319016
0.00331878
0.00342244
0.00350187
0.00355203
0.00357124
0.00352496
0.00336766
0.00304165
0.00251158
0.00185242
0.00122798
0.00107087
0.0037175
0.00400113
0.00386684
0.0036181
0.00299777
0.000784476
0.000630589
0.000534121
0.000472498
0.000431327
0.000401939
0.000380405
0.000366227
0.000359287
0.000432263
0.000501114
0.00124345
0.000760341
0.00224999
0.00506839
0.00177828
0.00312759
0.00357138
0.00371643
0.00380981
0.00387812
0.00393221
0.00397429
0.00400907
0.00401971
0.00397271
0.00380561
0.00342588
0.00277111
0.00195915
0.00136697
0.00334927
0.004119
0.00398251
0.00361077
0.00348249
0.00306069
0.000829027
0.00080011
0.000797268
0.000803826
0.000811334
0.00081211
0.000798491
0.000769738
0.000736785
0.000708959
0.00071688
0.00148093
0.000831266
0.00270227
0.00726058
0.0022904
0.00295717
0.00381462
0.00399204
0.00406552
0.00410655
0.00413597
0.00416643
0.00420838
0.00428005
0.00437355
0.00446755
0.0045279
0.00451385
0.0044022
0.00417669
0.0040115
0.00370975
0.00332964
0.00311129
0.00335745
0.00358818
0.00341937
0.0034507
0.00350519
0.00355022
0.00355981
0.003512
0.00338802
0.00311308
0.00264027
0.00210761
0.00160575
0.00135481
0.00134911
0.000881894
0.000960779
0.00109932
0.00314777
0.00947601
0.00384174
0.00259346
0.00362296
0.00401144
0.00415552
0.00420904
0.00420665
0.00418662
0.00418967
0.00426319
0.00438143
0.00452198
0.00464734
0.00469047
0.00456619
0.00422958
0.00374613
0.0032328
0.00283551
0.00270646
0.00324431
0.00367861
0.00388338
0.00401239
0.00410728
0.00416321
0.00417064
0.00412636
0.00403548
0.0038998
0.00359377
0.00311304
0.00252387
0.00175082
0.0015606
0.00134065
0.00177924
0.00117724
0.00358719
0.0112462
0.00694833
0.00351958
0.00279683
0.00318302
0.00371106
0.00408179
0.00426056
0.00416647
0.00411577
0.00416369
0.0042544
0.00437135
0.00448503
0.00453248
0.00442829
0.00412883
0.00367413
0.00315459
0.00266679
0.00241335
0.00317189
0.0037253
0.00395314
0.00406972
0.0041446
0.00418
0.00417536
0.00414349
0.00410458
0.0040749
0.00401535
0.00369714
0.00321044
0.00261849
0.00228742
0.00218222
0.0021863
0.00140802
0.00369857
0.0114363
0.00902694
0.00685568
0.00489976
0.00375849
0.00349123
0.00372563
0.00408277
0.00410563
0.0040565
0.00404532
0.00407649
0.0041349
0.00419764
0.00422789
0.00417131
0.00399099
0.0036965
0.00329606
0.00270329
0.00217872
0.00312617
0.00383036
0.00405559
0.00411482
0.00412246
0.00409667
0.00404977
0.0040131
0.00402461
0.00411596
0.00429439
0.00437161
0.0041315
0.00406817
0.00441446
0.00486235
0.00550484
0.00198993
0.00361553
0.00438171
0.00487438
0.0050353
0.00483667
0.00441073
0.00402733
0.00380312
0.00372453
0.00369983
0.00372029
0.00376514
0.00381567
0.00385621
0.00387497
0.00386211
0.00380772
0.00371553
0.00361639
0.00345257
0.00283066
0.00197633
0.00306276
0.00398557
0.00421816
0.00420553
0.00413434
0.00402063
0.00387468
0.00373018
0.00361844
0.00354748
0.00350271
0.0034722
0.0034418
0.00341161
0.00329103
0.00303584
0.00276637
0.0018308
0.00261245
0.00425593
0.00461622
0.00454017
0.00434537
0.00415881
0.00401954
0.00391783
0.00384364
0.00378482
0.00372575
0.00365571
0.0035718
0.00347942
0.00339241
0.00334164
0.00338699
0.00345357
0.00285626
0.00179669
0.0029219
0.00414969
0.00441149
0.00433771
0.00424299
0.00411304
0.00393517
0.00374415
0.00358489
0.00348988
0.0034589
0.00344863
0.00340996
0.00330252
0.00306677
0.00269598
0.00225758
0.00147238
0.00276217
0.00483862
0.00507961
0.00489242
0.00467932
0.00445508
0.00423664
0.0040314
0.00381915
0.00356936
0.00330939
0.00305857
0.00283277
0.00264753
0.00252187
0.00248588
0.00258932
0.00278378
0.00244096
0.00157614
0.00260278
0.00378092
0.00395572
0.00387961
0.00381633
0.00375103
0.00367236
0.00360005
0.00354527
0.00353062
0.00358122
0.00365671
0.00370562
0.0037007
0.00360064
0.00343974
0.00289915
0.00149508
0.0024107
0.00253296
0.00263808
0.00278317
0.00263
0.00240426
0.0022332
0.00208033
0.00193966
0.00180989
0.00169228
0.00159005
0.00149659
0.00140866
0.001325
0.00124575
0.00117227
0.00110718
0.00105482
0.00101847
0.000985411
0.000953448
0.00101724
0.00106279
0.00107205
0.00107425
0.00108116
0.00109484
0.00111719
0.00115112
0.00120047
0.00126606
0.00134415
0.00143365
0.00152943
0.00164294
0.0016765
0.00163163
0.00151451
0.00139361
)
;

boundaryField
{
    floor
    {
        type            compressible::alphatWallFunction;
        Prt             0.85;
        value           nonuniform List<scalar> 
29
(
0.000150094
8.12531e-05
0.000100947
0.000107943
0.000108479
0.000105443
0.000100362
9.13414e-05
8.2453e-05
7.45035e-05
6.70323e-05
5.96962e-05
5.17973e-05
4.20445e-05
3.13949e-05
2.65355e-05
2.91772e-05
4.28346e-05
8.33523e-05
7.06797e-05
7.06789e-05
9.09237e-05
0.000107948
0.000118209
0.000150092
8.12521e-05
9.29437e-05
0.000152185
0.000192949
)
;
    }
    ceiling
    {
        type            compressible::alphatWallFunction;
        Prt             0.85;
        value           nonuniform List<scalar> 
43
(
0.000329978
0.000345544
0.000358868
0.000377253
0.000357966
0.000329293
0.000307365
0.000287614
0.000269299
0.000252273
0.000236727
0.000223118
0.00021059
0.000198724
0.000187356
0.000176513
0.000166388
0.00015736
0.000150052
0.000144955
0.0001403
0.000135782
0.000144783
0.000151169
0.000152464
0.000152772
0.000153736
0.000155643
0.000158755
0.000163464
0.000170286
0.000179303
0.000189969
0.000202109
0.000215008
0.000230178
0.000234641
0.000228673
0.000213006
0.000196693
0.00048069
0.000573524
0.000374447
)
;
    }
    sWall
    {
        type            compressible::alphatWallFunction;
        Prt             0.85;
        value           uniform 0.000328747;
    }
    nWall
    {
        type            compressible::alphatWallFunction;
        Prt             0.85;
        value           nonuniform List<scalar> 6(0.000155889 0.000166693 0.000198247 0.000206966 0.00021002 0.000196321);
    }
    sideWalls
    {
        type            empty;
    }
    glass1
    {
        type            compressible::alphatWallFunction;
        Prt             0.85;
        value           nonuniform List<scalar> 9(0.000115325 0.00018362 0.000244038 0.000303254 0.00036036 0.000415708 0.000469552 0.000483237 0.000473377);
    }
    glass2
    {
        type            compressible::alphatWallFunction;
        Prt             0.85;
        value           nonuniform List<scalar> 2(0.000273386 0.000252752);
    }
    sun
    {
        type            compressible::alphatWallFunction;
        Prt             0.85;
        value           nonuniform List<scalar> 
14
(
0.000118862
0.000123258
0.000119411
0.000123943
0.000128123
0.000131825
0.000135149
0.000138222
0.000141192
0.000144239
0.000146802
0.000148724
0.000149919
0.000150451
)
;
    }
    heatsource1
    {
        type            compressible::alphatWallFunction;
        Prt             0.85;
        value           nonuniform List<scalar> 3(0.000125668 0.000136885 0.000156333);
    }
    heatsource2
    {
        type            compressible::alphatWallFunction;
        Prt             0.85;
        value           nonuniform List<scalar> 4(0.000160839 0.000107409 0.000107408 0.000174138);
    }
    Table_master
    {
        type            compressible::alphatWallFunction;
        Prt             0.85;
        value           nonuniform List<scalar> 9(0.000111644 8.90526e-05 7.45509e-05 6.51182e-05 5.87303e-05 5.41227e-05 5.07197e-05 4.84663e-05 4.73594e-05);
    }
    Table_slave
    {
        type            compressible::alphatWallFunction;
        Prt             0.85;
        value           nonuniform List<scalar> 9(0.000118083 0.00011391 0.000113499 0.000114447 0.000115532 0.000115644 0.000113676 0.000109508 0.000104708);
    }
    inlet
    {
        type            fixedValue;
        value           uniform 1.94e-05;
    }
    outlet
    {
        type            zeroGradient;
    }
}


// ************************************************************************* //
