// -*- C++ -*-
// File generated by PyFoam - sorry for the ugliness

FoamFile
{
 version 2.0;
 format ascii;
 class volVectorField;
 location "340";
 object U;
}

dimensions [ 0 1 -1 0 0 0 0 ];

internalField nonuniform List<vector> 459
(
  (0.0155805 0.0692799 0)
  (-0.135815 0.0230103 0)
  (-0.161343 0.0146937 0)
  (-0.187458 0.0083592 0)
  (-0.204281 0.00155719 0)
  (-0.210302 -0.005752 0)
  (-0.20336 -0.0136504 0)
  (-0.183551 -0.0220509 0)
  (-0.152056 -0.0295152 0)
  (-0.112624 -0.0344817 0)
  (-0.0707412 -0.0357588 0)
  (-0.0323001 -0.0323801 0)
  (0.00195848 -0.0202581 0)
  (0.0157145 -0.00377844 0)
  (0.0509079 0.0161526 0)
  (-0.109463 0.00727354 0)
  (0.0331485 -0.00273772 0)
  (0.0115534 -0.009056 0)
  (0.0251181 -0.0125183 0)
  (0.040693 -0.0117852 0)
  (0.0540477 -0.00914664 0)
  (0.0629758 -0.00533131 0)
  (0.0676131 -0.00310974 0)
  (0.0693657 -0.00229559 0)
  (0.0699148 -0.00199946 0)
  (0.0700814 -0.00179557 0)
  (0.0699512 -0.00156006 0)
  (0.0693567 -0.00118946 0)
  (0.0679272 -0.000449652 0)
  (0.0648193 0.00120003 0)
  (0.0583336 0.00467076 0)
  (0.0475072 0.00989823 0)
  (0.000664523 0.0201 0)
  (0.0921054 -9.6366e-05 0)
  (0.144599 0.141742 0)
  (-0.124687 0.060874 0)
  (-0.131381 0.0462409 0)
  (-0.158288 0.0335595 0)
  (-0.175371 0.0190403 0)
  (-0.182157 0.00233129 0)
  (-0.176354 -0.0166897 0)
  (-0.158409 -0.0360082 0)
  (-0.130148 -0.0519575 0)
  (-0.0956267 -0.0612484 0)
  (-0.0599605 -0.0620979 0)
  (-0.0277209 -0.0541651 0)
  (-0.000490758 -0.0365911 0)
  (0.0180262 -0.0148317 0)
  (0.0362335 0.009363 0)
  (0.0382796 0.0180375 0)
  (0.0277013 0.0266492 0)
  (-0.120799 0.00183409 0)
  (0.0293771 -0.021574 0)
  (0.0292218 -0.0237462 0)
  (0.0406586 -0.0242333 0)
  (0.0526609 -0.0211529 0)
  (0.0622624 -0.015741 0)
  (0.0671933 -0.00662125 0)
  (0.0683276 -0.00111701 0)
  (0.0682391 0.00101534 0)
  (0.0683355 0.00184395 0)
  (0.0686138 0.00236397 0)
  (0.0688162 0.00284804 0)
  (0.0688451 0.00353078 0)
  (0.0686539 0.00491069 0)
  (0.0676535 0.00813807 0)
  (0.0631605 0.016464 0)
  (0.0546181 0.025578 0)
  (0.00842353 0.0372888 0)
  (0.139036 0.0230658 0)
  (0.264611 0.212269 0)
  (-0.133249 0.0953831 0)
  (-0.100343 0.074116 0)
  (-0.126397 0.0524205 0)
  (-0.142446 0.0285446 0)
  (-0.149392 0.00129394 0)
  (-0.143496 -0.0291831 0)
  (-0.125871 -0.0594379 0)
  (-0.099646 -0.0829102 0)
  (-0.0693345 -0.0948577 0)
  (-0.0396725 -0.0936479 0)
  (-0.0135665 -0.0801941 0)
  (0.00839376 -0.0561189 0)
  (0.024202 -0.0292461 0)
  (0.0360711 -0.00217578 0)
  (0.0405415 0.0202343 0)
  (0.0358801 0.0517277 0)
  (-0.0536897 -0.0195183 0)
  (0.0388867 -0.0364208 0)
  (0.0514873 -0.0390246 0)
  (0.0574826 -0.0356348 0)
  (0.0637419 -0.0302092 0)
  (0.0693667 -0.0252566 0)
  (0.0713367 -0.0188254 0)
  (0.0659115 -0.0122333 0)
  (0.0615614 -0.00877776 0)
  (0.0599933 -0.00689594 0)
  (0.0597347 -0.00569436 0)
  (0.0599013 -0.00479435 0)
  (0.0605379 -0.00388132 0)
  (0.0623648 -0.00244508 0)
  (0.0671049 0.00195399 0)
  (0.067756 0.0216908 0)
  (0.0620079 0.0371403 0)
  (0.0142874 0.0539331 0)
  (0.166089 0.0532932 0)
  (0.376063 0.26926 0)
  (-0.155973 0.124953 0)
  (-0.0670042 0.0984531 0)
  (-0.0913917 0.069665 0)
  (-0.104292 0.0387385 0)
  (-0.109684 0.00191478 0)
  (-0.100905 -0.0406109 0)
  (-0.0823268 -0.0816419 0)
  (-0.0586409 -0.111159 0)
  (-0.0338032 -0.124198 0)
  (-0.0116107 -0.120293 0)
  (0.00795637 -0.101452 0)
  (0.0234347 -0.0741029 0)
  (0.0366011 -0.0433794 0)
  (0.0486895 -0.0127725 0)
  (0.0612255 0.0154688 0)
  (0.07728 0.0429168 0)
  (0.104881 -0.0135263 0)
  (0.100753 -0.0244466 0)
  (0.090891 -0.0352692 0)
  (0.0800992 -0.0385834 0)
  (0.0727798 -0.0357794 0)
  (0.0685008 -0.0304775 0)
  (0.0650094 -0.0236577 0)
  (0.0656373 -0.0142337 0)
  (0.0729077 -0.00973106 0)
  (0.0788452 -0.00733774 0)
  (0.0824856 -0.00593858 0)
  (0.0849577 -0.00485277 0)
  (0.0865621 -0.00366785 0)
  (0.0864183 -0.00196662 0)
  (0.0829157 0.000804961 0)
  (0.0736578 0.00526815 0)
  (0.0650938 0.0265404 0)
  (0.0656635 0.0453212 0)
  (0.0253921 0.0664297 0)
  (0.182281 0.0983565 0)
  (0.476656 0.313063 0)
  (-0.187265 0.147716 0)
  (-0.0326561 0.11335 0)
  (-0.0534908 0.0805387 0)
  (-0.0610081 0.0455998 0)
  (-0.0615681 0.00119298 0)
  (-0.0452031 -0.0534473 0)
  (-0.026106 -0.102389 0)
  (-0.00739756 -0.134076 0)
  (0.00944776 -0.145206 0)
  (0.0219851 -0.137214 0)
  (0.032047 -0.115865 0)
  (0.0403453 -0.0864342 0)
  (0.0479019 -0.054413 0)
  (0.0561085 -0.0240353 0)
  (0.066899 0.00119251 0)
  (0.0817487 0.0150855 0)
  (0.0936685 -0.00136557 0)
  (0.0924369 -0.0149018 0)
  (0.0831604 -0.0244054 0)
  (0.0732353 -0.028352 0)
  (0.0648137 -0.0278148 0)
  (0.0582231 -0.0245137 0)
  (0.0534499 -0.0189181 0)
  (0.0521702 -0.0104889 0)
  (0.0543101 -0.00585765 0)
  (0.0568816 -0.00409662 0)
  (0.0591718 -0.00335691 0)
  (0.06147 -0.00253286 0)
  (0.0637367 -0.000859522 0)
  (0.0657246 0.00238656 0)
  (0.0663933 0.00771961 0)
  (0.0653189 0.0158715 0)
  (0.064466 0.0302689 0)
  (0.071717 0.0459604 0)
  (0.059122 0.0612984 0)
  (0.133631 0.0961001 0)
  (0.125248 0.0769917 0)
  (0.110329 0.0563281 0)
  (-0.135696 0.0580961 0)
  (0.554715 0.348787 0)
  (-0.221242 0.161553 0)
  (-0.00413961 0.112295 0)
  (-0.0138244 0.083618 0)
  (-0.0135913 0.0495278 0)
  (0.000740892 -0.00494575 0)
  (0.0239427 -0.0711839 0)
  (0.04006 -0.120211 0)
  (0.0505364 -0.147975 0)
  (0.055939 -0.15487 0)
  (0.0574078 -0.144056 0)
  (0.0565677 -0.120577 0)
  (0.054864 -0.0902312 0)
  (0.0536712 -0.0584992 0)
  (0.0543792 -0.0299581 0)
  (0.0582883 -0.00838252 0)
  (0.065772 0.00246165 0)
  (0.0699437 -0.00229634 0)
  (0.0675178 -0.0109974 0)
  (0.0604117 -0.0173277 0)
  (0.0521417 -0.0203509 0)
  (0.0443111 -0.0205246 0)
  (0.0376394 -0.0185848 0)
  (0.03271 -0.0149414 0)
  (0.0304137 -0.0102344 0)
  (0.0307186 -0.00756618 0)
  (0.0322875 -0.00673206 0)
  (0.0344675 -0.00652636 0)
  (0.0371487 -0.00604908 0)
  (0.0402878 -0.00454857 0)
  (0.0438798 -0.00109167 0)
  (0.0480896 0.00513653 0)
  (0.0518692 0.0141387 0)
  (0.056232 0.0260068 0)
  (0.0650018 0.0380934 0)
  (0.0655363 0.0444509 0)
  (0.0907373 0.0609668 0)
  (0.0889825 0.0497667 0)
  (0.105263 0.0492195 0)
  (-0.138704 0.086259 0)
  (0.603973 0.380061 0)
  (-0.241633 0.148248 0)
  (0.0204421 0.0747524 0)
  (0.034803 0.0659839 0)
  (0.0463505 0.03513 0)
  (0.0777989 -0.028631 0)
  (0.100988 -0.0896423 0)
  (0.11123 -0.131287 0)
  (0.110968 -0.151683 0)
  (0.103024 -0.152781 0)
  (0.090399 -0.138298 0)
  (0.0758509 -0.113148 0)
  (0.0617539 -0.0830275 0)
  (0.0499485 -0.0530063 0)
  (0.0418839 -0.0274285 0)
  (0.0383099 -0.00929216 0)
  (0.0386033 -0.00031539 0)
  (0.0386576 -0.00116982 0)
  (0.0358857 -0.0061436 0)
  (0.0303929 -0.0105638 0)
  (0.0236994 -0.0131032 0)
  (0.0169362 -0.013795 0)
  (0.0109278 -0.0130598 0)
  (0.00642018 -0.0113563 0)
  (0.00412352 -0.00938406 0)
  (0.0039889 -0.00854512 0)
  (0.00517611 -0.0087513 0)
  (0.00710778 -0.00924864 0)
  (0.00959601 -0.0093887 0)
  (0.0126965 -0.00859271 0)
  (0.0166808 -0.00607473 0)
  (0.0224903 -0.00069386 0)
  (0.030131 0.00795537 0)
  (0.0381748 0.0182254 0)
  (0.0479773 0.0281492 0)
  (0.0539018 0.0341692 0)
  (0.0665667 0.0462887 0)
  (0.0716917 0.0528544 0)
  (0.115765 0.0711355 0)
  (-0.11094 0.13977 0)
  (0.695408 0.380926 0)
  (-0.0631288 0.120799 0)
  (0.0841407 0.00319114 0)
  (0.132981 -0.0200593 0)
  (0.153147 -0.0477376 0)
  (0.181963 -0.0815716 0)
  (0.193527 -0.112353 0)
  (0.187746 -0.133001 0)
  (0.168737 -0.140102 0)
  (0.141489 -0.133699 0)
  (0.110932 -0.116153 0)
  (0.0807094 -0.0910162 0)
  (0.0537139 -0.0632819 0)
  (0.0319139 -0.0372839 0)
  (0.0169169 -0.0169133 0)
  (0.00866268 -0.0039319 0)
  (0.00530612 0.00179051 0)
  (0.00382503 0.00120782 0)
  (0.00145905 -0.00201177 0)
  (-0.00290107 -0.00505253 0)
  (-0.00827274 -0.00700308 0)
  (-0.0138211 -0.0079523 0)
  (-0.0187649 -0.00827407 0)
  (-0.0224463 -0.00836427 0)
  (-0.0244587 -0.0086047 0)
  (-0.0249918 -0.00939099 0)
  (-0.0246151 -0.0105751 0)
  (-0.023761 -0.0117484 0)
  (-0.0226528 -0.0125549 0)
  (-0.0213073 -0.0127425 0)
  (-0.0194358 -0.0120359 0)
  (-0.0162423 -0.00992594 0)
  (-0.00960628 -0.00540881 0)
  (0.00212432 0.00179296 0)
  (0.0125479 0.00857993 0)
  (0.0199573 0.0121047 0)
  (0.0298328 0.0180167 0)
  (0.0380762 0.0221305 0)
  (0.114422 0.0755468 0)
  (-0.359832 0.206008 0)
  (0.81878 0.370205 0)
  (0.393311 0.257593 0)
  (0.401086 0.18686 0)
  (0.407681 0.11452 0)
  (0.389391 0.0555599 0)
  (0.350621 -0.00269425 0)
  (0.304719 -0.0510844 0)
  (0.255037 -0.0816397 0)
  (0.202117 -0.0932489 0)
  (0.149128 -0.0894156 0)
  (0.10009 -0.0749789 0)
  (0.0569161 -0.054085 0)
  (0.0218903 -0.032258 0)
  (-0.00431779 -0.0132605 0)
  (-0.0193185 -0.00148682 0)
  (-0.0269425 0.00423918 0)
  (-0.0296558 0.00580567 0)
  (-0.0312453 0.00476515 0)
  (-0.0334708 0.00277166 0)
  (-0.0365188 0.00087976 0)
  (-0.0403598 -0.000585076 0)
  (-0.0444461 -0.00173088 0)
  (-0.0481849 -0.00280159 0)
  (-0.0512015 -0.00395245 0)
  (-0.0533794 -0.00525232 0)
  (-0.0549556 -0.00675204 0)
  (-0.0562741 -0.00834452 0)
  (-0.0576252 -0.00979815 0)
  (-0.0593587 -0.0108939 0)
  (-0.0619617 -0.0114169 0)
  (-0.0660581 -0.0109033 0)
  (-0.0722973 -0.00832846 0)
  (-0.0812881 -0.00184023 0)
  (-0.0920887 0.00910594 0)
  (-0.105797 0.0243774 0)
  (-0.128644 0.0452643 0)
  (-0.159949 0.0732293 0)
  (-0.199873 0.105326 0)
  (-0.264655 0.134711 0)
  (-0.521484 0.150666 0)
  (0.129561 0.0251735 0)
  (0.205804 0.031997 0)
  (0.225156 -0.00366068 0)
  (0.208708 -0.0332424 0)
  (0.183019 -0.0490758 0)
  (0.149777 -0.0549673 0)
  (0.108778 -0.052518 0)
  (0.0654024 -0.0437773 0)
  (0.0248329 -0.0303431 0)
  (-0.0121048 -0.012782 0)
  (-0.0362939 0.000175408 0)
  (-0.0509049 0.00769308 0)
  (-0.0579588 0.0112931 0)
  (-0.0606623 0.0126382 0)
  (-0.0616518 0.0127814 0)
  (-0.0624198 0.0122158 0)
  (-0.0636786 0.0114191 0)
  (-0.0654735 0.0107344 0)
  (-0.0675848 0.0102083 0)
  (-0.0698047 0.00968594 0)
  (-0.0721629 0.00897958 0)
  (-0.0747303 0.0080413 0)
  (-0.0775816 0.00732106 0)
  (-0.0808603 0.00706287 0)
  (-0.0846326 0.00749628 0)
  (-0.0888389 0.00904499 0)
  (-0.0933995 0.0120671 0)
  (-0.0982627 0.016514 0)
  (-0.103547 0.0217754 0)
  (-0.109486 0.0260797 0)
  (-0.115162 0.0306475 0)
  (-0.12016 0.0373771 0)
  (-0.124306 0.0483464 0)
  (-0.127224 0.0649329 0)
  (-0.126394 0.0859192 0)
  (-0.117916 0.0983103 0)
  (-0.105102 0.0615013 0)
  (-0.167706 -0.166186 0)
  (0.0209356 0.132586 0)
  (0.0539567 0.0580356 0)
  (0.049476 -0.0095701 0)
  (0.0442705 -0.0456324 0)
  (0.034402 -0.0556883 0)
  (0.0136393 -0.0568535 0)
  (-0.0132646 -0.0562629 0)
  (-0.0375793 -0.0559802 0)
  (-0.0587466 -0.0546644 0)
  (-0.0730348 -0.0553047 0)
  (-0.0803039 -0.057663 0)
  (-0.0834855 -0.0600161 0)
  (-0.0843886 -0.0625039 0)
  (-0.0840317 -0.0648137 0)
  (-0.0831996 -0.0670163 0)
  (-0.0823888 -0.0694218 0)
  (-0.0818866 -0.072082 0)
  (-0.0817613 -0.0748635 0)
  (-0.0819791 -0.0776639 0)
  (-0.0825206 -0.0804535 0)
  (-0.0834563 -0.0831746 0)
  (-0.0849724 -0.0858618 0)
  (-0.0872499 -0.0888386 0)
  (-0.0903843 -0.0922017 0)
  (-0.0944746 -0.0964183 0)
  (-0.0994944 -0.101069 0)
  (-0.105103 -0.105199 0)
  (-0.11064 -0.107939 0)
  (-0.115301 -0.107572 0)
  (-0.118467 -0.101481 0)
  (-0.119453 -0.0893957 0)
  (-0.116595 -0.0709844 0)
  (-0.107532 -0.046721 0)
  (-0.089769 -0.0183819 0)
  (-0.0625 0.00900446 0)
  (-0.0286085 0.0202965 0)
  (0.082233 -0.0789737 0)
  (-0.122958 -0.137598 0)
  (-0.0299887 -0.248558 0)
  (-0.30218 -0.0474819 0)
  (-0.218176 0.175505 0)
  (-0.166151 0.163924 0)
  (-0.126661 0.173373 0)
  (-0.113003 0.19012 0)
  (-0.112399 0.192601 0)
  (-0.118187 0.193292 0)
  (-0.124344 0.197582 0)
  (-0.127486 0.204331 0)
  (-0.126736 0.211664 0)
  (-0.123514 0.221453 0)
  (-0.118868 0.230652 0)
  (-0.113934 0.237679 0)
  (-0.10935 0.243017 0)
  (-0.105395 0.247074 0)
  (-0.10211 0.250398 0)
  (-0.0995032 0.253477 0)
  (-0.0976047 0.256464 0)
  (-0.0964192 0.25932 0)
  (-0.0959347 0.262002 0)
  (-0.0961434 0.264518 0)
  (-0.0970084 0.26689 0)
  (-0.0984318 0.269292 0)
  (-0.100301 0.272218 0)
  (-0.102453 0.275955 0)
  (-0.104721 0.281452 0)
  (-0.106877 0.288297 0)
  (-0.108618 0.295429 0)
  (-0.109622 0.302143 0)
  (-0.109459 0.306818 0)
  (-0.107289 0.307379 0)
  (-0.101807 0.304155 0)
  (-0.0912605 0.297809 0)
  (-0.0739915 0.290224 0)
  (-0.0501982 0.284705 0)
  (-0.0223157 0.285637 0)
  (0.0169811 0.293942 0)
  (0.123216 0.353328 0)
  (-0.277758 0.358044 0)
)
;

boundaryField
{
  floor
  {
    type noSlip;
  }
  ceiling
  {
    type noSlip;
  }
  sWall
  {
    type noSlip;
  }
  nWall
  {
    type noSlip;
  }
  sideWalls
  {
    type empty;
  }
  glass1
  {
    type noSlip;
  }
  glass2
  {
    type noSlip;
  }
  sun
  {
    type noSlip;
  }
  heatsource1
  {
    type noSlip;
  }
  heatsource2
  {
    type noSlip;
  }
  Table_master
  {
    type noSlip;
  }
  Table_slave
  {
    type noSlip;
  }
  inlet
  {
    type fixedValue;
    value uniform (0.277164 -0.114805 0);
  }
  outlet
  {
    type zeroGradient;
  }
} 	// ************************************************************************* //

