/*--------------------------------*- C++ -*----------------------------------*\
  =========                 |
  \\      /  F ield         | OpenFOAM: The Open Source CFD Toolbox
   \\    /   O peration     | Website:  https://openfoam.org
    \\  /    A nd           | Version:  6
     \\/     M anipulation  |
\*---------------------------------------------------------------------------*/
FoamFile
{
    version     2.0;
    format      ascii;
    class       volScalarField;
    location    "400";
    object      nut;
}
// * * * * * * * * * * * * * * * * * * * * * * * * * * * * * * * * * * * * * //

dimensions      [0 2 -1 0 0 0 0];

internalField   nonuniform List<scalar> 
459
(
0.00136055
0.00151624
0.00157883
0.00167663
0.00178267
0.00188106
0.00194876
0.0019728
0.00191798
0.00180057
0.00167896
0.00154547
0.00140846
0.00127771
0.00113261
0.00063964
0.000752984
0.000884729
0.000979942
0.00100907
0.000993835
0.000936343
0.00087305
0.000815982
0.000766338
0.000723225
0.000685653
0.000652566
0.000623106
0.000596226
0.000570369
0.000543238
0.000511868
0.000464798
0.00175287
0.00476815
0.0048203
0.00557138
0.00620503
0.00668323
0.00706334
0.00737152
0.00754836
0.0073778
0.00695503
0.00636512
0.00545458
0.00420747
0.00276278
0.00126086
0.0010705
0.000616441
0.00153424
0.0026552
0.00352527
0.00406351
0.00400042
0.00273552
0.00225341
0.00194885
0.00173303
0.00157201
0.00144735
0.00134903
0.00126008
0.00115876
0.00105554
0.000958616
0.000900675
0.000501305
0.00207812
0.00659509
0.006081
0.00669798
0.0069923
0.00718358
0.00738979
0.00775453
0.00818667
0.00834081
0.00821266
0.00786573
0.00727094
0.00623457
0.00478244
0.00301325
0.001187
0.000640645
0.0015767
0.00277738
0.00408154
0.00500458
0.00478428
0.00124524
0.00108712
0.000957383
0.000852725
0.000768248
0.000699603
0.000643371
0.00059831
0.000566268
0.000649877
0.000775779
0.000949417
0.000516719
0.00238886
0.00822654
0.0066687
0.00712002
0.00707114
0.00693466
0.00696333
0.0073728
0.00791193
0.00826114
0.00832282
0.00815563
0.00780919
0.00715425
0.00609811
0.00457917
0.00246274
0.00127725
0.00145268
0.00233708
0.0038149
0.00534076
0.00636486
0.0059753
0.00140663
0.0012766
0.00117378
0.00108858
0.00101193
0.000938841
0.00086615
0.000791146
0.000708665
0.000655498
0.000712177
0.000970363
0.000527077
0.00270294
0.0101712
0.00783725
0.00785436
0.00737404
0.0068258
0.0067358
0.00716142
0.00776384
0.0081977
0.00832234
0.00820575
0.00795301
0.00757367
0.00696019
0.00602301
0.00477806
0.00440089
0.0050858
0.00616284
0.00732313
0.00823729
0.00870769
0.00850534
0.00693448
0.00600611
0.00533005
0.00467171
0.00402364
0.00338392
0.00275137
0.00212952
0.00152987
0.00104309
0.000840246
0.000955637
0.000605442
0.000531391
0.000617836
0.000700317
0.00302417
0.0122403
0.0102332
0.00911387
0.00772931
0.00683159
0.00669314
0.00717379
0.0078584
0.00834663
0.00848565
0.00839539
0.00825777
0.00818596
0.00804635
0.00777996
0.00751384
0.00790295
0.00891504
0.00979897
0.0104034
0.0106507
0.010534
0.0100489
0.00914668
0.00819558
0.00720676
0.0062384
0.00529918
0.00439043
0.00351322
0.00267792
0.00191319
0.00131092
0.00101948
0.000996339
0.000747181
0.000654669
0.000930219
0.000729738
0.00326474
0.0133192
0.0123978
0.00972077
0.00767205
0.00667378
0.00668202
0.00735473
0.0081785
0.00871998
0.00888044
0.00895312
0.0092476
0.00957052
0.00976721
0.00993242
0.0102412
0.0109224
0.0116889
0.0120883
0.0121253
0.0118313
0.0112607
0.0104705
0.00948471
0.00841642
0.00734905
0.00632123
0.00534512
0.00442731
0.00357498
0.00279742
0.00208311
0.0015429
0.00127732
0.0011923
0.001018
0.000952811
0.000931044
0.000774442
0.00328752
0.0105763
0.00958497
0.00761619
0.0063384
0.00607853
0.00668365
0.0077568
0.00874597
0.00929352
0.00952497
0.0102039
0.0107995
0.0111162
0.0113503
0.0116407
0.0120453
0.0125328
0.012848
0.0127856
0.0123609
0.0116507
0.010732
0.00968207
0.00857836
0.00749345
0.00645891
0.00549386
0.0046141
0.00383403
0.00316357
0.00260475
0.00214906
0.00180703
0.00159557
0.00158636
0.00160826
0.00172451
0.00239325
0.00117706
0.00318191
0.00366859
0.00383771
0.00384051
0.00436061
0.0055901
0.00719592
0.00868543
0.00954879
0.00993295
0.0105188
0.0111944
0.0115496
0.0117181
0.011898
0.0121327
0.0123664
0.0124792
0.0123254
0.0118404
0.0110634
0.0100778
0.00897878
0.00785316
0.00676422
0.00573911
0.00477517
0.00387316
0.00305525
0.00236921
0.00186894
0.00156977
0.00143415
0.00140678
0.00144303
0.0015115
0.00157559
0.00159691
0.00154662
0.00115854
0.00088934
0.00296041
0.00644241
0.00881846
0.010043
0.0105862
0.010316
0.0102703
0.010539
0.0107209
0.0107699
0.0108284
0.0109239
0.0109934
0.0109388
0.0106594
0.010102
0.00929208
0.00831943
0.00729324
0.00630602
0.00541263
0.0046272
0.0039371
0.0033287
0.00280058
0.00235871
0.00200831
0.0017503
0.00158233
0.00149889
0.00148831
0.00152983
0.00159179
0.00163509
0.00162706
0.00152328
0.00108191
0.00224405
0.0089038
0.0100166
0.00996062
0.00942203
0.00884806
0.00841701
0.00816175
0.00798219
0.00786088
0.00781958
0.00783602
0.00785604
0.00781453
0.00764856
0.0073161
0.00682326
0.00622881
0.00561577
0.00505206
0.00456982
0.00416948
0.00383558
0.00354971
0.00329631
0.00306302
0.00284005
0.00262142
0.00240743
0.00220602
0.00203131
0.00189814
0.00181205
0.00176007
0.0017173
0.00172284
0.00197823
0.00113787
0.00188374
0.00207798
0.00218326
0.00233676
0.00204671
0.00187484
0.00174266
0.00162035
0.0015242
0.00146266
0.00142803
0.0014104
0.00140155
0.00139513
0.00138601
0.00137011
0.00134487
0.00131013
0.00126871
0.00122529
0.00118425
0.00114812
0.0011172
0.00109041
0.00106613
0.00104288
0.00101976
0.000996514
0.000973601
0.000952228
0.000934203
0.000921673
0.000916869
0.000921725
0.000936832
0.000959437
0.00097639
0.000956924
0.000929568
0.000940557
)
;

boundaryField
{
    floor
    {
        type            nutkWallFunction;
        Cmu             0.09;
        kappa           0.41;
        E               9.8;
        value           nonuniform List<scalar> 
29
(
0.000136217
7.7285e-05
9.12042e-05
0.000107074
0.000118371
0.000121803
0.000120012
0.000113219
0.000105684
9.88358e-05
9.28321e-05
8.75809e-05
8.2974e-05
7.88918e-05
7.52361e-05
7.18822e-05
6.86385e-05
6.52155e-05
6.1231e-05
5.51945e-05
5.51945e-05
5.98793e-05
6.18429e-05
6.31583e-05
0.000136217
7.72849e-05
7.44e-05
7.74058e-05
0.000152871
)
;
    }
    ceiling
    {
        type            nutkWallFunction;
        Cmu             0.09;
        kappa           0.41;
        E               9.8;
        value           nonuniform List<scalar> 
43
(
0.000220763
0.000241868
0.000253241
0.000269844
0.000238563
0.000219799
0.000205238
0.000191656
0.000180902
0.000173981
0.000170072
0.000168081
0.00016708
0.000166354
0.00016532
0.000163516
0.000160647
0.000156686
0.000151949
0.000146962
0.000142233
0.000138052
0.000134464
0.000131346
0.000128511
0.000125792
0.00012308
0.000120344
0.000117641
0.000115112
0.000112973
0.000111482
0.000110908
0.000111481
0.000113271
0.000115945
0.00011795
0.000115654
0.000112415
0.000113722
0.000359009
0.000409151
0.000259539
)
;
    }
    sWall
    {
        type            nutkWallFunction;
        Cmu             0.09;
        kappa           0.41;
        E               9.8;
        value           uniform 0.000220817;
    }
    nWall
    {
        type            nutkWallFunction;
        Cmu             0.09;
        kappa           0.41;
        E               9.8;
        value           nonuniform List<scalar> 6(8.47508e-05 8.83537e-05 9.37869e-05 0.000130343 0.000136857 0.000113726);
    }
    sideWalls
    {
        type            empty;
    }
    glass1
    {
        type            nutkWallFunction;
        Cmu             0.09;
        kappa           0.41;
        E               9.8;
        value           nonuniform List<scalar> 9(0.00016257 0.000206606 0.000242287 0.000275816 0.00030924 0.000343006 0.000368051 0.000370423 0.00035948);
    }
    glass2
    {
        type            nutkWallFunction;
        Cmu             0.09;
        kappa           0.41;
        E               9.8;
        value           nonuniform List<scalar> 2(0.000141386 0.000139253);
    }
    sun
    {
        type            nutkWallFunction;
        Cmu             0.09;
        kappa           0.41;
        E               9.8;
        value           nonuniform List<scalar> 
14
(
0.000162376
0.000179953
0.000186964
0.00019786
0.000209597
0.000220418
0.000227828
0.000230454
0.000224456
0.000211567
0.000198118
0.000183232
0.000167807
0.00015293
)
;
    }
    heatsource1
    {
        type            nutkWallFunction;
        Cmu             0.09;
        kappa           0.41;
        E               9.8;
        value           nonuniform List<scalar> 3(6.36994e-05 7.45571e-05 8.47532e-05);
    }
    heatsource2
    {
        type            nutkWallFunction;
        Cmu             0.09;
        kappa           0.41;
        E               9.8;
        value           nonuniform List<scalar> 4(0.000150992 0.000128985 0.000128985 0.0001425);
    }
    Table_master
    {
        type            nutkWallFunction;
        Cmu             0.09;
        kappa           0.41;
        E               9.8;
        value           nonuniform List<scalar> 9(0.000149222 0.000130937 0.000115709 0.00010325 9.30634e-05 8.46878e-05 7.77534e-05 7.21433e-05 6.81226e-05);
    }
    Table_slave
    {
        type            nutkWallFunction;
        Cmu             0.09;
        kappa           0.41;
        E               9.8;
        value           nonuniform List<scalar> 9(0.000167622 0.00015282 0.000140997 0.000131109 0.00012214 0.000113514 0.000104857 9.58356e-05 8.57967e-05);
    }
    inlet
    {
        type            calculated;
        value           uniform 0.000100623;
    }
    outlet
    {
        type            calculated;
        value           nonuniform List<scalar> 2(0.00188374 0.00207798);
    }
}


// ************************************************************************* //
