/*--------------------------------*- C++ -*----------------------------------*\
  =========                 |
  \\      /  F ield         | OpenFOAM: The Open Source CFD Toolbox
   \\    /   O peration     | Website:  https://openfoam.org
    \\  /    A nd           | Version:  6
     \\/     M anipulation  |
\*---------------------------------------------------------------------------*/
FoamFile
{
    version     2.0;
    format      ascii;
    class       volScalarField;
    location    "100";
    object      nut;
}
// * * * * * * * * * * * * * * * * * * * * * * * * * * * * * * * * * * * * * //

dimensions      [0 2 -1 0 0 0 0];

internalField   nonuniform List<scalar> 
459
(
0.000774564
0.000783974
0.000659929
0.000675321
0.000699212
0.000723608
0.000748013
0.000772881
0.000799364
0.000822509
0.000840274
0.000850526
0.000851423
0.000841972
0.000817757
0.00051804
0.000583975
0.000578015
0.000452398
0.000315046
0.000269291
0.000254765
0.000251349
0.000244823
0.000235934
0.000229607
0.000228296
0.000225766
0.00023245
0.000316337
0.000522743
0.000686824
0.000685765
0.000584608
0.0014139
0.00259723
0.00162556
0.00245688
0.00271002
0.00289555
0.0030827
0.00325323
0.00337901
0.00347232
0.0035044
0.00343749
0.00321338
0.00274078
0.00192752
0.000867898
0.000628064
0.00062051
0.0013551
0.00143428
0.00125878
0.00088945
0.000589679
0.000493394
0.00049025
0.00040599
0.000375705
0.000369072
0.000378699
0.000414342
0.000504969
0.000814426
0.00132492
0.00180653
0.00187533
0.000681458
0.00196296
0.00456409
0.00180382
0.00315368
0.00398001
0.00422472
0.00439512
0.00453387
0.00463047
0.00468711
0.00466971
0.0045306
0.0042032
0.00361251
0.00274205
0.0017612
0.000919659
0.000959766
0.00236925
0.00199141
0.00163746
0.00134419
0.00103953
0.000401311
0.00030818
0.000252141
0.000223081
0.000243719
0.0003032
0.000382452
0.000479985
0.000654771
0.00167741
0.00223877
0.00171977
0.000764021
0.00246476
0.00691131
0.00246717
0.00304641
0.00453054
0.00492591
0.00511214
0.00525967
0.00537656
0.00546727
0.00551797
0.00547793
0.00526275
0.00476104
0.00388689
0.00272583
0.0016537
0.0011076
0.00215771
0.00211302
0.00186419
0.00161583
0.00140131
0.00115091
0.000933336
0.000968509
0.00101391
0.00106779
0.00112927
0.00119678
0.00127948
0.00132043
0.00131946
0.00179347
0.00219054
0.00254684
0.00118915
0.00291798
0.00934534
0.00388071
0.00291883
0.00443545
0.00508803
0.00536883
0.00557546
0.00575369
0.00591846
0.00612646
0.00635132
0.00653367
0.00659623
0.00646405
0.00610094
0.00555723
0.00494258
0.00444228
0.00412479
0.00400144
0.00394051
0.00387106
0.00382192
0.00380791
0.00388206
0.00402359
0.00421909
0.00443876
0.00463794
0.004773
0.0047878
0.00466732
0.00449945
0.00410886
0.003602
0.00251054
0.00122389
0.00107109
0.00111509
0.0033363
0.0115049
0.00646199
0.00381454
0.00389435
0.00454882
0.00504909
0.00540164
0.00564703
0.00583568
0.00613696
0.00654074
0.00699421
0.00741636
0.00771308
0.00779959
0.00763637
0.00726157
0.00678106
0.00630739
0.00591556
0.00563145
0.0054246
0.00526041
0.00512225
0.00503191
0.00501679
0.00507623
0.00517206
0.00524334
0.00524561
0.00516863
0.00501259
0.00489019
0.00487117
0.0045668
0.00394358
0.00297936
0.00240328
0.00123395
0.00369361
0.0129309
0.00992368
0.0066517
0.00465953
0.00414297
0.00445404
0.00492195
0.00525198
0.00541455
0.00568477
0.00610133
0.00664966
0.0072607
0.0078187
0.0081876
0.00828874
0.00813029
0.00778801
0.00736704
0.00695861
0.00661295
0.00632984
0.00608439
0.00585631
0.00565837
0.00552724
0.00548209
0.00548458
0.00545362
0.00533504
0.00513684
0.00490696
0.00475111
0.0048369
0.00515318
0.00511755
0.00457127
0.00388877
0.00149256
0.00371877
0.0117261
0.0104742
0.00939783
0.00744024
0.00593396
0.00520594
0.00503455
0.00512691
0.00515635
0.0052321
0.00544382
0.00583212
0.00639772
0.00706888
0.00764472
0.00798605
0.00806755
0.0079259
0.00764185
0.00730372
0.00697713
0.00669137
0.00645003
0.00625096
0.00610378
0.00602262
0.00600212
0.00598713
0.00587797
0.00562395
0.00527219
0.00487088
0.00447398
0.00420968
0.00409825
0.00384619
0.0034112
0.00295712
0.00152118
0.00356326
0.00411369
0.00769077
0.0083904
0.00783783
0.00693466
0.00611747
0.00553021
0.00517189
0.00495528
0.00486853
0.00490231
0.00506496
0.00538304
0.00586152
0.00641881
0.00691205
0.00722607
0.00732337
0.00723884
0.00704246
0.00680279
0.0065678
0.00636665
0.00622488
0.00618404
0.00629668
0.00653499
0.00671172
0.00665782
0.00631784
0.00584157
0.00532232
0.00463052
0.00382547
0.00318848
0.00274641
0.00246162
0.00227279
0.00171908
0.0165278
0.0159228
0.0100608
0.00799274
0.0068336
0.00606953
0.00554655
0.00518219
0.00493386
0.00478608
0.0047375
0.00480241
0.00500099
0.00532721
0.00571831
0.00607266
0.00630823
0.00640062
0.00637479
0.00627618
0.00614895
0.00602883
0.00594721
0.00594554
0.00609848
0.00650307
0.00711584
0.00758651
0.00755885
0.00716926
0.00722845
0.00783012
0.00789186
0.00718686
0.00621964
0.00544212
0.00502689
0.00179241
0.00674963
0.0135787
0.00969937
0.00787875
0.00679776
0.00602492
0.00544026
0.00499261
0.00465279
0.00441099
0.00423799
0.00414687
0.00415531
0.00426925
0.00447184
0.00471858
0.00495246
0.00513021
0.00523695
0.00528263
0.00529045
0.00528639
0.00529297
0.00533172
0.00544353
0.00570513
0.00614353
0.00648455
0.00653503
0.00631994
0.00603033
0.00676943
0.00710256
0.00700633
0.0067215
0.00638393
0.00491495
0.00179385
0.00364278
0.0042881
0.00509724
0.00401982
0.00335745
0.00290777
0.00255422
0.00227475
0.00204953
0.00186535
0.00171343
0.00158739
0.00148531
0.0014029
0.00133742
0.00128769
0.00125299
0.00123212
0.00122263
0.00122107
0.00122391
0.00122843
0.00123318
0.00123792
0.00124319
0.00125019
0.00126145
0.00128162
0.00131397
0.00137037
0.00141584
0.00138679
0.00137212
0.00145286
0.00168008
0.00186741
0.00193283
0.00186666
0.00175769
0.00159574
)
;

boundaryField
{
    floor
    {
        type            nutkWallFunction;
        Cmu             0.09;
        kappa           0.41;
        E               9.8;
        value           nonuniform List<scalar> 
29
(
9.90265e-05
6.20668e-05
7.03899e-05
6.9631e-05
5.36315e-05
3.55026e-05
2.92422e-05
2.72244e-05
2.6748e-05
2.58364e-05
2.45886e-05
2.36946e-05
2.35039e-05
2.31416e-05
2.40909e-05
3.56889e-05
6.26807e-05
8.31453e-05
8.30072e-05
7.04548e-05
7.04547e-05
8.24493e-05
9.25583e-05
0.000142725
9.90265e-05
6.20667e-05
7.49286e-05
0.000115949
0.000133252
)
;
    }
    ceiling
    {
        type            nutkWallFunction;
        Cmu             0.09;
        kappa           0.41;
        E               9.8;
        value           nonuniform List<scalar> 
43
(
0.000406199
0.00047168
0.000552427
0.000444642
0.000376939
0.000330191
0.000292918
0.000263078
0.000238748
0.000218641
0.000201895
0.000187879
0.00017644
0.000167142
0.000159711
0.00015404
0.00015007
0.000147676
0.000146586
0.000146407
0.000146733
0.000147251
0.000147796
0.00014834
0.000148944
0.000149745
0.000151033
0.000153339
0.000157028
0.000163442
0.000168539
0.000165151
0.000163513
0.000172727
0.000198239
0.000218867
0.000225992
0.000218736
0.000206731
0.00018876
0.000398222
0.000454257
0.000713654
)
;
    }
    sWall
    {
        type            nutkWallFunction;
        Cmu             0.09;
        kappa           0.41;
        E               9.8;
        value           uniform 0.00040628;
    }
    nWall
    {
        type            nutkWallFunction;
        Cmu             0.09;
        kappa           0.41;
        E               9.8;
        value           nonuniform List<scalar> 6(0.00013414 0.000147844 0.000177187 0.000210529 0.000210703 0.000188779);
    }
    sideWalls
    {
        type            empty;
    }
    glass1
    {
        type            nutkWallFunction;
        Cmu             0.09;
        kappa           0.41;
        E               9.8;
        value           nonuniform List<scalar> 9(9.3814e-05 0.000168612 0.000229687 0.000283871 0.000331801 0.000375357 0.000412117 0.000414711 0.000398798);
    }
    glass2
    {
        type            nutkWallFunction;
        Cmu             0.09;
        kappa           0.41;
        E               9.8;
        value           nonuniform List<scalar> 2(0.000180532 0.000202565);
    }
    sun
    {
        type            nutkWallFunction;
        Cmu             0.09;
        kappa           0.41;
        E               9.8;
        value           nonuniform List<scalar> 
14
(
9.38201e-05
9.49582e-05
7.98066e-05
8.17036e-05
8.46383e-05
8.76225e-05
9.05957e-05
9.36137e-05
9.6815e-05
9.96024e-05
0.000101735
0.000102964
0.00010307
0.000101937
)
;
    }
    heatsource1
    {
        type            nutkWallFunction;
        Cmu             0.09;
        kappa           0.41;
        E               9.8;
        value           nonuniform List<scalar> 3(0.000146699 0.00012901 0.000134123);
    }
    heatsource2
    {
        type            nutkWallFunction;
        Cmu             0.09;
        kappa           0.41;
        E               9.8;
        value           nonuniform List<scalar> 4(0.000105032 7.58632e-05 7.58632e-05 0.000111189);
    }
    Table_master
    {
        type            nutkWallFunction;
        Cmu             0.09;
        kappa           0.41;
        E               9.8;
        value           nonuniform List<scalar> 9(4.69618e-05 3.45609e-05 2.68768e-05 2.28155e-05 2.57155e-05 3.39036e-05 4.45112e-05 5.7197e-05 7.91788e-05);
    }
    Table_slave
    {
        type            nutkWallFunction;
        Cmu             0.09;
        kappa           0.41;
        E               9.8;
        value           nonuniform List<scalar> 9(0.000112821 0.00011698 0.000122322 0.000128628 0.000135781 0.000143584 0.000153083 0.000157762 0.000157652);
    }
    inlet
    {
        type            calculated;
        value           uniform 3.3541e-05;
    }
    outlet
    {
        type            calculated;
        value           nonuniform List<scalar> 2(0.00364278 0.0042881);
    }
}


// ************************************************************************* //
