/*--------------------------------*- C++ -*----------------------------------*\
  =========                 |
  \\      /  F ield         | OpenFOAM: The Open Source CFD Toolbox
   \\    /   O peration     | Website:  https://openfoam.org
    \\  /    A nd           | Version:  6
     \\/     M anipulation  |
\*---------------------------------------------------------------------------*/
FoamFile
{
    version     2.0;
    format      ascii;
    class       volScalarField;
    location    "1000";
    object      alphat;
}
// * * * * * * * * * * * * * * * * * * * * * * * * * * * * * * * * * * * * * //

dimensions      [1 -1 -1 0 0 0 0];

internalField   nonuniform List<scalar> 
459
(
0.00125557
0.00137331
0.00139913
0.00146652
0.00152894
0.0015874
0.00164477
0.00170055
0.00173971
0.00175586
0.00174314
0.00169799
0.0016202
0.00151618
0.00140182
0.000551918
0.000674795
0.000759361
0.000754831
0.000728838
0.000694615
0.000651652
0.000609091
0.000570467
0.000536178
0.000505819
0.000478849
0.000454862
0.00043333
0.000413482
0.000394319
0.000374372
0.000359938
0.000327587
0.00170927
0.00419293
0.00401801
0.00467792
0.00532635
0.00597353
0.00654233
0.00697108
0.00735773
0.00767082
0.00786656
0.00789563
0.00768276
0.00703844
0.00527201
0.0014307
0.000838481
0.000596179
0.00125386
0.0017327
0.00207517
0.00225655
0.00224787
0.00180593
0.00155766
0.00138005
0.00124366
0.00113515
0.00104681
0.000970743
0.000899764
0.000830814
0.000769403
0.000716
0.000838147
0.000427101
0.00208587
0.00572675
0.00499178
0.00626009
0.00689303
0.00736118
0.00772346
0.00801297
0.00832689
0.008654
0.00895482
0.00917436
0.00925156
0.0090952
0.00846476
0.00651985
0.00142611
0.00118788
0.00170899
0.00219121
0.00261996
0.00290903
0.00282626
0.000933171
0.00082371
0.000735812
0.000664915
0.000607174
0.000559644
0.000520212
0.000487532
0.000461044
0.000497036
0.000575213
0.000943281
0.000493462
0.00244651
0.00731145
0.00500938
0.00662991
0.00718609
0.00737334
0.0074941
0.00764251
0.00789337
0.00822994
0.00860979
0.00896463
0.00923058
0.00933474
0.00919592
0.00852008
0.00621033
0.00170457
0.00211333
0.00272865
0.00332156
0.0037885
0.00407013
0.00380642
0.00105308
0.000958221
0.000890148
0.000838167
0.000794024
0.000753699
0.000715037
0.000674587
0.000627833
0.000589055
0.000602855
0.00107701
0.000544892
0.00281374
0.00934271
0.00550439
0.00638717
0.00712355
0.00717101
0.00710611
0.00718679
0.00740861
0.00775208
0.00817848
0.00859453
0.00891153
0.00905934
0.00901397
0.00872732
0.00800378
0.00662556
0.00615525
0.0060029
0.00595311
0.00592151
0.00585722
0.00562701
0.00474228
0.00431624
0.00406753
0.00387553
0.00367444
0.00338648
0.00300001
0.00253195
0.00201251
0.00148961
0.00109849
0.00110531
0.000732179
0.000670804
0.00081245
0.000912015
0.00320277
0.0115529
0.00756236
0.00636126
0.00691712
0.00716324
0.00699898
0.0070643
0.00723188
0.00753946
0.00797105
0.00842722
0.00877605
0.00891726
0.00882946
0.00856948
0.00822808
0.00787804
0.00768573
0.00754534
0.00738425
0.007197
0.00698284
0.00671056
0.00630693
0.00594459
0.00562321
0.00531624
0.00500531
0.00466865
0.00424775
0.00372671
0.00310564
0.00241986
0.00181465
0.00136055
0.0010238
0.000868062
0.00123671
0.000951877
0.00355588
0.0130932
0.0105722
0.00818591
0.00775248
0.00764394
0.00737874
0.0072162
0.00727346
0.00757596
0.0080552
0.00856393
0.0089308
0.00903826
0.00887724
0.00856432
0.00830098
0.00821956
0.00824152
0.00817598
0.00796889
0.00765903
0.00728279
0.00686059
0.00641314
0.00599641
0.00561473
0.00526024
0.00493347
0.00464189
0.00438538
0.00403739
0.00355256
0.00296267
0.00239651
0.00189111
0.00151898
0.00140366
0.00142998
0.00108521
0.00362164
0.0116248
0.0103405
0.00956005
0.00884904
0.00803401
0.00740868
0.00717083
0.00734043
0.00782741
0.00846542
0.00904388
0.00936846
0.00934973
0.00903827
0.00863356
0.00839947
0.00841277
0.0084316
0.00818638
0.00774547
0.00719489
0.00660643
0.00604215
0.00554475
0.00512551
0.00477041
0.0044713
0.00423168
0.00406037
0.00396551
0.00391746
0.00367491
0.00329755
0.00296652
0.00279808
0.00290579
0.00334444
0.00410147
0.00169321
0.00352154
0.00417845
0.00464032
0.00475346
0.00485756
0.00514131
0.00570407
0.00655199
0.00758397
0.00862057
0.00946981
0.00995283
0.00995591
0.00954428
0.00893986
0.00854102
0.00831643
0.00812163
0.00778467
0.0072393
0.006564
0.00586211
0.00522166
0.00468889
0.00426581
0.00392894
0.00365329
0.00342346
0.00322947
0.00306127
0.00290816
0.00276849
0.00265848
0.00257759
0.00254689
0.00255784
0.00254298
0.00244079
0.00228107
0.00159194
0.00175412
0.00360333
0.00588902
0.0077766
0.0092372
0.0103393
0.0110231
0.0112802
0.011153
0.0106388
0.00984446
0.00887631
0.0080661
0.00756763
0.00715731
0.00664941
0.00602658
0.00535934
0.00472347
0.00417125
0.00373233
0.0033931
0.00312851
0.00291862
0.00275199
0.00262292
0.00252857
0.00246748
0.00244148
0.00244735
0.00246898
0.00250165
0.00253628
0.00254502
0.00248299
0.00233583
0.00211431
0.00132419
0.00234926
0.00605934
0.00901568
0.0101446
0.0107021
0.0108635
0.0106045
0.0100011
0.00917658
0.00825461
0.00738626
0.00661752
0.00599837
0.0054673
0.00492973
0.00440068
0.00393106
0.00354791
0.00325034
0.00302242
0.00283774
0.00268203
0.00254899
0.00244095
0.00236177
0.0023108
0.00228643
0.00228696
0.0023176
0.00237512
0.00245543
0.00254984
0.00263939
0.00270112
0.00268018
0.00270963
0.00275082
0.00135039
0.00208494
0.00220999
0.00229812
0.00246133
0.00237585
0.00227844
0.00221487
0.00212434
0.00199468
0.00183404
0.00165383
0.00146692
0.00128629
0.00113228
0.0010163
0.000933795
0.000875
0.000832236
0.000800862
0.000778231
0.00076269
0.000753239
0.00074922
0.000750871
0.000758744
0.000772717
0.000792465
0.000818394
0.000851168
0.000891614
0.000938731
0.000992595
0.00105379
0.00112281
0.00119909
0.00128963
0.00131902
0.00128513
0.00120742
0.00112497
)
;

boundaryField
{
    floor
    {
        type            compressible::alphatWallFunction;
        Prt             0.85;
        value           nonuniform List<scalar> 
29
(
0.000197748
7.71519e-05
9.55017e-05
0.000107891
0.000107231
0.000103439
9.84216e-05
9.20795e-05
8.57461e-05
7.99515e-05
7.47666e-05
7.01413e-05
6.60032e-05
6.2298e-05
5.89509e-05
5.58468e-05
5.28316e-05
4.9673e-05
4.73738e-05
4.21761e-05
4.21755e-05
5.7979e-05
6.82492e-05
7.60886e-05
0.000197746
7.71509e-05
8.38138e-05
0.000168495
0.000238309
)
;
    }
    ceiling
    {
        type            compressible::alphatWallFunction;
        Prt             0.85;
        value           nonuniform List<scalar> 
43
(
0.000288065
0.000304226
0.00031556
0.000336551
0.000325692
0.000313231
0.000305065
0.000293385
0.000276553
0.000255529
0.0002317
0.000206676
0.000182151
0.000160929
0.000144729
0.000133074
0.000124695
0.000118558
0.000114033
0.000110755
0.000108498
0.000107122
0.000106537
0.000106778
0.000107924
0.000109955
0.000112819
0.000116565
0.000121281
0.000127071
0.000133777
0.000141395
0.000149991
0.000159618
0.000170178
0.000182614
0.00018663
0.000181999
0.000171328
0.000159921
0.000469223
0.000549122
0.000321945
)
;
    }
    sWall
    {
        type            compressible::alphatWallFunction;
        Prt             0.85;
        value           uniform 0.000286856;
    }
    nWall
    {
        type            compressible::alphatWallFunction;
        Prt             0.85;
        value           nonuniform List<scalar> 6(0.00012966 0.000135315 0.000154047 0.00018701 0.000190577 0.0001596);
    }
    sideWalls
    {
        type            empty;
    }
    glass1
    {
        type            compressible::alphatWallFunction;
        Prt             0.85;
        value           nonuniform List<scalar> 9(0.000173524 0.000233839 0.000282683 0.000328654 0.000374794 0.000423034 0.000466342 0.00047449 0.000462508);
    }
    glass2
    {
        type            compressible::alphatWallFunction;
        Prt             0.85;
        value           nonuniform List<scalar> 2(0.000235253 0.000221889);
    }
    sun
    {
        type            compressible::alphatWallFunction;
        Prt             0.85;
        value           nonuniform List<scalar> 
14
(
0.000177832
0.000193886
0.000197388
0.000206496
0.000214892
0.000222719
0.00023037
0.00023778
0.000242966
0.000245101
0.000243419
0.000237438
0.000227093
0.000213174
)
;
    }
    heatsource1
    {
        type            compressible::alphatWallFunction;
        Prt             0.85;
        value           nonuniform List<scalar> 3(9.50159e-05 0.00011569 0.000129962);
    }
    heatsource2
    {
        type            compressible::alphatWallFunction;
        Prt             0.85;
        value           nonuniform List<scalar> 4(0.000201776 0.000119441 0.000119439 0.000201155);
    }
    Table_master
    {
        type            compressible::alphatWallFunction;
        Prt             0.85;
        value           nonuniform List<scalar> 9(0.000132967 0.000117312 0.000104561 9.41434e-05 8.55584e-05 7.84163e-05 7.24337e-05 6.74323e-05 6.33476e-05);
    }
    Table_slave
    {
        type            compressible::alphatWallFunction;
        Prt             0.85;
        value           nonuniform List<scalar> 9(0.000149874 0.000136521 0.000126844 0.000119396 0.000113027 0.000107173 0.000101524 9.55745e-05 8.86431e-05);
    }
    inlet
    {
        type            fixedValue;
        value           uniform 1.94e-05;
    }
    outlet
    {
        type            zeroGradient;
    }
}


// ************************************************************************* //
