/*--------------------------------*- C++ -*----------------------------------*\
  =========                 |
  \\      /  F ield         | OpenFOAM: The Open Source CFD Toolbox
   \\    /   O peration     | Website:  https://openfoam.org
    \\  /    A nd           | Version:  6
     \\/     M anipulation  |
\*---------------------------------------------------------------------------*/
FoamFile
{
    version     2.0;
    format      ascii;
    class       volScalarField;
    location    "200";
    object      epsilon;
}
// * * * * * * * * * * * * * * * * * * * * * * * * * * * * * * * * * * * * * //

dimensions      [0 2 -3 0 0 0 0];

internalField   nonuniform List<scalar> 
459
(
0.000106506
0.000116659
8.74674e-05
9.61648e-05
0.000107079
0.000118415
0.000130113
0.000142442
0.000155995
0.000169952
0.00018244
0.000192491
0.000199279
0.000202075
0.00019821
8.17782e-06
9.22999e-06
7.67452e-06
5.96054e-06
4.49492e-06
3.59915e-06
3.27625e-06
3.47181e-06
3.76367e-06
3.869e-06
3.67924e-06
3.50354e-06
3.46421e-06
3.72629e-06
4.68171e-06
7.06497e-06
8.58875e-06
1.15391e-05
9.03792e-06
0.000527554
0.00114237
0.000120948
7.23996e-05
7.37366e-05
7.86668e-05
8.44898e-05
9.14459e-05
0.000100183
0.000110709
0.000122358
0.00013505
0.000148727
0.000163388
0.000183861
0.000254759
6.27288e-05
2.21387e-05
1.94142e-05
1.89398e-05
1.61131e-05
1.3195e-05
1.00597e-05
7.70847e-06
9.19312e-06
1.06862e-05
1.14631e-05
1.15559e-05
1.13182e-05
1.16952e-05
1.35455e-05
1.71018e-05
1.98528e-05
1.97782e-05
3.5652e-05
2.7055e-05
0.00137245
0.00390294
0.000331141
8.99714e-05
7.77242e-05
8.26419e-05
9.04614e-05
9.99346e-05
0.000111057
0.000123679
0.000136505
0.000149036
0.000161282
0.000173509
0.000187449
0.000213819
0.000293076
7.68578e-05
4.17608e-05
2.90723e-05
2.42794e-05
2.13116e-05
1.7252e-05
7.24516e-06
8.14597e-06
9.65742e-06
1.15391e-05
1.41358e-05
1.81411e-05
2.51103e-05
3.86041e-05
6.89385e-05
5.17823e-05
5.63276e-05
9.01741e-05
6.69926e-05
0.00276999
0.00870552
0.000893185
0.000145093
9.42547e-05
9.70761e-05
0.000107796
0.000121456
0.000137164
0.000154072
0.000169159
0.00018171
0.000192477
0.00020213
0.000210012
0.000215364
0.000223164
0.00025752
7.24737e-05
4.99963e-05
4.24791e-05
4.33155e-05
4.80739e-05
5.8116e-05
7.88664e-05
7.44893e-05
7.26648e-05
7.26757e-05
7.47244e-05
7.94163e-05
8.80293e-05
0.000103561
0.000135089
7.79223e-05
9.27658e-05
0.000144422
0.000138019
0.00475519
0.0149309
0.00216482
0.000320449
0.000146194
0.00013243
0.000143379
0.000162436
0.000186387
0.000210562
0.000228155
0.000239663
0.000248669
0.00025763
0.000264521
0.000262313
0.000241431
0.000191049
0.000122301
8.48961e-05
7.05048e-05
6.49692e-05
6.27336e-05
6.14212e-05
5.96869e-05
5.69591e-05
5.55051e-05
5.55638e-05
5.74144e-05
6.15718e-05
6.88018e-05
7.99742e-05
9.51939e-05
0.000110385
0.000134324
0.000171036
0.000240397
0.000281255
0.000175741
0.000111248
0.00734862
0.0204433
0.00471148
0.00101467
0.000401095
0.000272494
0.000252679
0.000265773
0.000297306
0.0003227
0.000331392
0.000329262
0.000325671
0.000326978
0.00033218
0.000331407
0.000309454
0.000258448
0.000196779
0.000150321
0.000123314
0.000108513
0.000100099
9.43355e-05
8.92272e-05
8.46429e-05
8.1343e-05
7.96463e-05
7.99524e-05
8.30341e-05
9.01577e-05
0.000103002
0.00012302
0.000150189
0.000183913
0.000223857
0.00026842
0.000281422
0.000196579
0.000124359
0.0101938
0.0227656
0.0093371
0.00359915
0.00176855
0.00099207
0.00071528
0.00061376
0.000594439
0.000567152
0.000523866
0.000475884
0.000435163
0.00040979
0.00040087
0.000397162
0.00037967
0.000337585
0.000281768
0.000231666
0.000195998
0.00017299
0.000158542
0.000148785
0.000141119
0.000134739
0.00012973
0.000126248
0.000124709
0.000126143
0.000132534
0.000146867
0.000172052
0.000208382
0.000253122
0.000303141
0.000353689
0.000387718
0.000370101
0.000151178
0.0105102
0.0251121
0.0151996
0.0111362
0.00678857
0.0040241
0.00258899
0.00182255
0.00137007
0.00108167
0.00087179
0.000714505
0.000601085
0.000526482
0.000484667
0.000463834
0.000446151
0.000415808
0.000372385
0.000327557
0.000290542
0.000263637
0.00024548
0.000233333
0.000224577
0.000217799
0.000212458
0.000208254
0.000205347
0.000204716
0.000208912
0.000222967
0.000254252
0.000307066
0.00038014
0.000467961
0.000573219
0.000712706
0.000909947
0.000961607
0.00928036
0.0143162
0.029262
0.0228315
0.0146718
0.00917591
0.00583963
0.00384673
0.0026235
0.00184155
0.00134072
0.00101821
0.00081377
0.000689116
0.000617688
0.000578716
0.000554123
0.000529633
0.000499725
0.000467495
0.000438225
0.000415139
0.000398933
0.000388508
0.000382021
0.000377804
0.000374621
0.000371604
0.000368303
0.000364995
0.00036345
0.000368405
0.000387489
0.000423711
0.000486724
0.000585141
0.000702829
0.000792442
0.00127471
0.0012436
0.0844747
0.0844664
0.0269444
0.012993
0.00735165
0.00455471
0.00301749
0.00211695
0.00156735
0.00124204
0.00105955
0.000965105
0.000920032
0.000897992
0.000882958
0.000866913
0.000847897
0.000827962
0.000810422
0.000797748
0.000790832
0.000789084
0.000790941
0.000794505
0.000797997
0.000799955
0.000799356
0.000795858
0.000790394
0.000786503
0.000785594
0.000789955
0.000808316
0.00084459
0.000876463
0.000884819
0.00099052
0.00146842
0.0564478
0.039565
0.0170677
0.00924205
0.00572892
0.00391872
0.00293205
0.00239843
0.00213869
0.00204235
0.00204264
0.0020871
0.0021358
0.00216427
0.00216364
0.00213747
0.00209688
0.00205462
0.00202016
0.00199806
0.0019887
0.00198969
0.00199734
0.00200769
0.00201703
0.00202199
0.00201946
0.00200683
0.00198294
0.00194823
0.0019057
0.00185538
0.0018056
0.00176004
0.00170904
0.00162386
0.00183879
0.00197643
0.00171475
0.0044347
0.0204165
0.0117163
0.00658725
0.00520043
0.00378434
0.00279609
0.00215456
0.00174586
0.00149226
0.00134972
0.00128297
0.00126597
0.00127717
0.00129965
0.0013219
0.00133763
0.00134471
0.00134404
0.00133814
0.00132978
0.00132116
0.00131352
0.00130726
0.00130217
0.00129769
0.00129305
0.00128736
0.00127961
0.00126862
0.00125304
0.00123141
0.00120571
0.00117228
0.00112654
0.00105892
0.000954625
0.00086756
0.000774245
)
;

boundaryField
{
    floor
    {
        Cmu             0.09;
        kappa           0.41;
        E               9.8;
        type            epsilonWallFunction;
        value           nonuniform List<scalar> 
29
(
0.00019821
8.17782e-06
9.22999e-06
7.67452e-06
5.96054e-06
4.49492e-06
3.59915e-06
3.27625e-06
3.47181e-06
3.76367e-06
3.869e-06
3.67924e-06
3.50354e-06
3.46421e-06
3.72629e-06
4.68171e-06
7.06497e-06
8.58875e-06
1.15391e-05
9.03792e-06
9.03792e-06
2.7055e-05
6.69926e-05
0.000138019
0.00019821
8.17782e-06
2.21387e-05
7.68578e-05
0.00025752
)
;
    }
    ceiling
    {
        Cmu             0.09;
        kappa           0.41;
        E               9.8;
        type            epsilonWallFunction;
        value           nonuniform List<scalar> 
43
(
0.00171475
0.0044347
0.0204165
0.0117163
0.00658725
0.00520043
0.00378434
0.00279609
0.00215456
0.00174586
0.00149226
0.00134972
0.00128297
0.00126597
0.00127717
0.00129965
0.0013219
0.00133763
0.00134471
0.00134404
0.00133814
0.00132978
0.00132116
0.00131352
0.00130726
0.00130217
0.00129769
0.00129305
0.00128736
0.00127961
0.00126862
0.00125304
0.00123141
0.00120571
0.00117228
0.00112654
0.00105892
0.000954625
0.00086756
0.000774245
0.00928036
0.0143162
0.0564478
)
;
    }
    sWall
    {
        Cmu             0.09;
        kappa           0.41;
        E               9.8;
        type            epsilonWallFunction;
        value           uniform 0.00171475;
    }
    nWall
    {
        Cmu             0.09;
        kappa           0.41;
        E               9.8;
        type            epsilonWallFunction;
        value           nonuniform List<scalar> 6(0.000111248 0.000124359 0.000151178 0.00146842 0.00197643 0.000774245);
    }
    sideWalls
    {
        type            empty;
    }
    glass1
    {
        Cmu             0.09;
        kappa           0.41;
        E               9.8;
        type            epsilonWallFunction;
        value           nonuniform List<scalar> 9(0.000106506 0.000527554 0.00137245 0.00276999 0.00475519 0.00734862 0.0101938 0.0105102 0.00928036);
    }
    glass2
    {
        Cmu             0.09;
        kappa           0.41;
        E               9.8;
        type            epsilonWallFunction;
        value           nonuniform List<scalar> 2(0.000961607 0.0012436);
    }
    sun
    {
        Cmu             0.09;
        kappa           0.41;
        E               9.8;
        type            epsilonWallFunction;
        value           nonuniform List<scalar> 
14
(
0.000106506
0.000116659
8.74674e-05
9.61648e-05
0.000107079
0.000118415
0.000130113
0.000142442
0.000155995
0.000169952
0.00018244
0.000192491
0.000199279
0.000202075
)
;
    }
    heatsource1
    {
        Cmu             0.09;
        kappa           0.41;
        E               9.8;
        type            epsilonWallFunction;
        value           nonuniform List<scalar> 3(0.000281255 0.000175741 0.000111248);
    }
    heatsource2
    {
        Cmu             0.09;
        kappa           0.41;
        E               9.8;
        type            epsilonWallFunction;
        value           nonuniform List<scalar> 4(0.000254759 6.27288e-05 6.27288e-05 0.000293076);
    }
    Table_master
    {
        Cmu             0.09;
        kappa           0.41;
        E               9.8;
        type            epsilonWallFunction;
        value           nonuniform List<scalar> 9(7.24516e-06 8.14597e-06 9.65742e-06 1.15391e-05 1.41358e-05 1.81411e-05 2.51103e-05 3.86041e-05 6.89385e-05);
    }
    Table_slave
    {
        Cmu             0.09;
        kappa           0.41;
        E               9.8;
        type            epsilonWallFunction;
        value           nonuniform List<scalar> 9(7.88664e-05 7.44893e-05 7.26648e-05 7.26757e-05 7.47244e-05 7.94163e-05 8.80293e-05 0.000103561 0.000135089);
    }
    inlet
    {
        type            turbulentMixingLengthDissipationRateInlet;
        mixingLength    0.01;
        phi             phi;
        k               k;
        value           uniform 3.77337e-06;
    }
    outlet
    {
        type            zeroGradient;
    }
}


// ************************************************************************* //
