/*--------------------------------*- C++ -*----------------------------------*\
  =========                 |
  \\      /  F ield         | OpenFOAM: The Open Source CFD Toolbox
   \\    /   O peration     | Website:  https://openfoam.org
    \\  /    A nd           | Version:  6
     \\/     M anipulation  |
\*---------------------------------------------------------------------------*/
FoamFile
{
    version     2.0;
    format      ascii;
    class       volScalarField;
    location    "600";
    object      alphat;
}
// * * * * * * * * * * * * * * * * * * * * * * * * * * * * * * * * * * * * * //

dimensions      [1 -1 -1 0 0 0 0];

internalField   nonuniform List<scalar> 
459
(
0.00098829
0.00105457
0.0010597
0.0010998
0.00113454
0.00116492
0.00119239
0.00121847
0.00124445
0.0012624
0.00126821
0.00125742
0.00122835
0.00118585
0.00113993
0.000464807
0.000557641
0.000563521
0.000542102
0.00051835
0.000494969
0.000472411
0.000451798
0.000433275
0.000416668
0.000401741
0.000388315
0.000376086
0.000364727
0.000353804
0.000342661
0.00033018
0.000322271
0.000299856
0.00140686
0.00267868
0.00239344
0.00274821
0.00302857
0.00332265
0.00360949
0.00385663
0.00402208
0.00416811
0.00426073
0.00424869
0.00406854
0.00361483
0.00264065
0.00113513
0.000815984
0.000637164
0.000863183
0.000992594
0.00107248
0.00109872
0.00108312
0.000982692
0.000908309
0.00084877
0.000799408
0.000757499
0.000718604
0.000681284
0.000643372
0.000604164
0.00057156
0.000541359
0.000660408
0.000393424
0.00177277
0.00369477
0.00271972
0.00361247
0.00388898
0.00407827
0.00421419
0.00432075
0.00440977
0.00451892
0.0046165
0.00466176
0.00462883
0.00451389
0.00429447
0.00368531
0.00110081
0.000910217
0.00109998
0.00121215
0.00130185
0.00136497
0.00134338
0.000595
0.000547931
0.000508187
0.000474678
0.000446322
0.000422192
0.000401608
0.000384146
0.000369672
0.000397272
0.000450877
0.000745773
0.000460153
0.00214412
0.00511477
0.0025742
0.00382502
0.00410042
0.00414468
0.00412862
0.00412586
0.00417634
0.00427972
0.00439047
0.0044554
0.0044576
0.00442181
0.00438784
0.00428371
0.00362438
0.00114374
0.00131802
0.00147899
0.00161718
0.00174715
0.00187423
0.00187285
0.000663539
0.00063953
0.000625929
0.000616106
0.000604526
0.000589129
0.000572331
0.000552034
0.000524887
0.000487431
0.000480249
0.000877078
0.000513521
0.0025317
0.00708738
0.00286551
0.0035732
0.00407467
0.00405203
0.00393489
0.00386705
0.00392642
0.00407489
0.00422501
0.0043003
0.00428996
0.00422476
0.0041294
0.00396941
0.00363138
0.00302701
0.00266846
0.00249759
0.00245619
0.0025149
0.00263149
0.00274233
0.00266129
0.00267484
0.00270055
0.00270061
0.00265351
0.00252167
0.00228491
0.00196779
0.0015964
0.0011939
0.00086376
0.000872482
0.000642075
0.000692962
0.0008323
0.000923504
0.00294347
0.00929664
0.00450738
0.00316485
0.00375232
0.00390404
0.00382863
0.00372256
0.00378265
0.00400389
0.00418552
0.00425494
0.00421806
0.00411383
0.00396717
0.00374055
0.00338129
0.00298249
0.00277371
0.00275027
0.00280649
0.00289265
0.00299512
0.00311415
0.00322387
0.00332023
0.00338135
0.0033972
0.0033645
0.00327886
0.00308433
0.00277765
0.00236016
0.00185639
0.00138304
0.000997913
0.000814331
0.000756987
0.00114496
0.000956472
0.00336145
0.0110822
0.00769731
0.00436276
0.00344181
0.00334675
0.0035472
0.00370328
0.00390257
0.00411
0.00424718
0.0042763
0.00419684
0.00405401
0.00387977
0.00362506
0.00322945
0.00284015
0.00274192
0.00283661
0.00288739
0.00292479
0.00300837
0.0031285
0.00325814
0.00336545
0.00343401
0.00346271
0.0034559
0.00342082
0.00334684
0.0031095
0.0027272
0.00225192
0.0018044
0.00138043
0.00112665
0.00107163
0.00114627
0.00102839
0.00346846
0.010787
0.00899967
0.00734897
0.00581774
0.0048118
0.00446254
0.00440573
0.00436247
0.00438581
0.00440545
0.00433425
0.00416952
0.00397378
0.00378101
0.00350823
0.00306801
0.00271957
0.00274483
0.00272307
0.0027037
0.00274547
0.00282998
0.00293147
0.00303097
0.0031122
0.00316904
0.00320581
0.00323304
0.00326474
0.00330915
0.00329359
0.00299703
0.00262096
0.00230011
0.00214511
0.00226026
0.00280484
0.00378764
0.00169163
0.00340458
0.00413462
0.00467625
0.00489966
0.00489105
0.00471014
0.00455218
0.00446429
0.00448445
0.00455425
0.00452025
0.00431956
0.00403698
0.00378931
0.00359202
0.00327676
0.00275975
0.00255757
0.00245633
0.00237843
0.00237717
0.00242384
0.0024881
0.00255241
0.0026059
0.00264095
0.00265346
0.00264203
0.00260603
0.00254492
0.00245939
0.00235816
0.00226552
0.002211
0.00222192
0.00228869
0.00233951
0.00229811
0.00217019
0.00158676
0.0023896
0.00417629
0.00472193
0.00489223
0.00497534
0.00506094
0.00508818
0.00498342
0.00458413
0.0040708
0.00363833
0.00337998
0.00318343
0.00271318
0.0022959
0.00208842
0.00194149
0.00189941
0.00191787
0.00195962
0.0020068
0.00205062
0.00208629
0.00211137
0.00212554
0.00213055
0.00213007
0.0021298
0.00213736
0.00216135
0.00219349
0.00224015
0.00229823
0.0023406
0.00231972
0.00221238
0.00202418
0.00131376
0.00259546
0.00490621
0.0053944
0.00539531
0.00529704
0.00519415
0.00503342
0.00452773
0.00364007
0.00300968
0.00267466
0.00247642
0.00209419
0.00168045
0.00146053
0.00132239
0.00127449
0.00128775
0.00132804
0.00138088
0.00144056
0.00150487
0.00157317
0.00164551
0.00172213
0.00180287
0.00188641
0.0019694
0.00205378
0.00214734
0.00225095
0.00236256
0.00247048
0.00255722
0.00257517
0.00265757
0.00261304
0.00133205
0.00224467
0.00237355
0.00247679
0.00262338
0.00248516
0.00233741
0.00209993
0.00188236
0.00164261
0.00146911
0.00126928
0.000830307
0.000666699
0.000588754
0.000536203
0.000503873
0.000497924
0.00051095
0.000532027
0.000556253
0.000582478
0.000610239
0.000639357
0.000669813
0.00070169
0.000735171
0.000770555
0.000808322
0.000849254
0.000894668
0.000945524
0.0010012
0.00106271
0.00113132
0.00120801
0.00130371
0.0013391
0.00131195
0.00123126
0.00114505
)
;

boundaryField
{
    floor
    {
        type            compressible::alphatWallFunction;
        Prt             0.85;
        value           nonuniform List<scalar> 
29
(
0.000161848
6.38277e-05
7.80078e-05
7.88913e-05
7.5652e-05
7.20416e-05
6.84673e-05
6.49988e-05
6.18111e-05
5.89309e-05
5.63351e-05
5.39907e-05
5.18723e-05
4.99346e-05
4.81274e-05
4.63826e-05
4.45955e-05
4.25845e-05
4.13049e-05
3.76559e-05
3.76554e-05
5.2678e-05
6.31044e-05
7.13047e-05
0.000161846
6.38269e-05
8.99282e-05
0.000129577
0.000162369
)
;
    }
    ceiling
    {
        type            compressible::alphatWallFunction;
        Prt             0.85;
        value           nonuniform List<scalar> 
43
(
0.00030871
0.000325239
0.000338413
0.00035712
0.000339614
0.000320769
0.000290184
0.000261833
0.000230173
0.000206936
0.000179837
0.000118302
9.44036e-05
8.27933e-05
7.48639e-05
6.99384e-05
6.90266e-05
7.10196e-05
7.42316e-05
7.79039e-05
8.18569e-05
8.60175e-05
9.03566e-05
9.4869e-05
9.95654e-05
0.00010447
0.000109625
0.000115095
0.000120989
0.00012749
0.000134723
0.000142589
0.000151222
0.000160783
0.00017139
0.000184523
0.00018935
0.000185648
0.000174594
0.000162692
0.000454836
0.000543825
0.00035339
)
;
    }
    sWall
    {
        type            compressible::alphatWallFunction;
        Prt             0.85;
        value           uniform 0.000307495;
    }
    nWall
    {
        type            compressible::alphatWallFunction;
        Prt             0.85;
        value           nonuniform List<scalar> 6(0.000131271 0.000135943 0.000146074 0.000185562 0.000188053 0.000162362);
    }
    sideWalls
    {
        type            empty;
    }
    glass1
    {
        type            compressible::alphatWallFunction;
        Prt             0.85;
        value           nonuniform List<scalar> 9(0.000136938 0.000193845 0.000242164 0.000290192 0.000339451 0.000390975 0.000442553 0.000455779 0.000448176);
    }
    glass2
    {
        type            compressible::alphatWallFunction;
        Prt             0.85;
        value           nonuniform List<scalar> 2(0.000234918 0.000221079);
    }
    sun
    {
        type            compressible::alphatWallFunction;
        Prt             0.85;
        value           nonuniform List<scalar> 
14
(
0.000140661
0.000149956
0.000150672
0.000156269
0.000161099
0.000165308
0.000169103
0.000172697
0.000176268
0.00017873
0.000179527
0.000178049
0.000174057
0.000168201
)
;
    }
    heatsource1
    {
        type            compressible::alphatWallFunction;
        Prt             0.85;
        value           nonuniform List<scalar> 3(9.82831e-05 0.000118552 0.000131597);
    }
    heatsource2
    {
        type            compressible::alphatWallFunction;
        Prt             0.85;
        value           nonuniform List<scalar> 4(0.000161308 0.00011621 0.000116209 0.000156542);
    }
    Table_master
    {
        type            compressible::alphatWallFunction;
        Prt             0.85;
        value           nonuniform List<scalar> 9(8.37306e-05 7.66402e-05 7.05941e-05 6.54503e-05 6.10615e-05 5.72987e-05 5.40672e-05 5.1309e-05 4.90105e-05);
    }
    Table_slave
    {
        type            compressible::alphatWallFunction;
        Prt             0.85;
        value           nonuniform List<scalar> 9(9.39368e-05 9.03787e-05 8.83562e-05 8.6892e-05 8.5162e-05 8.28552e-05 8.03298e-05 7.7266e-05 7.31461e-05);
    }
    inlet
    {
        type            fixedValue;
        value           uniform 1.94e-05;
    }
    outlet
    {
        type            zeroGradient;
    }
}


// ************************************************************************* //
