// -*- C++ -*-
// File generated by PyFoam - sorry for the ugliness

FoamFile
{
 version 2.0;
 format ascii;
 class volScalarField;
 location "700";
 object T;
}

dimensions [ 0 0 0 1 0 0 0 ];

internalField nonuniform List<scalar> 459
(
  303.616
  303.357
  303.344
  303.34
  303.337
  303.332
  303.328
  303.323
  303.315
  303.304
  303.292
  303.28
  303.27
  303.264
  303.263
  303.341
  303.319
  303.311
  303.313
  303.316
  303.319
  303.322
  303.325
  303.328
  303.331
  303.334
  303.337
  303.34
  303.343
  303.346
  303.349
  303.352
  303.356
  303.372
  303.791
  303.4
  303.377
  303.379
  303.383
  303.384
  303.382
  303.377
  303.364
  303.343
  303.317
  303.291
  303.27
  303.255
  303.248
  303.244
  303.243
  303.34
  303.305
  303.299
  303.3
  303.303
  303.306
  303.307
  303.308
  303.309
  303.31
  303.31
  303.311
  303.312
  303.313
  303.314
  303.317
  303.322
  303.33
  303.357
  303.974
  303.451
  303.412
  303.422
  303.436
  303.447
  303.452
  303.45
  303.432
  303.398
  303.353
  303.31
  303.276
  303.253
  303.243
  303.241
  303.242
  303.283
  303.284
  303.29
  303.298
  303.306
  303.311
  303.311
  303.31
  303.31
  303.31
  303.309
  303.309
  303.309
  303.309
  303.309
  303.311
  303.314
  303.32
  303.349
  304.158
  303.513
  303.447
  303.462
  303.489
  303.516
  303.536
  303.54
  303.514
  303.46
  303.39
  303.327
  303.278
  303.249
  303.238
  303.238
  303.243
  303.252
  303.263
  303.279
  303.295
  303.31
  303.322
  303.332
  303.339
  303.346
  303.351
  303.357
  303.361
  303.364
  303.366
  303.367
  303.367
  303.348
  303.332
  303.325
  303.348
  304.336
  303.591
  303.488
  303.497
  303.533
  303.576
  303.616
  303.627
  303.589
  303.511
  303.414
  303.332
  303.273
  303.24
  303.23
  303.234
  303.245
  303.26
  303.278
  303.299
  303.32
  303.338
  303.353
  303.364
  303.375
  303.383
  303.389
  303.395
  303.398
  303.398
  303.397
  303.393
  303.387
  303.371
  303.35
  303.334
  303.344
  303.409
  303.452
  303.459
  304.497
  303.693
  303.559
  303.545
  303.577
  303.629
  303.686
  303.686
  303.625
  303.524
  303.414
  303.319
  303.254
  303.222
  303.217
  303.23
  303.252
  303.277
  303.304
  303.331
  303.355
  303.374
  303.39
  303.401
  303.41
  303.418
  303.423
  303.427
  303.428
  303.426
  303.421
  303.414
  303.404
  303.388
  303.367
  303.347
  303.345
  303.373
  303.388
  303.421
  304.643
  303.856
  303.722
  303.687
  303.697
  303.734
  303.761
  303.719
  303.617
  303.487
  303.362
  303.265
  303.209
  303.191
  303.203
  303.233
  303.271
  303.308
  303.343
  303.373
  303.397
  303.415
  303.429
  303.438
  303.445
  303.45
  303.453
  303.455
  303.454
  303.45
  303.442
  303.432
  303.419
  303.404
  303.385
  303.364
  303.355
  303.363
  303.372
  303.4
  304.856
  304.267
  304.12
  304.027
  303.973
  303.938
  303.845
  303.694
  303.518
  303.354
  303.23
  303.158
  303.138
  303.156
  303.2
  303.255
  303.311
  303.358
  303.396
  303.422
  303.441
  303.454
  303.463
  303.47
  303.474
  303.477
  303.478
  303.478
  303.475
  303.471
  303.464
  303.452
  303.44
  303.426
  303.411
  303.397
  303.392
  303.404
  303.422
  303.546
  305.161
  304.884
  304.626
  304.391
  304.181
  303.955
  303.655
  303.369
  303.153
  303.027
  302.985
  303.006
  303.07
  303.153
  303.236
  303.318
  303.38
  303.419
  303.446
  303.465
  303.477
  303.486
  303.492
  303.496
  303.499
  303.5
  303.5
  303.498
  303.497
  303.494
  303.493
  303.494
  303.496
  303.504
  303.518
  303.541
  303.573
  303.605
  303.626
  303.679
  296.478
  298.553
  299.818
  300.487
  301.084
  301.617
  302.072
  302.441
  302.727
  302.949
  303.136
  303.271
  303.355
  303.412
  303.448
  303.472
  303.488
  303.499
  303.506
  303.511
  303.515
  303.518
  303.52
  303.521
  303.522
  303.523
  303.524
  303.526
  303.528
  303.531
  303.536
  303.544
  303.558
  303.576
  303.599
  303.621
  303.639
  303.657
  297.136
  299.037
  300.371
  301.256
  301.834
  302.265
  302.607
  302.872
  303.07
  303.213
  303.317
  303.39
  303.439
  303.471
  303.492
  303.506
  303.515
  303.521
  303.526
  303.529
  303.532
  303.535
  303.537
  303.539
  303.54
  303.542
  303.544
  303.546
  303.547
  303.55
  303.554
  303.56
  303.57
  303.582
  303.597
  303.615
  303.612
  303.64
  299.709
  299.632
  299.627
  301.421
  302.22
  302.617
  302.857
  303.033
  303.168
  303.27
  303.346
  303.402
  303.443
  303.471
  303.489
  303.501
  303.509
  303.514
  303.518
  303.521
  303.524
  303.527
  303.53
  303.533
  303.536
  303.538
  303.541
  303.544
  303.547
  303.549
  303.552
  303.555
  303.558
  303.562
  303.568
  303.577
  303.587
  303.592
  303.593
  303.632
)
;

boundaryField
{
  floor
  {
    type wallHeatTransfer;
    Tinf uniform 305.2;
    alphaWall uniform 0.24;
    value nonuniform List<scalar> 29
(
  303.449
  303.698
  303.633
  303.604
  303.609
  303.619
  303.633
  303.649
  303.667
  303.684
  303.701
  303.717
  303.732
  303.747
  303.761
  303.776
  303.79
  303.806
  303.819
  303.857
  303.857
  303.771
  303.729
  303.703
  303.449
  303.698
  303.675
  303.491
  303.416
)
;
  }
  ceiling
  {
    type wallHeatTransfer;
    Tinf uniform 303.2;
    alphaWall uniform 0.24;
    value nonuniform List<scalar> 43
(
  299.957
  299.873
  299.861
  301.532
  302.283
  302.655
  302.881
  303.045
  303.17
  303.264
  303.334
  303.384
  303.418
  303.44
  303.453
  303.461
  303.465
  303.468
  303.47
  303.472
  303.474
  303.476
  303.478
  303.481
  303.484
  303.487
  303.491
  303.494
  303.498
  303.502
  303.506
  303.51
  303.515
  303.52
  303.527
  303.538
  303.547
  303.551
  303.55
  303.582
  305.07
  304.817
  297.525
)
;
  }
  sWall
  {
    type wallHeatTransfer;
    Tinf uniform 315.2;
    alphaWall uniform 0.36;
    value uniform 301.307;
  }
  nWall
  {
    type wallHeatTransfer;
    Tinf uniform 307.2;
    alphaWall uniform 0.36;
    value nonuniform List<scalar> 6
(
  304.164
  304.115
  304.042
  304.172
  304.15
  304.213
)
;
  }
  sideWalls
  {
    type empty;
  }
  glass1
  {
    type wallHeatTransfer;
    Tinf uniform 315.2;
    alphaWall uniform 4.3;
    value nonuniform List<scalar> 9
(
  311.576
  310.943
  310.542
  310.235
  309.979
  309.747
  309.574
  309.643
  309.867
)
;
  }
  glass2
  {
    type wallHeatTransfer;
    Tinf uniform 307.2;
    alphaWall uniform 4.3;
    value nonuniform List<scalar> 2
(
  305.826
  305.917
)
;
  }
  sun
  {
    type wallHeatTransfer;
    Tinf uniform 305.2;
    alphaWall uniform 0.24;
    value nonuniform List<scalar> 14
(
  303.785
  303.542
  303.528
  303.518
  303.509
  303.5
  303.492
  303.483
  303.473
  303.461
  303.45
  303.442
  303.438
  303.441
)
;
  }
  heatsource1
  {
    type fixedGradient;
    gradient uniform 0;
  }
  heatsource2
  {
    type fixedGradient;
    gradient uniform 0;
  }
  Table_master
  {
    type zeroGradient;
  }
  Table_slave
  {
    type zeroGradient;
  }
  inlet
  {
    type fixedValue;
    value uniform 293.15;
  }
  outlet
  {
    type zeroGradient;
  }
} 	// ************************************************************************* //

