/*--------------------------------*- C++ -*----------------------------------*\
  =========                 |
  \\      /  F ield         | OpenFOAM: The Open Source CFD Toolbox
   \\    /   O peration     | Website:  https://openfoam.org
    \\  /    A nd           | Version:  6
     \\/     M anipulation  |
\*---------------------------------------------------------------------------*/
FoamFile
{
    version     2.0;
    format      ascii;
    class       volScalarField;
    location    "900";
    object      nut;
}
// * * * * * * * * * * * * * * * * * * * * * * * * * * * * * * * * * * * * * //

dimensions      [0 2 -1 0 0 0 0];

internalField   nonuniform List<scalar> 
459
(
0.000654609
0.000676117
0.000614745
0.000632217
0.000652779
0.000672625
0.000691884
0.000711216
0.000731662
0.000750689
0.00076724
0.000780756
0.000790764
0.000796605
0.000794637
0.000248195
0.000240767
0.000232047
0.000220226
0.000213503
0.000212031
0.00021561
0.000226649
0.000238577
0.000248883
0.00025551
0.00025566
0.000252972
0.000254729
0.000263024
0.000279346
0.000294192
0.000339349
0.000286971
0.00111597
0.00214192
0.00167375
0.00231098
0.00256118
0.00275646
0.00293048
0.00307195
0.00316317
0.00321852
0.003221
0.00314157
0.00292937
0.00249496
0.00173827
0.000867733
0.000526384
0.000350271
0.00102287
0.00100171
0.00084396
0.000710875
0.000636044
0.000618638
0.00069622
0.000780793
0.000845944
0.00088481
0.000893014
0.000894803
0.000921916
0.00100888
0.00119655
0.00118754
0.00136554
0.000460469
0.00154537
0.00372309
0.00188428
0.00313508
0.0038655
0.00416656
0.00437106
0.00451942
0.00461162
0.00466183
0.00466227
0.00458125
0.00435927
0.0038957
0.00307481
0.0019483
0.000908498
0.000548917
0.0014445
0.00117595
0.000842845
0.000609213
0.000439015
0.000295438
0.000312418
0.000332507
0.000354144
0.000378945
0.000409457
0.000448862
0.00050322
0.000582924
0.0015925
0.00172555
0.00207199
0.000608852
0.00196669
0.00582114
0.00264672
0.00311969
0.00428012
0.00475375
0.00501556
0.00519375
0.00531195
0.00540802
0.00550022
0.0055663
0.00555247
0.00535467
0.00480568
0.0037163
0.00211028
0.000848734
0.00195856
0.00235076
0.00191802
0.00147671
0.00111452
0.000806026
0.000562603
0.000555945
0.000552387
0.000551587
0.000554641
0.000562982
0.000578824
0.000606285
0.000653927
0.00180487
0.00181273
0.00181526
0.000664132
0.00236638
0.00816176
0.00450301
0.0035099
0.00415757
0.00469748
0.00506625
0.00531715
0.00546205
0.00560709
0.00579958
0.00604311
0.00631534
0.00655524
0.00666757
0.00655411
0.00616493
0.00554953
0.00513041
0.00462599
0.00421965
0.00393868
0.00371948
0.00351403
0.00332864
0.00320361
0.00308652
0.0029701
0.00285203
0.00273164
0.00261049
0.0024929
0.00238055
0.0022635
0.00195316
0.00161429
0.00131747
0.000737356
0.000716034
0.000585221
0.00273972
0.0102846
0.00741205
0.00538202
0.00474854
0.00472
0.00495809
0.00522185
0.00535104
0.00548248
0.00567521
0.00596884
0.00637827
0.00686055
0.00730825
0.007581
0.00756786
0.00724126
0.0067384
0.00621575
0.00578962
0.00546061
0.00520348
0.0049923
0.0048061
0.00463517
0.0044745
0.00432053
0.00416795
0.00400861
0.00383144
0.0036234
0.00336985
0.00305006
0.002646
0.00220767
0.00183128
0.00154592
0.00128969
0.000798726
0.0030404
0.0114132
0.00998308
0.00799477
0.00666446
0.00586042
0.00554097
0.00547925
0.0054477
0.00544194
0.00550007
0.0056709
0.00600533
0.0065159
0.0071266
0.00763705
0.00786709
0.00778258
0.00746459
0.00705481
0.00666134
0.00632017
0.0060351
0.00579549
0.00558599
0.00539637
0.00522348
0.00506557
0.00492014
0.004782
0.00464308
0.00449161
0.0043083
0.00405745
0.00368248
0.00314728
0.00254037
0.00209106
0.00180191
0.00113153
0.00304851
0.00981234
0.00899225
0.00896566
0.00815952
0.00724796
0.00658088
0.00613135
0.00581177
0.0055931
0.00547544
0.00548251
0.00565099
0.00600702
0.0065208
0.00706167
0.00745274
0.00759142
0.0074933
0.00725126
0.00695858
0.00666985
0.00640915
0.00618063
0.0059795
0.00580004
0.00563896
0.00549429
0.00536509
0.00524837
0.0051411
0.00504175
0.00494843
0.00485285
0.00471979
0.00445774
0.00390426
0.0031701
0.00280247
0.00129443
0.00291357
0.00333614
0.00833456
0.00909544
0.00846243
0.00764965
0.00692219
0.00634698
0.00592148
0.00562702
0.00546043
0.00542996
0.00553751
0.00576623
0.00608688
0.00644575
0.0067607
0.00695495
0.00700135
0.00692823
0.00678591
0.00661705
0.00644791
0.00628992
0.00614735
0.00602014
0.00590629
0.00580297
0.00570821
0.00561812
0.00552984
0.00544277
0.00535827
0.0052778
0.00519868
0.00510596
0.00495211
0.00462712
0.00412894
0.00142
0.0185078
0.0167546
0.0103423
0.00838548
0.00736683
0.00671818
0.00630222
0.00606285
0.00596296
0.00596093
0.00601298
0.00609188
0.0061867
0.00629628
0.00641405
0.00652133
0.00659735
0.00663327
0.00663391
0.00661039
0.00657259
0.00652691
0.00648054
0.00643675
0.00639567
0.00635408
0.00630674
0.00625063
0.00618487
0.00610935
0.00602393
0.00592789
0.00581892
0.0056898
0.00551482
0.00520835
0.00442065
0.0015825
0.00603017
0.0114296
0.00873279
0.00747828
0.00680618
0.00645286
0.00629929
0.00627781
0.00633812
0.00643758
0.0065442
0.00663978
0.00671906
0.00678449
0.00683977
0.00688649
0.00692471
0.00695463
0.00697725
0.00699446
0.00700844
0.00702093
0.0070334
0.00704656
0.00705975
0.00706706
0.00705156
0.00701629
0.00696503
0.00689904
0.00681605
0.00670996
0.00657043
0.00638148
0.00611677
0.00572068
0.00509847
0.00186831
0.00161969
0.0022268
0.00413778
0.00339767
0.00259741
0.00227359
0.00207852
0.00192486
0.001812
0.0017336
0.00168254
0.0016523
0.00163689
0.00163116
0.00163094
0.00163334
0.00163654
0.00163943
0.00164133
0.00164196
0.00164144
0.0016401
0.00163834
0.00163651
0.00163471
0.001633
0.0016313
0.00162959
0.00162855
0.00162656
0.00162306
0.00161795
0.00161103
0.00160176
0.00158891
0.00157033
0.00154253
0.00150121
0.00146123
0.00133269
)
;

boundaryField
{
    floor
    {
        type            nutkWallFunction;
        Cmu             0.09;
        kappa           0.41;
        E               9.8;
        value           nonuniform List<scalar> 
29
(
9.62501e-05
2.61714e-05
2.51309e-05
2.39037e-05
2.2229e-05
2.12707e-05
2.10601e-05
2.15709e-05
2.31405e-05
2.4825e-05
2.62712e-05
2.71969e-05
2.72178e-05
2.68428e-05
2.70878e-05
2.82419e-05
3.0499e-05
3.25366e-05
3.86556e-05
3.15411e-05
3.1541e-05
5.45923e-05
7.34254e-05
8.0295e-05
9.62501e-05
2.61713e-05
4.01201e-05
6.58994e-05
0.000102769
)
;
    }
    ceiling
    {
        type            nutkWallFunction;
        Cmu             0.09;
        kappa           0.41;
        E               9.8;
        value           nonuniform List<scalar> 
43
(
0.00019172
0.000258297
0.000457218
0.000381584
0.000297866
0.000263272
0.000242177
0.00022541
0.000213004
0.000204336
0.000198668
0.000195302
0.000193585
0.000192945
0.000192921
0.000193189
0.000193545
0.000193867
0.000194078
0.000194148
0.000194089
0.000193939
0.000193743
0.000193538
0.000193337
0.000193145
0.000192955
0.000192764
0.000192647
0.000192424
0.000192033
0.000191462
0.000190689
0.000189651
0.000188214
0.000186134
0.000183016
0.000178372
0.000173864
0.000159281
0.000331305
0.000375319
0.000645022
)
;
    }
    sWall
    {
        type            nutkWallFunction;
        Cmu             0.09;
        kappa           0.41;
        E               9.8;
        value           uniform 0.000191761;
    }
    nWall
    {
        type            nutkWallFunction;
        Cmu             0.09;
        kappa           0.41;
        E               9.8;
        value           nonuniform List<scalar> 6(7.04662e-05 9.67354e-05 0.000136146 0.000187507 0.000219194 0.00015929);
    }
    sideWalls
    {
        type            empty;
    }
    glass1
    {
        type            nutkWallFunction;
        Cmu             0.09;
        kappa           0.41;
        E               9.8;
        value           nonuniform List<scalar> 9(7.90708e-05 0.000134416 0.000183515 0.000230218 0.000273524 0.000313277 0.000344881 0.000345737 0.000331612);
    }
    glass2
    {
        type            nutkWallFunction;
        Cmu             0.09;
        kappa           0.41;
        E               9.8;
        value           nonuniform List<scalar> 2(0.000154932 0.000169225);
    }
    sun
    {
        type            nutkWallFunction;
        Cmu             0.09;
        kappa           0.41;
        E               9.8;
        value           nonuniform List<scalar> 
14
(
7.9116e-05
8.17748e-05
7.41632e-05
7.63392e-05
7.8891e-05
8.13446e-05
8.37175e-05
8.60913e-05
8.85937e-05
9.09149e-05
9.29285e-05
9.45689e-05
9.57814e-05
9.64883e-05
)
;
    }
    heatsource1
    {
        type            nutkWallFunction;
        Cmu             0.09;
        kappa           0.41;
        E               9.8;
        value           nonuniform List<scalar> 3(8.9292e-05 8.66816e-05 7.04677e-05);
    }
    heatsource2
    {
        type            nutkWallFunction;
        Cmu             0.09;
        kappa           0.41;
        E               9.8;
        value           nonuniform List<scalar> 4(0.000105048 6.30375e-05 6.30375e-05 0.000109917);
    }
    Table_master
    {
        type            nutkWallFunction;
        Cmu             0.09;
        kappa           0.41;
        E               9.8;
        value           nonuniform List<scalar> 9(3.26971e-05 3.50111e-05 3.77277e-05 4.063e-05 4.3929e-05 4.79502e-05 5.30882e-05 6.00852e-05 7.01798e-05);
    }
    Table_slave
    {
        type            nutkWallFunction;
        Cmu             0.09;
        kappa           0.41;
        E               9.8;
        value           nonuniform List<scalar> 9(6.76211e-05 6.67807e-05 6.63309e-05 6.62297e-05 6.66154e-05 6.76682e-05 6.96626e-05 7.31041e-05 7.90307e-05);
    }
    inlet
    {
        type            calculated;
        value           uniform 3.3541e-05;
    }
    outlet
    {
        type            calculated;
        value           nonuniform List<scalar> 2(0.00161969 0.0022268);
    }
}


// ************************************************************************* //
