// -*- C++ -*-
// File generated by PyFoam - sorry for the ugliness

FoamFile
{
 version 2.0;
 format ascii;
 class volVectorField;
 location "600";
 object U;
}

dimensions [ 0 1 -1 0 0 0 0 ];

internalField nonuniform List<vector> 459
(
  (-0.0365897 0.00783191 0)
  (-0.0249367 0.00999861 0)
  (-0.0417462 -0.00364421 0)
  (-0.0340436 -0.017969 0)
  (-0.00507397 -0.0376251 0)
  (0.036784 -0.0347466 0)
  (0.0690633 -0.0268124 0)
  (0.0948622 -0.019029 0)
  (0.11164 -0.0124661 0)
  (0.119695 -0.0071519 0)
  (0.120197 -0.00263259 0)
  (0.114038 0.00189188 0)
  (0.101268 0.00746384 0)
  (0.0775646 0.0174704 0)
  (0.0781674 0.0430751 0)
  (-0.101893 -0.000397155 0)
  (0.028824 0.00694688 0)
  (0.000140823 -0.00876137 0)
  (0.0160484 -0.0141868 0)
  (0.0292897 -0.0112229 0)
  (0.0398966 -0.0075676 0)
  (0.0466551 -0.0046598 0)
  (0.050343 -0.00314389 0)
  (0.0522846 -0.00250891 0)
  (0.0535276 -0.0022006 0)
  (0.054468 -0.00198054 0)
  (0.0551046 -0.00175899 0)
  (0.0552722 -0.00143559 0)
  (0.0545983 -0.000787842 0)
  (0.0523693 0.000592755 0)
  (0.0472362 0.00339848 0)
  (0.0400608 0.00748178 0)
  (-0.0138664 0.017433 0)
  (0.108561 -0.00286895 0)
  (-0.0634981 0.0190521 0)
  (-0.0116738 0.0287341 0)
  (-0.0294224 0.0084344 0)
  (-0.0217553 -0.0221715 0)
  (0.00432991 -0.0572345 0)
  (0.0331774 -0.0563192 0)
  (0.0596897 -0.0434283 0)
  (0.0806875 -0.028805 0)
  (0.094199 -0.0156142 0)
  (0.100638 -0.00445821 0)
  (0.101101 0.00502522 0)
  (0.0967563 0.0136512 0)
  (0.0892074 0.0226945 0)
  (0.0787968 0.034164 0)
  (0.0798235 0.054111 0)
  (0.0719616 0.0492166 0)
  (0.0446139 0.0437744 0)
  (-0.136859 0.00135155 0)
  (0.0366468 -0.000990545 0)
  (0.022863 -0.0182652 0)
  (0.0319085 -0.0218254 0)
  (0.0415827 -0.0169975 0)
  (0.0481287 -0.0104445 0)
  (0.0507858 -0.0046723 0)
  (0.0513763 -0.00147696 0)
  (0.0514736 -0.000124868 0)
  (0.0516976 0.00052914 0)
  (0.0519899 0.00100528 0)
  (0.0522266 0.00153359 0)
  (0.0523686 0.00237394 0)
  (0.0522691 0.00384729 0)
  (0.0514457 0.00681457 0)
  (0.0475751 0.0138373 0)
  (0.042454 0.0207184 0)
  (-0.0110909 0.0306589 0)
  (0.15509 0.0169036 0)
  (-0.0875886 0.0283337 0)
  (0.00113314 0.040043 0)
  (-0.0225254 0.00947629 0)
  (-0.0134651 -0.0379616 0)
  (0.0089599 -0.0822277 0)
  (0.0295959 -0.0823347 0)
  (0.0500716 -0.0655052 0)
  (0.0660091 -0.0445367 0)
  (0.0757601 -0.0251303 0)
  (0.0799908 -0.00887818 0)
  (0.0799005 0.00481744 0)
  (0.0769745 0.0169237 0)
  (0.0728623 0.028353 0)
  (0.0677572 0.0400025 0)
  (0.0659761 0.053726 0)
  (0.0577427 0.0539708 0)
  (0.0431901 0.0682567 0)
  (-0.170384 0.0069682 0)
  (0.0607472 -0.0338843 0)
  (0.0460133 -0.0360519 0)
  (0.0492299 -0.031466 0)
  (0.0541829 -0.0233746 0)
  (0.0568856 -0.0152942 0)
  (0.054927 -0.0126263 0)
  (0.0504452 -0.0093304 0)
  (0.0470933 -0.00757818 0)
  (0.0452619 -0.00660676 0)
  (0.0441609 -0.00599345 0)
  (0.0434 -0.00552513 0)
  (0.0431048 -0.00495049 0)
  (0.0440525 -0.00370246 0)
  (0.0478063 7.70254e-05 0)
  (0.0470601 0.0168021 0)
  (0.0439405 0.0285548 0)
  (-0.0113531 0.0402321 0)
  (0.182262 0.0384091 0)
  (-0.10974 0.0355794 0)
  (0.0137075 0.0482441 0)
  (-0.018554 0.00942924 0)
  (-0.00546255 -0.0550294 0)
  (0.012752 -0.10115 0)
  (0.0270674 -0.10195 0)
  (0.0412099 -0.0814331 0)
  (0.0515469 -0.0545226 0)
  (0.0567597 -0.0296132 0)
  (0.0579399 -0.00935201 0)
  (0.0565011 0.00684779 0)
  (0.0544882 0.019958 0)
  (0.053103 0.0311749 0)
  (0.0524844 0.0416104 0)
  (0.0552324 0.0530613 0)
  (0.0605253 0.0605046 0)
  (0.0681209 0.0747963 0)
  (0.0867854 -0.0328429 0)
  (0.078946 -0.0266401 0)
  (0.0793349 -0.0381147 0)
  (0.0692737 -0.0381173 0)
  (0.0637467 -0.0319597 0)
  (0.0615365 -0.0235459 0)
  (0.0603597 -0.0138201 0)
  (0.0615368 -0.00816883 0)
  (0.0635751 -0.00540923 0)
  (0.0631361 -0.00359078 0)
  (0.0604056 -0.00232747 0)
  (0.0562849 -0.00135781 0)
  (0.0512059 -0.000539452 0)
  (0.0451413 0.000266047 0)
  (0.0376664 0.00128323 0)
  (0.0242797 0.00316881 0)
  (0.0244036 0.0234077 0)
  (0.0338997 0.0338526 0)
  (-0.0143725 0.043414 0)
  (0.199716 0.0672084 0)
  (-0.130536 0.0405939 0)
  (0.0258052 0.0549698 0)
  (-0.0151067 0.00999612 0)
  (0.00476569 -0.0724611 0)
  (0.0183847 -0.114688 0)
  (0.0266172 -0.114851 0)
  (0.033649 -0.0907989 0)
  (0.037589 -0.0587043 0)
  (0.0374742 -0.029627 0)
  (0.0348476 -0.00721734 0)
  (0.0317747 0.0092505 0)
  (0.0309796 0.0211642 0)
  (0.0325105 0.0306034 0)
  (0.0362004 0.0389913 0)
  (0.0435651 0.0475253 0)
  (0.0546776 0.0531054 0)
  (0.0696289 0.0547206 0)
  (0.0843008 0.0145607 0)
  (0.0854132 -0.00486343 0)
  (0.07774 -0.0221876 0)
  (0.0682603 -0.0276652 0)
  (0.0602249 -0.0249968 0)
  (0.0541129 -0.0186952 0)
  (0.0495371 -0.0109534 0)
  (0.0465052 -0.00320818 0)
  (0.0437094 0.00188901 0)
  (0.0402508 0.00478148 0)
  (0.0360433 0.00654488 0)
  (0.0314609 0.00785852 0)
  (0.0266446 0.00906861 0)
  (0.0215932 0.010427 0)
  (0.0165206 0.0121624 0)
  (0.00991206 0.0143216 0)
  (0.00994586 0.022441 0)
  (0.0265202 0.028881 0)
  (0.000146794 0.0315126 0)
  (0.104592 0.063998 0)
  (0.0788449 0.0582097 0)
  (-0.0761329 0.0513628 0)
  (0.269372 -0.00829688 0)
  (-0.151745 0.0433329 0)
  (0.0379079 0.0611704 0)
  (-0.0077764 0.00435698 0)
  (0.0186338 -0.0880357 0)
  (0.028364 -0.12415 0)
  (0.0295514 -0.120958 0)
  (0.028129 -0.0929951 0)
  (0.0245627 -0.0563786 0)
  (0.0184611 -0.0245466 0)
  (0.0117699 -0.00219942 0)
  (0.00830022 0.0115552 0)
  (0.00932442 0.0200648 0)
  (0.0132661 0.0266316 0)
  (0.019648 0.0322382 0)
  (0.0290003 0.0369682 0)
  (0.0412791 0.0381123 0)
  (0.0569961 0.0325741 0)
  (0.0673644 0.00977243 0)
  (0.0677562 -0.00879497 0)
  (0.0616328 -0.0188636 0)
  (0.0529653 -0.0210566 0)
  (0.0439734 -0.017935 0)
  (0.0359369 -0.0122325 0)
  (0.0292902 -0.00550894 0)
  (0.0236351 0.00116754 0)
  (0.0194287 0.00562794 0)
  (0.0157486 0.00819273 0)
  (0.0120525 0.00989499 0)
  (0.00827758 0.0113505 0)
  (0.00446023 0.0128347 0)
  (0.000785668 0.0144649 0)
  (-0.00205499 0.015994 0)
  (-0.00429004 0.0164153 0)
  (-0.00246106 0.0160876 0)
  (0.0115219 0.016016 0)
  (-0.0057476 0.00661381 0)
  (0.0363967 0.0376015 0)
  (0.0374646 0.0509634 0)
  (-0.0965254 0.0541994 0)
  (0.25563 -0.021799 0)
  (-0.163629 0.0462158 0)
  (0.046498 0.0640109 0)
  (0.0136002 -0.0239408 0)
  (0.0392912 -0.1033 0)
  (0.0449338 -0.128177 0)
  (0.036992 -0.118419 0)
  (0.0247526 -0.0862973 0)
  (0.0120485 -0.0464851 0)
  (-0.000268743 -0.0141154 0)
  (-0.00896582 0.0037511 0)
  (-0.0104898 0.0116466 0)
  (-0.00841459 0.0163578 0)
  (-0.00367815 0.0201304 0)
  (0.00374167 0.0233421 0)
  (0.0130751 0.025212 0)
  (0.0242395 0.023926 0)
  (0.0364242 0.017716 0)
  (0.0427648 0.00446159 0)
  (0.0421488 -0.00612049 0)
  (0.0363511 -0.0114876 0)
  (0.0278694 -0.01208 0)
  (0.018854 -0.00917602 0)
  (0.0106451 -0.00437964 0)
  (0.00332323 0.00119968 0)
  (-0.0016954 0.0061002 0)
  (-0.00480519 0.00922387 0)
  (-0.00740268 0.0112926 0)
  (-0.00987721 0.0129328 0)
  (-0.0122695 0.0143818 0)
  (-0.0143767 0.0156157 0)
  (-0.0157563 0.0163751 0)
  (-0.0158628 0.0160773 0)
  (-0.0147462 0.0138606 0)
  (-0.0117604 0.00996634 0)
  (-0.00645536 0.00732493 0)
  (-0.0143104 0.00506745 0)
  (0.00438152 0.0305896 0)
  (0.0181979 0.0629816 0)
  (-0.124529 0.0650822 0)
  (0.300957 -0.028656 0)
  (-0.178745 -0.0495969 0)
  (0.0487718 0.0201293 0)
  (0.0560448 -0.0693814 0)
  (0.0734232 -0.114502 0)
  (0.0700721 -0.120861 0)
  (0.0481183 -0.10277 0)
  (0.0210529 -0.0676814 0)
  (-0.00279246 -0.0271754 0)
  (-0.0184418 -0.00221289 0)
  (-0.0253362 0.00729265 0)
  (-0.0261473 0.0106003 0)
  (-0.023913 0.0124048 0)
  (-0.0195513 0.0138871 0)
  (-0.0134417 0.0150822 0)
  (-0.00602121 0.0155525 0)
  (0.0024492 0.0141341 0)
  (0.00982413 0.0101712 0)
  (0.0123658 0.00351597 0)
  (0.0103812 -0.00174833 0)
  (0.00497348 -0.00410642 0)
  (-0.00291419 -0.0033045 0)
  (-0.0107911 -0.000440823 0)
  (-0.017351 0.00308686 0)
  (-0.0215694 0.00636036 0)
  (-0.024135 0.00917218 0)
  (-0.0256845 0.0113897 0)
  (-0.026789 0.0132097 0)
  (-0.0276005 0.0147132 0)
  (-0.0280384 0.0158328 0)
  (-0.027857 0.0163663 0)
  (-0.0267285 0.0159829 0)
  (-0.0244535 0.0142881 0)
  (-0.0212679 0.0111141 0)
  (-0.0174894 0.00741518 0)
  (-0.0137012 0.0055209 0)
  (-0.0125922 0.00721455 0)
  (-0.00125506 0.0251625 0)
  (0.0285369 0.0630107 0)
  (-0.10939 0.0563076 0)
  (0.505685 0.00466779 0)
  (-0.194287 0.305214 0)
  (0.0584781 0.214412 0)
  (0.125454 -0.060644 0)
  (0.125228 -0.0986248 0)
  (0.100725 -0.0913978 0)
  (0.054241 -0.0672741 0)
  (0.00737006 -0.0332796 0)
  (-0.0255511 -0.000236659 0)
  (-0.0385925 0.0103819 0)
  (-0.0429245 0.0119957 0)
  (-0.0430827 0.0115924 0)
  (-0.0411454 0.011291 0)
  (-0.0379413 0.0113453 0)
  (-0.0338726 0.0115405 0)
  (-0.0293345 0.0115373 0)
  (-0.0248981 0.0109315 0)
  (-0.0217369 0.00945618 0)
  (-0.0214742 0.00706067 0)
  (-0.0240306 0.00519991 0)
  (-0.0282163 0.00471305 0)
  (-0.032869 0.00554869 0)
  (-0.0367035 0.00700929 0)
  (-0.0394063 0.00872016 0)
  (-0.0408938 0.0105096 0)
  (-0.04139 0.0123021 0)
  (-0.0411599 0.0139553 0)
  (-0.0404194 0.0154022 0)
  (-0.0392291 0.0165157 0)
  (-0.0375538 0.0171084 0)
  (-0.0353141 0.0169428 0)
  (-0.0324509 0.015766 0)
  (-0.0290317 0.0134182 0)
  (-0.025332 0.010072 0)
  (-0.0216421 0.00657232 0)
  (-0.0179984 0.00424667 0)
  (-0.0136477 0.00510538 0)
  (-0.00321656 0.0157081 0)
  (0.0261536 0.044676 0)
  (-0.083656 0.0334965 0)
  (0.496208 0.0308852 0)
  (0.196861 -0.116169 0)
  (0.160698 -0.0899998 0)
  (0.102362 -0.0504303 0)
  (0.0164088 -0.00594893 0)
  (-0.0438206 0.0222653 0)
  (-0.057389 0.0253003 0)
  (-0.0621306 0.0230045 0)
  (-0.0625226 0.0199493 0)
  (-0.0613452 0.0174895 0)
  (-0.0596031 0.015909 0)
  (-0.0575453 0.0150254 0)
  (-0.0552929 0.01459 0)
  (-0.0530176 0.0143851 0)
  (-0.0509976 0.014216 0)
  (-0.0496715 0.0139034 0)
  (-0.0495287 0.0133418 0)
  (-0.0504656 0.0129025 0)
  (-0.0518857 0.0129225 0)
  (-0.0531518 0.0134212 0)
  (-0.053826 0.0141499 0)
  (-0.0537903 0.0149397 0)
  (-0.0530468 0.0157121 0)
  (-0.0516545 0.0164242 0)
  (-0.0496893 0.0169721 0)
  (-0.0472308 0.0172495 0)
  (-0.0443449 0.017128 0)
  (-0.041107 0.0164612 0)
  (-0.0376281 0.0150944 0)
  (-0.0340837 0.0128982 0)
  (-0.0307442 0.00984978 0)
  (-0.0279735 0.00615497 0)
  (-0.0261339 0.00228875 0)
  (-0.0253159 -0.00130789 0)
  (-0.0240445 -0.00102939 0)
  (-0.0188166 0.00758497 0)
  (-0.0116708 0.0246026 0)
  (-0.102713 0.0182 0)
  (0.295193 0.0502212 0)
  (-0.163321 -0.072011 0)
  (-0.0665751 -0.0590946 0)
  (-0.0930059 -0.0455015 0)
  (-0.0965997 -0.039329 0)
  (-0.0950153 -0.0426208 0)
  (-0.0883061 -0.0543573 0)
  (-0.0836838 -0.0637067 0)
  (-0.0804171 -0.0697892 0)
  (-0.0780159 -0.0733093 0)
  (-0.076134 -0.074969 0)
  (-0.0744714 -0.0753616 0)
  (-0.0728228 -0.07495 0)
  (-0.0710899 -0.0741347 0)
  (-0.0692896 -0.073327 0)
  (-0.0675699 -0.0729426 0)
  (-0.066153 -0.0732388 0)
  (-0.0651107 -0.0740152 0)
  (-0.0643008 -0.0748718 0)
  (-0.0634858 -0.0755073 0)
  (-0.0624604 -0.0758036 0)
  (-0.0610999 -0.0756992 0)
  (-0.0593229 -0.0751701 0)
  (-0.0570727 -0.0742451 0)
  (-0.054321 -0.0730368 0)
  (-0.05108 -0.0717073 0)
  (-0.0474108 -0.0704701 0)
  (-0.0434395 -0.0695911 0)
  (-0.0393745 -0.069378 0)
  (-0.0355251 -0.0701347 0)
  (-0.0323168 -0.0720475 0)
  (-0.0302747 -0.0749834 0)
  (-0.0298847 -0.0781832 0)
  (-0.0313457 -0.0796889 0)
  (-0.0329189 -0.0801161 0)
  (-0.0324424 -0.0726725 0)
  (-0.0380626 -0.0563149 0)
  (-0.0825066 -0.0537657 0)
  (0.24184 -0.0484536 0)
  (-0.224197 -0.174066 0)
  (-0.17502 0.0192648 0)
  (-0.16359 0.254956 0)
  (-0.158883 0.230714 0)
  (-0.15748 0.224027 0)
  (-0.145856 0.229078 0)
  (-0.130136 0.23823 0)
  (-0.115557 0.249186 0)
  (-0.105318 0.257231 0)
  (-0.0985164 0.26227 0)
  (-0.0940287 0.265166 0)
  (-0.0909196 0.26666 0)
  (-0.0885168 0.267284 0)
  (-0.086366 0.267427 0)
  (-0.0841712 0.267433 0)
  (-0.0817767 0.267659 0)
  (-0.0791786 0.268437 0)
  (-0.0764991 0.269915 0)
  (-0.0738557 0.271924 0)
  (-0.0712631 0.274148 0)
  (-0.0686548 0.276321 0)
  (-0.0659451 0.278283 0)
  (-0.0630561 0.279931 0)
  (-0.0599155 0.28121 0)
  (-0.0564679 0.282105 0)
  (-0.0526993 0.282633 0)
  (-0.0486589 0.282819 0)
  (-0.0444729 0.282701 0)
  (-0.0403529 0.282343 0)
  (-0.0365913 0.281858 0)
  (-0.0335468 0.281428 0)
  (-0.0316396 0.281294 0)
  (-0.0313324 0.281675 0)
  (-0.0327565 0.282382 0)
  (-0.0344777 0.281429 0)
  (-0.0342275 0.281967 0)
  (-0.0350079 0.277335 0)
  (-0.0550647 0.270222 0)
  (-0.109234 0.28175 0)
  (0.32295 0.329133 0)
)
;

boundaryField
{
  floor
  {
    type noSlip;
  }
  ceiling
  {
    type noSlip;
  }
  sWall
  {
    type noSlip;
  }
  nWall
  {
    type noSlip;
  }
  sideWalls
  {
    type empty;
  }
  glass1
  {
    type noSlip;
  }
  glass2
  {
    type noSlip;
  }
  sun
  {
    type noSlip;
  }
  heatsource1
  {
    type noSlip;
  }
  heatsource2
  {
    type noSlip;
  }
  Table_master
  {
    type noSlip;
  }
  Table_slave
  {
    type noSlip;
  }
  inlet
  {
    type fixedValue;
    value uniform (0.277164 -0.114805 0);
  }
  outlet
  {
    type zeroGradient;
  }
} 	// ************************************************************************* //

