/*--------------------------------*- C++ -*----------------------------------*\
  =========                 |
  \\      /  F ield         | OpenFOAM: The Open Source CFD Toolbox
   \\    /   O peration     | Website:  https://openfoam.org
    \\  /    A nd           | Version:  6
     \\/     M anipulation  |
\*---------------------------------------------------------------------------*/
FoamFile
{
    version     2.0;
    format      ascii;
    class       volScalarField;
    location    "900";
    object      nut;
}
// * * * * * * * * * * * * * * * * * * * * * * * * * * * * * * * * * * * * * //

dimensions      [0 2 -1 0 0 0 0];

internalField   nonuniform List<scalar> 
459
(
0.00106072
0.0011573
0.00117759
0.00123355
0.00128509
0.00133296
0.00137936
0.00142695
0.00146207
0.00147962
0.00147441
0.00144286
0.00138495
0.00130687
0.00122237
0.000465973
0.000575095
0.000641348
0.000630484
0.000605072
0.000574347
0.000538722
0.00050425
0.000473082
0.000445379
0.000420798
0.000398902
0.000379426
0.00036187
0.000345623
0.000329863
0.00031335
0.000301621
0.000274852
0.00145044
0.00350157
0.00333971
0.00388724
0.00442032
0.00495734
0.00544334
0.00579741
0.00612186
0.00639094
0.00656457
0.00659294
0.00640163
0.00581237
0.00424295
0.00124245
0.000769898
0.000513036
0.00104603
0.00141581
0.00166658
0.00178762
0.00177262
0.00145575
0.00126659
0.0011287
0.00102158
0.000935551
0.000865008
0.00080288
0.000744847
0.000688843
0.000639594
0.000596374
0.000699175
0.000361596
0.00177615
0.00478636
0.00413296
0.00522646
0.00576878
0.00616951
0.00647849
0.00670895
0.00695969
0.00722537
0.00747623
0.00766236
0.00772989
0.00760907
0.00711296
0.00559454
0.00120274
0.00104435
0.00145694
0.00181883
0.00212238
0.00231405
0.00223816
0.000770397
0.000682344
0.000611585
0.000554396
0.00050771
0.000469188
0.000437151
0.000410504
0.00038875
0.000417263
0.000480032
0.000781961
0.000418679
0.00209016
0.00614895
0.00413278
0.00554812
0.00605741
0.00622982
0.00632152
0.00641917
0.00660327
0.00686315
0.00717406
0.00747221
0.00770442
0.00782211
0.00773867
0.00724579
0.00559709
0.00146117
0.00181133
0.00230746
0.00274803
0.0030676
0.00324481
0.00302941
0.00086612
0.000790229
0.000735957
0.000694708
0.000659729
0.000627583
0.00059679
0.000564498
0.000526955
0.000494492
0.000503256
0.000887639
0.000462649
0.00241115
0.0079072
0.00455397
0.00531355
0.00601266
0.00608233
0.00601476
0.00602794
0.00618896
0.00644646
0.0067962
0.00714936
0.00743625
0.00758977
0.00757655
0.00735282
0.00676988
0.00554741
0.00510095
0.0049082
0.00479647
0.00471147
0.00462531
0.00444433
0.00378682
0.00347464
0.00329566
0.00315696
0.0030072
0.00278528
0.00247914
0.00210291
0.00168074
0.00124773
0.000918271
0.000913825
0.000615316
0.000574033
0.000696118
0.000780161
0.00275158
0.00982105
0.00632052
0.00523823
0.00574711
0.0059993
0.00587711
0.00590963
0.00603791
0.0062709
0.00661116
0.00699428
0.00731336
0.00747155
0.0074267
0.00720285
0.00686745
0.00648537
0.00623052
0.00603012
0.00583253
0.00564159
0.00545976
0.00526041
0.00497981
0.0047315
0.0045092
0.00429236
0.00406754
0.00381885
0.00349546
0.00308353
0.002582
0.00201782
0.001512
0.00112552
0.000849793
0.000724701
0.00103789
0.000812213
0.00306309
0.0111728
0.00893203
0.00678916
0.00636894
0.00636922
0.00620955
0.00607747
0.00609125
0.00629786
0.00666566
0.00709095
0.00743299
0.00757322
0.00747075
0.00718626
0.00686884
0.00665734
0.00655216
0.00641944
0.00620567
0.00593593
0.00563636
0.00532452
0.00501522
0.0047377
0.00448429
0.00424525
0.00402008
0.0038147
0.00362878
0.00335236
0.00295369
0.00246424
0.00199117
0.00156391
0.00125167
0.00115128
0.00117386
0.000914845
0.00312466
0.0099994
0.00885621
0.00814485
0.00761666
0.00697263
0.00639176
0.00609692
0.00614073
0.00647263
0.00696994
0.00746814
0.00779732
0.00784505
0.00761031
0.00721191
0.00686214
0.00669772
0.00661068
0.00635688
0.00596177
0.00550557
0.00505617
0.00466151
0.00433795
0.00407411
0.00384959
0.00365653
0.00349881
0.00338577
0.00332711
0.00329803
0.00307464
0.00274894
0.00245926
0.00230432
0.00237833
0.00273936
0.00340159
0.00144197
0.00304256
0.00361238
0.004021
0.00414803
0.00421028
0.00437907
0.0047544
0.00536688
0.00616225
0.00700684
0.00774279
0.00822694
0.00834187
0.00806748
0.00753733
0.0070099
0.00668086
0.00640986
0.00605926
0.00556356
0.00499413
0.00445442
0.0040074
0.00366314
0.00339914
0.00318653
0.00300517
0.00284551
0.00270247
0.00257068
0.00244389
0.00232329
0.00222553
0.00215304
0.00212661
0.00214026
0.00213668
0.0020609
0.00193215
0.0013609
0.00152052
0.00309285
0.00475673
0.00618629
0.00734986
0.0082985
0.00895865
0.00928504
0.0092892
0.00899054
0.00837833
0.00756248
0.0067446
0.00614118
0.00569184
0.00520773
0.00465975
0.00410974
0.00362326
0.00324096
0.00295385
0.00273436
0.00255931
0.00241454
0.00229378
0.0021955
0.00212011
0.00206883
0.00204491
0.00204731
0.00206288
0.00208901
0.00211919
0.00213034
0.00208379
0.00196459
0.00178368
0.00113564
0.00199363
0.00498043
0.00739632
0.00833363
0.00886551
0.0091033
0.00900197
0.00859001
0.00794639
0.00716881
0.00636464
0.00563569
0.00501319
0.00447955
0.00397667
0.00351979
0.00315075
0.00287463
0.00267115
0.0025093
0.00237036
0.00224658
0.0021421
0.00205797
0.00199456
0.00195229
0.00193066
0.00192738
0.00194939
0.00199426
0.00205882
0.00213644
0.00221188
0.00226483
0.00225219
0.00228428
0.00233354
0.00115822
0.00177548
0.00188169
0.00195713
0.002104
0.00203345
0.00194483
0.00188768
0.0018145
0.00171159
0.0015816
0.00143181
0.00127263
0.00111604
0.000975445
0.000864709
0.000786066
0.000732565
0.000696375
0.000671858
0.000655476
0.000645204
0.000639807
0.000639118
0.000643477
0.000652131
0.000665076
0.000682584
0.000705013
0.000732919
0.000767285
0.000807071
0.000852294
0.000903524
0.000961305
0.00102536
0.00110083
0.00112815
0.00110093
0.00103461
0.000965481
)
;

boundaryField
{
    floor
    {
        type            nutkWallFunction;
        Cmu             0.09;
        kappa           0.41;
        E               9.8;
        value           nonuniform List<scalar> 
29
(
0.000146586
5.53385e-05
6.9222e-05
7.749e-05
7.61413e-05
7.2976e-05
6.91274e-05
6.46333e-05
6.02496e-05
5.62542e-05
5.26752e-05
4.94762e-05
4.66065e-05
4.40371e-05
4.17066e-05
3.95367e-05
3.74192e-05
3.51864e-05
3.35911e-05
2.99187e-05
2.99186e-05
4.167e-05
4.91994e-05
5.49097e-05
0.000146586
5.53384e-05
6.13708e-05
0.000125932
0.000173771
)
;
    }
    ceiling
    {
        type            nutkWallFunction;
        Cmu             0.09;
        kappa           0.41;
        E               9.8;
        value           nonuniform List<scalar> 
43
(
0.000208681
0.000220351
0.000228598
0.000244652
0.000237035
0.000227393
0.000221147
0.000213114
0.000201752
0.000187289
0.000170458
0.000152354
0.000134294
0.000117831
0.000104673
9.52091e-05
8.87077e-05
8.42782e-05
8.12618e-05
7.92392e-05
7.79679e-05
7.7299e-05
7.72138e-05
7.77545e-05
7.88263e-05
8.04263e-05
8.25844e-05
8.53394e-05
8.87524e-05
9.29345e-05
9.77488e-05
0.000103187
0.000109308
0.000116163
0.000123707
0.000132527
0.000135703
0.000132538
0.000124793
0.000116657
0.000344579
0.00040349
0.000232453
)
;
    }
    sWall
    {
        type            nutkWallFunction;
        Cmu             0.09;
        kappa           0.41;
        E               9.8;
        value           uniform 0.000208739;
    }
    nWall
    {
        type            nutkWallFunction;
        Cmu             0.09;
        kappa           0.41;
        E               9.8;
        value           nonuniform List<scalar> 6(9.44959e-05 9.83698e-05 0.000110657 0.000136582 0.000139198 0.000116662);
    }
    sideWalls
    {
        type            empty;
    }
    glass1
    {
        type            nutkWallFunction;
        Cmu             0.09;
        kappa           0.41;
        E               9.8;
        value           nonuniform List<scalar> 9(0.000127943 0.000172776 0.000209195 0.000243617 0.000278233 0.000314416 0.000347118 0.00035355 0.000345);
    }
    glass2
    {
        type            nutkWallFunction;
        Cmu             0.09;
        kappa           0.41;
        E               9.8;
        value           nonuniform List<scalar> 2(0.000171676 0.000162486);
    }
    sun
    {
        type            nutkWallFunction;
        Cmu             0.09;
        kappa           0.41;
        E               9.8;
        value           nonuniform List<scalar> 
14
(
0.000127849
0.000139078
0.000141423
0.00014787
0.000153779
0.000159243
0.000164518
0.000169908
0.000173873
0.00017585
0.000175263
0.000171706
0.000165152
0.000156267
)
;
    }
    heatsource1
    {
        type            nutkWallFunction;
        Cmu             0.09;
        kappa           0.41;
        E               9.8;
        value           nonuniform List<scalar> 3(6.90911e-05 8.42487e-05 9.44959e-05);
    }
    heatsource2
    {
        type            nutkWallFunction;
        Cmu             0.09;
        kappa           0.41;
        E               9.8;
        value           nonuniform List<scalar> 4(0.000148889 9.32547e-05 9.32547e-05 0.000144323);
    }
    Table_master
    {
        type            nutkWallFunction;
        Cmu             0.09;
        kappa           0.41;
        E               9.8;
        value           nonuniform List<scalar> 9(9.33106e-05 8.25548e-05 7.37911e-05 6.66185e-05 6.06959e-05 5.57584e-05 5.16135e-05 4.8137e-05 4.52775e-05);
    }
    Table_slave
    {
        type            nutkWallFunction;
        Cmu             0.09;
        kappa           0.41;
        E               9.8;
        value           nonuniform List<scalar> 9(0.00010484 9.57125e-05 8.91221e-05 8.40746e-05 7.97663e-05 7.57827e-05 7.19435e-05 6.78915e-05 6.31447e-05);
    }
    inlet
    {
        type            calculated;
        value           uniform 0.000100623;
    }
    outlet
    {
        type            calculated;
        value           nonuniform List<scalar> 2(0.00177548 0.00188169);
    }
}


// ************************************************************************* //
