/*--------------------------------*- C++ -*----------------------------------*\
  =========                 |
  \\      /  F ield         | OpenFOAM: The Open Source CFD Toolbox
   \\    /   O peration     | Website:  https://openfoam.org
    \\  /    A nd           | Version:  6
     \\/     M anipulation  |
\*---------------------------------------------------------------------------*/
FoamFile
{
    version     2.0;
    format      ascii;
    class       volScalarField;
    location    "1800";
    object      nut;
}
// * * * * * * * * * * * * * * * * * * * * * * * * * * * * * * * * * * * * * //

dimensions      [0 2 -1 0 0 0 0];

internalField   nonuniform List<scalar> 
459
(
0.00108032
0.00118021
0.00120207
0.00125982
0.00131328
0.00136331
0.00141233
0.0014603
0.00149417
0.00150848
0.00149814
0.00146001
0.00139391
0.00130542
0.00120838
0.000473979
0.000579793
0.000651898
0.000647426
0.000624932
0.000595536
0.000558852
0.000522542
0.000489563
0.000460256
0.000434274
0.000411164
0.000390605
0.000372136
0.000355102
0.000338652
0.000321527
0.000309288
0.000281723
0.00147215
0.00359615
0.003441
0.00400462
0.00455864
0.00511282
0.00560233
0.00597067
0.00630412
0.00657561
0.00674712
0.00677534
0.00659437
0.00603916
0.00451404
0.00123175
0.000725731
0.000512958
0.00107585
0.00148405
0.0017746
0.00192697
0.00191824
0.00154418
0.00133269
0.00118111
0.00106452
0.000971652
0.000895911
0.000830405
0.000769363
0.000710316
0.000657949
0.000612508
0.000717955
0.000367965
0.00179829
0.00491401
0.00427156
0.00535635
0.00589822
0.00630076
0.00661384
0.00686353
0.00713447
0.00741702
0.00767791
0.00786965
0.00793969
0.00781061
0.00727764
0.00561223
0.00122407
0.00102421
0.00146963
0.00187946
0.00224187
0.00248444
0.00241177
0.000800019
0.000706563
0.000631512
0.000570954
0.000521605
0.000480957
0.000447213
0.000419222
0.000396503
0.000427
0.000493116
0.000807171
0.000425511
0.00211129
0.00628193
0.00428681
0.00567136
0.00614797
0.00631106
0.00641768
0.00654723
0.00676363
0.00705254
0.00738001
0.0076869
0.00791899
0.00801539
0.00790274
0.00733059
0.00537549
0.00146572
0.00181814
0.002345
0.00284803
0.0032401
0.00347339
0.0032457
0.000902782
0.000821964
0.000764059
0.000719913
0.000682435
0.000648096
0.000615163
0.000580659
0.000540691
0.000506797
0.000517464
0.000921434
0.000470092
0.00243041
0.00803706
0.00471599
0.00546322
0.00609372
0.00613721
0.00608764
0.00615877
0.00635031
0.00664305
0.00700951
0.00736835
0.00764457
0.00777693
0.00774342
0.00750151
0.00688324
0.00569022
0.00527969
0.00513998
0.00508613
0.00504778
0.00498388
0.00478398
0.00403697
0.00367808
0.00346941
0.00330859
0.00313953
0.00289648
0.00256816
0.00216929
0.00172581
0.00127839
0.000942517
0.000945652
0.00063019
0.000579518
0.000701688
0.000787581
0.00276858
0.00994757
0.00649181
0.00544443
0.00591812
0.00613102
0.00599977
0.00605876
0.00620262
0.00646387
0.00683175
0.00722362
0.00752689
0.00765395
0.007584
0.00736321
0.00706745
0.00675774
0.00657973
0.00644373
0.00628951
0.00611561
0.00592432
0.00569098
0.00535328
0.00505279
0.00478672
0.00453165
0.00427173
0.00398906
0.00363277
0.00318972
0.00266005
0.00207388
0.00155545
0.00116408
0.00087876
0.000747565
0.0010664
0.000821795
0.00307613
0.011285
0.00909417
0.00702141
0.00663957
0.00655799
0.00633949
0.00619991
0.00624361
0.00649625
0.00690254
0.00733867
0.00765784
0.00775672
0.00762413
0.00735654
0.00712367
0.00703911
0.00703835
0.00696124
0.00676563
0.0064891
0.00616528
0.00581133
0.00544146
0.00509834
0.00478314
0.00448866
0.00421552
0.00397054
0.00375374
0.00345803
0.00304418
0.00253925
0.00205378
0.00161947
0.00130183
0.00120482
0.0012301
0.000936621
0.00313559
0.0100426
0.00892327
0.00824028
0.00763676
0.00693823
0.00638972
0.00616964
0.0062999
0.00670608
0.00724771
0.00774558
0.00803147
0.00802382
0.00776175
0.00741211
0.00719792
0.00718766
0.00717869
0.00694727
0.00655757
0.00608539
0.00559073
0.00512255
0.00471235
0.00436647
0.00407236
0.00382354
0.00362361
0.00348066
0.00340191
0.00336183
0.00315499
0.00283108
0.00254597
0.00240062
0.00249448
0.00287634
0.00353325
0.0014617
0.00305215
0.00361879
0.0040172
0.00411681
0.00419971
0.00442949
0.00489503
0.00560562
0.00647871
0.00736281
0.00809483
0.00852146
0.00854037
0.00819697
0.00767794
0.00731859
0.00710865
0.00691988
0.00661108
0.0061324
0.00555343
0.00496117
0.00442667
0.00398474
0.00363425
0.0033546
0.00312521
0.00293359
0.00277158
0.00263072
0.00250187
0.00238338
0.0022896
0.00222041
0.00219422
0.00220384
0.00219138
0.00210379
0.00196655
0.00137461
0.00148493
0.00306073
0.00497137
0.00656873
0.00782065
0.00878008
0.00938931
0.00963468
0.00955116
0.00913352
0.00847202
0.00763552
0.00691948
0.00646982
0.00610246
0.00565664
0.00511784
0.00454683
0.00400729
0.00354202
0.00317383
0.00288983
0.00266885
0.00249441
0.0023568
0.00225093
0.00217406
0.00212467
0.00210417
0.00211037
0.00212946
0.00215768
0.00218743
0.00219481
0.00214124
0.00201441
0.00182348
0.00114268
0.00198683
0.00512743
0.00766872
0.00864173
0.00913746
0.00929973
0.00910099
0.00860096
0.00790351
0.00711106
0.0063599
0.00568652
0.00514078
0.00467566
0.00420861
0.00375152
0.00334825
0.00302095
0.0027674
0.00257275
0.00241461
0.00228166
0.00216912
0.00208064
0.00201754
0.0019788
0.00196267
0.00196654
0.00199579
0.00204744
0.00211801
0.00220016
0.00227776
0.00233134
0.00231355
0.00233917
0.00237173
0.00116499
0.00177781
0.00188384
0.00195897
0.00210997
0.00204109
0.00195711
0.00190254
0.00182557
0.00171509
0.00157764
0.00142278
0.00126156
0.00110483
0.000969956
0.000867848
0.000795304
0.000743991
0.000707125
0.000680505
0.000661682
0.000649127
0.000641925
0.000639514
0.000642112
0.000650162
0.000663183
0.000681088
0.000704213
0.000733116
0.000768668
0.000809885
0.000856822
0.000909989
0.000969833
0.00103588
0.00111439
0.00113969
0.00111042
0.00104317
0.000971772
)
;

boundaryField
{
    floor
    {
        type            nutkWallFunction;
        Cmu             0.09;
        kappa           0.41;
        E               9.8;
        value           nonuniform List<scalar> 
29
(
0.000144975
5.63712e-05
6.98131e-05
7.87981e-05
7.82445e-05
7.54527e-05
7.17858e-05
6.71787e-05
6.25819e-05
5.83725e-05
5.46021e-05
5.12344e-05
4.82175e-05
4.55155e-05
4.30725e-05
4.08057e-05
3.86031e-05
3.62954e-05
3.46361e-05
3.08668e-05
3.08667e-05
4.25182e-05
5.00923e-05
5.587e-05
0.000144975
5.63712e-05
6.13619e-05
0.00012357
0.000174284
)
;
    }
    ceiling
    {
        type            nutkWallFunction;
        Cmu             0.09;
        kappa           0.41;
        E               9.8;
        value           nonuniform List<scalar> 
43
(
0.000208938
0.000220586
0.000228798
0.0002453
0.000237869
0.000228736
0.000222778
0.000214334
0.000202141
0.000186847
0.000169437
0.000151085
0.000132991
0.000117184
0.00010505
9.63279e-05
9.01025e-05
8.55985e-05
8.23289e-05
8.00078e-05
7.84552e-05
7.75629e-05
7.72639e-05
7.7586e-05
7.85833e-05
8.01931e-05
8.24007e-05
8.52415e-05
8.87766e-05
9.31025e-05
9.80883e-05
0.00010373
0.000110077
0.00011717
0.00012494
0.000134104
0.000137041
0.000133642
0.000125795
0.0001174
0.000345575
0.000404139
0.000231708
)
;
    }
    sWall
    {
        type            nutkWallFunction;
        Cmu             0.09;
        kappa           0.41;
        E               9.8;
        value           uniform 0.000208996;
    }
    nWall
    {
        type            nutkWallFunction;
        Cmu             0.09;
        kappa           0.41;
        E               9.8;
        value           nonuniform List<scalar> 6(9.53943e-05 9.95243e-05 0.000113243 0.000137398 0.00013998 0.000117405);
    }
    sideWalls
    {
        type            empty;
    }
    glass1
    {
        type            nutkWallFunction;
        Cmu             0.09;
        kappa           0.41;
        E               9.8;
        value           nonuniform List<scalar> 9(0.000130239 0.000175229 0.000211642 0.00024591 0.000280292 0.000316208 0.000348476 0.000354684 0.000345999);
    }
    glass2
    {
        type            nutkWallFunction;
        Cmu             0.09;
        kappa           0.41;
        E               9.8;
        value           nonuniform List<scalar> 2(0.000173904 0.000164044);
    }
    sun
    {
        type            nutkWallFunction;
        Cmu             0.09;
        kappa           0.41;
        E               9.8;
        value           nonuniform List<scalar> 
14
(
0.000130138
0.000141728
0.000144249
0.000150885
0.000157
0.000162696
0.000168255
0.000173674
0.000177488
0.000179096
0.000177934
0.00017364
0.000166167
0.000156101
)
;
    }
    heatsource1
    {
        type            nutkWallFunction;
        Cmu             0.09;
        kappa           0.41;
        E               9.8;
        value           nonuniform List<scalar> 3(6.97802e-05 8.49322e-05 9.53941e-05);
    }
    heatsource2
    {
        type            nutkWallFunction;
        Cmu             0.09;
        kappa           0.41;
        E               9.8;
        value           nonuniform List<scalar> 4(0.000147659 8.7876e-05 8.7876e-05 0.000146776);
    }
    Table_master
    {
        type            nutkWallFunction;
        Cmu             0.09;
        kappa           0.41;
        E               9.8;
        value           nonuniform List<scalar> 9(9.68974e-05 8.55306e-05 7.62726e-05 6.87057e-05 6.2467e-05 5.72736e-05 5.29208e-05 4.92789e-05 4.63003e-05);
    }
    Table_slave
    {
        type            nutkWallFunction;
        Cmu             0.09;
        kappa           0.41;
        E               9.8;
        value           nonuniform List<scalar> 9(0.000109218 9.95432e-05 9.25432e-05 8.71646e-05 8.25675e-05 7.83287e-05 7.42382e-05 6.99239e-05 6.48872e-05);
    }
    inlet
    {
        type            calculated;
        value           uniform 0.000100623;
    }
    outlet
    {
        type            calculated;
        value           nonuniform List<scalar> 2(0.00177781 0.00188384);
    }
}


// ************************************************************************* //
