/*--------------------------------*- C++ -*----------------------------------*\
  =========                 |
  \\      /  F ield         | OpenFOAM: The Open Source CFD Toolbox
   \\    /   O peration     | Website:  https://openfoam.org
    \\  /    A nd           | Version:  6
     \\/     M anipulation  |
\*---------------------------------------------------------------------------*/
FoamFile
{
    version     2.0;
    format      ascii;
    class       volScalarField;
    location    "500";
    object      nut;
}
// * * * * * * * * * * * * * * * * * * * * * * * * * * * * * * * * * * * * * //

dimensions      [0 2 -1 0 0 0 0];

internalField   nonuniform List<scalar> 
459
(
0.000659994
0.000736654
0.000774705
0.000820699
0.000865362
0.000912276
0.000958579
0.000998359
0.00102639
0.00103494
0.00098922
0.000913966
0.000822647
0.000727811
0.000636018
0.00039711
0.000543054
0.000601359
0.00061321
0.00060983
0.000593907
0.000562073
0.000527611
0.000495668
0.000467028
0.000441439
0.000418687
0.000398267
0.000379547
0.000361781
0.000343942
0.00032439
0.000294567
0.000263267
0.000820162
0.00206328
0.00208046
0.00243053
0.00279784
0.00310927
0.00338361
0.00366655
0.0039448
0.00419132
0.00432798
0.00419426
0.00384409
0.00305328
0.00197741
0.000745341
0.000615735
0.000600371
0.00203393
0.00210357
0.00239378
0.00256613
0.00245862
0.00176108
0.00147137
0.00128385
0.00114692
0.00104155
0.000953846
0.000874426
0.000797638
0.000719604
0.000649599
0.000606525
0.000495131
0.000314169
0.000954326
0.00282827
0.00265048
0.00299347
0.0032089
0.00337004
0.00354117
0.00377962
0.00412161
0.00454638
0.0049384
0.00506426
0.00493731
0.00448738
0.00357284
0.00221469
0.000715459
0.000641459
0.00177228
0.00243154
0.00300641
0.00333458
0.00300899
0.000753759
0.000660139
0.000585383
0.00052596
0.000478364
0.000439947
0.000408983
0.000384439
0.000366484
0.00041549
0.000510636
0.000536135
0.000341521
0.00108218
0.00339382
0.0027518
0.00305794
0.00308295
0.00310084
0.0031799
0.00337373
0.00377325
0.00432946
0.00485678
0.0051452
0.00520611
0.00503704
0.00450014
0.00350261
0.00182861
0.000805404
0.00124869
0.00203804
0.00299194
0.00374901
0.00412646
0.00366052
0.000828023
0.000754435
0.000703316
0.000665323
0.00063396
0.000604047
0.000575535
0.000545243
0.000509581
0.000478032
0.00050268
0.000600187
0.000380771
0.0012149
0.0040635
0.00284924
0.00305495
0.00299531
0.00292849
0.00293733
0.00309397
0.00354876
0.00417244
0.00473979
0.00509094
0.005219
0.00517812
0.00493854
0.00443173
0.00363055
0.00335666
0.00382377
0.00440098
0.00488401
0.00517375
0.0052383
0.00497928
0.00401936
0.00358765
0.00335701
0.00320156
0.00305894
0.00288548
0.00259573
0.00221225
0.00175937
0.00130563
0.00097205
0.000868423
0.000611391
0.000433963
0.000437464
0.000441756
0.00136142
0.00487248
0.00345877
0.00316
0.00317474
0.00297741
0.00288831
0.00302174
0.00348692
0.00415651
0.00476681
0.00513191
0.00525938
0.00527613
0.0052665
0.005219
0.00515319
0.00541793
0.00581198
0.00607825
0.00617735
0.00611244
0.00591073
0.00559211
0.00515823
0.00481696
0.00456158
0.00434774
0.00414249
0.00391706
0.00362658
0.00323809
0.00275774
0.00222154
0.00172224
0.00139693
0.00108657
0.000868361
0.000995645
0.000587938
0.00150235
0.00549878
0.00459883
0.00375292
0.00355332
0.00316758
0.00293005
0.00305094
0.0035747
0.00431694
0.00497098
0.0053362
0.00545829
0.0055533
0.00576166
0.00599608
0.00624546
0.00657448
0.00679406
0.00680482
0.00663646
0.00633098
0.00593959
0.00551673
0.00511729
0.00480819
0.00456527
0.00435481
0.00415516
0.00394639
0.00371886
0.0034769
0.00316438
0.0027762
0.00235136
0.00198273
0.0016316
0.00134406
0.00130502
0.000704764
0.00154149
0.00504745
0.00447877
0.00410664
0.0035914
0.00306372
0.00285562
0.00312457
0.00382123
0.00467713
0.00535836
0.00569774
0.00582421
0.00599451
0.00619464
0.00637962
0.00660123
0.00679414
0.00682818
0.00664036
0.00628576
0.00582826
0.00533894
0.0048875
0.00452459
0.00425564
0.00404558
0.00386454
0.00369391
0.00351906
0.00333988
0.00318588
0.00308686
0.00295208
0.00273643
0.0025381
0.00233348
0.00199703
0.00219232
0.000919874
0.00151897
0.00180214
0.00197275
0.00198594
0.00197573
0.00208128
0.00250362
0.00331331
0.0043536
0.00530276
0.00590013
0.00611453
0.00615709
0.0060542
0.00599429
0.00604498
0.00613852
0.00616255
0.00604133
0.00577631
0.0053973
0.00498054
0.00459218
0.00426897
0.00401543
0.00380726
0.00361701
0.00342911
0.00323375
0.00301473
0.00275536
0.0024744
0.00222895
0.00204707
0.0019034
0.00177409
0.00165594
0.00154852
0.00147204
0.000966211
0.000437176
0.000847897
0.00150311
0.00242802
0.00358497
0.00475722
0.00568148
0.00618017
0.00631753
0.00604247
0.00573901
0.00555415
0.00548526
0.00547338
0.00545322
0.00537559
0.00523182
0.00504871
0.00485958
0.00468366
0.00452382
0.00437355
0.00422283
0.00405431
0.00385473
0.00361615
0.00334057
0.00304185
0.00273479
0.00242887
0.00216285
0.0019575
0.00181879
0.00173054
0.00165867
0.00157205
0.00148159
0.00105351
0.00115845
0.00413007
0.00573717
0.00658798
0.00681719
0.00687434
0.0067593
0.00644695
0.00599561
0.0056036
0.00536061
0.00524889
0.00520873
0.00519699
0.0051903
0.00517759
0.00515636
0.0051308
0.00510667
0.00508644
0.00506615
0.00503688
0.00498936
0.00491643
0.00481036
0.00465001
0.00441781
0.00412021
0.00376879
0.00337775
0.0029905
0.00263841
0.00234605
0.00211929
0.00194133
0.00180757
0.00229353
0.00115597
0.00140041
0.00147627
0.00155523
0.00181551
0.00178035
0.00168694
0.00159399
0.00152195
0.00145192
0.0013799
0.00131502
0.0012704
0.00124655
0.00123624
0.0012336
0.00123461
0.00123645
0.00123733
0.0012367
0.0012349
0.00123242
0.00122948
0.00122594
0.00122137
0.00121497
0.00120522
0.00118961
0.00116751
0.00114046
0.00110916
0.00107624
0.00104573
0.0010197
0.00100055
0.000989435
0.000985139
0.00098156
0.000966129
0.000964071
0.000945076
)
;

boundaryField
{
    floor
    {
        type            nutkWallFunction;
        Cmu             0.09;
        kappa           0.41;
        E               9.8;
        value           nonuniform List<scalar> 
29
(
7.68501e-05
4.64277e-05
6.52133e-05
7.2538e-05
7.40155e-05
7.35944e-05
7.16069e-05
6.76138e-05
6.326e-05
5.9193e-05
5.5519e-05
5.22126e-05
4.92527e-05
4.65788e-05
4.41122e-05
4.1757e-05
3.93771e-05
3.67504e-05
3.27037e-05
2.83981e-05
2.8398e-05
3.53685e-05
3.90519e-05
4.42723e-05
7.685e-05
4.64277e-05
7.24138e-05
7.75222e-05
9.75439e-05
)
;
    }
    ceiling
    {
        type            nutkWallFunction;
        Cmu             0.09;
        kappa           0.41;
        E               9.8;
        value           nonuniform List<scalar> 
43
(
0.000166839
0.0001754
0.000184261
0.000213138
0.000209269
0.000198942
0.000188602
0.000180543
0.000172668
0.000164525
0.00015715
0.000152054
0.000149322
0.00014814
0.000147837
0.000147953
0.000148164
0.000148266
0.000148193
0.000147986
0.000147702
0.000147364
0.000146957
0.000146432
0.000145696
0.000144574
0.000142775
0.000140226
0.000137096
0.000133464
0.000129633
0.000126069
0.000123019
0.00012077
0.000119462
0.000118956
0.000118534
0.000116714
0.000116471
0.000114226
0.000180203
0.000211667
0.000139172
)
;
    }
    sWall
    {
        type            nutkWallFunction;
        Cmu             0.09;
        kappa           0.41;
        E               9.8;
        value           uniform 0.000166849;
    }
    nWall
    {
        type            nutkWallFunction;
        Cmu             0.09;
        kappa           0.41;
        E               9.8;
        value           nonuniform List<scalar> 6(5.22369e-05 7.08503e-05 8.53144e-05 0.000126983 0.000138897 0.00011423);
    }
    sideWalls
    {
        type            empty;
    }
    glass1
    {
        type            nutkWallFunction;
        Cmu             0.09;
        kappa           0.41;
        E               9.8;
        value           nonuniform List<scalar> 9(7.98058e-05 9.93259e-05 0.00011533 0.000130339 0.000145707 0.000162456 0.000178378 0.000182769 0.000180245);
    }
    glass2
    {
        type            nutkWallFunction;
        Cmu             0.09;
        kappa           0.41;
        E               9.8;
        value           nonuniform List<scalar> 2(0.000111245 0.000116733);
    }
    sun
    {
        type            nutkWallFunction;
        Cmu             0.09;
        kappa           0.41;
        E               9.8;
        value           nonuniform List<scalar> 
14
(
7.98158e-05
8.9215e-05
9.38368e-05
9.93876e-05
0.000104743
0.000110334
0.00011582
0.000120508
0.000123799
0.000124801
0.000119431
0.000110533
9.96206e-05
8.81365e-05
)
;
    }
    heatsource1
    {
        type            nutkWallFunction;
        Cmu             0.09;
        kappa           0.41;
        E               9.8;
        value           nonuniform List<scalar> 3(5.12344e-05 5.16889e-05 5.2245e-05);
    }
    heatsource2
    {
        type            nutkWallFunction;
        Cmu             0.09;
        kappa           0.41;
        E               9.8;
        value           nonuniform List<scalar> 4(9.02713e-05 7.43284e-05 7.43283e-05 8.66266e-05);
    }
    Table_master
    {
        type            nutkWallFunction;
        Cmu             0.09;
        kappa           0.41;
        E               9.8;
        value           nonuniform List<scalar> 9(9.12958e-05 7.98316e-05 7.05372e-05 6.30463e-05 5.69713e-05 5.20128e-05 4.79769e-05 4.47504e-05 4.23733e-05);
    }
    Table_slave
    {
        type            nutkWallFunction;
        Cmu             0.09;
        kappa           0.41;
        E               9.8;
        value           nonuniform List<scalar> 9(0.00010027 9.1378e-05 8.5141e-05 8.04705e-05 7.65907e-05 7.28689e-05 6.93004e-05 6.54854e-05 6.09607e-05);
    }
    inlet
    {
        type            calculated;
        value           uniform 0.000100623;
    }
    outlet
    {
        type            calculated;
        value           nonuniform List<scalar> 2(0.00140041 0.00147627);
    }
}


// ************************************************************************* //
