// -*- C++ -*-
// File generated by PyFoam - sorry for the ugliness

FoamFile
{
 version 2.0;
 format ascii;
 class volVectorField;
 location "540";
 object U;
}

dimensions [ 0 1 -1 0 0 0 0 ];

internalField nonuniform List<vector> 459
(
  (0.00827121 0.0575732 0)
  (-0.113385 0.0199054 0)
  (-0.136439 0.0121787 0)
  (-0.15831 0.00622812 0)
  (-0.17147 -0.000101104 0)
  (-0.174375 -0.00693152 0)
  (-0.165235 -0.0144769 0)
  (-0.144204 -0.0224399 0)
  (-0.112867 -0.0293666 0)
  (-0.0754675 -0.0336952 0)
  (-0.0376809 -0.0339102 0)
  (-0.000317011 -0.0264617 0)
  (0.0224424 -0.0132028 0)
  (0.0290706 0.000777558 0)
  (0.0473861 0.0212071 0)
  (-0.0817203 0.00776854 0)
  (0.0191359 -0.00355305 0)
  (0.012485 -0.0124173 0)
  (0.0276276 -0.0143512 0)
  (0.0438741 -0.0128149 0)
  (0.0578821 -0.00975606 0)
  (0.0672326 -0.00563296 0)
  (0.0719203 -0.00326402 0)
  (0.0735156 -0.00239521 0)
  (0.0738745 -0.00207702 0)
  (0.0738721 -0.00185811 0)
  (0.0735809 -0.00160582 0)
  (0.0728287 -0.00122354 0)
  (0.0712454 -0.000477324 0)
  (0.0679843 0.00117316 0)
  (0.0613168 0.00463005 0)
  (0.0493662 0.00973264 0)
  (0.0172483 0.0182707 0)
  (0.0592201 0.00697076 0)
  (0.111234 0.117922 0)
  (-0.103654 0.0527938 0)
  (-0.11188 0.0394174 0)
  (-0.13438 0.0275925 0)
  (-0.147915 0.0140588 0)
  (-0.151717 -0.0015977 0)
  (-0.143869 -0.019398 0)
  (-0.125086 -0.0371007 0)
  (-0.0974348 -0.0510595 0)
  (-0.0652374 -0.058101 0)
  (-0.0335255 -0.0563491 0)
  (-0.00504178 -0.0440675 0)
  (0.016866 -0.0239109 0)
  (0.0306139 -0.00340351 0)
  (0.0444533 0.0191015 0)
  (0.0447328 0.0235469 0)
  (0.0309828 0.0285798 0)
  (-0.0960649 0.00466821 0)
  (0.0257143 -0.0229519 0)
  (0.0299844 -0.0263472 0)
  (0.0419546 -0.02599 0)
  (0.0542131 -0.0223733 0)
  (0.06428 -0.0165707 0)
  (0.0696969 -0.00672803 0)
  (0.070872 -0.000856722 0)
  (0.0706751 0.00138917 0)
  (0.0707052 0.00224392 0)
  (0.0709678 0.00277009 0)
  (0.0711515 0.00323103 0)
  (0.0711614 0.00388257 0)
  (0.07095 0.00522891 0)
  (0.0699141 0.00843711 0)
  (0.0653045 0.0167922 0)
  (0.0551368 0.0257681 0)
  (0.02136 0.0365226 0)
  (0.0993379 0.026536 0)
  (0.207691 0.176831 0)
  (-0.10929 0.0823131 0)
  (-0.0863486 0.0629446 0)
  (-0.108132 0.0429798 0)
  (-0.121184 0.0207665 0)
  (-0.125504 -0.00469814 0)
  (-0.117875 -0.0330137 0)
  (-0.100056 -0.0603456 0)
  (-0.0751214 -0.0802961 0)
  (-0.0475743 -0.0884441 0)
  (-0.0217053 -0.0833925 0)
  (0.001049 -0.0653988 0)
  (0.0189337 -0.0406215 0)
  (0.0320315 -0.0152973 0)
  (0.0415978 0.00936235 0)
  (0.0435778 0.0268641 0)
  (0.0372694 0.0539706 0)
  (-0.0264918 -0.0229492 0)
  (0.037907 -0.0374772 0)
  (0.0499714 -0.0402731 0)
  (0.0562821 -0.0371005 0)
  (0.0627972 -0.031779 0)
  (0.0689356 -0.0268072 0)
  (0.0719635 -0.0195081 0)
  (0.0665363 -0.0125681 0)
  (0.062085 -0.00897075 0)
  (0.0606188 -0.00702577 0)
  (0.0605537 -0.00577918 0)
  (0.0609328 -0.00482275 0)
  (0.0617552 -0.00386767 0)
  (0.0637536 -0.00239765 0)
  (0.0686655 0.00204957 0)
  (0.0692303 0.0222807 0)
  (0.0613221 0.0379799 0)
  (0.0248417 0.0548019 0)
  (0.123308 0.0562824 0)
  (0.298463 0.224641 0)
  (-0.126374 0.107303 0)
  (-0.0586226 0.083678 0)
  (-0.0788501 0.0574984 0)
  (-0.0897578 0.0286658 0)
  (-0.0931537 -0.00589976 0)
  (-0.0836638 -0.0452396 0)
  (-0.0660759 -0.0817723 0)
  (-0.0445463 -0.10632 0)
  (-0.0227506 -0.114415 0)
  (-0.0035199 -0.105923 0)
  (0.0129941 -0.0837609 0)
  (0.0264693 -0.0557516 0)
  (0.0378448 -0.0267503 0)
  (0.0482599 0.000892374 0)
  (0.0592492 0.0245696 0)
  (0.073752 0.0489134 0)
  (0.0995023 0.000205893 0)
  (0.0942851 -0.0198432 0)
  (0.083497 -0.0341174 0)
  (0.0740392 -0.0392387 0)
  (0.0680599 -0.0374562 0)
  (0.0646563 -0.032609 0)
  (0.0616827 -0.0259846 0)
  (0.0631093 -0.0159168 0)
  (0.0720341 -0.0110264 0)
  (0.079506 -0.00842765 0)
  (0.0845153 -0.00686921 0)
  (0.0881755 -0.00560108 0)
  (0.0906701 -0.00417766 0)
  (0.0910227 -0.00218052 0)
  (0.0874035 0.000970205 0)
  (0.077421 0.00591969 0)
  (0.0673997 0.0279906 0)
  (0.0650358 0.0474224 0)
  (0.0340051 0.0696076 0)
  (0.139987 0.0994232 0)
  (0.382023 0.261352 0)
  (-0.151167 0.126048 0)
  (-0.029533 0.09659 0)
  (-0.046478 0.0669424 0)
  (-0.053191 0.0343145 0)
  (-0.0523261 -0.00751272 0)
  (-0.0380263 -0.057697 0)
  (-0.0215404 -0.100621 0)
  (-0.00565457 -0.12648 0)
  (0.00835222 -0.132317 0)
  (0.018878 -0.120388 0)
  (0.0276234 -0.096403 0)
  (0.0351744 -0.0665265 0)
  (0.0421598 -0.0363119 0)
  (0.0499816 -0.00929786 0)
  (0.0601828 0.0118991 0)
  (0.0743085 0.0217085 0)
  (0.0856668 0.000863117 0)
  (0.0843639 -0.0158934 0)
  (0.0759805 -0.0264208 0)
  (0.0671354 -0.030951 0)
  (0.0596924 -0.0308418 0)
  (0.0539716 -0.0276878 0)
  (0.050055 -0.02196 0)
  (0.0500021 -0.0129952 0)
  (0.0537237 -0.00811145 0)
  (0.0578768 -0.00624198 0)
  (0.0616353 -0.00532372 0)
  (0.0652065 -0.0041521 0)
  (0.0684433 -0.00191848 0)
  (0.0710181 0.0021445 0)
  (0.0716498 0.00841373 0)
  (0.0699225 0.0175476 0)
  (0.067814 0.0331762 0)
  (0.0722541 0.0501139 0)
  (0.0639965 0.0679149 0)
  (0.119091 0.0994781 0)
  (0.114375 0.077946 0)
  (0.119573 0.0553638 0)
  (-0.213705 0.0487939 0)
  (0.448928 0.291027 0)
  (-0.179412 0.136839 0)
  (-0.00461641 0.0962172 0)
  (-0.0123172 0.0701744 0)
  (-0.0129887 0.0382298 0)
  (-0.000205117 -0.0129422 0)
  (0.019054 -0.0729118 0)
  (0.0314631 -0.115427 0)
  (0.0391119 -0.137737 0)
  (0.0426684 -0.140247 0)
  (0.0433114 -0.126139 0)
  (0.042551 -0.100719 0)
  (0.0415321 -0.0702442 0)
  (0.0413524 -0.0404755 0)
  (0.0432365 -0.0155077 0)
  (0.0485921 0.00190989 0)
  (0.0568452 0.00838131 0)
  (0.0619833 -0.00030289 0)
  (0.0604358 -0.0114636 0)
  (0.0542747 -0.0193631 0)
  (0.0468079 -0.0234215 0)
  (0.0397192 -0.0242224 0)
  (0.0338176 -0.0225601 0)
  (0.0297793 -0.0189437 0)
  (0.0286607 -0.014091 0)
  (0.0303682 -0.0113555 0)
  (0.0333511 -0.0104062 0)
  (0.0368297 -0.00988496 0)
  (0.0406289 -0.00883142 0)
  (0.0446689 -0.00645058 0)
  (0.0488552 -0.00173974 0)
  (0.0533631 0.00604175 0)
  (0.0568422 0.0166056 0)
  (0.0605494 0.0301072 0)
  (0.0681463 0.043956 0)
  (0.0707351 0.0537391 0)
  (0.0926335 0.068654 0)
  (0.0906413 0.0534645 0)
  (0.120332 0.0517036 0)
  (-0.173408 0.0779963 0)
  (0.492704 0.316362 0)
  (-0.197842 0.12515 0)
  (0.0170433 0.0657697 0)
  (0.0289839 0.0564289 0)
  (0.0380509 0.026648 0)
  (0.0649305 -0.0327743 0)
  (0.082935 -0.0870397 0)
  (0.0892969 -0.123049 0)
  (0.0867753 -0.139245 0)
  (0.0781434 -0.13726 0)
  (0.0661589 -0.120605 0)
  (0.0533568 -0.0944033 0)
  (0.0416571 -0.0646024 0)
  (0.0327136 -0.0368261 0)
  (0.0277125 -0.0151015 0)
  (0.0272226 -0.00128234 0)
  (0.0303537 0.00377366 0)
  (0.0321623 -0.000384429 0)
  (0.0305937 -0.00753771 0)
  (0.0258931 -0.0134042 0)
  (0.0196993 -0.0168814 0)
  (0.0133723 -0.0181633 0)
  (0.00787768 -0.0177906 0)
  (0.00404434 -0.0163205 0)
  (0.00263492 -0.0144901 0)
  (0.00349525 -0.0136865 0)
  (0.00562264 -0.0136863 0)
  (0.0083689 -0.0136907 0)
  (0.0115551 -0.0130708 0)
  (0.0152915 -0.0112286 0)
  (0.0198881 -0.00725416 0)
  (0.0265694 0.000157156 0)
  (0.0345008 0.0107494 0)
  (0.0425799 0.0226966 0)
  (0.0525551 0.0341511 0)
  (0.0605229 0.0422545 0)
  (0.0747041 0.0531929 0)
  (0.080571 0.0557514 0)
  (0.132825 0.0733623 0)
  (-0.118806 0.139032 0)
  (0.573083 0.317969 0)
  (-0.0586041 0.0983358 0)
  (0.0690469 0.00191763 0)
  (0.109713 -0.0180831 0)
  (0.128697 -0.0444315 0)
  (0.152103 -0.0749058 0)
  (0.159688 -0.102739 0)
  (0.151909 -0.121167 0)
  (0.132812 -0.126654 0)
  (0.10719 -0.119082 0)
  (0.0794359 -0.100662 0)
  (0.0530063 -0.0753435 0)
  (0.0302588 -0.0483777 0)
  (0.0134247 -0.0250353 0)
  (0.00342862 -0.00870305 0)
  (-0.000496163 0.000343307 0)
  (-6.74291e-06 0.00295356 0)
  (0.000223204 0.000268923 0)
  (-0.00141161 -0.00437949 0)
  (-0.00543956 -0.00843555 0)
  (-0.0107409 -0.0111751 0)
  (-0.0161945 -0.0127546 0)
  (-0.0209367 -0.013586 0)
  (-0.0243322 -0.0140747 0)
  (-0.0260387 -0.0145585 0)
  (-0.0263138 -0.0153344 0)
  (-0.0257658 -0.016196 0)
  (-0.0248323 -0.0167742 0)
  (-0.0237017 -0.0167832 0)
  (-0.0223168 -0.0160137 0)
  (-0.0202764 -0.0141517 0)
  (-0.0165294 -0.0104805 0)
  (-0.00773733 -0.0038522 0)
  (0.00473497 0.0051907 0)
  (0.0162693 0.0123929 0)
  (0.0264144 0.0159656 0)
  (0.0392352 0.018943 0)
  (0.0496924 0.017201 0)
  (0.133374 0.071677 0)
  (-0.377907 0.212882 0)
  (0.679376 0.310392 0)
  (0.327062 0.215562 0)
  (0.335086 0.161373 0)
  (0.340386 0.0994349 0)
  (0.324706 0.045396 0)
  (0.291667 -0.0076629 0)
  (0.251846 -0.050665 0)
  (0.207402 -0.0767481 0)
  (0.159569 -0.0854155 0)
  (0.112032 -0.0799685 0)
  (0.0682354 -0.0645549 0)
  (0.0307489 -0.0436176 0)
  (0.00112872 -0.0225955 0)
  (-0.0175595 -0.00747675 0)
  (-0.026813 0.000404721 0)
  (-0.0305286 0.00379398 0)
  (-0.0311139 0.004151 0)
  (-0.0317866 0.00240119 0)
  (-0.0335372 -0.000220311 0)
  (-0.036918 -0.00268715 0)
  (-0.0411801 -0.00479004 0)
  (-0.0455934 -0.00655248 0)
  (-0.0496843 -0.00812326 0)
  (-0.0531759 -0.00964032 0)
  (-0.0559702 -0.0111486 0)
  (-0.0582251 -0.012639 0)
  (-0.0602252 -0.0139552 0)
  (-0.0622764 -0.0148982 0)
  (-0.0647947 -0.015289 0)
  (-0.0683849 -0.0148904 0)
  (-0.0737028 -0.0131083 0)
  (-0.0811749 -0.00865865 0)
  (-0.0911014 0.000125763 0)
  (-0.101663 0.0127303 0)
  (-0.116538 0.0291492 0)
  (-0.141438 0.050872 0)
  (-0.175906 0.0791568 0)
  (-0.218491 0.111488 0)
  (-0.285751 0.142315 0)
  (-0.566214 0.163473 0)
  (0.195341 0.0100117 0)
  (0.219906 0.0228626 0)
  (0.21735 -0.00388304 0)
  (0.198396 -0.028027 0)
  (0.168432 -0.0418684 0)
  (0.131102 -0.0469162 0)
  (0.088698 -0.0446898 0)
  (0.0463557 -0.0363711 0)
  (0.00690044 -0.0226752 0)
  (-0.0248201 -0.00688541 0)
  (-0.0433964 0.00284613 0)
  (-0.0534723 0.00787218 0)
  (-0.0577625 0.0100033 0)
  (-0.0592107 0.0107295 0)
  (-0.0596696 0.0106345 0)
  (-0.0603721 0.00995186 0)
  (-0.0618126 0.00897815 0)
  (-0.063882 0.00785832 0)
  (-0.0666357 0.00643159 0)
  (-0.069896 0.00500903 0)
  (-0.0736234 0.00379868 0)
  (-0.0777935 0.00287733 0)
  (-0.082366 0.00244183 0)
  (-0.087318 0.0027118 0)
  (-0.0925773 0.00396686 0)
  (-0.0980156 0.00647893 0)
  (-0.103564 0.0103527 0)
  (-0.109367 0.0152205 0)
  (-0.115725 0.0200406 0)
  (-0.122667 0.0234325 0)
  (-0.12862 0.0278766 0)
  (-0.13349 0.0357992 0)
  (-0.137443 0.0486046 0)
  (-0.14041 0.0665232 0)
  (-0.139623 0.0866377 0)
  (-0.129082 0.0934614 0)
  (-0.114041 0.0443226 0)
  (-0.217181 -0.17273 0)
  (0.0611189 0.130523 0)
  (0.0283922 0.0581663 0)
  (0.0233608 0.00306273 0)
  (0.0190905 -0.0279489 0)
  (0.0160982 -0.0402895 0)
  (-0.00172863 -0.0432673 0)
  (-0.0237673 -0.0445571 0)
  (-0.0451686 -0.0442643 0)
  (-0.062106 -0.0449321 0)
  (-0.0725148 -0.047103 0)
  (-0.0773016 -0.0499569 0)
  (-0.0793035 -0.0525077 0)
  (-0.0796808 -0.0547651 0)
  (-0.0792626 -0.0567034 0)
  (-0.0786054 -0.0587436 0)
  (-0.0781348 -0.061261 0)
  (-0.0781117 -0.0641926 0)
  (-0.0786418 -0.0671743 0)
  (-0.0797947 -0.0697223 0)
  (-0.0816546 -0.0718213 0)
  (-0.0842168 -0.0737821 0)
  (-0.0875533 -0.0763382 0)
  (-0.0918463 -0.079714 0)
  (-0.0972596 -0.0839611 0)
  (-0.103821 -0.0887954 0)
  (-0.111252 -0.0933843 0)
  (-0.118817 -0.0961692 0)
  (-0.125447 -0.0953782 0)
  (-0.130196 -0.0901283 0)
  (-0.132543 -0.0785833 0)
  (-0.131968 -0.0619452 0)
  (-0.126874 -0.0405431 0)
  (-0.115345 -0.0151314 0)
  (-0.0957346 0.0127167 0)
  (-0.068212 0.0382048 0)
  (-0.0368427 0.0480306 0)
  (0.102847 -0.0423006 0)
  (-0.172341 -0.106392 0)
  (-0.124509 -0.251661 0)
  (-0.301244 -0.0501319 0)
  (-0.222441 0.146269 0)
  (-0.182302 0.128306 0)
  (-0.135738 0.131472 0)
  (-0.118276 0.144954 0)
  (-0.114927 0.153519 0)
  (-0.116501 0.156721 0)
  (-0.11896 0.162279 0)
  (-0.118735 0.168765 0)
  (-0.116352 0.177734 0)
  (-0.112412 0.187158 0)
  (-0.108021 0.194713 0)
  (-0.104015 0.200086 0)
  (-0.100646 0.203929 0)
  (-0.0979145 0.20691 0)
  (-0.09575 0.209698 0)
  (-0.0941872 0.212664 0)
  (-0.0933302 0.215744 0)
  (-0.0932643 0.2186 0)
  (-0.0939675 0.220726 0)
  (-0.0953531 0.222021 0)
  (-0.0973138 0.223048 0)
  (-0.0997355 0.225118 0)
  (-0.102448 0.228732 0)
  (-0.105254 0.234146 0)
  (-0.107949 0.241111 0)
  (-0.110318 0.248572 0)
  (-0.112121 0.254452 0)
  (-0.11308 0.256572 0)
  (-0.112743 0.254588 0)
  (-0.110158 0.247587 0)
  (-0.103731 0.237708 0)
  (-0.0914443 0.226848 0)
  (-0.0716125 0.217582 0)
  (-0.0445901 0.212649 0)
  (-0.00933603 0.213069 0)
  (0.0288177 0.216898 0)
  (0.141812 0.247591 0)
  (-0.296357 0.232662 0)
)
;

boundaryField
{
  floor
  {
    type noSlip;
  }
  ceiling
  {
    type noSlip;
  }
  sWall
  {
    type noSlip;
  }
  nWall
  {
    type noSlip;
  }
  sideWalls
  {
    type empty;
  }
  glass1
  {
    type noSlip;
  }
  glass2
  {
    type noSlip;
  }
  sun
  {
    type noSlip;
  }
  heatsource1
  {
    type noSlip;
  }
  heatsource2
  {
    type noSlip;
  }
  Table_master
  {
    type noSlip;
  }
  Table_slave
  {
    type noSlip;
  }
  inlet
  {
    type fixedValue;
    value uniform (0.277164 -0.114805 0);
  }
  outlet
  {
    type zeroGradient;
  }
} 	// ************************************************************************* //

