/*--------------------------------*- C++ -*----------------------------------*\
  =========                 |
  \\      /  F ield         | OpenFOAM: The Open Source CFD Toolbox
   \\    /   O peration     | Website:  https://openfoam.org
    \\  /    A nd           | Version:  6
     \\/     M anipulation  |
\*---------------------------------------------------------------------------*/
FoamFile
{
    version     2.0;
    format      ascii;
    class       surfaceScalarField;
    location    "1000";
    object      phi;
}
// * * * * * * * * * * * * * * * * * * * * * * * * * * * * * * * * * * * * * //

dimensions      [1 0 -1 0 0 0 0];

internalField   nonuniform List<scalar> 
852
(
-0.00308173
0.00313975
-0.00425086
0.00116919
-0.00505683
0.000806037
-0.00557683
0.000520074
-0.00576495
0.000188184
-0.005584
-0.000180879
-0.00501705
-0.000566882
-0.00411449
-0.000902499
-0.00299326
-0.00112116
-0.00179583
-0.00119736
-0.000673071
-0.00112271
0.000195465
-0.000868487
0.000655173
-0.000459662
0.000663481
-8.26355e-06
0.000665831
-0.000943829
0.000946918
-0.000790213
-0.000153631
-0.00018185
-0.000608372
0.000446778
-0.000628637
0.000937893
-0.000491126
0.00128238
-0.000344496
0.00147853
-0.00019617
0.00157233
-9.38211e-05
0.00162578
-5.34679e-05
0.0016617
-3.59523e-05
0.00168591
-2.42284e-05
0.00170078
-1.49003e-05
0.00170476
-4.0155e-06
0.00168846
1.6269e-05
0.00162695
6.14731e-05
0.00147723
0.000149683
0.00121779
0.000259392
0.000846841
0.000370908
0.000850609
-0.00221525
0.0055116
-0.00332893
0.00228294
-0.00416166
0.00163883
-0.00469345
0.00105195
-0.00489712
0.000391928
-0.00473833
-0.000339598
-0.00421744
-0.0010877
-0.00340987
-0.00170999
-0.00244871
-0.00208224
-0.00146893
-0.00217707
-0.000588262
-0.00200331
0.000117216
-0.00157392
0.000615979
-0.000958379
0.000906006
-0.000298247
0.0012635
0.000308381
0.000708019
0.000555467
0.000708002
-2.88713e-05
0.000985181
0.000389894
-0.000572404
0.000792511
-0.00101099
0.00111299
-0.000949115
0.00137502
-0.00075316
0.00155722
-0.000526706
0.00159743
-0.000236395
0.00160649
-0.000102897
0.00161645
-6.34477e-05
0.00162477
-4.43016e-05
0.00163044
-2.99241e-05
0.00163409
-1.85733e-05
0.0016351
-5.05834e-06
0.00162937
2.19653e-05
0.00158672
0.000104086
0.00140072
0.000335643
0.00108678
0.000573287
0.00069081
0.000766831
0.00155165
-0.0015578
0.00730962
-0.00250625
0.00323146
-0.00325673
0.00238939
-0.00372832
0.0015236
-0.00390291
0.000566597
-0.00372175
-0.000520684
-0.00319887
-0.0016105
-0.00245064
-0.00245813
-0.0016265
-0.00290628
-0.000834045
-0.00296944
-0.000150291
-0.002687
0.000400563
-0.00212472
0.000832306
-0.00139008
0.00114976
-0.000615655
0.00134382
0.000114357
0.00113809
0.000761233
0.00184613
0.00146046
-0.000463067
0.00173773
-0.000849677
0.00172807
-0.00100132
0.00175041
-0.000971458
0.00180752
-0.000810269
0.00190523
-0.000624426
0.00166898
0.00156622
0.00150291
0.00145874
0.00142894
0.0014105
0.00140556
0.00142764
0.00153184
0.00123001
0.000637428
0.000899286
0.000903968
0.000521973
0.00114409
0.0020895
-0.0010836
0.00870533
-0.00181853
0.00396646
-0.00233145
0.00290239
-0.00264687
0.00183909
-0.002703
0.000622798
-0.0024107
-0.000812901
-0.00185219
-0.00216892
-0.00118299
-0.00312721
-0.000534725
-0.00355445
3.45537e-05
-0.00353863
0.000496626
-0.00314901
0.000871617
-0.00249966
0.00118729
-0.00170571
0.00145766
-0.000885989
0.00170585
-0.000133791
0.00200521
0.000461906
0.0030335
0.000817885
0.00282407
0.000219636
0.00262332
-0.000262277
0.00242884
-0.000655171
0.00222259
-0.000795046
0.00204195
-0.00079081
0.00191118
-0.000679502
0.00177054
-0.000483797
0.00195813
-0.000187769
0.00202998
-7.2023e-05
0.00205578
-2.59844e-05
0.00204725
8.34761e-06
0.00199792
4.9137e-05
0.00189602
0.000101704
0.00172255
0.000173269
0.00144652
0.000275831
0.00100976
0.000436553
0.000877349
0.000769788
0.000615015
0.00116625
0.000255524
0.00150353
0.00236608
-0.000748721
0.00982773
-0.001284
0.00450181
-0.00140733
0.00302579
-0.00146011
0.00189194
-0.00123228
0.000395036
-0.000721682
-0.00132342
-0.000141498
-0.002749
0.000367226
-0.00363581
0.000760946
-0.00394805
0.00103792
-0.00381551
0.00123342
-0.00334443
0.00138014
-0.00264634
0.00150542
-0.00183097
0.00163864
-0.00101918
0.00182109
-0.00031621
0.00208804
0.000194992
0.00247077
0.000435193
0.00249406
0.000196377
0.0024053
-0.000173487
0.00219157
-0.000441414
0.00195513
-0.000558598
0.00172963
-0.000565307
0.00153897
-0.000488865
0.00140213
-0.000346983
0.00138735
-0.000173017
0.00138127
-6.59873e-05
0.00136895
-1.37033e-05
0.00135326
2.39839e-05
0.00133068
7.1674e-05
0.00128878
0.000143548
0.00121212
0.000249864
0.00108702
0.000400877
0.000920651
0.000602859
0.000788952
0.00090143
0.000673233
0.00128192
0.000383293
0.00179342
0.000390626
0.00235869
-0.00101263
0.00140298
-0.00145695
0.000444022
-0.00140856
-0.000629483
0.0108832
-0.000955083
0.00482748
-0.000493929
0.0025647
-4.77742e-06
0.00140285
0.000672861
-0.000282557
0.00136158
-0.00201205
0.00183672
-0.00322403
0.00207802
-0.00387697
0.00214726
-0.00401717
0.00208547
-0.00375363
0.00194807
-0.00320697
0.00178902
-0.00248726
0.00164748
-0.00168941
0.00155838
-0.000930072
0.00154998
-0.0003078
0.0016314
0.000113593
0.00177948
0.000287134
0.00181031
0.000165575
0.00169859
-6.17565e-05
0.00150012
-0.000242935
0.00127779
-0.000336279
0.00106257
-0.000350111
0.000876269
-0.000302603
0.000741146
-0.000211903
0.000677129
-0.000109051
0.000656975
-4.5888e-05
0.000662836
-1.96229e-05
0.000687984
-1.22471e-06
0.000724519
3.50754e-05
0.00076279
0.000105211
0.000794385
0.0002182
0.000816937
0.000378255
0.000832785
0.000586942
0.000882821
0.00085133
0.00101943
0.00114525
0.00124801
0.00156479
0.00178368
0.00182297
0.00210832
0.00107826
0.00176499
0.000787274
0.000414683
-0.000613147
0.0119704
-0.000386914
0.00460131
0.000952642
0.0012252
0.00213874
0.000216807
0.00314941
-0.00129317
0.00375565
-0.00261818
0.00396957
-0.00343782
0.0038485
-0.00375576
0.00348961
-0.00365815
0.00298741
-0.00325134
0.00243463
-0.00265414
0.0019087
-0.00196132
0.00145345
-0.00123418
0.00111396
-0.000590603
0.000907188
-0.000101034
0.000840843
0.00017994
0.000866202
0.000261781
0.000855236
0.000176542
0.000760587
3.28814e-05
0.000604945
-8.7317e-05
0.000421823
-0.000153193
0.000238933
-0.000167269
7.94303e-05
-0.000143157
-3.47894e-05
-9.77471e-05
-8.97437e-05
-5.41644e-05
-9.69883e-05
-3.87143e-05
-6.90856e-05
-4.7598e-05
-7.7971e-06
-6.25859e-05
8.72676e-05
-6.00633e-05
0.000206454
-1.40524e-05
0.000340245
8.43311e-05
0.00049457
0.000223851
0.000674612
0.000406823
0.0009042
0.00062167
0.00122417
0.000825211
0.00170334
0.00108556
0.0024372
0.00108905
0.00302603
0.000489368
0.00308189
0.000731348
0.00355789
0.00290667
0.00959484
0.00377521
0.00373283
0.00455854
0.000441924
0.00577111
-0.000995699
0.0064856
-0.00200755
0.00657422
-0.00270665
0.00616428
-0.00302772
0.00540209
-0.00299341
0.00443301
-0.00268897
0.00337972
-0.00219798
0.00236205
-0.00163646
0.00147055
-0.00106985
0.000732755
-0.000496436
0.000213938
-7.18389e-05
-6.10302e-05
0.000173892
-0.0001446
0.00026349
-0.000147118
0.000264281
-0.000168116
0.000197513
-0.000240515
0.000105241
-0.00035595
2.80644e-05
-0.000493929
-1.52767e-05
-0.00063158
-2.96895e-05
-0.000748589
-2.62259e-05
-0.000829644
-1.67738e-05
-0.000868655
-1.52378e-05
-0.000874538
-3.29172e-05
-0.000856047
-6.61767e-05
-0.0008154
-0.000103321
-0.000744983
-0.000130569
-0.000626791
-0.000132334
-0.000453621
-8.89265e-05
-0.000241484
1.16254e-05
1.39095e-05
0.000151344
0.000319936
0.000315563
0.000654445
0.000490626
0.00105996
0.000679972
0.00147295
0.000675993
0.00157025
0.000391989
0.000818561
0.00148297
0.00463531
0.010182
0.0139101
0.0127054
0.00164663
0.0118577
-0.000147784
0.0107058
-0.000855482
0.00924006
-0.00124069
0.00755795
-0.00134543
0.00580958
-0.00124493
0.0041245
-0.00100386
0.00256247
-0.000635957
0.00120849
-0.000282538
0.000108431
3.01167e-05
-0.000627346
0.000239232
-0.000982976
0.000283722
-0.00110332
0.000294183
-0.0011283
0.000288426
-0.00112714
0.000263073
-0.00114572
0.000216041
-0.00120079
0.000160236
-0.00128497
0.000112166
-0.00138098
8.06504e-05
-0.00147483
6.40696e-05
-0.00155666
5.55016e-05
-0.0016207
4.71708e-05
-0.00166923
3.31885e-05
-0.00171456
1.23175e-05
-0.00177078
-1.00554e-05
-0.00184949
-2.47085e-05
-0.00196109
-1.907e-05
-0.00211476
2.12372e-05
-0.00231355
0.000109776
-0.00256234
0.000260324
-0.00290194
0.000490856
-0.00340142
0.000814954
-0.00413842
0.00122754
-0.00515713
0.0016986
-0.00656392
0.0020827
-0.00825346
0.00208145
-0.00763026
0.000859685
-0.00271246
0.00478185
0.00313031
0.00354882
0.00108533
0.00341636
-0.000723017
0.0029414
-0.000765799
0.0020959
-0.000500041
0.00106832
-0.000217481
-9.34422e-06
7.36117e-05
-0.000936527
0.000291097
-0.00155982
0.000340652
-0.00189009
0.000360288
-0.00200576
0.00035481
-0.00204358
0.000321465
-0.00203791
0.000288449
-0.00201453
0.000264971
-0.00199583
0.000244298
-0.001999
0.000219126
-0.00202898
0.000190119
-0.00207922
0.000162307
-0.00213823
0.000139558
-0.00219649
0.000122216
-0.0022492
0.000108102
-0.00229635
9.42096e-05
-0.00234167
7.83992e-05
-0.00239055
6.10912e-05
-0.00244687
4.61576e-05
-0.00251249
4.08024e-05
-0.0025867
5.50379e-05
-0.00266527
9.96992e-05
-0.00274434
0.000188751
-0.00282435
0.000340235
-0.00290748
0.000573892
-0.00299541
0.000902797
-0.00307599
0.00130803
-0.00307734
0.00169985
-0.00289554
0.00190082
-0.00227262
0.00145843
-0.00100597
-0.000407057
-0.00364766
-0.000505338
0.00370301
-0.000198225
0.00077804
-0.00108048
0.000159072
-0.00188839
4.19337e-05
-0.00250617
0.000117569
-0.00293443
0.000210621
-0.00314822
0.000287263
-0.003189
0.000331743
-0.0031674
0.000318946
-0.00309221
0.000284995
-0.00298615
0.000248652
-0.00288092
0.000216143
-0.00278655
0.00019399
-0.00270408
0.000182399
-0.00263624
0.000176358
-0.00258747
0.000170251
-0.00255909
0.000161619
-0.00254754
0.000150646
-0.00254645
0.000138347
-0.00254979
0.000125441
-0.00255399
0.000112175
-0.00255822
9.83222e-05
-0.00256341
8.34732e-05
-0.0025703
6.78617e-05
-0.00257758
5.33244e-05
-0.00258082
4.39277e-05
-0.00257211
4.6215e-05
-0.002541
6.84829e-05
-0.00247283
0.000120472
-0.00234646
0.000213767
-0.0021361
0.000363436
-0.00181724
0.000583835
-0.00137131
0.000862011
-0.000747761
0.0010762
0.000169258
0.000983705
0.00126186
0.000365728
0.00152642
-0.00067172
-0.00204352
0.00170037
-0.0103389
-0.0065988
-0.00580639
-0.00564111
-0.00559644
-0.00547817
-0.00526845
-0.00498344
-0.00465517
-0.00434081
-0.00406135
-0.00381904
-0.0036099
-0.00342351
-0.00324926
-0.00308156
-0.00292046
-0.00276846
-0.00262782
-0.00249976
-0.00238478
-0.00228312
-0.00219526
-0.0021221
-0.00206432
-0.00202076
-0.00198618
-0.00194883
-0.00188865
-0.00177589
-0.00156925
-0.00121236
-0.000634556
0.000221881
0.0012928
0.00227113
0.00263107
0.001953
)
;

boundaryField
{
    floor
    {
        type            calculated;
        value           nonuniform List<scalar> 
29
(
0
0
0
0
0
0
0
0
0
0
0
0
0
0
0
0
0
0
0
0
-3.81762e-06
-1.02829e-05
-1.5931e-05
-2.11055e-05
-2.30653e-06
-3.10919e-06
-9.4117e-06
-1.2222e-05
-1.01635e-05
)
;
    }
    ceiling
    {
        type            calculated;
        value           nonuniform List<scalar> 
43
(
-7.10071e-06
-3.30431e-05
-3.728e-05
-1.45488e-05
-6.37365e-06
-2.89403e-06
-8.37101e-07
7.59541e-07
2.12399e-06
3.35177e-06
4.46452e-06
5.41994e-06
6.21733e-06
6.89221e-06
7.48157e-06
8.02036e-06
8.5341e-06
9.02847e-06
9.48567e-06
9.87366e-06
1.01617e-05
1.03326e-05
1.03865e-05
1.03345e-05
1.0189e-05
9.95649e-06
9.6368e-06
9.22897e-06
8.73947e-06
8.18713e-06
7.6003e-06
7.00955e-06
6.44231e-06
5.92353e-06
5.47082e-06
5.18696e-06
5.27099e-06
5.68025e-06
6.24439e-06
7.75811e-06
7.34268e-06
4.80805e-06
-6.73647e-05
)
;
    }
    sWall
    {
        type            calculated;
        value           uniform -0.000211184;
    }
    nWall
    {
        type            calculated;
        value           nonuniform List<scalar> 6(-4.86733e-05 -5.83287e-05 -6.13894e-05 -7.0888e-05 -7.78293e-05 -9.83915e-05);
    }
    sideWalls
    {
        type            empty;
        value           nonuniform 0();
    }
    glass1
    {
        type            calculated;
        value           nonuniform List<scalar> 9(-5.79523e-05 -0.000156519 -0.000240159 -0.000312033 -0.000373612 -0.00042593 -0.000473924 -0.000531078 -0.000594438);
    }
    glass2
    {
        type            calculated;
        value           nonuniform List<scalar> 2(-0.000258935 -0.000282577);
    }
    sun
    {
        type            calculated;
        value           uniform 0;
    }
    heatsource1
    {
        type            calculated;
        value           nonuniform List<scalar> 3(2.0428e-07 2.04145e-07 2.0418e-07);
    }
    heatsource2
    {
        type            calculated;
        value           nonuniform List<scalar> 4(5.12371e-08 5.13536e-08 0 0);
    }
    Table_master
    {
        type            calculated;
        value           nonuniform List<scalar> 9(-1.53289e-07 -1.53433e-07 -1.5348e-07 -1.53509e-07 -1.53528e-07 -1.53539e-07 -1.53545e-07 -1.53537e-07 -1.53497e-07);
    }
    Table_slave
    {
        type            calculated;
        value           nonuniform List<scalar> 9(1.53069e-07 1.53104e-07 1.53087e-07 1.53078e-07 1.53073e-07 1.53083e-07 1.53114e-07 1.53169e-07 1.53263e-07);
    }
    inlet
    {
        type            calculated;
        value           uniform -0.00626542;
    }
    outlet
    {
        type            calculated;
        value           nonuniform List<scalar> 2(-0.00148267 0.012072);
    }
}


// ************************************************************************* //
