/*--------------------------------*- C++ -*----------------------------------*\
  =========                 |
  \\      /  F ield         | OpenFOAM: The Open Source CFD Toolbox
   \\    /   O peration     | Website:  https://openfoam.org
    \\  /    A nd           | Version:  6
     \\/     M anipulation  |
\*---------------------------------------------------------------------------*/
FoamFile
{
    version     2.0;
    format      ascii;
    class       volScalarField;
    location    "510";
    object      alphat;
}
// * * * * * * * * * * * * * * * * * * * * * * * * * * * * * * * * * * * * * //

dimensions      [1 -1 -1 0 0 0 0];

internalField   nonuniform List<scalar> 
459
(
0.00105443
0.00114909
0.00116927
0.00122587
0.00127841
0.00132779
0.00137639
0.00142632
0.00146573
0.00148938
0.00149126
0.00146567
0.00140659
0.001305
0.00115571
0.000685468
0.000906354
0.000863877
0.000820566
0.000783222
0.000746388
0.000702142
0.00065797
0.000617508
0.000581283
0.000549172
0.000520428
0.000494379
0.000470314
0.000447363
0.000424229
0.000400874
0.000370467
0.000409211
0.00144424
0.00338226
0.00316939
0.00367188
0.00416841
0.00468209
0.00515627
0.00551712
0.00587458
0.00620472
0.00646727
0.00661195
0.00656157
0.00615048
0.00476385
0.00121363
0.000667502
0.000936872
0.00270591
0.00250192
0.00262614
0.00272631
0.0026531
0.00207915
0.00178621
0.00158219
0.00142615
0.00129693
0.00118491
0.00108442
0.000989773
0.000899478
0.000824278
0.000825642
0.000764998
0.000512451
0.00177155
0.00458177
0.00386027
0.00485828
0.00531513
0.00565374
0.00592319
0.00614589
0.00643093
0.00677571
0.00715231
0.00751231
0.00777098
0.00782664
0.00739009
0.00563459
0.0012053
0.00114872
0.00218063
0.00286031
0.00334184
0.00361247
0.00335781
0.000958743
0.000842327
0.000750587
0.000677895
0.000619687
0.000572621
0.000534341
0.000503545
0.000480344
0.000543226
0.000704004
0.000866733
0.00056079
0.0020871
0.00585485
0.00378271
0.0050796
0.0054279
0.00549462
0.0055263
0.00562095
0.00584667
0.00619868
0.00665624
0.00717609
0.00764534
0.00800174
0.00806077
0.00750702
0.00542474
0.00149332
0.00221021
0.00299774
0.00376463
0.00434248
0.00464002
0.00420059
0.00105749
0.000965979
0.000907397
0.000868173
0.000838907
0.000812175
0.000781102
0.000749177
0.000711261
0.000682557
0.00072933
0.000990366
0.000630485
0.00240819
0.00750703
0.00402014
0.00479486
0.00526199
0.00516829
0.00504257
0.00508021
0.00530125
0.00566379
0.00616414
0.00676843
0.0073022
0.00770145
0.00790195
0.0078211
0.0072985
0.00622999
0.00601371
0.00604291
0.00610084
0.00610965
0.006029
0.00573336
0.00481195
0.00443194
0.0042484
0.00413629
0.00403896
0.00392034
0.0037392
0.00335912
0.0028221
0.00220345
0.0016806
0.00150276
0.00106303
0.000714498
0.000701437
0.000669228
0.0027473
0.0093293
0.00545316
0.00447181
0.0049574
0.00502295
0.00483478
0.0048663
0.00508588
0.00544686
0.00596376
0.00656958
0.00713274
0.00753608
0.00773184
0.00774727
0.00765134
0.0075121
0.0074423
0.00734429
0.0071743
0.00693779
0.00665573
0.00633636
0.00597486
0.00571605
0.0055357
0.00539922
0.00528408
0.00516556
0.00500497
0.0047261
0.00427386
0.00366111
0.00298757
0.00246059
0.00191324
0.0014757
0.00159295
0.000829268
0.00307293
0.010716
0.00799235
0.00546703
0.00493979
0.00505452
0.00501345
0.0050063
0.00513758
0.00547474
0.00601561
0.00666382
0.00726106
0.00767043
0.0078511
0.00787449
0.00787054
0.00789076
0.00784935
0.00766102
0.00735113
0.00698303
0.00661268
0.00628217
0.0060175
0.00582727
0.00568366
0.00556914
0.00547951
0.00540261
0.00530266
0.00513966
0.00488075
0.004464
0.0039299
0.00338414
0.00280038
0.00223494
0.00207099
0.000978036
0.00315206
0.0101023
0.00853642
0.00730559
0.00643625
0.0059681
0.00549807
0.00524078
0.00530659
0.00569621
0.00632925
0.00705203
0.00767608
0.00806451
0.00820253
0.00818269
0.00811182
0.00799203
0.00775851
0.00740585
0.00702023
0.0066599
0.00635309
0.00610956
0.00592103
0.00576445
0.00561657
0.00547346
0.0053489
0.00525088
0.00514858
0.00500026
0.00484013
0.00468369
0.00437135
0.00401757
0.0036109
0.00296194
0.00312637
0.00122449
0.00308055
0.00370219
0.00429345
0.00447316
0.00450053
0.00447635
0.00456111
0.00485223
0.00539201
0.00614461
0.00698957
0.00777244
0.00833213
0.00858328
0.00857055
0.00838934
0.00809338
0.00774301
0.00739857
0.00708283
0.00681469
0.00659698
0.00641866
0.00626565
0.00611768
0.00595171
0.0057499
0.00550902
0.00524449
0.00497697
0.00468308
0.00428597
0.00380013
0.00336233
0.00301781
0.00271797
0.0024629
0.00225312
0.00211315
0.00131283
0.00253499
0.00419222
0.00469462
0.00512234
0.00566648
0.00630863
0.00700451
0.0076902
0.00830784
0.00879334
0.00901045
0.00890694
0.0085936
0.00825247
0.00797474
0.00776957
0.00761572
0.00749103
0.00737887
0.00726941
0.00716178
0.00705071
0.00692227
0.00675551
0.00652496
0.00620596
0.00578605
0.00528095
0.00473747
0.00418478
0.00365501
0.00320585
0.00286399
0.00263385
0.00247683
0.00234072
0.00224875
0.00156642
0.00234707
0.0043137
0.0052528
0.00620985
0.00719988
0.00787331
0.00844211
0.00897461
0.00945961
0.00984043
0.00990196
0.00961837
0.00919019
0.00885634
0.00866027
0.00857144
0.00853834
0.00851728
0.00847583
0.00839604
0.00831698
0.00824895
0.00819204
0.0081346
0.0080478
0.00788412
0.00758699
0.00711584
0.00650326
0.00580847
0.00509201
0.00442264
0.00384648
0.0033886
0.00303993
0.00279376
0.00367882
0.00178226
0.00173269
0.00188761
0.00205221
0.00209194
0.00197659
0.00196295
0.00197799
0.00204504
0.00211173
0.00216773
0.00220057
0.00220013
0.00216631
0.00212093
0.00208026
0.00204938
0.00202995
0.00201795
0.00200905
0.00200051
0.00199207
0.00198716
0.00198365
0.00198131
0.00197829
0.00197088
0.00195397
0.0019227
0.00187566
0.00181895
0.00175725
0.00169476
0.00163676
0.00158691
0.00154862
0.00152253
0.00150341
0.00148168
0.00152944
0.00148293
)
;

boundaryField
{
    floor
    {
        type            compressible::alphatWallFunction;
        Prt             0.85;
        value           nonuniform List<scalar> 
29
(
0.000164406
9.73987e-05
0.000129389
0.00012332
0.000117094
0.000111694
0.000106337
9.9859e-05
9.33418e-05
8.73249e-05
8.18964e-05
7.70494e-05
7.26803e-05
6.86944e-05
6.49885e-05
6.14314e-05
5.78222e-05
5.41525e-05
4.93321e-05
5.54572e-05
5.54564e-05
7.14608e-05
7.88069e-05
8.92606e-05
0.000164404
9.73976e-05
0.000133731
0.00016344
0.000210477
)
;
    }
    ceiling
    {
        type            compressible::alphatWallFunction;
        Prt             0.85;
        value           nonuniform List<scalar> 
43
(
0.000242274
0.000262674
0.000284156
0.000289362
0.000274384
0.00027262
0.000274598
0.000283342
0.000292007
0.000299259
0.000303503
0.00030345
0.000299087
0.000293222
0.000287951
0.000283943
0.000281417
0.000279856
0.000278698
0.000277586
0.000276485
0.000275845
0.000275388
0.000275083
0.000274689
0.000273722
0.000271514
0.000267427
0.000261262
0.000253809
0.00024567
0.000237396
0.000229686
0.000223035
0.00021791
0.000214411
0.000211841
0.000208918
0.000215338
0.000209087
0.000414958
0.000491561
0.000322154
)
;
    }
    sWall
    {
        type            compressible::alphatWallFunction;
        Prt             0.85;
        value           uniform 0.000241176;
    }
    nWall
    {
        type            compressible::alphatWallFunction;
        Prt             0.85;
        value           nonuniform List<scalar> 6(9.45856e-05 0.000117908 0.000139109 0.000219814 0.000248484 0.000208606);
    }
    sideWalls
    {
        type            empty;
    }
    glass1
    {
        type            compressible::alphatWallFunction;
        Prt             0.85;
        value           nonuniform List<scalar> 9(0.000147184 0.000200161 0.000243478 0.000284466 0.000325534 0.000368311 0.000408896 0.000418772 0.000410064);
    }
    glass2
    {
        type            compressible::alphatWallFunction;
        Prt             0.85;
        value           nonuniform List<scalar> 2(0.000172702 0.000184796);
    }
    sun
    {
        type            compressible::alphatWallFunction;
        Prt             0.85;
        value           nonuniform List<scalar> 
14
(
0.000150318
0.000163496
0.00016629
0.0001741
0.000181312
0.00018806
0.000194674
0.00020144
0.000206763
0.000209949
0.000210202
0.000206752
0.000198767
0.000184944
)
;
    }
    heatsource1
    {
        type            compressible::alphatWallFunction;
        Prt             0.85;
        value           nonuniform List<scalar> 3(0.000101445 9.95287e-05 9.47833e-05);
    }
    heatsource2
    {
        type            compressible::alphatWallFunction;
        Prt             0.85;
        value           nonuniform List<scalar> 4(0.000172162 9.45291e-05 9.4528e-05 0.000171016);
    }
    Table_master
    {
        type            compressible::alphatWallFunction;
        Prt             0.85;
        value           nonuniform List<scalar> 9(0.000136593 0.000119991 0.000106717 9.60607e-05 8.74271e-05 8.03734e-05 7.45836e-05 6.9888e-05 6.63267e-05);
    }
    Table_slave
    {
        type            compressible::alphatWallFunction;
        Prt             0.85;
        value           nonuniform List<scalar> 9(0.000150492 0.000137619 0.000129304 0.000123702 0.000119502 0.000115651 0.000111155 0.000106514 0.000100971);
    }
    inlet
    {
        type            fixedValue;
        value           uniform 1.94e-05;
    }
    outlet
    {
        type            zeroGradient;
    }
}


// ************************************************************************* //
