/*--------------------------------*- C++ -*----------------------------------*\
  =========                 |
  \\      /  F ield         | OpenFOAM: The Open Source CFD Toolbox
   \\    /   O peration     | Website:  https://openfoam.org
    \\  /    A nd           | Version:  6
     \\/     M anipulation  |
\*---------------------------------------------------------------------------*/
FoamFile
{
    version     2.0;
    format      ascii;
    class       surfaceScalarField;
    location    "510";
    object      phi;
}
// * * * * * * * * * * * * * * * * * * * * * * * * * * * * * * * * * * * * * //

dimensions      [1 0 -1 0 0 0 0];

internalField   nonuniform List<scalar> 
852
(
-0.00250049
0.00254339
-0.00334771
0.000847211
-0.00401882
0.000671107
-0.00455931
0.000540488
-0.00493752
0.000378204
-0.00512945
0.000191926
-0.00511093
-1.85258e-05
-0.00485817
-0.000252764
-0.00437024
-0.00048793
-0.00368464
-0.00068561
-0.00286964
-0.000814995
-0.00200788
-0.000861763
-0.00118629
-0.000821595
-0.000500587
-0.000685709
-0.000504031
0.000145514
-0.000150447
0.000393536
-0.000248025
0.000768148
-0.000374616
0.00109691
-0.000328765
0.00134867
-0.000251763
0.00152434
-0.000175682
0.00161465
-9.0315e-05
0.00164641
-3.17602e-05
0.00165538
-8.97191e-06
0.00165427
1.10182e-06
0.00164527
8.99964e-06
0.00162754
1.77227e-05
0.00159584
3.16974e-05
0.00153544
6.03928e-05
0.00141161
0.000123822
0.00116425
0.000247359
0.000738904
0.000425339
3.00573e-05
0.000708842
2.33563e-05
-0.00181414
0.00447374
-0.00266483
0.00169789
-0.00336949
0.00137577
-0.00390885
0.00107984
-0.00428475
0.000754096
-0.00448347
0.000390642
-0.00447935
-2.26525e-05
-0.00425044
-0.000481671
-0.00380449
-0.000933887
-0.00319059
-0.00129951
-0.00248445
-0.00152114
-0.00177154
-0.00157468
-0.00113305
-0.00146009
-0.000627262
-0.0011915
-0.000332096
-0.000799201
-2.40379e-06
-0.000329746
-2.45804e-06
-3.86227e-05
-0.000123949
0.000655698
-0.00094235
0.0010084
-0.00072732
0.00126476
-0.000585126
0.00146275
-0.000449766
0.00159762
-0.000310553
0.00162823
-0.000120926
0.00163646
-4.00001e-05
0.00164429
-1.68072e-05
0.00165053
-5.14451e-06
0.00165437
5.15796e-06
0.00165573
1.63532e-05
0.00165354
3.38865e-05
0.00164294
7.09899e-05
0.00158874
0.000178019
0.00137817
0.000457916
0.00101499
0.000788519
0.000632184
0.00109164
0.0006373
-0.00130068
0.00595289
-0.00205252
0.00244972
-0.00269312
0.00201637
-0.0031671
0.00155381
-0.00350682
0.00109382
-0.00369691
0.000580724
-0.00369806
-2.15011e-05
-0.00347199
-0.000707751
-0.00304109
-0.00136479
-0.00247324
-0.00186737
-0.00184747
-0.00214692
-0.0012364
-0.00218574
-0.000696112
-0.00200038
-0.000271417
-0.0016162
2.61537e-05
-0.00109678
0.000183921
-0.000487518
0.000181459
0.00094807
-0.00108952
0.00104745
-0.00104174
0.00126951
-0.000949381
0.00143014
-0.000745757
0.00154452
-0.000564155
0.00166604
-0.000432079
0.00154526
0.00150541
0.00148875
0.00148375
0.00148905
0.00150555
0.00153958
0.00161072
0.00178888
0.00158551
0.000661287
0.00133593
0.00103809
0.000959761
0.00146781
0.00156821
-0.000936582
0.00712138
-0.00154993
0.00306307
-0.00199728
0.00246371
-0.00233197
0.00188849
-0.00258412
0.00134597
-0.00273164
0.000728231
-0.00271082
-4.23224e-05
-0.0024569
-0.000961675
-0.00203203
-0.00178965
-0.00152433
-0.00237507
-0.00100337
-0.00266788
-0.000518086
-0.00267103
-9.19511e-05
-0.00242652
0.000272933
-0.00198109
0.000599113
-0.00142296
0.000958888
-0.000847298
0.00156842
-0.000428074
0.00208308
-0.00053193
0.00189286
-0.000899304
0.00172434
-0.000873214
0.00157224
-0.000797292
0.00149451
-0.000668032
0.00145928
-0.000528925
0.00140499
-0.000377792
0.00158789
-0.000183061
0.00171306
-0.000125325
0.00182471
-0.000111809
0.00192964
-0.000105088
0.00202097
-9.14858e-05
0.00208248
-6.16661e-05
0.00208357
-1.23992e-06
0.0019789
0.000104509
0.0016983
0.000280439
0.00168578
0.000673802
0.00158369
0.00114017
0.00138288
0.00166862
0.00291359
-0.000676212
0.00807527
-0.00115437
0.00354122
-0.00129227
0.00260161
-0.00141658
0.0020128
-0.00152001
0.00144939
-0.00156904
0.000777257
-0.00146946
-0.000141902
-0.00115759
-0.00127355
-0.000763901
-0.00218335
-0.000366839
-0.00277213
-6.4212e-06
-0.0030283
0.000298185
-0.00297563
0.000546824
-0.00267516
0.000770074
-0.00220434
0.000999403
-0.00165229
0.0012744
-0.0011223
0.0015928
-0.000746471
0.00175011
-0.000689247
0.00158692
-0.000736115
0.00143254
-0.000718843
0.00129021
-0.000654964
0.00118732
-0.000565149
0.00112466
-0.000466274
0.00110786
-0.000360996
0.00118585
-0.000261056
0.00127675
-0.000216226
0.00137163
-0.000206702
0.00146962
-0.000203078
0.00156572
-0.000187593
0.00165023
-0.000146188
0.0017088
-5.9816e-05
0.00172412
8.91864e-05
0.00169612
0.000308435
0.00173708
0.000632827
0.00188654
0.000990707
0.00238709
0.00116807
0.00366118
0.00163949
0.002447
0.00121397
0.00149247
0.000954331
0.00153251
-0.000596857
0.00898884
-0.000932602
0.00387696
-0.000633437
0.00230244
-0.000456891
0.00183625
-0.000356223
0.00134872
-0.000219677
0.000640706
6.47265e-05
-0.000426312
0.000411674
-0.0016205
0.000709795
-0.00248147
0.000925409
-0.00298774
0.00105651
-0.0031594
0.00112299
-0.00304211
0.00115049
-0.00270267
0.00116566
-0.00221951
0.0011943
-0.00168094
0.00125365
-0.00118165
0.00132285
-0.000815684
0.00128671
-0.000653112
0.00114697
-0.00059638
0.000987272
-0.000559146
0.000842637
-0.000510335
0.000732109
-0.000454626
0.000664632
-0.000398802
0.000648929
-0.000345299
0.000690516
-0.000302649
0.000763053
-0.00028877
0.000849832
-0.000293487
0.000944297
-0.000297551
0.00104323
-0.000286534
0.00114527
-0.000248233
0.00125117
-0.000165727
0.0013529
-1.25441e-05
0.00144559
0.000215738
0.00157991
0.000498493
0.00178594
0.000784667
0.0020028
0.00095121
0.00230017
0.0013421
0.00201828
0.00149586
0.00123175
0.00174085
0.00280679
-0.000704696
0.010045
-0.000623361
0.00379562
0.000225485
0.00145359
0.000690618
0.00137111
0.00100063
0.0010387
0.00140658
0.000234748
0.00187062
-0.000890362
0.00215957
-0.00190944
0.00227766
-0.00259956
0.00224351
-0.0029536
0.00209461
-0.00301049
0.00187596
-0.00282346
0.0016305
-0.00245721
0.00139246
-0.00198147
0.00118656
-0.00147505
0.00102539
-0.0010205
0.00089687
-0.000687167
0.000752004
-0.000508251
0.00058774
-0.000432121
0.000424243
-0.000395654
0.000283248
-0.000369346
0.000176694
-0.000348078
0.000110933
-0.000333047
9.04307e-05
-0.000324804
0.000113579
-0.000325805
0.000164999
-0.000340197
0.000230979
-0.000359475
0.000304972
-0.000371551
0.000385446
-0.000367016
0.000476184
-0.000338978
0.000588833
-0.000278384
0.00074028
-0.000163999
0.000916773
3.92385e-05
0.00110883
0.000306427
0.00132237
0.000571126
0.00148906
0.000784509
0.00170314
0.00112802
0.00180993
0.00138906
0.00153069
0.00202008
0.00438213
0.00202371
0.00841412
0.00258122
0.0032381
0.00264452
0.00139029
0.00288907
0.00112655
0.00324041
0.000687359
0.00373326
-0.000258108
0.00407108
-0.00122819
0.00410026
-0.00193862
0.00386476
-0.00236405
0.00344575
-0.00253459
0.00292181
-0.00248655
0.002361
-0.00226265
0.00181819
-0.0019144
0.00132814
-0.00149142
0.000912305
-0.00105923
0.000582302
-0.000690499
0.000329681
-0.000434552
0.000125893
-0.000304469
-5.09752e-05
-0.000255258
-0.000203526
-0.000243109
-0.000327356
-0.000245523
-0.000421289
-0.000254151
-0.000484915
-0.000269428
-0.000518563
-0.000291164
-0.000525411
-0.000318963
-0.000514253
-0.000351362
-0.000492423
-0.000381312
-0.000464334
-0.000399647
-0.000432954
-0.000398403
-0.000398079
-0.000373861
-0.000347479
-0.000328991
-0.000247728
-0.000263758
-6.17485e-05
-0.000146748
0.000173563
7.11082e-05
0.000407402
0.000337279
0.000589941
0.000601963
0.000803918
0.000914032
0.000999278
0.0011937
0.000583024
0.00243633
0.00515398
0.00881656
0.0120249
0.0103464
0.00306876
0.00927773
0.00219521
0.00854498
0.00142011
0.00787367
0.000413196
0.00704094
-0.000395458
0.0060823
-0.000979958
0.00507851
-0.00136026
0.00408015
-0.00153622
0.0031223
-0.00152869
0.00223927
-0.00137962
0.00146605
-0.00114119
0.000815505
-0.000840888
0.000293599
-0.000537328
-9.04421e-05
-0.000306466
-0.000356014
-0.000168987
-0.000544421
-0.000116068
-0.000691148
-0.000108538
-0.000811557
-0.000122707
-0.0009121
-0.000144987
-0.000998198
-0.00016806
-0.00107201
-0.000195619
-0.00113556
-0.000227629
-0.00119122
-0.000263311
-0.00124211
-0.000300475
-0.0012901
-0.000333335
-0.00133723
-0.000352517
-0.00139044
-0.000345201
-0.00146677
-0.000297537
-0.00158818
-0.000207589
-0.00176828
-8.36648e-05
-0.00200834
9.33064e-05
-0.00229978
0.000362533
-0.00270462
0.000742114
-0.00336508
0.00126242
-0.00441874
0.00196768
-0.00594116
0.00271611
-0.00625957
0.00275474
-0.000902371
0.0038333
0.00346995
0.00370319
0.00232534
0.00440451
0.000718816
0.00463783
0.000179903
0.00445885
-0.000216451
0.00401535
-0.000536446
0.00338423
-0.000729129
0.00263485
-0.000786836
0.00183477
-0.000728616
0.00105309
-0.00059795
0.000357795
-0.000445912
-0.000207605
-0.0002755
-0.000610007
-0.000134936
-0.000862488
-5.39936e-05
-0.00102134
-1.01462e-05
-0.00113416
-3.25134e-06
-0.00122557
-1.71379e-05
-0.00130778
-4.05041e-05
-0.00138704
-6.57374e-05
-0.0014705
-8.46082e-05
-0.00156058
-0.000105542
-0.00166035
-0.000127868
-0.00177245
-0.000151218
-0.00189797
-0.00017496
-0.00203476
-0.000196549
-0.00217718
-0.000210113
-0.00231844
-0.000203947
-0.00245862
-0.000157357
-0.00260217
-6.40465e-05
-0.00275128
6.54341e-05
-0.00289486
0.000236876
-0.00301785
0.000485519
-0.00311938
0.00084364
-0.00318728
0.00133032
-0.00317573
0.00195612
-0.00296395
0.00250433
-0.00130562
0.00109639
-0.00216411
0.000533552
0.00292307
0.00193944
0.000919474
0.00232448
0.000333806
0.00235177
0.000152626
0.00213459
7.42941e-07
0.0017583
-0.000160158
0.00125019
-0.000221027
0.000675662
-0.000212326
0.000117139
-0.000170109
-0.000376299
-0.000104531
-0.000787739
-3.44857e-05
-0.00108356
2.03096e-05
-0.00127104
5.25338e-05
-0.00138765
6.26098e-05
-0.00145673
5.89236e-05
-0.00150688
4.68885e-05
-0.00155546
3.14372e-05
-0.00161135
1.53727e-05
-0.00167648
-6.10823e-07
-0.00174581
-1.52831e-05
-0.00182327
-2.80876e-05
-0.00191216
-3.89923e-05
-0.00201686
-4.65235e-05
-0.0021429
-4.89224e-05
-0.0022949
-4.45641e-05
-0.00247281
-3.22086e-05
-0.00266548
-1.12802e-05
-0.00284347
2.06285e-05
-0.00297305
6.55238e-05
-0.00304063
0.000133008
-0.00303669
0.000232924
-0.00292198
0.000370809
-0.00264505
0.000566696
-0.00213937
0.000824628
-0.00121093
0.00102768
0.000343835
0.00094956
0.00141808
2.21443e-05
-0.000701766
-0.00356751
-0.00490697
-0.00200723
-0.00112069
-0.00082608
-0.000716036
-0.000760516
-0.000967208
-0.00123571
-0.00149622
-0.00171522
-0.00186961
-0.00195525
-0.0019874
-0.00198844
-0.00198023
-0.00197624
-0.00198462
-0.00200869
-0.00204905
-0.0021056
-0.00217695
-0.00226119
-0.00235639
-0.0024592
-0.00256459
-0.00266601
-0.00275584
-0.00282592
-0.00286557
-0.00286205
-0.00279288
-0.00262563
-0.00232218
-0.00182423
-0.00106938
-0.000112334
0.00076566
0.000717949
)
;

boundaryField
{
    floor
    {
        type            calculated;
        value           nonuniform List<scalar> 
29
(
0
0
0
0
0
0
0
0
0
0
0
0
0
0
0
0
0
0
0
0
6.69624e-06
1.8235e-05
2.88415e-05
3.74971e-05
3.44078e-06
4.92938e-06
1.21209e-05
1.74955e-05
1.72601e-05
)
;
    }
    ceiling
    {
        type            calculated;
        value           nonuniform List<scalar> 
43
(
2.82807e-05
2.50262e-05
2.33274e-05
3.29368e-05
3.9186e-05
4.25619e-05
4.51971e-05
4.65087e-05
4.74546e-05
4.81573e-05
4.88768e-05
4.98498e-05
5.11358e-05
5.24539e-05
5.35634e-05
5.43936e-05
5.49256e-05
5.52596e-05
5.55021e-05
5.57225e-05
5.59327e-05
5.60564e-05
5.61448e-05
5.62041e-05
5.62786e-05
5.64552e-05
5.6857e-05
5.76125e-05
5.87889e-05
6.02763e-05
6.1989e-05
6.38362e-05
6.56671e-05
6.73493e-05
6.87362e-05
6.97713e-05
7.06274e-05
7.15584e-05
6.98486e-05
7.21069e-05
3.63745e-05
2.97973e-05
1.33427e-05
)
;
    }
    sWall
    {
        type            calculated;
        value           uniform -0.000220735;
    }
    nWall
    {
        type            calculated;
        value           nonuniform List<scalar> 6(-4.02466e-05 -4.25384e-05 -4.46595e-05 -4.38873e-05 -4.42684e-05 -5.59303e-05);
    }
    sideWalls
    {
        type            empty;
        value           nonuniform 0();
    }
    glass1
    {
        type            calculated;
        value           nonuniform List<scalar> 9(-4.29062e-05 -0.000116211 -0.000178475 -0.000231903 -0.000277684 -0.000316717 -0.000351518 -0.000392782 -0.000438822);
    }
    glass2
    {
        type            calculated;
        value           nonuniform List<scalar> 2(-0.000188831 -0.000203225);
    }
    sun
    {
        type            calculated;
        value           uniform 0;
    }
    heatsource1
    {
        type            calculated;
        value           nonuniform List<scalar> 3(2.00237e-07 2.00767e-07 2.01171e-07);
    }
    heatsource2
    {
        type            calculated;
        value           nonuniform List<scalar> 4(5.03907e-08 5.04847e-08 0 0);
    }
    Table_master
    {
        type            calculated;
        value           nonuniform List<scalar> 9(-1.50747e-07 -1.50839e-07 -1.50865e-07 -1.5088e-07 -1.50888e-07 -1.50889e-07 -1.50884e-07 -1.50867e-07 -1.50816e-07);
    }
    Table_slave
    {
        type            calculated;
        value           nonuniform List<scalar> 9(1.50675e-07 1.5069e-07 1.50654e-07 1.50619e-07 1.50589e-07 1.50568e-07 1.5057e-07 1.50576e-07 1.50621e-07);
    }
    inlet
    {
        type            calculated;
        value           uniform -0.00423447;
    }
    outlet
    {
        type            calculated;
        value           nonuniform List<scalar> 2(0.00375997 0.00131444);
    }
}


// ************************************************************************* //
