// -*- C++ -*-
// File generated by PyFoam - sorry for the ugliness

FoamFile
{
 version 2.0;
 format ascii;
 class volVectorField;
 location "400";
 object U;
}

dimensions [ 0 1 -1 0 0 0 0 ];

internalField nonuniform List<vector> 459
(
  (0.0667749 0.07714 0)
  (-0.15145 0.0142964 0)
  (-0.159692 0.0143699 0)
  (-0.187481 0.0118451 0)
  (-0.211712 0.00848247 0)
  (-0.231884 0.00476209 0)
  (-0.247319 0.000669961 0)
  (-0.257272 -0.00392621 0)
  (-0.260755 -0.00920673 0)
  (-0.256345 -0.015431 0)
  (-0.242469 -0.0231866 0)
  (-0.216387 -0.0328918 0)
  (-0.17663 -0.046274 0)
  (-0.132588 -0.0670686 0)
  (-0.118891 -0.0961143 0)
  (0.0758661 -0.0317213 0)
  (0.0397599 -0.0143257 0)
  (0.0418031 -0.00181455 0)
  (0.0448596 0.0046716 0)
  (0.0409873 0.00681999 0)
  (0.0328324 0.00731984 0)
  (0.0238118 0.0078061 0)
  (0.0148241 0.00678151 0)
  (0.00757018 0.00211614 0)
  (0.00486444 -0.00180702 0)
  (0.00564367 -0.00262773 0)
  (0.00665567 -0.00276547 0)
  (0.0076106 -0.00281224 0)
  (0.00884022 -0.00272701 0)
  (0.00998692 -0.00239975 0)
  (0.0104287 -0.00181547 0)
  (0.010934 -0.00399627 0)
  (0.0298722 -0.00724364 0)
  (-0.0504957 0.0107142 0)
  (0.264468 0.163687 0)
  (-0.160086 0.0443358 0)
  (-0.135358 0.045244 0)
  (-0.167123 0.0407534 0)
  (-0.191843 0.0353156 0)
  (-0.212357 0.0292326 0)
  (-0.228304 0.0222199 0)
  (-0.239113 0.0138799 0)
  (-0.243881 0.00378978 0)
  (-0.241209 -0.00841218 0)
  (-0.230719 -0.0221161 0)
  (-0.211543 -0.0369769 0)
  (-0.185015 -0.0540946 0)
  (-0.157783 -0.0757165 0)
  (-0.13675 -0.0945351 0)
  (-0.102981 -0.0769626 0)
  (-0.0607502 -0.0645126 0)
  (0.0774451 -0.0520167 0)
  (0.0295335 -0.0216427 0)
  (0.0340392 -0.0039174 0)
  (0.0410404 0.00358585 0)
  (0.043718 0.00634135 0)
  (0.0445346 0.00793769 0)
  (0.0452852 0.00918705 0)
  (0.0460625 0.00882039 0)
  (0.0471166 0.00666055 0)
  (0.0471955 0.00451424 0)
  (0.0456211 0.00316506 0)
  (0.0434357 0.00232297 0)
  (0.0413634 0.00173797 0)
  (0.0395229 0.0013821 0)
  (0.0375467 0.0016459 0)
  (0.0338578 0.00429613 0)
  (0.0266296 0.00125936 0)
  (0.0406288 -0.00426936 0)
  (-0.0943882 0.0244107 0)
  (0.441079 0.24835 0)
  (-0.1987 0.0778857 0)
  (-0.104161 0.0757154 0)
  (-0.13981 0.064804 0)
  (-0.161721 0.0545139 0)
  (-0.180377 0.0434726 0)
  (-0.19531 0.0309306 0)
  (-0.205987 0.0163606 0)
  (-0.211409 -0.000542563 0)
  (-0.209951 -0.0195976 0)
  (-0.201386 -0.0404926 0)
  (-0.186138 -0.0619974 0)
  (-0.166366 -0.0833185 0)
  (-0.145664 -0.103188 0)
  (-0.123746 -0.114948 0)
  (-0.095723 -0.110049 0)
  (-0.0810586 -0.112932 0)
  (0.0486974 -0.0598984 0)
  (0.00125457 -0.0248555 0)
  (0.0121395 -0.00633209 0)
  (0.0222252 0.000540613 0)
  (0.0297696 0.00298729 0)
  (0.0357704 0.00386909 0)
  (0.0437265 0.00363191 0)
  (0.0511832 0.0029687 0)
  (0.0566469 0.00137956 0)
  (0.0599949 -0.000226708 0)
  (0.0617719 -0.00130508 0)
  (0.0628305 -0.00196808 0)
  (0.0636165 -0.00242419 0)
  (0.064337 -0.00273236 0)
  (0.0652404 -0.00166285 0)
  (0.0609982 0.0113966 0)
  (0.0458597 0.0147103 0)
  (0.05666 0.0125892 0)
  (-0.118547 0.0407253 0)
  (0.593142 0.318258 0)
  (-0.250157 0.112148 0)
  (-0.0674922 0.102532 0)
  (-0.108748 0.0861899 0)
  (-0.125033 0.0733563 0)
  (-0.139969 0.0598188 0)
  (-0.152664 0.044262 0)
  (-0.162532 0.0257912 0)
  (-0.168323 0.00373003 0)
  (-0.167768 -0.0218669 0)
  (-0.160672 -0.0494212 0)
  (-0.148731 -0.0763733 0)
  (-0.134413 -0.100553 0)
  (-0.120287 -0.119782 0)
  (-0.106902 -0.13042 0)
  (-0.0956117 -0.13006 0)
  (-0.0914679 -0.112374 0)
  (-0.0689911 -0.0423628 0)
  (-0.0126509 -0.0613629 0)
  (-0.00892032 -0.0371993 0)
  (0.00107441 -0.0184015 0)
  (0.00954486 -0.00898924 0)
  (0.01603 -0.00500236 0)
  (0.0216302 -0.00272324 0)
  (0.0257459 -0.00466727 0)
  (0.0325338 -0.00710458 0)
  (0.0407303 -0.00845404 0)
  (0.0502211 -0.0093351 0)
  (0.060648 -0.00967028 0)
  (0.0709974 -0.00902427 0)
  (0.0793602 -0.00678531 0)
  (0.0828229 -0.00248361 0)
  (0.0773333 0.00443656 0)
  (0.0648729 0.0232226 0)
  (0.0483885 0.0365234 0)
  (0.0524198 0.0426508 0)
  (-0.175664 0.0500982 0)
  (0.719027 0.374745 0)
  (-0.301578 0.144756 0)
  (-0.028347 0.119273 0)
  (-0.075232 0.100459 0)
  (-0.0845184 0.0866663 0)
  (-0.0941683 0.0717387 0)
  (-0.102934 0.0541139 0)
  (-0.110378 0.0326589 0)
  (-0.115233 0.00638573 0)
  (-0.114098 -0.0246831 0)
  (-0.107153 -0.0576459 0)
  (-0.0975341 -0.0878933 0)
  (-0.0874582 -0.112638 0)
  (-0.0786475 -0.130584 0)
  (-0.0714674 -0.140787 0)
  (-0.0653396 -0.142614 0)
  (-0.0568786 -0.130652 0)
  (-0.0394581 -0.0948632 0)
  (-0.0183865 -0.0747683 0)
  (-0.0102147 -0.0469676 0)
  (-0.00356687 -0.0265859 0)
  (0.00211202 -0.0151933 0)
  (0.00690747 -0.0102722 0)
  (0.0117736 -0.00848754 0)
  (0.0168982 -0.00920799 0)
  (0.023209 -0.0109329 0)
  (0.0302913 -0.0129595 0)
  (0.0384456 -0.0147826 0)
  (0.0476149 -0.0156543 0)
  (0.057245 -0.0143904 0)
  (0.066229 -0.0093867 0)
  (0.0731516 0.000852565 0)
  (0.0751754 0.0154304 0)
  (0.0716783 0.0343603 0)
  (0.0630494 0.0520716 0)
  (0.0724175 0.0653306 0)
  (0.00126424 0.0606709 0)
  (0.0590153 0.034466 0)
  (-0.0345345 -0.0148843 0)
  (-0.280278 -0.0435123 0)
  (0.805569 0.424243 0)
  (-0.345273 0.171554 0)
  (0.00334949 0.119069 0)
  (-0.0387114 0.107804 0)
  (-0.0416991 0.0945766 0)
  (-0.0460285 0.0787226 0)
  (-0.0498331 0.0601558 0)
  (-0.0531868 0.0374891 0)
  (-0.0553714 0.00875499 0)
  (-0.0499575 -0.0275152 0)
  (-0.0421744 -0.0651603 0)
  (-0.0352891 -0.096698 0)
  (-0.0301518 -0.120244 0)
  (-0.0274102 -0.136035 0)
  (-0.0268917 -0.144681 0)
  (-0.0270123 -0.146012 0)
  (-0.0246465 -0.135661 0)
  (-0.0179057 -0.11059 0)
  (-0.0102995 -0.0824779 0)
  (-0.00743563 -0.0514342 0)
  (-0.00527239 -0.0299461 0)
  (-0.00344822 -0.0186946 0)
  (-0.00109282 -0.0138802 0)
  (0.0021309 -0.0126044 0)
  (0.00597671 -0.0138253 0)
  (0.0103977 -0.0165276 0)
  (0.0154352 -0.0197614 0)
  (0.021433 -0.0228662 0)
  (0.0285611 -0.0249387 0)
  (0.0367437 -0.0244564 0)
  (0.0457634 -0.0192942 0)
  (0.0553598 -0.00698626 0)
  (0.0648227 0.0124504 0)
  (0.0704 0.0342967 0)
  (0.0732453 0.0541502 0)
  (0.0868961 0.0697624 0)
  (0.0788602 0.0653913 0)
  (0.102772 0.0541467 0)
  (0.115333 0.0437958 0)
  (-0.0986767 0.0144066 0)
  (0.83107 0.4686 0)
  (-0.365819 0.163064 0)
  (0.0228353 0.0755401 0)
  (0.0116561 0.105832 0)
  (0.00959558 0.103912 0)
  (0.00684034 0.0841108 0)
  (0.00705695 0.0618832 0)
  (0.00851039 0.0378541 0)
  (0.0102367 0.006007 0)
  (0.0259535 -0.0361529 0)
  (0.0332356 -0.0730103 0)
  (0.0352867 -0.101358 0)
  (0.0335106 -0.121384 0)
  (0.0285288 -0.134233 0)
  (0.0211714 -0.141169 0)
  (0.0134136 -0.142836 0)
  (0.0075494 -0.135596 0)
  (0.00403472 -0.114095 0)
  (0.000995494 -0.083169 0)
  (-0.00394838 -0.0497329 0)
  (-0.00688492 -0.0285334 0)
  (-0.00888978 -0.0187061 0)
  (-0.00929449 -0.0152252 0)
  (-0.00849472 -0.0150023 0)
  (-0.00710357 -0.0167884 0)
  (-0.00544346 -0.019979 0)
  (-0.00339974 -0.0239968 0)
  (-0.000702932 -0.0282339 0)
  (0.00291652 -0.0317505 0)
  (0.00761117 -0.0329302 0)
  (0.0139088 -0.0297934 0)
  (0.0225552 -0.0194776 0)
  (0.0370493 0.000777767 0)
  (0.051893 0.0244161 0)
  (0.0644794 0.0435981 0)
  (0.0831344 0.0562101 0)
  (0.0987167 0.0522555 0)
  (0.121535 0.0406613 0)
  (0.154735 0.0473033 0)
  (-0.0323272 0.105048 0)
  (0.928148 0.483858 0)
  (-0.125814 0.144888 0)
  (0.0860999 0.00421086 0)
  (0.128239 0.0401166 0)
  (0.108946 0.0681106 0)
  (0.0929487 0.0598273 0)
  (0.0901929 0.0382223 0)
  (0.09332 0.0123619 0)
  (0.104981 -0.0199962 0)
  (0.117147 -0.0502863 0)
  (0.11835 -0.0767577 0)
  (0.111464 -0.0978371 0)
  (0.0993889 -0.113123 0)
  (0.0840022 -0.123134 0)
  (0.0668831 -0.128903 0)
  (0.0504236 -0.131281 0)
  (0.0361889 -0.126385 0)
  (0.0237698 -0.106773 0)
  (0.0111607 -0.07546 0)
  (-0.00270606 -0.0422017 0)
  (-0.0107208 -0.0228106 0)
  (-0.0156879 -0.0158803 0)
  (-0.0183631 -0.0143098 0)
  (-0.0198659 -0.0149569 0)
  (-0.0212518 -0.0169718 0)
  (-0.0228406 -0.0203011 0)
  (-0.0245229 -0.0246327 0)
  (-0.0262632 -0.0293033 0)
  (-0.0280632 -0.0334113 0)
  (-0.0296919 -0.0358764 0)
  (-0.0304987 -0.0354685 0)
  (-0.0293034 -0.030833 0)
  (-0.023398 -0.0207525 0)
  (-0.00047814 -0.00395256 0)
  (0.0169572 0.012267 0)
  (0.0334739 0.0170999 0)
  (0.0454232 0.00682676 0)
  (0.0596368 -0.00651577 0)
  (0.119207 0.0532473 0)
  (-0.422446 0.219808 0)
  (1.05573 0.447 0)
  (0.509986 0.29886 0)
  (0.513383 0.227054 0)
  (0.487743 0.189285 0)
  (0.408231 0.164429 0)
  (0.337591 0.128273 0)
  (0.296602 0.0874299 0)
  (0.274933 0.0480637 0)
  (0.260295 0.0108732 0)
  (0.238479 -0.0242024 0)
  (0.213246 -0.0533973 0)
  (0.186188 -0.0752109 0)
  (0.158013 -0.0902407 0)
  (0.129444 -0.100041 0)
  (0.101449 -0.106464 0)
  (0.0765381 -0.11108 0)
  (0.0551728 -0.108879 0)
  (0.0362703 -0.0901854 0)
  (0.0158891 -0.0589943 0)
  (-0.00711159 -0.0278616 0)
  (-0.0180996 -0.0144894 0)
  (-0.0242475 -0.011744 0)
  (-0.0277967 -0.012016 0)
  (-0.0308323 -0.0127433 0)
  (-0.0347531 -0.014235 0)
  (-0.0395943 -0.0170551 0)
  (-0.0452265 -0.0208085 0)
  (-0.0519638 -0.0246253 0)
  (-0.0603136 -0.027511 0)
  (-0.0707598 -0.0283448 0)
  (-0.0838082 -0.0257856 0)
  (-0.100095 -0.0182773 0)
  (-0.119824 -0.00447721 0)
  (-0.140899 0.015377 0)
  (-0.161514 0.0367896 0)
  (-0.196604 0.0576224 0)
  (-0.24687 0.0757588 0)
  (-0.299933 0.08953 0)
  (-0.366127 0.0977441 0)
  (-0.630632 0.100661 0)
  (-0.251129 0.0887647 0)
  (0.172168 0.162872 0)
  (0.264894 0.160184 0)
  (0.262693 0.132313 0)
  (0.263404 0.0946934 0)
  (0.26509 0.0552666 0)
  (0.261206 0.0197416 0)
  (0.249678 -0.00941207 0)
  (0.229942 -0.0316281 0)
  (0.204497 -0.0478776 0)
  (0.17519 -0.059398 0)
  (0.143743 -0.0675547 0)
  (0.111854 -0.0741388 0)
  (0.0834384 -0.0815899 0)
  (0.0568304 -0.0828754 0)
  (0.0338889 -0.0641531 0)
  (0.00868901 -0.0331575 0)
  (-0.0191408 -0.0109823 0)
  (-0.0287423 -0.00626459 0)
  (-0.0333724 -0.00677586 0)
  (-0.0356616 -0.00782056 0)
  (-0.0388902 -0.00806331 0)
  (-0.0441942 -0.00868117 0)
  (-0.0507591 -0.0104136 0)
  (-0.0581315 -0.0127721 0)
  (-0.0666283 -0.0148123 0)
  (-0.0765546 -0.0156074 0)
  (-0.0878352 -0.0143035 0)
  (-0.0999293 -0.0100533 0)
  (-0.111749 -0.00193766 0)
  (-0.121552 0.0110349 0)
  (-0.129412 0.0291445 0)
  (-0.135734 0.0514207 0)
  (-0.142545 0.0720226 0)
  (-0.14635 0.0814089 0)
  (-0.130209 0.0609269 0)
  (-0.0890004 -0.030271 0)
  (-0.279861 -0.210179 0)
  (-0.121475 0.24378 0)
  (0.0920871 0.17274 0)
  (0.10631 0.12642 0)
  (0.13632 0.104999 0)
  (0.169017 0.0781884 0)
  (0.193294 0.0492414 0)
  (0.204932 0.0251063 0)
  (0.204594 0.00809996 0)
  (0.19494 -0.00466028 0)
  (0.177745 -0.0145985 0)
  (0.155069 -0.0225198 0)
  (0.128487 -0.0293667 0)
  (0.0992721 -0.0374069 0)
  (0.0713488 -0.0521242 0)
  (0.0344095 -0.0590938 0)
  (0.00555003 -0.0313952 0)
  (-0.0215823 0.0169986 0)
  (-0.0352038 0.022134 0)
  (-0.0386617 0.0188916 0)
  (-0.0395434 0.0116155 0)
  (-0.0407315 0.0078401 0)
  (-0.0433044 0.00945228 0)
  (-0.0473169 0.00962977 0)
  (-0.0524018 0.00630826 0)
  (-0.0581611 0.00219756 0)
  (-0.0646049 -0.000786864 0)
  (-0.0715835 -0.00216504 0)
  (-0.0785761 -0.00181717 0)
  (-0.0846089 0.000509352 0)
  (-0.0881313 0.00539035 0)
  (-0.0879931 0.0141951 0)
  (-0.0821671 0.0286368 0)
  (-0.0702644 0.0481571 0)
  (-0.0527934 0.0672736 0)
  (-0.0325466 0.0789542 0)
  (0.00488677 0.0680344 0)
  (0.138715 -0.000577742 0)
  (-0.205899 -0.123355 0)
  (-0.122557 -0.351736 0)
  (-0.429788 -0.0995235 0)
  (-0.313935 0.143448 0)
  (-0.166832 0.0545237 0)
  (-0.0857118 0.033514 0)
  (0.00838175 0.0358167 0)
  (0.0737991 0.0186981 0)
  (0.118816 -0.000212929 0)
  (0.146449 -0.0170438 0)
  (0.157135 -0.0314732 0)
  (0.15523 -0.0425911 0)
  (0.143754 -0.0515603 0)
  (0.125482 -0.0596604 0)
  (0.102303 -0.0681737 0)
  (0.0747248 -0.0794689 0)
  (0.0455852 -0.0983292 0)
  (-0.0213281 -0.0962215 0)
  (-0.0518192 -0.0686977 0)
  (-0.0488993 -0.0583389 0)
  (-0.0431629 -0.0592749 0)
  (-0.0398123 -0.0673106 0)
  (-0.0421408 -0.068862 0)
  (-0.0480954 -0.0619942 0)
  (-0.0518022 -0.0522821 0)
  (-0.0523801 -0.0438607 0)
  (-0.0526153 -0.0374329 0)
  (-0.0543566 -0.0323385 0)
  (-0.0577109 -0.0279922 0)
  (-0.0619882 -0.0240229 0)
  (-0.06617 -0.0200218 0)
  (-0.0687179 -0.0154292 0)
  (-0.0674551 -0.00943094 0)
  (-0.0594583 -0.00145035 0)
  (-0.0425427 0.00937061 0)
  (-0.018078 0.0238566 0)
  (0.0295599 0.0432615 0)
  (0.0699058 0.0451914 0)
  (0.111035 0.0306899 0)
  (0.166416 -0.00167736 0)
  (-0.194803 -0.0620789 0)
)
;

boundaryField
{
  floor
  {
    type noSlip;
  }
  ceiling
  {
    type noSlip;
  }
  sWall
  {
    type noSlip;
  }
  nWall
  {
    type noSlip;
  }
  sideWalls
  {
    type empty;
  }
  glass1
  {
    type noSlip;
  }
  glass2
  {
    type noSlip;
  }
  sun
  {
    type noSlip;
  }
  heatsource1
  {
    type noSlip;
  }
  heatsource2
  {
    type noSlip;
  }
  Table_master
  {
    type noSlip;
  }
  Table_slave
  {
    type noSlip;
  }
  inlet
  {
    type fixedValue;
    value uniform (0.0382683 -0.092388 0);
  }
  outlet
  {
    type zeroGradient;
  }
} 	// ************************************************************************* //

