/*--------------------------------*- C++ -*----------------------------------*\
  =========                 |
  \\      /  F ield         | OpenFOAM: The Open Source CFD Toolbox
   \\    /   O peration     | Website:  https://openfoam.org
    \\  /    A nd           | Version:  6
     \\/     M anipulation  |
\*---------------------------------------------------------------------------*/
FoamFile
{
    version     2.0;
    format      ascii;
    class       volScalarField;
    location    "500";
    object      epsilon;
}
// * * * * * * * * * * * * * * * * * * * * * * * * * * * * * * * * * * * * * //

dimensions      [0 2 -3 0 0 0 0];

internalField   nonuniform List<scalar> 
459
(
0.000440685
0.000574252
0.00060634
0.000697757
0.000790074
0.000883352
0.000981356
0.0010853
0.00116394
0.00120006
0.00117883
0.00109494
0.000957312
0.000791565
0.00063378
3.75211e-05
6.9244e-05
9.79067e-05
9.51722e-05
8.5253e-05
7.35826e-05
6.07936e-05
4.97436e-05
4.09579e-05
3.40767e-05
2.86619e-05
2.43557e-05
2.09067e-05
1.80979e-05
1.57387e-05
1.36609e-05
1.16971e-05
1.04003e-05
7.84237e-06
0.00111813
0.00160914
0.000544104
0.000527663
0.000552784
0.000592961
0.000651343
0.000729784
0.000805824
0.000856592
0.000862442
0.000815598
0.000721813
0.000603959
0.00052502
0.000667942
0.000142964
4.8161e-05
0.000118755
0.000122856
0.000110021
9.25802e-05
7.6752e-05
6.82822e-05
5.5267e-05
4.38781e-05
3.48577e-05
2.78913e-05
2.25308e-05
1.84112e-05
1.52523e-05
1.2936e-05
1.15459e-05
1.09545e-05
2.48041e-05
1.74863e-05
0.00204119
0.00394713
0.000680471
0.000505718
0.000528972
0.000592486
0.000685965
0.000804623
0.000916975
0.00099006
0.00100474
0.000959278
0.000863461
0.000737943
0.000629316
0.000568328
0.000642422
0.000388971
0.000270032
0.000200328
0.000152832
0.000119209
9.9239e-05
0.000178171
0.000122899
8.78661e-05
6.50212e-05
4.96416e-05
3.89673e-05
3.13673e-05
2.5871e-05
2.1916e-05
1.66254e-05
1.38199e-05
4.38616e-05
2.69612e-05
0.0033077
0.00819079
0.00109347
0.000519332
0.0005218
0.000612422
0.000757183
0.000939745
0.00108909
0.00116933
0.00117448
0.00111391
0.00100041
0.000851193
0.000713961
0.000612875
0.000584213
0.00111862
0.000616152
0.000367103
0.00024436
0.000175006
0.000132478
0.000112647
0.000255271
0.000192703
0.000154798
0.000129508
0.000110347
9.45618e-05
8.09139e-05
6.80993e-05
5.50395e-05
3.24277e-05
2.10677e-05
6.77532e-05
3.62762e-05
0.00505171
0.0145748
0.00218867
0.000641635
0.000552162
0.000671247
0.000928498
0.00120518
0.00136836
0.00142484
0.00139674
0.00130212
0.00115294
0.000968113
0.000777805
0.000607955
0.000478622
0.000415728
0.00033264
0.000258845
0.000200507
0.000156549
0.000124508
0.000103803
0.000100095
9.2852e-05
8.55996e-05
7.85227e-05
7.12153e-05
6.36044e-05
5.6135e-05
4.91091e-05
4.26763e-05
3.38918e-05
2.57485e-05
5.04023e-05
3.99354e-05
6.79293e-05
0.000120915
0.000170832
0.00747505
0.0215999
0.00493084
0.00129283
0.000879051
0.00100829
0.00148663
0.0017477
0.0018253
0.00180019
0.00171124
0.00156504
0.00136269
0.00111947
0.000866518
0.000638734
0.000464298
0.000352706
0.000279907
0.000223957
0.000177928
0.000141955
0.000115786
9.89431e-05
9.09803e-05
8.73663e-05
8.49543e-05
8.20652e-05
7.76885e-05
7.10026e-05
6.20608e-05
5.28158e-05
4.43631e-05
3.6793e-05
3.17153e-05
3.98811e-05
4.13529e-05
5.17651e-05
0.00022261
0.000193688
0.0102641
0.0257911
0.0100863
0.00421082
0.00290055
0.00280774
0.00285381
0.00273277
0.0025474
0.00235391
0.00215253
0.00191776
0.0016314
0.00130491
0.00097479
0.000684204
0.000468696
0.000332808
0.000250975
0.000196056
0.000155113
0.000125573
0.000106261
9.58378e-05
9.2627e-05
9.3579e-05
9.5896e-05
9.81589e-05
9.93407e-05
9.79273e-05
9.09011e-05
8.02908e-05
6.97595e-05
6.07294e-05
5.69598e-05
6.27834e-05
7.89367e-05
0.000125166
0.000291216
0.000283883
0.0108757
0.0279619
0.0156393
0.0107394
0.00812115
0.0063251
0.00498925
0.00408041
0.00348186
0.00306725
0.00272237
0.00236158
0.00194511
0.00149399
0.00105909
0.000690737
0.000436827
0.00028872
0.00020541
0.000159007
0.000128709
0.000109533
9.9163e-05
9.57775e-05
9.76856e-05
0.000103141
0.00011094
0.000120815
0.000132902
0.000147121
0.000162474
0.000171636
0.000179933
0.000197915
0.000235903
0.000350873
0.000643011
0.00121649
0.00362374
0.00108777
0.0100323
0.0167345
0.0133308
0.0101211
0.00780765
0.00626379
0.00526984
0.00464435
0.00421965
0.00384309
0.00340661
0.0028578
0.00220718
0.00155722
0.000992137
0.000546038
0.000319285
0.000213077
0.000157837
0.000126431
0.000107636
9.73636e-05
9.34229e-05
9.43346e-05
9.90805e-05
0.000107061
0.00011826
0.000133361
0.000153661
0.000181011
0.000217865
0.000267915
0.000336913
0.000441492
0.000596354
0.000808744
0.00105551
0.00127537
0.00144474
0.000908774
0.00367293
0.00566493
0.00653871
0.0066416
0.00646313
0.00609089
0.00548677
0.00466632
0.00370661
0.0026598
0.00158462
0.000897068
0.000503473
0.00028991
0.000189095
0.000140206
0.000114541
0.000100015
9.17247e-05
8.75973e-05
8.63492e-05
8.73103e-05
9.02683e-05
9.54242e-05
0.000103295
0.000114802
0.000131342
0.000154943
0.000188548
0.000236394
0.000303439
0.000396477
0.000519295
0.000661955
0.000788854
0.00085024
0.000814868
0.000524257
0.0027745
0.00636857
0.007106
0.00591358
0.00530244
0.00462471
0.00371457
0.00275872
0.0019167
0.00125612
0.00075722
0.000446924
0.000277523
0.000192964
0.000154336
0.000136996
0.000129019
0.000124963
0.000122426
0.000120456
0.000118814
0.000117638
0.000117443
0.000119007
0.000122967
0.000130147
0.000141765
0.000159626
0.000186398
0.000225429
0.000281151
0.000358119
0.000457036
0.000570104
0.000656202
0.000749745
0.00075396
0.000556044
0.00198292
0.00235982
0.00265392
0.00331369
0.00299984
0.00263969
0.0024245
0.00214672
0.00178666
0.00139635
0.00102829
0.000719547
0.000485344
0.000328906
0.000235375
0.000181005
0.000148219
0.000127366
0.000113612
0.000104501
9.86844e-05
9.53867e-05
9.42394e-05
9.52843e-05
9.8762e-05
0.000104542
0.000112919
0.00012445
0.00014
0.000160859
0.000187555
0.000221424
0.00026452
0.000319433
0.000388477
0.000482139
0.000517129
0.000479169
0.000397402
0.000322016
)
;

boundaryField
{
    floor
    {
        Cmu             0.09;
        kappa           0.41;
        E               9.8;
        type            epsilonWallFunction;
        value           nonuniform List<scalar> 
29
(
0.00063378
3.75211e-05
6.9244e-05
9.79067e-05
9.51722e-05
8.5253e-05
7.35826e-05
6.07936e-05
4.97436e-05
4.09579e-05
3.40767e-05
2.86619e-05
2.43557e-05
2.09067e-05
1.80979e-05
1.57387e-05
1.36609e-05
1.16971e-05
1.04003e-05
7.84237e-06
7.84237e-06
1.74863e-05
2.69612e-05
3.62762e-05
0.00063378
3.75211e-05
4.8161e-05
0.000388971
0.00111862
)
;
    }
    ceiling
    {
        Cmu             0.09;
        kappa           0.41;
        E               9.8;
        type            epsilonWallFunction;
        value           nonuniform List<scalar> 
43
(
0.00198292
0.00235982
0.00265392
0.00331369
0.00299984
0.00263969
0.0024245
0.00214672
0.00178666
0.00139635
0.00102829
0.000719547
0.000485344
0.000328906
0.000235375
0.000181005
0.000148219
0.000127366
0.000113612
0.000104501
9.86844e-05
9.53867e-05
9.42394e-05
9.52843e-05
9.8762e-05
0.000104542
0.000112919
0.00012445
0.00014
0.000160859
0.000187555
0.000221424
0.00026452
0.000319433
0.000388477
0.000482139
0.000517129
0.000479169
0.000397402
0.000322016
0.0100323
0.0167345
0.0027745
)
;
    }
    sWall
    {
        Cmu             0.09;
        kappa           0.41;
        E               9.8;
        type            epsilonWallFunction;
        value           uniform 0.00198292;
    }
    nWall
    {
        Cmu             0.09;
        kappa           0.41;
        E               9.8;
        type            epsilonWallFunction;
        value           nonuniform List<scalar> 6(0.000170832 0.000193688 0.000283883 0.000524257 0.000556044 0.000322016);
    }
    sideWalls
    {
        type            empty;
    }
    glass1
    {
        Cmu             0.09;
        kappa           0.41;
        E               9.8;
        type            epsilonWallFunction;
        value           nonuniform List<scalar> 9(0.000440685 0.00111813 0.00204119 0.0033077 0.00505171 0.00747505 0.0102641 0.0108757 0.0100323);
    }
    glass2
    {
        Cmu             0.09;
        kappa           0.41;
        E               9.8;
        type            epsilonWallFunction;
        value           nonuniform List<scalar> 2(0.00108777 0.000908774);
    }
    sun
    {
        Cmu             0.09;
        kappa           0.41;
        E               9.8;
        type            epsilonWallFunction;
        value           nonuniform List<scalar> 
14
(
0.000440685
0.000574252
0.00060634
0.000697757
0.000790074
0.000883352
0.000981356
0.0010853
0.00116394
0.00120006
0.00117883
0.00109494
0.000957312
0.000791565
)
;
    }
    heatsource1
    {
        Cmu             0.09;
        kappa           0.41;
        E               9.8;
        type            epsilonWallFunction;
        value           nonuniform List<scalar> 3(6.79293e-05 0.000120915 0.000170832);
    }
    heatsource2
    {
        Cmu             0.09;
        kappa           0.41;
        E               9.8;
        type            epsilonWallFunction;
        value           nonuniform List<scalar> 4(0.000667942 0.000142964 0.000142964 0.000642422);
    }
    Table_master
    {
        Cmu             0.09;
        kappa           0.41;
        E               9.8;
        type            epsilonWallFunction;
        value           nonuniform List<scalar> 9(0.000178171 0.000122899 8.78661e-05 6.50212e-05 4.96416e-05 3.89673e-05 3.13673e-05 2.5871e-05 2.1916e-05);
    }
    Table_slave
    {
        Cmu             0.09;
        kappa           0.41;
        E               9.8;
        type            epsilonWallFunction;
        value           nonuniform List<scalar> 9(0.000255271 0.000192703 0.000154798 0.000129508 0.000110347 9.45618e-05 8.09139e-05 6.80993e-05 5.50395e-05);
    }
    inlet
    {
        type            turbulentMixingLengthDissipationRateInlet;
        mixingLength    0.01;
        phi             phi;
        k               k;
        value           uniform 0.000101881;
    }
    outlet
    {
        type            zeroGradient;
    }
}


// ************************************************************************* //
