// -*- C++ -*-
// File generated by PyFoam - sorry for the ugliness

FoamFile
{
 version 2.0;
 format ascii;
 class volVectorField;
 location "500";
 object U;
}

dimensions [ 0 1 -1 0 0 0 0 ];

internalField nonuniform List<vector> 459
(
  (0.03322 0.0853154 0)
  (-0.165807 0.0255854 0)
  (-0.190239 0.0178654 0)
  (-0.220853 0.0124282 0)
  (-0.243319 0.00648542 0)
  (-0.256842 0.000259866 0)
  (-0.260139 -0.00631212 0)
  (-0.251909 -0.0132425 0)
  (-0.232755 -0.0201311 0)
  (-0.20397 -0.0259523 0)
  (-0.168404 -0.0298626 0)
  (-0.129378 -0.0315769 0)
  (-0.0900871 -0.0316386 0)
  (-0.0553562 -0.0317473 0)
  (-0.0391501 -0.0336231 0)
  (-0.00208785 0.00719541 0)
  (-0.0214645 -0.0176856 0)
  (0.00259749 -0.0262181 0)
  (0.0231711 -0.0193327 0)
  (0.0388711 -0.0129392 0)
  (0.0503339 -0.00824339 0)
  (0.0570332 -0.00496251 0)
  (0.0603494 -0.00325197 0)
  (0.0618606 -0.00250426 0)
  (0.0626616 -0.00213678 0)
  (0.0631676 -0.00189757 0)
  (0.0634273 -0.00170165 0)
  (0.0633745 -0.00145917 0)
  (0.0627961 -0.000997118 0)
  (0.0611169 7.018e-05 0)
  (0.0571216 0.00229084 0)
  (0.0494718 0.00471749 0)
  (0.0414455 0.0068407 0)
  (-0.0101558 0.0204074 0)
  (0.205607 0.174293 0)
  (-0.154093 0.0668813 0)
  (-0.152201 0.052071 0)
  (-0.183426 0.040771 0)
  (-0.205326 0.028147 0)
  (-0.218776 0.014204 0)
  (-0.222497 -0.00134105 0)
  (-0.21496 -0.0181457 0)
  (-0.197277 -0.0342114 0)
  (-0.171113 -0.047064 0)
  (-0.139569 -0.0548742 0)
  (-0.106033 -0.0570807 0)
  (-0.07375 -0.0543347 0)
  (-0.0465723 -0.0482187 0)
  (-0.0292843 -0.0397912 0)
  (-0.0154655 -0.0198056 0)
  (-0.00758472 0.0120791 0)
  (0.0602051 0.0307117 0)
  (0.0324264 -0.020162 0)
  (0.0393044 -0.0305375 0)
  (0.0500338 -0.0256718 0)
  (0.0584089 -0.0175284 0)
  (0.0638619 -0.010157 0)
  (0.0659723 -0.00415788 0)
  (0.0662481 -0.000857762 0)
  (0.066153 0.000560133 0)
  (0.0662294 0.00122554 0)
  (0.0663858 0.00164751 0)
  (0.0664965 0.00201786 0)
  (0.0665191 0.00250465 0)
  (0.0663996 0.00345076 0)
  (0.0656003 0.00576948 0)
  (0.0616855 0.012149 0)
  (0.0518553 0.0176276 0)
  (0.0452538 0.0215846 0)
  (-0.043209 0.044062 0)
  (0.363532 0.260419 0)
  (-0.169961 0.106061 0)
  (-0.113638 0.0837677 0)
  (-0.143388 0.0636406 0)
  (-0.162383 0.0429345 0)
  (-0.174418 0.0203943 0)
  (-0.177452 -0.00480928 0)
  (-0.169042 -0.0316584 0)
  (-0.151303 -0.0566001 0)
  (-0.126669 -0.0755764 0)
  (-0.0985551 -0.086087 0)
  (-0.0699828 -0.087829 0)
  (-0.0433028 -0.0819095 0)
  (-0.0207613 -0.0698161 0)
  (-0.00440448 -0.0526565 0)
  (0.00842672 -0.0268048 0)
  (0.0153256 0.00750651 0)
  (0.105229 -0.0409161 0)
  (0.0728609 -0.043951 0)
  (0.0690604 -0.0396405 0)
  (0.0713209 -0.0314678 0)
  (0.072894 -0.0221548 0)
  (0.0736655 -0.0143854 0)
  (0.0718872 -0.0117382 0)
  (0.0679681 -0.00842206 0)
  (0.0652879 -0.00662741 0)
  (0.064078 -0.00560579 0)
  (0.0635489 -0.00495979 0)
  (0.0632966 -0.00450815 0)
  (0.0633628 -0.00405956 0)
  (0.0642235 -0.00325328 0)
  (0.0671038 -0.000111326 0)
  (0.06509 0.01717 0)
  (0.0518201 0.0295056 0)
  (0.0508593 0.0383481 0)
  (-0.0722322 0.0692909 0)
  (0.50555 0.32948 0)
  (-0.203462 0.140608 0)
  (-0.0734933 0.110235 0)
  (-0.100998 0.0825149 0)
  (-0.114095 0.056005 0)
  (-0.122141 0.0266233 0)
  (-0.12164 -0.00781657 0)
  (-0.109939 -0.0450946 0)
  (-0.0912465 -0.0782229 0)
  (-0.0688189 -0.101811 0)
  (-0.0458276 -0.11348 0)
  (-0.0242467 -0.113954 0)
  (-0.00493401 -0.105071 0)
  (0.0117012 -0.0883243 0)
  (0.0251936 -0.0667245 0)
  (0.0396146 -0.0407915 0)
  (0.0619369 -0.0145572 0)
  (0.0925533 -0.00178012 0)
  (0.100576 -0.0341916 0)
  (0.087053 -0.0389029 0)
  (0.0785643 -0.0342765 0)
  (0.0745361 -0.0277286 0)
  (0.0719736 -0.0201744 0)
  (0.0708591 -0.0115056 0)
  (0.0726975 -0.00673034 0)
  (0.0767687 -0.00535519 0)
  (0.0801271 -0.0045839 0)
  (0.0824183 -0.00397328 0)
  (0.0838197 -0.00316805 0)
  (0.0837615 -0.00192075 0)
  (0.0811958 -1.84902e-05 0)
  (0.0748949 0.00282172 0)
  (0.0620581 0.00712914 0)
  (0.0512754 0.0275085 0)
  (0.0407852 0.0444787 0)
  (0.0536818 0.0582684 0)
  (-0.101955 0.092354 0)
  (0.627442 0.382891 0)
  (-0.244297 0.168779 0)
  (-0.0345451 0.124811 0)
  (-0.057049 0.0926457 0)
  (-0.0617324 0.0629295 0)
  (-0.0626979 0.0289299 0)
  (-0.052814 -0.0137776 0)
  (-0.0353908 -0.0604108 0)
  (-0.0165882 -0.0984389 0)
  (0.00113723 -0.123056 0)
  (0.0159107 -0.132799 0)
  (0.0274721 -0.130283 0)
  (0.0364203 -0.118672 0)
  (0.0434331 -0.100436 0)
  (0.0496169 -0.0782313 0)
  (0.0569746 -0.0546725 0)
  (0.0680965 -0.035198 0)
  (0.0786464 -0.0300121 0)
  (0.0803574 -0.035589 0)
  (0.0738465 -0.0340892 0)
  (0.0658923 -0.0288486 0)
  (0.0598998 -0.0230592 0)
  (0.0557516 -0.0171797 0)
  (0.0536409 -0.0112423 0)
  (0.0538762 -0.00619023 0)
  (0.0560873 -0.00389324 0)
  (0.0585211 -0.00305968 0)
  (0.0608782 -0.00234131 0)
  (0.0630511 -0.00082198 0)
  (0.0646562 0.00203593 0)
  (0.0645344 0.00634578 0)
  (0.0621125 0.0122719 0)
  (0.0566984 0.0204777 0)
  (0.0501639 0.0359598 0)
  (0.0412876 0.0546586 0)
  (0.0619701 0.075384 0)
  (-0.0160698 0.104771 0)
  (0.0454006 0.0346207 0)
  (-0.0612806 -0.0344932 0)
  (-0.268681 -0.0567208 0)
  (0.714969 0.427383 0)
  (-0.283594 0.187595 0)
  (-0.00560967 0.119616 0)
  (-0.0118516 0.0916901 0)
  (-0.00498477 0.0629633 0)
  (0.00472321 0.0227935 0)
  (0.0321116 -0.0302572 0)
  (0.0532442 -0.0787946 0)
  (0.0683659 -0.114037 0)
  (0.0772876 -0.1342 0)
  (0.0806936 -0.140299 0)
  (0.0799969 -0.134925 0)
  (0.0765729 -0.121112 0)
  (0.0718059 -0.101812 0)
  (0.0671671 -0.0799299 0)
  (0.0640413 -0.0581714 0)
  (0.0633473 -0.040253 0)
  (0.0628164 -0.0307401 0)
  (0.058761 -0.028079 0)
  (0.0511282 -0.025607 0)
  (0.0429164 -0.0217142 0)
  (0.0364161 -0.0175361 0)
  (0.032037 -0.0135519 0)
  (0.0299209 -0.00982153 0)
  (0.0299989 -0.00700056 0)
  (0.031773 -0.00607796 0)
  (0.0343248 -0.00604958 0)
  (0.0373224 -0.00573736 0)
  (0.0406045 -0.00419339 0)
  (0.043956 -0.000578575 0)
  (0.0468772 0.00536705 0)
  (0.0483745 0.013336 0)
  (0.048663 0.0235643 0)
  (0.0491651 0.0378953 0)
  (0.0485132 0.0559807 0)
  (0.0703308 0.07901 0)
  (0.0525519 0.0978112 0)
  (0.0914077 0.0687485 0)
  (0.114403 0.0447432 0)
  (-0.12826 -0.00743811 0)
  (0.767506 0.467962 0)
  (-0.302153 0.173055 0)
  (0.0218246 0.0676168 0)
  (0.0489913 0.0633481 0)
  (0.0692634 0.0453777 0)
  (0.100062 -0.000229511 0)
  (0.132306 -0.0538729 0)
  (0.151282 -0.0956577 0)
  (0.158023 -0.122433 0)
  (0.154506 -0.134921 0)
  (0.143282 -0.135134 0)
  (0.127168 -0.125853 0)
  (0.10871 -0.109983 0)
  (0.0900684 -0.0904216 0)
  (0.0730065 -0.0697782 0)
  (0.0586672 -0.0501723 0)
  (0.0475924 -0.0342356 0)
  (0.0387458 -0.0243699 0)
  (0.0301646 -0.0197536 0)
  (0.0215141 -0.0171202 0)
  (0.013827 -0.0146337 0)
  (0.00807206 -0.0123578 0)
  (0.00441486 -0.0104449 0)
  (0.00281329 -0.00890195 0)
  (0.00306368 -0.00808443 0)
  (0.00464374 -0.00833969 0)
  (0.00694472 -0.00901775 0)
  (0.00975933 -0.00927106 0)
  (0.0131431 -0.00825969 0)
  (0.0172267 -0.00499593 0)
  (0.0229467 0.00147471 0)
  (0.0285564 0.0102071 0)
  (0.0338966 0.0205327 0)
  (0.0407972 0.0331758 0)
  (0.0485698 0.0479401 0)
  (0.0702669 0.0665026 0)
  (0.0838954 0.0751146 0)
  (0.115657 0.0531207 0)
  (0.155204 0.0442586 0)
  (-0.0366828 0.0925717 0)
  (0.872126 0.469455 0)
  (-0.064934 0.151788 0)
  (0.109433 -0.0135937 0)
  (0.180778 -0.0393322 0)
  (0.208971 -0.0501435 0)
  (0.240636 -0.0726419 0)
  (0.259338 -0.095365 0)
  (0.261203 -0.111936 0)
  (0.247591 -0.120242 0)
  (0.222481 -0.120182 0)
  (0.190315 -0.112868 0)
  (0.155123 -0.100089 0)
  (0.120074 -0.0836282 0)
  (0.0875895 -0.0656261 0)
  (0.0593144 -0.0480239 0)
  (0.0359253 -0.0321087 0)
  (0.0181654 -0.0199741 0)
  (0.00528119 -0.0130219 0)
  (-0.0046051 -0.0101894 0)
  (-0.0120865 -0.00926961 0)
  (-0.0179401 -0.00876424 0)
  (-0.022143 -0.00847948 0)
  (-0.0248404 -0.00842303 0)
  (-0.0262075 -0.0086226 0)
  (-0.0264956 -0.00922237 0)
  (-0.0261203 -0.0102746 0)
  (-0.0254606 -0.011462 0)
  (-0.0246163 -0.0123406 0)
  (-0.0234246 -0.0124225 0)
  (-0.0214913 -0.0111276 0)
  (-0.0178426 -0.00771551 0)
  (-0.00918244 -0.00149815 0)
  (-0.00107773 0.00650296 0)
  (0.00935284 0.0146526 0)
  (0.0210082 0.0217916 0)
  (0.0408233 0.0292339 0)
  (0.060043 0.0229467 0)
  (0.0803162 -0.00432876 0)
  (0.139248 0.0388929 0)
  (-0.40398 0.202056 0)
  (1.01881 0.422882 0)
  (0.48467 0.279546 0)
  (0.49947 0.183341 0)
  (0.525224 0.112786 0)
  (0.506392 0.0624319 0)
  (0.465408 0.0156765 0)
  (0.417478 -0.0239498 0)
  (0.364694 -0.0516207 0)
  (0.30726 -0.0662567 0)
  (0.248036 -0.0696289 0)
  (0.190463 -0.0649732 0)
  (0.137179 -0.0554756 0)
  (0.0897218 -0.0431123 0)
  (0.0496325 -0.0300194 0)
  (0.0171404 -0.018019 0)
  (-0.00865495 -0.00828217 0)
  (-0.0244261 -0.00361999 0)
  (-0.0340649 -0.00238601 0)
  (-0.0405671 -0.00280122 0)
  (-0.0455165 -0.00376788 0)
  (-0.0495222 -0.00476249 0)
  (-0.0527469 -0.00573577 0)
  (-0.0553267 -0.00670997 0)
  (-0.0574334 -0.00771702 0)
  (-0.0593165 -0.00880636 0)
  (-0.0613248 -0.00996117 0)
  (-0.0638007 -0.0109741 0)
  (-0.0670377 -0.0114833 0)
  (-0.0713498 -0.0109647 0)
  (-0.0771639 -0.00871856 0)
  (-0.0850272 -0.00392783 0)
  (-0.0948752 0.00394624 0)
  (-0.104862 0.0143803 0)
  (-0.119554 0.0276353 0)
  (-0.142592 0.0438805 0)
  (-0.176493 0.0620788 0)
  (-0.224652 0.0783935 0)
  (-0.280266 0.0902912 0)
  (-0.348453 0.0976746 0)
  (-0.608563 0.100965 0)
  (-0.153384 0.00270377 0)
  (0.122477 0.00414523 0)
  (0.203545 -0.0284881 0)
  (0.190249 -0.039754 0)
  (0.174468 -0.0389267 0)
  (0.152744 -0.0349688 0)
  (0.123556 -0.029498 0)
  (0.0899269 -0.0226627 0)
  (0.0553263 -0.0149199 0)
  (0.0206972 -0.00685506 0)
  (-0.0130769 0.000938967 0)
  (-0.0367139 0.0057024 0)
  (-0.0529364 0.00834951 0)
  (-0.0629073 0.00912437 0)
  (-0.0683473 0.00842071 0)
  (-0.0720612 0.00751407 0)
  (-0.074944 0.00673918 0)
  (-0.0775344 0.00613487 0)
  (-0.0801417 0.00559661 0)
  (-0.0828518 0.00494115 0)
  (-0.0856609 0.00421072 0)
  (-0.0886496 0.00341582 0)
  (-0.0919447 0.00260734 0)
  (-0.0956857 0.00189732 0)
  (-0.0999445 0.00152708 0)
  (-0.104723 0.00179754 0)
  (-0.109953 0.00302773 0)
  (-0.115461 0.00551031 0)
  (-0.120629 0.0097702 0)
  (-0.124727 0.0167243 0)
  (-0.128118 0.0274908 0)
  (-0.131016 0.0424641 0)
  (-0.134068 0.0608768 0)
  (-0.137709 0.0793604 0)
  (-0.138933 0.08839 0)
  (-0.121721 0.0674049 0)
  (-0.0800638 -0.022617 0)
  (-0.273613 -0.197698 0)
  (0.0132171 0.194867 0)
  (0.0422859 0.071114 0)
  (0.000981542 0.00653041 0)
  (-0.0109418 -0.00162291 0)
  (-0.0231363 -5.11865e-06 0)
  (-0.037332 -0.000177168 0)
  (-0.0533809 0.000528911 0)
  (-0.0691101 0.00254096 0)
  (-0.0819661 0.00459087 0)
  (-0.0896693 0.00509155 0)
  (-0.094426 0.00337986 0)
  (-0.0966411 -0.000472429 0)
  (-0.0972077 -0.00504817 0)
  (-0.0968607 -0.0100147 0)
  (-0.0964959 -0.015334 0)
  (-0.0967104 -0.0205211 0)
  (-0.0975474 -0.0252585 0)
  (-0.0989142 -0.0292758 0)
  (-0.100685 -0.0323818 0)
  (-0.102819 -0.0345452 0)
  (-0.105335 -0.0358759 0)
  (-0.108135 -0.0363345 0)
  (-0.111115 -0.0358658 0)
  (-0.114193 -0.0347211 0)
  (-0.117242 -0.0328614 0)
  (-0.120018 -0.030053 0)
  (-0.122143 -0.0258741 0)
  (-0.123147 -0.0197185 0)
  (-0.122615 -0.0116888 0)
  (-0.119683 -0.00149498 0)
  (-0.11299 0.0115774 0)
  (-0.101247 0.028172 0)
  (-0.0839809 0.0478359 0)
  (-0.0619441 0.0667452 0)
  (-0.0379402 0.0779132 0)
  (0.00156717 0.0623059 0)
  (0.143108 -0.00814586 0)
  (-0.204698 -0.107976 0)
  (-0.0423094 -0.319291 0)
  (-0.412521 -0.122938 0)
  (-0.300673 0.0646781 0)
  (-0.248173 -0.0172477 0)
  (-0.208237 -0.0229206 0)
  (-0.1965 -0.0118647 0)
  (-0.191888 -0.002117 0)
  (-0.188521 0.00598573 0)
  (-0.184289 0.0136113 0)
  (-0.178213 0.0212052 0)
  (-0.170056 0.0288631 0)
  (-0.160072 0.0365178 0)
  (-0.149279 0.0439937 0)
  (-0.138846 0.0512336 0)
  (-0.129606 0.0584648 0)
  (-0.121903 0.0656654 0)
  (-0.115818 0.0727846 0)
  (-0.111196 0.0795907 0)
  (-0.107792 0.0856615 0)
  (-0.105385 0.090611 0)
  (-0.103777 0.0942015 0)
  (-0.102809 0.0963712 0)
  (-0.102393 0.097165 0)
  (-0.102478 0.0965332 0)
  (-0.103015 0.0944386 0)
  (-0.103917 0.0913652 0)
  (-0.105065 0.0874927 0)
  (-0.106243 0.0829057 0)
  (-0.107075 0.0776419 0)
  (-0.10689 0.0718054 0)
  (-0.104439 0.0666777 0)
  (-0.0979068 0.0631774 0)
  (-0.0849378 0.062192 0)
  (-0.0637005 0.0646893 0)
  (-0.0345398 0.0712247 0)
  (0.0107092 0.0809139 0)
  (0.0541094 0.082084 0)
  (0.0949398 0.0694287 0)
  (0.160788 0.0439077 0)
  (-0.233707 -0.00587625 0)
)
;

boundaryField
{
  floor
  {
    type noSlip;
  }
  ceiling
  {
    type noSlip;
  }
  sWall
  {
    type noSlip;
  }
  nWall
  {
    type noSlip;
  }
  sideWalls
  {
    type empty;
  }
  glass1
  {
    type noSlip;
  }
  glass2
  {
    type noSlip;
  }
  sun
  {
    type noSlip;
  }
  heatsource1
  {
    type noSlip;
  }
  heatsource2
  {
    type noSlip;
  }
  Table_master
  {
    type noSlip;
  }
  Table_slave
  {
    type noSlip;
  }
  inlet
  {
    type fixedValue;
    value uniform (0.277164 -0.114805 0);
  }
  outlet
  {
    type zeroGradient;
  }
} 	// ************************************************************************* //

