/*--------------------------------*- C++ -*----------------------------------*\
  =========                 |
  \\      /  F ield         | OpenFOAM: The Open Source CFD Toolbox
   \\    /   O peration     | Website:  https://openfoam.org
    \\  /    A nd           | Version:  6
     \\/     M anipulation  |
\*---------------------------------------------------------------------------*/
FoamFile
{
    version     2.0;
    format      ascii;
    class       volScalarField;
    location    "700";
    object      nut;
}
// * * * * * * * * * * * * * * * * * * * * * * * * * * * * * * * * * * * * * //

dimensions      [0 2 -1 0 0 0 0];

internalField   nonuniform List<scalar> 
459
(
0.00106218
0.0011547
0.0011616
0.00121394
0.00126278
0.00130775
0.00135064
0.00139355
0.00142235
0.00143232
0.0014193
0.00138108
0.00131944
0.00124289
0.00116416
0.000432347
0.0005152
0.000563872
0.000555489
0.000536377
0.000512238
0.000480188
0.000448088
0.00041906
0.000393639
0.000371432
0.00035203
0.000335047
0.000320098
0.000306747
0.000294376
0.000283219
0.000293885
0.000279388
0.00148741
0.00366491
0.00349728
0.00408177
0.00462347
0.00516311
0.0056445
0.00599241
0.00629162
0.00651552
0.0066246
0.00656891
0.00626772
0.00553259
0.00382202
0.00117109
0.000802592
0.000484654
0.000946867
0.0012924
0.00159112
0.00178204
0.001803
0.00146707
0.00127558
0.00113393
0.00102168
0.000931182
0.00085702
0.000795131
0.000741985
0.000694376
0.000652307
0.000617763
0.000837589
0.00040681
0.00183987
0.00505586
0.00432178
0.00557868
0.00616629
0.00659328
0.00692707
0.00717382
0.00741723
0.00764651
0.0078275
0.00791188
0.0078396
0.00754539
0.00687672
0.00535095
0.00117903
0.000947586
0.00135915
0.00172279
0.00209832
0.00239256
0.00230741
0.00070014
0.000615667
0.000550926
0.000500123
0.000459304
0.000425835
0.000397976
0.000374685
0.000355808
0.00039832
0.000484385
0.00098766
0.00049669
0.00217584
0.00654569
0.00439635
0.00596515
0.0065796
0.00681135
0.00696036
0.00709151
0.00728327
0.00751963
0.00776646
0.00797028
0.00806038
0.00799751
0.0077295
0.00705731
0.0052669
0.00129478
0.00177143
0.00234661
0.00284544
0.00325219
0.00350911
0.00316739
0.000803151
0.000735163
0.000695012
0.000669674
0.000649582
0.000626773
0.000597073
0.000565322
0.00052731
0.000515976
0.000567731
0.00130189
0.000536555
0.00251329
0.00840614
0.00499374
0.00578714
0.00659887
0.0067566
0.00676384
0.00681071
0.00697736
0.00721712
0.0075066
0.00778511
0.007952
0.00795675
0.00777171
0.00737446
0.00664045
0.00530832
0.00484455
0.00472452
0.00475213
0.00484477
0.00489945
0.00470363
0.00386663
0.00355614
0.00339984
0.00327842
0.00314051
0.00296075
0.00269318
0.00228256
0.00181631
0.00139827
0.0010729
0.00113289
0.000922115
0.000656292
0.000769369
0.000878102
0.00286409
0.010383
0.00696873
0.00592767
0.00644441
0.00675895
0.00669028
0.0067156
0.00683616
0.00704961
0.00734455
0.00765182
0.00786729
0.00790144
0.00771685
0.00734255
0.00685611
0.00634064
0.00604757
0.00592805
0.00589145
0.00586899
0.00578542
0.00555867
0.00514506
0.00479215
0.00448702
0.00420116
0.00392238
0.00365954
0.00340894
0.00310639
0.00269533
0.00222103
0.00177159
0.00133027
0.00122103
0.0010784
0.00144511
0.000943158
0.00317409
0.0117366
0.00968189
0.00769609
0.0072682
0.00722239
0.00702322
0.00686602
0.00685767
0.00702826
0.00733788
0.00768171
0.00792454
0.00795384
0.00772765
0.00729875
0.00682744
0.00651754
0.00645017
0.00646372
0.00641528
0.00625647
0.00597519
0.00558812
0.0051347
0.00469869
0.00430554
0.00396821
0.00368888
0.00348902
0.00334806
0.00323455
0.00305129
0.00272505
0.00236155
0.00203602
0.00188363
0.00187738
0.00187715
0.00115821
0.0032251
0.0103742
0.00934354
0.00882653
0.00835716
0.00772127
0.00713753
0.00682473
0.00683086
0.0071027
0.00751899
0.0079201
0.00814707
0.00809177
0.00774478
0.00720115
0.00669885
0.00651754
0.00660422
0.00654288
0.00629536
0.0059014
0.00540695
0.00486794
0.0043499
0.00390927
0.00357423
0.00335265
0.00323429
0.00319931
0.00322789
0.00330842
0.00341245
0.00345716
0.00340218
0.00352512
0.00389492
0.00422637
0.00468403
0.00156775
0.00312821
0.00368254
0.00413386
0.00428449
0.00444208
0.00471411
0.00517576
0.00584632
0.00665026
0.0074549
0.00811472
0.00850086
0.00852179
0.00815631
0.00752304
0.00682346
0.00644784
0.00633412
0.00623032
0.00592895
0.00545057
0.00487736
0.00428634
0.00374373
0.0033117
0.00301456
0.00284286
0.00276763
0.00275481
0.00277422
0.00280352
0.00282905
0.00284612
0.00285793
0.00285384
0.00281837
0.00269816
0.00248707
0.00225602
0.00143201
0.00175059
0.00442543
0.00619392
0.00758694
0.00866112
0.00940502
0.00980252
0.0098708
0.00965137
0.00917997
0.0084833
0.00759183
0.00667622
0.00599035
0.00567309
0.00546304
0.00512784
0.00463264
0.00406206
0.00350969
0.00304718
0.00271364
0.00250004
0.00238889
0.00236154
0.00239527
0.0024682
0.00256174
0.00266184
0.00275855
0.00285132
0.00292621
0.00297164
0.00297904
0.00293493
0.00285077
0.0024382
0.00115743
0.00215233
0.00634074
0.00851798
0.00908403
0.00939182
0.00944585
0.00917362
0.00864048
0.00793616
0.00713205
0.00629819
0.00551608
0.00486291
0.00440451
0.00408032
0.00374404
0.00335996
0.00296808
0.00261617
0.00233509
0.00213514
0.00200906
0.00194057
0.00191085
0.00192376
0.00199163
0.00210553
0.00225143
0.00241166
0.00256738
0.00272649
0.00287222
0.00298212
0.00303724
0.00301109
0.00270351
0.00193184
0.00118165
0.00192249
0.00196712
0.00204868
0.00218148
0.00213322
0.00207339
0.00201136
0.00192049
0.00179847
0.00165336
0.00149019
0.00131467
0.00113743
0.000974771
0.000843549
0.000747151
0.000678856
0.000629631
0.000592802
0.00056465
0.00054332
0.000527781
0.000517349
0.000511967
0.000513398
0.000526569
0.000552763
0.000588975
0.00063413
0.000687922
0.00075231
0.000831095
0.000916345
0.00100691
0.00110431
0.00118403
0.00117167
0.00106073
0.000986584
0.00114329
)
;

boundaryField
{
    floor
    {
        type            nutkWallFunction;
        Cmu             0.09;
        kappa           0.41;
        E               9.8;
        value           nonuniform List<scalar> 
29
(
0.000139861
5.09976e-05
6.16616e-05
6.78284e-05
6.67745e-05
6.43588e-05
6.12913e-05
5.71902e-05
5.30482e-05
4.92704e-05
4.59347e-05
4.29983e-05
4.04144e-05
3.81376e-05
3.6121e-05
3.43095e-05
3.26218e-05
3.10915e-05
3.2552e-05
3.05605e-05
3.05604e-05
4.76552e-05
5.9291e-05
6.4365e-05
0.000139862
5.09975e-05
5.77507e-05
0.000114533
0.000154899
)
;
    }
    ceiling
    {
        type            nutkWallFunction;
        Cmu             0.09;
        kappa           0.41;
        E               9.8;
        value           nonuniform List<scalar> 
43
(
0.000224936
0.00022973
0.00023858
0.000253043
0.00024786
0.000241395
0.000234662
0.000224752
0.000211357
0.000195291
0.000177035
0.000157148
0.000136766
0.000117746
0.00010214
9.04968e-05
8.21408e-05
7.60548e-05
7.14629e-05
6.79287e-05
6.52362e-05
6.32661e-05
6.19394e-05
6.1253e-05
6.14333e-05
6.31044e-05
6.64177e-05
7.09686e-05
7.65974e-05
8.32415e-05
9.11142e-05
0.00010064
0.000110829
0.000121534
0.000132926
0.000142162
0.000140735
0.000127842
0.000119142
0.000137454
0.000353482
0.000410647
0.000249649
)
;
    }
    sWall
    {
        type            nutkWallFunction;
        Cmu             0.09;
        kappa           0.41;
        E               9.8;
        value           uniform 0.000224993;
    }
    nWall
    {
        type            nutkWallFunction;
        Cmu             0.09;
        kappa           0.41;
        E               9.8;
        value           nonuniform List<scalar> 6(0.000106277 0.000114016 0.000139187 0.0001391 0.0001419 0.000137463);
    }
    sideWalls
    {
        type            empty;
    }
    glass1
    {
        type            nutkWallFunction;
        Cmu             0.09;
        kappa           0.41;
        E               9.8;
        value           nonuniform List<scalar> 9(0.000128121 0.000176956 0.000216231 0.000252906 0.000289135 0.000326258 0.000358671 0.000363982 0.000353922);
    }
    glass2
    {
        type            nutkWallFunction;
        Cmu             0.09;
        kappa           0.41;
        E               9.8;
        value           nonuniform List<scalar> 2(0.000185819 0.000170547);
    }
    sun
    {
        type            nutkWallFunction;
        Cmu             0.09;
        kappa           0.41;
        E               9.8;
        value           nonuniform List<scalar> 
14
(
0.000128024
0.000138783
0.000139582
0.000145623
0.000151232
0.000156376
0.000161265
0.000166136
0.000169396
0.000170522
0.000169046
0.000164714
0.000157699
0.000148937
)
;
    }
    heatsource1
    {
        type            nutkWallFunction;
        Cmu             0.09;
        kappa           0.41;
        E               9.8;
        value           nonuniform List<scalar> 3(7.93444e-05 9.31883e-05 0.000106273);
    }
    heatsource2
    {
        type            nutkWallFunction;
        Cmu             0.09;
        kappa           0.41;
        E               9.8;
        value           nonuniform List<scalar> 4(0.000140659 9.71861e-05 9.71861e-05 0.000141568);
    }
    Table_master
    {
        type            nutkWallFunction;
        Cmu             0.09;
        kappa           0.41;
        E               9.8;
        value           nonuniform List<scalar> 9(8.47623e-05 7.43195e-05 6.6199e-05 5.97449e-05 5.45006e-05 5.01572e-05 4.65094e-05 4.34348e-05 4.09253e-05);
    }
    Table_slave
    {
        type            nutkWallFunction;
        Cmu             0.09;
        kappa           0.41;
        E               9.8;
        value           nonuniform List<scalar> 9(9.72968e-05 8.90462e-05 8.41299e-05 8.10088e-05 7.85231e-05 7.56909e-05 7.19869e-05 6.80022e-05 6.31956e-05);
    }
    inlet
    {
        type            calculated;
        value           uniform 0.000100623;
    }
    outlet
    {
        type            calculated;
        value           nonuniform List<scalar> 2(0.00192249 0.00196712);
    }
}


// ************************************************************************* //
