/*--------------------------------*- C++ -*----------------------------------*\
  =========                 |
  \\      /  F ield         | OpenFOAM: The Open Source CFD Toolbox
   \\    /   O peration     | Website:  https://openfoam.org
    \\  /    A nd           | Version:  6
     \\/     M anipulation  |
\*---------------------------------------------------------------------------*/
FoamFile
{
    version     2.0;
    format      ascii;
    class       volScalarField;
    location    "200";
    object      alphat;
}
// * * * * * * * * * * * * * * * * * * * * * * * * * * * * * * * * * * * * * //

dimensions      [1 -1 -1 0 0 0 0];

internalField   nonuniform List<scalar> 
459
(
0.00119789
0.00130318
0.00132138
0.00138216
0.00143791
0.00148931
0.0015386
0.00158869
0.00162866
0.0016509
0.00164932
0.0016193
0.00156033
0.00147993
0.00139268
0.000516883
0.000637959
0.000703294
0.000686134
0.00065658
0.00062279
0.000585074
0.000548786
0.000515801
0.000486233
0.000459755
0.000436135
0.000414928
0.000395593
0.000377528
0.000359874
0.000341297
0.00033091
0.000303973
0.00165117
0.00388985
0.00366815
0.00425921
0.00482097
0.00539173
0.00592038
0.00632467
0.00667673
0.00697363
0.00716843
0.00719899
0.00696821
0.00626593
0.00447701
0.0014115
0.000917231
0.000577876
0.00112388
0.00149807
0.00174927
0.001868
0.00185543
0.00155311
0.00136588
0.001227
0.00111773
0.00102899
0.00095261
0.000883737
0.000819556
0.000758794
0.00070681
0.000658209
0.000785512
0.000417483
0.00203162
0.00532554
0.00449576
0.00574512
0.00633052
0.00675647
0.00708175
0.00733171
0.00758748
0.00786367
0.00812906
0.00833239
0.00840054
0.00825596
0.00772052
0.00621119
0.00136833
0.00118237
0.00160586
0.0019605
0.00225346
0.00243879
0.00236077
0.000830539
0.000738867
0.000665012
0.000605168
0.000556205
0.000515739
0.000482035
0.000453952
0.000430951
0.000463643
0.000530298
0.000879457
0.000490401
0.00239953
0.00690629
0.00447041
0.00610918
0.00668652
0.00686552
0.00693864
0.00702145
0.00718751
0.007444
0.00776108
0.00808916
0.00834185
0.00846866
0.00839321
0.00787557
0.00609021
0.00159649
0.00200397
0.0025326
0.00296876
0.00327313
0.00344391
0.00321858
0.000930219
0.000854713
0.000803067
0.000765394
0.000733733
0.000702219
0.000671875
0.000639403
0.000600567
0.000563018
0.000566338
0.00101465
0.000545763
0.00277465
0.00895075
0.00493842
0.00581851
0.00665403
0.00674
0.00664323
0.00658344
0.00671723
0.00696909
0.00731691
0.0077122
0.00803175
0.00820688
0.00818792
0.00792475
0.00726112
0.0059224
0.00539437
0.00514323
0.00499463
0.00490141
0.00483369
0.00468244
0.00403976
0.00375939
0.0036092
0.00349061
0.00335359
0.00315686
0.00283308
0.00241749
0.00194258
0.00145056
0.00106313
0.00103664
0.000729024
0.000682734
0.000824185
0.000923592
0.00317078
0.0111667
0.00693384
0.00563465
0.00626053
0.00659083
0.00648271
0.00640825
0.00653149
0.0067631
0.00710855
0.00751325
0.00786559
0.00804957
0.00799754
0.00771621
0.00727486
0.00677115
0.00642563
0.00617386
0.00596088
0.00578606
0.00563533
0.00546509
0.00521019
0.00498804
0.00478894
0.00459224
0.00438622
0.0041621
0.00386518
0.00345566
0.00293084
0.00231623
0.00174472
0.00127255
0.000988943
0.000857743
0.00123754
0.000962846
0.00353721
0.0127551
0.00997739
0.00730835
0.0066999
0.00677644
0.00672359
0.00661099
0.00660496
0.00678132
0.00713395
0.00756976
0.00794307
0.00811033
0.00799598
0.00763445
0.00717629
0.00681427
0.00662118
0.00646602
0.00626081
0.0060033
0.0057087
0.00540718
0.00512714
0.00489165
0.00468269
0.00448662
0.00430098
0.00412987
0.00397309
0.00372714
0.00332738
0.00280254
0.00227669
0.00178326
0.00144492
0.00135323
0.00140256
0.00109194
0.00361
0.0115341
0.0101288
0.00917644
0.00843958
0.00784551
0.00720329
0.00677433
0.00668732
0.00692834
0.00738588
0.00789023
0.00825812
0.00833723
0.00807842
0.00756829
0.00703245
0.00670804
0.00657952
0.00631746
0.00590874
0.00544352
0.00501112
0.00466557
0.0044096
0.00421594
0.00405714
0.00392328
0.00381694
0.00374695
0.00372374
0.0037261
0.00352802
0.00317168
0.00285126
0.00269403
0.00283166
0.00331913
0.00412165
0.00171247
0.00351388
0.00418579
0.00469385
0.00490069
0.00501086
0.00509583
0.00532201
0.00578537
0.00647273
0.00727587
0.00803021
0.00857229
0.00877365
0.00854449
0.00794432
0.00719888
0.00667361
0.00631442
0.00594121
0.00541968
0.00483635
0.00432579
0.00394753
0.00368829
0.00350782
0.00337023
0.00325371
0.00314774
0.00304641
0.00294441
0.00283661
0.0027208
0.00262357
0.00255105
0.00253011
0.00255281
0.00254831
0.00245052
0.00229094
0.00160676
0.00195529
0.00379923
0.00523952
0.00637351
0.00740487
0.00832037
0.00905909
0.00952429
0.00965965
0.00945604
0.00892259
0.00803612
0.00698531
0.00612183
0.00556682
0.00506582
0.00449459
0.00392112
0.00345474
0.0031305
0.00291801
0.00277642
0.00267593
0.00259941
0.00253855
0.00249002
0.00245323
0.00242959
0.00242221
0.00244043
0.00246765
0.00250247
0.00253863
0.00254858
0.00248565
0.00233318
0.0021055
0.00132809
0.00241771
0.00547287
0.00766394
0.00855623
0.0092485
0.00965374
0.00972413
0.00940016
0.00873454
0.00781729
0.00678606
0.00580629
0.00499474
0.00435884
0.00380682
0.00329564
0.00288832
0.00260897
0.00242351
0.00229374
0.00220487
0.00214773
0.00211447
0.00210129
0.00210644
0.00212874
0.00216646
0.00221598
0.00227994
0.00236169
0.00245853
0.0025634
0.00265953
0.0027262
0.00271026
0.00274011
0.00273823
0.00135131
0.00210602
0.00223022
0.0023193
0.00245413
0.00233876
0.00220902
0.00210557
0.00199555
0.00187331
0.00172894
0.00155925
0.00137253
0.00118387
0.00101092
0.000870822
0.000771943
0.000709433
0.000673155
0.000654823
0.000648861
0.000651641
0.0006613
0.000675894
0.000694368
0.000716616
0.000742699
0.000772805
0.000807294
0.000846827
0.00089263
0.000945159
0.0010033
0.00106777
0.00113929
0.00121775
0.00131164
0.00134232
0.00130906
0.00122792
0.0011412
)
;

boundaryField
{
    floor
    {
        type            compressible::alphatWallFunction;
        Prt             0.85;
        value           nonuniform List<scalar> 
29
(
0.000196508
7.18274e-05
9.00431e-05
9.96919e-05
9.71683e-05
9.28042e-05
8.77851e-05
8.21431e-05
7.66723e-05
7.16602e-05
6.71334e-05
6.30499e-05
5.93821e-05
5.60676e-05
5.30266e-05
5.0168e-05
4.73572e-05
4.438e-05
4.27069e-05
3.83341e-05
3.83336e-05
5.64706e-05
6.77766e-05
7.62181e-05
0.000196506
7.18265e-05
8.10627e-05
0.00016773
0.000223926
)
;
    }
    ceiling
    {
        type            compressible::alphatWallFunction;
        Prt             0.85;
        value           nonuniform List<scalar> 
43
(
0.000290796
0.000306831
0.000318276
0.000335623
0.000320929
0.000304284
0.000290932
0.000276649
0.000260673
0.000241653
0.000219069
0.000193895
0.000168062
0.000143961
0.000124086
0.000109831
0.000100707
9.53684e-05
9.26572e-05
9.17738e-05
9.21864e-05
9.36173e-05
9.57744e-05
9.84968e-05
0.000101764
0.000105578
0.000109961
0.000114956
0.000120651
0.000127209
0.000134682
0.000142897
0.000151941
0.000161902
0.000172745
0.000185618
0.000189802
0.000185266
0.000174146
0.000162169
0.000468283
0.000550007
0.000330723
)
;
    }
    sWall
    {
        type            compressible::alphatWallFunction;
        Prt             0.85;
        value           uniform 0.000289584;
    }
    nWall
    {
        type            compressible::alphatWallFunction;
        Prt             0.85;
        value           nonuniform List<scalar> 6(0.000131298 0.00013686 0.000154981 0.000187532 0.000190693 0.000161844);
    }
    sideWalls
    {
        type            empty;
    }
    glass1
    {
        type            compressible::alphatWallFunction;
        Prt             0.85;
        value           nonuniform List<scalar> 9(0.000165715 0.000226226 0.00027572 0.000322722 0.000369929 0.000419103 0.000464071 0.000473077 0.000461576);
    }
    glass2
    {
        type            compressible::alphatWallFunction;
        Prt             0.85;
        value           nonuniform List<scalar> 2(0.000237754 0.000223816);
    }
    sun
    {
        type            compressible::alphatWallFunction;
        Prt             0.85;
        value           nonuniform List<scalar> 
14
(
0.000169897
0.000184333
0.000186817
0.000195086
0.000202636
0.000209566
0.000216186
0.000222891
0.000228224
0.000231184
0.000230973
0.000226973
0.000219094
0.000208297
)
;
    }
    heatsource1
    {
        type            compressible::alphatWallFunction;
        Prt             0.85;
        value           nonuniform List<scalar> 3(9.67775e-05 0.000117384 0.00013161);
    }
    heatsource2
    {
        type            compressible::alphatWallFunction;
        Prt             0.85;
        value           nonuniform List<scalar> 4(0.000199179 0.000130704 0.000130702 0.000193321);
    }
    Table_master
    {
        type            compressible::alphatWallFunction;
        Prt             0.85;
        value           nonuniform List<scalar> 9(0.000118293 0.000105006 9.41558e-05 8.52566e-05 7.7895e-05 7.17499e-05 6.65856e-05 6.22476e-05 5.86693e-05);
    }
    Table_slave
    {
        type            compressible::alphatWallFunction;
        Prt             0.85;
        value           nonuniform List<scalar> 9(0.000132549 0.000121771 0.000114334 0.000108874 0.00010426 9.96434e-05 9.51742e-05 9.03645e-05 8.45724e-05);
    }
    inlet
    {
        type            fixedValue;
        value           uniform 1.94e-05;
    }
    outlet
    {
        type            zeroGradient;
    }
}


// ************************************************************************* //
