// -*- C++ -*-
// File generated by PyFoam - sorry for the ugliness

FoamFile
{
 version 2.0;
 format ascii;
 class volVectorField;
 location "200";
 object U;
}

dimensions [ 0 1 -1 0 0 0 0 ];

internalField nonuniform List<vector> 459
(
  (0.037759 0.0841952 0)
  (-0.163491 0.024182 0)
  (-0.185663 0.0175945 0)
  (-0.215938 0.0128282 0)
  (-0.239099 0.00751981 0)
  (-0.254492 0.00193434 0)
  (-0.261001 -0.00403405 0)
  (-0.257076 -0.0104519 0)
  (-0.24253 -0.0172559 0)
  (-0.217927 -0.0236394 0)
  (-0.185201 -0.0287463 0)
  (-0.147007 -0.0321909 0)
  (-0.106199 -0.034565 0)
  (-0.0682873 -0.0378626 0)
  (-0.0502096 -0.0435413 0)
  (0.00497563 0.00584748 0)
  (-0.016994 -0.0188365 0)
  (0.00855262 -0.0254917 0)
  (0.0270964 -0.0180237 0)
  (0.0419082 -0.011697 0)
  (0.0518865 -0.00730157 0)
  (0.05723 -0.00443632 0)
  (0.0596198 -0.00295171 0)
  (0.0605988 -0.00226164 0)
  (0.0610478 -0.00189686 0)
  (0.0612411 -0.00165714 0)
  (0.0612002 -0.00145408 0)
  (0.0608581 -0.0012002 0)
  (0.0600046 -0.000731671 0)
  (0.0580805 0.000331779 0)
  (0.0539182 0.0025203 0)
  (0.0462503 0.00471598 0)
  (0.0400663 0.00584842 0)
  (-0.0168602 0.0193594 0)
  (0.213316 0.172494 0)
  (-0.154118 0.0636129 0)
  (-0.149268 0.0508584 0)
  (-0.18043 0.0409986 0)
  (-0.203017 0.0299573 0)
  (-0.218265 0.0178035 0)
  (-0.225166 0.00409979 0)
  (-0.221983 -0.0112952 0)
  (-0.20867 -0.0271933 0)
  (-0.186241 -0.0412802 0)
  (-0.157045 -0.0514188 0)
  (-0.12421 -0.0565024 0)
  (-0.0911762 -0.0568781 0)
  (-0.0625006 -0.0541878 0)
  (-0.0442097 -0.0483435 0)
  (-0.0287808 -0.0269584 0)
  (-0.00996704 0.00231684 0)
  (0.0729234 0.0255157 0)
  (0.0374233 -0.0192977 0)
  (0.0415854 -0.0281474 0)
  (0.0516044 -0.0226731 0)
  (0.0591682 -0.014711 0)
  (0.0636027 -0.00785419 0)
  (0.0650978 -0.00285926 0)
  (0.0651084 -0.000199095 0)
  (0.0649366 0.000988412 0)
  (0.0649591 0.00158991 0)
  (0.0650579 0.00199568 0)
  (0.0651116 0.00235025 0)
  (0.0650895 0.00281773 0)
  (0.0649424 0.00374056 0)
  (0.0641277 0.00601529 0)
  (0.0602054 0.0123313 0)
  (0.0503253 0.0173435 0)
  (0.0459518 0.0197456 0)
  (-0.0512361 0.0423908 0)
  (0.373686 0.258119 0)
  (-0.172885 0.101832 0)
  (-0.111867 0.0822965 0)
  (-0.142085 0.0642469 0)
  (-0.161682 0.046008 0)
  (-0.175456 0.0263545 0)
  (-0.182006 0.00414531 0)
  (-0.178455 -0.0206577 0)
  (-0.164981 -0.0458598 0)
  (-0.143426 -0.0673388 0)
  (-0.116709 -0.0818136 0)
  (-0.0880256 -0.0879195 0)
  (-0.0603304 -0.0861478 0)
  (-0.0363295 -0.0778826 0)
  (-0.0182932 -0.063135 0)
  (-0.00392811 -0.0388971 0)
  (0.0102898 -0.00644009 0)
  (0.104086 -0.0508328 0)
  (0.0682459 -0.0464803 0)
  (0.0645016 -0.0383455 0)
  (0.0674006 -0.028714 0)
  (0.0692858 -0.0191555 0)
  (0.0699241 -0.0113717 0)
  (0.0682262 -0.00941603 0)
  (0.0652136 -0.00694332 0)
  (0.0633421 -0.00563238 0)
  (0.0626409 -0.00489856 0)
  (0.0624756 -0.00444231 0)
  (0.0625599 -0.00410157 0)
  (0.0629577 -0.0037144 0)
  (0.0641335 -0.00296249 0)
  (0.067292 6.86293e-05 0)
  (0.0653634 0.0173419 0)
  (0.0517439 0.0291988 0)
  (0.0532177 0.0363257 0)
  (-0.0805519 0.0670463 0)
  (0.517005 0.326996 0)
  (-0.208892 0.136153 0)
  (-0.0725446 0.10872 0)
  (-0.10146 0.0835496 0)
  (-0.115161 0.0603791 0)
  (-0.125183 0.0352128 0)
  (-0.129629 0.00537599 0)
  (-0.123299 -0.0291364 0)
  (-0.10831 -0.0636432 0)
  (-0.0877019 -0.091504 0)
  (-0.0646887 -0.108902 0)
  (-0.0418783 -0.114905 0)
  (-0.0212081 -0.110776 0)
  (-0.00333037 -0.0983006 0)
  (0.0116874 -0.0783878 0)
  (0.0261318 -0.053575 0)
  (0.0478633 -0.0285295 0)
  (0.0783254 -0.00736105 0)
  (0.08828 -0.038095 0)
  (0.0752723 -0.0397038 0)
  (0.0682598 -0.0328659 0)
  (0.0660795 -0.0254751 0)
  (0.065226 -0.017823 0)
  (0.0657773 -0.00932087 0)
  (0.0687986 -0.00577443 0)
  (0.0734893 -0.00513115 0)
  (0.0776802 -0.00477035 0)
  (0.0811185 -0.00436728 0)
  (0.0837016 -0.00363807 0)
  (0.084781 -0.00237142 0)
  (0.0829785 -0.000347464 0)
  (0.0770548 0.00267617 0)
  (0.064345 0.00721168 0)
  (0.0530322 0.0277514 0)
  (0.0415481 0.0445291 0)
  (0.0567265 0.057123 0)
  (-0.112385 0.0897049 0)
  (0.639305 0.380605 0)
  (-0.251229 0.164794 0)
  (-0.0339056 0.123561 0)
  (-0.05913 0.0942919 0)
  (-0.0645972 0.0685742 0)
  (-0.0683899 0.04029 0)
  (-0.0678018 0.00435013 0)
  (-0.0541069 -0.0396249 0)
  (-0.037138 -0.0813341 0)
  (-0.0192617 -0.112336 0)
  (-0.0026798 -0.1297 0)
  (0.0114252 -0.133406 0)
  (0.0222758 -0.126127 0)
  (0.0307206 -0.111038 0)
  (0.037679 -0.0904775 0)
  (0.0450206 -0.0673487 0)
  (0.055227 -0.046462 0)
  (0.066028 -0.0366799 0)
  (0.0687917 -0.0401159 0)
  (0.0631455 -0.0364572 0)
  (0.0563129 -0.0295115 0)
  (0.0518407 -0.0228526 0)
  (0.0493631 -0.0167908 0)
  (0.0489762 -0.0111946 0)
  (0.0507446 -0.0072005 0)
  (0.0542241 -0.0055897 0)
  (0.0578973 -0.0050276 0)
  (0.0614979 -0.00431777 0)
  (0.0647958 -0.00262798 0)
  (0.067247 0.000646461 0)
  (0.067757 0.00554228 0)
  (0.0654872 0.0120738 0)
  (0.0598826 0.0208211 0)
  (0.0528604 0.0367039 0)
  (0.0428271 0.0554699 0)
  (0.0645499 0.0757531 0)
  (-0.0203186 0.1029 0)
  (0.0446564 0.0310646 0)
  (-0.0630073 -0.0351534 0)
  (-0.271203 -0.0576366 0)
  (0.726295 0.425671 0)
  (-0.291105 0.184623 0)
  (-0.00512709 0.119108 0)
  (-0.0154857 0.0945673 0)
  (-0.0101853 0.0704975 0)
  (-0.00551648 0.0403188 0)
  (0.00958071 -0.00353098 0)
  (0.0299776 -0.0551947 0)
  (0.0463012 -0.0978673 0)
  (0.057859 -0.126285 0)
  (0.0645093 -0.139886 0)
  (0.0667874 -0.140334 0)
  (0.065816 -0.130534 0)
  (0.0628078 -0.113663 0)
  (0.059059 -0.0926872 0)
  (0.0560093 -0.0706495 0)
  (0.0547307 -0.0510743 0)
  (0.0540014 -0.0383611 0)
  (0.0502904 -0.0331849 0)
  (0.043153 -0.028788 0)
  (0.0357019 -0.0235308 0)
  (0.0303575 -0.0187059 0)
  (0.0273945 -0.0146946 0)
  (0.0268021 -0.0113718 0)
  (0.0282994 -0.00928127 0)
  (0.0312588 -0.00889178 0)
  (0.034839 -0.00905726 0)
  (0.0387554 -0.0086588 0)
  (0.0428382 -0.00679085 0)
  (0.04677 -0.00259441 0)
  (0.0502809 0.0042774 0)
  (0.0518737 0.0132429 0)
  (0.0518946 0.024298 0)
  (0.0519842 0.0392072 0)
  (0.0505093 0.0575181 0)
  (0.0728345 0.0805273 0)
  (0.0525496 0.0975701 0)
  (0.0922549 0.0679896 0)
  (0.115549 0.0444146 0)
  (-0.130249 -0.00840066 0)
  (0.77503 0.4668 0)
  (-0.309973 0.171074 0)
  (0.0202484 0.0690205 0)
  (0.0423064 0.0712096 0)
  (0.057367 0.0600999 0)
  (0.0722327 0.0276282 0)
  (0.102936 -0.0240061 0)
  (0.12504 -0.0729615 0)
  (0.136371 -0.109337 0)
  (0.137951 -0.130915 0)
  (0.131617 -0.138519 0)
  (0.119551 -0.134479 0)
  (0.104129 -0.121878 0)
  (0.0874185 -0.103762 0)
  (0.0711672 -0.0830839 0)
  (0.0567127 -0.0624858 0)
  (0.0448171 -0.0445226 0)
  (0.0351264 -0.0318499 0)
  (0.0259629 -0.0248056 0)
  (0.0171 -0.0205521 0)
  (0.00967396 -0.0171443 0)
  (0.00464254 -0.0145668 0)
  (0.00196071 -0.01282 0)
  (0.00137657 -0.0117243 0)
  (0.00249682 -0.0114672 0)
  (0.00470965 -0.0120926 0)
  (0.00747328 -0.0128481 0)
  (0.010655 -0.0129226 0)
  (0.0143481 -0.0114959 0)
  (0.0186962 -0.00755423 0)
  (0.0245691 -5.19595e-05 0)
  (0.0307895 0.0100819 0)
  (0.0361656 0.0215251 0)
  (0.042943 0.0348597 0)
  (0.0504195 0.049883 0)
  (0.0725883 0.0684732 0)
  (0.0857021 0.075745 0)
  (0.117703 0.0527413 0)
  (0.157361 0.0439106 0)
  (-0.0357857 0.0931548 0)
  (0.87859 0.470467 0)
  (-0.0730942 0.150889 0)
  (0.104606 -0.00793177 0)
  (0.170085 -0.0186675 0)
  (0.181269 -0.0191567 0)
  (0.201229 -0.043342 0)
  (0.226757 -0.0724847 0)
  (0.237481 -0.0974498 0)
  (0.232309 -0.114673 0)
  (0.214614 -0.122609 0)
  (0.188453 -0.121353 0)
  (0.157601 -0.112403 0)
  (0.125411 -0.0980225 0)
  (0.0942699 -0.0802952 0)
  (0.0659978 -0.0615787 0)
  (0.0416411 -0.0438913 0)
  (0.0218615 -0.0290742 0)
  (0.00692403 -0.0191984 0)
  (-0.00470224 -0.0142473 0)
  (-0.0129186 -0.01238 0)
  (-0.0188826 -0.0115313 0)
  (-0.0228584 -0.0112711 0)
  (-0.0252382 -0.0114686 0)
  (-0.0263556 -0.0120234 0)
  (-0.0265535 -0.012952 0)
  (-0.0262485 -0.0141703 0)
  (-0.0257455 -0.0153264 0)
  (-0.0250805 -0.0159839 0)
  (-0.0240569 -0.0156513 0)
  (-0.0222602 -0.0137424 0)
  (-0.0186873 -0.00954745 0)
  (-0.00962169 -0.00229437 0)
  (-0.000539396 0.00705065 0)
  (0.0102018 0.0160603 0)
  (0.0220647 0.0233757 0)
  (0.0424334 0.0306847 0)
  (0.0614384 0.0232482 0)
  (0.0812198 -0.00498871 0)
  (0.140149 0.0392654 0)
  (-0.410132 0.204943 0)
  (1.02301 0.425377 0)
  (0.487918 0.281582 0)
  (0.500707 0.190639 0)
  (0.516109 0.128082 0)
  (0.487867 0.0844343 0)
  (0.451811 0.0408631 0)
  (0.411792 -0.00283457 0)
  (0.365802 -0.0391755 0)
  (0.314507 -0.0636127 0)
  (0.260383 -0.0754219 0)
  (0.206473 -0.0764855 0)
  (0.155277 -0.0698931 0)
  (0.10882 -0.0587487 0)
  (0.0676563 -0.0449626 0)
  (0.03299 -0.0308 0)
  (0.00452146 -0.0180726 0)
  (-0.0165686 -0.00932605 0)
  (-0.0289547 -0.00603823 0)
  (-0.0371806 -0.0055564 0)
  (-0.043008 -0.00625231 0)
  (-0.0475027 -0.00722157 0)
  (-0.0510539 -0.0082829 0)
  (-0.0539691 -0.00941666 0)
  (-0.0564911 -0.0106158 0)
  (-0.0588802 -0.0118787 0)
  (-0.0614454 -0.0131164 0)
  (-0.0644757 -0.0140817 0)
  (-0.0682192 -0.0143907 0)
  (-0.0729578 -0.0135049 0)
  (-0.0790972 -0.0107125 0)
  (-0.087133 -0.00520551 0)
  (-0.0973887 0.00364342 0)
  (-0.107281 0.0149995 0)
  (-0.121824 0.0289584 0)
  (-0.145241 0.0456014 0)
  (-0.180045 0.0638752 0)
  (-0.229737 0.0798334 0)
  (-0.286568 0.0910367 0)
  (-0.355103 0.0974806 0)
  (-0.616466 0.0997722 0)
  (-0.183109 0.0193764 0)
  (0.136808 0.0412799 0)
  (0.229256 0.0162056 0)
  (0.220978 -0.00719806 0)
  (0.206594 -0.022452 0)
  (0.188148 -0.03125 0)
  (0.160864 -0.03508 0)
  (0.127478 -0.0346132 0)
  (0.0914322 -0.0306485 0)
  (0.0555036 -0.0241204 0)
  (0.0221404 -0.0157199 0)
  (-0.011079 -0.00537614 0)
  (-0.0348685 0.00167072 0)
  (-0.0503868 0.00517831 0)
  (-0.0594437 0.00595925 0)
  (-0.0646154 0.00523004 0)
  (-0.0683306 0.0041033 0)
  (-0.0716186 0.00274112 0)
  (-0.0748678 0.00129944 0)
  (-0.0781879 -0.000110407 0)
  (-0.0816987 -0.00146267 0)
  (-0.0854792 -0.00270371 0)
  (-0.0896196 -0.00374229 0)
  (-0.0942227 -0.00442787 0)
  (-0.0993482 -0.00452383 0)
  (-0.104971 -0.00372476 0)
  (-0.110968 -0.00168549 0)
  (-0.117106 0.00194098 0)
  (-0.12288 0.00745169 0)
  (-0.127074 0.0155854 0)
  (-0.130402 0.0275471 0)
  (-0.133127 0.0436231 0)
  (-0.136117 0.0628572 0)
  (-0.139932 0.0816418 0)
  (-0.14152 0.0901465 0)
  (-0.124196 0.0676481 0)
  (-0.0811864 -0.0251598 0)
  (-0.27795 -0.201863 0)
  (-0.0226173 0.206597 0)
  (0.0530816 0.0917312 0)
  (0.0211224 0.0232305 0)
  (0.0153231 0.0101374 0)
  (0.0128221 0.00572556 0)
  (0.00777701 -0.000498607 0)
  (-0.00542303 -0.00429242 0)
  (-0.0237996 -0.00426295 0)
  (-0.0432811 -0.00227402 0)
  (-0.0608018 -1.13895e-05 0)
  (-0.0739977 0.00129546 0)
  (-0.0816138 0.000466504 0)
  (-0.0852639 -0.00276589 0)
  (-0.086906 -0.00714585 0)
  (-0.0876608 -0.0119874 0)
  (-0.0885155 -0.0167057 0)
  (-0.0898355 -0.0205511 0)
  (-0.091559 -0.0231874 0)
  (-0.0937006 -0.024694 0)
  (-0.0962579 -0.025261 0)
  (-0.0991848 -0.0252709 0)
  (-0.102472 -0.0249982 0)
  (-0.106088 -0.0244829 0)
  (-0.109955 -0.0236822 0)
  (-0.113911 -0.0224534 0)
  (-0.11768 -0.020531 0)
  (-0.12084 -0.0175002 0)
  (-0.122816 -0.0127465 0)
  (-0.122957 -0.00573503 0)
  (-0.120448 0.00360705 0)
  (-0.113859 0.0160909 0)
  (-0.101908 0.0323881 0)
  (-0.084311 0.0519972 0)
  (-0.0620126 0.0708645 0)
  (-0.0379235 0.0818171 0)
  (0.00210073 0.065913 0)
  (0.143276 -0.00525278 0)
  (-0.206997 -0.112743 0)
  (-0.0539432 -0.324889 0)
  (-0.416487 -0.120751 0)
  (-0.303923 0.0733163 0)
  (-0.232202 -0.0204485 0)
  (-0.186931 -0.0345508 0)
  (-0.165493 -0.0256646 0)
  (-0.155739 -0.0171459 0)
  (-0.15186 -0.00944824 0)
  (-0.150238 -0.00126884 0)
  (-0.148431 0.00676603 0)
  (-0.14517 0.0145545 0)
  (-0.140007 0.0222624 0)
  (-0.133026 0.0299788 0)
  (-0.124854 0.037469 0)
  (-0.116687 0.0444709 0)
  (-0.109481 0.0510461 0)
  (-0.103752 0.057037 0)
  (-0.0996501 0.0621324 0)
  (-0.0970218 0.065878 0)
  (-0.0955974 0.0679747 0)
  (-0.0951298 0.0684835 0)
  (-0.0954294 0.0675881 0)
  (-0.0963664 0.0658449 0)
  (-0.0978449 0.0636659 0)
  (-0.0997809 0.0611758 0)
  (-0.102062 0.0584733 0)
  (-0.104509 0.0556426 0)
  (-0.106841 0.0527461 0)
  (-0.108624 0.0498096 0)
  (-0.109165 0.0468232 0)
  (-0.107217 0.0443193 0)
  (-0.100781 0.0435385 0)
  (-0.0874326 0.0452717 0)
  (-0.0653333 0.0503912 0)
  (-0.0350255 0.0593661 0)
  (0.0127481 0.0716498 0)
  (0.057608 0.0728947 0)
  (0.100001 0.0585318 0)
  (0.163014 0.0302082 0)
  (-0.222099 -0.0238527 0)
)
;

boundaryField
{
  floor
  {
    type noSlip;
  }
  ceiling
  {
    type noSlip;
  }
  sWall
  {
    type noSlip;
  }
  nWall
  {
    type noSlip;
  }
  sideWalls
  {
    type empty;
  }
  glass1
  {
    type noSlip;
  }
  glass2
  {
    type noSlip;
  }
  sun
  {
    type noSlip;
  }
  heatsource1
  {
    type noSlip;
  }
  heatsource2
  {
    type noSlip;
  }
  Table_master
  {
    type noSlip;
  }
  Table_slave
  {
    type noSlip;
  }
  inlet
  {
    type fixedValue;
    value uniform (0.277164 -0.114805 0);
  }
  outlet
  {
    type zeroGradient;
  }
} 	// ************************************************************************* //

