// -*- C++ -*-
// File generated by PyFoam - sorry for the ugliness

FoamFile
{
 version 2.0;
 format ascii;
 class volVectorField;
 location "30";
 object U;
}

dimensions [ 0 1 -1 0 0 0 0 ];

internalField nonuniform List<vector> 459
(
  (-0.0444836 0.0220529 0)
  (-0.0712197 -0.0430063 0)
  (0.0302273 -0.13112 0)
  (0.135734 -0.0941363 0)
  (0.2154 -0.0645202 0)
  (0.26991 -0.0438858 0)
  (0.302014 -0.0297287 0)
  (0.318404 -0.0195836 0)
  (0.324377 -0.0117899 0)
  (0.321599 -0.00499045 0)
  (0.310497 0.00185259 0)
  (0.289869 0.0099649 0)
  (0.256296 0.0217936 0)
  (0.199651 0.0453466 0)
  (0.161956 0.110247 0)
  (-0.110678 -0.00605934 0)
  (0.0314313 0.000258115 0)
  (0.00857201 0.00439406 0)
  (-0.00215288 9.05761e-05 0)
  (0.000309171 -0.00196703 0)
  (0.00343057 -0.0019081 0)
  (0.0050643 -0.000508901 0)
  (0.00541175 0.000158854 0)
  (0.00523156 0.000268718 0)
  (0.00503408 0.000264808 0)
  (0.00488101 0.000253001 0)
  (0.00471283 0.000285067 0)
  (0.00437481 0.000471126 0)
  (0.00358394 0.00105438 0)
  (0.0025575 0.00254747 0)
  (-0.00200247 0.00439097 0)
  (-0.0237296 0.00420101 0)
  (-0.0402108 -0.00303103 0)
  (0.112938 -0.0148419 0)
  (0.0225047 0.0819557 0)
  (-0.0324182 -0.0250367 0)
  (0.0497618 -0.185476 0)
  (0.12087 -0.13836 0)
  (0.17821 -0.0889554 0)
  (0.217108 -0.0535606 0)
  (0.239796 -0.0296224 0)
  (0.251245 -0.0127074 0)
  (0.255261 0.000547653 0)
  (0.252981 0.0122118 0)
  (0.245145 0.0241391 0)
  (0.231873 0.0383605 0)
  (0.213704 0.0575922 0)
  (0.19239 0.0863 0)
  (0.186725 0.137715 0)
  (0.174987 0.123705 0)
  (0.109967 0.108315 0)
  (-0.140305 -0.00351643 0)
  (0.0101665 -0.00183001 0)
  (-0.00371828 0.00110454 0)
  (-0.00300949 -0.0021022 0)
  (0.00038646 -0.00408629 0)
  (0.00329194 -0.00393012 0)
  (0.00500681 -0.00125787 0)
  (0.00541034 0.000124458 0)
  (0.00519781 0.00044067 0)
  (0.00508147 0.000496885 0)
  (0.00503831 0.00050093 0)
  (0.0050096 0.000600452 0)
  (0.00494126 0.0010011 0)
  (0.00475206 0.00206951 0)
  (0.00522037 0.00424144 0)
  (0.00684313 0.00612884 0)
  (0.000828182 0.00743572 0)
  (-0.0315151 0.00113198 0)
  (0.167481 -0.0119432 0)
  (0.0790191 0.112445 0)
  (-0.0208509 -0.065869 0)
  (0.0442948 -0.254667 0)
  (0.0974985 -0.194685 0)
  (0.134027 -0.128264 0)
  (0.157951 -0.0800126 0)
  (0.171951 -0.0470914 0)
  (0.179505 -0.0236074 0)
  (0.182856 -0.00498815 0)
  (0.182796 0.0117593 0)
  (0.179556 0.0286474 0)
  (0.173647 0.0476861 0)
  (0.165871 0.0709777 0)
  (0.156635 0.100144 0)
  (0.151684 0.135621 0)
  (0.132042 0.130965 0)
  (0.097349 0.155055 0)
  (-0.152878 0.00741622 0)
  (0.00531294 -0.005758 0)
  (-0.00188356 -0.00636582 0)
  (0.000223941 -0.00641046 0)
  (0.00248703 -0.00675702 0)
  (0.00419065 -0.00683304 0)
  (0.00546163 -0.0049877 0)
  (0.00465735 -0.0034424 0)
  (0.00425214 -0.00367027 0)
  (0.00448097 -0.0039448 0)
  (0.00472348 -0.00408075 0)
  (0.00494118 -0.00406566 0)
  (0.00524183 -0.00378621 0)
  (0.00565807 -0.00283868 0)
  (0.00935912 0.00115963 0)
  (0.0159608 0.00192355 0)
  (0.0170214 0.00430173 0)
  (-0.0059942 0.00280619 0)
  (0.179936 0.00189629 0)
  (0.12567 0.129406 0)
  (-0.0271958 -0.0929749 0)
  (0.0280614 -0.309403 0)
  (0.0673137 -0.229565 0)
  (0.0852612 -0.148796 0)
  (0.0967692 -0.0920257 0)
  (0.103945 -0.0541246 0)
  (0.108876 -0.0273861 0)
  (0.11227 -0.00623969 0)
  (0.114569 0.0126483 0)
  (0.115155 0.0314173 0)
  (0.114489 0.0518942 0)
  (0.113076 0.0756585 0)
  (0.111071 0.103672 0)
  (0.113214 0.135969 0)
  (0.114704 0.152259 0)
  (0.119835 0.18282 0)
  (0.130278 0.0795515 0)
  (0.0295831 0.0274961 0)
  (0.0295072 0.000741031 0)
  (0.0161229 -0.0054254 0)
  (0.00984423 -0.00611253 0)
  (0.00707595 -0.00640906 0)
  (0.00508485 -0.00625263 0)
  (0.00352176 -0.003779 0)
  (0.00520276 -0.00212729 0)
  (0.00621788 -0.00170749 0)
  (0.00652901 -0.00162212 0)
  (0.00684213 -0.0017472 0)
  (0.00749259 -0.00209715 0)
  (0.00873762 -0.00273067 0)
  (0.0108875 -0.00378544 0)
  (0.0159567 -0.00610185 0)
  (0.0202288 -0.00567833 0)
  (0.0225268 -0.00320165 0)
  (0.00795685 0.00231401 0)
  (0.187077 0.0276545 0)
  (0.167067 0.139589 0)
  (-0.0355609 -0.110358 0)
  (0.00681346 -0.345752 0)
  (0.0341423 -0.246089 0)
  (0.0369886 -0.155876 0)
  (0.0402701 -0.0964167 0)
  (0.0428312 -0.0578843 0)
  (0.0456947 -0.0307643 0)
  (0.0485526 -0.00909782 0)
  (0.0516016 0.0105568 0)
  (0.0540382 0.0301537 0)
  (0.0562755 0.0510996 0)
  (0.0588392 0.0746432 0)
  (0.0622659 0.101627 0)
  (0.0703524 0.131906 0)
  (0.0790744 0.152466 0)
  (0.0907522 0.168304 0)
  (0.0951758 0.0926866 0)
  (0.0639658 0.052589 0)
  (0.0448246 0.0230275 0)
  (0.0279471 0.00787469 0)
  (0.0174955 0.000888163 0)
  (0.0116735 -0.00226351 0)
  (0.00814334 -0.00303096 0)
  (0.00644615 -0.00177364 0)
  (0.00616993 -0.000902092 0)
  (0.00634004 -0.000466375 0)
  (0.00651971 -0.000388819 0)
  (0.00679395 -0.000658639 0)
  (0.00728 -0.00130061 0)
  (0.00808031 -0.00239894 0)
  (0.0092256 -0.00409981 0)
  (0.0108469 -0.00623857 0)
  (0.0126492 -0.00776717 0)
  (0.0131437 -0.0075473 0)
  (0.00365257 -0.00222028 0)
  (0.0593225 0.0302408 0)
  (-0.00552303 0.0386092 0)
  (-0.0609569 0.00794609 0)
  (0.165232 -0.0355457 0)
  (0.219649 0.152008 0)
  (-0.0325309 -0.116505 0)
  (-0.0131749 -0.362669 0)
  (0.0058363 -0.250716 0)
  (-0.00386521 -0.15439 0)
  (-0.00601673 -0.0959746 0)
  (-0.00752203 -0.0589369 0)
  (-0.00755927 -0.0326707 0)
  (-0.00673241 -0.0114271 0)
  (-0.00503208 0.00802434 0)
  (-0.00275154 0.0274116 0)
  (0.000261031 0.0478358 0)
  (0.00453948 0.0703744 0)
  (0.0106564 0.095477 0)
  (0.0213454 0.122465 0)
  (0.032512 0.141637 0)
  (0.0489259 0.151045 0)
  (0.054773 0.102886 0)
  (0.0456492 0.0666172 0)
  (0.0361606 0.0380887 0)
  (0.0260315 0.0195761 0)
  (0.0182385 0.00863602 0)
  (0.0129605 0.00260958 0)
  (0.00946959 -0.000102723 0)
  (0.00749853 -0.000604108 0)
  (0.00665429 -0.000524629 0)
  (0.00637602 -0.000456355 0)
  (0.00631823 -0.000576571 0)
  (0.00638887 -0.000985198 0)
  (0.00655925 -0.00175488 0)
  (0.00678354 -0.00294407 0)
  (0.0069044 -0.00455608 0)
  (0.00664462 -0.00631415 0)
  (0.00569405 -0.0073499 0)
  (0.00289355 -0.00652387 0)
  (-0.00545248 -0.000145559 0)
  (0.00316088 0.0268763 0)
  (-0.0205234 0.0437416 0)
  (-0.0693618 0.0249453 0)
  (0.184945 -0.0458829 0)
  (0.274592 0.141579 0)
  (-0.00160377 -0.0942931 0)
  (-0.0267513 -0.359313 0)
  (-0.0109406 -0.246723 0)
  (-0.0328852 -0.147501 0)
  (-0.0411436 -0.0913126 0)
  (-0.0475912 -0.0564497 0)
  (-0.0516134 -0.0316873 0)
  (-0.0538217 -0.0115191 0)
  (-0.0544478 0.00692669 0)
  (-0.0533057 0.0251742 0)
  (-0.0505784 0.0441431 0)
  (-0.0458431 0.0645433 0)
  (-0.0384721 0.0865731 0)
  (-0.0267289 0.10929 0)
  (-0.012592 0.126737 0)
  (0.00877544 0.133648 0)
  (0.0199169 0.100572 0)
  (0.0227175 0.0703425 0)
  (0.0220327 0.04462 0)
  (0.0186942 0.025926 0)
  (0.0149781 0.0136345 0)
  (0.0117941 0.00622886 0)
  (0.00933429 0.0023129 0)
  (0.00769257 0.000670126 0)
  (0.0067641 5.79626e-05 0)
  (0.00626821 -0.000228437 0)
  (0.00599108 -0.000530289 0)
  (0.00581416 -0.00102655 0)
  (0.00564912 -0.00180693 0)
  (0.00538984 -0.00288784 0)
  (0.00485837 -0.00415704 0)
  (0.00379915 -0.00519275 0)
  (0.0019415 -0.00508015 0)
  (-0.00125312 -0.00239309 0)
  (-0.00582818 0.00588958 0)
  (-0.0025035 0.026662 0)
  (-0.00647825 0.0452631 0)
  (-0.0803969 0.027879 0)
  (0.247111 -0.0507006 0)
  (0.332292 0.0787663 0)
  (0.0328786 -0.0792495 0)
  (-0.0354026 -0.334241 0)
  (-0.0129798 -0.232686 0)
  (-0.0502866 -0.130327 0)
  (-0.0673064 -0.0786925 0)
  (-0.0797702 -0.0482516 0)
  (-0.0880224 -0.026655 0)
  (-0.093108 -0.00882613 0)
  (-0.0955679 0.00750468 0)
  (-0.095235 0.0236038 0)
  (-0.0924709 0.0402862 0)
  (-0.0869393 0.0579563 0)
  (-0.0780477 0.0764903 0)
  (-0.0647048 0.0947108 0)
  (-0.0472361 0.108485 0)
  (-0.0241355 0.112276 0)
  (-0.00666963 0.0907183 0)
  (0.00357197 0.0660955 0)
  (0.00877004 0.0444497 0)
  (0.0105259 0.0277408 0)
  (0.0104384 0.0161025 0)
  (0.00951176 0.00871602 0)
  (0.00833665 0.00449766 0)
  (0.00728974 0.00238446 0)
  (0.00651229 0.00139317 0)
  (0.00595307 0.000874803 0)
  (0.00552092 0.000460143 0)
  (0.00512848 -4.77109e-05 0)
  (0.00468746 -0.000738821 0)
  (0.00410056 -0.00160578 0)
  (0.00326255 -0.00249917 0)
  (0.00209141 -0.00300142 0)
  (0.000607193 -0.00232314 0)
  (-0.000866409 0.000670888 0)
  (-0.000634328 0.0077142 0)
  (0.00734645 0.0218649 0)
  (0.0183397 0.0343683 0)
  (-0.0374238 0.0174776 0)
  (0.416646 -0.0224588 0)
  (0.409447 0.232559 0)
  (0.0656745 0.200111 0)
  (-0.0474849 -0.268745 0)
  (-0.00432929 -0.19713 0)
  (-0.0599392 -0.0977311 0)
  (-0.0893464 -0.0557963 0)
  (-0.107552 -0.0331986 0)
  (-0.118652 -0.0170516 0)
  (-0.125191 -0.00319049 0)
  (-0.128104 0.0098307 0)
  (-0.127485 0.0228473 0)
  (-0.123717 0.0364164 0)
  (-0.116553 0.0506418 0)
  (-0.105547 0.0651822 0)
  (-0.0900849 0.0788155 0)
  (-0.0702053 0.088476 0)
  (-0.0464072 0.0897608 0)
  (-0.0255798 0.0756696 0)
  (-0.0110795 0.0574096 0)
  (-0.00180294 0.0401561 0)
  (0.0034604 0.0264053 0)
  (0.00601339 0.01673 0)
  (0.00693513 0.0104532 0)
  (0.00692555 0.00673531 0)
  (0.00650044 0.00472643 0)
  (0.00596362 0.00368988 0)
  (0.00542503 0.00311224 0)
  (0.00489485 0.00267955 0)
  (0.00433625 0.00221757 0)
  (0.00368395 0.0016504 0)
  (0.00286695 0.000988607 0)
  (0.00185468 0.000350314 0)
  (0.00071156 2.51092e-05 0)
  (-0.000339626 0.000502849 0)
  (-0.000631094 0.00231399 0)
  (0.00194279 0.00592221 0)
  (0.011289 0.0114866 0)
  (0.0230482 0.0138308 0)
  (-0.0236121 0.00512191 0)
  (0.423021 0.0175248 0)
  (-0.0828957 -0.176132 0)
  (-0.012676 -0.133486 0)
  (-0.0768898 -0.0545926 0)
  (-0.116574 -0.0276304 0)
  (-0.136174 -0.0131826 0)
  (-0.146669 -0.00191684 0)
  (-0.152188 0.00798807 0)
  (-0.153716 0.0164835 0)
  (-0.151671 0.025102 0)
  (-0.146095 0.0341588 0)
  (-0.136752 0.0435796 0)
  (-0.123348 0.0529774 0)
  (-0.10567 0.0613172 0)
  (-0.0840565 0.0664237 0)
  (-0.0598743 0.0652467 0)
  (-0.0376651 0.0545988 0)
  (-0.0207202 0.0404143 0)
  (-0.00893031 0.0268038 0)
  (-0.00148333 0.0158613 0)
  (0.00274227 0.00825801 0)
  (0.00485851 0.00350053 0)
  (0.0056457 0.000630258 0)
  (0.0056592 -0.00104272 0)
  (0.00529688 -0.00202503 0)
  (0.00476815 -0.002668 0)
  (0.00415474 -0.0031923 0)
  (0.00346297 -0.00371359 0)
  (0.00265914 -0.00426321 0)
  (0.00169461 -0.00484133 0)
  (0.000543426 -0.00542762 0)
  (-0.000739685 -0.0058338 0)
  (-0.0019683 -0.00577268 0)
  (-0.00270491 -0.00513206 0)
  (-0.00169257 -0.00402746 0)
  (0.00158111 -0.00288201 0)
  (-0.0027976 -0.00312526 0)
  (-0.0581824 -0.000944463 0)
  (0.222381 0.0554971 0)
  (-0.209998 -0.133097 0)
  (-0.0933617 -0.0976708 0)
  (-0.1295 -0.0903 0)
  (-0.14978 -0.0885744 0)
  (-0.162772 -0.0862905 0)
  (-0.171214 -0.08168 0)
  (-0.175421 -0.0736815 0)
  (-0.175557 -0.0641947 0)
  (-0.172098 -0.0544349 0)
  (-0.164751 -0.0445291 0)
  (-0.15324 -0.034645 0)
  (-0.137393 -0.0252324 0)
  (-0.117307 -0.0173 0)
  (-0.0937009 -0.0126809 0)
  (-0.0683664 -0.013786 0)
  (-0.044854 -0.0223693 0)
  (-0.0261442 -0.034518 0)
  (-0.0126651 -0.046537 0)
  (-0.00368036 -0.0564836 0)
  (0.00172538 -0.0638277 0)
  (0.00436641 -0.068707 0)
  (0.00527522 -0.0718251 0)
  (0.00527265 -0.0737728 0)
  (0.0048337 -0.0750119 0)
  (0.00418634 -0.0758778 0)
  (0.00342595 -0.0765926 0)
  (0.00258937 -0.0772935 0)
  (0.00168664 -0.0780822 0)
  (0.000697434 -0.0790548 0)
  (-0.000437208 -0.080164 0)
  (-0.0017897 -0.0813152 0)
  (-0.00330058 -0.0824362 0)
  (-0.0044711 -0.0835247 0)
  (-0.00412955 -0.0848813 0)
  (-0.00340504 -0.0870312 0)
  (-0.0127986 -0.0927984 0)
  (-0.0445247 -0.103724 0)
  (0.186419 -0.130025 0)
  (-0.191799 -0.161398 0)
  (-0.151033 0.048531 0)
  (-0.134031 0.375385 0)
  (-0.146819 0.291773 0)
  (-0.165163 0.27934 0)
  (-0.176346 0.282538 0)
  (-0.183635 0.284377 0)
  (-0.18822 0.283515 0)
  (-0.189794 0.279166 0)
  (-0.187854 0.274984 0)
  (-0.18202 0.272027 0)
  (-0.172066 0.270417 0)
  (-0.157826 0.270289 0)
  (-0.139307 0.271889 0)
  (-0.116922 0.275597 0)
  (-0.0917847 0.281897 0)
  (-0.0659759 0.291275 0)
  (-0.0426571 0.303809 0)
  (-0.0244647 0.317394 0)
  (-0.011678 0.329526 0)
  (-0.00358775 0.338135 0)
  (0.000868888 0.342145 0)
  (0.00314623 0.343663 0)
  (0.00421167 0.344912 0)
  (0.00445996 0.346009 0)
  (0.0041849 0.347014 0)
  (0.00356231 0.347979 0)
  (0.00266384 0.348957 0)
  (0.00149143 0.350007 0)
  (3.4766e-05 0.351094 0)
  (-0.00174464 0.35193 0)
  (-0.00382383 0.352346 0)
  (-0.00625737 0.352551 0)
  (-0.00906911 0.352825 0)
  (-0.0116278 0.353349 0)
  (-0.0124803 0.354308 0)
  (-0.0157102 0.356126 0)
  (-0.0407177 0.367274 0)
  (-0.0798863 0.406376 0)
  (0.260395 0.516218 0)
)
;

boundaryField
{
  floor
  {
    type noSlip;
  }
  ceiling
  {
    type noSlip;
  }
  sWall
  {
    type noSlip;
  }
  nWall
  {
    type noSlip;
  }
  sideWalls
  {
    type empty;
  }
  glass1
  {
    type noSlip;
  }
  glass2
  {
    type noSlip;
  }
  sun
  {
    type noSlip;
  }
  heatsource1
  {
    type noSlip;
  }
  heatsource2
  {
    type noSlip;
  }
  Table_master
  {
    type noSlip;
  }
  Table_slave
  {
    type noSlip;
  }
  inlet
  {
    type fixedValue;
    value uniform (0.277164 -0.114805 0);
  }
  outlet
  {
    type zeroGradient;
  }
} 	// ************************************************************************* //

