/*--------------------------------*- C++ -*----------------------------------*\
  =========                 |
  \\      /  F ield         | OpenFOAM: The Open Source CFD Toolbox
   \\    /   O peration     | Website:  https://openfoam.org
    \\  /    A nd           | Version:  6
     \\/     M anipulation  |
\*---------------------------------------------------------------------------*/
FoamFile
{
    version     2.0;
    format      ascii;
    class       volScalarField;
    location    "500";
    object      epsilon;
}
// * * * * * * * * * * * * * * * * * * * * * * * * * * * * * * * * * * * * * //

dimensions      [0 2 -3 0 0 0 0];

internalField   nonuniform List<scalar> 
459
(
0.000368045
0.0004701
0.000488517
0.000558268
0.000627618
0.000696217
0.000766223
0.000841541
0.000907786
0.000948372
0.000950081
0.000904402
0.000814469
0.000700128
0.000588185
2.99761e-05
5.59954e-05
7.4013e-05
6.82816e-05
5.96758e-05
5.0923e-05
4.24054e-05
3.5227e-05
2.94705e-05
2.48876e-05
2.12193e-05
1.82692e-05
1.58704e-05
1.38791e-05
1.2178e-05
1.06548e-05
9.1919e-06
8.43611e-06
6.57076e-06
0.00097623
0.00148537
0.000444689
0.000424931
0.000440121
0.000464878
0.000501076
0.000553408
0.000613473
0.000663989
0.000686481
0.000667725
0.000606557
0.000522472
0.000474209
0.0006111
0.000173141
4.20106e-05
9.70035e-05
9.46548e-05
8.16098e-05
6.67954e-05
5.41721e-05
4.67682e-05
3.81044e-05
3.07034e-05
2.48001e-05
2.01756e-05
1.65748e-05
1.37749e-05
1.16018e-05
1.00319e-05
9.15716e-06
8.89152e-06
2.48596e-05
1.64864e-05
0.00183635
0.00383034
0.000573052
0.000406162
0.00041596
0.000454485
0.000512636
0.000592311
0.00068304
0.000758872
0.000796372
0.00078394
0.000723493
0.000633489
0.000546798
0.000500583
0.000550804
0.000356332
0.000224346
0.00015563
0.000113132
8.54827e-05
6.92624e-05
0.000118826
8.47787e-05
6.25699e-05
4.76717e-05
3.7373e-05
3.00489e-05
2.47139e-05
2.07678e-05
1.78551e-05
1.37923e-05
1.17295e-05
4.61688e-05
2.65464e-05
0.00305409
0.00813394
0.00095685
0.000414176
0.000401848
0.00045366
0.000537316
0.000658574
0.000790327
0.000886233
0.00092561
0.000905357
0.000833053
0.000727743
0.000608746
0.000515547
0.000475844
0.000847393
0.000457878
0.000262261
0.00016904
0.000118247
8.83177e-05
7.45225e-05
0.000165845
0.000130407
0.000109262
9.52333e-05
8.42229e-05
7.41233e-05
6.51197e-05
5.62758e-05
4.67649e-05
2.84382e-05
1.89668e-05
7.42593e-05
3.65078e-05
0.00476131
0.0146208
0.00197204
0.000503479
0.000405943
0.000459215
0.000581501
0.000796693
0.000981523
0.00108143
0.00110398
0.00105879
0.000959181
0.000821284
0.000665225
0.000515594
0.000391537
0.00031993
0.000241892
0.000178385
0.000131807
9.98174e-05
7.89013e-05
6.70984e-05
6.65146e-05
6.43175e-05
6.19802e-05
5.93007e-05
5.57114e-05
5.09235e-05
4.59101e-05
4.11322e-05
3.67764e-05
3.01544e-05
2.35717e-05
5.30814e-05
4.1596e-05
7.17094e-05
0.000126045
0.000176773
0.00715459
0.0217056
0.00453723
0.00100715
0.000604038
0.000596856
0.000788035
0.00115667
0.00133665
0.00138718
0.00135862
0.00127144
0.00113254
0.000950812
0.000746617
0.00054857
0.000384408
0.000271543
0.00019892
0.000148162
0.000111394
8.68425e-05
7.22344e-05
6.54e-05
6.46486e-05
6.64583e-05
6.8491e-05
6.94281e-05
6.81908e-05
6.37681e-05
5.59855e-05
4.7666e-05
4.00778e-05
3.34234e-05
2.91812e-05
3.98547e-05
4.21591e-05
5.33831e-05
0.000232868
0.00019974
0.0100133
0.0259107
0.00955843
0.00348384
0.00207945
0.00167682
0.00186357
0.00198358
0.00195843
0.00185965
0.00172646
0.00156113
0.00135456
0.00110813
0.000843097
0.000592927
0.000390337
0.000253719
0.000171818
0.000123204
9.32337e-05
7.6398e-05
6.90827e-05
6.85025e-05
7.24983e-05
7.8675e-05
8.52146e-05
9.11274e-05
9.52951e-05
9.58607e-05
8.93868e-05
7.78207e-05
6.65284e-05
5.71814e-05
5.33107e-05
5.98381e-05
7.63264e-05
0.000123517
0.000295508
0.00028352
0.0106983
0.0288972
0.0158052
0.0104459
0.00725531
0.0053946
0.00424698
0.00344002
0.00288852
0.0025039
0.002203
0.00191822
0.00160882
0.00126749
0.000921047
0.000608425
0.00036508
0.000213967
0.000131489
9.52085e-05
7.76779e-05
7.06235e-05
7.03831e-05
7.48073e-05
8.25153e-05
9.24602e-05
0.000104079
0.000117339
0.000132328
0.000148814
0.000165555
0.000173997
0.000180116
0.000196881
0.000233745
0.000350211
0.000652098
0.00125829
0.00379972
0.00112014
0.00991596
0.0168
0.0134988
0.0102088
0.00776902
0.00604897
0.00485365
0.00404951
0.00349937
0.00308026
0.0026947
0.00228284
0.00182698
0.00134432
0.000892906
0.000518002
0.000253856
0.000143117
9.51534e-05
7.49e-05
6.72071e-05
6.64654e-05
7.01043e-05
7.68698e-05
8.62237e-05
9.80584e-05
0.000112694
0.000130934
0.000154088
0.000184046
0.000223361
0.000275456
0.000346462
0.000454977
0.000616652
0.000838467
0.00109462
0.00131955
0.00148983
0.00092865
0.00430287
0.00650153
0.00638731
0.0059213
0.00543409
0.00488641
0.0042957
0.00366683
0.00300091
0.00231385
0.00163779
0.000976228
0.000487415
0.000240323
0.000126028
8.13592e-05
6.3733e-05
5.73131e-05
5.62411e-05
5.82236e-05
6.22765e-05
6.80266e-05
7.54586e-05
8.48187e-05
9.66316e-05
0.000111769
0.000131561
0.000157998
0.000194056
0.000244579
0.000314584
0.000411298
0.000538618
0.000685396
0.000813118
0.000868851
0.000821884
0.00052391
0.0030734
0.00631991
0.00645363
0.00538497
0.00474217
0.00425872
0.00362788
0.00281433
0.0019846
0.00128302
0.000753691
0.000400716
0.000208866
0.000118283
8.03088e-05
6.65275e-05
6.2223e-05
6.16534e-05
6.27909e-05
6.51273e-05
6.86089e-05
7.32756e-05
7.93194e-05
8.70709e-05
9.70453e-05
0.00011004
0.000127286
0.000150661
0.000182911
0.00022746
0.00028899
0.000372312
0.000478249
0.00059869
0.000690395
0.000788313
0.000747291
0.000551055
0.00204349
0.00242261
0.00272435
0.00323898
0.00277049
0.00229487
0.00192673
0.00160291
0.00133088
0.00105955
0.000792215
0.000539814
0.000340347
0.000206165
0.000128864
8.88259e-05
6.93543e-05
6.04006e-05
5.70217e-05
5.68966e-05
5.89694e-05
6.26669e-05
6.76336e-05
7.39534e-05
8.18127e-05
9.14882e-05
0.000103368
0.000118006
0.000136243
0.000159454
0.000188957
0.000225599
0.000271504
0.000329429
0.000402184
0.000502688
0.000540952
0.000503278
0.000415157
0.000333865
)
;

boundaryField
{
    floor
    {
        Cmu             0.09;
        kappa           0.41;
        E               9.8;
        type            epsilonWallFunction;
        value           nonuniform List<scalar> 
29
(
0.000588185
2.99761e-05
5.59954e-05
7.4013e-05
6.82816e-05
5.96758e-05
5.0923e-05
4.24054e-05
3.5227e-05
2.94705e-05
2.48876e-05
2.12193e-05
1.82692e-05
1.58704e-05
1.38791e-05
1.2178e-05
1.06548e-05
9.1919e-06
8.43611e-06
6.57076e-06
6.57076e-06
1.64864e-05
2.65464e-05
3.65078e-05
0.000588185
2.99761e-05
4.20106e-05
0.000356332
0.000847393
)
;
    }
    ceiling
    {
        Cmu             0.09;
        kappa           0.41;
        E               9.8;
        type            epsilonWallFunction;
        value           nonuniform List<scalar> 
43
(
0.00204349
0.00242261
0.00272435
0.00323898
0.00277049
0.00229487
0.00192673
0.00160291
0.00133088
0.00105955
0.000792215
0.000539814
0.000340347
0.000206165
0.000128864
8.88259e-05
6.93543e-05
6.04006e-05
5.70217e-05
5.68966e-05
5.89694e-05
6.26669e-05
6.76336e-05
7.39534e-05
8.18127e-05
9.14882e-05
0.000103368
0.000118006
0.000136243
0.000159454
0.000188957
0.000225599
0.000271504
0.000329429
0.000402184
0.000502688
0.000540952
0.000503278
0.000415157
0.000333865
0.00991596
0.0168
0.0030734
)
;
    }
    sWall
    {
        Cmu             0.09;
        kappa           0.41;
        E               9.8;
        type            epsilonWallFunction;
        value           uniform 0.00204349;
    }
    nWall
    {
        Cmu             0.09;
        kappa           0.41;
        E               9.8;
        type            epsilonWallFunction;
        value           nonuniform List<scalar> 6(0.000176773 0.00019974 0.00028352 0.00052391 0.000551055 0.000333865);
    }
    sideWalls
    {
        type            empty;
    }
    glass1
    {
        Cmu             0.09;
        kappa           0.41;
        E               9.8;
        type            epsilonWallFunction;
        value           nonuniform List<scalar> 9(0.000368045 0.00097623 0.00183635 0.00305409 0.00476131 0.00715459 0.0100133 0.0106983 0.00991596);
    }
    glass2
    {
        Cmu             0.09;
        kappa           0.41;
        E               9.8;
        type            epsilonWallFunction;
        value           nonuniform List<scalar> 2(0.00112014 0.00092865);
    }
    sun
    {
        Cmu             0.09;
        kappa           0.41;
        E               9.8;
        type            epsilonWallFunction;
        value           nonuniform List<scalar> 
14
(
0.000368045
0.0004701
0.000488517
0.000558268
0.000627618
0.000696217
0.000766223
0.000841541
0.000907786
0.000948372
0.000950081
0.000904402
0.000814469
0.000700128
)
;
    }
    heatsource1
    {
        Cmu             0.09;
        kappa           0.41;
        E               9.8;
        type            epsilonWallFunction;
        value           nonuniform List<scalar> 3(7.17094e-05 0.000126045 0.000176773);
    }
    heatsource2
    {
        Cmu             0.09;
        kappa           0.41;
        E               9.8;
        type            epsilonWallFunction;
        value           nonuniform List<scalar> 4(0.0006111 0.000173141 0.000173141 0.000550804);
    }
    Table_master
    {
        Cmu             0.09;
        kappa           0.41;
        E               9.8;
        type            epsilonWallFunction;
        value           nonuniform List<scalar> 9(0.000118826 8.47787e-05 6.25699e-05 4.76717e-05 3.7373e-05 3.00489e-05 2.47139e-05 2.07678e-05 1.78551e-05);
    }
    Table_slave
    {
        Cmu             0.09;
        kappa           0.41;
        E               9.8;
        type            epsilonWallFunction;
        value           nonuniform List<scalar> 9(0.000165845 0.000130407 0.000109262 9.52333e-05 8.42229e-05 7.41233e-05 6.51197e-05 5.62758e-05 4.67649e-05);
    }
    inlet
    {
        type            turbulentMixingLengthDissipationRateInlet;
        mixingLength    0.01;
        phi             phi;
        k               k;
        value           uniform 0.000101881;
    }
    outlet
    {
        type            zeroGradient;
    }
}


// ************************************************************************* //
