/*--------------------------------*- C++ -*----------------------------------*\
  =========                 |
  \\      /  F ield         | OpenFOAM: The Open Source CFD Toolbox
   \\    /   O peration     | Website:  https://openfoam.org
    \\  /    A nd           | Version:  6
     \\/     M anipulation  |
\*---------------------------------------------------------------------------*/
FoamFile
{
    version     2.0;
    format      ascii;
    class       volScalarField;
    location    "300";
    object      alphat;
}
// * * * * * * * * * * * * * * * * * * * * * * * * * * * * * * * * * * * * * //

dimensions      [1 -1 -1 0 0 0 0];

internalField   nonuniform List<scalar> 
459
(
0.000834033
0.000858449
0.000792053
0.000822019
0.000854093
0.000884285
0.000912716
0.000940123
0.000967608
0.000995875
0.00101974
0.00103785
0.00104925
0.00105344
0.00104621
0.000410254
0.000452487
0.000466892
0.00037574
0.000284048
0.000258009
0.000248445
0.000254997
0.00027619
0.000305876
0.000338732
0.000371006
0.000398687
0.000417467
0.000446459
0.000483958
0.000509988
0.000507881
0.000450988
0.00141525
0.00246045
0.00180263
0.00236016
0.00257222
0.00278901
0.00301329
0.0032263
0.00340132
0.0035155
0.0035716
0.00353208
0.00333531
0.002882
0.0020749
0.0011252
0.00075504
0.000563915
0.00121045
0.00138593
0.00133467
0.00100698
0.000567328
0.000352788
0.00039845
0.00055061
0.000768352
0.00100194
0.00122792
0.00143525
0.00158794
0.00173592
0.00187752
0.00176613
0.00174838
0.000568508
0.00193154
0.00408371
0.00190028
0.00334481
0.00382603
0.00407325
0.00428577
0.00446733
0.00460998
0.00470272
0.00475004
0.00470889
0.00451025
0.00405223
0.00324596
0.00218469
0.00119421
0.000953184
0.00255578
0.00231252
0.00194404
0.00147033
0.00101669
0.00035296
0.000368951
0.000411546
0.000454542
0.000499227
0.00054746
0.000602369
0.000669479
0.000756707
0.00179629
0.00160232
0.00128786
0.000759178
0.00242114
0.0061303
0.00213544
0.00351384
0.00446998
0.00472792
0.00489546
0.0050377
0.00516273
0.00526742
0.00537473
0.00546989
0.00549138
0.00531869
0.00476917
0.00369254
0.00226795
0.00126422
0.00303213
0.00321429
0.00285952
0.00230221
0.00175036
0.00121564
0.000785506
0.00078027
0.000777372
0.000775209
0.000775153
0.000780202
0.000794962
0.000826296
0.00090864
0.00262025
0.00318505
0.00316947
0.00110976
0.00287448
0.00833861
0.00283913
0.00317281
0.00461512
0.00492559
0.00504046
0.00512482
0.00520851
0.00530564
0.00547134
0.00573929
0.00609235
0.00647734
0.00679497
0.00692117
0.00676984
0.00635896
0.00614796
0.00574101
0.00528988
0.00488824
0.00455629
0.00427287
0.00403055
0.00386899
0.00370403
0.00354337
0.00341357
0.00334699
0.00336329
0.00346074
0.0036272
0.00384133
0.00397284
0.00391969
0.00340182
0.00151482
0.00135414
0.00118714
0.00329697
0.0102953
0.00424204
0.00285331
0.00422373
0.00472658
0.00487334
0.00492255
0.00493247
0.00494254
0.00507952
0.00536717
0.00581315
0.00640445
0.00706161
0.00763395
0.00794598
0.00790756
0.00761933
0.00722297
0.00683285
0.00649588
0.00620686
0.0059402
0.00566145
0.00535034
0.00500274
0.0046408
0.00431359
0.00408119
0.00397565
0.00398004
0.00404223
0.00409745
0.00411224
0.00404622
0.00376269
0.00307365
0.00234942
0.00124085
0.00369258
0.011696
0.00673089
0.00348179
0.00321758
0.00387305
0.00439481
0.00466686
0.00470984
0.0046034
0.00464928
0.00481416
0.00512787
0.0056334
0.00631378
0.00704057
0.00761389
0.00789354
0.00788528
0.00771146
0.0074917
0.00728547
0.00710171
0.00692182
0.00671089
0.00643655
0.00607769
0.0056346
0.0051505
0.00471041
0.00438264
0.00417353
0.00404356
0.00393019
0.00377149
0.00351164
0.00310443
0.00259091
0.00206295
0.00121433
0.00378707
0.0119547
0.00894072
0.00637224
0.00450825
0.00385337
0.0041107
0.0045272
0.00456275
0.0044517
0.00439526
0.00441584
0.00452576
0.00476106
0.0051725
0.00576125
0.00640697
0.00693381
0.00722044
0.0073199
0.00732843
0.00731079
0.00729721
0.00729063
0.00727465
0.0072212
0.00708871
0.00682996
0.00643294
0.00597211
0.00553333
0.00511447
0.00470394
0.00429461
0.00388887
0.00350653
0.00311824
0.00276453
0.00244313
0.00151346
0.00367256
0.00440961
0.00516293
0.00521279
0.00482254
0.00435703
0.0040577
0.00393437
0.00388964
0.0038969
0.00393064
0.00397532
0.00403032
0.00411295
0.00426126
0.00452278
0.00491036
0.0053615
0.00577458
0.00609909
0.00634097
0.00653016
0.00669615
0.00685909
0.00703152
0.00722098
0.00741848
0.00757648
0.00760095
0.00742675
0.00708587
0.0067229
0.00645523
0.00634732
0.00633609
0.00601554
0.00511951
0.00430986
0.00439803
0.00171773
0.00481419
0.00641557
0.00555538
0.00500021
0.0046134
0.00434555
0.00415567
0.00400992
0.0038952
0.00380238
0.00372609
0.00366772
0.00363783
0.0036573
0.00375204
0.00393707
0.0042007
0.00451032
0.00483015
0.00513584
0.00541916
0.00568553
0.00595069
0.00623809
0.00657088
0.00694898
0.00730561
0.00750878
0.00749535
0.00730538
0.00705568
0.00684451
0.00668283
0.006509
0.00598564
0.00507464
0.00471472
0.00168359
0.00333797
0.00665339
0.00571493
0.00515931
0.00474817
0.00442516
0.00416882
0.00395826
0.00375132
0.00356125
0.00339595
0.00326075
0.00316048
0.00310131
0.00309157
0.00314073
0.00325597
0.00343758
0.00367592
0.00395176
0.00424116
0.00452206
0.00478402
0.0050255
0.00525193
0.00547163
0.00569451
0.00591837
0.00608167
0.00612876
0.00606025
0.00591624
0.00572111
0.0054187
0.00483781
0.00399573
0.00388262
0.0014885
0.00220477
0.00251058
0.00285733
0.00296966
0.00261195
0.00237815
0.0021866
0.00202043
0.00187312
0.00174167
0.00162906
0.00152907
0.0014384
0.00135544
0.0012797
0.0012114
0.00115122
0.00110001
0.00105852
0.0010272
0.00100602
0.00099435
0.000990938
0.000994158
0.00100174
0.0010121
0.00102454
0.0010395
0.00105897
0.00108566
0.00111954
0.0011572
0.0011913
0.00121236
0.0012115
0.00118712
0.00115625
0.00111592
0.00113225
0.00108865
)
;

boundaryField
{
    floor
    {
        type            compressible::alphatWallFunction;
        Prt             0.85;
        value           nonuniform List<scalar> 
29
(
0.000148787
5.52637e-05
6.18525e-05
6.40823e-05
4.98151e-05
3.49982e-05
3.06824e-05
2.90829e-05
3.01781e-05
3.36991e-05
3.85728e-05
4.38949e-05
4.9058e-05
5.34406e-05
5.63925e-05
6.0917e-05
6.67143e-05
7.0705e-05
7.03821e-05
6.1624e-05
6.16232e-05
7.95829e-05
0.000107806
0.000157654
0.000148785
5.5263e-05
7.88886e-05
0.000135642
0.000178977
)
;
    }
    ceiling
    {
        type            compressible::alphatWallFunction;
        Prt             0.85;
        value           nonuniform List<scalar> 
43
(
0.000303829
0.000342971
0.000386751
0.000400823
0.000355844
0.000326096
0.000301491
0.000279959
0.00026071
0.000243392
0.000228443
0.000215072
0.000202862
0.000191616
0.00018128
0.000171898
0.000163581
0.000156464
0.000150669
0.000146277
0.000143296
0.000141648
0.000141164
0.000141615
0.000142681
0.000144136
0.000145883
0.000147981
0.000150708
0.000154437
0.000159155
0.000164382
0.000169097
0.000172002
0.000171884
0.000168522
0.000164252
0.000158654
0.000160922
0.000154856
0.00048772
0.00057693
0.00044654
)
;
    }
    sWall
    {
        type            compressible::alphatWallFunction;
        Prt             0.85;
        value           uniform 0.000302749;
    }
    nWall
    {
        type            compressible::alphatWallFunction;
        Prt             0.85;
        value           nonuniform List<scalar> 6(0.000168186 0.000175584 0.000171938 0.000235312 0.00020924 0.000154532);
    }
    sideWalls
    {
        type            empty;
    }
    glass1
    {
        type            compressible::alphatWallFunction;
        Prt             0.85;
        value           nonuniform List<scalar> 9(0.000115381 0.00019498 0.000262793 0.000325433 0.000382337 0.000434588 0.000482927 0.000494525 0.00048084);
    }
    glass2
    {
        type            compressible::alphatWallFunction;
        Prt             0.85;
        value           nonuniform List<scalar> 2(0.000211376 0.000238502);
    }
    sun
    {
        type            compressible::alphatWallFunction;
        Prt             0.85;
        value           nonuniform List<scalar> 
14
(
0.000118701
0.000122189
0.000112624
0.000116952
0.000121565
0.000125887
0.000129942
0.000133837
0.000137729
0.000141719
0.000145077
0.000147618
0.000149215
0.000149801
)
;
    }
    heatsource1
    {
        type            compressible::alphatWallFunction;
        Prt             0.85;
        value           nonuniform List<scalar> 3(0.000213118 0.000191401 0.000168515);
    }
    heatsource2
    {
        type            compressible::alphatWallFunction;
        Prt             0.85;
        value           nonuniform List<scalar> 4(0.000159931 0.000107369 0.000107368 0.000169485);
    }
    Table_master
    {
        type            compressible::alphatWallFunction;
        Prt             0.85;
        value           nonuniform List<scalar> 9(4.6344e-05 4.88969e-05 5.56323e-05 6.23405e-05 6.92272e-05 7.65741e-05 8.48406e-05 9.48194e-05 0.00010761);
    }
    Table_slave
    {
        type            compressible::alphatWallFunction;
        Prt             0.85;
        value           nonuniform List<scalar> 9(0.000111796 0.000111037 0.000110617 0.000110303 0.000110295 0.000111027 0.000113165 0.000117689 0.000129483);
    }
    inlet
    {
        type            fixedValue;
        value           uniform 1.94e-05;
    }
    outlet
    {
        type            zeroGradient;
    }
}


// ************************************************************************* //
