// -*- C++ -*-
// File generated by PyFoam - sorry for the ugliness

FoamFile
{
 version 2.0;
 format ascii;
 class volScalarField;
 location "200";
 object T;
}

dimensions [ 0 0 0 1 0 0 0 ];

internalField nonuniform List<scalar> 459
(
  302.848
  302.588
  302.579
  302.579
  302.578
  302.578
  302.575
  302.569
  302.563
  302.56
  302.562
  302.571
  302.575
  302.576
  302.584
  302.826
  302.798
  302.786
  302.797
  302.814
  302.829
  302.841
  302.851
  302.861
  302.871
  302.881
  302.891
  302.902
  302.913
  302.925
  302.937
  302.952
  302.971
  303.01
  303.018
  302.623
  302.602
  302.607
  302.611
  302.612
  302.606
  302.59
  302.571
  302.56
  302.562
  302.573
  302.58
  302.58
  302.579
  302.574
  302.563
  302.83
  302.764
  302.76
  302.778
  302.803
  302.825
  302.835
  302.842
  302.85
  302.857
  302.865
  302.873
  302.882
  302.891
  302.902
  302.915
  302.931
  302.954
  303.002
  303.198
  302.671
  302.636
  302.649
  302.664
  302.671
  302.659
  302.624
  302.585
  302.562
  302.563
  302.579
  302.593
  302.597
  302.593
  302.587
  302.575
  302.777
  302.741
  302.746
  302.779
  302.82
  302.854
  302.856
  302.859
  302.863
  302.868
  302.874
  302.882
  302.89
  302.899
  302.909
  302.922
  302.937
  302.958
  303.004
  303.383
  302.734
  302.676
  302.701
  302.734
  302.755
  302.73
  302.663
  302.598
  302.561
  302.562
  302.586
  302.611
  302.624
  302.621
  302.613
  302.6
  302.609
  302.633
  302.68
  302.743
  302.811
  302.875
  302.926
  302.968
  303.002
  303.03
  303.055
  303.079
  303.101
  303.121
  303.14
  303.154
  303.073
  303.013
  302.989
  303.015
  303.566
  302.814
  302.726
  302.756
  302.813
  302.851
  302.801
  302.693
  302.603
  302.558
  302.56
  302.594
  302.635
  302.663
  302.67
  302.665
  302.661
  302.678
  302.717
  302.776
  302.848
  302.922
  302.989
  303.047
  303.098
  303.137
  303.169
  303.195
  303.215
  303.228
  303.235
  303.234
  303.224
  303.166
  303.085
  303.029
  303.029
  303.244
  303.318
  303.308
  303.735
  302.922
  302.807
  302.829
  302.922
  302.928
  302.834
  302.702
  302.594
  302.544
  302.555
  302.609
  302.674
  302.723
  302.747
  302.755
  302.765
  302.797
  302.851
  302.919
  302.994
  303.067
  303.132
  303.185
  303.23
  303.265
  303.292
  303.312
  303.324
  303.329
  303.325
  303.313
  303.29
  303.237
  303.158
  303.085
  303.058
  303.149
  303.194
  303.246
  303.899
  303.093
  302.982
  302.998
  303.055
  302.98
  302.821
  302.655
  302.543
  302.511
  302.552
  302.64
  302.74
  302.817
  302.865
  302.89
  302.914
  302.96
  303.024
  303.093
  303.163
  303.227
  303.281
  303.325
  303.359
  303.384
  303.402
  303.413
  303.417
  303.413
  303.402
  303.382
  303.352
  303.303
  303.235
  303.163
  303.121
  303.144
  303.171
  303.211
  304.127
  303.529
  303.404
  303.369
  303.207
  302.95
  302.69
  302.506
  302.434
  302.467
  302.57
  302.717
  302.861
  302.966
  303.03
  303.059
  303.094
  303.148
  303.213
  303.276
  303.333
  303.382
  303.42
  303.449
  303.469
  303.483
  303.49
  303.492
  303.487
  303.476
  303.46
  303.437
  303.408
  303.364
  303.313
  303.259
  303.231
  303.252
  303.276
  303.389
  304.459
  304.171
  303.94
  303.548
  302.952
  302.482
  302.23
  302.181
  302.288
  302.476
  302.681
  302.902
  303.081
  303.164
  303.207
  303.242
  303.283
  303.335
  303.391
  303.442
  303.483
  303.513
  303.535
  303.548
  303.554
  303.554
  303.548
  303.537
  303.522
  303.506
  303.489
  303.474
  303.461
  303.454
  303.456
  303.47
  303.499
  303.532
  303.552
  303.611
  295.693
  296.686
  298.537
  300.027
  301.093
  301.865
  302.463
  302.875
  303.083
  303.209
  303.29
  303.342
  303.38
  303.417
  303.457
  303.5
  303.54
  303.573
  303.597
  303.612
  303.618
  303.618
  303.612
  303.602
  303.59
  303.575
  303.56
  303.546
  303.532
  303.521
  303.514
  303.512
  303.517
  303.533
  303.56
  303.596
  303.646
  303.717
  296.655
  298.724
  300.72
  301.774
  302.412
  302.82
  303.081
  303.248
  303.353
  303.422
  303.47
  303.508
  303.54
  303.572
  303.603
  303.631
  303.655
  303.672
  303.681
  303.683
  303.679
  303.671
  303.66
  303.647
  303.633
  303.619
  303.604
  303.59
  303.577
  303.565
  303.556
  303.551
  303.552
  303.561
  303.579
  303.613
  303.641
  303.696
  300.208
  300.13
  300.12
  302.051
  302.818
  303.123
  303.288
  303.403
  303.486
  303.547
  303.592
  303.627
  303.654
  303.677
  303.696
  303.713
  303.727
  303.737
  303.743
  303.745
  303.743
  303.737
  303.729
  303.719
  303.708
  303.695
  303.682
  303.669
  303.655
  303.641
  303.627
  303.614
  303.603
  303.593
  303.586
  303.588
  303.597
  303.613
  303.631
  303.691
)
;

boundaryField
{
  floor
  {
    type wallHeatTransfer;
    Tinf uniform 305.2;
    alphaWall uniform 0.24;
    value nonuniform List<scalar> 29
(
  302.89
  303.235
  303.169
  303.12
  303.112
  303.126
  303.145
  303.17
  303.196
  303.222
  303.248
  303.272
  303.296
  303.32
  303.342
  303.365
  303.389
  303.415
  303.445
  303.505
  303.505
  303.45
  303.424
  303.414
  302.89
  303.235
  303.244
  303.11
  302.844
)
;
  }
  ceiling
  {
    type wallHeatTransfer;
    Tinf uniform 303.2;
    alphaWall uniform 0.24;
    value nonuniform List<scalar> 43
(
  300.414
  300.333
  300.316
  302.12
  302.843
  303.129
  303.282
  303.388
  303.463
  303.517
  303.555
  303.584
  303.607
  303.626
  303.643
  303.656
  303.667
  303.674
  303.678
  303.677
  303.673
  303.666
  303.657
  303.647
  303.637
  303.626
  303.614
  303.603
  303.592
  303.581
  303.571
  303.562
  303.554
  303.548
  303.544
  303.548
  303.557
  303.57
  303.584
  303.635
  304.402
  304.132
  297.065
)
;
  }
  sWall
  {
    type wallHeatTransfer;
    Tinf uniform 315.2;
    alphaWall uniform 0.36;
    value uniform 301.714;
  }
  nWall
  {
    type wallHeatTransfer;
    Tinf uniform 307.2;
    alphaWall uniform 0.36;
    value nonuniform List<scalar> 6
(
  304.03
  303.956
  303.853
  304.214
  304.189
  304.262
)
;
  }
  sideWalls
  {
    type empty;
  }
  glass1
  {
    type wallHeatTransfer;
    Tinf uniform 315.2;
    alphaWall uniform 4.3;
    value nonuniform List<scalar> 9
(
  311.024
  310.397
  310.007
  309.714
  309.472
  309.253
  309.106
  309.194
  309.44
)
;
  }
  glass2
  {
    type wallHeatTransfer;
    Tinf uniform 307.2;
    alphaWall uniform 4.3;
    value nonuniform List<scalar> 2
(
  305.74
  305.879
)
;
  }
  sun
  {
    type wallHeatTransfer;
    Tinf uniform 305.2;
    alphaWall uniform 0.24;
    value nonuniform List<scalar> 14
(
  303.075
  302.822
  302.808
  302.799
  302.791
  302.782
  302.773
  302.764
  302.757
  302.757
  302.765
  302.791
  302.816
  302.847
)
;
  }
  heatsource1
  {
    type fixedGradient;
    gradient uniform 0;
  }
  heatsource2
  {
    type fixedGradient;
    gradient uniform 0;
  }
  Table_master
  {
    type zeroGradient;
  }
  Table_slave
  {
    type zeroGradient;
  }
  inlet
  {
    type fixedValue;
    value uniform 293.15;
  }
  outlet
  {
    type zeroGradient;
  }
} 	// ************************************************************************* //

