/*--------------------------------*- C++ -*----------------------------------*\
  =========                 |
  \\      /  F ield         | OpenFOAM: The Open Source CFD Toolbox
   \\    /   O peration     | Website:  https://openfoam.org
    \\  /    A nd           | Version:  6
     \\/     M anipulation  |
\*---------------------------------------------------------------------------*/
FoamFile
{
    version     2.0;
    format      ascii;
    class       surfaceScalarField;
    location    "200";
    object      phi;
}
// * * * * * * * * * * * * * * * * * * * * * * * * * * * * * * * * * * * * * //

dimensions      [1 0 -1 0 0 0 0];

internalField   nonuniform List<scalar> 
852
(
-0.00240681
0.00246956
-0.0025592
0.000152542
-0.00280199
0.00024294
-0.00310325
0.000301402
-0.00339329
0.000290191
-0.00363773
0.000244579
-0.00381327
0.000175684
-0.00389932
8.61955e-05
-0.00387574
-2.34326e-05
-0.00372122
-0.000154385
-0.00341772
-0.000303363
-0.00295338
-0.000464196
-0.00230122
-0.000652031
-0.00136132
-0.000939763
-0.00135924
-0.000763599
0.00076908
-0.000771089
7.56927e-06
-0.000605753
-0.000165255
-0.000538774
-6.68875e-05
-0.000537593
-1.07931e-06
-0.000467464
-7.00241e-05
-0.000234011
-0.000233351
1.90869e-05
-0.000252992
0.000193785
-0.000174591
0.00031802
-0.000124128
0.000413417
-9.52896e-05
0.000484922
-7.1398e-05
0.000524117
-3.90872e-05
0.000529048
-4.82499e-06
0.000551494
-2.23401e-05
0.000637067
-8.54587e-05
0.00078606
-0.000148863
0.000790743
-4.55391e-06
0.000795972
-0.00174566
0.00437691
-0.00227291
0.000679949
-0.00267964
0.000649823
-0.0030239
0.000645804
-0.00332951
0.000595951
-0.00358431
0.000499531
-0.00377218
0.000363699
-0.00387624
0.000190397
-0.00387993
-1.96003e-05
-0.00377009
-0.000264087
-0.00353502
-0.000538292
-0.00316485
-0.00083423
-0.0026585
-0.00115824
-0.00208161
-0.00151652
-0.00161215
-0.00182857
0.000155771
-0.00176784
0.000155861
0.000825095
-4.23154e-05
0.000564422
0.000268309
0.000123967
0.000275271
-8.70616e-05
0.000144222
-0.000133345
4.52841e-05
-0.000299242
9.59534e-05
-0.000216267
-0.000316231
-0.000194343
-0.000274817
-0.00019672
-0.000172111
-0.000207795
-0.000112946
-0.000230354
-7.2621e-05
-0.000267322
-3.43178e-05
-0.000320934
1.46435e-05
-0.000383958
5.83273e-05
-0.000417383
1.12222e-05
-0.000277719
-0.000224978
1.30275e-05
-0.000439456
0.000127797
-0.000119177
0.000937112
-0.00129709
0.00591335
-0.00197951
0.00136252
-0.00245047
0.00112093
-0.00280999
0.00100548
-0.00312105
0.000907154
-0.00338337
0.000762005
-0.00358638
0.000566848
-0.00371641
0.000320578
-0.00375984
2.39726e-05
-0.00370816
-0.000315622
-0.00356387
-0.000682437
-0.00333904
-0.00105892
-0.00306135
-0.00143579
-0.00278483
-0.0017929
-0.00255729
-0.00205597
-0.00220568
-0.00211933
-0.00204969
-0.000809221
0.00078036
-0.000911024
0.000370192
-0.00085506
0.00021939
-0.000760332
4.95803e-05
-0.000591777
-0.00012318
-0.000115212
-0.000380511
-0.000431196
-0.00070576
-0.000877611
-0.00099029
-0.00106263
-0.00109667
-0.00108173
-0.0010231
-0.00101156
-0.000900922
-0.00033545
-0.0012947
-4.55099e-05
-0.00138841
-2.53011e-05
-0.000434715
-0.000976774
0.00719282
-0.00171247
0.00209837
-0.00215744
0.00156604
-0.00249741
0.0013456
-0.00278793
0.00119782
-0.00303364
0.00100786
-0.00322986
0.000763213
-0.00336632
0.000457192
-0.00343087
8.86715e-05
-0.00341751
-0.00032884
-0.00334525
-0.000754548
-0.00325201
-0.00115201
-0.003185
-0.00150265
-0.00319355
-0.00178422
-0.00329686
-0.00195252
-0.0034791
-0.00193696
-0.00402782
-0.00150085
-0.00328897
-0.00072788
-0.00242692
-8.15848e-05
-0.00215802
0.000101398
-0.00198387
4.53582e-05
-0.00186458
-6.95887e-05
-0.00177542
-0.000212206
-0.00184442
-0.000311386
-0.00157362
-0.00027082
-0.00130376
-0.000269881
-0.00102671
-0.000277065
-0.000751123
-0.00027561
-0.000488603
-0.000262542
-0.000247379
-0.000241245
-2.64807e-05
-0.000220919
0.000179401
-0.000205901
0.000389248
-0.000209863
0.000365437
-0.000311495
0.00057846
-0.000258381
0.000661686
-0.000108369
0.000240939
-0.000731627
0.00828105
-0.00148101
0.0028479
-0.00182301
0.0019082
-0.00210863
0.00163137
-0.00234533
0.00143468
-0.00253591
0.00119859
-0.0026827
0.000910151
-0.00277998
0.000554621
-0.00281574
0.000124585
-0.00278354
-0.00036089
-0.00271753
-0.000820413
-0.00266847
-0.00120092
-0.00267664
-0.00149433
-0.00276265
-0.00169807
-0.00292368
-0.00179134
-0.00314593
-0.00171456
-0.00327661
-0.00137003
-0.00313046
-0.000873906
-0.00275661
-0.000455298
-0.00240725
-0.000247834
-0.00215256
-0.00020921
-0.00196936
-0.000252659
-0.00184842
-0.000333014
-0.00176356
-0.000396112
-0.00161403
-0.000420221
-0.00144308
-0.000440702
-0.00126619
-0.000453822
-0.00109141
-0.000450258
-0.000927564
-0.000426263
-0.000780022
-0.000388658
-0.000646991
-0.000353821
-0.000510247
-0.000342515
-0.000335101
-0.000384876
-0.000132823
-0.00051364
0.000280341
-0.000671408
0.000978423
-0.000806312
0.00209122
-0.000871714
0.00272851
-0.000637353
0.00220269
0.000525752
0.00224384
-0.000670511
0.00935556
-0.00138552
0.00356306
-0.00146283
0.00198566
-0.00164292
0.00181162
-0.00180474
0.00159664
-0.00190543
0.00129943
-0.00195784
0.000962717
-0.00196772
0.000564647
-0.00192183
7.88481e-05
-0.00182299
-0.000459574
-0.00173044
-0.000912812
-0.00169173
-0.00123948
-0.00173142
-0.00145449
-0.00185254
-0.0015768
-0.00203882
-0.00160491
-0.00224565
-0.00150758
-0.00235779
-0.00125775
-0.00231221
-0.000919344
-0.00214136
-0.000626017
-0.00194293
-0.000446123
-0.00177817
-0.000373835
-0.00165834
-0.000372354
-0.00158238
-0.000408841
-0.00152832
-0.000450041
-0.00146795
-0.000480461
-0.00140443
-0.00050409
-0.00134491
-0.000513218
-0.00129708
-0.00049796
-0.00126853
-0.000454685
-0.00126347
-0.000393591
-0.00127927
-0.000337898
-0.00130287
-0.000318783
-0.00131299
-0.000374635
-0.00128701
-0.00053949
-0.00113973
-0.000818559
-0.000723969
-0.00122195
0.000115204
-0.00171076
0.00127384
-0.00179587
0.00167173
0.000128
0.00396364
-0.000934751
0.0107372
-0.00120857
0.00383703
-0.000826578
0.00160381
-0.000910871
0.00189606
-0.00105136
0.00173728
-0.00106039
0.00130861
-0.000978033
0.000880508
-0.000841477
0.00042824
-0.000666652
-9.58276e-05
-0.000499853
-0.000626223
-0.000405295
-0.00100722
-0.000399576
-0.00124505
-0.000482519
-0.0013714
-0.000643624
-0.00141554
-0.000857886
-0.0013905
-0.00107606
-0.00128926
-0.0012284
-0.00110526
-0.00127757
-0.000870022
-0.00124497
-0.000658475
-0.00117922
-0.000511736
-0.00111919
-0.000433727
-0.00108236
-0.000409042
-0.00107327
-0.000417792
-0.00108434
-0.00043884
-0.00110676
-0.000457906
-0.00114298
-0.000467736
-0.00120021
-0.000455859
-0.00128947
-0.000408569
-0.00142393
-0.000320103
-0.00161349
-0.000203905
-0.00185688
-9.43853e-05
-0.00214008
-3.5464e-05
-0.00244484
-6.97509e-05
-0.00274872
-0.000235485
-0.00300919
-0.000557971
-0.00316186
-0.00106915
-0.00309466
-0.00177784
-0.00251382
-0.00237658
-0.000752861
-0.00163284
0.00326834
0.00160906
0.00962657
0.00198606
0.00346018
0.00153259
0.00205742
0.00104132
0.00238749
0.000677385
0.00210137
0.000586427
0.00139972
0.000698988
0.000768098
0.000932367
0.000195011
0.00117357
-0.000336877
0.0012769
-0.000729411
0.00125939
-0.000989553
0.00115307
-0.00113858
0.000981803
-0.00119998
0.000760075
-0.00119366
0.000503984
-0.00113425
0.000245164
-0.00103029
2.85161e-05
-0.00088846
-0.000114491
-0.000726864
-0.000192039
-0.000580778
-0.000233491
-0.000470137
-0.000265289
-0.000401786
-0.000303754
-0.000370434
-0.000356539
-0.000364867
-0.000423908
-0.000371331
-0.000504396
-0.000377279
-0.000600831
-0.000371164
-0.000719331
-0.000337224
-0.000871194
-0.000256573
-0.0010734
-0.000117769
-0.00134941
7.22309e-05
-0.00173676
0.000293081
-0.00226907
0.000496967
-0.00294305
0.00060435
-0.00371517
0.000536757
-0.00451177
0.000238747
-0.00533513
-0.000245681
-0.00637879
-0.000734048
-0.00752696
-0.00122828
-0.00687991
-0.00227977
-0.00335155
0.010175
0.0136281
0.0102131
0.00547259
0.00792368
0.00467705
0.00639482
0.00363038
0.00543192
0.00236277
0.00483939
0.00136077
0.00440189
0.000632659
0.003982
8.31608e-05
0.00358024
-0.000327495
0.0032036
-0.000612766
0.00284978
-0.000784603
0.00251344
-0.000863484
0.00218973
-0.000869802
0.00187719
-0.000821562
0.00158229
-0.000735234
0.00132101
-0.000627028
0.00110905
-0.000514753
0.000945102
-0.000416677
0.000817745
-0.000342631
0.000711343
-0.000295235
0.000612316
-0.000271261
0.000511518
-0.000263924
0.000404989
-0.000264658
0.000292462
-0.000264608
0.000175699
-0.000254259
5.95754e-05
-0.000220959
-4.82477e-05
-0.00014861
-0.000139708
-2.61728e-05
-0.000217704
0.000150359
-0.00029371
0.000369215
-0.000373219
0.000576601
-0.000461231
0.000692484
-0.000577575
0.000653223
-0.000790393
0.000451685
-0.00114943
0.000113473
-0.00164498
-0.000238375
-0.00223059
-0.000642554
-0.00228611
-0.00222412
-0.00535446
0.00258107
0.00388631
0.00342326
0.00383501
0.00448672
0.00256706
0.00495244
0.0018972
0.00506432
0.00124904
0.00502602
0.000671101
0.00488046
0.000228869
0.00464568
-9.25669e-05
0.00434495
-0.000311884
0.00400844
-0.000447949
0.00366061
-0.000515504
0.00331867
-0.000527711
0.00299481
-0.000497551
0.00269789
-0.000438159
0.00243454
-0.000363522
0.00220815
-0.000288218
0.00201634
-0.000224711
0.00185305
-0.000179195
0.00170969
-0.000151722
0.00157713
-0.000138551
0.0014478
-0.000134451
0.00131736
-0.000134066
0.00118535
-0.000132456
0.0010558
-0.000124564
0.000938626
-0.000103635
0.000848948
-5.87883e-05
0.000801497
2.14211e-05
0.000812729
0.000139267
0.000890466
0.000291614
0.00102671
0.000440488
0.00119252
0.000526803
0.0013484
0.000497468
0.00146911
0.000331099
0.00155144
3.12679e-05
0.00167338
-0.000360187
0.00192846
-0.00089751
0.00171711
-0.00201265
-0.00357245
-0.000198819
0.00408049
0.0020423
0.00159403
0.00328539
0.00132411
0.00410686
0.00107586
0.00462458
0.000731465
0.00488525
0.000410579
0.00495333
0.000160941
0.00487586
-1.49574e-05
0.00468935
-0.00012522
0.00443534
-0.000193798
0.00414739
-0.000227401
0.00385262
-0.000232797
0.0035718
-0.000216579
0.00331905
-0.000185261
0.00310132
-0.000145638
0.00291794
-0.000104689
0.00276186
-6.8483e-05
0.00262346
-4.06489e-05
0.00249393
-2.20396e-05
0.00236707
-1.15367e-05
0.00223979
-7.03164e-06
0.00211199
-6.11473e-06
0.00198613
-6.45071e-06
0.00186755
-5.84203e-06
0.00176589
-1.82513e-06
0.00169697
1.02785e-05
0.00168075
3.77814e-05
0.00173199
8.81765e-05
0.00186809
0.000155652
0.00208329
0.000225425
0.00234247
0.000267756
0.00258984
0.000250234
0.00276761
0.000153463
0.00282478
-2.5772e-05
0.0027281
-0.000263374
0.00240627
-0.000575544
0.00144651
-0.00105276
-0.00204703
-0.00359804
-0.00472998
-0.000655203
0.000931553
0.00224733
0.0033142
0.00403611
0.00443661
0.00458694
0.00456085
0.00442401
0.00421815
0.00397824
0.00373254
0.00350268
0.0033038
0.00314428
0.00302552
0.00294288
0.00288812
0.00285212
0.00282691
0.0028066
0.00278772
0.0027691
0.00275174
0.00273912
0.00273939
0.00276806
0.00284811
0.0029967
0.00321609
0.00347869
0.00372446
0.00387393
0.00384445
0.0035776
0.00299878
0.00194307
)
;

boundaryField
{
    floor
    {
        type            calculated;
        value           nonuniform List<scalar> 
29
(
0
0
0
0
0
0
0
0
0
0
0
0
0
0
0
0
0
0
0
0
-5.10943e-06
-1.32279e-05
-1.64164e-05
-1.38132e-05
-1.94132e-06
-5.40163e-06
-1.36325e-05
-1.33698e-05
-1.08557e-05
)
;
    }
    ceiling
    {
        type            calculated;
        value           nonuniform List<scalar> 
43
(
8.08843e-06
6.50522e-06
5.83821e-06
7.40988e-06
8.47462e-06
9.13079e-06
9.69071e-06
1.0226e-05
1.07558e-05
1.12789e-05
1.17593e-05
1.22133e-05
1.26456e-05
1.30541e-05
1.34308e-05
1.37622e-05
1.40306e-05
1.4216e-05
1.42992e-05
1.42652e-05
1.41052e-05
1.38191e-05
1.34153e-05
1.29089e-05
1.23177e-05
1.16573e-05
1.09379e-05
1.01454e-05
9.25752e-06
8.2607e-06
7.2014e-06
6.17531e-06
5.28818e-06
4.60309e-06
4.13177e-06
3.84772e-06
3.60853e-06
3.4073e-06
3.08012e-06
3.71502e-06
1.01482e-05
7.14014e-06
4.75258e-06
)
;
    }
    sWall
    {
        type            calculated;
        value           uniform -0.000188443;
    }
    nWall
    {
        type            calculated;
        value           nonuniform List<scalar> 6(-4.1211e-05 -4.79505e-05 -5.74279e-05 -6.4768e-05 -7.8787e-05 -0.000107543);
    }
    sideWalls
    {
        type            empty;
        value           nonuniform 0();
    }
    glass1
    {
        type            calculated;
        value           nonuniform List<scalar> 9(-6.2601e-05 -0.000161549 -0.000239214 -0.000302554 -0.000356466 -0.000403858 -0.000446716 -0.000498335 -0.000558411);
    }
    glass2
    {
        type            calculated;
        value           nonuniform List<scalar> 2(-0.000259894 -0.000283081);
    }
    sun
    {
        type            calculated;
        value           uniform 0;
    }
    heatsource1
    {
        type            calculated;
        value           nonuniform List<scalar> 3(2.0344e-07 2.03526e-07 2.03813e-07);
    }
    heatsource2
    {
        type            calculated;
        value           nonuniform List<scalar> 4(5.10709e-08 5.13186e-08 0 0);
    }
    Table_master
    {
        type            calculated;
        value           nonuniform List<scalar> 9(-1.54641e-07 -1.54577e-07 -1.54469e-07 -1.5438e-07 -1.54301e-07 -1.54231e-07 -1.54166e-07 -1.54096e-07 -1.54003e-07);
    }
    Table_slave
    {
        type            calculated;
        value           nonuniform List<scalar> 9(1.53128e-07 1.53225e-07 1.53315e-07 1.53406e-07 1.53495e-07 1.53578e-07 1.5365e-07 1.53652e-07 1.53567e-07);
    }
    inlet
    {
        type            calculated;
        value           uniform -0.000994676;
    }
    outlet
    {
        type            calculated;
        value           nonuniform List<scalar> 2(0.00377852 0.00112555);
    }
}


// ************************************************************************* //
