/*--------------------------------*- C++ -*----------------------------------*\
  =========                 |
  \\      /  F ield         | OpenFOAM: The Open Source CFD Toolbox
   \\    /   O peration     | Website:  https://openfoam.org
    \\  /    A nd           | Version:  6
     \\/     M anipulation  |
\*---------------------------------------------------------------------------*/
FoamFile
{
    version     2.0;
    format      ascii;
    class       volScalarField;
    location    "900";
    object      alphat;
}
// * * * * * * * * * * * * * * * * * * * * * * * * * * * * * * * * * * * * * //

dimensions      [1 -1 -1 0 0 0 0];

internalField   nonuniform List<scalar> 
459
(
0.00125286
0.0013701
0.0013957
0.00146285
0.00152501
0.0015832
0.00164026
0.00169603
0.0017354
0.00175202
0.00174001
0.00169576
0.00161907
0.00151646
0.00140391
0.000550858
0.00067407
0.000757885
0.000752468
0.000726099
0.000691728
0.000648948
0.000606673
0.000568328
0.000534283
0.000504131
0.000477336
0.000453499
0.000432093
0.000412351
0.000393281
0.000373418
0.000359077
0.000326873
0.00170629
0.00417901
0.00400486
0.00466359
0.00531007
0.00595609
0.00652546
0.00695298
0.00733855
0.00765093
0.00784632
0.00787494
0.00766059
0.00701231
0.00524002
0.0014316
0.000844911
0.000596102
0.00125018
0.00172446
0.00206223
0.00223988
0.00223062
0.00179575
0.00155035
0.00137455
0.00123943
0.00113184
0.00104419
0.000968552
0.000897884
0.000829207
0.000768092
0.000714853
0.000835143
0.000426615
0.00208278
0.00570667
0.00497287
0.00624543
0.00688003
0.0073492
0.00771178
0.00799882
0.00830917
0.00863264
0.00893079
0.00914867
0.00922508
0.00907078
0.00844796
0.00651663
0.00142309
0.00119022
0.00170719
0.00218364
0.00260548
0.00288873
0.00280596
0.000929243
0.000820528
0.000733223
0.000662792
0.000605422
0.000558191
0.000519002
0.000486516
0.000460177
0.000496074
0.000573926
0.000938054
0.000492968
0.00244351
0.00728955
0.00498699
0.00661619
0.00717951
0.00736958
0.0074892
0.00763232
0.00787688
0.00820736
0.00858317
0.00893569
0.009201
0.0093086
0.009175
0.00851071
0.00623901
0.00170407
0.00211206
0.00272354
0.00330948
0.00376857
0.00404433
0.0037822
0.00104822
0.000954049
0.000886493
0.00083494
0.000791179
0.000751205
0.000712874
0.00067275
0.000626335
0.000587734
0.000601186
0.00106925
0.000544369
0.00281098
0.00932086
0.00547982
0.00636856
0.00711857
0.00717204
0.00710567
0.00717653
0.00739148
0.0077276
0.0081497
0.00856364
0.0088813
0.00903165
0.00898932
0.00870617
0.00798894
0.00660788
0.00613375
0.00597601
0.00592067
0.0058849
0.00581895
0.00559095
0.00471515
0.00429408
0.00404859
0.00385891
0.00365986
0.00337438
0.00299075
0.00252553
0.00200854
0.001487
0.00109604
0.00109878
0.000729775
0.00067068
0.000812366
0.000911741
0.00320031
0.0115318
0.00753645
0.00633362
0.00689942
0.00715482
0.00699069
0.00705062
0.00721323
0.00751463
0.00794077
0.00839447
0.00874447
0.00888902
0.00880398
0.0085436
0.00819828
0.0078416
0.007643
0.00749814
0.00733474
0.00714733
0.00693471
0.00666527
0.00626621
0.00590809
0.00559026
0.00528649
0.00497883
0.00464596
0.00422966
0.00371348
0.00309681
0.00241413
0.00181013
0.0013542
0.00101911
0.000865065
0.00123309
0.000951236
0.00355403
0.0130746
0.0105485
0.00815503
0.00772087
0.0076255
0.00736636
0.00720251
0.00725394
0.00754893
0.00802207
0.00852862
0.00889765
0.00900948
0.0088512
0.00853506
0.0082614
0.0081676
0.00818276
0.00811603
0.00791014
0.0076018
0.00722669
0.00680613
0.00636237
0.00595084
0.00557476
0.00522575
0.00490414
0.00461726
0.00436482
0.00402047
0.00353918
0.00295238
0.00238806
0.00188256
0.00151078
0.00139499
0.0014215
0.00108298
0.00362013
0.0116163
0.010329
0.00954544
0.00884441
0.00803531
0.00740559
0.0071581
0.00731652
0.00779382
0.00842637
0.00900508
0.00933449
0.00932142
0.00901137
0.00859782
0.00834728
0.00834809
0.00836746
0.00812407
0.00768329
0.00713226
0.00654504
0.00598537
0.0054955
0.0050847
0.00473754
0.00444528
0.00421116
0.00404389
0.00395172
0.00390496
0.00366147
0.00328432
0.00295226
0.00278121
0.00288461
0.00332005
0.00407906
0.00169109
0.00352031
0.00417763
0.00464028
0.00475642
0.00485744
0.00513238
0.00568259
0.00651733
0.00753923
0.00857111
0.00942251
0.00991358
0.00992697
0.00952079
0.00891042
0.00848381
0.00825309
0.00805971
0.00772579
0.00718074
0.00650439
0.00580407
0.00516954
0.00464571
0.00423211
0.00390356
0.0036345
0.00340947
0.00321862
0.00305212
0.00289962
0.00275984
0.00264927
0.00256773
0.00253662
0.00254765
0.00253378
0.00243341
0.00227525
0.00159067
0.00175783
0.00360301
0.00585017
0.00771515
0.00916617
0.01027
0.010963
0.0112325
0.0111198
0.0106125
0.00982288
0.00885034
0.00802741
0.00751798
0.00710991
0.00660674
0.00598596
0.00531904
0.00468485
0.0041378
0.00370564
0.00337268
0.00311313
0.002907
0.00274293
0.00261536
0.00252164
0.00246054
0.00243406
0.0024392
0.00246005
0.00249208
0.00252639
0.00253529
0.00247398
0.00232785
0.00210792
0.00132359
0.0023503
0.00603732
0.00898203
0.0101034
0.0106622
0.0108316
0.0105836
0.00999009
0.00917186
0.00824655
0.00737297
0.00660015
0.00597981
0.00545189
0.00491824
0.00439133
0.00392351
0.00354271
0.00324767
0.00302117
0.00283683
0.00268073
0.00254695
0.00243891
0.0023595
0.00230807
0.00228302
0.0022825
0.00231207
0.00236849
0.00244772
0.00254118
0.00263013
0.0026915
0.00267112
0.00270122
0.00274466
0.00134977
0.00208506
0.00220996
0.00229799
0.00246033
0.00237431
0.00227563
0.00221165
0.0021216
0.00199279
0.00183297
0.00165327
0.00146654
0.00128534
0.00112999
0.00101273
0.000929449
0.000870361
0.000827639
0.000796522
0.00077429
0.000759245
0.00075034
0.000746916
0.000749199
0.0007577
0.000772083
0.000792152
0.000818313
0.00085123
0.000891768
0.00093889
0.000992677
0.00105372
0.00112253
0.00119858
0.00128874
0.0013184
0.00128478
0.00120714
0.00112488
)
;

boundaryField
{
    floor
    {
        type            compressible::alphatWallFunction;
        Prt             0.85;
        value           nonuniform List<scalar> 
29
(
0.000198031
7.69918e-05
9.53948e-05
0.000107676
0.000106888
0.000103039
9.79971e-05
9.16788e-05
8.53849e-05
7.96294e-05
7.4479e-05
6.98834e-05
6.57703e-05
6.2087e-05
5.87582e-05
5.56696e-05
5.2668e-05
4.95214e-05
4.72364e-05
4.20609e-05
4.20603e-05
5.79032e-05
6.81736e-05
7.60096e-05
0.000198029
7.69908e-05
8.38024e-05
0.000168818
0.000238243
)
;
    }
    ceiling
    {
        type            compressible::alphatWallFunction;
        Prt             0.85;
        value           nonuniform List<scalar> 
43
(
0.00028808
0.000304223
0.000315544
0.000336424
0.000325494
0.000312869
0.000304651
0.00029303
0.000276307
0.000255388
0.000231625
0.000206625
0.000182021
0.000160611
0.000144227
0.000132456
0.000124031
0.000117896
0.000113405
0.000110183
0.000107997
0.0001067
0.000106201
0.000106534
0.000107772
0.000109863
0.000112774
0.000116554
0.00012129
0.000127093
0.000133799
0.000141406
0.000149981
0.000159579
0.000170108
0.000182493
0.000186545
0.000181951
0.000171289
0.00015991
0.000469073
0.000549022
0.00032208
)
;
    }
    sWall
    {
        type            compressible::alphatWallFunction;
        Prt             0.85;
        value           uniform 0.000286871;
    }
    nWall
    {
        type            compressible::alphatWallFunction;
        Prt             0.85;
        value           nonuniform List<scalar> 6(0.000129621 0.000135224 0.000153736 0.000186928 0.000190493 0.000159588);
    }
    sideWalls
    {
        type            empty;
    }
    glass1
    {
        type            compressible::alphatWallFunction;
        Prt             0.85;
        value           nonuniform List<scalar> 9(0.00017316 0.000233451 0.000282289 0.000328279 0.000374453 0.000422736 0.00046612 0.000474309 0.000462363);
    }
    glass2
    {
        type            compressible::alphatWallFunction;
        Prt             0.85;
        value           nonuniform List<scalar> 2(0.000234974 0.000221721);
    }
    sun
    {
        type            compressible::alphatWallFunction;
        Prt             0.85;
        value           nonuniform List<scalar> 
14
(
0.00017746
0.00019345
0.000196924
0.000206001
0.000214364
0.000222158
0.00022977
0.000237181
0.000242396
0.000244594
0.000243005
0.000237142
0.000226943
0.000213212
)
;
    }
    heatsource1
    {
        type            compressible::alphatWallFunction;
        Prt             0.85;
        value           nonuniform List<scalar> 3(9.49976e-05 0.000115678 0.000129923);
    }
    heatsource2
    {
        type            compressible::alphatWallFunction;
        Prt             0.85;
        value           nonuniform List<scalar> 4(0.000201898 0.000120365 0.000120364 0.000200745);
    }
    Table_master
    {
        type            compressible::alphatWallFunction;
        Prt             0.85;
        value           nonuniform List<scalar> 9(0.000132409 0.000116853 0.000104183 9.38294e-05 8.52965e-05 7.81968e-05 7.22491e-05 6.72762e-05 6.32133e-05);
    }
    Table_slave
    {
        type            compressible::alphatWallFunction;
        Prt             0.85;
        value           nonuniform List<scalar> 9(0.000149193 0.00013593 0.000126322 0.000118931 0.000112615 0.000106809 0.000101207 9.53033e-05 8.84201e-05);
    }
    inlet
    {
        type            fixedValue;
        value           uniform 1.94e-05;
    }
    outlet
    {
        type            zeroGradient;
    }
}


// ************************************************************************* //
