/*--------------------------------*- C++ -*----------------------------------*\
  =========                 |
  \\      /  F ield         | OpenFOAM: The Open Source CFD Toolbox
   \\    /   O peration     | Website:  https://openfoam.org
    \\  /    A nd           | Version:  6
     \\/     M anipulation  |
\*---------------------------------------------------------------------------*/
FoamFile
{
    version     2.0;
    format      ascii;
    class       volVectorField;
    location    "710";
    object      U;
}
// * * * * * * * * * * * * * * * * * * * * * * * * * * * * * * * * * * * * * //

dimensions      [0 1 -1 0 0 0 0];

internalField   nonuniform List<vector> 
459
(
(0.0358228 0.0724 0)
(-0.140761 0.0202392 0)
(-0.159186 0.015342 0)
(-0.185894 0.0114284 0)
(-0.2067 0.00687831 0)
(-0.220834 0.0019753 0)
(-0.227162 -0.00335553 0)
(-0.224191 -0.00918521 0)
(-0.21141 -0.0155038 0)
(-0.189142 -0.0215903 0)
(-0.159078 -0.0265894 0)
(-0.124018 -0.0298841 0)
(-0.0869295 -0.0311539 0)
(-0.0492159 -0.0306186 0)
(-0.00926345 -0.0303726 0)
(-0.10708 0.00410011 0)
(0.0381903 -0.0121274 0)
(0.0361396 -0.0134365 0)
(0.0457243 -0.0112642 0)
(0.058446 -0.00851215 0)
(0.0682141 -0.00588317 0)
(0.0737146 -0.00339256 0)
(0.0758824 -0.00202539 0)
(0.076275 -0.00151898 0)
(0.0760678 -0.00132344 0)
(0.0756625 -0.0011675 0)
(0.0750158 -0.000958066 0)
(0.0739233 -0.000582848 0)
(0.0719592 0.000212662 0)
(0.0681814 0.0020255 0)
(0.0607347 0.00588582 0)
(0.0497464 0.0116378 0)
(-0.0126659 0.0228009 0)
(0.117731 -0.00964049 0)
(0.190134 0.148947 0)
(-0.135676 0.0538486 0)
(-0.130584 0.0445986 0)
(-0.158626 0.0365877 0)
(-0.179221 0.0272314 0)
(-0.193403 0.0166726 0)
(-0.200196 0.00454711 0)
(-0.198012 -0.00933557 0)
(-0.186451 -0.0240493 0)
(-0.166304 -0.0374381 0)
(-0.139678 -0.0474124 0)
(-0.109649 -0.0526778 0)
(-0.0796665 -0.0526731 0)
(-0.0533963 -0.0474022 0)
(-0.0342532 -0.0369466 0)
(-0.0209732 -0.017623 0)
(-0.00888469 0.00607825 0)
(-0.134948 -0.000201254 0)
(0.0440268 -0.034541 0)
(0.0442723 -0.0286181 0)
(0.0531565 -0.0216202 0)
(0.0632245 -0.0153891 0)
(0.0706119 -0.00963973 0)
(0.0741458 -0.00327818 0)
(0.0747618 0.000309419 0)
(0.0746406 0.00174026 0)
(0.074743 0.00233939 0)
(0.0749711 0.00272173 0)
(0.0751222 0.00312995 0)
(0.0751304 0.00382723 0)
(0.0749208 0.00533861 0)
(0.0738304 0.0089439 0)
(0.0688619 0.0183213 0)
(0.0605094 0.028469 0)
(0.00432046 0.0404792 0)
(0.164281 0.0233418 0)
(0.331411 0.223726 0)
(-0.154556 0.0872016 0)
(-0.0999855 0.0729482 0)
(-0.128078 0.0578829 0)
(-0.146492 0.0422047 0)
(-0.159746 0.0249725 0)
(-0.166608 0.00526727 0)
(-0.164587 -0.0171371 0)
(-0.153081 -0.0405613 0)
(-0.133741 -0.0610192 0)
(-0.109234 -0.0751555 0)
(-0.0826174 -0.0813472 0)
(-0.0567223 -0.0791906 0)
(-0.0341389 -0.0691358 0)
(-0.0162572 -0.0516759 0)
(-0.00250612 -0.0285836 0)
(0.00351601 -0.000692985 0)
(-0.0179051 -0.0420348 0)
(0.0439468 -0.046657 0)
(0.0567995 -0.0403175 0)
(0.061295 -0.0310572 0)
(0.0664542 -0.0227177 0)
(0.0708973 -0.0165486 0)
(0.0724597 -0.0124446 0)
(0.0693478 -0.00835099 0)
(0.0669984 -0.0062269 0)
(0.0664428 -0.00506288 0)
(0.0667716 -0.00427659 0)
(0.0674476 -0.00361917 0)
(0.068598 -0.00284468 0)
(0.071028 -0.00145039 0)
(0.0766611 0.00308863 0)
(0.0775155 0.0243339 0)
(0.0718162 0.0413012 0)
(0.016513 0.0586851 0)
(0.19203 0.0568968 0)
(0.458194 0.284501 0)
(-0.188005 0.117761 0)
(-0.066792 0.0975699 0)
(-0.0950579 0.0763644 0)
(-0.10884 0.0563484 0)
(-0.1194 0.0341688 0)
(-0.125251 0.00776506 0)
(-0.121966 -0.0235132 0)
(-0.109247 -0.056101 0)
(-0.0906068 -0.0830667 0)
(-0.0689918 -0.100428 0)
(-0.0469611 -0.107044 0)
(-0.026188 -0.103069 0)
(-0.00797542 -0.0898095 0)
(0.00885851 -0.0677089 0)
(0.0246653 -0.0432699 0)
(0.045247 -0.0263604 0)
(0.075624 -0.0788893 0)
(0.0850108 -0.0593901 0)
(0.0781643 -0.0497336 0)
(0.0697233 -0.0417537 0)
(0.0647867 -0.0326219 0)
(0.0630974 -0.0241477 0)
(0.0627678 -0.0160354 0)
(0.0653254 -0.00982798 0)
(0.072001 -0.00765898 0)
(0.0780673 -0.00652559 0)
(0.0829888 -0.00581813 0)
(0.0872076 -0.00511917 0)
(0.0905131 -0.00412938 0)
(0.0920519 -0.00249191 0)
(0.089836 0.000347681 0)
(0.0813458 0.00495812 0)
(0.0739947 0.0286844 0)
(0.0760417 0.0499453 0)
(0.0305457 0.0729523 0)
(0.208883 0.108711 0)
(0.567804 0.332293 0)
(-0.226961 0.14376 0)
(-0.0326839 0.11273 0)
(-0.0599892 0.0879286 0)
(-0.0671675 0.0655552 0)
(-0.0728884 0.0402591 0)
(-0.0759222 0.00860043 0)
(-0.0678712 -0.0309777 0)
(-0.0530174 -0.071769 0)
(-0.0366195 -0.102566 0)
(-0.0202003 -0.120695 0)
(-0.0052489 -0.126274 0)
(0.00803843 -0.119938 0)
(0.0190455 -0.104544 0)
(0.0296122 -0.082817 0)
(0.0412244 -0.059291 0)
(0.0554057 -0.0403095 0)
(0.0672794 -0.0353768 0)
(0.069293 -0.0373139 0)
(0.062124 -0.0368699 0)
(0.0550694 -0.0331322 0)
(0.0502695 -0.0275078 0)
(0.0476241 -0.0216363 0)
(0.0469757 -0.0158051 0)
(0.0489712 -0.0100438 0)
(0.0534351 -0.00744538 0)
(0.0581521 -0.00665997 0)
(0.0626847 -0.00624872 0)
(0.0670561 -0.00540546 0)
(0.0710216 -0.00353059 0)
(0.0741363 0.000128829 0)
(0.0757599 0.00610354 0)
(0.0750532 0.0151052 0)
(0.0744504 0.0314039 0)
(0.0828184 0.0497981 0)
(0.0685191 0.0674286 0)
(0.151715 0.106838 0)
(0.14174 0.0863189 0)
(0.11853 0.0639144 0)
(-0.128717 0.0653213 0)
(0.647641 0.372878 0)
(-0.264338 0.162474 0)
(-0.00544272 0.112137 0)
(-0.0235075 0.0917778 0)
(-0.0230824 0.0699761 0)
(-0.0227629 0.0435861 0)
(-0.0209349 0.00833743 0)
(-0.000637754 -0.0421921 0)
(0.0147667 -0.0880431 0)
(0.0256847 -0.117526 0)
(0.0339066 -0.133011 0)
(0.0392088 -0.135867 0)
(0.0421834 -0.127845 0)
(0.0438492 -0.111461 0)
(0.0453704 -0.0898877 0)
(0.0477857 -0.0675068 0)
(0.0512748 -0.0492883 0)
(0.0527526 -0.0401192 0)
(0.0492419 -0.0370168 0)
(0.0422592 -0.0332972 0)
(0.0354244 -0.0286985 0)
(0.0302677 -0.024061 0)
(0.0271646 -0.0198478 0)
(0.0263127 -0.0160263 0)
(0.0278221 -0.0129046 0)
(0.0311795 -0.0117372 0)
(0.035241 -0.0115799 0)
(0.0395332 -0.0113702 0)
(0.0439096 -0.0104611 0)
(0.0482768 -0.00829772 0)
(0.0525716 -0.00409045 0)
(0.0572673 0.00310446 0)
(0.061039 0.0132948 0)
(0.065204 0.0268918 0)
(0.0742882 0.0412312 0)
(0.0740901 0.0491811 0)
(0.101506 0.0686542 0)
(0.0990546 0.0567749 0)
(0.110883 0.0556858 0)
(-0.135292 0.0951464 0)
(0.688232 0.409291 0)
(-0.284523 0.152177 0)
(0.0155781 0.0749431 0)
(0.0230396 0.0808207 0)
(0.0295112 0.0680597 0)
(0.0363048 0.0380112 0)
(0.0566619 -0.0085507 0)
(0.0774754 -0.059559 0)
(0.0884924 -0.0987918 0)
(0.0914593 -0.123549 0)
(0.0889697 -0.134895 0)
(0.0825142 -0.1346 0)
(0.0735936 -0.124674 0)
(0.0638246 -0.107615 0)
(0.0545174 -0.0864202 0)
(0.0465922 -0.0649917 0)
(0.0401365 -0.0472633 0)
(0.0338688 -0.036184 0)
(0.0264804 -0.0302187 0)
(0.0186038 -0.0260336 0)
(0.0116818 -0.0226244 0)
(0.00650482 -0.019934 0)
(0.00332865 -0.017909 0)
(0.00222345 -0.0164126 0)
(0.00308545 -0.0155494 0)
(0.00537058 -0.0155985 0)
(0.00835005 -0.0159629 0)
(0.0116495 -0.0159801 0)
(0.0151415 -0.0151941 0)
(0.0188573 -0.0132097 0)
(0.0230415 -0.00944581 0)
(0.0283704 -0.00285277 0)
(0.0360527 0.00728477 0)
(0.0437095 0.0193258 0)
(0.0533339 0.0312387 0)
(0.0586077 0.0387559 0)
(0.0718673 0.0533376 0)
(0.0767859 0.0611854 0)
(0.119928 0.0802996 0)
(-0.113348 0.152875 0)
(0.78302 0.415982 0)
(-0.0875638 0.126155 0)
(0.0808184 0.00328973 0)
(0.125413 0.00884267 0)
(0.12496 0.0117781 0)
(0.128214 -0.015828 0)
(0.154795 -0.0512718 0)
(0.1693 -0.0816314 0)
(0.168648 -0.10455 0)
(0.157242 -0.118438 0)
(0.139255 -0.123058 0)
(0.117681 -0.119075 0)
(0.0948295 -0.107782 0)
(0.0726921 -0.0911056 0)
(0.0526318 -0.0713988 0)
(0.0355855 -0.052035 0)
(0.0215862 -0.0362214 0)
(0.0103272 -0.0261542 0)
(0.000693081 -0.0207199 0)
(-0.00746242 -0.0178724 0)
(-0.0138163 -0.0163945 0)
(-0.0185368 -0.0157219 0)
(-0.0217082 -0.0156278 0)
(-0.0234654 -0.0159612 0)
(-0.0239939 -0.0166661 0)
(-0.0236344 -0.0176698 0)
(-0.0227475 -0.0186264 0)
(-0.0215422 -0.0191297 0)
(-0.0201439 -0.018854 0)
(-0.0186274 -0.0176047 0)
(-0.0168567 -0.0153066 0)
(-0.0141328 -0.0116665 0)
(-0.00800185 -0.00559815 0)
(0.00332292 0.00362029 0)
(0.0135791 0.0121614 0)
(0.0208586 0.0169261 0)
(0.0317061 0.0244999 0)
(0.0406729 0.0295015 0)
(0.11933 0.0840074 0)
(-0.372365 0.220328 0)
(0.911111 0.4108 0)
(0.436191 0.285178 0)
(0.434085 0.195994 0)
(0.426231 0.138159 0)
(0.383824 0.0969332 0)
(0.349985 0.0527434 0)
(0.320738 0.00610292 0)
(0.285737 -0.0349745 0)
(0.247342 -0.0647567 0)
(0.207344 -0.0821677 0)
(0.167532 -0.0885465 0)
(0.129224 -0.0859851 0)
(0.0933838 -0.0765761 0)
(0.0612611 -0.0625743 0)
(0.033678 -0.0460943 0)
(0.0117081 -0.0304032 0)
(-0.00541612 -0.0181669 0)
(-0.0171281 -0.0118025 0)
(-0.0258085 -0.00905688 0)
(-0.0325631 -0.00812274 0)
(-0.0379829 -0.00812119 0)
(-0.0424381 -0.00864499 0)
(-0.0461548 -0.00952398 0)
(-0.0493107 -0.0106581 0)
(-0.0520472 -0.0119774 0)
(-0.0544981 -0.0133712 0)
(-0.0567481 -0.0146107 0)
(-0.0588375 -0.0154337 0)
(-0.0609277 -0.0156259 0)
(-0.063541 -0.0150326 0)
(-0.0675959 -0.0134168 0)
(-0.0739729 -0.00983805 0)
(-0.0832348 -0.002175 0)
(-0.09383 0.0102564 0)
(-0.107512 0.0271206 0)
(-0.130897 0.0499876 0)
(-0.163293 0.0810319 0)
(-0.205834 0.11732 0)
(-0.276512 0.151411 0)
(-0.551856 0.172189 0)
(-0.229807 0.0907832 0)
(0.134253 0.0939287 0)
(0.219313 0.0625135 0)
(0.217496 0.0286714 0)
(0.210241 0.000223194 0)
(0.2008 -0.0235911 0)
(0.181963 -0.0415833 0)
(0.154552 -0.0525902 0)
(0.121902 -0.0567849 0)
(0.0872113 -0.0549202 0)
(0.052906 -0.0478033 0)
(0.021853 -0.0369615 0)
(-0.00486754 -0.0236516 0)
(-0.0232229 -0.0124969 0)
(-0.0350955 -0.00518258 0)
(-0.0429952 -0.00156465 0)
(-0.0488044 -0.00026154 0)
(-0.0535924 -9.08358e-05 0)
(-0.0579746 -0.000476423 0)
(-0.0622734 -0.00107398 0)
(-0.0666973 -0.00165288 0)
(-0.0714187 -0.00204725 0)
(-0.0765747 -0.00209497 0)
(-0.0822441 -0.00155985 0)
(-0.0883808 -6.31879e-05 0)
(-0.0947624 0.0028992 0)
(-0.101047 0.00785501 0)
(-0.107058 0.0150254 0)
(-0.113085 0.0233275 0)
(-0.119659 0.0301238 0)
(-0.125938 0.0355782 0)
(-0.131195 0.0429442 0)
(-0.135474 0.0548268 0)
(-0.138363 0.072962 0)
(-0.137284 0.0965053 0)
(-0.12906 0.111881 0)
(-0.117347 0.0748725 0)
(-0.174575 -0.172702 0)
(-0.176804 0.140622 0)
(0.109 0.0658771 0)
(0.116241 -5.45674e-05 0)
(0.117136 -0.0340265 0)
(0.118018 -0.0592218 0)
(0.112984 -0.0739609 0)
(0.0965222 -0.0771029 0)
(0.0734822 -0.0770155 0)
(0.0471416 -0.0755706 0)
(0.020608 -0.0734602 0)
(-0.00415031 -0.0724578 0)
(-0.0234049 -0.074311 0)
(-0.0378166 -0.0773575 0)
(-0.0478956 -0.0800252 0)
(-0.0546745 -0.0821646 0)
(-0.0594097 -0.0846066 0)
(-0.0632506 -0.0869233 0)
(-0.0668357 -0.0884683 0)
(-0.0704048 -0.0896532 0)
(-0.0741019 -0.0908426 0)
(-0.0780491 -0.0922532 0)
(-0.0823697 -0.0941837 0)
(-0.0872415 -0.0970173 0)
(-0.0929191 -0.101146 0)
(-0.0996739 -0.106793 0)
(-0.10761 -0.11371 0)
(-0.11634 -0.120717 0)
(-0.124797 -0.125185 0)
(-0.131615 -0.1251 0)
(-0.135925 -0.118408 0)
(-0.137295 -0.104205 0)
(-0.134339 -0.0829588 0)
(-0.124486 -0.055191 0)
(-0.104918 -0.0226253 0)
(-0.0746476 0.00961568 0)
(-0.0386493 0.0255449 0)
(0.0796482 -0.0893828 0)
(-0.128848 -0.155568 0)
(0.237986 -0.163666 0)
(-0.245536 -0.0503194 0)
(-0.17017 0.190079 0)
(-0.0251727 0.17398 0)
(-0.0303925 0.196743 0)
(-0.0127935 0.229327 0)
(-0.00462057 0.256267 0)
(-0.00495449 0.26274 0)
(-0.0131751 0.251401 0)
(-0.027683 0.247789 0)
(-0.0422855 0.24933 0)
(-0.0551044 0.254044 0)
(-0.0652288 0.260366 0)
(-0.0721578 0.268039 0)
(-0.0764539 0.276428 0)
(-0.0789154 0.283056 0)
(-0.0805441 0.287551 0)
(-0.0821368 0.291189 0)
(-0.0841261 0.293648 0)
(-0.086647 0.294305 0)
(-0.0897573 0.294065 0)
(-0.0934608 0.293565 0)
(-0.09771 0.293207 0)
(-0.102411 0.293586 0)
(-0.107414 0.295489 0)
(-0.112504 0.299775 0)
(-0.117427 0.307078 0)
(-0.12191 0.317319 0)
(-0.125658 0.329058 0)
(-0.128269 0.338894 0)
(-0.129257 0.344903 0)
(-0.12778 0.345992 0)
(-0.122441 0.342052 0)
(-0.111269 0.334588 0)
(-0.0922916 0.325703 0)
(-0.0654864 0.319004 0)
(-0.0341402 0.319626 0)
(0.0099211 0.329675 0)
(0.128012 0.405701 0)
(-0.290937 0.414608 0)
)
;

boundaryField
{
    floor
    {
        type            noSlip;
    }
    ceiling
    {
        type            noSlip;
    }
    sWall
    {
        type            noSlip;
    }
    nWall
    {
        type            noSlip;
    }
    sideWalls
    {
        type            empty;
    }
    glass1
    {
        type            noSlip;
    }
    glass2
    {
        type            noSlip;
    }
    sun
    {
        type            noSlip;
    }
    heatsource1
    {
        type            noSlip;
    }
    heatsource2
    {
        type            noSlip;
    }
    Table_master
    {
        type            noSlip;
    }
    Table_slave
    {
        type            noSlip;
    }
    inlet
    {
        type            fixedValue;
        value           uniform (0.2 0 0);
    }
    outlet
    {
        type            zeroGradient;
    }
}


// ************************************************************************* //
