/*--------------------------------*- C++ -*----------------------------------*\
  =========                 |
  \\      /  F ield         | OpenFOAM: The Open Source CFD Toolbox
   \\    /   O peration     | Website:  https://openfoam.org
    \\  /    A nd           | Version:  6
     \\/     M anipulation  |
\*---------------------------------------------------------------------------*/
FoamFile
{
    version     2.0;
    format      ascii;
    class       volScalarField;
    location    "400";
    object      epsilon;
}
// * * * * * * * * * * * * * * * * * * * * * * * * * * * * * * * * * * * * * //

dimensions      [0 2 -3 0 0 0 0];

internalField   nonuniform List<scalar> 
459
(
0.000128232
0.000140886
0.000113944
0.000127638
0.000143171
0.000158866
0.000174667
0.000190883
0.000208146
0.000226979
0.000243909
0.000257574
0.000266902
0.000271216
0.00026715
1.32588e-05
1.79588e-05
1.98272e-05
1.05904e-05
4.92939e-06
3.52981e-06
3.21158e-06
4.05378e-06
5.35743e-06
7.31175e-06
9.75947e-06
1.23305e-05
1.415e-05
1.49932e-05
1.67922e-05
2.03812e-05
2.50635e-05
2.83172e-05
1.89318e-05
0.000604394
0.00136794
0.00014074
9.71935e-05
0.000100225
0.000106124
0.000113026
0.000121708
0.000133232
0.000148475
0.000165965
0.000185058
0.000204623
0.000223137
0.000246377
0.000333623
9.437e-05
3.52566e-05
5.89951e-05
4.44247e-05
2.33415e-05
9.58329e-06
5.99595e-06
5.71718e-06
7.50092e-06
1.13437e-05
1.70044e-05
2.35273e-05
3.01375e-05
3.70098e-05
4.4942e-05
5.23975e-05
5.49683e-05
6.18071e-05
0.000103374
3.20997e-05
0.00152876
0.00460656
0.000331835
0.000108165
9.96415e-05
0.000105382
0.000113906
0.000124952
0.000138882
0.000155802
0.000174319
0.00019301
0.000211204
0.00022919
0.000250418
0.000290198
0.000394837
0.000165534
0.00013635
6.47674e-05
4.3802e-05
3.50743e-05
2.955e-05
1.00429e-05
1.25415e-05
1.68447e-05
2.20833e-05
2.85434e-05
3.682e-05
4.82445e-05
6.53029e-05
9.40319e-05
6.90609e-05
7.60875e-05
9.42262e-05
9.22693e-05
0.00302323
0.0102469
0.000800776
0.000139813
0.000106004
0.000112041
0.000123523
0.000138079
0.000155684
0.00017622
0.000197223
0.000215857
0.000232264
0.00024816
0.000265483
0.000289061
0.000335346
0.000433387
0.00015837
8.50717e-05
6.31871e-05
5.81858e-05
6.17297e-05
7.23403e-05
9.71106e-05
9.43162e-05
9.26807e-05
9.2014e-05
9.31544e-05
9.75039e-05
0.000107277
0.000126673
0.000170412
0.000132741
0.000170289
0.000212428
0.000261574
0.00509697
0.0177148
0.00174851
0.000206353
0.000116481
0.000120945
0.00013713
0.00015877
0.00018555
0.000216843
0.000245009
0.000265492
0.000281075
0.000295221
0.000306099
0.000305539
0.000283386
0.000226829
0.000143136
9.95308e-05
7.84782e-05
6.97945e-05
6.70327e-05
6.72098e-05
6.86944e-05
6.99976e-05
7.29749e-05
7.83855e-05
8.73126e-05
0.000101429
0.00012307
0.000155087
0.00019968
0.000251129
0.000328655
0.000427816
0.000480027
0.000696344
0.000488237
0.00032565
0.00775624
0.024536
0.00345744
0.000393208
0.000155109
0.000145393
0.000165481
0.000197546
0.000240918
0.000293777
0.000327417
0.00034182
0.000348585
0.000357729
0.000369721
0.000372598
0.00034782
0.000288842
0.000218019
0.000163114
0.000128244
0.000108685
9.8549e-05
9.38839e-05
9.22075e-05
9.27996e-05
9.63364e-05
0.000103754
0.000116715
0.00013794
0.000171242
0.000221127
0.000291607
0.000384314
0.000499906
0.000631826
0.000724233
0.000710571
0.000415626
0.000368808
0.0109623
0.0275865
0.00687949
0.00139185
0.000467769
0.000303951
0.000293646
0.000327589
0.000395865
0.000463266
0.000474989
0.000457277
0.00043267
0.000416782
0.00041477
0.000416518
0.00040054
0.000355057
0.000292654
0.000234715
0.000191328
0.000162618
0.000145227
0.000135637
0.000131152
0.000130783
0.000134853
0.000144415
0.000161429
0.000188933
0.000230758
0.000291088
0.00037365
0.000479069
0.000600935
0.00071966
0.00079613
0.000790667
0.000681451
0.000351881
0.0118381
0.0353497
0.0158065
0.00773154
0.00341709
0.00162389
0.00106366
0.000901444
0.000879768
0.000808941
0.00071629
0.000624072
0.000544162
0.00048304
0.000444136
0.000424715
0.000410372
0.000382779
0.000338112
0.000290474
0.00025007
0.00021974
0.000199155
0.000186591
0.000180157
0.000179071
0.000183855
0.00019632
0.000220021
0.000260408
0.000321856
0.000405022
0.00050487
0.000613599
0.00072729
0.00085122
0.000995353
0.00117443
0.00134724
0.000813453
0.0108186
0.0185398
0.0165175
0.0116615
0.00764066
0.00488758
0.00322682
0.00227199
0.00166881
0.00126564
0.000987873
0.000790591
0.000647483
0.000543309
0.00046943
0.000420218
0.000388788
0.000365147
0.000341202
0.000315854
0.000291606
0.000270779
0.000254732
0.000243733
0.000237353
0.000235285
0.000237857
0.000246395
0.000264001
0.00029563
0.000344399
0.000416764
0.000516737
0.000650776
0.000829794
0.00102256
0.00116281
0.0015297
0.00303163
0.00122913
0.0126452
0.0170461
0.00884398
0.00547242
0.00363869
0.00254039
0.00184493
0.00138006
0.00106101
0.000838411
0.000680736
0.000567673
0.000486264
0.000428485
0.000389265
0.000364633
0.000350645
0.000343478
0.000338894
0.000334971
0.000331443
0.000328672
0.00032699
0.000326565
0.000327555
0.000330451
0.000337141
0.000349381
0.000369667
0.000400652
0.000441788
0.000488364
0.000528273
0.000541024
0.000541268
0.00057051
0.00116096
0.00117368
0.0105037
0.0135608
0.00715342
0.00457484
0.00315904
0.00228658
0.00172511
0.00135476
0.00110349
0.00092907
0.000806239
0.000719666
0.00066011
0.000622006
0.000601723
0.00059624
0.000602219
0.000615084
0.000625872
0.000631615
0.000632543
0.000630047
0.000625202
0.000618129
0.000607843
0.000592739
0.000570576
0.000539777
0.000504148
0.000471294
0.000447464
0.000432882
0.000423874
0.000417673
0.000416395
0.000437586
0.00132718
0.000900071
0.00256059
0.00396505
0.00629369
0.00707101
0.00468247
0.00343785
0.00261911
0.00203284
0.00159723
0.00127096
0.00103376
0.000853735
0.000714038
0.000605114
0.000521201
0.000458573
0.000414561
0.000386958
0.000373597
0.000372157
0.000382179
0.000396568
0.000410725
0.000422319
0.000430719
0.000436326
0.000440081
0.000443263
0.000447748
0.000455344
0.000465881
0.000477004
0.000483661
0.000478865
0.0004556
0.000423851
0.000389038
0.000347553
0.000374866
0.000328652
)
;

boundaryField
{
    floor
    {
        Cmu             0.09;
        kappa           0.41;
        E               9.8;
        type            epsilonWallFunction;
        value           nonuniform List<scalar> 
29
(
0.00026715
1.32588e-05
1.79588e-05
1.98272e-05
1.05904e-05
4.92939e-06
3.52981e-06
3.21158e-06
4.05378e-06
5.35743e-06
7.31175e-06
9.75947e-06
1.23305e-05
1.415e-05
1.49932e-05
1.67922e-05
2.03812e-05
2.50635e-05
2.83172e-05
1.89318e-05
1.89318e-05
3.20997e-05
9.22693e-05
0.000261574
0.00026715
1.32588e-05
3.52566e-05
0.000165534
0.000433387
)
;
    }
    ceiling
    {
        Cmu             0.09;
        kappa           0.41;
        E               9.8;
        type            epsilonWallFunction;
        value           nonuniform List<scalar> 
43
(
0.00256059
0.00396505
0.00629369
0.00707101
0.00468247
0.00343785
0.00261911
0.00203284
0.00159723
0.00127096
0.00103376
0.000853735
0.000714038
0.000605114
0.000521201
0.000458573
0.000414561
0.000386958
0.000373597
0.000372157
0.000382179
0.000396568
0.000410725
0.000422319
0.000430719
0.000436326
0.000440081
0.000443263
0.000447748
0.000455344
0.000465881
0.000477004
0.000483661
0.000478865
0.0004556
0.000423851
0.000389038
0.000347553
0.000374866
0.000328652
0.0108186
0.0185398
0.0105037
)
;
    }
    sWall
    {
        Cmu             0.09;
        kappa           0.41;
        E               9.8;
        type            epsilonWallFunction;
        value           uniform 0.00256059;
    }
    nWall
    {
        Cmu             0.09;
        kappa           0.41;
        E               9.8;
        type            epsilonWallFunction;
        value           nonuniform List<scalar> 6(0.00032565 0.000368808 0.000351881 0.00117368 0.000900071 0.000328652);
    }
    sideWalls
    {
        type            empty;
    }
    glass1
    {
        Cmu             0.09;
        kappa           0.41;
        E               9.8;
        type            epsilonWallFunction;
        value           nonuniform List<scalar> 9(0.000128232 0.000604394 0.00152876 0.00302323 0.00509697 0.00775624 0.0109623 0.0118381 0.0108186);
    }
    glass2
    {
        Cmu             0.09;
        kappa           0.41;
        E               9.8;
        type            epsilonWallFunction;
        value           nonuniform List<scalar> 2(0.000813453 0.00122913);
    }
    sun
    {
        Cmu             0.09;
        kappa           0.41;
        E               9.8;
        type            epsilonWallFunction;
        value           nonuniform List<scalar> 
14
(
0.000128232
0.000140886
0.000113944
0.000127638
0.000143171
0.000158866
0.000174667
0.000190883
0.000208146
0.000226979
0.000243909
0.000257574
0.000266902
0.000271216
)
;
    }
    heatsource1
    {
        Cmu             0.09;
        kappa           0.41;
        E               9.8;
        type            epsilonWallFunction;
        value           nonuniform List<scalar> 3(0.000696344 0.000488237 0.00032565);
    }
    heatsource2
    {
        Cmu             0.09;
        kappa           0.41;
        E               9.8;
        type            epsilonWallFunction;
        value           nonuniform List<scalar> 4(0.000333623 9.437e-05 9.437e-05 0.000394837);
    }
    Table_master
    {
        Cmu             0.09;
        kappa           0.41;
        E               9.8;
        type            epsilonWallFunction;
        value           nonuniform List<scalar> 9(1.00429e-05 1.25415e-05 1.68447e-05 2.20833e-05 2.85434e-05 3.682e-05 4.82445e-05 6.53029e-05 9.40319e-05);
    }
    Table_slave
    {
        Cmu             0.09;
        kappa           0.41;
        E               9.8;
        type            epsilonWallFunction;
        value           nonuniform List<scalar> 9(9.71106e-05 9.43162e-05 9.26807e-05 9.2014e-05 9.31544e-05 9.75039e-05 0.000107277 0.000126673 0.000170412);
    }
    inlet
    {
        type            turbulentMixingLengthDissipationRateInlet;
        mixingLength    0.01;
        phi             phi;
        k               k;
        value           uniform 3.77337e-06;
    }
    outlet
    {
        type            zeroGradient;
    }
}


// ************************************************************************* //
