/*--------------------------------*- C++ -*----------------------------------*\
  =========                 |
  \\      /  F ield         | OpenFOAM: The Open Source CFD Toolbox
   \\    /   O peration     | Website:  https://openfoam.org
    \\  /    A nd           | Version:  6
     \\/     M anipulation  |
\*---------------------------------------------------------------------------*/
FoamFile
{
    version     2.0;
    format      ascii;
    class       volScalarField;
    location    "120";
    object      nut;
}
// * * * * * * * * * * * * * * * * * * * * * * * * * * * * * * * * * * * * * //

dimensions      [0 2 -1 0 0 0 0];

internalField   nonuniform List<scalar> 
459
(
0.0020731
0.00234795
0.00230111
0.0021555
0.00199527
0.00184955
0.00172249
0.00160862
0.00150452
0.00140757
0.00131538
0.00122531
0.00113376
0.00103407
0.00092635
0.00064209
0.000830746
0.000846962
0.000841523
0.000810448
0.000769465
0.000718896
0.000670666
0.000628097
0.000591204
0.000559262
0.000531403
0.000506662
0.0004847
0.00046435
0.000444121
0.000424214
0.000399
0.000416517
0.00243667
0.00739461
0.00655798
0.00581406
0.00525163
0.00480916
0.00441452
0.00405678
0.00371947
0.00338774
0.00304545
0.00267623
0.00226791
0.00181262
0.00135306
0.000891616
0.000769243
0.000986307
0.00318375
0.00275075
0.002846
0.00295053
0.00283341
0.00215276
0.00179426
0.00155257
0.00137626
0.00124323
0.00114191
0.00106631
0.000991971
0.000908053
0.000828186
0.00083715
0.000846905
0.000551232
0.00257296
0.00928873
0.00726338
0.00605917
0.00545018
0.00514885
0.00494815
0.0047526
0.00451823
0.0042262
0.00386703
0.00343774
0.00294417
0.00240231
0.00185507
0.00133728
0.000782756
0.000949607
0.00291141
0.00301964
0.00341746
0.00371646
0.00343968
0.000980405
0.000857203
0.000759604
0.000681486
0.000618233
0.000566581
0.000524381
0.00049164
0.000469272
0.000546032
0.000759866
0.00107978
0.000641538
0.0025557
0.00920029
0.00670267
0.00526261
0.00490328
0.00498335
0.0050527
0.0050194
0.00487863
0.00463477
0.00429446
0.00387155
0.00338593
0.00285932
0.00231663
0.00178238
0.00121299
0.00082072
0.00175641
0.0025307
0.00345875
0.00423091
0.00467474
0.00427788
0.00108867
0.000999314
0.000930024
0.000870892
0.000816154
0.000762145
0.000706203
0.000645818
0.000575443
0.000553597
0.00073522
0.00130785
0.000747591
0.00250755
0.00783578
0.00572796
0.00472911
0.00496334
0.00517933
0.00527518
0.00528125
0.00519007
0.005002
0.0047203
0.00435912
0.00395159
0.00351538
0.00307855
0.00269456
0.00242587
0.002753
0.00365325
0.00460179
0.0053542
0.00586371
0.00613111
0.00604943
0.00512331
0.00461318
0.00413816
0.00367746
0.00321336
0.00273774
0.00224825
0.00174942
0.001245
0.000879474
0.00085203
0.00125634
0.00107114
0.0007927
0.000866575
0.00122638
0.00242019
0.00627638
0.00472419
0.00466632
0.0053696
0.0056046
0.00566948
0.0056789
0.00563061
0.00552275
0.00536173
0.00515807
0.00492484
0.00467267
0.00447688
0.0044287
0.00463398
0.00538279
0.00608033
0.00661246
0.00697593
0.00718175
0.00725164
0.00716994
0.00683925
0.00635348
0.00576742
0.00512232
0.00443915
0.0037309
0.00301066
0.00230226
0.00165356
0.00122114
0.0011325
0.0012145
0.00118472
0.00127517
0.00194273
0.00164195
0.00229511
0.00497923
0.00407551
0.00467567
0.00549497
0.00575591
0.00578379
0.0057728
0.00575027
0.00572651
0.00570603
0.00569746
0.00570127
0.00573683
0.00584631
0.00608507
0.00650337
0.0070592
0.00745028
0.00769363
0.00780575
0.00780391
0.00771298
0.00752293
0.00718844
0.00671859
0.00613363
0.00547139
0.00475645
0.00401501
0.00328057
0.00260072
0.00204081
0.00169453
0.00158607
0.00153199
0.00140093
0.00185084
0.00350019
0.00222118
0.00213428
0.0037582
0.00364006
0.00492442
0.0054055
0.00555127
0.00550818
0.00547405
0.00547907
0.0055375
0.00563194
0.00575983
0.00592689
0.00614298
0.00642647
0.00678815
0.00720405
0.00756218
0.00778597
0.00785958
0.00779448
0.0076061
0.00731523
0.0069522
0.00655156
0.00609819
0.00558287
0.00501565
0.00441734
0.00382046
0.0032694
0.0028187
0.00252361
0.00241924
0.00244207
0.00245857
0.00207256
0.00248327
0.00602427
0.00303702
0.00188185
0.00191988
0.00303902
0.00617184
0.00621548
0.0060519
0.00595434
0.00592437
0.00595272
0.00602299
0.00612654
0.00626244
0.00642946
0.00662674
0.00685574
0.00710822
0.00735134
0.00751902
0.00756517
0.00746275
0.00721802
0.00685943
0.00646435
0.00607327
0.00569324
0.00532036
0.0049516
0.00459644
0.00427693
0.00402492
0.00387653
0.0038631
0.00399438
0.00422535
0.0044174
0.00441417
0.00386345
0.00391066
0.00782658
0.00338923
0.00179811
0.00715627
0.00764841
0.00747005
0.00735035
0.00720533
0.0071098
0.00708272
0.0071489
0.00729182
0.00746059
0.00763033
0.00778849
0.00791693
0.00798742
0.0079708
0.00786225
0.00767682
0.00743188
0.00716627
0.00690033
0.00664624
0.00641071
0.00619869
0.00601789
0.0058812
0.00580614
0.0058127
0.00591846
0.00612867
0.00641692
0.00669656
0.00679516
0.00665562
0.00628629
0.00612988
0.00824518
0.00286648
0.00278641
0.00895219
0.00944964
0.00915294
0.00892274
0.00874232
0.0085463
0.00837601
0.00835543
0.00850982
0.00869342
0.00886004
0.00900114
0.00910815
0.00916176
0.00913176
0.00899153
0.0088117
0.00861942
0.00843017
0.00824976
0.00808135
0.00792858
0.00779732
0.00769609
0.00763583
0.00762954
0.00769137
0.00783357
0.00805841
0.00834012
0.00859398
0.00864731
0.0084262
0.00792798
0.00729346
0.0064561
0.00239555
0.00117009
0.000969706
0.00144989
0.00212311
0.00226575
0.00226319
0.00223543
0.00220323
0.00216156
0.00211469
0.00209126
0.00209915
0.00211015
0.00211914
0.00212564
0.0021286
0.00212634
0.00211849
0.00211057
0.00210006
0.00208827
0.00207593
0.00206408
0.00205344
0.00204456
0.002038
0.00203436
0.00203437
0.00203878
0.00204829
0.00206306
0.0020818
0.00209991
0.00210824
0.00210345
0.00208861
0.00209682
0.00216082
0.00220209
0.00199071
)
;

boundaryField
{
    floor
    {
        type            nutkWallFunction;
        Cmu             0.09;
        kappa           0.41;
        E               9.8;
        value           nonuniform List<scalar> 
29
(
0.000112023
7.75755e-05
0.000100602
0.000102555
0.00010191
9.81739e-05
9.32191e-05
8.70602e-05
8.11379e-05
7.58684e-05
7.12667e-05
6.72545e-05
6.37324e-05
6.05855e-05
5.77762e-05
5.51592e-05
5.25435e-05
4.99544e-05
4.66509e-05
4.89365e-05
4.89364e-05
6.62214e-05
7.75111e-05
9.05319e-05
0.000112023
7.75755e-05
0.000119112
0.000114782
9.94028e-05
)
;
    }
    ceiling
    {
        type            nutkWallFunction;
        Cmu             0.09;
        kappa           0.41;
        E               9.8;
        value           nonuniform List<scalar> 
43
(
0.000140631
0.000117184
0.000172607
0.000247021
0.00026241
0.000262111
0.000259098
0.000255601
0.000251074
0.000245979
0.00024344
0.0002443
0.000245494
0.000246468
0.000247172
0.000247493
0.000247246
0.000246395
0.000245537
0.000244396
0.000243116
0.000241774
0.000240486
0.000239328
0.000238362
0.000237646
0.00023725
0.000237249
0.000237728
0.000238761
0.000240366
0.0002424
0.000244365
0.000245267
0.000244744
0.000243131
0.000244023
0.000250957
0.00025542
0.000232489
0.000220488
0.000224644
0.000317735
)
;
    }
    sWall
    {
        type            nutkWallFunction;
        Cmu             0.09;
        kappa           0.41;
        E               9.8;
        value           uniform 0.000140624;
    }
    nWall
    {
        type            nutkWallFunction;
        Cmu             0.09;
        kappa           0.41;
        E               9.8;
        value           nonuniform List<scalar> 6(0.000147053 0.000194039 0.000257455 0.000326087 0.000276199 0.000232486);
    }
    sideWalls
    {
        type            empty;
    }
    glass1
    {
        type            nutkWallFunction;
        Cmu             0.09;
        kappa           0.41;
        E               9.8;
        value           nonuniform List<scalar> 9(0.000241244 0.000280345 0.000294841 0.000293009 0.000287892 0.000278584 0.000265194 0.000247864 0.000220382);
    }
    glass2
    {
        type            nutkWallFunction;
        Cmu             0.09;
        kappa           0.41;
        E               9.8;
        value           nonuniform List<scalar> 2(0.000343728 0.000380266);
    }
    sun
    {
        type            nutkWallFunction;
        Cmu             0.09;
        kappa           0.41;
        E               9.8;
        value           nonuniform List<scalar> 
14
(
0.00024138
0.000271021
0.000265999
0.000250312
0.00023292
0.000216972
0.000202956
0.0001903
0.000178644
0.000167709
0.000157234
0.000146919
0.000136348
0.000124727
)
;
    }
    heatsource1
    {
        type            nutkWallFunction;
        Cmu             0.09;
        kappa           0.41;
        E               9.8;
        value           nonuniform List<scalar> 3(9.60066e-05 0.000104892 0.000147068);
    }
    heatsource2
    {
        type            nutkWallFunction;
        Cmu             0.09;
        kappa           0.41;
        E               9.8;
        value           nonuniform List<scalar> 4(0.000107897 9.31814e-05 9.31814e-05 9.48203e-05);
    }
    Table_master
    {
        type            nutkWallFunction;
        Cmu             0.09;
        kappa           0.41;
        E               9.8;
        value           nonuniform List<scalar> 9(0.000118445 0.000103799 9.2021e-05 8.24651e-05 7.46315e-05 6.81628e-05 6.28244e-05 5.86463e-05 5.57724e-05);
    }
    Table_slave
    {
        type            nutkWallFunction;
        Cmu             0.09;
        kappa           0.41;
        E               9.8;
        value           nonuniform List<scalar> 9(0.000131144 0.000120678 0.000112487 0.000105442 9.88699e-05 9.23344e-05 8.55066e-05 7.80631e-05 6.9281e-05);
    }
    inlet
    {
        type            calculated;
        value           uniform 6.7082e-05;
    }
    outlet
    {
        type            calculated;
        value           nonuniform List<scalar> 2(0.00117009 0.000969706);
    }
}


// ************************************************************************* //
