/*--------------------------------*- C++ -*----------------------------------*\
  =========                 |
  \\      /  F ield         | OpenFOAM: The Open Source CFD Toolbox
   \\    /   O peration     | Website:  https://openfoam.org
    \\  /    A nd           | Version:  6
     \\/     M anipulation  |
\*---------------------------------------------------------------------------*/
FoamFile
{
    version     2.0;
    format      ascii;
    class       volScalarField;
    location    "170";
    object      nut;
}
// * * * * * * * * * * * * * * * * * * * * * * * * * * * * * * * * * * * * * //

dimensions      [0 2 -1 0 0 0 0];

internalField   nonuniform List<scalar> 
459
(
0.00103145
0.00114909
0.00120109
0.00127282
0.00134568
0.00142369
0.00148854
0.00153154
0.00154241
0.00149117
0.00138967
0.00128109
0.00115106
0.00103183
0.000908769
0.00052415
0.000689953
0.000764195
0.000815669
0.000806559
0.000780036
0.000729171
0.000675893
0.000627951
0.000586044
0.000549433
0.000517278
0.000488931
0.000463547
0.000439971
0.000416801
0.000392535
0.000357218
0.000335354
0.00131029
0.00343921
0.00347486
0.00405875
0.00462862
0.00504167
0.00544197
0.00581431
0.00613686
0.00631463
0.00616928
0.00578471
0.00520298
0.00405304
0.00261856
0.00104827
0.000875373
0.000799451
0.00255976
0.002583
0.0028909
0.00314085
0.00305094
0.0021453
0.00177274
0.00153185
0.00135754
0.00122491
0.00112065
0.00103121
0.000943399
0.000850922
0.000764921
0.000728407
0.000634213
0.000411801
0.00153971
0.00470124
0.004369
0.00490624
0.00520375
0.00542402
0.00569306
0.00607949
0.00659177
0.00707075
0.00723968
0.00712847
0.00676872
0.00597684
0.00467214
0.00287181
0.000993043
0.000876572
0.0028893
0.00288763
0.00340772
0.00389717
0.00368352
0.000982669
0.00084891
0.000741754
0.000656781
0.000589051
0.000534559
0.000490747
0.000456543
0.000432163
0.000490208
0.000625829
0.000743558
0.000461499
0.00175659
0.00572021
0.00457273
0.00503205
0.00505432
0.00509143
0.00522627
0.00562148
0.00627489
0.00690512
0.00727563
0.00736487
0.0072156
0.0067793
0.00590683
0.00446865
0.00228285
0.00107183
0.00150016
0.00219495
0.00324114
0.00426828
0.0049366
0.00458568
0.0010829
0.000978165
0.000899366
0.000836172
0.00078273
0.000733759
0.000685798
0.000636188
0.000581244
0.000532409
0.000596066
0.000865548
0.000525624
0.00197748
0.00694875
0.00497761
0.00520452
0.00508207
0.00492948
0.0049324
0.00535239
0.00605972
0.00676463
0.00722486
0.00738118
0.0073056
0.00704649
0.00653864
0.0056603
0.00434718
0.003656
0.00407163
0.0048493
0.00566684
0.00629593
0.00661746
0.00646316
0.00529036
0.00465672
0.00425138
0.00391147
0.00354395
0.00314339
0.0027
0.0022093
0.00168926
0.00122296
0.000947794
0.00102315
0.000792357
0.000586351
0.000568625
0.000535956
0.0022131
0.00834495
0.00630425
0.00581109
0.00541662
0.00497138
0.00487456
0.00529494
0.00606771
0.00684521
0.00734389
0.00749603
0.00741927
0.0072595
0.00705972
0.00673325
0.00630838
0.00637858
0.00695118
0.00746582
0.00782536
0.00797838
0.00791775
0.00763069
0.00707185
0.00651155
0.00598369
0.00546332
0.00494172
0.00440532
0.00383877
0.0032362
0.00262351
0.00205875
0.00161772
0.00140208
0.00117681
0.000981402
0.00110531
0.000622186
0.00241804
0.00928937
0.00817045
0.00687001
0.00577887
0.00500144
0.00487922
0.0054074
0.00630968
0.00717284
0.00769015
0.00782221
0.00777375
0.00779187
0.00786249
0.00790879
0.0079946
0.0083348
0.00875963
0.00896734
0.00896052
0.00876628
0.00842172
0.0079637
0.00740945
0.00683018
0.00627119
0.00573335
0.00520887
0.00468922
0.00416297
0.00363623
0.00315278
0.00272132
0.00233423
0.00203077
0.00170504
0.00140881
0.00138817
0.000717748
0.00245964
0.00800666
0.00730037
0.00620475
0.00511896
0.00458793
0.00482566
0.00570387
0.00683575
0.00777298
0.00826105
0.00837408
0.00843384
0.00854711
0.00858677
0.00868344
0.00887352
0.00912744
0.00928303
0.00921944
0.00893798
0.00847826
0.00789492
0.00725139
0.00661796
0.00603942
0.00550994
0.00501423
0.00454391
0.00409088
0.00367134
0.00333354
0.00309233
0.0029407
0.00277373
0.00256192
0.00230124
0.00185773
0.0021726
0.000835469
0.00240251
0.00282889
0.00300199
0.00299596
0.00309419
0.00373615
0.00497649
0.00648996
0.00781955
0.00863173
0.00892665
0.0089968
0.00877065
0.00852632
0.00842391
0.00847082
0.0085862
0.00863856
0.00851788
0.00818969
0.00768769
0.00708016
0.00644404
0.00584396
0.00532064
0.00487814
0.00449383
0.00414323
0.00380828
0.00347452
0.00312941
0.00276998
0.00241721
0.00211783
0.00190534
0.00174845
0.00162812
0.00153683
0.00148594
0.000996648
0.000759289
0.00148099
0.00336156
0.00561804
0.00749442
0.00870974
0.00927237
0.00930616
0.0089054
0.00843566
0.00805954
0.0078378
0.00775218
0.00772845
0.00768158
0.00753699
0.00727158
0.00691463
0.00651927
0.00613599
0.00579859
0.0055215
0.00530232
0.00512582
0.00496973
0.00480818
0.00461253
0.00435504
0.00401907
0.00361289
0.00317238
0.00274985
0.00239026
0.0021244
0.00195361
0.00185472
0.00182883
0.00131659
0.00144955
0.00555272
0.00806155
0.00933476
0.00978344
0.00965057
0.00913474
0.00846137
0.00787076
0.00746528
0.00724202
0.00713566
0.00708903
0.00706236
0.0070276
0.00696477
0.00686751
0.00674469
0.00661258
0.00648749
0.00638151
0.00630123
0.00624805
0.00621795
0.00620061
0.0061786
0.00612693
0.00601416
0.00580708
0.00547982
0.00502635
0.00447359
0.00388499
0.00333918
0.00288844
0.00258216
0.0032106
0.0015326
0.00160441
0.00172629
0.0018451
0.0021309
0.00214553
0.00210686
0.0020485
0.00196681
0.00186761
0.00177828
0.00171765
0.0016839
0.00166848
0.00166443
0.00166656
0.00167094
0.00167431
0.00167447
0.00167089
0.00166459
0.00165728
0.00165059
0.0016456
0.00164275
0.00164183
0.00164203
0.00164193
0.00163956
0.00163257
0.00161848
0.0015953
0.00156214
0.00151985
0.00147119
0.00142004
0.00136911
0.0013173
0.00127113
0.00130704
0.0012612
)
;

boundaryField
{
    floor
    {
        type            nutkWallFunction;
        Cmu             0.09;
        kappa           0.41;
        E               9.8;
        value           nonuniform List<scalar> 
29
(
0.000109934
6.27889e-05
8.34897e-05
9.25586e-05
9.87857e-05
9.7688e-05
9.44817e-05
8.82958e-05
8.17611e-05
7.58282e-05
7.05974e-05
6.59907e-05
6.19135e-05
5.82934e-05
5.50297e-05
5.19784e-05
4.89598e-05
4.57756e-05
4.10961e-05
3.81706e-05
3.81705e-05
4.83072e-05
5.47679e-05
6.29782e-05
0.000109934
6.27888e-05
9.68284e-05
0.000106093
0.000129142
)
;
    }
    ceiling
    {
        type            nutkWallFunction;
        Cmu             0.09;
        kappa           0.41;
        E               9.8;
        value           nonuniform List<scalar> 
43
(
0.00018983
0.000203377
0.000216483
0.00024768
0.000249283
0.000245105
0.000238773
0.000229874
0.000219012
0.000209178
0.000202474
0.000198732
0.00019702
0.000196571
0.000196809
0.000197296
0.000197673
0.00019769
0.000197293
0.000196592
0.000195778
0.000195033
0.000194476
0.000194157
0.000194054
0.000194076
0.000194064
0.0001938
0.000193022
0.000191452
0.000188866
0.000185159
0.000180417
0.000174942
0.000169164
0.000163389
0.000157487
0.000152207
0.000156313
0.000151068
0.000276941
0.000322125
0.00017241
)
;
    }
    sWall
    {
        type            nutkWallFunction;
        Cmu             0.09;
        kappa           0.41;
        E               9.8;
        value           uniform 0.000189865;
    }
    nWall
    {
        type            nutkWallFunction;
        Cmu             0.09;
        kappa           0.41;
        E               9.8;
        value           nonuniform List<scalar> 6(6.42731e-05 7.51007e-05 8.68925e-05 0.000157417 0.000181862 0.00015108);
    }
    sideWalls
    {
        type            empty;
    }
    glass1
    {
        type            nutkWallFunction;
        Cmu             0.09;
        kappa           0.41;
        E               9.8;
        value           nonuniform List<scalar> 9(0.000124475 0.000156766 0.000182747 0.000206916 0.0002312 0.000256783 0.0002788 0.000283247 0.000277147);
    }
    glass2
    {
        type            nutkWallFunction;
        Cmu             0.09;
        kappa           0.41;
        E               9.8;
        value           nonuniform List<scalar> 2(0.000101159 0.000120346);
    }
    sun
    {
        type            nutkWallFunction;
        Cmu             0.09;
        kappa           0.41;
        E               9.8;
        value           nonuniform List<scalar> 
14
(
0.000124422
0.000138131
0.000144138
0.000152379
0.000160696
0.000169546
0.000176861
0.000181693
0.000182912
0.000177151
0.00016569
0.000153322
0.000138356
0.000124466
)
;
    }
    heatsource1
    {
        type            nutkWallFunction;
        Cmu             0.09;
        kappa           0.41;
        E               9.8;
        value           nonuniform List<scalar> 3(7.06339e-05 6.84064e-05 6.42784e-05);
    }
    heatsource2
    {
        type            nutkWallFunction;
        Cmu             0.09;
        kappa           0.41;
        E               9.8;
        value           nonuniform List<scalar> 4(0.000126394 0.000105953 0.000105953 0.000119909);
    }
    Table_master
    {
        type            nutkWallFunction;
        Cmu             0.09;
        kappa           0.41;
        E               9.8;
        value           nonuniform List<scalar> 9(0.000118692 0.000102784 8.98293e-05 7.93986e-05 7.09682e-05 6.41001e-05 5.85155e-05 5.41125e-05 5.09491e-05);
    }
    Table_slave
    {
        type            nutkWallFunction;
        Cmu             0.09;
        kappa           0.41;
        E               9.8;
        value           nonuniform List<scalar> 9(0.000130449 0.000118163 0.000108819 0.000101257 9.48095e-05 8.8855e-05 8.29773e-05 7.68455e-05 6.99863e-05);
    }
    inlet
    {
        type            calculated;
        value           uniform 0.000100623;
    }
    outlet
    {
        type            calculated;
        value           nonuniform List<scalar> 2(0.00160441 0.00172629);
    }
}


// ************************************************************************* //
