/*--------------------------------*- C++ -*----------------------------------*\
  =========                 |
  \\      /  F ield         | OpenFOAM: The Open Source CFD Toolbox
   \\    /   O peration     | Website:  https://openfoam.org
    \\  /    A nd           | Version:  6
     \\/     M anipulation  |
\*---------------------------------------------------------------------------*/
FoamFile
{
    version     2.0;
    format      ascii;
    class       surfaceScalarField;
    location    "170";
    object      phi;
}
// * * * * * * * * * * * * * * * * * * * * * * * * * * * * * * * * * * * * * //

dimensions      [1 0 -1 0 0 0 0];

internalField   nonuniform List<scalar> 
852
(
-0.00246371
0.00249568
-0.0035283
0.00106457
-0.00419894
0.000670613
-0.00453257
0.0003336
-0.00448709
-4.55041e-05
-0.0040135
-0.000473618
-0.0031182
-0.000895329
-0.00190805
-0.00121018
-0.000579979
-0.0013281
0.000566736
-0.00114676
0.00136189
-0.000795203
0.0018003
-0.000438455
0.00184061
-4.03586e-05
0.00137515
0.000465415
0.00137234
-0.000113511
0.000108926
-0.000376133
0.000262545
-5.87114e-05
-0.000317497
0.000512405
-0.000571189
0.00101404
-0.000501707
0.00138947
-0.000375513
0.00160267
-0.000213273
0.00169902
-9.64254e-05
0.00175025
-5.13118e-05
0.00178212
-3.19391e-05
0.00180013
-1.80985e-05
0.00180555
-5.49393e-06
0.00179435
1.11159e-05
0.00175205
4.22191e-05
0.00164445
0.000107519
0.00141177
0.000232596
0.000995293
0.000416393
0.000260984
0.000734222
0.000254616
-0.00181433
0.00439836
-0.00277172
0.00202192
-0.00344286
0.00134173
-0.00379152
0.000682244
-0.0037698
-6.72511e-05
-0.00334269
-0.00090075
-0.00254953
-0.00168851
-0.00154176
-0.00221797
-0.000512822
-0.00235707
0.000388854
-0.00204849
0.00108051
-0.00148691
0.001521
-0.000878992
0.00173643
-0.000255846
0.00182946
0.000372334
0.00221643
0.000985317
0.0011429
0.00107343
0.0011428
-0.000105917
0.000204702
0.000254681
-9.81315e-05
0.000701528
-0.000764417
0.00104877
-0.000918508
0.00135579
-0.0008088
0.00158469
-0.000604482
0.00163991
-0.000268571
0.00165142
-0.000108005
0.00166273
-6.27039e-05
0.00167197
-4.12565e-05
0.00167807
-2.42726e-05
0.00168137
-8.87444e-06
0.00168043
1.19687e-05
0.00166988
5.26898e-05
0.00161581
0.000161511
0.00140626
0.000442063
0.00105288
0.000769685
0.000628298
0.00115871
0.000866138
-0.00130898
0.00584518
-0.00209743
0.00281035
-0.00269989
0.00194417
-0.00302014
0.00100247
-0.00299753
-8.98728e-05
-0.00257907
-0.00131923
-0.00184885
-0.00241874
-0.000994285
-0.00307256
-0.000183115
-0.00316827
0.00050747
-0.00273912
0.00105478
-0.00203428
0.00143227
-0.00125654
0.00166363
-0.000487265
0.0017902
0.00024571
0.0018323
0.000943159
0.00138619
0.00151949
0.00252894
0.000131072
5.81302e-05
0.00103477
-0.0010019
0.00138946
-0.00111917
0.0015515
-0.00108062
0.0016833
-0.000940669
0.00186769
-0.00078895
0.0015992
0.00149127
0.00142864
0.00138746
0.00136326
0.00135446
0.0013665
0.00141926
0.00158084
0.00136479
0.000658026
0.00112941
0.00100499
0.000814779
0.00147325
0.00165492
-0.0009315
0.00695833
-0.00151457
0.0033934
-0.00193756
0.00236714
-0.00216298
0.00122787
-0.00206349
-0.000189372
-0.00160103
-0.00178171
-0.000936819
-0.00308295
-0.000259472
-0.00374992
0.000320821
-0.0037486
0.000801498
-0.00321985
0.00117994
-0.00241279
0.00144537
-0.00152203
0.00162091
-0.000662867
0.00174835
0.000118206
0.00188596
0.000805487
0.00209608
0.0013093
0.00305279
0.00157217
0.00237865
0.000658997
0.00260052
-0.000163806
0.00225346
-0.000654908
0.00205666
-0.000922438
0.00191345
-0.000937476
0.0017951
-0.000822393
0.00161317
-0.000607098
0.0018539
-0.00024095
0.00193793
-8.42637e-05
0.00196208
-2.43833e-05
0.00195118
1.06707e-05
0.00190997
4.09803e-05
0.00183664
7.30906e-05
0.00171829
0.000118123
0.00152487
0.000193174
0.00119648
0.000328151
0.00119706
0.000657357
0.00115286
0.0010491
0.00109671
0.00152932
0.00271811
-0.000656812
0.00783535
-0.00104249
0.00377904
-0.00115485
0.00247947
-0.00118044
0.00125344
-0.000866254
-0.000503577
-0.000334756
-0.00231321
0.000198555
-0.00361626
0.00062981
-0.00418118
0.000947666
-0.00406648
0.00118566
-0.0034579
0.00134908
-0.00257628
0.00144884
-0.00162188
0.0015193
-0.000733403
0.00161071
2.67332e-05
0.00178548
0.000630653
0.00207893
0.00101579
0.00252588
0.00112517
0.00263321
0.000551606
0.00251464
-4.52993e-05
0.00229401
-0.000434338
0.002023
-0.000651499
0.00177596
-0.000690508
0.00156005
-0.000606558
0.00138908
-0.000436204
0.00135706
-0.000209007
0.00132561
-5.28975e-05
0.00127682
2.43299e-05
0.00122712
6.02845e-05
0.00118597
8.20517e-05
0.00115107
0.000107905
0.00111454
0.000154573
0.00106791
0.000239721
0.00102182
0.000374152
0.00108063
0.000598459
0.00128475
0.00084489
0.00189526
0.000918727
0.00319971
0.00141357
0.00215581
0.0010436
0.0013463
0.000809216
0.00137489
-0.000542211
0.00863136
-0.000727966
0.00396477
-0.000370995
0.00212247
6.73314e-05
0.000815083
0.000658546
-0.00109481
0.00116771
-0.00282237
0.00148268
-0.00393122
0.0016243
-0.00432281
0.00163833
-0.00408054
0.00156915
-0.00338878
0.00145486
-0.00246207
0.00133158
-0.00149869
0.00124328
-0.000645178
0.00123417
3.57615e-05
0.00134373
0.000521027
0.00156836
0.00079109
0.00188747
0.000805991
0.00200353
0.000435492
0.00192082
3.73358e-05
0.00173981
-0.000253394
0.00149737
-0.000409141
0.00124444
-0.000437652
0.00100924
-0.000371444
0.000816568
-0.00024361
0.000693654
-8.61758e-05
0.000612019
2.86532e-05
0.000556165
8.01008e-05
0.000525022
9.13447e-05
0.000519107
8.7883e-05
0.000539471
8.74572e-05
0.000585727
0.000108231
0.000656719
0.000168641
0.000754289
0.000276491
0.00091756
0.000435098
0.00116219
0.000600172
0.00142885
0.000651964
0.00179517
0.00104716
0.00162201
0.00121667
0.00101277
0.00141835
0.00241923
-0.000482119
0.00939842
-0.000224004
0.00370663
0.000827378
0.00107106
0.00174866
-0.000106238
0.00246458
-0.00181074
0.00283609
-0.00319387
0.00287159
-0.0039667
0.00264737
-0.00409859
0.00226097
-0.00369419
0.00180625
-0.00293413
0.00135935
-0.00201527
0.000978964
-0.00111841
0.000716151
-0.000382459
0.00061004
0.00014179
0.000671576
0.000459417
0.000851992
0.000610604
0.0010775
0.000580411
0.00116567
0.000347255
0.00111093
9.19988e-05
0.000955567
-9.81117e-05
0.000739646
-0.000193304
0.000501769
-0.000199862
0.000273639
-0.000143403
8.1069e-05
-5.11279e-05
-5.07236e-05
4.55285e-05
-0.000123822
0.000101664
-0.000155505
0.000111697
-0.000157303
9.30562e-05
-0.000128449
5.89418e-05
-6.24798e-05
2.13989e-05
4.82214e-05
-2.56133e-06
0.000204234
1.25343e-05
0.000393997
8.66322e-05
0.000611434
0.000217563
0.000836103
0.000375404
0.000990774
0.00049719
0.00121383
0.000824
0.00136054
0.00106986
0.00122763
0.00155117
0.00368031
0.0021957
0.00752287
0.00294026
0.00296204
0.003552
0.000459297
0.00445068
-0.00100494
0.00486686
-0.00222691
0.00476922
-0.00309619
0.0042536
-0.00345107
0.00346679
-0.00331179
0.00255659
-0.00278404
0.00165761
-0.00203525
0.000877382
-0.00123515
0.000284256
-0.000525396
-6.70225e-05
-3.12836e-05
-0.000181927
0.000256609
-0.000123611
0.000401021
2.64892e-05
0.000460427
0.000183552
0.000423269
0.000240215
0.00029051
0.000187093
0.000145033
4.79986e-05
4.08904e-05
-0.000143892
-1.5073e-06
-0.000352865
9.01462e-06
-0.000544961
4.85967e-05
-0.000692523
9.63385e-05
-0.00078082
0.000133731
-0.000823838
0.000144588
-0.000838867
0.000126632
-0.000832285
8.63793e-05
-0.000805484
3.20434e-05
-0.000755641
-2.85443e-05
-0.000670784
-8.75217e-05
-0.000529878
-0.000128477
-0.000320472
-0.000122879
-6.6991e-05
-3.60213e-05
0.000162513
0.000145793
0.000287003
0.000372594
0.000434419
0.000676479
0.000564932
0.000939247
0.000145392
0.00197061
0.00396008
0.00785285
0.0107913
0.00970787
0.00154275
0.00891075
-0.000207794
0.00786687
-0.00118298
0.00652414
-0.00175342
0.00499858
-0.00192551
0.00345172
-0.00176498
0.00200037
-0.00133279
0.000741693
-0.000776693
-0.000196721
-0.00029688
-0.000761656
3.94183e-05
-0.000999145
0.000206099
-0.00103247
0.000289841
-0.000967402
0.000335862
-0.000859709
0.000352643
-0.000766671
0.000330139
-0.000745177
0.00026892
-0.00080273
0.000202485
-0.000917962
0.000156018
-0.00105785
0.000138273
-0.00119248
0.000143542
-0.00130368
0.000159683
-0.0013833
0.000175859
-0.0014327
0.000183026
-0.00146274
0.000174514
-0.00148538
0.000149164
-0.00150944
0.000110328
-0.00154191
6.44041e-05
-0.00159232
2.17437e-05
-0.0016771
-2.85634e-06
-0.00181348
7.78883e-06
-0.00201116
7.46943e-05
-0.00226984
0.000222555
-0.0026089
0.000484748
-0.00313344
0.000897036
-0.0039562
0.00149913
-0.00516988
0.00215283
-0.0054129
0.00221353
-0.00131548
0.00597547
0.00194142
0.00496503
0.000802684
0.00422748
-0.000445452
0.00324253
-0.000768541
0.00202952
-0.000712609
0.000760079
-0.000495678
-0.000386082
-0.000186797
-0.00122498
6.20617e-05
-0.00169458
0.000172589
-0.00188506
0.000229781
-0.00192345
0.000244374
-0.00188921
0.000255495
-0.0018209
0.000267451
-0.00174431
0.000275939
-0.00168604
0.000271766
-0.00166887
0.00025164
-0.00169198
0.000225477
-0.00173973
0.000203649
-0.00179286
0.00019128
-0.001837
0.000187561
-0.00186592
0.000188485
-0.00187965
0.000189462
-0.00188284
0.000186095
-0.00188344
0.000174995
-0.00188959
0.000155186
-0.0019078
0.000128412
-0.00194274
9.92117e-05
-0.00199656
7.54402e-05
-0.0020679
6.83578e-05
-0.00215302
9.27946e-05
-0.00224594
0.00016749
-0.00234014
0.000316644
-0.00242393
0.000568429
-0.00247982
0.000952818
-0.00246448
0.00148368
-0.00218109
0.00186933
-0.000752934
0.000785272
-0.0020414
0.000360361
0.00157199
0.000525089
0.000637838
-5.15704e-05
0.000131033
-0.000792802
-2.74694e-05
-0.00152359
1.8015e-05
-0.00212976
0.00011034
-0.00250933
0.000192619
-0.00268206
0.000234654
-0.00274595
0.000236352
-0.00273572
0.000219428
-0.00268926
0.000197788
-0.00261966
0.00018578
-0.00253618
0.000183844
-0.00244759
0.000187227
-0.00236521
0.000189258
-0.00229939
0.000185694
-0.0022519
0.000177861
-0.00221729
0.000168905
-0.00218734
0.000161203
-0.00215524
0.000155325
-0.0021174
0.00015051
-0.00207352
0.000145446
-0.00202623
0.000138677
-0.00198051
0.000129135
-0.00194233
0.000116869
-0.0019174
0.000103354
-0.00190984
9.15197e-05
-0.00192026
8.57216e-05
-0.00194353
9.14995e-05
-0.00196619
0.000115335
-0.00196367
0.000164846
-0.00189738
0.000250238
-0.00171291
0.000383844
-0.00132006
0.000559854
-0.000519237
0.00068274
0.000732716
0.000617271
0.00151347
4.41082e-06
-0.000501099
-0.00544722
-0.0064444
-0.00490134
-0.00429555
-0.00420092
-0.00426797
-0.00429213
-0.00422661
-0.00408169
-0.00389735
-0.00371324
-0.00354725
-0.00340361
-0.00327235
-0.00314322
-0.00301082
-0.00287652
-0.00274596
-0.00262343
-0.00251009
-0.00240463
-0.00230518
-0.00221058
-0.00212099
-0.00203803
-0.00196443
-0.00190289
-0.00185471
-0.00181833
-0.00178792
-0.00175217
-0.00169333
-0.00158606
-0.00139476
-0.00107139
-0.000573692
4.50079e-05
0.000596306
0.000535661
)
;

boundaryField
{
    floor
    {
        type            calculated;
        value           nonuniform List<scalar> 
29
(
0
0
0
0
0
0
0
0
0
0
0
0
0
0
0
0
0
0
0
0
6.27756e-06
1.66854e-05
2.59114e-05
3.34189e-05
2.75486e-06
4.50366e-06
1.0059e-05
1.54209e-05
1.50919e-05
)
;
    }
    ceiling
    {
        type            calculated;
        value           nonuniform List<scalar> 
43
(
3.29476e-05
3.04865e-05
2.87463e-05
3.18674e-05
3.62387e-05
3.9432e-05
4.20219e-05
4.46756e-05
4.75541e-05
5.01792e-05
5.20988e-05
5.33087e-05
5.40076e-05
5.43812e-05
5.45751e-05
5.46948e-05
5.48172e-05
5.49848e-05
5.51955e-05
5.54165e-05
5.56061e-05
5.57296e-05
5.57661e-05
5.57106e-05
5.5574e-05
5.5384e-05
5.51842e-05
5.50341e-05
5.50056e-05
5.51757e-05
5.56145e-05
5.63696e-05
5.7449e-05
5.88075e-05
6.03575e-05
6.20372e-05
6.39233e-05
6.58538e-05
6.49299e-05
6.76812e-05
2.81833e-05
2.35181e-05
9.04365e-06
)
;
    }
    sWall
    {
        type            calculated;
        value           uniform -0.000135483;
    }
    nWall
    {
        type            calculated;
        value           nonuniform List<scalar> 6(-2.88781e-05 -3.16598e-05 -3.35518e-05 -2.71249e-05 -2.695e-05 -3.32512e-05);
    }
    sideWalls
    {
        type            empty;
        value           nonuniform 0();
    }
    glass1
    {
        type            calculated;
        value           nonuniform List<scalar> 9(-3.19935e-05 -8.83747e-05 -0.000137863 -0.000181669 -0.000220229 -0.000253819 -0.000284964 -0.000320162 -0.000358181);
    }
    glass2
    {
        type            calculated;
        value           nonuniform List<scalar> 2(-0.000134467 -0.000137441);
    }
    sun
    {
        type            calculated;
        value           uniform 0;
    }
    heatsource1
    {
        type            calculated;
        value           nonuniform List<scalar> 3(2.01981e-07 2.02419e-07 2.02749e-07);
    }
    heatsource2
    {
        type            calculated;
        value           nonuniform List<scalar> 4(5.07643e-08 5.09114e-08 0 0);
    }
    Table_master
    {
        type            calculated;
        value           nonuniform List<scalar> 9(-1.52038e-07 -1.52182e-07 -1.52218e-07 -1.52236e-07 -1.52243e-07 -1.52243e-07 -1.52232e-07 -1.52204e-07 -1.52142e-07);
    }
    Table_slave
    {
        type            calculated;
        value           nonuniform List<scalar> 9(1.51865e-07 1.51887e-07 1.51863e-07 1.51846e-07 1.51834e-07 1.51833e-07 1.51844e-07 1.51873e-07 1.5193e-07);
    }
    inlet
    {
        type            calculated;
        value           uniform -0.0063741;
    }
    outlet
    {
        type            calculated;
        value           nonuniform List<scalar> 2(0.00554956 0.000966516);
    }
}


// ************************************************************************* //
