// -*- C++ -*-
// File generated by PyFoam - sorry for the ugliness

FoamFile
{
 version 2.0;
 format ascii;
 class volVectorField;
 location "1000";
 object U;
}

dimensions [ 0 1 -1 0 0 0 0 ];

internalField nonuniform List<vector> 459
(
  (0.0274574 0.060984 0)
  (0.0726104 -0.193028 0)
  (0.20638 -0.145833 0)
  (0.317229 -0.0952911 0)
  (0.38784 -0.0627325 0)
  (0.423265 -0.0427609 0)
  (0.437449 -0.0294222 0)
  (0.439435 -0.0196447 0)
  (0.43226 -0.0114411 0)
  (0.417024 -0.00388894 0)
  (0.393388 0.00393769 0)
  (0.359772 0.0133533 0)
  (0.312453 0.0271034 0)
  (0.240091 0.0544127 0)
  (0.184059 0.130264 0)
  (-0.0781161 0.0254438 0)
  (-0.0635057 0.00677433 0)
  (-0.0794828 -0.017132 0)
  (-0.0495311 -0.0365949 0)
  (-0.0125286 -0.0462966 0)
  (0.0415388 -0.0416047 0)
  (0.0724813 -0.024545 0)
  (0.0958623 -0.0149545 0)
  (0.109706 -0.0103904 0)
  (0.116237 -0.00716374 0)
  (0.117684 -0.00405114 0)
  (0.114956 -0.00110396 0)
  (0.109308 0.00122692 0)
  (0.101644 0.00296213 0)
  (0.0920657 0.0048567 0)
  (0.0792117 0.00830783 0)
  (0.0621586 0.0129877 0)
  (0.0103516 0.0222625 0)
  (0.0989568 0.00623935 0)
  (0.427231 0.00579866 0)
  (0.2003 -0.202383 0)
  (0.270192 -0.16952 0)
  (0.340758 -0.100597 0)
  (0.374924 -0.0527644 0)
  (0.388617 -0.0229064 0)
  (0.392481 -0.00243845 0)
  (0.388892 0.0128663 0)
  (0.378645 0.0249388 0)
  (0.362545 0.0357111 0)
  (0.340681 0.0470212 0)
  (0.312904 0.0609377 0)
  (0.279987 0.0803941 0)
  (0.244881 0.110703 0)
  (0.22685 0.167787 0)
  (0.210683 0.149735 0)
  (0.128869 0.127471 0)
  (-0.10975 0.0515754 0)
  (-0.0131864 0.0349803 0)
  (-0.0151515 -0.00835007 0)
  (0.0209642 -0.0577672 0)
  (0.0443836 -0.0684934 0)
  (0.0714871 -0.0639644 0)
  (0.0850392 -0.0337284 0)
  (0.089683 -0.0142287 0)
  (0.0915124 -0.00594464 0)
  (0.0932135 -0.000604799 0)
  (0.0945415 0.00455581 0)
  (0.0943288 0.00850627 0)
  (0.0934922 0.0110068 0)
  (0.092547 0.0129195 0)
  (0.0906548 0.0162788 0)
  (0.083742 0.0257811 0)
  (0.0703248 0.0350194 0)
  (0.0160692 0.0460158 0)
  (0.150386 0.0313394 0)
  (0.645607 -0.292538 0)
  (0.160727 -0.314294 0)
  (0.242206 -0.218251 0)
  (0.288268 -0.132256 0)
  (0.290821 -0.0764813 0)
  (0.2864 -0.0401725 0)
  (0.282683 -0.0142414 0)
  (0.275979 0.00677896 0)
  (0.268115 0.0250166 0)
  (0.25889 0.0420551 0)
  (0.24792 0.0597282 0)
  (0.234991 0.0798954 0)
  (0.22073 0.104432 0)
  (0.205745 0.134864 0)
  (0.19524 0.172078 0)
  (0.169972 0.16341 0)
  (0.12638 0.19263 0)
  (-0.153259 0.0371778 0)
  (0.0400783 -0.0011444 0)
  (0.0648935 -0.0480748 0)
  (0.0816623 -0.0780264 0)
  (0.0943278 -0.0887542 0)
  (0.108989 -0.0885201 0)
  (0.107892 -0.0656864 0)
  (0.0806825 -0.0408446 0)
  (0.0588661 -0.0258275 0)
  (0.050084 -0.0160353 0)
  (0.0493401 -0.0084009 0)
  (0.053265 -0.00274154 0)
  (0.0593539 0.000637995 0)
  (0.0678345 0.00314672 0)
  (0.0801609 0.00850029 0)
  (0.0842303 0.033052 0)
  (0.0763221 0.0507097 0)
  (0.0196944 0.0683981 0)
  (0.18181 0.0669499 0)
  (0.709037 -0.43134 0)
  (-0.0546843 -0.340898 0)
  (0.146434 -0.209178 0)
  (0.175881 -0.120352 0)
  (0.155228 -0.0640446 0)
  (0.141005 -0.0266393 0)
  (0.135138 -0.000526243 0)
  (0.135735 0.0186982 0)
  (0.13915 0.034582 0)
  (0.143053 0.0502195 0)
  (0.146428 0.0675992 0)
  (0.148823 0.0879525 0)
  (0.150522 0.111995 0)
  (0.151818 0.14 0)
  (0.158261 0.172201 0)
  (0.16788 0.186304 0)
  (0.181239 0.221473 0)
  (0.217665 0.155049 0)
  (0.0965009 0.0670253 0)
  (0.122151 -0.00141179 0)
  (0.13852 -0.0534333 0)
  (0.140411 -0.082734 0)
  (0.134353 -0.0907313 0)
  (0.120358 -0.0838204 0)
  (0.118863 -0.049433 0)
  (0.141228 -0.0294835 0)
  (0.156433 -0.0186032 0)
  (0.160349 -0.0119274 0)
  (0.157066 -0.00677144 0)
  (0.149789 -0.0024297 0)
  (0.139019 0.00158061 0)
  (0.123834 0.00601521 0)
  (0.101785 0.012014 0)
  (0.0808639 0.0397287 0)
  (0.0757877 0.0627663 0)
  (0.0241346 0.0848997 0)
  (0.202794 0.114295 0)
  (0.749048 -0.492893 0)
  (-0.240255 -0.349677 0)
  (0.0923324 -0.217817 0)
  (0.0728251 -0.107613 0)
  (0.0278109 -0.0474755 0)
  (0.0133861 -0.0164692 0)
  (0.0134194 5.01928e-05 0)
  (0.0246053 0.0127018 0)
  (0.0359913 0.0260705 0)
  (0.0478496 0.041664 0)
  (0.0598491 0.0598792 0)
  (0.0718215 0.0807642 0)
  (0.0841532 0.104297 0)
  (0.0978331 0.130501 0)
  (0.117593 0.158942 0)
  (0.141674 0.174338 0)
  (0.169202 0.182687 0)
  (0.197941 0.114183 0)
  (0.189628 0.0557691 0)
  (0.199688 -0.00227144 0)
  (0.194512 -0.0476182 0)
  (0.179442 -0.0720189 0)
  (0.160234 -0.0760917 0)
  (0.140387 -0.063584 0)
  (0.129774 -0.0336072 0)
  (0.128917 -0.0126182 0)
  (0.127289 -0.0011649 0)
  (0.120297 0.0060515 0)
  (0.111072 0.011421 0)
  (0.100997 0.0160089 0)
  (0.0903126 0.0206 0)
  (0.0789017 0.0262086 0)
  (0.0665472 0.0344907 0)
  (0.0573649 0.0531816 0)
  (0.062935 0.0706064 0)
  (0.038638 0.0835961 0)
  (0.133829 0.11666 0)
  (0.116904 0.0906078 0)
  (-0.0338983 0.0723043 0)
  (0.284181 0.0260706 0)
  (0.744114 -0.49165 0)
  (-0.305895 -0.342944 0)
  (0.0332635 -0.221467 0)
  (-0.0191684 -0.0688837 0)
  (-0.060003 -0.030827 0)
  (-0.0635772 -0.0173241 0)
  (-0.0592951 -0.0100374 0)
  (-0.0505173 -0.00162458 0)
  (-0.0379946 0.0108851 0)
  (-0.0249584 0.0262559 0)
  (-0.0106366 0.0441625 0)
  (0.00602661 0.065333 0)
  (0.0239274 0.0876548 0)
  (0.0441192 0.110936 0)
  (0.0696884 0.133426 0)
  (0.0977999 0.143141 0)
  (0.131098 0.139404 0)
  (0.162647 0.0921364 0)
  (0.179191 0.0414227 0)
  (0.18644 -0.00656965 0)
  (0.178224 -0.0397584 0)
  (0.160024 -0.0551659 0)
  (0.137398 -0.0552391 0)
  (0.114708 -0.0435622 0)
  (0.0968349 -0.0235717 0)
  (0.0851818 -0.00647449 0)
  (0.0744979 0.00525598 0)
  (0.0654995 0.0129193 0)
  (0.0571277 0.018522 0)
  (0.0493323 0.0233584 0)
  (0.0420076 0.0283219 0)
  (0.0352353 0.0342694 0)
  (0.0291494 0.0422598 0)
  (0.0262592 0.0552145 0)
  (0.0353272 0.0665835 0)
  (0.0231166 0.0664385 0)
  (0.0647004 0.0847795 0)
  (0.0655641 0.0654798 0)
  (-0.100626 0.0715771 0)
  (0.339354 0.00931727 0)
  (0.67887 -0.436646 0)
  (-0.293634 -0.301047 0)
  (-0.0686951 -0.20289 0)
  (-0.0791739 -0.0456404 0)
  (-0.114369 -0.0268244 0)
  (-0.111349 -0.0217687 0)
  (-0.105694 -0.0178532 0)
  (-0.0988843 -0.0115462 0)
  (-0.0900773 -0.00127401 0)
  (-0.0788312 0.012507 0)
  (-0.0661372 0.0285298 0)
  (-0.050627 0.0465583 0)
  (-0.0322319 0.0657539 0)
  (-0.0106059 0.0852668 0)
  (0.0186206 0.103843 0)
  (0.0481293 0.109726 0)
  (0.0831401 0.10238 0)
  (0.112974 0.0676562 0)
  (0.129806 0.0273723 0)
  (0.132472 -0.00599776 0)
  (0.122074 -0.0263657 0)
  (0.103009 -0.0344224 0)
  (0.0803198 -0.0321575 0)
  (0.0577213 -0.0218876 0)
  (0.0387448 -0.00701234 0)
  (0.0234431 0.00675729 0)
  (0.0149309 0.0154602 0)
  (0.00890644 0.0208833 0)
  (0.0040507 0.0251047 0)
  (-4.66792e-05 0.0291367 0)
  (-0.00345932 0.0334626 0)
  (-0.00594813 0.0383771 0)
  (-0.00729865 0.044252 0)
  (-0.00589511 0.0519148 0)
  (0.00466418 0.0583954 0)
  (-0.00171928 0.0547177 0)
  (0.0230501 0.0712684 0)
  (0.0396983 0.0798491 0)
  (-0.118136 0.0913501 0)
  (0.322935 -0.0133551 0)
  (0.56179 -0.334067 0)
  (-0.327051 -0.238649 0)
  (-0.222601 -0.214008 0)
  (-0.134896 -0.0537866 0)
  (-0.164352 -0.0364277 0)
  (-0.148081 -0.030569 0)
  (-0.139377 -0.0255071 0)
  (-0.133497 -0.019083 0)
  (-0.127767 -0.010169 0)
  (-0.120125 0.00148168 0)
  (-0.110388 0.0151535 0)
  (-0.0977581 0.0300563 0)
  (-0.0816134 0.0454232 0)
  (-0.0615496 0.0601499 0)
  (-0.0357568 0.0727976 0)
  (-0.00694428 0.0772335 0)
  (0.0261427 0.0689878 0)
  (0.048332 0.0445632 0)
  (0.0579005 0.0190397 0)
  (0.054873 9.22095e-05 0)
  (0.0445572 -0.0109429 0)
  (0.0269597 -0.0140898 0)
  (0.00693373 -0.0103252 0)
  (-0.0133118 -0.0011436 0)
  (-0.0277508 0.00850169 0)
  (-0.0352152 0.0156985 0)
  (-0.0391535 0.0205863 0)
  (-0.0413592 0.0243459 0)
  (-0.0426051 0.0277463 0)
  (-0.0430958 0.0311153 0)
  (-0.042748 0.034573 0)
  (-0.0412832 0.0381379 0)
  (-0.0383174 0.0418245 0)
  (-0.0326433 0.0457694 0)
  (-0.0219723 0.0491461 0)
  (-0.0182147 0.0484006 0)
  (0.00355681 0.0623315 0)
  (0.0431336 0.0860991 0)
  (-0.135288 0.0972681 0)
  (0.620168 0.0428239 0)
  (0.398728 -0.256365 0)
  (-0.462763 -0.266221 0)
  (-0.488636 -0.298469 0)
  (-0.146365 -0.127627 0)
  (-0.194553 -0.059137 0)
  (-0.172122 -0.0381305 0)
  (-0.164568 -0.028453 0)
  (-0.16165 -0.0210181 0)
  (-0.159286 -0.0133369 0)
  (-0.155617 -0.00442077 0)
  (-0.149228 0.00603957 0)
  (-0.140168 0.0175736 0)
  (-0.127515 0.0291712 0)
  (-0.111066 0.0397416 0)
  (-0.0905471 0.047816 0)
  (-0.0677716 0.0503718 0)
  (-0.0452543 0.0458397 0)
  (-0.030987 0.0339784 0)
  (-0.0269324 0.0212549 0)
  (-0.031916 0.0114829 0)
  (-0.0421239 0.00605366 0)
  (-0.0548372 0.00533555 0)
  (-0.0674984 0.00813894 0)
  (-0.0767313 0.0122419 0)
  (-0.082178 0.0161943 0)
  (-0.084453 0.0196111 0)
  (-0.0847288 0.0225833 0)
  (-0.0837389 0.0253408 0)
  (-0.0818151 0.0280249 0)
  (-0.0789984 0.0306496 0)
  (-0.0751574 0.0331489 0)
  (-0.0700615 0.0354178 0)
  (-0.0633697 0.0373771 0)
  (-0.0543854 0.0390311 0)
  (-0.0425856 0.0400771 0)
  (-0.0313933 0.0393175 0)
  (-0.011259 0.0457596 0)
  (0.0331778 0.0713119 0)
  (-0.130671 0.0692623 0)
  (0.617272 0.0645475 0)
  (-0.821075 -0.250592 0)
  (-0.0600823 -0.1448 0)
  (-0.167078 -0.0680734 0)
  (-0.182108 -0.0362894 0)
  (-0.187144 -0.0202302 0)
  (-0.19063 -0.00909914 0)
  (-0.192632 0.000473391 0)
  (-0.192432 0.00954265 0)
  (-0.189398 0.0180472 0)
  (-0.183549 0.02499 0)
  (-0.174898 0.0313235 0)
  (-0.163342 0.0369558 0)
  (-0.149229 0.0411628 0)
  (-0.134085 0.0427857 0)
  (-0.12041 0.041398 0)
  (-0.111723 0.0372812 0)
  (-0.108912 0.0325125 0)
  (-0.110885 0.0286398 0)
  (-0.115539 0.0265876 0)
  (-0.120717 0.026729 0)
  (-0.124722 0.0284345 0)
  (-0.126607 0.030725 0)
  (-0.126436 0.0329471 0)
  (-0.124612 0.0349334 0)
  (-0.12155 0.0367211 0)
  (-0.117483 0.0382955 0)
  (-0.1125 0.0395881 0)
  (-0.106614 0.0404914 0)
  (-0.0998064 0.0408797 0)
  (-0.0920571 0.0406325 0)
  (-0.0833344 0.0396495 0)
  (-0.0735655 0.0378111 0)
  (-0.0629005 0.0349444 0)
  (-0.0518834 0.0318102 0)
  (-0.0374444 0.0351944 0)
  (-0.0258224 0.0514287 0)
  (-0.146044 0.0440438 0)
  (0.375631 0.0840081 0)
  (-0.211463 -0.0984148 0)
  (-0.0871798 -0.134726 0)
  (-0.1609 -0.125115 0)
  (-0.190792 -0.121147 0)
  (-0.207637 -0.119317 0)
  (-0.219539 -0.117483 0)
  (-0.228227 -0.114818 0)
  (-0.233729 -0.110616 0)
  (-0.235708 -0.103973 0)
  (-0.234006 -0.0937383 0)
  (-0.229132 -0.0829449 0)
  (-0.221245 -0.0736801 0)
  (-0.210875 -0.0665592 0)
  (-0.199127 -0.0623046 0)
  (-0.187592 -0.0614218 0)
  (-0.178004 -0.0640289 0)
  (-0.171168 -0.0692457 0)
  (-0.166941 -0.0759321 0)
  (-0.164556 -0.082781 0)
  (-0.16297 -0.0886161 0)
  (-0.161251 -0.0929885 0)
  (-0.158839 -0.0960254 0)
  (-0.155556 -0.098004 0)
  (-0.151404 -0.0991621 0)
  (-0.146423 -0.0996798 0)
  (-0.140631 -0.0997301 0)
  (-0.134042 -0.0994732 0)
  (-0.126691 -0.0990684 0)
  (-0.118661 -0.0986912 0)
  (-0.110125 -0.0985417 0)
  (-0.101392 -0.0988355 0)
  (-0.0928532 -0.0997133 0)
  (-0.0845629 -0.100664 0)
  (-0.0754656 -0.0986548 0)
  (-0.0652283 -0.0869517 0)
  (-0.0663835 -0.0667755 0)
  (-0.112347 -0.0688433 0)
  (0.284275 -0.0458435 0)
  (-0.210427 0.278915 0)
  (0.0551852 -0.373265 0)
  (-0.159616 0.364939 0)
  (-0.171492 0.304359 0)
  (-0.20153 0.296537 0)
  (-0.222858 0.301404 0)
  (-0.240891 0.302979 0)
  (-0.255933 0.30309 0)
  (-0.268162 0.302316 0)
  (-0.277627 0.300257 0)
  (-0.284157 0.296164 0)
  (-0.28704 0.289303 0)
  (-0.285969 0.282893 0)
  (-0.281134 0.278995 0)
  (-0.272928 0.277823 0)
  (-0.262097 0.279529 0)
  (-0.249718 0.284145 0)
  (-0.237034 0.291481 0)
  (-0.225054 0.300957 0)
  (-0.214367 0.311686 0)
  (-0.205109 0.322551 0)
  (-0.197012 0.33256 0)
  (-0.189625 0.341231 0)
  (-0.182534 0.348557 0)
  (-0.175439 0.354752 0)
  (-0.16813 0.360066 0)
  (-0.160466 0.364708 0)
  (-0.152367 0.368819 0)
  (-0.143826 0.372476 0)
  (-0.134899 0.375725 0)
  (-0.125712 0.378629 0)
  (-0.116481 0.381311 0)
  (-0.107522 0.383965 0)
  (-0.0990053 0.386696 0)
  (-0.0902817 0.388814 0)
  (-0.0803296 0.387687 0)
  (-0.0739601 0.380454 0)
  (-0.0903234 0.373947 0)
  (-0.124013 0.392987 0)
  (0.354908 0.444314 0)
)
;

boundaryField
{
  floor
  {
    type noSlip;
  }
  ceiling
  {
    type noSlip;
  }
  sWall
  {
    type noSlip;
  }
  nWall
  {
    type noSlip;
  }
  sideWalls
  {
    type empty;
  }
  glass1
  {
    type noSlip;
  }
  glass2
  {
    type noSlip;
  }
  sun
  {
    type noSlip;
  }
  heatsource1
  {
    type noSlip;
  }
  heatsource2
  {
    type noSlip;
  }
  Table_master
  {
    type noSlip;
  }
  Table_slave
  {
    type noSlip;
  }
  inlet
  {
    type fixedValue;
    value uniform (0.277164 -0.114805 0);
  }
  outlet
  {
    type zeroGradient;
  }
} 	// ************************************************************************* //

