/*--------------------------------*- C++ -*----------------------------------*\
  =========                 |
  \\      /  F ield         | OpenFOAM: The Open Source CFD Toolbox
   \\    /   O peration     | Website:  https://openfoam.org
    \\  /    A nd           | Version:  6
     \\/     M anipulation  |
\*---------------------------------------------------------------------------*/
FoamFile
{
    version     2.0;
    format      ascii;
    class       surfaceScalarField;
    location    "590";
    object      phi;
}
// * * * * * * * * * * * * * * * * * * * * * * * * * * * * * * * * * * * * * //

dimensions      [1 0 -1 0 0 0 0];

internalField   nonuniform List<scalar> 
852
(
-0.00249168
0.00253486
-0.00331954
0.000827863
-0.00398524
0.000665691
-0.00452972
0.000544482
-0.00492194
0.00039221
-0.00513937
0.000217433
-0.00515847
1.90936e-05
-0.00495471
-0.000203762
-0.00451979
-0.000434922
-0.00388031
-0.000639486
-0.00309457
-0.000785746
-0.00223817
-0.0008564
-0.00139362
-0.000844549
-0.000645317
-0.000748309
-0.000648703
0.000153807
-0.000158722
0.000437941
-0.000284137
0.00083711
-0.000399172
0.00117098
-0.00033387
0.00141713
-0.000246154
0.00158339
-0.000166272
0.00166682
-8.34287e-05
0.00169539
-2.85696e-05
0.00170254
-7.15344e-06
0.00170007
2.46376e-06
0.00169003
1.00315e-05
0.00167144
1.85862e-05
0.00163882
3.26188e-05
0.0015771
6.17139e-05
0.00145096
0.000126137
0.00119928
0.000251681
0.00076661
0.000432662
4.48972e-05
0.000721709
3.81506e-05
-0.00180736
0.0044591
-0.00264641
0.00166691
-0.00334816
0.00136744
-0.00389123
0.00108755
-0.00427966
0.000780636
-0.00450232
0.000440092
-0.00453539
5.21539e-05
-0.00435444
-0.000384708
-0.0039579
-0.000831471
-0.00338427
-0.00121311
-0.00270198
-0.00146804
-0.00199275
-0.00156563
-0.00133848
-0.00149882
-0.000806137
-0.00128065
-0.000532453
-0.00092239
-8.53953e-05
-0.000447111
-8.54494e-05
-9.58482e-06
-0.000161294
0.000710338
-0.00100406
0.00106649
-0.000755328
0.00131973
-0.000587117
0.00151157
-0.000437999
0.00163901
-0.000293709
0.00166741
-0.000111839
0.00167546
-3.66159e-05
0.001683
-1.46971e-05
0.001689
-3.54339e-06
0.0016927
6.32967e-06
0.00169401
1.7273e-05
0.00169176
3.48583e-05
0.00168094
7.25283e-05
0.00162573
0.000181347
0.00141075
0.000466661
0.0010406
0.000802806
0.000646365
0.00111594
0.000666248
-0.00129709
0.00593559
-0.00204311
0.00241294
-0.00268199
0.00200631
-0.00315843
0.00156398
-0.00350783
0.00113003
-0.00371893
0.000651196
-0.00375784
9.10571e-05
-0.00358261
-0.000559937
-0.003198
-0.00121608
-0.0026622
-0.00174892
-0.00205063
-0.00207961
-0.00143487
-0.0021814
-0.000876501
-0.0020572
-0.000425217
-0.00173194
-0.000111195
-0.00123642
7.99975e-05
-0.000638308
-5.45546e-06
0.00101291
-0.00119149
0.00109041
-0.00108157
0.00130025
-0.000965175
0.0014575
-0.000744366
0.00156895
-0.000549449
0.00167984
-0.000404604
0.00156815
0.00153168
0.00151713
0.00151373
0.00152021
0.00153763
0.00157263
0.00164531
0.0018268
0.00161615
0.000677312
0.00135821
0.00106074
0.000971465
0.00150268
0.00160882
-0.000936577
0.0071051
-0.0015508
0.00302715
-0.00199845
0.00245396
-0.00233625
0.00190178
-0.00259655
0.00139033
-0.0027616
0.000816239
-0.0027819
0.000111352
-0.00258345
-0.000758392
-0.00219673
-0.00160281
-0.00170816
-0.00223748
-0.00118993
-0.00259785
-0.000692103
-0.00267922
-0.000246165
-0.00250314
0.000142133
-0.00212024
0.000494198
-0.00158848
0.000876304
-0.00102042
0.00146422
-0.000593379
0.00207683
-0.000629692
0.00186232
-0.000976986
0.00170369
-0.000922937
0.00155926
-0.000820757
0.00148835
-0.000673453
0.00146135
-0.00052246
0.00142254
-0.000365796
0.00160057
-0.000178188
0.00172579
-0.000125372
0.00183857
-0.000112934
0.00194444
-0.00010602
0.00203587
-9.15888e-05
0.00209614
-6.04308e-05
0.00209455
1.44169e-06
0.00198623
0.000108157
0.00170126
0.000284818
0.00169288
0.000685692
0.00159118
0.00116243
0.00138825
0.00170561
0.00295951
-0.000678239
0.00806207
-0.00116357
0.00351248
-0.00130617
0.00259655
-0.0014394
0.002035
-0.00155575
0.00150668
-0.00162431
0.000884798
-0.00157394
6.09737e-05
-0.0013084
-0.00102393
-0.000932928
-0.00197829
-0.000537288
-0.00263312
-0.000166954
-0.00296818
0.000155937
-0.00300211
0.000427548
-0.00277475
0.000666255
-0.00235895
0.000910522
-0.00183276
0.00119465
-0.00130455
0.00151057
-0.000909303
0.00168913
-0.000808255
0.00153222
-0.000820075
0.00138425
-0.000774977
0.00125063
-0.000687131
0.00115738
-0.000580216
0.00110576
-0.000470838
0.00110092
-0.000360958
0.00118596
-0.000263236
0.00128181
-0.000221232
0.00138092
-0.000212049
0.00148188
-0.000206982
0.00157935
-0.000189066
0.00166351
-0.000144593
0.00171975
-5.48065e-05
0.00173108
9.68217e-05
0.00169845
0.000317445
0.00173779
0.000646349
0.00188831
0.00101191
0.00239486
0.00119904
0.00367852
0.00167585
0.00244588
0.00123244
0.00148699
0.000958676
0.00152761
-0.000599478
0.00897929
-0.000946457
0.00385946
-0.000655991
0.00230608
-0.00049794
0.00187695
-0.000418978
0.00142771
-0.000319659
0.000785474
-8.73516e-05
-0.000171339
0.000244894
-0.00135618
0.000549975
-0.00228337
0.000783712
-0.00286686
0.000938617
-0.00312308
0.00102647
-0.00308997
0.001073
-0.00282128
0.00110207
-0.00238803
0.00113963
-0.00187032
0.00120121
-0.00136613
0.00126653
-0.000974629
0.00123179
-0.000773514
0.00109362
-0.000681918
0.000935807
-0.000617163
0.000796171
-0.000547499
0.000693783
-0.000477832
0.000636932
-0.000413991
0.000632962
-0.000356993
0.000684147
-0.000314426
0.000763576
-0.000300665
0.000855261
-0.00030374
0.000952939
-0.000304665
0.0010535
-0.000289635
0.00115571
-0.000246809
0.00126042
-0.000159519
0.00135892
-1.68493e-06
0.00144734
0.000229025
0.00157951
0.000514166
0.00178683
0.000804586
0.00201026
0.000975607
0.00231415
0.00137195
0.00202933
0.00151725
0.00123708
0.00175093
0.00280777
-0.000717828
0.0100496
-0.000646201
0.00378783
0.00018615
0.00147373
0.000621422
0.00144167
0.000900378
0.00114875
0.00126052
0.000425329
0.00169265
-0.000603482
0.00199968
-0.0016632
0.00214705
-0.00243074
0.00214827
-0.00286808
0.00203334
-0.00300816
0.00184203
-0.00289865
0.00161568
-0.00259493
0.00138866
-0.00216101
0.00118488
-0.00166654
0.00101776
-0.00119901
0.000876647
-0.000833525
0.000720703
-0.000617575
0.000548622
-0.000509841
0.000381475
-0.00045002
0.000241796
-0.000407825
0.000141016
-0.000377057
8.39107e-05
-0.00035689
7.29057e-05
-0.000345993
0.000103949
-0.000345474
0.000160994
-0.000357715
0.000230806
-0.000373557
0.000307308
-0.000381172
0.000389254
-0.000371586
0.000480634
-0.000338196
0.000593021
-0.000271911
0.000742627
-0.000151296
0.000916314
5.53322e-05
0.00110702
0.000323454
0.00132158
0.000590017
0.00149236
0.000804823
0.00171307
0.00115125
0.00182345
0.00140685
0.00154357
0.00203081
0.00439658
0.00199963
0.00844359
0.00254302
0.00324444
0.00257631
0.00144043
0.00276864
0.00124934
0.00302382
0.000893565
0.00345901
-9.86891e-06
0.00386228
-0.00100675
0.00396824
-0.00176917
0.00379895
-0.00226145
0.00343476
-0.00250389
0.0029532
-0.0025266
0.00242025
-0.0023657
0.0018901
-0.00206479
0.00140223
-0.00167315
0.000975464
-0.00123978
0.000626415
-0.00084997
0.000347953
-0.000555068
0.000122133
-0.00039176
-6.9125e-05
-0.000318587
-0.000228589
-0.000290561
-0.000353987
-0.000282432
-0.000445616
-0.000285432
-0.000505085
-0.000297426
-0.000534408
-0.000316676
-0.0005379
-0.000341987
-0.000524391
-0.00037123
-0.000500821
-0.000397133
-0.000471357
-0.000410643
-0.000438856
-0.000404092
-0.000402844
-0.000374213
-0.000350245
-0.000324515
-0.000246711
-0.000254836
-6.05435e-05
-0.000130841
0.000173535
8.93701e-05
0.000409741
0.000353805
0.00059713
0.000617429
0.000819345
0.000929026
0.00102148
0.00120472
0.000601389
0.00245089
0.00518889
0.00884702
0.0120618
0.0103116
0.00319059
0.00917778
0.00238318
0.00843635
0.00163499
0.00781601
0.000610475
0.00704169
-0.000232432
0.00613997
-0.000867451
0.00518525
-0.00130672
0.00422703
-0.00154567
0.00329812
-0.00159768
0.00242625
-0.00149382
0.00164221
-0.00128076
0.000973357
-0.0010043
0.000417962
-0.000684395
-7.08444e-06
-0.00042493
-0.000310037
-0.000252121
-0.000523624
-0.000178178
-0.00068519
-0.000157026
-0.000814083
-0.000161673
-0.000920938
-0.000175582
-0.00101056
-0.000195817
-0.00108656
-0.000221431
-0.00115188
-0.000251359
-0.00120921
-0.00028466
-0.00126145
-0.000318999
-0.00131014
-0.000348444
-0.00135731
-0.000363481
-0.00141016
-0.000351253
-0.00148618
-0.000298196
-0.00160751
-0.000203189
-0.00178638
-7.59721e-05
-0.00202196
0.000104738
-0.00230953
0.000376932
-0.00271457
0.000758843
-0.0033782
0.00128105
-0.0044378
0.00198862
-0.00597051
0.00273743
-0.00629115
0.00277152
-0.000896722
0.00388029
0.00353629
0.00379762
0.00246585
0.00454577
0.000886852
0.00481164
0.000344616
0.00465532
-7.60928e-05
0.00425311
-0.000465232
0.00366033
-0.000713928
0.00293668
-0.000822021
0.00214864
-0.000809643
0.00135619
-0.000701379
0.000623899
-0.000548477
2.02459e-06
-0.000382433
-0.000466202
-0.000216176
-0.000769666
-0.000121472
-0.000961293
-6.04993e-05
-0.00109651
-4.29668e-05
-0.00120304
-5.05031e-05
-0.00129576
-6.89591e-05
-0.0013856
-8.57442e-05
-0.00147738
-0.000104048
-0.00157484
-0.000123971
-0.00168142
-0.000144785
-0.0017997
-0.000166391
-0.00193044
-0.000188258
-0.00207108
-0.00020781
-0.00221561
-0.000218959
-0.00235721
-0.000209655
-0.00249641
-0.000159007
-0.0026386
-6.10026e-05
-0.00278609
7.15142e-05
-0.0029268
0.000245445
-0.00304734
0.000497466
-0.00314676
0.000858254
-0.00321303
0.00134731
-0.00320009
0.00197567
-0.00298987
0.0025272
-0.00132186
0.00110352
-0.0021741
0.000520318
0.00300212
0.00199053
0.000995646
0.00246341
0.000413994
0.00257429
0.000233739
0.00243846
5.97511e-05
0.00209756
-0.000124331
0.00161758
-0.000233957
0.00104523
-0.000249677
0.000452876
-0.0002173
-8.45684e-05
-0.000163947
-0.000538525
-9.45294e-05
-0.000893653
-2.73136e-05
-0.00112703
1.71898e-05
-0.00128413
3.5623e-05
-0.00138334
3.87078e-05
-0.00145697
3.06598e-05
-0.00152505
1.75645e-05
-0.00159658
2.56907e-06
-0.00167019
-1.21415e-05
-0.00174867
-2.55712e-05
-0.00183493
-3.77129e-05
-0.00193209
-4.76351e-05
-0.00204465
-5.38316e-05
-0.00217826
-5.46566e-05
-0.00233743
-4.86406e-05
-0.0025217
-3.46953e-05
-0.00271903
-1.23327e-05
-0.00289889
2.08509e-05
-0.00302674
6.68354e-05
-0.00309139
0.00013616
-0.00308335
0.000237398
-0.00296285
0.000376967
-0.00267932
0.000574717
-0.00216724
0.00083523
-0.00123255
0.00104098
0.000333262
0.000961381
0.00141578
2.09906e-05
-0.0007134
-0.00361331
-0.00492503
-0.00194632
-0.000983365
-0.000608099
-0.000416261
-0.000400979
-0.000571677
-0.000853132
-0.00115105
-0.00141716
-0.00163062
-0.00177565
-0.00185471
-0.00189044
-0.00190862
-0.00192433
-0.00194853
-0.00198614
-0.00203903
-0.00210682
-0.00218818
-0.00228177
-0.00238535
-0.00249521
-0.00260609
-0.00271138
-0.00280354
-0.00287456
-0.00291394
-0.00290908
-0.00283675
-0.002665
-0.00235533
-0.00184925
-0.00108364
-0.000113075
0.000777023
0.000728428
)
;

boundaryField
{
    floor
    {
        type            calculated;
        value           nonuniform List<scalar> 
29
(
0
0
0
0
0
0
0
0
0
0
0
0
0
0
0
0
0
0
0
0
6.74552e-06
1.82636e-05
2.88918e-05
3.75543e-05
3.38288e-06
4.91163e-06
1.21539e-05
1.72801e-05
1.7086e-05
)
;
    }
    ceiling
    {
        type            calculated;
        value           nonuniform List<scalar> 
43
(
2.83675e-05
2.51221e-05
2.34039e-05
3.26937e-05
3.87247e-05
4.18913e-05
4.44522e-05
4.63484e-05
4.74816e-05
4.82223e-05
4.88029e-05
4.94993e-05
5.04978e-05
5.17384e-05
5.29072e-05
5.37955e-05
5.44196e-05
5.48455e-05
5.51708e-05
5.54516e-05
5.56445e-05
5.57843e-05
5.58768e-05
5.59382e-05
5.60199e-05
5.62149e-05
5.66503e-05
5.74541e-05
5.86867e-05
6.02249e-05
6.19688e-05
6.38236e-05
6.56425e-05
6.72936e-05
6.86347e-05
6.96138e-05
7.04087e-05
7.12779e-05
6.95803e-05
7.1795e-05
3.62889e-05
2.96774e-05
1.3861e-05
)
;
    }
    sWall
    {
        type            calculated;
        value           uniform -0.000219367;
    }
    nWall
    {
        type            calculated;
        value           nonuniform List<scalar> 6(-4.08248e-05 -4.30842e-05 -4.52484e-05 -4.44883e-05 -4.49256e-05 -5.67721e-05);
    }
    sideWalls
    {
        type            empty;
        value           nonuniform 0();
    }
    glass1
    {
        type            calculated;
        value           nonuniform List<scalar> 9(-4.31823e-05 -0.000116894 -0.000179404 -0.000232935 -0.00027873 -0.000317751 -0.000352445 -0.000393664 -0.000439721);
    }
    glass2
    {
        type            calculated;
        value           nonuniform List<scalar> 2(-0.000190926 -0.000205539);
    }
    sun
    {
        type            calculated;
        value           uniform 0;
    }
    heatsource1
    {
        type            calculated;
        value           nonuniform List<scalar> 3(2.00269e-07 2.00806e-07 2.01211e-07);
    }
    heatsource2
    {
        type            calculated;
        value           nonuniform List<scalar> 4(5.03768e-08 5.04815e-08 0 0);
    }
    Table_master
    {
        type            calculated;
        value           nonuniform List<scalar> 9(-1.50769e-07 -1.50856e-07 -1.5088e-07 -1.50894e-07 -1.50901e-07 -1.50903e-07 -1.50897e-07 -1.5088e-07 -1.50828e-07);
    }
    Table_slave
    {
        type            calculated;
        value           nonuniform List<scalar> 9(1.507e-07 1.50713e-07 1.50678e-07 1.50643e-07 1.50612e-07 1.50593e-07 1.50596e-07 1.50603e-07 1.50649e-07);
    }
    inlet
    {
        type            calculated;
        value           uniform -0.00422597;
    }
    outlet
    {
        type            calculated;
        value           nonuniform List<scalar> 2(0.00380431 0.00128661);
    }
}


// ************************************************************************* //
