/*--------------------------------*- C++ -*----------------------------------*\
  =========                 |
  \\      /  F ield         | OpenFOAM: The Open Source CFD Toolbox
   \\    /   O peration     | Website:  https://openfoam.org
    \\  /    A nd           | Version:  6
     \\/     M anipulation  |
\*---------------------------------------------------------------------------*/
FoamFile
{
    version     2.0;
    format      ascii;
    class       volScalarField;
    location    "590";
    object      T;
}
// * * * * * * * * * * * * * * * * * * * * * * * * * * * * * * * * * * * * * //

dimensions      [0 0 0 1 0 0 0];

internalField   nonuniform List<scalar> 
459
(
305.619
305.439
305.435
305.437
305.438
305.438
305.438
305.437
305.434
305.427
305.418
305.408
305.398
305.389
305.376
305.296
305.365
305.39
305.4
305.404
305.405
305.403
305.399
305.394
305.389
305.384
305.379
305.374
305.368
305.362
305.355
305.346
305.323
305.17
305.756
305.491
305.483
305.49
305.497
305.501
305.503
305.501
305.493
305.478
305.458
305.438
305.421
305.412
305.409
305.413
305.416
305.39
305.43
305.44
305.448
305.453
305.457
305.457
305.455
305.454
305.452
305.45
305.448
305.445
305.441
305.434
305.423
305.404
305.371
305.352
305.892
305.535
305.517
305.531
305.545
305.556
305.562
305.562
305.55
305.525
305.49
305.454
305.428
305.413
305.409
305.412
305.415
305.427
305.44
305.454
305.464
305.473
305.479
305.479
305.478
305.477
305.476
305.475
305.474
305.473
305.471
305.467
305.458
305.44
305.409
305.389
306.026
305.581
305.546
305.565
305.589
305.611
305.627
305.633
305.618
305.578
305.523
305.468
305.429
305.41
305.406
305.41
305.416
305.421
305.434
305.449
305.465
305.48
305.492
305.501
305.509
305.517
305.523
305.529
305.534
305.538
305.541
305.544
305.545
305.52
305.488
305.45
305.421
306.155
305.635
305.574
305.591
305.622
305.656
305.687
305.703
305.683
305.626
305.549
305.475
305.425
305.403
305.4
305.409
305.42
305.434
305.45
305.468
305.486
305.502
305.515
305.526
305.535
305.543
305.549
305.554
305.558
305.561
305.562
305.562
305.559
305.547
305.524
305.489
305.452
305.452
305.453
305.478
306.27
305.702
305.614
305.614
305.643
305.682
305.728
305.755
305.725
305.65
305.557
305.472
305.415
305.392
305.393
305.409
305.429
305.45
305.471
305.492
305.511
305.527
305.54
305.55
305.558
305.564
305.568
305.572
305.574
305.575
305.575
305.573
305.57
305.562
305.546
305.522
305.491
305.478
305.471
305.487
306.372
305.809
305.71
305.68
305.69
305.72
305.768
305.782
305.736
305.644
305.536
305.445
305.389
305.373
305.386
305.413
305.444
305.472
305.498
305.52
305.538
305.552
305.563
305.57
305.576
305.579
305.582
305.583
305.584
305.583
305.582
305.58
305.576
305.569
305.558
305.541
305.518
305.5
305.487
305.496
306.523
306.088
305.97
305.889
305.849
305.844
305.853
305.811
305.713
305.586
305.466
305.381
305.344
305.35
305.385
305.428
305.469
305.502
305.528
305.548
305.562
305.572
305.579
305.583
305.586
305.588
305.588
305.588
305.587
305.586
305.583
305.581
305.577
305.571
305.563
305.551
305.535
305.52
305.51
305.575
306.733
306.532
306.355
306.207
306.098
306.021
305.919
305.755
305.574
305.418
305.315
305.274
305.288
305.338
305.402
305.459
305.506
305.535
305.555
305.568
305.577
305.583
305.587
305.589
305.59
305.591
305.59
305.589
305.588
305.586
305.583
305.58
305.577
305.575
305.573
305.574
305.58
305.591
305.609
305.651
302.498
304.008
304.67
304.864
304.902
304.921
304.947
304.995
305.068
305.163
305.268
305.367
305.453
305.504
305.537
305.557
305.57
305.578
305.583
305.586
305.588
305.59
305.59
305.591
305.591
305.59
305.589
305.588
305.587
305.585
305.585
305.585
305.586
305.589
305.596
305.607
305.623
305.656
302.624
303.75
304.117
304.319
304.456
304.603
304.76
304.92
305.076
305.225
305.353
305.438
305.496
305.532
305.553
305.566
305.574
305.579
305.582
305.584
305.586
305.587
305.589
305.59
305.591
305.591
305.592
305.593
305.593
305.593
305.593
305.593
305.594
305.596
305.6
305.608
305.622
305.643
303.23
303.137
303.134
303.903
304.222
304.42
304.607
304.81
305.001
305.161
305.287
305.383
305.451
305.495
305.522
305.539
305.549
305.555
305.559
305.562
305.565
305.566
305.568
305.57
305.572
305.573
305.575
305.577
305.579
305.582
305.584
305.586
305.589
305.591
305.593
305.595
305.598
305.604
305.605
305.638
)
;

boundaryField
{
    floor
    {
        type            wallHeatTransfer;
        Tinf            uniform 301.25;
        alphaWall       uniform 0.24;
        value           nonuniform List<scalar> 
29
(
304.92
304.636
304.819
304.82
304.805
304.787
304.766
304.736
304.703
304.669
304.636
304.604
304.572
304.542
304.511
304.48
304.445
304.406
304.34
304.266
304.266
304.533
304.61
304.695
304.92
304.636
304.845
304.96
305.038
)
;
    }
    ceiling
    {
        type            wallHeatTransfer;
        Tinf            uniform 301.25;
        alphaWall       uniform 0.24;
        value           nonuniform List<scalar> 
43
(
303.068
302.993
302.999
303.717
304.002
304.182
304.355
304.546
304.73
304.886
305.008
305.1
305.162
305.199
305.22
305.231
305.238
305.242
305.244
305.245
305.246
305.247
305.249
305.25
305.251
305.251
305.251
305.248
305.243
305.237
305.229
305.221
305.213
305.206
305.201
305.199
305.198
305.199
305.21
305.23
306.45
306.298
302.536
)
;
    }
    sWall
    {
        type            wallHeatTransfer;
        Tinf            uniform 314.15;
        alphaWall       uniform 0.36;
        value           uniform 304.522;
    }
    nWall
    {
        type            wallHeatTransfer;
        Tinf            uniform 308.15;
        alphaWall       uniform 0.36;
        value           nonuniform List<scalar> 6(306.096 306.022 305.973 305.976 305.934 305.973);
    }
    sideWalls
    {
        type            empty;
    }
    glass1
    {
        type            wallHeatTransfer;
        Tinf            uniform 314.15;
        alphaWall       uniform 4.3;
        value           nonuniform List<scalar> 9(311.729 311.28 310.987 310.757 310.564 310.388 310.243 310.275 310.417);
    }
    glass2
    {
        type            wallHeatTransfer;
        Tinf            uniform 308.15;
        alphaWall       uniform 4.3;
        value           nonuniform List<scalar> 2(307.336 307.329);
    }
    sun
    {
        type            wallHeatTransfer;
        Tinf            uniform 301.25;
        alphaWall       uniform 0.24;
        value           nonuniform List<scalar> 
14
(
305.088
304.961
304.963
304.98
304.995
305.008
305.019
305.029
305.034
305.034
305.027
305.014
304.994
304.965
)
;
    }
    heatsource1
    {
        type            fixedGradient;
        gradient        uniform 0;
    }
    heatsource2
    {
        type            fixedGradient;
        gradient        uniform 0;
    }
    Table_master
    {
        type            zeroGradient;
    }
    Table_slave
    {
        type            zeroGradient;
    }
    inlet
    {
        type            fixedValue;
        value           uniform 299.15;
    }
    outlet
    {
        type            zeroGradient;
    }
}


// ************************************************************************* //
