/*--------------------------------*- C++ -*----------------------------------*\
  =========                 |
  \\      /  F ield         | OpenFOAM: The Open Source CFD Toolbox
   \\    /   O peration     | Website:  https://openfoam.org
    \\  /    A nd           | Version:  6
     \\/     M anipulation  |
\*---------------------------------------------------------------------------*/
FoamFile
{
    version     2.0;
    format      ascii;
    class       volScalarField;
    location    "1000";
    object      nut;
}
// * * * * * * * * * * * * * * * * * * * * * * * * * * * * * * * * * * * * * //

dimensions      [0 2 -1 0 0 0 0];

internalField   nonuniform List<scalar> 
459
(
0.00119851
0.00131988
0.00135713
0.00142845
0.00149787
0.00156865
0.00163382
0.00167764
0.00169199
0.00167181
0.00161217
0.00149047
0.00131146
0.00110554
0.000933045
0.000537032
0.000631974
0.000736853
0.000791462
0.000793557
0.000772007
0.000723851
0.000672524
0.000626157
0.000585664
0.000550415
0.000519645
0.000492529
0.000468507
0.000446689
0.00042591
0.000404535
0.00038449
0.00034853
0.00159049
0.0040613
0.00396886
0.0046167
0.00525962
0.00580637
0.00623274
0.00660321
0.00688664
0.00705574
0.00708366
0.00692228
0.00649185
0.00571695
0.00386712
0.0011811
0.00091767
0.000527998
0.00132767
0.00207027
0.00268516
0.00305901
0.00302027
0.00214354
0.00177393
0.00153298
0.00135835
0.00122557
0.0011212
0.00103793
0.000961836
0.000882472
0.00080668
0.000740084
0.000805959
0.000412073
0.00191117
0.0055194
0.00492403
0.00580773
0.00624304
0.006574
0.0068647
0.00717499
0.00749947
0.00780953
0.00805488
0.00814695
0.00799599
0.00754189
0.00642178
0.00427404
0.00117587
0.000771539
0.00145154
0.00229319
0.00318935
0.00383295
0.00368116
0.000997904
0.000867371
0.000762525
0.000678792
0.000611502
0.000556898
0.000512188
0.000476093
0.000448804
0.000501585
0.000599205
0.000929736
0.000457175
0.00221428
0.00689404
0.00504444
0.0060276
0.00622968
0.00636453
0.00654241
0.00679548
0.00714062
0.00754243
0.00791466
0.00812773
0.00817115
0.00801379
0.00751001
0.00626106
0.00346769
0.00134382
0.00163439
0.00235832
0.00338105
0.00439487
0.00507106
0.0047189
0.0011354
0.00102658
0.000944045
0.000877011
0.00081955
0.000766245
0.000713521
0.000658501
0.000596595
0.000548564
0.000591485
0.00107406
0.000492256
0.00252123
0.00863309
0.00557686
0.00610531
0.00626643
0.00626337
0.00633655
0.0065252
0.00687631
0.00730973
0.00770075
0.00794094
0.00800048
0.00791459
0.00769024
0.0071629
0.00606689
0.00533408
0.00554052
0.00601814
0.00656182
0.00698096
0.00715137
0.00687733
0.00557535
0.00489069
0.00444149
0.00405902
0.00363784
0.00317153
0.00266377
0.00212949
0.00159688
0.00113162
0.000870229
0.00103939
0.000628245
0.000588168
0.000709016
0.000797354
0.00284623
0.0105593
0.00747933
0.00666336
0.00672311
0.00650937
0.00639214
0.0064829
0.00681731
0.00728142
0.00769727
0.00792243
0.00793082
0.0078203
0.00773126
0.00772224
0.00770916
0.00790125
0.00832861
0.00867557
0.00884957
0.00882773
0.0086144
0.00819312
0.00750549
0.00686144
0.00628744
0.00572121
0.00513265
0.00451201
0.0038513
0.00315563
0.0024511
0.00180202
0.00135477
0.00114826
0.000872897
0.000764344
0.00109865
0.000835862
0.00313124
0.011855
0.0101087
0.0083939
0.00760376
0.00686339
0.00649584
0.00655029
0.00694343
0.00748202
0.00793309
0.00813512
0.00809478
0.00800542
0.00814871
0.00863064
0.00917959
0.00968308
0.0100467
0.0101297
0.00997284
0.00962824
0.00914442
0.00855047
0.0078616
0.0071883
0.00655184
0.00593392
0.00532568
0.00475086
0.00416859
0.00357565
0.00296394
0.00235706
0.00188906
0.00155743
0.00129691
0.00125536
0.00130651
0.000981182
0.00318065
0.0101711
0.0092694
0.0081331
0.00706608
0.00640154
0.00626967
0.00661918
0.00727147
0.00795659
0.00841861
0.00854075
0.00845475
0.00852225
0.00913825
0.00980854
0.0102531
0.010525
0.0105849
0.0103742
0.00993455
0.00932987
0.00861475
0.00783238
0.00703149
0.0062714
0.00557173
0.00494191
0.00440551
0.00399103
0.00369502
0.00344494
0.00313528
0.00277177
0.00253755
0.00248199
0.00267515
0.00318196
0.00389061
0.00149464
0.00309487
0.00364099
0.00392368
0.00400841
0.00428113
0.00493935
0.00593305
0.00709195
0.00816453
0.00887039
0.00906421
0.00887434
0.00898203
0.00935553
0.00979718
0.0101069
0.0102214
0.0101584
0.00989009
0.00940159
0.00872713
0.00791948
0.00703073
0.0061222
0.00526269
0.00450206
0.00385724
0.00333535
0.00294353
0.00266684
0.002483
0.00236744
0.00229941
0.00226578
0.00226545
0.00228051
0.0022572
0.00215202
0.00200147
0.00139019
0.00124666
0.00307192
0.00614172
0.00821184
0.00947249
0.0101068
0.0101979
0.00986507
0.00921671
0.00874159
0.00875195
0.00898435
0.00910675
0.00906928
0.00888444
0.00853647
0.0080035
0.00729986
0.00648157
0.00562434
0.00480282
0.00407606
0.00347587
0.00300799
0.00266448
0.00243097
0.00228509
0.00220966
0.00218546
0.00219787
0.00223566
0.00228835
0.00234076
0.00236602
0.00233144
0.00223886
0.00205399
0.00116547
0.00202636
0.00679562
0.00915141
0.00963685
0.00949598
0.00897488
0.00827366
0.00762747
0.0071392
0.00685843
0.00673334
0.00661425
0.0064562
0.00625887
0.00599489
0.00563152
0.00516461
0.0046318
0.00409673
0.00361753
0.00322478
0.00292061
0.00269085
0.00251765
0.00238644
0.00228825
0.00221975
0.00218226
0.00217845
0.00220966
0.00227273
0.00235622
0.00243848
0.00250156
0.00247768
0.00251953
0.00251664
0.00118844
0.00182896
0.00194016
0.00202051
0.00218226
0.00204315
0.00191579
0.00180863
0.00167999
0.00153641
0.00139427
0.00127058
0.00117861
0.00111474
0.00106893
0.00103269
0.000999676
0.000965519
0.000928428
0.00088936
0.000851055
0.000816406
0.000787236
0.000764061
0.000746599
0.000734513
0.000727944
0.000727668
0.00073487
0.000750736
0.000776053
0.000811136
0.000856017
0.000910702
0.000974936
0.00104769
0.00113162
0.00114826
0.00110681
0.00104394
0.000971755
)
;

boundaryField
{
    floor
    {
        type            nutkWallFunction;
        Cmu             0.09;
        kappa           0.41;
        E               9.8;
        value           nonuniform List<scalar> 
29
(
0.000112817
6.44268e-05
7.63326e-05
8.92371e-05
9.58692e-05
9.61235e-05
9.35149e-05
8.76531e-05
8.13536e-05
7.5613e-05
7.05577e-05
6.61222e-05
6.22217e-05
5.87609e-05
5.5675e-05
5.2855e-05
5.01531e-05
4.73563e-05
4.47158e-05
3.99343e-05
3.99342e-05
4.83412e-05
5.42069e-05
5.87188e-05
0.000112817
6.44267e-05
6.32809e-05
9.3442e-05
0.000160461
)
;
    }
    ceiling
    {
        type            nutkWallFunction;
        Cmu             0.09;
        kappa           0.41;
        E               9.8;
        value           nonuniform List<scalar> 
43
(
0.000214587
0.000226767
0.000235522
0.000253147
0.000238115
0.000224234
0.000212471
0.000198248
0.000182229
0.000166209
0.000152123
0.00014155
0.000134153
0.000128819
0.000124581
0.000120704
0.000116677
0.000112285
0.000107636
0.000103055
9.88897e-05
9.53671e-05
9.25572e-05
9.0433e-05
8.89588e-05
8.81556e-05
8.81201e-05
8.89973e-05
9.09283e-05
9.40008e-05
9.824e-05
0.000103633
0.00011016
0.000117769
0.000126319
0.000136099
0.000138028
0.000133217
0.00012588
0.000117394
0.000349984
0.000406359
0.000235987
)
;
    }
    sWall
    {
        type            nutkWallFunction;
        Cmu             0.09;
        kappa           0.41;
        E               9.8;
        value           uniform 0.000214646;
    }
    nWall
    {
        type            nutkWallFunction;
        Cmu             0.09;
        kappa           0.41;
        E               9.8;
        value           nonuniform List<scalar> 6(9.65733e-05 0.000101213 0.000118507 0.000140036 0.00014269 0.0001174);
    }
    sideWalls
    {
        type            empty;
    }
    glass1
    {
        type            nutkWallFunction;
        Cmu             0.09;
        kappa           0.41;
        E               9.8;
        value           nonuniform List<scalar> 9(0.000143981 0.000188531 0.000224061 0.00025705 0.000289968 0.000324365 0.000354194 0.000359347 0.000350433);
    }
    glass2
    {
        type            nutkWallFunction;
        Cmu             0.09;
        kappa           0.41;
        E               9.8;
        value           nonuniform List<scalar> 2(0.00017761 0.000165809);
    }
    sun
    {
        type            nutkWallFunction;
        Cmu             0.09;
        kappa           0.41;
        E               9.8;
        value           nonuniform List<scalar> 
14
(
0.000143838
0.000157746
0.000161986
0.000170071
0.000177897
0.000185834
0.000193108
0.00019798
0.000199572
0.00019733
0.00019069
0.000177048
0.000156778
0.00013307
)
;
    }
    heatsource1
    {
        type            nutkWallFunction;
        Cmu             0.09;
        kappa           0.41;
        E               9.8;
        value           nonuniform List<scalar> 3(7.08635e-05 8.58282e-05 9.65728e-05);
    }
    heatsource2
    {
        type            nutkWallFunction;
        Cmu             0.09;
        kappa           0.41;
        E               9.8;
        value           nonuniform List<scalar> 4(0.000141816 0.000110991 0.000110991 0.000141208);
    }
    Table_master
    {
        type            nutkWallFunction;
        Cmu             0.09;
        kappa           0.41;
        E               9.8;
        value           nonuniform List<scalar> 9(0.000120481 0.000104997 9.23629e-05 8.21257e-05 7.37892e-05 6.69428e-05 6.12757e-05 5.6656e-05 5.31345e-05);
    }
    Table_slave
    {
        type            nutkWallFunction;
        Cmu             0.09;
        kappa           0.41;
        E               9.8;
        value           nonuniform List<scalar> 9(0.000136543 0.000123851 0.000114123 0.000106149 9.92576e-05 9.28132e-05 8.63867e-05 7.96195e-05 7.19235e-05);
    }
    inlet
    {
        type            calculated;
        value           uniform 0.000100623;
    }
    outlet
    {
        type            calculated;
        value           nonuniform List<scalar> 2(0.00182896 0.00194016);
    }
}


// ************************************************************************* //
