/*--------------------------------*- C++ -*----------------------------------*\
  =========                 |
  \\      /  F ield         | OpenFOAM: The Open Source CFD Toolbox
   \\    /   O peration     | Website:  https://openfoam.org
    \\  /    A nd           | Version:  6
     \\/     M anipulation  |
\*---------------------------------------------------------------------------*/
FoamFile
{
    version     2.0;
    format      ascii;
    class       volScalarField;
    location    "100";
    object      nut;
}
// * * * * * * * * * * * * * * * * * * * * * * * * * * * * * * * * * * * * * //

dimensions      [0 2 -1 0 0 0 0];

internalField   nonuniform List<scalar> 
459
(
0.000771741
0.000780788
0.000656569
0.000671644
0.000695239
0.000719357
0.00074351
0.000768148
0.000794415
0.00081731
0.000834903
0.000845093
0.000846069
0.00083686
0.00081306
0.000515115
0.000580958
0.00057699
0.000456047
0.000317084
0.000269939
0.000254662
0.000251204
0.000244775
0.00023597
0.000229548
0.000227922
0.000225025
0.000231111
0.000313071
0.000517685
0.000681494
0.000681046
0.000581181
0.00141014
0.00258854
0.00161551
0.00244854
0.00270239
0.00288646
0.00307175
0.00324033
0.00336432
0.00345658
0.00348803
0.00342108
0.00319771
0.00272686
0.00191662
0.000863238
0.000624112
0.000619749
0.00133958
0.00142454
0.00125918
0.000898113
0.000595008
0.000492921
0.000488438
0.000408925
0.00038106
0.000374238
0.000381969
0.000413537
0.000496507
0.000800886
0.00131653
0.00179392
0.00186664
0.000679836
0.00195953
0.00456304
0.00179804
0.00313422
0.0039683
0.00421373
0.00438299
0.00452043
0.00461587
0.00467175
0.00465399
0.00451508
0.00418856
0.00359948
0.00273133
0.00175346
0.00091526
0.000954803
0.00236099
0.00198588
0.00163171
0.0013383
0.00103763
0.000397778
0.000305059
0.000249943
0.000222453
0.000241383
0.000298324
0.000376309
0.000473399
0.000647348
0.00166778
0.0022261
0.00171553
0.000757503
0.00246211
0.00692434
0.00248079
0.00302121
0.00450978
0.00491178
0.00509937
0.00524681
0.00536311
0.0054535
0.00550411
0.00546426
0.00524969
0.0047491
0.00387655
0.00271753
0.00164739
0.00110227
0.0021558
0.00210741
0.00185996
0.00161275
0.00139715
0.00114623
0.000928337
0.000963367
0.0010086
0.00106224
0.00112329
0.00118997
0.00127088
0.00131085
0.00130998
0.00178389
0.00218181
0.0025362
0.00118026
0.00291637
0.00937775
0.00393872
0.00291947
0.00439896
0.00506285
0.00535151
0.00556151
0.00574054
0.0059057
0.00611375
0.0063383
0.00652061
0.00658395
0.00645373
0.00609388
0.00555445
0.00494513
0.00445398
0.00413114
0.0040015
0.00393403
0.00386185
0.00381091
0.00379605
0.00387041
0.0040127
0.00420889
0.0044283
0.00462516
0.00475566
0.00476438
0.00464186
0.004475
0.00408584
0.00358406
0.00249947
0.00121718
0.00106583
0.00111137
0.00333576
0.0115596
0.00658876
0.0039074
0.00389468
0.0045185
0.00502334
0.00538436
0.00563483
0.00582578
0.006127
0.00652909
0.00698078
0.00740204
0.00769927
0.00778786
0.00762764
0.0072561
0.00677854
0.00630599
0.00591389
0.00562816
0.00541921
0.0052529
0.0051133
0.00502294
0.00500956
0.00507227
0.00517165
0.00524438
0.00524326
0.0051586
0.0049976
0.00487411
0.0048579
0.0045608
0.00394328
0.00299281
0.00241007
0.00123202
0.00369266
0.0129896
0.0100745
0.00683399
0.00479175
0.00420022
0.00446504
0.00491737
0.00524849
0.00541318
0.00568183
0.00609437
0.00663873
0.0072469
0.00780366
0.00817374
0.00827725
0.00812215
0.00778371
0.00736617
0.00695996
0.00661503
0.00633143
0.00608476
0.00585527
0.00565661
0.00552697
0.00548712
0.00549789
0.00547312
0.0053517
0.00514151
0.00490196
0.00474637
0.00483342
0.00514506
0.0051131
0.00459699
0.0039089
0.00149293
0.00371609
0.0117293
0.0105269
0.00950393
0.00757107
0.006054
0.00529217
0.00508003
0.00514206
0.00516844
0.00523906
0.0054443
0.00582665
0.00638738
0.00705475
0.00763138
0.00797399
0.00805809
0.00792005
0.00763979
0.00730475
0.00698012
0.00669534
0.00645452
0.00625605
0.00610966
0.00602979
0.00601434
0.0060121
0.00591794
0.0056661
0.00529482
0.00486962
0.00445997
0.00418002
0.00404348
0.0037872
0.00336262
0.00291918
0.00151918
0.00355934
0.0041057
0.00780378
0.00851432
0.00794682
0.00702976
0.00619593
0.00558992
0.00521339
0.00498306
0.00488412
0.0049085
0.00506411
0.00537681
0.00585122
0.00640651
0.00689945
0.00721473
0.0073144
0.00723252
0.00703827
0.00679984
0.00656542
0.00636487
0.00622483
0.00618817
0.00630756
0.00655174
0.00674139
0.00671952
0.00641204
0.00592481
0.00536513
0.00466514
0.00387501
0.00323235
0.00277639
0.00248641
0.00230246
0.00172372
0.016933
0.0161737
0.0101607
0.00806674
0.00689538
0.00612
0.00558573
0.00521099
0.00495337
0.00479687
0.00474045
0.00479833
0.00499076
0.00531218
0.00570039
0.00605379
0.00628968
0.00638268
0.00635701
0.00625783
0.00612949
0.00600828
0.00592677
0.00592823
0.00608842
0.00650254
0.00712664
0.00763778
0.00771033
0.00741543
0.00742416
0.00790951
0.00799129
0.00732653
0.00635962
0.00554577
0.00508564
0.00179639
0.00682902
0.013647
0.00974032
0.00791215
0.00682718
0.00604973
0.00545929
0.00500537
0.00465918
0.00441034
0.00423454
0.00413911
0.00414201
0.00424971
0.00444623
0.00468793
0.00491816
0.00509341
0.00519826
0.00524223
0.00524828
0.00524255
0.00524839
0.0052889
0.00540548
0.0056723
0.00611732
0.00650655
0.00664556
0.00656716
0.00637195
0.006911
0.00723433
0.00713621
0.00682982
0.00645569
0.00496785
0.00179379
0.00365933
0.0043167
0.00514679
0.00402063
0.00332805
0.00289299
0.00254141
0.00226309
0.00203847
0.00185465
0.00170293
0.00157708
0.00147478
0.00139227
0.00132671
0.00127682
0.00124185
0.00122059
0.00121065
0.00120865
0.00121109
0.00121528
0.00121978
0.00122432
0.00122946
0.00123643
0.00124778
0.00126811
0.00130092
0.00135676
0.0014114
0.00140648
0.00138766
0.00145092
0.00165099
0.00184157
0.00191493
0.0018518
0.00174743
0.00158723
)
;

boundaryField
{
    floor
    {
        type            nutkWallFunction;
        Cmu             0.09;
        kappa           0.41;
        E               9.8;
        value           nonuniform List<scalar> 
29
(
9.84612e-05
6.16935e-05
7.00101e-05
6.95013e-05
5.41004e-05
3.57762e-05
2.93303e-05
2.72085e-05
2.67262e-05
2.58278e-05
2.45917e-05
2.36844e-05
2.34492e-05
2.30347e-05
2.39001e-05
3.5245e-05
6.20386e-05
8.24917e-05
8.24279e-05
7.00251e-05
7.00251e-05
8.22502e-05
9.1767e-05
0.000141703
9.84612e-05
6.16935e-05
7.48326e-05
0.000115363
0.000132633
)
;
    }
    ceiling
    {
        type            nutkWallFunction;
        Cmu             0.09;
        kappa           0.41;
        E               9.8;
        value           nonuniform List<scalar> 
43
(
0.000407901
0.000474569
0.000557342
0.000444732
0.000373911
0.00032865
0.000291564
0.000261829
0.00023755
0.00021747
0.000200735
0.00018673
0.000175257
0.00016594
0.000158493
0.000152799
0.000148794
0.000146353
0.00014521
0.00014498
0.00014526
0.000145742
0.000146258
0.000146779
0.000147368
0.000148167
0.000149468
0.000151795
0.000155541
0.000161898
0.000168048
0.000167374
0.000165248
0.000172468
0.000194979
0.000216034
0.000224045
0.000217117
0.000205606
0.000187817
0.000397826
0.000453458
0.000721317
)
;
    }
    sWall
    {
        type            nutkWallFunction;
        Cmu             0.09;
        kappa           0.41;
        E               9.8;
        value           uniform 0.000407983;
    }
    nWall
    {
        type            nutkWallFunction;
        Cmu             0.09;
        kappa           0.41;
        E               9.8;
        value           nonuniform List<scalar> 6(0.000133708 0.000147622 0.000177229 0.00021097 0.000210699 0.000187836);
    }
    sideWalls
    {
        type            empty;
    }
    glass1
    {
        type            nutkWallFunction;
        Cmu             0.09;
        kappa           0.41;
        E               9.8;
        value           nonuniform List<scalar> 9(9.34709e-05 0.000168186 0.000229314 0.00028359 0.000331636 0.000375304 0.000412025 0.000414441 0.000398398);
    }
    glass2
    {
        type            nutkWallFunction;
        Cmu             0.09;
        kappa           0.41;
        E               9.8;
        value           nonuniform List<scalar> 2(0.000180306 0.000203078);
    }
    sun
    {
        type            nutkWallFunction;
        Cmu             0.09;
        kappa           0.41;
        E               9.8;
        value           nonuniform List<scalar> 
14
(
9.34783e-05
9.45731e-05
7.93913e-05
8.12506e-05
8.41507e-05
8.71031e-05
9.00478e-05
9.30401e-05
9.62177e-05
9.89771e-05
0.000101091
0.000102313
0.000102429
0.000101323
)
;
    }
    heatsource1
    {
        type            nutkWallFunction;
        Cmu             0.09;
        kappa           0.41;
        E               9.8;
        value           nonuniform List<scalar> 3(0.000145928 0.000128398 0.000133693);
    }
    heatsource2
    {
        type            nutkWallFunction;
        Cmu             0.09;
        kappa           0.41;
        E               9.8;
        value           nonuniform List<scalar> 4(0.000104475 7.53717e-05 7.53717e-05 0.000110668);
    }
    Table_master
    {
        type            nutkWallFunction;
        Cmu             0.09;
        kappa           0.41;
        E               9.8;
        value           nonuniform List<scalar> 9(4.64966e-05 3.41354e-05 2.65687e-05 2.27246e-05 2.53872e-05 3.32389e-05 4.36983e-05 5.63501e-05 7.82608e-05);
    }
    Table_slave
    {
        type            nutkWallFunction;
        Cmu             0.09;
        kappa           0.41;
        E               9.8;
        value           nonuniform List<scalar> 9(0.000112228 0.000116373 0.0001217 0.000127981 0.000135087 0.000142801 0.0001521 0.000156672 0.000156576);
    }
    inlet
    {
        type            calculated;
        value           uniform 3.3541e-05;
    }
    outlet
    {
        type            calculated;
        value           nonuniform List<scalar> 2(0.00365933 0.0043167);
    }
}


// ************************************************************************* //
