/*--------------------------------*- C++ -*----------------------------------*\
  =========                 |
  \\      /  F ield         | OpenFOAM: The Open Source CFD Toolbox
   \\    /   O peration     | Website:  https://openfoam.org
    \\  /    A nd           | Version:  6
     \\/     M anipulation  |
\*---------------------------------------------------------------------------*/
FoamFile
{
    version     2.0;
    format      ascii;
    class       volScalarField;
    location    "670";
    object      nut;
}
// * * * * * * * * * * * * * * * * * * * * * * * * * * * * * * * * * * * * * //

dimensions      [0 2 -1 0 0 0 0];

internalField   nonuniform List<scalar> 
459
(
0.000762324
0.000840655
0.000871038
0.000917642
0.000961523
0.00100481
0.00105096
0.00109196
0.00112298
0.00113798
0.00113064
0.00109449
0.000970828
0.000822164
0.000694387
0.000422061
0.000614074
0.000633394
0.000640923
0.000637709
0.00062352
0.000592801
0.000558492
0.000526248
0.00049705
0.000470846
0.000447401
0.000426143
0.000406485
0.000387707
0.000368755
0.000347798
0.000315395
0.000278414
0.000991627
0.00239998
0.00230076
0.00265834
0.00303943
0.00341256
0.0036954
0.00398555
0.00427962
0.00454964
0.00475713
0.00485491
0.00476842
0.00432413
0.00288557
0.00086253
0.000671403
0.000635411
0.00199911
0.00210241
0.00239246
0.00257629
0.00250239
0.00183313
0.00155068
0.00136474
0.00122707
0.00111883
0.00102443
0.000938957
0.000857016
0.000775621
0.000704752
0.000660002
0.000535368
0.000336129
0.00118391
0.0032278
0.00286378
0.00334718
0.00359847
0.00378585
0.00393831
0.0041464
0.00443287
0.00479658
0.00519762
0.00555558
0.00574781
0.00558349
0.00483063
0.00316826
0.000845404
0.000748808
0.00169202
0.00242561
0.00300508
0.00334251
0.00306755
0.000798884
0.000704077
0.000627862
0.000566958
0.000517969
0.000478421
0.000446366
0.00042073
0.000401695
0.000456416
0.000555685
0.000569037
0.000365508
0.00136741
0.00394075
0.00285207
0.00342029
0.00348348
0.00346901
0.00351273
0.00365721
0.00393416
0.00436793
0.00490562
0.0054193
0.00576512
0.00587091
0.00564348
0.00473069
0.00260254
0.000980613
0.00146267
0.00224849
0.00313289
0.00382416
0.00417001
0.00372997
0.000873914
0.000803061
0.000757794
0.000726993
0.000703039
0.000679881
0.000653795
0.000626505
0.000593781
0.000563674
0.000574157
0.000629
0.000412606
0.00155598
0.00486203
0.00289472
0.0032927
0.00331087
0.00317985
0.0031802
0.00329644
0.00356892
0.00405292
0.00466706
0.00519987
0.00556289
0.00574003
0.00574218
0.00545368
0.00470979
0.00435889
0.00455866
0.00489115
0.00516902
0.00530376
0.00526665
0.00497472
0.00409406
0.00373466
0.00356976
0.00347406
0.00338694
0.00326822
0.00305693
0.00269139
0.00220979
0.0016886
0.00126211
0.00104299
0.000703051
0.000482715
0.000492733
0.000525586
0.00176049
0.00595536
0.00363363
0.00315329
0.00327947
0.00321495
0.00310763
0.00318226
0.00344925
0.00395449
0.00458224
0.00513267
0.00547555
0.0056235
0.00569099
0.00576857
0.00582327
0.00604476
0.00625582
0.00634071
0.0062712
0.00606651
0.00576782
0.0054151
0.00504078
0.00480221
0.00466132
0.00456071
0.00445991
0.00432851
0.00414022
0.00383075
0.00338157
0.00281335
0.00222196
0.00176693
0.0013374
0.00103486
0.00112125
0.00070592
0.00196467
0.0068322
0.00514514
0.00365631
0.00344244
0.00341481
0.00325414
0.00323121
0.00348299
0.00402534
0.00469976
0.00527066
0.00559573
0.00571736
0.00582465
0.00609565
0.00647006
0.00677172
0.00687227
0.00675085
0.00645497
0.00605342
0.00562043
0.00522912
0.00494058
0.00477668
0.0046871
0.00462042
0.00454133
0.00442655
0.00427259
0.00409137
0.00382997
0.0034327
0.00294586
0.00246815
0.00199754
0.00162598
0.00150101
0.000838992
0.00202291
0.00653068
0.00549793
0.00466621
0.00421694
0.00375006
0.00336304
0.00329372
0.00362308
0.00428075
0.00503028
0.0056062
0.00589695
0.00600777
0.00613717
0.00638757
0.00662639
0.00672913
0.00663064
0.00634023
0.00592787
0.00548154
0.00507887
0.00477012
0.00456858
0.0044499
0.00437223
0.0043025
0.00421552
0.004096
0.00395833
0.00385002
0.00380307
0.00367042
0.00341759
0.00315257
0.00288547
0.00248326
0.00261417
0.00113329
0.00198988
0.00238966
0.002631
0.00272015
0.00269132
0.0026668
0.00277419
0.00317146
0.00389944
0.00481246
0.00561731
0.00609576
0.00626068
0.00630721
0.00623151
0.00615413
0.00610498
0.00603048
0.0058342
0.00553212
0.00519297
0.00487962
0.00462509
0.0044321
0.00428345
0.00415562
0.00402972
0.00389358
0.00373174
0.00352212
0.00326389
0.00299765
0.00275814
0.00256044
0.0023783
0.00220191
0.0020371
0.00188589
0.00177743
0.00116293
0.000844951
0.00138954
0.00187149
0.00241484
0.00320513
0.00415466
0.00514319
0.00598206
0.00642994
0.00646518
0.00624916
0.00596211
0.00572797
0.00560036
0.0055251
0.0054368
0.00530647
0.00513414
0.00495757
0.00479898
0.00466181
0.00453435
0.00439715
0.00423065
0.00402153
0.0037673
0.00347728
0.00316716
0.00285265
0.00256104
0.00234372
0.00219668
0.00209533
0.00201512
0.00192563
0.00180211
0.00166835
0.00116695
0.0011657
0.00255309
0.00361535
0.00475475
0.00563292
0.00617627
0.006693
0.00703699
0.00694504
0.00651872
0.0060558
0.00573434
0.00556894
0.00550168
0.00547918
0.0054681
0.00545009
0.00541444
0.00535697
0.00529491
0.00524473
0.00520195
0.00515096
0.00506771
0.00492378
0.0046949
0.00437291
0.00397499
0.00355831
0.00316034
0.00281813
0.00254918
0.00235607
0.00221899
0.00210202
0.00200209
0.00243356
0.00124659
0.00128229
0.00133804
0.00138741
0.00158778
0.00159156
0.00154551
0.00150863
0.00152685
0.00152941
0.00150074
0.0014491
0.00139221
0.00134296
0.00131292
0.00129834
0.00129202
0.00128894
0.00128599
0.00128178
0.00127709
0.00127382
0.0012718
0.00126903
0.00126356
0.00125275
0.00123397
0.00120582
0.00116954
0.00113019
0.00109635
0.00107039
0.00105482
0.00104934
0.0010539
0.00106783
0.00108839
0.00110804
0.00109931
0.00106106
0.00102309
)
;

boundaryField
{
    floor
    {
        type            nutkWallFunction;
        Cmu             0.09;
        kappa           0.41;
        E               9.8;
        value           nonuniform List<scalar> 
29
(
8.40435e-05
4.96798e-05
7.41153e-05
7.65172e-05
7.74509e-05
7.70524e-05
7.52908e-05
7.14602e-05
6.71533e-05
6.30761e-05
5.93576e-05
5.59974e-05
5.29713e-05
5.02102e-05
4.76415e-05
4.51732e-05
4.26665e-05
3.98753e-05
3.55164e-05
3.04698e-05
3.04697e-05
3.83116e-05
4.22348e-05
4.8442e-05
8.40435e-05
4.96797e-05
7.67675e-05
9.06916e-05
0.000118426
)
;
    }
    ceiling
    {
        type            nutkWallFunction;
        Cmu             0.09;
        kappa           0.41;
        E               9.8;
        value           nonuniform List<scalar> 
43
(
0.00015341
0.000159767
0.000165373
0.000187915
0.000188344
0.000183199
0.000179067
0.000181115
0.000181404
0.000178186
0.000172374
0.000165941
0.000160351
0.000156929
0.000155265
0.000154544
0.000154191
0.000153854
0.000153373
0.000152836
0.000152462
0.000152232
0.000151914
0.000151287
0.000150048
0.000147894
0.000144657
0.000140472
0.000135916
0.000131985
0.000128959
0.000127141
0.0001265
0.000127032
0.000128661
0.000131057
0.000133345
0.000132329
0.00012787
0.000123425
0.000232293
0.000275432
0.000140004
)
;
    }
    sWall
    {
        type            nutkWallFunction;
        Cmu             0.09;
        kappa           0.41;
        E               9.8;
        value           uniform 0.000153426;
    }
    nWall
    {
        type            nutkWallFunction;
        Cmu             0.09;
        kappa           0.41;
        E               9.8;
        value           nonuniform List<scalar> 6(6.29768e-05 8.54533e-05 0.000101589 0.000140184 0.000149355 0.000123433);
    }
    sideWalls
    {
        type            empty;
    }
    glass1
    {
        type            nutkWallFunction;
        Cmu             0.09;
        kappa           0.41;
        E               9.8;
        value           nonuniform List<scalar> 9(9.23314e-05 0.000119754 0.000142178 0.000163195 0.000184467 0.000207219 0.000229648 0.000236 0.000232404);
    }
    glass2
    {
        type            nutkWallFunction;
        Cmu             0.09;
        kappa           0.41;
        E               9.8;
        value           nonuniform List<scalar> 2(0.000136309 0.000139743);
    }
    sun
    {
        type            nutkWallFunction;
        Cmu             0.09;
        kappa           0.41;
        E               9.8;
        value           nonuniform List<scalar> 
14
(
9.23341e-05
0.000101786
0.000105424
0.000110976
0.000116174
0.000121274
0.000126685
0.000131469
0.000135074
0.000136814
0.000135962
0.000131763
0.000117271
9.9564e-05
)
;
    }
    heatsource1
    {
        type            nutkWallFunction;
        Cmu             0.09;
        kappa           0.41;
        E               9.8;
        value           nonuniform List<scalar> 3(5.75161e-05 5.87997e-05 6.29858e-05);
    }
    heatsource2
    {
        type            nutkWallFunction;
        Cmu             0.09;
        kappa           0.41;
        E               9.8;
        value           nonuniform List<scalar> 4(0.000104408 8.12162e-05 8.12162e-05 0.000102356);
    }
    Table_master
    {
        type            nutkWallFunction;
        Cmu             0.09;
        kappa           0.41;
        E               9.8;
        value           nonuniform List<scalar> 9(9.67599e-05 8.52305e-05 7.58278e-05 6.82152e-05 6.20195e-05 5.69652e-05 5.28303e-05 4.94967e-05 4.70049e-05);
    }
    Table_slave
    {
        type            nutkWallFunction;
        Cmu             0.09;
        kappa           0.41;
        E               9.8;
        value           nonuniform List<scalar> 9(0.00010577 9.72639e-05 9.17838e-05 8.80329e-05 8.51027e-05 8.22585e-05 7.90409e-05 7.56582e-05 7.15783e-05);
    }
    inlet
    {
        type            calculated;
        value           uniform 0.000100623;
    }
    outlet
    {
        type            calculated;
        value           nonuniform List<scalar> 2(0.00128229 0.00133804);
    }
}


// ************************************************************************* //
