// -*- C++ -*-
// File generated by PyFoam - sorry for the ugliness

FoamFile
{
 version 2.0;
 format ascii;
 class volVectorField;
 location "700";
 object U;
}

dimensions [ 0 1 -1 0 0 0 0 ];

internalField nonuniform List<vector> 459
(
  (0.0335094 0.0852986 0)
  (-0.165773 0.0255133 0)
  (-0.190073 0.0178312 0)
  (-0.220645 0.0124179 0)
  (-0.243096 0.0064913 0)
  (-0.256625 0.00027822 0)
  (-0.259947 -0.00628373 0)
  (-0.251757 -0.0132057 0)
  (-0.232648 -0.0200892 0)
  (-0.203911 -0.0259082 0)
  (-0.168389 -0.0298191 0)
  (-0.129401 -0.031535 0)
  (-0.0901386 -0.0316034 0)
  (-0.0554368 -0.031736 0)
  (-0.0393303 -0.0336623 0)
  (-0.00176182 0.00720616 0)
  (-0.0215959 -0.0176736 0)
  (0.0023863 -0.026151 0)
  (0.0229287 -0.0192473 0)
  (0.0385195 -0.0128587 0)
  (0.0498918 -0.00817604 0)
  (0.0565281 -0.00491205 0)
  (0.0598047 -0.00321265 0)
  (0.0612903 -0.00247153 0)
  (0.0620709 -0.00210926 0)
  (0.062559 -0.00187507 0)
  (0.0628036 -0.0016844 0)
  (0.0627405 -0.00144751 0)
  (0.0621592 -0.000993258 0)
  (0.0604907 6.15319e-05 0)
  (0.0565327 0.00225855 0)
  (0.0489679 0.0046311 0)
  (0.0412629 0.00662819 0)
  (-0.010945 0.0202969 0)
  (0.206108 0.174293 0)
  (-0.154189 0.0667492 0)
  (-0.152154 0.0519938 0)
  (-0.183372 0.0407342 0)
  (-0.205274 0.0281435 0)
  (-0.218741 0.0142287 0)
  (-0.222495 -0.00129241 0)
  (-0.214999 -0.018081 0)
  (-0.197357 -0.0341412 0)
  (-0.171232 -0.0469951 0)
  (-0.139717 -0.054814 0)
  (-0.106203 -0.0570282 0)
  (-0.0739345 -0.0542937 0)
  (-0.0467674 -0.0482051 0)
  (-0.0295026 -0.0398322 0)
  (-0.0156898 -0.0198254 0)
  (-0.00759963 0.0118749 0)
  (0.0612922 0.0306517 0)
  (0.0323529 -0.0198864 0)
  (0.0390988 -0.0303205 0)
  (0.0497788 -0.0254999 0)
  (0.0580868 -0.0173912 0)
  (0.063485 -0.0100537 0)
  (0.0655643 -0.00410081 0)
  (0.065832 -0.000824996 0)
  (0.0657362 0.000585224 0)
  (0.0658114 0.00124859 0)
  (0.0659664 0.00166972 0)
  (0.0660764 0.00203868 0)
  (0.0660989 0.00252017 0)
  (0.0659815 0.00345471 0)
  (0.0651893 0.00574934 0)
  (0.0612946 0.0120816 0)
  (0.0515075 0.0174528 0)
  (0.0452902 0.0211891 0)
  (-0.0444866 0.0438945 0)
  (0.364189 0.260449 0)
  (-0.170188 0.105918 0)
  (-0.113666 0.0836907 0)
  (-0.143452 0.0636119 0)
  (-0.162473 0.0429516 0)
  (-0.174545 0.0204512 0)
  (-0.177631 -0.00471939 0)
  (-0.169273 -0.0315503 0)
  (-0.151576 -0.0564936 0)
  (-0.126975 -0.0754793 0)
  (-0.0988722 -0.0860114 0)
  (-0.0703047 -0.0877688 0)
  (-0.0436262 -0.0818693 0)
  (-0.0210725 -0.0698049 0)
  (-0.00472265 -0.0527317 0)
  (0.00815607 -0.0269315 0)
  (0.0151667 0.00715244 0)
  (0.1055 -0.0408103 0)
  (0.0726385 -0.0437096 0)
  (0.0687506 -0.0393741 0)
  (0.0710095 -0.0312403 0)
  (0.072578 -0.0219775 0)
  (0.0733437 -0.0142429 0)
  (0.0715713 -0.0116482 0)
  (0.0677045 -0.00837532 0)
  (0.0650666 -0.00660441 0)
  (0.0638816 -0.0055968 0)
  (0.06337 -0.00496026 0)
  (0.0631325 -0.00451592 0)
  (0.0632094 -0.0040742 0)
  (0.0640712 -0.0032793 0)
  (0.0669299 -0.000160606 0)
  (0.0648879 0.0170765 0)
  (0.0515707 0.0292776 0)
  (0.0511122 0.037821 0)
  (-0.0739293 0.0689955 0)
  (0.506312 0.329553 0)
  (-0.203788 0.140498 0)
  (-0.0735541 0.110189 0)
  (-0.101141 0.0825184 0)
  (-0.11429 0.0560643 0)
  (-0.122404 0.0267318 0)
  (-0.122002 -0.00766819 0)
  (-0.110373 -0.0449333 0)
  (-0.091722 -0.0780841 0)
  (-0.0693192 -0.101696 0)
  (-0.0463091 -0.113406 0)
  (-0.0247154 -0.113897 0)
  (-0.00540448 -0.105051 0)
  (0.011266 -0.0883201 0)
  (0.0247491 -0.0667775 0)
  (0.0391374 -0.0409192 0)
  (0.061388 -0.0148091 0)
  (0.0918237 -0.00151641 0)
  (0.0998546 -0.0339965 0)
  (0.086386 -0.0386696 0)
  (0.0780125 -0.0340349 0)
  (0.0741001 -0.0275374 0)
  (0.0716385 -0.0200471 0)
  (0.0706257 -0.0114323 0)
  (0.0725708 -0.00674541 0)
  (0.0767405 -0.00541152 0)
  (0.0802131 -0.00465891 0)
  (0.0826278 -0.00405027 0)
  (0.0841356 -0.00323309 0)
  (0.084152 -0.00196387 0)
  (0.0815998 -3.01433e-05 0)
  (0.0752542 0.00284608 0)
  (0.0623448 0.00719338 0)
  (0.051354 0.0274901 0)
  (0.0406205 0.0443198 0)
  (0.054067 0.0578102 0)
  (-0.104517 0.0918558 0)
  (0.628281 0.383018 0)
  (-0.244684 0.168727 0)
  (-0.0345955 0.124812 0)
  (-0.0572215 0.0926958 0)
  (-0.0619737 0.0630452 0)
  (-0.0630456 0.0291207 0)
  (-0.0533498 -0.0135233 0)
  (-0.0360079 -0.0601784 0)
  (-0.0172347 -0.0982763 0)
  (0.000473864 -0.122938 0)
  (0.0153135 -0.132763 0)
  (0.0269016 -0.130258 0)
  (0.0358756 -0.118658 0)
  (0.0429056 -0.100438 0)
  (0.049087 -0.0782667 0)
  (0.0564129 -0.0547493 0)
  (0.0674566 -0.03529 0)
  (0.0779529 -0.0299929 0)
  (0.0796867 -0.0355115 0)
  (0.0732578 -0.0339733 0)
  (0.0654052 -0.0287384 0)
  (0.0595215 -0.0229942 0)
  (0.055482 -0.0171755 0)
  (0.0534819 -0.011304 0)
  (0.0538299 -0.00632925 0)
  (0.0561519 -0.00407347 0)
  (0.0587016 -0.00325022 0)
  (0.0611744 -0.00251547 0)
  (0.0634476 -0.000951858 0)
  (0.0651263 0.00198289 0)
  (0.0650179 0.00638156 0)
  (0.062551 0.0123881 0)
  (0.0570544 0.0206526 0)
  (0.0503917 0.0361105 0)
  (0.0412363 0.0546852 0)
  (0.062259 0.0752137 0)
  (-0.0175337 0.104352 0)
  (0.0449854 0.0333695 0)
  (-0.0618774 -0.034782 0)
  (-0.269258 -0.0570396 0)
  (0.715849 0.427571 0)
  (-0.284025 0.187611 0)
  (-0.00563555 0.119673 0)
  (-0.0120299 0.0918123 0)
  (-0.00525911 0.0632018 0)
  (0.00426437 0.0231693 0)
  (0.0314316 -0.0298219 0)
  (0.0525234 -0.0785081 0)
  (0.0676435 -0.113891 0)
  (0.0765973 -0.134147 0)
  (0.0800518 -0.140299 0)
  (0.0793969 -0.134937 0)
  (0.076012 -0.121125 0)
  (0.0712738 -0.101827 0)
  (0.066648 -0.0799578 0)
  (0.0635146 -0.0582157 0)
  (0.0627933 -0.0402986 0)
  (0.0622546 -0.0307366 0)
  (0.0582357 -0.0280357 0)
  (0.0506721 -0.0255591 0)
  (0.0425423 -0.0216934 0)
  (0.0361275 -0.0175657 0)
  (0.0318328 -0.0136443 0)
  (0.0298011 -0.00998263 0)
  (0.0299648 -0.00723092 0)
  (0.0318245 -0.00635611 0)
  (0.034466 -0.00634552 0)
  (0.0375568 -0.00601631 0)
  (0.0409301 -0.00441348 0)
  (0.0443522 -0.000689484 0)
  (0.0473349 0.00540278 0)
  (0.0488274 0.0135071 0)
  (0.0490714 0.0238285 0)
  (0.0495101 0.0381715 0)
  (0.0486735 0.0561745 0)
  (0.0706951 0.0791091 0)
  (0.0521954 0.0976733 0)
  (0.0914245 0.0684235 0)
  (0.114644 0.0445635 0)
  (-0.129106 -0.00787766 0)
  (0.768295 0.468211 0)
  (-0.302621 0.17311 0)
  (0.0217567 0.067726 0)
  (0.0487745 0.0636185 0)
  (0.0688664 0.0458107 0)
  (0.0992079 0.000466347 0)
  (0.131515 -0.053352 0)
  (0.150536 -0.0953672 0)
  (0.157329 -0.12232 0)
  (0.153877 -0.134917 0)
  (0.142718 -0.135184 0)
  (0.126663 -0.125914 0)
  (0.108255 -0.110036 0)
  (0.0896509 -0.0904647 0)
  (0.0726132 -0.0698184 0)
  (0.0582834 -0.0502149 0)
  (0.0472081 -0.0342742 0)
  (0.0383703 -0.0243873 0)
  (0.0298175 -0.0197565 0)
  (0.0212115 -0.017133 0)
  (0.0135707 -0.0146774 0)
  (0.00786005 -0.0124492 0)
  (0.00424442 -0.0105983 0)
  (0.00268408 -0.0091271 0)
  (0.00297639 -0.00838227 0)
  (0.00459911 -0.00869288 0)
  (0.00694783 -0.00939714 0)
  (0.00981893 -0.00964122 0)
  (0.0132703 -0.00857526 0)
  (0.0174317 -0.00519688 0)
  (0.0232658 0.00145812 0)
  (0.0289603 0.0103765 0)
  (0.0343355 0.0208221 0)
  (0.0412578 0.0334996 0)
  (0.048983 0.0482141 0)
  (0.0708036 0.0667275 0)
  (0.084238 0.0751327 0)
  (0.116085 0.0529019 0)
  (0.155728 0.0439846 0)
  (-0.0366091 0.0925625 0)
  (0.872962 0.469803 0)
  (-0.0652635 0.151891 0)
  (0.109316 -0.0133449 0)
  (0.180538 -0.0386943 0)
  (0.208015 -0.049439 0)
  (0.239746 -0.072089 0)
  (0.258612 -0.0950212 0)
  (0.260618 -0.111786 0)
  (0.247119 -0.120238 0)
  (0.222103 -0.120268 0)
  (0.190014 -0.112992 0)
  (0.154882 -0.100212 0)
  (0.119877 -0.0837321 0)
  (0.0874219 -0.0657072 0)
  (0.0591641 -0.0480892 0)
  (0.0357773 -0.0321639 0)
  (0.018008 -0.0200157 0)
  (0.00511556 -0.0130463 0)
  (-0.00477946 -0.0102073 0)
  (-0.0122492 -0.0093029 0)
  (-0.0180983 -0.00882764 0)
  (-0.0222971 -0.00858903 0)
  (-0.0249928 -0.00859337 0)
  (-0.0263627 -0.00886269 0)
  (-0.0266602 -0.0095314 0)
  (-0.0262988 -0.0106386 0)
  (-0.0256513 -0.011859 0)
  (-0.0248119 -0.0127439 0)
  (-0.023612 -0.0127991 0)
  (-0.0216497 -0.0114376 0)
  (-0.0179303 -0.00792 0)
  (-0.00903649 -0.00155149 0)
  (-0.000719174 0.00660803 0)
  (0.00982565 0.0147841 0)
  (0.0215468 0.0218836 0)
  (0.0414516 0.0293118 0)
  (0.060583 0.0229108 0)
  (0.0806887 -0.00456736 0)
  (0.139746 0.0388588 0)
  (-0.406155 0.202767 0)
  (1.01967 0.423134 0)
  (0.485148 0.279684 0)
  (0.499858 0.183683 0)
  (0.525237 0.113289 0)
  (0.506314 0.0631032 0)
  (0.46544 0.0163252 0)
  (0.417551 -0.0234985 0)
  (0.3648 -0.0514086 0)
  (0.307398 -0.0662432 0)
  (0.248202 -0.0697402 0)
  (0.190646 -0.0651362 0)
  (0.137371 -0.0556402 0)
  (0.0899123 -0.043258 0)
  (0.0498098 -0.030137 0)
  (0.0172967 -0.0181025 0)
  (-0.00854904 -0.00832428 0)
  (-0.0243789 -0.00363568 0)
  (-0.0340492 -0.00239679 0)
  (-0.0405753 -0.00281608 0)
  (-0.0455459 -0.0037964 0)
  (-0.0495725 -0.00481533 0)
  (-0.0528191 -0.00582551 0)
  (-0.0554279 -0.00684674 0)
  (-0.0575771 -0.00790582 0)
  (-0.0595198 -0.00904744 0)
  (-0.0616004 -0.010247 0)
  (-0.0641545 -0.0112869 0)
  (-0.0674726 -0.011798 0)
  (-0.0718675 -0.011249 0)
  (-0.0777677 -0.00893358 0)
  (-0.0857139 -0.00403784 0)
  (-0.0956504 0.00398012 0)
  (-0.105664 0.0145526 0)
  (-0.120455 0.0279173 0)
  (-0.143714 0.0442297 0)
  (-0.177937 0.0624243 0)
  (-0.226502 0.078607 0)
  (-0.282414 0.0902095 0)
  (-0.350521 0.0971786 0)
  (-0.610523 0.100027 0)
  (-0.154002 0.00345493 0)
  (0.122965 0.00531951 0)
  (0.204448 -0.0273297 0)
  (0.190919 -0.0390882 0)
  (0.175086 -0.0386331 0)
  (0.153353 -0.0349233 0)
  (0.124157 -0.0296055 0)
  (0.090503 -0.0228485 0)
  (0.0558611 -0.0151269 0)
  (0.0212137 -0.00703489 0)
  (-0.0126128 0.000820079 0)
  (-0.0363732 0.00563436 0)
  (-0.0526514 0.00827799 0)
  (-0.0626555 0.00902792 0)
  (-0.0681077 0.00828989 0)
  (-0.0718352 0.00734605 0)
  (-0.0747326 0.00652893 0)
  (-0.0773342 0.00586876 0)
  (-0.0799552 0.005256 0)
  (-0.0826851 0.00451188 0)
  (-0.0855274 0.00368275 0)
  (-0.0885707 0.00279261 0)
  (-0.0919436 0.00190416 0)
  (-0.0957752 0.00114351 0)
  (-0.100127 0.000765912 0)
  (-0.104994 0.00107633 0)
  (-0.110299 0.00239816 0)
  (-0.115859 0.00503537 0)
  (-0.121073 0.00947019 0)
  (-0.125164 0.0166133 0)
  (-0.128528 0.027583 0)
  (-0.1314 0.042746 0)
  (-0.134453 0.0612962 0)
  (-0.138134 0.0798083 0)
  (-0.1394 0.0886951 0)
  (-0.121936 0.0673696 0)
  (-0.0789545 -0.0233178 0)
  (-0.274693 -0.198869 0)
  (0.0116055 0.195627 0)
  (0.042036 0.0718839 0)
  (0.000444735 0.00711829 0)
  (-0.0108813 -0.00103343 0)
  (-0.0227081 0.000415867 0)
  (-0.0367047 0.000129756 0)
  (-0.0526994 0.000801048 0)
  (-0.0684674 0.00284822 0)
  (-0.0814086 0.00497893 0)
  (-0.08921 0.00558334 0)
  (-0.0939981 0.00398217 0)
  (-0.0962344 0.000238909 0)
  (-0.0968011 -0.0042378 0)
  (-0.0964473 -0.00908963 0)
  (-0.096073 -0.0142855 0)
  (-0.0962797 -0.0193602 0)
  (-0.0971107 -0.0240028 0)
  (-0.098471 -0.0279331 0)
  (-0.100233 -0.0309464 0)
  (-0.102357 -0.0330078 0)
  (-0.10486 -0.034222 0)
  (-0.107643 -0.0345513 0)
  (-0.110612 -0.0340019 0)
  (-0.113704 -0.0328757 0)
  (-0.116793 -0.031086 0)
  (-0.119635 -0.0283996 0)
  (-0.121844 -0.0243995 0)
  (-0.122923 -0.018411 0)
  (-0.122436 -0.010527 0)
  (-0.119515 -0.000465009 0)
  (-0.112784 0.0125118 0)
  (-0.100963 0.0290554 0)
  (-0.0836248 0.0486916 0)
  (-0.0615577 0.0675011 0)
  (-0.0376422 0.0784928 0)
  (0.00224308 0.0625342 0)
  (0.143289 -0.00791103 0)
  (-0.205281 -0.108974 0)
  (-0.0447881 -0.320353 0)
  (-0.413503 -0.122925 0)
  (-0.301409 0.0653283 0)
  (-0.247944 -0.0175683 0)
  (-0.207712 -0.02384 0)
  (-0.195683 -0.0130556 0)
  (-0.190959 -0.00342315 0)
  (-0.187566 0.00459351 0)
  (-0.183354 0.012126 0)
  (-0.177313 0.0196049 0)
  (-0.169189 0.0271173 0)
  (-0.159227 0.034597 0)
  (-0.148431 0.0418684 0)
  (-0.137976 0.0488782 0)
  (-0.128699 0.0558644 0)
  (-0.120957 0.0628152 0)
  (-0.114831 0.069694 0)
  (-0.110167 0.0762829 0)
  (-0.106727 0.0821517 0)
  (-0.1043 0.0868928 0)
  (-0.102696 0.0902499 0)
  (-0.101762 0.0921542 0)
  (-0.101413 0.0926512 0)
  (-0.101596 0.091704 0)
  (-0.102253 0.089378 0)
  (-0.10329 0.0862381 0)
  (-0.10458 0.082406 0)
  (-0.105896 0.0779784 0)
  (-0.10685 0.0730018 0)
  (-0.10677 0.0674774 0)
  (-0.104375 0.0627103 0)
  (-0.0978208 0.0596209 0)
  (-0.084737 0.059075 0)
  (-0.0633185 0.0620205 0)
  (-0.0340164 0.0689829 0)
  (0.0119491 0.0790877 0)
  (0.0553111 0.0801026 0)
  (0.096367 0.0670986 0)
  (0.161317 0.0411061 0)
  (-0.231391 -0.00943671 0)
)
;

boundaryField
{
  floor
  {
    type noSlip;
  }
  ceiling
  {
    type noSlip;
  }
  sWall
  {
    type noSlip;
  }
  nWall
  {
    type noSlip;
  }
  sideWalls
  {
    type empty;
  }
  glass1
  {
    type noSlip;
  }
  glass2
  {
    type noSlip;
  }
  sun
  {
    type noSlip;
  }
  heatsource1
  {
    type noSlip;
  }
  heatsource2
  {
    type noSlip;
  }
  Table_master
  {
    type noSlip;
  }
  Table_slave
  {
    type noSlip;
  }
  inlet
  {
    type fixedValue;
    value uniform (0.277164 -0.114805 0);
  }
  outlet
  {
    type zeroGradient;
  }
} 	// ************************************************************************* //

