// -*- C++ -*-
// File generated by PyFoam - sorry for the ugliness

FoamFile
{
 version 2.0;
 format ascii;
 class volScalarField;
 location "800";
 object T;
}

dimensions [ 0 0 0 1 0 0 0 ];

internalField nonuniform List<scalar> 459
(
  305.058
  304.843
  304.749
  304.76
  304.788
  304.818
  304.844
  304.869
  304.891
  304.913
  304.935
  304.959
  304.984
  305.013
  305.052
  306.516
  306.379
  306.274
  306.205
  306.209
  306.251
  306.3
  306.352
  306.404
  306.457
  306.509
  306.562
  306.614
  306.667
  306.721
  306.778
  306.842
  306.924
  307.051
  305.245
  304.856
  304.701
  304.711
  304.767
  304.825
  304.873
  304.909
  304.938
  304.966
  304.991
  305.014
  305.035
  305.053
  305.071
  305.1
  305.155
  306.588
  306.429
  306.139
  306.065
  306.087
  306.146
  306.205
  306.27
  306.336
  306.404
  306.472
  306.541
  306.609
  306.678
  306.745
  306.811
  306.881
  306.964
  307.087
  305.497
  304.815
  304.63
  304.676
  304.799
  304.914
  304.997
  305.049
  305.087
  305.115
  305.131
  305.139
  305.139
  305.135
  305.13
  305.141
  305.173
  306.589
  306.179
  305.969
  305.932
  305.999
  306.102
  306.156
  306.228
  306.307
  306.393
  306.483
  306.578
  306.674
  306.768
  306.849
  306.909
  306.961
  307.021
  307.124
  305.046
  304.534
  304.464
  304.682
  304.961
  305.174
  305.304
  305.373
  305.403
  305.396
  305.367
  305.329
  305.289
  305.25
  305.216
  305.199
  305.201
  305.235
  305.57
  305.608
  305.668
  305.797
  305.972
  306.149
  306.3
  306.408
  306.499
  306.586
  306.671
  306.755
  306.839
  306.925
  307.015
  307.049
  307.066
  307.089
  307.16
  304.369
  304.038
  304.317
  304.955
  305.473
  305.755
  305.869
  305.868
  305.786
  305.69
  305.596
  305.512
  305.436
  305.37
  305.314
  305.278
  305.263
  305.284
  305.368
  305.467
  305.643
  305.879
  306.131
  306.36
  306.549
  306.689
  306.808
  306.908
  306.992
  307.063
  307.124
  307.176
  307.215
  307.212
  307.185
  307.168
  307.197
  307.274
  307.501
  308.113
  304.128
  303.681
  304.515
  305.739
  306.286
  306.339
  306.27
  306.15
  306.016
  305.884
  305.76
  305.656
  305.565
  305.486
  305.422
  305.38
  305.365
  305.4
  305.505
  305.693
  305.952
  306.236
  306.505
  306.73
  306.906
  307.04
  307.14
  307.216
  307.276
  307.324
  307.362
  307.387
  307.395
  307.363
  307.309
  307.268
  307.265
  307.337
  307.527
  308.067
  303.868
  303.463
  304.559
  306.365
  306.629
  306.581
  306.464
  306.325
  306.179
  306.045
  305.922
  305.815
  305.721
  305.638
  305.577
  305.554
  305.58
  305.698
  305.913
  306.185
  306.476
  306.754
  306.991
  307.174
  307.31
  307.402
  307.458
  307.499
  307.532
  307.556
  307.569
  307.569
  307.551
  307.504
  307.439
  307.376
  307.349
  307.422
  307.61
  308.181
  303.534
  303.046
  303.98
  306.58
  306.869
  306.801
  306.674
  306.537
  306.399
  306.269
  306.157
  306.062
  305.983
  305.924
  305.897
  305.924
  306.041
  306.261
  306.548
  306.839
  307.091
  307.314
  307.488
  307.606
  307.673
  307.709
  307.731
  307.747
  307.757
  307.759
  307.752
  307.731
  307.694
  307.639
  307.571
  307.503
  307.451
  307.528
  307.698
  308.055
  303.047
  302.037
  301.931
  306.646
  307.125
  307.078
  306.964
  306.846
  306.732
  306.626
  306.54
  306.475
  306.433
  306.423
  306.457
  306.553
  306.727
  306.971
  307.239
  307.481
  307.668
  307.803
  307.892
  307.941
  307.965
  307.975
  307.978
  307.977
  307.972
  307.96
  307.938
  307.906
  307.861
  307.805
  307.739
  307.671
  307.613
  307.681
  307.825
  308.057
  298.349
  306.715
  307.392
  307.393
  307.316
  307.237
  307.165
  307.103
  307.054
  307.029
  307.033
  307.07
  307.147
  307.271
  307.439
  307.634
  307.823
  307.978
  308.09
  308.16
  308.2
  308.217
  308.222
  308.219
  308.213
  308.203
  308.189
  308.17
  308.145
  308.113
  308.072
  308.024
  307.97
  307.915
  307.876
  307.908
  307.997
  308.134
  306.728
  307.56
  307.724
  307.718
  307.683
  307.65
  307.624
  307.607
  307.601
  307.613
  307.647
  307.705
  307.789
  307.896
  308.018
  308.142
  308.252
  308.335
  308.39
  308.42
  308.433
  308.435
  308.43
  308.42
  308.408
  308.393
  308.374
  308.353
  308.328
  308.299
  308.266
  308.23
  308.192
  308.156
  308.129
  308.137
  308.194
  308.246
  329.665
  319.462
  308.218
  308.089
  308.106
  308.115
  308.123
  308.135
  308.15
  308.17
  308.193
  308.222
  308.261
  308.309
  308.365
  308.424
  308.483
  308.536
  308.576
  308.604
  308.618
  308.621
  308.618
  308.61
  308.598
  308.584
  308.568
  308.551
  308.531
  308.51
  308.488
  308.465
  308.441
  308.417
  308.394
  308.375
  308.361
  308.364
  308.395
  308.415
)
;

boundaryField
{
  floor
  {
    type wallHeatTransfer;
    Tinf uniform 305.2;
    alphaWall uniform 0.24;
    value nonuniform List<scalar> 29
(
  305.066
  306.321
  306.222
  306.144
  306.092
  306.102
  306.14
  306.179
  306.219
  306.259
  306.298
  306.337
  306.376
  306.415
  306.454
  306.494
  306.535
  306.58
  306.636
  306.721
  306.721
  306.757
  306.789
  306.822
  305.066
  306.321
  306.382
  306.381
  305.232
)
;
  }
  ceiling
  {
    type wallHeatTransfer;
    Tinf uniform 303.2;
    alphaWall uniform 0.24;
    value nonuniform List<scalar> 43
(
  326.82
  318.078
  307.865
  307.744
  307.753
  307.756
  307.764
  307.776
  307.793
  307.814
  307.839
  307.871
  307.911
  307.96
  308.014
  308.071
  308.126
  308.172
  308.206
  308.226
  308.233
  308.231
  308.223
  308.212
  308.198
  308.183
  308.167
  308.15
  308.131
  308.112
  308.091
  308.068
  308.044
  308.018
  307.993
  307.972
  307.96
  307.965
  307.984
  307.939
  303.055
  302.093
  306.539
)
;
  }
  sWall
  {
    type wallHeatTransfer;
    Tinf uniform 315.2;
    alphaWall uniform 0.36;
    value uniform 327.448;
  }
  nWall
  {
    type wallHeatTransfer;
    Tinf uniform 307.2;
    alphaWall uniform 0.36;
    value nonuniform List<scalar> 6
(
  307.895
  307.875
  307.988
  308.019
  308.113
  308.256
)
;
  }
  sideWalls
  {
    type empty;
  }
  glass1
  {
    type wallHeatTransfer;
    Tinf uniform 315.2;
    alphaWall uniform 4.3;
    value nonuniform List<scalar> 9
(
  310.961
  310.981
  311.084
  310.193
  309.442
  309.273
  309.163
  309.093
  309.075
)
;
  }
  glass2
  {
    type wallHeatTransfer;
    Tinf uniform 307.2;
    alphaWall uniform 4.3;
    value nonuniform List<scalar> 2
(
  307.482
  307.521
)
;
  }
  sun
  {
    type wallHeatTransfer;
    Tinf uniform 305.2;
    alphaWall uniform 0.24;
    value nonuniform List<scalar> 14
(
  305.068
  304.865
  304.775
  304.786
  304.814
  304.842
  304.868
  304.892
  304.913
  304.934
  304.956
  304.978
  305.003
  305.03
)
;
  }
  heatsource1
  {
    type fixedGradient;
    gradient uniform 0;
  }
  heatsource2
  {
    type fixedGradient;
    gradient uniform 0;
  }
  Table_master
  {
    type zeroGradient;
  }
  Table_slave
  {
    type zeroGradient;
  }
  inlet
  {
    type fixedValue;
    value uniform 293.15;
  }
  outlet
  {
    type zeroGradient;
  }
} 	// ************************************************************************* //

