// -*- C++ -*-
// File generated by PyFoam - sorry for the ugliness

FoamFile
{
 version 2.0;
 format ascii;
 class volVectorField;
 location "210";
 object U;
}

dimensions [ 0 1 -1 0 0 0 0 ];

internalField nonuniform List<vector> 459
(
  (-0.0117043 0.05517 0)
  (-0.119182 0.013348 0)
  (-0.133609 -0.00665153 0)
  (-0.124889 -0.0242753 0)
  (-0.0901598 -0.0461952 0)
  (-0.0366196 -0.0695857 0)
  (0.0499636 -0.0611972 0)
  (0.101501 -0.0453472 0)
  (0.142854 -0.0311022 0)
  (0.168693 -0.019513 0)
  (0.179397 -0.010067 0)
  (0.17588 -0.00120875 0)
  (0.159163 0.00911979 0)
  (0.124974 0.0261856 0)
  (0.103647 0.0678512 0)
  (-0.0729902 0.00844979 0)
  (-0.0138041 0.00180877 0)
  (-0.0146064 -0.0181825 0)
  (0.0142473 -0.0287787 0)
  (0.0382216 -0.0236585 0)
  (0.0598895 -0.0169572 0)
  (0.0751152 -0.0100717 0)
  (0.0837567 -0.0063232 0)
  (0.0878468 -0.0048538 0)
  (0.0899795 -0.00420789 0)
  (0.0914745 -0.00374837 0)
  (0.0925219 -0.00330994 0)
  (0.0929194 -0.00275905 0)
  (0.0921367 -0.00176703 0)
  (0.0891514 0.000246888 0)
  (0.0819075 0.0042399 0)
  (0.067982 0.0101674 0)
  (0.0337441 0.0208237 0)
  (0.070439 0.0170084 0)
  (0.0788415 0.119696 0)
  (-0.100712 0.0524816 0)
  (-0.104242 0.0152118 0)
  (-0.0990876 -0.0236104 0)
  (-0.0700528 -0.0685952 0)
  (-0.0246619 -0.106636 0)
  (0.0346473 -0.0988652 0)
  (0.0785466 -0.0722373 0)
  (0.113131 -0.0456222 0)
  (0.134703 -0.0225586 0)
  (0.144153 -0.00280876 0)
  (0.143491 0.0147286 0)
  (0.135474 0.0322746 0)
  (0.123145 0.0532719 0)
  (0.120098 0.086386 0)
  (0.111689 0.0779188 0)
  (0.0694143 0.068007 0)
  (-0.117684 0.0175729 0)
  (0.0207489 0.00238849 0)
  (0.0296019 -0.032845 0)
  (0.0446668 -0.0410408 0)
  (0.0606314 -0.0355548 0)
  (0.0743106 -0.0254247 0)
  (0.081317 -0.0114407 0)
  (0.0831137 -0.00324124 0)
  (0.0831568 -0.000136476 0)
  (0.083385 0.00101981 0)
  (0.0838476 0.00167543 0)
  (0.0842257 0.0022666 0)
  (0.0844356 0.00321487 0)
  (0.0842564 0.00506315 0)
  (0.0829936 0.00911486 0)
  (0.0774301 0.0189355 0)
  (0.0651103 0.0297992 0)
  (0.0255473 0.0447874 0)
  (0.119773 0.038374 0)
  (0.159705 0.17806 0)
  (-0.0982606 0.0788413 0)
  (-0.0819845 0.0225097 0)
  (-0.0781786 -0.0385709 0)
  (-0.0518149 -0.105474 0)
  (-0.0141417 -0.153058 0)
  (0.0273481 -0.143781 0)
  (0.0617664 -0.108958 0)
  (0.0885557 -0.0710598 0)
  (0.104855 -0.0374777 0)
  (0.111952 -0.00940162 0)
  (0.112424 0.014982 0)
  (0.10913 0.0376209 0)
  (0.104304 0.0602617 0)
  (0.102302 0.0842393 0)
  (0.0912821 0.0841175 0)
  (0.0698521 0.105886 0)
  (-0.146782 -0.00540374 0)
  (0.0652776 -0.0441711 0)
  (0.0687628 -0.0569142 0)
  (0.0749319 -0.0564112 0)
  (0.0822214 -0.0479045 0)
  (0.0888832 -0.0378884 0)
  (0.0893352 -0.0282562 0)
  (0.0798169 -0.018561 0)
  (0.0721483 -0.0132794 0)
  (0.0685573 -0.0102649 0)
  (0.0668751 -0.00827978 0)
  (0.0657732 -0.00683285 0)
  (0.0651963 -0.00548905 0)
  (0.0663254 -0.00338426 0)
  (0.071373 0.00215699 0)
  (0.0710175 0.0247094 0)
  (0.0617358 0.0428751 0)
  (0.0163307 0.0646519 0)
  (0.156356 0.0695988 0)
  (0.231382 0.225032 0)
  (-0.104954 0.101904 0)
  (-0.0630348 0.0310979 0)
  (-0.0563787 -0.0508648 0)
  (-0.0296092 -0.137853 0)
  (-9.69095e-06 -0.189337 0)
  (0.0267328 -0.17822 0)
  (0.0504849 -0.136462 0)
  (0.068045 -0.0883637 0)
  (0.077414 -0.04565 0)
  (0.0803805 -0.0113264 0)
  (0.0799586 0.0163627 0)
  (0.0792007 0.0396146 0)
  (0.0798612 0.0606196 0)
  (0.0854913 0.0812432 0)
  (0.0954919 0.092867 0)
  (0.11043 0.115689 0)
  (0.140339 0.0454227 0)
  (0.119253 0.00607122 0)
  (0.119102 -0.0338117 0)
  (0.109717 -0.0530197 0)
  (0.100941 -0.0546748 0)
  (0.0943943 -0.0470139 0)
  (0.0882437 -0.0347513 0)
  (0.0877007 -0.0200412 0)
  (0.0940936 -0.0121289 0)
  (0.096625 -0.00755603 0)
  (0.0942347 -0.00461015 0)
  (0.0892763 -0.002451 0)
  (0.0829557 -0.000679809 0)
  (0.0752392 0.00103792 0)
  (0.0652691 0.0031918 0)
  (0.0479067 0.00675496 0)
  (0.0433105 0.0329618 0)
  (0.0484671 0.0517934 0)
  (0.00947062 0.0756855 0)
  (0.183597 0.109486 0)
  (0.294498 0.261552 0)
  (-0.116048 0.119842 0)
  (-0.0448364 0.0354484 0)
  (-0.0262581 -0.0661018 0)
  (0.000875878 -0.16591 0)
  (0.0197093 -0.212995 0)
  (0.0329275 -0.199476 0)
  (0.0440294 -0.152235 0)
  (0.0504543 -0.0960714 0)
  (0.0511509 -0.046979 0)
  (0.0484462 -0.00981381 0)
  (0.0461561 0.0175212 0)
  (0.0476591 0.038211 0)
  (0.0533734 0.0555465 0)
  (0.0652064 0.0713267 0)
  (0.0825152 0.0801257 0)
  (0.105425 0.0814308 0)
  (0.125853 0.030052 0)
  (0.129701 -0.00639711 0)
  (0.123467 -0.0330833 0)
  (0.11145 -0.0448488 0)
  (0.0976404 -0.0447226 0)
  (0.0849022 -0.0373889 0)
  (0.0742082 -0.0255616 0)
  (0.06781 -0.00960973 0)
  (0.0645992 0.000488675 0)
  (0.0603215 0.00559047 0)
  (0.0549952 0.00819288 0)
  (0.0493987 0.00988642 0)
  (0.0439549 0.0114134 0)
  (0.0386079 0.013307 0)
  (0.0333877 0.0161702 0)
  (0.0268038 0.0207561 0)
  (0.0263217 0.0341586 0)
  (0.0422615 0.0480104 0)
  (0.0285469 0.0644279 0)
  (0.127875 0.103739 0)
  (0.117351 0.0818588 0)
  (0.0926465 0.0594403 0)
  (-0.0808057 0.0578556 0)
  (0.348842 0.289887 0)
  (-0.129821 0.129026 0)
  (-0.0232763 0.0300505 0)
  (0.0188152 -0.0976764 0)
  (0.0400636 -0.187563 0)
  (0.046694 -0.224551 0)
  (0.0458326 -0.207019 0)
  (0.0416452 -0.154707 0)
  (0.034619 -0.0925563 0)
  (0.0252317 -0.0401141 0)
  (0.016392 -0.0040736 0)
  (0.0131368 0.018468 0)
  (0.0169131 0.0334817 0)
  (0.0257643 0.0453968 0)
  (0.0399055 0.054864 0)
  (0.0580915 0.0574153 0)
  (0.0807269 0.0495492 0)
  (0.0972595 0.0188471 0)
  (0.101179 -0.00700807 0)
  (0.0951626 -0.0236189 0)
  (0.0832945 -0.0310104 0)
  (0.0689956 -0.0303728 0)
  (0.0549091 -0.0241967 0)
  (0.0425418 -0.0144766 0)
  (0.0330597 -0.00276593 0)
  (0.0259119 0.0055578 0)
  (0.0209558 0.00973002 0)
  (0.016469 0.0117655 0)
  (0.0123904 0.0131324 0)
  (0.00889825 0.0145002 0)
  (0.00630158 0.0162919 0)
  (0.0053742 0.0188778 0)
  (0.00566422 0.0222232 0)
  (0.0106088 0.0272958 0)
  (0.0281588 0.0332169 0)
  (0.0266799 0.034691 0)
  (0.0725102 0.0577718 0)
  (0.0747883 0.0426877 0)
  (0.0845123 0.0432029 0)
  (-0.0900791 0.078929 0)
  (0.413548 0.312764 0)
  (-0.13299 0.109776 0)
  (0.0252532 -0.0369755 0)
  (0.078201 -0.136912 0)
  (0.0915592 -0.202163 0)
  (0.0830434 -0.223542 0)
  (0.0639125 -0.197791 0)
  (0.040644 -0.140929 0)
  (0.0176204 -0.0758959 0)
  (-0.00197552 -0.0243189 0)
  (-0.0139502 0.00363684 0)
  (-0.0151297 0.0170021 0)
  (-0.0103921 0.0256272 0)
  (-0.000844361 0.0326053 0)
  (0.0132284 0.0374572 0)
  (0.0297217 0.0369275 0)
  (0.0477032 0.0290594 0)
  (0.058591 0.0113663 0)
  (0.0598014 -0.00435073 0)
  (0.0533128 -0.0143858 0)
  (0.0416989 -0.0182551 0)
  (0.0279264 -0.0165712 0)
  (0.0142056 -0.0109224 0)
  (0.00169501 -0.00270476 0)
  (-0.00818758 0.00588353 0)
  (-0.0132133 0.0110539 0)
  (-0.0166703 0.0136781 0)
  (-0.019392 0.0150367 0)
  (-0.021445 0.0158178 0)
  (-0.0224959 0.0162718 0)
  (-0.0219187 0.0164626 0)
  (-0.0189431 0.0162961 0)
  (-0.0136205 0.01533 0)
  (-0.00581335 0.0133997 0)
  (0.00939007 0.0128012 0)
  (0.00918105 0.00904729 0)
  (0.0352751 0.021961 0)
  (0.0477682 0.0188647 0)
  (0.0814738 0.044 0)
  (-0.0916927 0.118389 0)
  (0.501007 0.296483 0)
  (0.00784838 0.0765128 0)
  (0.109712 -0.0800627 0)
  (0.166132 -0.156855 0)
  (0.160995 -0.19608 0)
  (0.126654 -0.199859 0)
  (0.0808457 -0.165699 0)
  (0.0333542 -0.107252 0)
  (-0.00700433 -0.0441396 0)
  (-0.0302606 -0.00692886 0)
  (-0.0398314 0.00808387 0)
  (-0.0399253 0.0141985 0)
  (-0.0353781 0.01803 0)
  (-0.0273575 0.0211254 0)
  (-0.0165257 0.0231213 0)
  (-0.00428251 0.022317 0)
  (0.00750964 0.0172894 0)
  (0.0126263 0.00801408 0)
  (0.010827 -0.000265186 0)
  (0.00446091 -0.00529477 0)
  (-0.00660723 -0.00599063 0)
  (-0.018901 -0.0031094 0)
  (-0.0303928 0.00169732 0)
  (-0.0391532 0.00687788 0)
  (-0.0443724 0.0112237 0)
  (-0.0472939 0.0140793 0)
  (-0.0490736 0.0157179 0)
  (-0.050085 0.0163413 0)
  (-0.0503051 0.0160125 0)
  (-0.0495138 0.0147115 0)
  (-0.0475054 0.0124483 0)
  (-0.044428 0.00939437 0)
  (-0.0413277 0.00619506 0)
  (-0.0400123 0.00489577 0)
  (-0.0423818 0.00896673 0)
  (-0.052351 0.0195129 0)
  (-0.0565686 0.0392604 0)
  (-0.0664723 0.0672295 0)
  (-0.104794 0.106416 0)
  (-0.322497 0.144881 0)
  (0.619059 0.280509 0)
  (0.288719 0.18647 0)
  (0.28088 0.0537095 0)
  (0.278647 -0.0669254 0)
  (0.23045 -0.128561 0)
  (0.154957 -0.13719 0)
  (0.0741555 -0.104206 0)
  (0.00120406 -0.0505202 0)
  (-0.0454918 -0.00633308 0)
  (-0.06348 0.00905154 0)
  (-0.0681102 0.0123384 0)
  (-0.0672703 0.0129092 0)
  (-0.0635676 0.0135636 0)
  (-0.0580285 0.01455 0)
  (-0.0513132 0.0153382 0)
  (-0.0444877 0.0150741 0)
  (-0.0391743 0.0132504 0)
  (-0.037917 0.00983082 0)
  (-0.040977 0.00668719 0)
  (-0.0470577 0.00521682 0)
  (-0.0545471 0.00573695 0)
  (-0.0616444 0.00748336 0)
  (-0.0673571 0.00981018 0)
  (-0.0711964 0.0122312 0)
  (-0.0731836 0.0143571 0)
  (-0.0738485 0.0158605 0)
  (-0.0736683 0.0166452 0)
  (-0.0729087 0.0166042 0)
  (-0.071765 0.0157184 0)
  (-0.0704961 0.014153 0)
  (-0.0695522 0.0123519 0)
  (-0.0696686 0.0111061 0)
  (-0.0718032 0.0115811 0)
  (-0.0767694 0.0152887 0)
  (-0.085172 0.0237009 0)
  (-0.0973118 0.0372045 0)
  (-0.109395 0.0530677 0)
  (-0.125005 0.0593735 0)
  (-0.171376 0.0388647 0)
  (-0.295718 -0.0312041 0)
  (0.230022 -0.111376 0)
  (0.216428 -0.109252 0)
  (0.154886 -0.0971607 0)
  (0.0679346 -0.0681132 0)
  (-0.0290899 -0.0125082 0)
  (-0.0784813 0.0171459 0)
  (-0.0969646 0.0256024 0)
  (-0.101044 0.0249927 0)
  (-0.100506 0.0224957 0)
  (-0.0984312 0.0205365 0)
  (-0.0957069 0.019637 0)
  (-0.0925637 0.0196087 0)
  (-0.0892207 0.02008 0)
  (-0.0861435 0.020622 0)
  (-0.0840487 0.0209066 0)
  (-0.0837416 0.0207893 0)
  (-0.0851892 0.0207254 0)
  (-0.0876318 0.0211888 0)
  (-0.0901009 0.0223086 0)
  (-0.0918387 0.0237799 0)
  (-0.0925068 0.0252937 0)
  (-0.0920481 0.0266373 0)
  (-0.0905901 0.0276888 0)
  (-0.0883775 0.0283433 0)
  (-0.0856631 0.0285373 0)
  (-0.0826885 0.0282593 0)
  (-0.0797044 0.0276195 0)
  (-0.0769634 0.0268846 0)
  (-0.0746882 0.0264613 0)
  (-0.073019 0.0268442 0)
  (-0.0719095 0.0286182 0)
  (-0.0709683 0.0326666 0)
  (-0.0694517 0.0405381 0)
  (-0.0664305 0.0543632 0)
  (-0.0601741 0.0741992 0)
  (-0.0491911 0.0883868 0)
  (-0.0400229 0.0688869 0)
  (-0.0332406 -0.133212 0)
  (-0.130371 -0.0235738 0)
  (-0.0490683 -0.0501793 0)
  (-0.0867786 -0.0538378 0)
  (-0.121798 -0.0499403 0)
  (-0.138204 -0.0467696 0)
  (-0.140181 -0.0510266 0)
  (-0.13764 -0.0588611 0)
  (-0.134052 -0.066375 0)
  (-0.130941 -0.0713949 0)
  (-0.128386 -0.0737701 0)
  (-0.126083 -0.0741162 0)
  (-0.123701 -0.0732385 0)
  (-0.121064 -0.0719439 0)
  (-0.118222 -0.0710137 0)
  (-0.115437 -0.071102 0)
  (-0.113062 -0.0725311 0)
  (-0.111213 -0.0749695 0)
  (-0.109696 -0.0777267 0)
  (-0.108157 -0.0801667 0)
  (-0.106267 -0.0819702 0)
  (-0.103824 -0.0830721 0)
  (-0.100739 -0.0836018 0)
  (-0.0970186 -0.0838265 0)
  (-0.0927558 -0.0841 0)
  (-0.0881175 -0.0847745 0)
  (-0.0833363 -0.0861373 0)
  (-0.0786855 -0.0883357 0)
  (-0.0744254 -0.0912945 0)
  (-0.0707221 -0.0946051 0)
  (-0.0675264 -0.0973703 0)
  (-0.0643518 -0.0980449 0)
  (-0.0598816 -0.0944773 0)
  (-0.0516038 -0.0845372 0)
  (-0.0364307 -0.0676243 0)
  (-0.0130866 -0.0474636 0)
  (0.024935 -0.0534505 0)
  (0.0714687 -0.125991 0)
  (0.00697983 -0.18848 0)
  (-0.156986 -0.221339 0)
  (-0.240258 -0.0103155 0)
  (-0.223984 0.212838 0)
  (-0.21293 0.203502 0)
  (-0.215413 0.202665 0)
  (-0.211718 0.211929 0)
  (-0.201582 0.224009 0)
  (-0.188332 0.235743 0)
  (-0.176275 0.245868 0)
  (-0.16729 0.253149 0)
  (-0.161227 0.25749 0)
  (-0.157059 0.259626 0)
  (-0.153777 0.260476 0)
  (-0.15059 0.260926 0)
  (-0.146965 0.261768 0)
  (-0.142646 0.263651 0)
  (-0.137669 0.26697 0)
  (-0.132302 0.27171 0)
  (-0.126845 0.277372 0)
  (-0.121467 0.283232 0)
  (-0.116184 0.288666 0)
  (-0.110925 0.293322 0)
  (-0.105598 0.297115 0)
  (-0.100134 0.300156 0)
  (-0.0945176 0.302688 0)
  (-0.0888095 0.305011 0)
  (-0.083149 0.30744 0)
  (-0.0777278 0.310289 0)
  (-0.0727386 0.313856 0)
  (-0.0683015 0.318392 0)
  (-0.064383 0.324004 0)
  (-0.0606955 0.330497 0)
  (-0.0565487 0.337201 0)
  (-0.0507376 0.34303 0)
  (-0.0418399 0.347183 0)
  (-0.0291972 0.350756 0)
  (-0.0134214 0.35709 0)
  (0.0161312 0.36918 0)
  (0.0543484 0.42194 0)
  (-0.1446 0.480342 0)
)
;

boundaryField
{
  floor
  {
    type noSlip;
  }
  ceiling
  {
    type noSlip;
  }
  sWall
  {
    type noSlip;
  }
  nWall
  {
    type noSlip;
  }
  sideWalls
  {
    type empty;
  }
  glass1
  {
    type noSlip;
  }
  glass2
  {
    type noSlip;
  }
  sun
  {
    type noSlip;
  }
  heatsource1
  {
    type noSlip;
  }
  heatsource2
  {
    type noSlip;
  }
  Table_master
  {
    type noSlip;
  }
  Table_slave
  {
    type noSlip;
  }
  inlet
  {
    type fixedValue;
    value uniform (0.277164 -0.114805 0);
  }
  outlet
  {
    type zeroGradient;
  }
} 	// ************************************************************************* //

