/*--------------------------------*- C++ -*----------------------------------*\
  =========                 |
  \\      /  F ield         | OpenFOAM: The Open Source CFD Toolbox
   \\    /   O peration     | Website:  https://openfoam.org
    \\  /    A nd           | Version:  6
     \\/     M anipulation  |
\*---------------------------------------------------------------------------*/
FoamFile
{
    version     2.0;
    format      ascii;
    class       surfaceScalarField;
    location    "580";
    object      phi;
}
// * * * * * * * * * * * * * * * * * * * * * * * * * * * * * * * * * * * * * //

dimensions      [1 0 -1 0 0 0 0];

internalField   nonuniform List<scalar> 
852
(
-0.0024366
0.00247612
-0.00330188
0.000865261
-0.00401847
0.000716577
-0.00461792
0.000599433
-0.00507475
0.000456814
-0.00536947
0.000294703
-0.00547966
0.000110169
-0.00537868
-0.000100997
-0.00504177
-0.000336926
-0.00446906
-0.000572724
-0.00369637
-0.000772705
-0.00278808
-0.000908305
-0.00182779
-0.000960305
-0.000904374
-0.000923427
-0.000907984
0.000171276
-0.000176629
0.000295161
-0.000123894
0.000486083
-0.000190933
0.000614366
-0.000128295
0.000658104
-4.37521e-05
0.00065022
7.86917e-06
0.000643262
6.94177e-06
0.000655619
-1.23738e-05
0.000671942
-1.63414e-05
0.000685105
-1.31814e-05
0.000693849
-8.76269e-06
0.000696015
-2.18466e-06
0.000686525
9.47106e-06
0.000655367
3.11393e-05
0.000583322
7.20245e-05
0.000446618
0.000136685
0.000259493
0.000187105
-0.000163301
0.000422774
-0.000169525
-0.00178939
0.00437329
-0.00265374
0.00172959
-0.00340195
0.00146477
-0.00400056
0.00119802
-0.00445366
0.000909901
-0.00475276
0.000593787
-0.00487714
0.000234531
-0.00479942
-0.000178726
-0.00449976
-0.000636609
-0.00398772
-0.00108478
-0.00331359
-0.00144685
-0.0025545
-0.00166741
-0.00180081
-0.00171401
-0.00115184
-0.00157242
-0.000838814
-0.00122102
-0.000190835
-0.000648046
-0.000190906
-7.15951e-05
-0.000118134
0.00052228
-0.000717782
0.000750791
-0.000419457
0.000856391
-0.00023391
0.000880357
-6.77326e-05
0.000851377
3.68332e-05
0.000848642
9.66032e-06
0.000857874
-2.16232e-05
0.000863048
-2.15329e-05
0.000866978
-1.7128e-05
0.000870971
-1.27727e-05
0.000874028
-5.25977e-06
0.00087458
8.9019e-06
0.000869526
3.61755e-05
0.000834618
0.000106914
0.000686314
0.000284971
0.000410993
0.000462406
0.000283685
0.000550062
9.75318e-05
-0.00129292
0.0058324
-0.00204959
0.00248625
-0.00272954
0.00214469
-0.00325677
0.00172523
-0.0036654
0.00131852
-0.0039484
0.00087677
-0.00407884
0.000364953
-0.00401769
-0.000239889
-0.00373665
-0.000917672
-0.00325658
-0.00156486
-0.00264286
-0.00206058
-0.00197035
-0.00233993
-0.00131372
-0.00237065
-0.000750881
-0.00213527
-0.000338337
-0.00163358
-3.13571e-05
-0.000955042
-0.00022228
0.000826896
-0.0009642
0.000921721
-0.000812622
0.00111969
-0.000617443
0.00120964
-0.000323875
0.00119649
-5.45907e-05
0.00102317
0.000210138
0.00103296
0.00101148
0.00099008
0.000973089
0.000960452
0.000955329
0.000964366
0.00100068
0.00110773
0.000949352
0.000443329
0.00079068
0.00062106
0.000641119
0.000699605
0.000712476
-0.000935678
0.00698468
-0.00154695
0.00309751
-0.0020311
0.00262882
-0.00241008
0.0021042
-0.00271995
0.00162837
-0.00294936
0.00110617
-0.00306413
0.000479704
-0.00300355
-0.000300489
-0.00272538
-0.00119586
-0.00227628
-0.00201397
-0.0017397
-0.00259716
-0.00117789
-0.00290175
-0.000636866
-0.00291168
-0.000147248
-0.0026249
0.000302763
-0.00208361
0.000759816
-0.00141211
0.0013726
-0.000835084
0.00204865
-0.000694747
0.00194917
-0.00086473
0.0018153
-0.000678772
0.00167448
-0.000476632
0.0015944
-0.000243806
0.00157076
-3.09673e-05
0.0016707
0.000110185
0.00156914
0.000101391
0.00150142
6.75447e-05
0.00143797
6.32883e-05
0.00137407
6.37213e-05
0.00130779
6.61137e-05
0.00123337
7.42481e-05
0.00114081
9.2389e-05
0.00101365
0.000126992
0.000820964
0.000192515
0.000877962
0.000386313
0.000915354
0.000583648
0.000966543
0.000648398
0.00164376
-0.000674165
0.00791882
-0.00114598
0.00356931
-0.00132006
0.00280288
-0.00149028
0.0022744
-0.00164841
0.00178649
-0.00177058
0.00122832
-0.00182599
0.000535089
-0.00172628
-0.000400214
-0.00143657
-0.00148558
-0.00104564
-0.0024049
-0.00063441
-0.0030084
-0.000237716
-0.00329845
0.000126118
-0.00327553
0.000455254
-0.00295405
0.000782947
-0.00241132
0.00114351
-0.0017727
0.00152251
-0.0012141
0.00175671
-0.000928958
0.00165139
-0.000759427
0.00153719
-0.000564589
0.0014205
-0.000359953
0.00133742
-0.000160739
0.00129533
1.11069e-05
0.00127913
0.000126371
0.00122661
0.000153895
0.00115546
0.000138684
0.00109063
0.000128094
0.00103
0.000124335
0.000970384
0.000125715
0.000909769
0.000134845
0.000846549
0.000155591
0.000781779
0.000191744
0.00072912
0.000245156
0.000773591
0.000341823
0.000942546
0.000414674
0.00137929
0.000211639
0.00223739
0.000785631
0.00107704
0.00116013
-0.000332279
0.0014091
-0.000375274
-0.000583712
0.00879954
-0.000905258
0.00389084
-0.000640105
0.00253771
-0.000542598
0.00217687
-0.000525184
0.00176906
-0.000500466
0.00120358
-0.000418628
0.000453232
-0.000196516
-0.000622345
9.97545e-05
-0.00178186
0.00037717
-0.00268233
0.000605392
-0.00323662
0.00077799
-0.00347105
0.000904249
-0.00340179
0.00101092
-0.00306074
0.0011204
-0.00252082
0.00124268
-0.00189499
0.00135421
-0.00132565
0.00135236
-0.000927128
0.00124279
-0.000649877
0.00110866
-0.000430466
0.000984143
-0.000235452
0.000887797
-6.44071e-05
0.000827274
7.16154e-05
0.000795547
0.000158082
0.000762527
0.000186898
0.000718483
0.00018271
0.000673742
0.000172817
0.000631669
0.00016639
0.000592172
0.000165194
0.000555863
0.000171136
0.000525052
0.000186383
0.000504673
0.000212103
0.000502652
0.000247159
0.000549905
0.00029455
0.000642088
0.000322472
0.000622146
0.000231562
0.000667864
0.000739894
0.000262844
0.00156513
-0.000401983
0.00207391
-0.000819466
-0.000718974
0.00984807
-0.000619101
0.00379095
0.000186499
0.00173209
0.000515908
0.00184745
0.000686157
0.00159879
0.000875362
0.00101436
0.00118758
0.000140992
0.0015575
-0.000992281
0.00179713
-0.00202151
0.0018933
-0.0027785
0.00188197
-0.0032253
0.00178703
-0.0033761
0.00163978
-0.00325455
0.00147503
-0.002896
0.00131922
-0.00236503
0.00118182
-0.00175762
0.00105459
-0.00119843
0.000899684
-0.000772237
0.00073022
-0.000480429
0.000571375
-0.000271635
0.00044246
-0.000106552
0.000353375
2.46631e-05
0.000305821
0.000119153
0.000287726
0.000176161
0.000275837
0.000198769
0.000258856
0.000199674
0.000238371
0.000193283
0.000217848
0.000186895
0.000199979
0.000183044
0.000188036
0.00018306
0.000186443
0.000187956
0.000200153
0.000198374
0.00023211
0.000215183
0.000283806
0.000242833
0.000323208
0.000283051
0.000221794
0.000332956
0.000124271
0.000837397
-0.000104396
0.00179377
-0.000122656
0.00209214
-0.000982371
0.00191744
0.00829823
0.00242135
0.00328703
0.00236649
0.00178694
0.00244289
0.00177102
0.0025952
0.00144646
0.00289762
0.000711915
0.00333234
-0.000293756
0.00360539
-0.00126535
0.00362597
-0.0020421
0.00343099
-0.00258351
0.00308857
-0.00288288
0.00265666
-0.00294418
0.0021851
-0.00278299
0.00171857
-0.00242949
0.00129182
-0.0019383
0.000918091
-0.00138391
0.000607618
-0.000887984
0.000345023
-0.000509661
0.000133983
-0.000269406
-2.52784e-05
-0.00011239
-0.000134139
2.29252e-06
-0.000193477
8.39842e-05
-0.000213719
0.000139377
-0.000212971
0.000175395
-0.000207115
0.000192895
-0.000204178
0.000196718
-0.000204372
0.000193458
-0.000204646
0.000187149
-0.000201108
0.000179486
-0.000189185
0.000171117
-0.0001635
0.000162251
-0.000118214
0.000153068
-4.79197e-05
0.000144868
5.03392e-05
0.000144554
0.000160942
0.000172428
0.000231716
0.000262161
0.000412903
0.00065619
0.000735713
0.00147094
0.00153971
0.00128813
0.000308036
0.00866826
0.0119228
0.00988699
0.00382275
0.00875044
0.00290755
0.00798438
0.0022125
0.0074673
0.00122898
0.00692654
0.000246981
0.0062574
-0.00059622
0.00551309
-0.00129777
0.004726
-0.00179641
0.00391295
-0.00206981
0.00309221
-0.00212344
0.00229106
-0.00198185
0.00154621
-0.00168467
0.000900956
-0.00129308
0.000368802
-0.000851792
-2.52685e-05
-0.000493939
-0.000300843
-0.000234107
-0.000485549
-8.47185e-05
-0.000603473
5.51625e-06
-0.000667652
6.64537e-05
-0.000691707
0.000108021
-0.000691297
0.000138949
-0.000676886
0.000160965
-0.000657396
0.000173385
-0.000637872
0.000177173
-0.000619008
0.000174573
-0.000599138
0.000167259
-0.000575593
0.000155921
-0.000544992
0.000140495
-0.000503155
0.000120392
-0.000445028
9.49192e-05
-0.000364209
6.4029e-05
-0.000248316
2.86392e-05
-8.10436e-05
5.13471e-06
0.000131702
4.93939e-05
0.00049739
0.000290481
0.00111285
0.000855463
0.00173245
0.000668508
0.00177105
0.00651589
0.0035803
0.00610494
0.00331852
0.00626079
0.00205666
0.00628499
0.00120481
0.00604657
0.000485427
0.0056272
-0.000176829
0.00503591
-0.000706454
0.00429137
-0.00105184
0.00343609
-0.00121453
0.00252397
-0.00121132
0.00161681
-0.00107472
0.000776046
-0.000843946
6.81324e-05
-0.000585205
-0.000439609
-0.000344085
-0.000743116
-0.000190458
-0.000916144
-6.11005e-05
-0.00101722
1.63397e-05
-0.00107076
5.90342e-05
-0.00108916
8.48383e-05
-0.00108602
0.000104852
-0.0010682
0.000121116
-0.0010407
0.000133446
-0.00100813
0.000140786
-0.000973754
0.000142779
-0.000939087
0.000139885
-0.000904476
0.000132627
-0.000869731
0.000121154
-0.000834392
0.000105135
-0.000797859
8.38376e-05
-0.000759465
5.65034e-05
-0.000718364
2.29059e-05
-0.000669575
-2.01716e-05
-0.000596711
-6.77506e-05
-0.000493366
-5.39727e-05
-0.000369097
0.00016619
-0.000170727
0.000657072
-8.20704e-05
0.00057983
0.00163957
0.0012521
0.00229134
0.00268925
0.00188138
0.00348361
0.00126231
0.00389702
0.000791415
0.00401088
0.000371591
0.00377023
6.38391e-05
0.00322614
-0.000162341
0.00253669
-0.000362387
0.00181474
-0.000492598
0.00105714
-0.000453768
0.000343211
-0.000360844
-0.000245248
-0.000255542
-0.000688444
-0.000142049
-0.000984332
-4.82277e-05
-0.00118113
6.31393e-06
-0.00128291
4.0655e-05
-0.0013296
6.30131e-05
-0.00134918
7.85936e-05
-0.00135161
8.72422e-05
-0.0013402
9.34192e-05
-0.00131747
9.83634e-05
-0.00128591
0.000101872
-0.00124843
0.000103281
-0.00120785
0.000102175
-0.00116647
9.84848e-05
-0.00112611
9.22458e-05
-0.00108842
8.34448e-05
-0.00105536
7.20519e-05
-0.00102985
5.82996e-05
-0.00101653
4.31608e-05
-0.00102164
2.79986e-05
-0.00105721
1.53782e-05
-0.00113372
8.73186e-06
-0.00120671
1.89988e-05
-0.0011506
0.000110052
-0.00083092
0.000337375
-0.000763299
0.000512187
0.000813146
-0.00438463
-0.00518221
-0.00293826
-0.00110498
0.00010687
0.000845073
0.00116196
0.00117
0.000952164
0.000535159
-1.19639e-05
-0.000520962
-0.000937048
-0.00124809
-0.00144645
-0.00155212
-0.00160428
-0.00162277
-0.0016194
-0.00160078
-0.00157376
-0.00154071
-0.00150281
-0.00146144
-0.00141866
-0.00137693
-0.00133881
-0.00130683
-0.00128351
-0.00127143
-0.00127294
-0.00128946
-0.00132109
-0.00136551
-0.001417
-0.00145851
-0.00140817
-0.00112827
-0.000671879
)
;

boundaryField
{
    floor
    {
        type            calculated;
        value           nonuniform List<scalar> 
29
(
0
0
0
0
0
0
0
0
0
0
0
0
0
0
0
0
0
0
0
0
6.2044e-06
1.66085e-05
2.61558e-05
3.52438e-05
3.59635e-06
5.34254e-06
1.30876e-05
1.91558e-05
1.86838e-05
)
;
    }
    ceiling
    {
        type            calculated;
        value           nonuniform List<scalar> 
43
(
5.38476e-05
4.99427e-05
4.7398e-05
4.8105e-05
5.04805e-05
5.32242e-05
5.47225e-05
5.5816e-05
5.55064e-05
5.46066e-05
5.44047e-05
5.5144e-05
5.5183e-05
5.54548e-05
5.62773e-05
5.74223e-05
5.84491e-05
5.91233e-05
5.96171e-05
5.99549e-05
6.01911e-05
6.03481e-05
6.04419e-05
6.04815e-05
6.04742e-05
6.04268e-05
6.0346e-05
6.02368e-05
6.01031e-05
5.99504e-05
5.979e-05
5.96522e-05
5.961e-05
5.97771e-05
6.01941e-05
6.0491e-05
5.96872e-05
5.74536e-05
5.57759e-05
6.09786e-05
3.98403e-05
3.24602e-05
3.68703e-05
)
;
    }
    sWall
    {
        type            calculated;
        value           uniform -0.00019839;
    }
    nWall
    {
        type            calculated;
        value           nonuniform List<scalar> 6(4.27703e-05 4.21864e-05 4.02271e-05 4.93927e-05 6.31004e-05 8.02662e-05);
    }
    sideWalls
    {
        type            empty;
        value           nonuniform 0();
    }
    glass1
    {
        type            calculated;
        value           nonuniform List<scalar> 9(-3.95351e-05 -0.000107787 -0.000166205 -0.000216619 -0.000259985 -0.000297029 -0.000329565 -0.000367611 -0.00040988);
    }
    glass2
    {
        type            calculated;
        value           nonuniform List<scalar> 2(0.000249277 0.000269412);
    }
    sun
    {
        type            calculated;
        value           uniform 0;
    }
    heatsource1
    {
        type            calculated;
        value           nonuniform List<scalar> 3(2.03567e-07 2.03807e-07 2.04096e-07);
    }
    heatsource2
    {
        type            calculated;
        value           nonuniform List<scalar> 4(5.10258e-08 5.11443e-08 0 0);
    }
    Table_master
    {
        type            calculated;
        value           nonuniform List<scalar> 9(-1.53067e-07 -1.53103e-07 -1.53118e-07 -1.5313e-07 -1.53139e-07 -1.53145e-07 -1.53145e-07 -1.53135e-07 -1.53104e-07);
    }
    Table_slave
    {
        type            calculated;
        value           nonuniform List<scalar> 9(1.52783e-07 1.52855e-07 1.52882e-07 1.52905e-07 1.52927e-07 1.52948e-07 1.52973e-07 1.53004e-07 1.53049e-07);
    }
    inlet
    {
        type            calculated;
        value           uniform -0.00627344;
    }
    outlet
    {
        type            calculated;
        value           nonuniform List<scalar> 2(0.00452918 0.000747645);
    }
}


// ************************************************************************* //
