// -*- C++ -*-
// File generated by PyFoam - sorry for the ugliness

FoamFile
{
 version 2.0;
 format ascii;
 class volVectorField;
 location "200";
 object U;
}

dimensions [ 0 1 -1 0 0 0 0 ];

internalField nonuniform List<vector> 459
(
  (0.0975551 0.0657325 0)
  (-0.133639 0.00173177 0)
  (-0.114412 0.0053937 0)
  (-0.127564 0.00660998 0)
  (-0.140705 0.00582743 0)
  (-0.152449 0.00415548 0)
  (-0.161649 0.00188831 0)
  (-0.167414 -0.000911009 0)
  (-0.168902 -0.00426119 0)
  (-0.165223 -0.00828107 0)
  (-0.155219 -0.0131711 0)
  (-0.137218 -0.0191537 0)
  (-0.110388 -0.0271955 0)
  (-0.0808845 -0.0391398 0)
  (-0.0723841 -0.0541211 0)
  (0.0203465 0.0135717 0)
  (-0.0375501 -0.0062299 0)
  (-0.0275763 -0.00656554 0)
  (-0.0250414 -0.00350718 0)
  (-0.0233604 -0.00339948 0)
  (-0.020003 -0.00563542 0)
  (-0.0125542 -0.0107232 0)
  (-0.00591069 -0.0108845 0)
  (0.00545163 -0.00779207 0)
  (0.0111607 -0.00591151 0)
  (0.0156251 -0.00466048 0)
  (0.0189782 -0.00375411 0)
  (0.0213217 -0.00263121 0)
  (0.0226589 -0.000775505 0)
  (0.022651 0.000891537 0)
  (0.0234112 -0.00066172 0)
  (0.0267685 -0.00571458 0)
  (0.0392473 -0.00378856 0)
  (-0.0149555 0.0152351 0)
  (0.296167 0.143507 0)
  (-0.156911 0.0170896 0)
  (-0.104194 0.0192098 0)
  (-0.122904 0.0207932 0)
  (-0.137089 0.0196149 0)
  (-0.149354 0.0167011 0)
  (-0.159005 0.0124402 0)
  (-0.165403 0.00690649 0)
  (-0.16782 5.81339e-05 0)
  (-0.165502 -0.00817294 0)
  (-0.157921 -0.0175959 0)
  (-0.144337 -0.0281038 0)
  (-0.124744 -0.0404432 0)
  (-0.101497 -0.056143 0)
  (-0.0797016 -0.073311 0)
  (-0.0619817 -0.0800182 0)
  (0.0428413 0.0148184 0)
  (0.117472 0.01821 0)
  (0.0359369 0.0124467 0)
  (0.00333535 0.00640714 0)
  (-0.00586925 0.00466967 0)
  (-0.00695874 0.00412775 0)
  (-0.0101864 0.000853547 0)
  (-0.00789119 -0.0121349 0)
  (-0.011908 -0.0113292 0)
  (-0.00905267 -0.00774032 0)
  (-0.00920084 -0.00522168 0)
  (-0.0100454 -0.00330245 0)
  (-0.0113128 -0.00118976 0)
  (-0.0136458 0.00140805 0)
  (-0.0167808 0.00295482 0)
  (-0.0177413 -0.000197641 0)
  (-0.0145675 -0.00997992 0)
  (-0.00841307 -0.0173788 0)
  (0.0187329 -0.00621816 0)
  (-0.0991671 0.0379149 0)
  (0.461596 0.219394 0)
  (-0.201732 0.0434851 0)
  (-0.086868 0.0379161 0)
  (-0.11305 0.0354133 0)
  (-0.127515 0.0320495 0)
  (-0.139964 0.0266599 0)
  (-0.150037 0.0193196 0)
  (-0.157288 0.0100654 0)
  (-0.161092 -0.00105851 0)
  (-0.160645 -0.0138262 0)
  (-0.156085 -0.0279641 0)
  (-0.147689 -0.0429287 0)
  (-0.136389 -0.0585161 0)
  (-0.123865 -0.0742071 0)
  (-0.112168 -0.0867603 0)
  (-0.104942 -0.0899013 0)
  (-0.111663 -0.0824992 0)
  (0.0373814 0.0226127 0)
  (-0.0414267 0.0154904 0)
  (-0.0401393 0.0129469 0)
  (-0.0352434 0.00634954 0)
  (-0.0297091 -0.00116426 0)
  (-0.0252954 -0.00910606 0)
  (-0.00347615 -0.0113247 0)
  (-0.0276821 -0.0102261 0)
  (-0.0359137 -0.00738831 0)
  (-0.0413533 -0.00568831 0)
  (-0.044919 -0.00455962 0)
  (-0.0468029 -0.00371319 0)
  (-0.0471093 -0.00311991 0)
  (-0.0466683 -0.00338196 0)
  (-0.0441933 -0.00602036 0)
  (-0.030905 -0.0102958 0)
  (-0.0371265 -0.00412074 0)
  (-0.0621544 0.005482 0)
  (-0.141343 0.0155806 0)
  (0.59535 0.282639 0)
  (-0.247586 0.0750749 0)
  (-0.0650014 0.0578903 0)
  (-0.0996175 0.0505925 0)
  (-0.113353 0.0452605 0)
  (-0.124805 0.0379713 0)
  (-0.134325 0.0283987 0)
  (-0.141554 0.0163862 0)
  (-0.145911 0.00191977 0)
  (-0.146563 -0.0145372 0)
  (-0.1441 -0.0318497 0)
  (-0.139989 -0.0488167 0)
  (-0.135974 -0.0646141 0)
  (-0.133974 -0.0780177 0)
  (-0.136265 -0.0859261 0)
  (-0.146875 -0.0823373 0)
  (-0.165754 -0.0557264 0)
  (-0.159006 0.00834772 0)
  (-0.110418 0.0170234 0)
  (-0.102003 0.012142 0)
  (-0.0882566 0.00620788 0)
  (-0.0822142 -0.000911723 0)
  (-0.0790353 -0.00814859 0)
  (-0.0787657 -0.0137579 0)
  (-0.0746796 -0.0111871 0)
  (-0.0630599 -0.0107985 0)
  (-0.0516421 -0.0112265 0)
  (-0.0402145 -0.0114527 0)
  (-0.0290754 -0.0113508 0)
  (-0.0186513 -0.0109561 0)
  (-0.0091688 -0.0104233 0)
  (0.00120106 -0.00974327 0)
  (0.0126027 -0.00935855 0)
  (0.0119607 -0.0134535 0)
  (0.0199299 -0.00683253 0)
  (0.0330385 -0.00295172 0)
  (-0.055313 -0.0013212 0)
  (0.701907 0.334953 0)
  (-0.287296 0.108696 0)
  (-0.0421832 0.0756677 0)
  (-0.0832602 0.0640972 0)
  (-0.095444 0.0567114 0)
  (-0.104322 0.0475806 0)
  (-0.111566 0.0360687 0)
  (-0.116943 0.0217516 0)
  (-0.119841 0.0044941 0)
  (-0.119143 -0.0148905 0)
  (-0.116229 -0.0340188 0)
  (-0.113262 -0.0508817 0)
  (-0.112068 -0.0647984 0)
  (-0.114007 -0.0753101 0)
  (-0.119943 -0.0812824 0)
  (-0.12967 -0.080357 0)
  (-0.138366 -0.0675438 0)
  (-0.13766 -0.0381815 0)
  (-0.125374 -0.0140529 0)
  (-0.109769 -0.00381686 0)
  (-0.0964257 -0.00363287 0)
  (-0.0873941 -0.00676251 0)
  (-0.0815042 -0.0111844 0)
  (-0.0776372 -0.0145691 0)
  (-0.072937 -0.0146866 0)
  (-0.0663375 -0.0154106 0)
  (-0.0592009 -0.0159725 0)
  (-0.0519885 -0.016065 0)
  (-0.0450268 -0.0155309 0)
  (-0.0385928 -0.014546 0)
  (-0.0326897 -0.013623 0)
  (-0.0267282 -0.0133766 0)
  (-0.0200914 -0.0146173 0)
  (-0.0127467 -0.0190451 0)
  (0.000452416 -0.0211026 0)
  (0.028586 -0.0199089 0)
  (0.0546807 -0.0136721 0)
  (0.0990061 -0.0184224 0)
  (0.126882 0.00638141 0)
  (-0.0372065 0.0606934 0)
  (0.772944 0.381953 0)
  (-0.320391 0.139948 0)
  (-0.024867 0.0865635 0)
  (-0.063448 0.0753148 0)
  (-0.0739444 0.0654752 0)
  (-0.0791309 0.0540981 0)
  (-0.0823334 0.0407735 0)
  (-0.083945 0.0245409 0)
  (-0.0832322 0.00474431 0)
  (-0.0783167 -0.0173769 0)
  (-0.0735405 -0.0372575 0)
  (-0.0705175 -0.0525308 0)
  (-0.0705344 -0.0633519 0)
  (-0.0742031 -0.0701533 0)
  (-0.0814427 -0.0725203 0)
  (-0.0908581 -0.0688437 0)
  (-0.0984829 -0.0571974 0)
  (-0.100007 -0.039623 0)
  (-0.0949038 -0.0242344 0)
  (-0.0864689 -0.0156394 0)
  (-0.0784202 -0.0128301 0)
  (-0.0723995 -0.013422 0)
  (-0.0684853 -0.0157554 0)
  (-0.0660612 -0.0180362 0)
  (-0.0638921 -0.0192189 0)
  (-0.0614374 -0.0202223 0)
  (-0.0590089 -0.0208138 0)
  (-0.0569227 -0.0206332 0)
  (-0.0555001 -0.0195419 0)
  (-0.054971 -0.0178746 0)
  (-0.0553139 -0.0164372 0)
  (-0.0561692 -0.0163065 0)
  (-0.0569787 -0.0187715 0)
  (-0.0567197 -0.0248821 0)
  (-0.052155 -0.0340516 0)
  (-0.0395248 -0.046941 0)
  (-0.0210013 -0.0641835 0)
  (0.00712403 -0.0727109 0)
  (0.100311 -0.000165936 0)
  (-0.0703673 0.116653 0)
  (0.792655 0.425154 0)
  (-0.337682 0.145249 0)
  (-0.00966238 0.0707397 0)
  (-0.0283833 0.0841196 0)
  (-0.0422728 0.073249 0)
  (-0.0453569 0.0560613 0)
  (-0.0433296 0.0399468 0)
  (-0.0393406 0.0218942 0)
  (-0.0313701 -0.000718401 0)
  (-0.0209717 -0.0248302 0)
  (-0.015605 -0.0428484 0)
  (-0.0138966 -0.0545612 0)
  (-0.0159036 -0.0613815 0)
  (-0.0215153 -0.0645765 0)
  (-0.0301456 -0.0644959 0)
  (-0.0401963 -0.0603333 0)
  (-0.0487836 -0.0512723 0)
  (-0.0532944 -0.0392156 0)
  (-0.0533499 -0.0282451 0)
  (-0.0508421 -0.0209886 0)
  (-0.0478846 -0.017481 0)
  (-0.0457244 -0.0166777 0)
  (-0.0447898 -0.0174891 0)
  (-0.044948 -0.0187587 0)
  (-0.045738 -0.0197798 0)
  (-0.0469818 -0.0204627 0)
  (-0.0489055 -0.020422 0)
  (-0.051909 -0.0192484 0)
  (-0.0565837 -0.0168807 0)
  (-0.0634599 -0.013996 0)
  (-0.0727272 -0.0118029 0)
  (-0.084007 -0.0114355 0)
  (-0.0964844 -0.0141021 0)
  (-0.109395 -0.021473 0)
  (-0.121519 -0.0351955 0)
  (-0.130727 -0.0561355 0)
  (-0.13337 -0.0804439 0)
  (-0.120779 -0.0886534 0)
  (-0.0845711 -0.0303753 0)
  (-0.147172 0.211256 0)
  (0.891979 0.450344 0)
  (-0.155154 0.125234 0)
  (0.0560803 0.0182535 0)
  (0.0767229 0.0476004 0)
  (0.0413979 0.0527762 0)
  (0.0246333 0.0332913 0)
  (0.0267163 0.0152984 0)
  (0.033322 -0.00271942 0)
  (0.0498468 -0.0212872 0)
  (0.0573867 -0.0362489 0)
  (0.0581005 -0.0470692 0)
  (0.0546801 -0.0537041 0)
  (0.048323 -0.0567135 0)
  (0.0396287 -0.0568471 0)
  (0.0290588 -0.0546775 0)
  (0.0174861 -0.0502776 0)
  (0.0066908 -0.0434084 0)
  (-0.00139282 -0.0348368 0)
  (-0.00587753 -0.0269935 0)
  (-0.00807005 -0.0213184 0)
  (-0.00935652 -0.0179877 0)
  (-0.0106678 -0.0165846 0)
  (-0.0125127 -0.0164686 0)
  (-0.0150287 -0.0168964 0)
  (-0.0181134 -0.0172776 0)
  (-0.0217337 -0.0171856 0)
  (-0.0260313 -0.016013 0)
  (-0.0313335 -0.0130748 0)
  (-0.0383469 -0.0079444 0)
  (-0.0476844 -0.000992679 0)
  (-0.0605793 0.0062472 0)
  (-0.0795408 0.0108278 0)
  (-0.105308 0.00940317 0)
  (-0.137028 -0.000186224 0)
  (-0.172498 -0.0175344 0)
  (-0.207298 -0.0390284 0)
  (-0.23967 -0.0601884 0)
  (-0.26824 -0.0720869 0)
  (-0.331023 -0.061094 0)
  (-0.566209 -0.00331618 0)
  (1.02572 0.426067 0)
  (0.49205 0.283017 0)
  (0.460283 0.22539 0)
  (0.401526 0.187164 0)
  (0.311399 0.14711 0)
  (0.248806 0.100378 0)
  (0.216678 0.05942 0)
  (0.199809 0.0271665 0)
  (0.182759 0.000608926 0)
  (0.164375 -0.0198106 0)
  (0.147217 -0.0334853 0)
  (0.131389 -0.0412336 0)
  (0.11649 -0.0443856 0)
  (0.102234 -0.0441537 0)
  (0.0884668 -0.0414791 0)
  (0.0752231 -0.0370887 0)
  (0.0629743 -0.0316076 0)
  (0.0525761 -0.0257988 0)
  (0.0445853 -0.0205682 0)
  (0.0386142 -0.016547 0)
  (0.0339053 -0.0139227 0)
  (0.0297694 -0.0125282 0)
  (0.0256984 -0.0120136 0)
  (0.021413 -0.0119535 0)
  (0.0168522 -0.0119247 0)
  (0.0120743 -0.0114961 0)
  (0.00723008 -0.0100893 0)
  (0.0025695 -0.00699634 0)
  (-0.00165824 -0.00153495 0)
  (-0.00443073 0.00633058 0)
  (-0.00747253 0.0159948 0)
  (-0.0108557 0.0256389 0)
  (-0.0151938 0.0320826 0)
  (-0.0203788 0.0323052 0)
  (-0.0259861 0.023962 0)
  (-0.0409983 0.00529204 0)
  (-0.0543789 -0.0204098 0)
  (-0.0457912 -0.0610787 0)
  (-0.0631293 -0.142415 0)
  (-0.502846 -0.237349 0)
  (-0.465309 0.181559 0)
  (0.141876 0.186511 0)
  (0.1982 0.144585 0)
  (0.202636 0.100815 0)
  (0.212107 0.0636383 0)
  (0.217226 0.0343687 0)
  (0.214842 0.0127297 0)
  (0.206182 -0.00303534 0)
  (0.194074 -0.0143332 0)
  (0.180091 -0.021696 0)
  (0.165191 -0.0256131 0)
  (0.150192 -0.0265786 0)
  (0.13574 -0.0251186 0)
  (0.122287 -0.0218157 0)
  (0.110153 -0.0173495 0)
  (0.0995907 -0.0125197 0)
  (0.0907011 -0.00814112 0)
  (0.0833017 -0.00479061 0)
  (0.0770065 -0.00269646 0)
  (0.0713763 -0.00177253 0)
  (0.0660164 -0.00172303 0)
  (0.060665 -0.00217378 0)
  (0.0552353 -0.00273324 0)
  (0.0498007 -0.00299836 0)
  (0.0446168 -0.00248705 0)
  (0.0401559 -0.000620535 0)
  (0.0372942 0.00301171 0)
  (0.036435 0.00849385 0)
  (0.0380306 0.0158449 0)
  (0.0421963 0.0233455 0)
  (0.0480864 0.0280616 0)
  (0.054453 0.0273201 0)
  (0.0602913 0.0203647 0)
  (0.0648045 0.0081997 0)
  (0.0690426 -0.00575962 0)
  (0.078086 -0.0198517 0)
  (0.139327 -0.0735274 0)
  (-0.150207 -0.179387 0)
  (-0.29883 0.175409 0)
  (0.140118 0.130293 0)
  (0.126599 0.0857641 0)
  (0.153845 0.0594091 0)
  (0.185509 0.0351346 0)
  (0.205328 0.0129065 0)
  (0.213017 -0.00569087 0)
  (0.212431 -0.0201965 0)
  (0.206165 -0.0298844 0)
  (0.196221 -0.0361292 0)
  (0.184156 -0.0398837 0)
  (0.171269 -0.0419102 0)
  (0.15861 -0.0428662 0)
  (0.14695 -0.0433172 0)
  (0.136742 -0.0437158 0)
  (0.12811 -0.0443358 0)
  (0.120866 -0.0451901 0)
  (0.114621 -0.0460324 0)
  (0.108956 -0.0465174 0)
  (0.103557 -0.0463859 0)
  (0.0982642 -0.0454948 0)
  (0.0930259 -0.0440039 0)
  (0.0878809 -0.0420413 0)
  (0.082959 -0.0396303 0)
  (0.0785099 -0.0367198 0)
  (0.075047 -0.0330206 0)
  (0.0733083 -0.027971 0)
  (0.073767 -0.021017 0)
  (0.0773421 -0.0128621 0)
  (0.0843555 -0.00513753 0)
  (0.0940044 -9.0058e-05 0)
  (0.104438 0.000268439 0)
  (0.113347 -0.00502725 0)
  (0.119178 -0.0155852 0)
  (0.118064 -0.0276958 0)
  (0.108243 -0.0426503 0)
  (0.146751 -0.0728855 0)
  (-0.214437 -0.11714 0)
  (0.215267 -0.155049 0)
  (-0.2176 -0.0446891 0)
  (-0.204675 0.166315 0)
  (0.0954287 0.0861526 0)
  (0.0723809 0.0707186 0)
  (0.113651 0.0672152 0)
  (0.155307 0.063426 0)
  (0.181973 0.0609934 0)
  (0.194114 0.0615485 0)
  (0.195953 0.0649124 0)
  (0.191536 0.0687369 0)
  (0.183411 0.0732183 0)
  (0.173287 0.0785919 0)
  (0.162457 0.0849868 0)
  (0.151981 0.0923723 0)
  (0.142669 0.10052 0)
  (0.135046 0.10897 0)
  (0.129313 0.117038 0)
  (0.125369 0.123938 0)
  (0.122878 0.128977 0)
  (0.121403 0.131739 0)
  (0.12053 0.132162 0)
  (0.119928 0.130417 0)
  (0.119397 0.127084 0)
  (0.118828 0.122662 0)
  (0.118211 0.117452 0)
  (0.117657 0.111647 0)
  (0.117405 0.105143 0)
  (0.117929 0.0976721 0)
  (0.119961 0.0890282 0)
  (0.124414 0.0798685 0)
  (0.131788 0.0711664 0)
  (0.141604 0.0635416 0)
  (0.152047 0.0570055 0)
  (0.160294 0.0513902 0)
  (0.163058 0.0462103 0)
  (0.156506 0.0388858 0)
  (0.137759 0.0289842 0)
  (0.165011 0.0111745 0)
  (-0.260221 -0.0180018 0)
)
;

boundaryField
{
  floor
  {
    type noSlip;
  }
  ceiling
  {
    type noSlip;
  }
  sWall
  {
    type noSlip;
  }
  nWall
  {
    type noSlip;
  }
  sideWalls
  {
    type empty;
  }
  glass1
  {
    type noSlip;
  }
  glass2
  {
    type noSlip;
  }
  sun
  {
    type noSlip;
  }
  heatsource1
  {
    type noSlip;
  }
  heatsource2
  {
    type noSlip;
  }
  Table_master
  {
    type noSlip;
  }
  Table_slave
  {
    type noSlip;
  }
  inlet
  {
    type fixedValue;
    value uniform (0.0707107 -0.0707107 0);
  }
  outlet
  {
    type zeroGradient;
  }
} 	// ************************************************************************* //

