/*--------------------------------*- C++ -*----------------------------------*\
  =========                 |
  \\      /  F ield         | OpenFOAM: The Open Source CFD Toolbox
   \\    /   O peration     | Website:  https://openfoam.org
    \\  /    A nd           | Version:  6
     \\/     M anipulation  |
\*---------------------------------------------------------------------------*/
FoamFile
{
    version     2.0;
    format      ascii;
    class       volScalarField;
    location    "80";
    object      epsilon;
}
// * * * * * * * * * * * * * * * * * * * * * * * * * * * * * * * * * * * * * //

dimensions      [0 2 -3 0 0 0 0];

internalField   nonuniform List<scalar> 
459
(
0.000200777
0.000534314
0.000670059
0.000658258
0.000612778
0.00056426
0.000519069
0.000477195
0.000440797
0.000408
0.000376388
0.000343673
0.000307358
0.000263832
0.000214987
0.000130008
0.000257672
0.000397194
0.000472314
0.000483545
0.000468582
0.000413163
0.000352854
0.000301413
0.000259515
0.00022563
0.000198239
0.000175849
0.00015703
0.000140957
0.000126212
0.000111192
9.23184e-05
6.82808e-05
0.000182748
0.000581521
0.000614817
0.000539256
0.000447061
0.000379366
0.000336223
0.000309332
0.000293293
0.000281811
0.000269845
0.000254275
0.000234132
0.00021025
0.000183684
0.000227793
0.000168427
0.000192875
0.00063913
0.000400069
0.00034642
0.00032829
0.000320206
0.000351462
0.000304932
0.000255453
0.000213568
0.000179364
0.000151841
0.000129473
0.000110821
9.54901e-05
8.68928e-05
8.92012e-05
8.04081e-05
7.50122e-05
0.000467067
0.000839616
0.000696485
0.000544324
0.000416754
0.000342077
0.000307441
0.00029365
0.000285447
0.000274675
0.000257469
0.000233915
0.000207303
0.000181719
0.000160145
0.000161235
0.000188523
0.000224636
0.000472844
0.000356404
0.00032261
0.00030734
0.000319359
0.000835322
0.000605596
0.000444909
0.000333545
0.000254733
0.000196892
0.00015278
0.000118825
9.88253e-05
7.56999e-05
7.4026e-05
6.84729e-05
7.52451e-05
0.000663178
0.0011994
0.000741927
0.000543924
0.000377343
0.00029219
0.000264762
0.000260765
0.000259171
0.000250902
0.000234239
0.000211505
0.000186821
0.000164576
0.000148555
0.000143868
0.000160405
0.000239325
0.000246531
0.000261713
0.000296712
0.00032483
0.00033395
0.000353748
0.00102428
0.000779166
0.000619633
0.000507334
0.000423661
0.000356737
0.000298688
0.000244718
0.000191298
0.000113994
8.22672e-05
7.4275e-05
7.98917e-05
0.000849993
0.00137952
0.000727566
0.000593652
0.000353949
0.000237958
0.000207078
0.000207954
0.000212307
0.000210338
0.000201238
0.000187406
0.000172331
0.000160237
0.000155843
0.000162447
0.000204547
0.000268582
0.000316196
0.000371973
0.000420239
0.000440886
0.000427157
0.000389461
0.000378081
0.000351175
0.000331243
0.000312208
0.000290236
0.000263663
0.000231575
0.000193751
0.000149841
0.000102369
7.42787e-05
7.31313e-05
7.36516e-05
7.72763e-05
8.19795e-05
0.000185536
0.00103411
0.00149321
0.000793907
0.00074325
0.000388546
0.000226744
0.00018249
0.000176772
0.000180376
0.000182603
0.000181387
0.000177944
0.000175338
0.000178134
0.000193503
0.000230697
0.0003081
0.000401616
0.000494122
0.000566099
0.00059788
0.000579797
0.000519279
0.00043448
0.000360631
0.000320894
0.000302358
0.000284105
0.00025904
0.000226708
0.000188563
0.000147731
0.000107525
7.60767e-05
5.80947e-05
6.04703e-05
6.98163e-05
9.1687e-05
0.000169671
0.000316169
0.00121707
0.00177587
0.000922098
0.00099228
0.000522186
0.000284998
0.000213155
0.000195128
0.000192014
0.000194426
0.000198726
0.000204967
0.000216139
0.000238094
0.000278722
0.000349469
0.000459066
0.000589654
0.000694323
0.000744763
0.000729857
0.000656586
0.00054794
0.00043118
0.000339014
0.000292981
0.000266266
0.000238476
0.000205026
0.000168055
0.000131213
9.78922e-05
7.02343e-05
5.32196e-05
4.33175e-05
4.90794e-05
6.39974e-05
0.000105321
0.000436355
0.000682132
0.00111227
0.00240443
0.00108179
0.00131727
0.000738141
0.00041577
0.000320978
0.000295995
0.000289581
0.000288829
0.000296387
0.000311928
0.000337642
0.00037844
0.000443018
0.000545296
0.000673621
0.000799643
0.000867343
0.000860018
0.000774932
0.000643056
0.000506921
0.000393102
0.000314924
0.000269189
0.000236152
0.00020424
0.000170779
0.000137315
0.000106105
7.92841e-05
5.86698e-05
4.63262e-05
4.12122e-05
4.81048e-05
6.9501e-05
0.000187839
0.00221195
0.00198054
0.000851417
0.000688074
0.00129945
0.00160517
0.00101588
0.000670959
0.000587632
0.000571711
0.000569443
0.000571294
0.000577565
0.000596226
0.000632194
0.000685427
0.000758742
0.000851322
0.00094552
0.00100589
0.0010015
0.000928967
0.000808818
0.00067573
0.000560157
0.000478324
0.000425617
0.000389495
0.000359161
0.000327065
0.000290166
0.000248311
0.000203525
0.000159788
0.00012223
9.58026e-05
8.40189e-05
9.35233e-05
0.000144427
0.000508002
0.00514525
0.00343554
0.00165301
0.00185644
0.00140945
0.00125883
0.00127197
0.00129808
0.00131
0.00131478
0.00131895
0.00132784
0.00134932
0.00138272
0.00142212
0.00145764
0.00147252
0.00144921
0.00138493
0.00129974
0.0012171
0.00115304
0.00111179
0.00108725
0.00107377
0.00106295
0.00104671
0.00101792
0.000970351
0.000899987
0.000807258
0.000698992
0.000588917
0.000495986
0.000442479
0.000461676
0.000638904
0.00141698
0.00536671
0.00259628
0.00449168
0.00435381
0.00369412
0.00329454
0.00319263
0.00315903
0.00311946
0.00307423
0.00302922
0.00299221
0.00297179
0.00297412
0.00299942
0.00304182
0.00308887
0.00312206
0.00312444
0.00309421
0.00304865
0.00300696
0.0029802
0.00297082
0.00297414
0.00298274
0.00298443
0.00296288
0.0028985
0.002772
0.00257088
0.00229775
0.0019768
0.00165435
0.00139183
0.00126029
0.00136394
0.00198408
0.00320652
0.00175904
0.000964211
0.00118274
0.00171162
0.00213123
0.00214624
0.00211553
0.00209331
0.0020827
0.00208643
0.00209779
0.00211859
0.00215079
0.00218946
0.00222848
0.00225998
0.00227526
0.00226713
0.0022346
0.00218539
0.00213163
0.00208299
0.00204462
0.00201714
0.00199773
0.00198173
0.00196316
0.00193581
0.00189403
0.00183369
0.00175364
0.00165709
0.00155228
0.00145185
0.00137183
0.00133269
0.00136273
0.00149954
0.0017736
0.00192618
0.00124222
)
;

boundaryField
{
    floor
    {
        Cmu             0.09;
        kappa           0.41;
        E               9.8;
        type            epsilonWallFunction;
        value           nonuniform List<scalar> 
29
(
0.000214987
0.000130008
0.000257672
0.000397194
0.000472314
0.000483545
0.000468582
0.000413163
0.000352854
0.000301413
0.000259515
0.00022563
0.000198239
0.000175849
0.00015703
0.000140957
0.000126212
0.000111192
9.23184e-05
6.82808e-05
6.82808e-05
7.50122e-05
7.52451e-05
7.98917e-05
0.000214987
0.000130008
0.000192875
0.000224636
0.000239325
)
;
    }
    ceiling
    {
        Cmu             0.09;
        kappa           0.41;
        E               9.8;
        type            epsilonWallFunction;
        value           nonuniform List<scalar> 
43
(
0.000964211
0.00118274
0.00171162
0.00213123
0.00214624
0.00211553
0.00209331
0.0020827
0.00208643
0.00209779
0.00211859
0.00215079
0.00218946
0.00222848
0.00225998
0.00227526
0.00226713
0.0022346
0.00218539
0.00213163
0.00208299
0.00204462
0.00201714
0.00199773
0.00198173
0.00196316
0.00193581
0.00189403
0.00183369
0.00175364
0.00165709
0.00155228
0.00145185
0.00137183
0.00133269
0.00136273
0.00149954
0.0017736
0.00192618
0.00124222
0.000851417
0.000688074
0.00449168
)
;
    }
    sWall
    {
        Cmu             0.09;
        kappa           0.41;
        E               9.8;
        type            epsilonWallFunction;
        value           uniform 0.000964211;
    }
    nWall
    {
        Cmu             0.09;
        kappa           0.41;
        E               9.8;
        type            epsilonWallFunction;
        value           nonuniform List<scalar> 6(0.000185536 0.000316169 0.000682132 0.00259628 0.00175904 0.00124222);
    }
    sideWalls
    {
        type            empty;
    }
    glass1
    {
        Cmu             0.09;
        kappa           0.41;
        E               9.8;
        type            epsilonWallFunction;
        value           nonuniform List<scalar> 9(0.000200777 0.000182748 0.000467067 0.000663178 0.000849993 0.00103411 0.00121707 0.00111227 0.000851417);
    }
    glass2
    {
        Cmu             0.09;
        kappa           0.41;
        E               9.8;
        type            epsilonWallFunction;
        value           nonuniform List<scalar> 2(0.00198054 0.00343554);
    }
    sun
    {
        Cmu             0.09;
        kappa           0.41;
        E               9.8;
        type            epsilonWallFunction;
        value           nonuniform List<scalar> 
14
(
0.000200777
0.000534314
0.000670059
0.000658258
0.000612778
0.00056426
0.000519069
0.000477195
0.000440797
0.000408
0.000376388
0.000343673
0.000307358
0.000263832
)
;
    }
    heatsource1
    {
        Cmu             0.09;
        kappa           0.41;
        E               9.8;
        type            epsilonWallFunction;
        value           nonuniform List<scalar> 3(7.72763e-05 8.19795e-05 0.000185536);
    }
    heatsource2
    {
        Cmu             0.09;
        kappa           0.41;
        E               9.8;
        type            epsilonWallFunction;
        value           nonuniform List<scalar> 4(0.000227793 0.000168427 0.000168427 0.000188523);
    }
    Table_master
    {
        Cmu             0.09;
        kappa           0.41;
        E               9.8;
        type            epsilonWallFunction;
        value           nonuniform List<scalar> 9(0.000835322 0.000605596 0.000444909 0.000333545 0.000254733 0.000196892 0.00015278 0.000118825 9.88253e-05);
    }
    Table_slave
    {
        Cmu             0.09;
        kappa           0.41;
        E               9.8;
        type            epsilonWallFunction;
        value           nonuniform List<scalar> 9(0.00102428 0.000779166 0.000619633 0.000507334 0.000423661 0.000356737 0.000298688 0.000244718 0.000191298);
    }
    inlet
    {
        type            turbulentMixingLengthDissipationRateInlet;
        mixingLength    0.01;
        phi             phi;
        k               k;
        value           uniform 0.000101881;
    }
    outlet
    {
        type            zeroGradient;
    }
}


// ************************************************************************* //
