/*--------------------------------*- C++ -*----------------------------------*\
  =========                 |
  \\      /  F ield         | OpenFOAM: The Open Source CFD Toolbox
   \\    /   O peration     | Website:  https://openfoam.org
    \\  /    A nd           | Version:  6
     \\/     M anipulation  |
\*---------------------------------------------------------------------------*/
FoamFile
{
    version     2.0;
    format      ascii;
    class       surfaceScalarField;
    location    "80";
    object      phi;
}
// * * * * * * * * * * * * * * * * * * * * * * * * * * * * * * * * * * * * * //

dimensions      [1 0 -1 0 0 0 0];

internalField   nonuniform List<scalar> 
852
(
-0.000665225
0.000668701
0.00101118
-0.00167652
0.00301428
-0.00200321
0.00441837
-0.0014042
0.00526898
-0.000850721
0.00573775
-0.00046889
0.00594877
-0.000211153
0.0059776
-2.89536e-05
0.00586555
0.00011191
0.00562786
0.000237539
0.00525892
0.000368781
0.00472294
0.000535818
0.00392887
0.000793897
0.00262559
0.00130309
0.00262256
-0.000657148
0.000652295
-0.000732261
7.4753e-05
5.22629e-05
-0.000784851
0.00112935
-0.00107736
0.00207931
-0.000950215
0.00281292
-0.000733858
0.00322937
-0.000416697
0.00341276
-0.000183628
0.00351169
-9.91713e-05
0.00358188
-7.04371e-05
0.00363912
-5.74945e-05
0.0036918
-5.29607e-05
0.00373338
-4.18933e-05
0.00372855
4.48194e-06
0.00360642
0.000121719
0.00325893
0.000347008
0.00258782
0.000670526
0.00147608
0.00111101
0.00146951
0.000542813
0.000136452
0.00170225
-0.00283606
0.00301847
-0.00331953
0.0039816
-0.00236743
0.00455377
-0.00142299
0.00483808
-0.000753307
0.00493394
-0.000307139
0.00489564
9.21929e-06
0.00475276
0.000254651
0.00452997
0.00046018
0.00423722
0.000661362
0.00387573
0.000897145
0.00345866
0.00121078
0.00312956
0.001632
0.00359282
0.0021591
0.00174059
0.00185196
0.0017403
3.75412e-05
0.000602002
0.000750085
-0.000638212
0.00144653
-0.00148161
0.0020712
-0.00170229
0.0026706
-0.00154985
0.00313902
-0.00120251
0.00324524
-0.000523149
0.00326255
-0.000201152
0.00328252
-0.000119353
0.00330123
-8.93724e-05
0.00331721
-7.36987e-05
0.00333503
-7.10504e-05
0.00335534
-6.25453e-05
0.00335504
4.35912e-06
0.00325793
0.000218309
0.00288009
0.000724227
0.00219782
0.00135206
0.0011956
0.00211235
0.00264747
0.0015463
-0.00138962
0.00186247
-0.0031523
0.00263061
-0.00408775
0.00316012
-0.00289704
0.0034173
-0.00168028
0.00349226
-0.000828386
0.00346083
-0.00027584
0.00337188
9.80296e-05
0.00326102
0.000365365
0.00314062
0.000580416
0.0030137
0.000788117
0.00288622
0.00102445
0.00277932
0.00131749
0.00272438
0.00168674
0.00268656
0.0021967
0.00197453
0.00256377
0.00371459
0.000870838
-0.00028813
0.00191712
-0.00168484
0.00248315
-0.00204791
0.00280368
-0.00202306
0.00308456
-0.00183097
0.00355825
-0.00167643
0.00303504
0.00283383
0.00271443
0.00262501
0.00255124
0.00248002
0.00241713
0.0024209
0.00263841
0.00229375
0.0010679
0.00182866
0.00181617
0.00108286
0.00285712
0.00370124
0.000556873
-0.0019174
0.000867817
-0.0034633
0.00164058
-0.00486061
0.00191504
-0.0031716
0.00192766
-0.00169301
0.00185894
-0.000759787
0.00178972
-0.000206754
0.00175526
0.000132337
0.00176033
0.000360143
0.0017905
0.00055008
0.00183716
0.000741284
0.00190426
0.00095716
0.00200512
0.00121643
0.00215744
0.00153422
0.00242439
0.00192954
0.00284955
0.00213839
0.00439266
0.00217124
0.00375636
0.000618181
0.00407705
-0.000609072
0.00374778
-0.0013558
0.00346299
-0.00176335
0.00323602
-0.0017963
0.00301537
-0.00161053
0.00257487
-0.00123614
0.00306413
-0.000489611
0.00323405
-0.000170255
0.00329869
-6.49401e-05
0.00330817
-9.76695e-06
0.00326426
4.36668e-05
0.00315819
0.000105839
0.00296708
0.000190893
0.00264211
0.000324756
0.00208092
0.000560923
0.00192852
0.00121981
0.00165436
0.00208951
0.00127635
0.00323412
0.00493746
-0.000291735
-0.00158777
-0.00013073
-0.00362437
0.000448869
-0.0054403
0.000571488
-0.00329432
0.000483837
-0.00160546
0.000414221
-0.000690286
0.00041897
-0.000211634
0.000488132
6.30294e-05
0.000594803
0.000253315
0.000726786
0.000417931
0.000881937
0.000585957
0.00106964
0.00076927
0.00130923
0.000976652
0.00163866
0.00120459
0.00213857
0.00142942
0.00278941
0.00148734
0.00362427
0.00133616
0.00387663
0.000365599
0.00383106
-0.00056371
0.00359848
-0.00112341
0.00324137
-0.00140641
0.00287323
-0.00142834
0.00252216
-0.00125962
0.0022271
-0.000941248
0.00222856
-0.000491221
0.00223911
-0.000180946
0.00221051
-3.64448e-05
0.00216086
3.97941e-05
0.00209785
0.000106571
0.00201406
0.00018951
0.0018944
0.000310377
0.00172478
0.000494146
0.00151478
0.000770592
0.00143895
0.00129512
0.00152475
0.00200292
0.00204253
0.00271531
0.00328287
0.00369591
0.000951641
0.00232979
-0.000346672
0.00129734
-0.000373648
-0.000878469
-0.000661996
-0.00104636
-0.00345653
-0.000689783
-0.00579696
-0.000529557
-0.00345462
-0.000528072
-0.00160703
-0.000509863
-0.000708595
-0.000444165
-0.00027745
-0.000337001
-4.42664e-05
-0.000199245
0.000115416
-3.34596e-05
0.000251994
0.000164406
0.00038793
0.000402914
0.000530595
0.000698662
0.000680731
0.00107763
0.000825447
0.00157177
0.000935092
0.00214306
0.000915872
0.00278052
0.000698517
0.0030506
9.53522e-05
0.00296939
-0.000482648
0.00271401
-0.000868171
0.00235335
-0.00104589
0.00196258
-0.0010377
0.00159243
-0.000889603
0.001294
-0.00064294
0.0011397
-0.000337033
0.00106855
-0.000109901
0.00101672
1.52933e-05
0.000967737
8.86532e-05
0.000919773
0.000154364
0.000867645
0.000241392
0.000809912
0.000367762
0.000753871
0.000549723
0.000719638
0.000804246
0.000801979
0.00121208
0.00102648
0.00177755
0.00135681
0.00238392
0.00160964
0.00344187
0.00105937
0.00287883
0.000104218
0.00225163
-0.00029812
-0.00142412
0.000821144
-0.00180129
-0.00307938
-0.00139792
-0.00620042
-0.0011346
-0.00371801
-0.00106407
-0.00167763
-0.00101884
-0.000753906
-0.000954197
-0.00034218
-0.000858437
-0.000140127
-0.000733657
-9.47343e-06
-0.000581293
9.95129e-05
-0.000394886
0.000201399
-0.000164322
0.000299903
0.000122539
0.000393735
0.00047246
0.000475393
0.000885921
0.000521499
0.00132755
0.000474111
0.00173089
0.00029506
0.00186911
-4.29628e-05
0.00176016
-0.000373795
0.00149475
-0.000602837
0.00114092
-0.000692148
0.000757673
-0.000654528
0.000397003
-0.000529015
0.000105422
-0.000351445
-7.35926e-05
-0.000158112
-0.000168082
-1.55135e-05
-0.000222464
6.9538e-05
-0.000258547
0.000124542
-0.000285596
0.000181141
-0.000301221
0.000256649
-0.000298359
0.000364425
-0.000267449
0.000518228
-0.000197823
0.000733927
-4.19153e-05
0.00105537
0.000188336
0.00154633
0.000423637
0.00214752
0.000677587
0.0031867
0.000600525
0.00295472
7.93008e-05
0.00277206
-0.000247024
-0.000489913
0.00138193
-0.00173922
-0.00183009
-0.00146372
-0.00647598
-0.00119415
-0.00398765
-0.00124645
-0.00162537
-0.00130899
-0.000691429
-0.00131564
-0.000335587
-0.00127205
-0.000183771
-0.00118861
-9.29799e-05
-0.00107208
-1.7084e-05
-0.000925136
5.43847e-05
-0.00074498
0.000119674
-0.000527216
0.000175896
-0.000269913
0.000218018
1.83285e-05
0.000233188
0.000293324
0.000199052
0.000486912
0.000101415
0.000508493
-6.45954e-05
0.000364166
-0.000229517
9.35596e-05
-0.000332277
-0.000245318
-0.000353319
-0.000591609
-0.000308287
-0.00089765
-0.000223028
-0.00113232
-0.000116842
-0.00127803
-1.24866e-05
-0.00135385
6.02005e-05
-0.00138706
0.000102589
-0.00139811
0.000135376
-0.00139034
0.000173102
-0.0013609
0.000226847
-0.00130531
0.000308395
-0.00121847
0.000430852
-0.00109658
0.000611388
-0.000928577
0.000886578
-0.000686345
0.00130316
-0.000352817
0.00181292
0.000175251
0.00265746
0.000514339
0.00261457
0.00116618
0.0021195
0.000782582
0.00143368
-0.000424496
-0.000683707
-0.00621681
-0.000791034
-0.00388037
-0.00129715
-0.00111928
-0.00159132
-0.00039729
-0.00171502
-0.000211923
-0.00174781
-0.000151004
-0.00172885
-0.000111975
-0.00167293
-7.3019e-05
-0.00158857
-2.99964e-05
-0.00148313
1.42044e-05
-0.00135895
5.16908e-05
-0.001221
8.00471e-05
-0.00108271
9.48766e-05
-0.000971099
8.74146e-05
-0.000920529
5.08225e-05
-0.000971875
-1.32729e-05
-0.00112838
-7.30403e-05
-0.00136086
-9.98115e-05
-0.00162572
-8.84917e-05
-0.0018819
-5.21282e-05
-0.00209842
-6.55241e-06
-0.00225203
3.67224e-05
-0.00233391
6.9334e-05
-0.00236392
9.01235e-05
-0.00236487
0.000103426
-0.00234533
0.000115688
-0.00230657
0.000134142
-0.00224719
0.00016721
-0.00216403
0.000224908
-0.00205251
0.00031891
-0.00190665
0.000465005
-0.00170792
0.000687191
-0.00140816
0.00100259
-0.000984477
0.00138831
-0.000251491
0.00192346
0.0003226
0.00203964
0.00101456
0.00142698
0.00165139
0.00208432
-0.00195462
-0.000734781
-0.00106129
-0.00173986
-0.000114227
-0.00211429
-2.28682e-05
-0.0022838
-4.24263e-05
-0.00236586
-6.8957e-05
-0.00240425
-7.35938e-05
-0.0024145
-6.27696e-05
-0.00240382
-4.06838e-05
-0.0023791
-1.05114e-05
-0.00234694
1.95277e-05
-0.00231515
4.82488e-05
-0.00229258
7.2306e-05
-0.00229174
8.65613e-05
-0.00232673
8.58077e-05
-0.00241029
7.0276e-05
-0.00253557
5.22271e-05
-0.00268278
4.73836e-05
-0.00282552
5.42379e-05
-0.00294361
6.59538e-05
-0.00302744
7.72565e-05
-0.0030748
8.40643e-05
-0.00309397
8.84655e-05
-0.00309367
8.97802e-05
-0.00307965
8.93277e-05
-0.00305359
8.95358e-05
-0.00301404
9.44573e-05
-0.00295697
0.000109958
-0.00287607
0.000143787
-0.00276328
0.000205831
-0.00260693
0.000308276
-0.00238293
0.000462724
-0.00205434
0.000673432
-0.00161423
0.000947548
-0.0010277
0.00133623
-0.000574264
0.00158565
-9.60699e-05
0.000948421
0.00152586
-0.00194027
-5.44445e-05
-0.00279178
-0.000209784
-0.00287046
-3.55569e-05
-0.00291835
2.50245e-05
-0.00297906
1.82803e-05
-0.00304997
1.96205e-06
-0.00311785
-5.71987e-06
-0.00317579
-4.82619e-06
-0.00321895
2.48835e-06
-0.0032445
1.50414e-05
-0.00325806
3.30889e-05
-0.00326394
5.41316e-05
-0.00326688
7.52494e-05
-0.00327366
9.33404e-05
-0.00329229
0.000104443
-0.00332872
0.000106701
-0.00338009
0.000103608
-0.00343299
0.00010028
-0.00347607
9.7316e-05
-0.00350415
9.4035e-05
-0.00351722
9.03261e-05
-0.00351945
8.62818e-05
-0.00351398
8.29806e-05
-0.00350475
8.05191e-05
-0.00349503
7.95533e-05
-0.00348685
8.12871e-05
-0.00348006
8.75815e-05
-0.00347108
0.000100852
-0.00345147
0.00012403
-0.00340657
0.000160736
-0.00331348
0.000214944
-0.00313953
0.000288485
-0.00284671
0.000380282
-0.00240218
0.000502637
-0.00175906
0.000692709
-0.00100738
0.000833656
-0.000649851
0.00059068
0.000839769
-0.00406665
-0.00326691
-0.00338652
-0.00365812
-0.00375603
-0.00379404
-0.00383936
-0.00390145
-0.00397154
-0.004041
-0.00410336
-0.00415328
-0.00418523
-0.00419622
-0.00418623
-0.00415842
-0.00411992
-0.00407974
-0.00404331
-0.00401087
-0.00398198
-0.00395685
-0.00393578
-0.00391901
-0.00390576
-0.0038952
-0.00388589
-0.00387529
-0.00385902
-0.00383034
-0.00377958
-0.00369339
-0.00355432
-0.00334285
-0.00304018
-0.00261471
-0.00199732
-0.00123587
-0.000716143
)
;

boundaryField
{
    floor
    {
        type            calculated;
        value           nonuniform List<scalar> 
29
(
0
0
0
0
0
0
0
0
0
0
0
0
0
0
0
0
0
0
0
0
5.54881e-06
1.65133e-05
2.78871e-05
3.89034e-05
2.81941e-06
4.42098e-06
1.22458e-05
1.86244e-05
1.78704e-05
)
;
    }
    ceiling
    {
        type            calculated;
        value           nonuniform List<scalar> 
43
(
7.58884e-05
7.19802e-05
6.51792e-05
6.18316e-05
6.23577e-05
6.30527e-05
6.36104e-05
6.4056e-05
6.43806e-05
6.46514e-05
6.48546e-05
6.49722e-05
6.50484e-05
6.51316e-05
6.52764e-05
6.55367e-05
6.59532e-05
6.65236e-05
6.71864e-05
6.78494e-05
6.84374e-05
6.89083e-05
6.92576e-05
6.95126e-05
6.97184e-05
6.9934e-05
7.02221e-05
7.06452e-05
7.12597e-05
7.21046e-05
7.31841e-05
7.44441e-05
7.57513e-05
7.68727e-05
7.74489e-05
7.70037e-05
7.5142e-05
7.20559e-05
7.08518e-05
8.00124e-05
2.87839e-05
2.81419e-05
4.01036e-05
)
;
    }
    sWall
    {
        type            calculated;
        value           uniform 3.30681e-05;
    }
    nWall
    {
        type            calculated;
        value           nonuniform List<scalar> 6(2.66451e-05 2.84702e-05 2.7955e-05 2.92212e-05 3.6079e-05 4.35303e-05);
    }
    sideWalls
    {
        type            empty;
        value           nonuniform 0();
    }
    glass1
    {
        type            calculated;
        value           nonuniform List<scalar> 9(-3.65957e-06 -1.06915e-05 -2.02595e-05 -2.91539e-05 -3.79378e-05 -4.73508e-05 -5.90602e-05 -7.08683e-05 -8.05368e-05);
    }
    glass2
    {
        type            calculated;
        value           nonuniform List<scalar> 2(0.000136142 0.000145388);
    }
    sun
    {
        type            calculated;
        value           uniform 0;
    }
    heatsource1
    {
        type            calculated;
        value           nonuniform List<scalar> 3(2.01563e-07 2.01936e-07 2.01939e-07);
    }
    heatsource2
    {
        type            calculated;
        value           nonuniform List<scalar> 4(5.09499e-08 5.11545e-08 0 0);
    }
    Table_master
    {
        type            calculated;
        value           nonuniform List<scalar> 9(-1.51776e-07 -1.5202e-07 -1.52084e-07 -1.52117e-07 -1.52133e-07 -1.52131e-07 -1.52105e-07 -1.52045e-07 -1.51883e-07);
    }
    Table_slave
    {
        type            calculated;
        value           nonuniform List<scalar> 9(1.51621e-07 1.51617e-07 1.51566e-07 1.51538e-07 1.51517e-07 1.51516e-07 1.5154e-07 1.51597e-07 1.51697e-07);
    }
    inlet
    {
        type            calculated;
        value           uniform -0.00634652;
    }
    outlet
    {
        type            calculated;
        value           nonuniform List<scalar> 2(0.00395771 -0.000871696);
    }
}


// ************************************************************************* //
