/*--------------------------------*- C++ -*----------------------------------*\
  =========                 |
  \\      /  F ield         | OpenFOAM: The Open Source CFD Toolbox
   \\    /   O peration     | Website:  https://openfoam.org
    \\  /    A nd           | Version:  6
     \\/     M anipulation  |
\*---------------------------------------------------------------------------*/
FoamFile
{
    version     2.0;
    format      ascii;
    class       surfaceScalarField;
    location    "300";
    object      phi;
}
// * * * * * * * * * * * * * * * * * * * * * * * * * * * * * * * * * * * * * //

dimensions      [1 0 -1 0 0 0 0];

internalField   nonuniform List<scalar> 
852
(
-0.00342186
0.00346765
-0.00420076
0.000778347
-0.00236588
-0.00183542
0.000263555
-0.00263
0.00254654
-0.00228355
0.00418314
-0.00163718
0.00525172
-0.00106915
0.00587136
-0.000620205
0.00613628
-0.000265483
0.00611391
2.18267e-05
0.00583912
0.000274261
0.00530523
0.000533382
0.00444076
0.000863971
0.00298491
0.00145538
0.00298503
-0.00108893
0.00108752
-0.00160783
0.00051834
-0.00121572
-0.000392698
-0.000249889
-0.000966411
0.000864351
-0.0011148
0.00182616
-0.000962355
0.00240091
-0.000575292
0.00267115
-0.000270781
0.00283257
-0.000161948
0.00295567
-0.000123616
0.00305664
-0.000101487
0.00314138
-8.5247e-05
0.0031968
-5.59209e-05
0.00318557
1.07306e-05
0.00305426
0.000130814
0.00273306
0.000320706
0.00216219
0.000570367
0.00126467
0.000897011
0.00126255
-0.00252165
0.00612057
-0.00219839
0.000454501
-5.63626e-05
-0.00397795
0.00191388
-0.0046008
0.00347255
-0.0038428
0.0046493
-0.00281453
0.00542798
-0.00184844
0.00585452
-0.00104736
0.00600127
-0.000412846
0.00591911
0.000103387
0.00563865
0.000554136
0.0051856
0.000985876
0.0045971
0.00145194
0.00405145
0.00200053
0.00442179
0.0026142
0.00213421
0.00228705
0.00213367
-0.000327488
0.00141154
-0.000155557
0.000345874
0.000484914
-0.00103382
0.0011598
-0.0016419
0.00179894
-0.00175453
0.00234767
-0.00151164
0.00248871
-0.000716885
0.0025143
-0.000296923
0.00254066
-0.000188851
0.0025649
-0.000148394
0.00258718
-0.000124301
0.00261452
-0.00011314
0.00264148
-8.34589e-05
0.0026305
2.11213e-05
0.00252336
0.000237352
0.00220183
0.000641641
0.00166197
0.00110963
0.000902187
0.00165622
0.00215922
-0.00172908
0.0080613
0.000309718
-0.00158478
0.00244083
-0.00610957
0.00374958
-0.00591007
0.00463858
-0.0047324
0.00522706
-0.00340365
0.00556143
-0.00218348
0.00568411
-0.00117071
0.0056382
-0.000367605
0.00544803
0.000292898
0.00514413
0.0008574
0.00476948
0.00135992
0.00437866
0.00184219
0.00403287
0.00234579
0.003706
0.00294058
0.00260797
0.00338459
0.00474115
0.000492334
0.000913735
0.00146283
-0.000625246
0.00196857
-0.00154017
0.00230279
-0.00197671
0.00260052
-0.00205282
0.00313511
-0.00204678
0.00241782
0.0021205
0.00193125
0.00178246
0.00165774
0.00154412
0.00146005
0.00148043
0.00171706
0.00153257
0.000825362
0.00122709
0.00141443
0.00070782
0.00217488
0.00285773
0.00219278
0.00615848
0.00461656
-0.00400878
0.00536374
-0.00685704
0.00565987
-0.00620668
0.00565065
-0.00472382
0.00548487
-0.00323861
0.00525132
-0.00195073
0.00500148
-0.000921647
0.00470985
-7.67377e-05
0.00438662
0.000615391
0.00408181
0.00116151
0.00382216
0.00161893
0.00362116
0.00204261
0.00349149
0.00247494
0.0034864
0.00294517
0.00366523
0.00320527
0.0050992
0.00330669
0.00331796
0.00178343
0.00360101
0.000630105
0.00354375
-0.000568582
0.0034254
-0.0014224
0.00324264
-0.00179452
0.00296946
-0.00178018
0.00236852
-0.00144636
0.00295238
-0.000584526
0.00313334
-0.000181615
0.00315742
-2.47241e-05
0.00308674
7.00436e-05
0.00294013
0.000145982
0.00272976
0.000209758
0.00245524
0.000273923
0.00209299
0.000361678
0.00157178
0.000520641
0.00137322
0.00102342
0.00112284
0.00166424
0.000820512
0.00247662
0.00366512
0.00589726
0.000618017
0.0081906
-0.0063018
0.00773268
-0.00639916
0.00659512
-0.00506962
0.00550235
-0.00363187
0.00453881
-0.00227607
0.00375128
-0.00116424
0.0031244
-0.000295735
0.00268509
0.000361671
0.00246461
0.000835128
0.00239009
0.00123538
0.00240152
0.00160691
0.0024823
0.00196129
0.00265546
0.00230126
0.00299542
0.00260472
0.0034904
0.00270981
0.00415652
0.00264007
0.00426832
0.00167113
0.00440678
0.000491117
0.00428026
-0.000442596
0.00392127
-0.00106392
0.00345281
-0.00132655
0.00295139
-0.00127924
0.00249286
-0.000988302
0.00239198
-0.000484119
0.00229422
-8.43214e-05
0.00213217
0.00013687
0.00194818
0.000253592
0.00176495
0.000328769
0.00158376
0.000390526
0.00140022
0.000457044
0.0012102
0.000551288
0.00102019
0.000710248
0.000964043
0.00107914
0.00102131
0.00160649
0.00135209
0.0021453
0.00226557
0.00275106
0.00062146
0.00164335
7.54226e-05
0.000545423
7.45072e-05
0.00916135
-0.00811936
0.00874514
-0.00588501
0.00665628
-0.00431045
0.00448973
-0.00290404
0.00276762
-0.00191111
0.00147521
-0.000985141
0.000670222
-0.000360519
0.000323093
5.05093e-05
0.000314097
0.000370019
0.000456573
0.000692061
0.00066042
0.00103097
0.000906462
0.00136034
0.00119928
0.00166796
0.00155726
0.00194278
0.00201461
0.00214689
0.00254116
0.00218278
0.00317738
0.00200337
0.00360719
0.00124084
0.00370622
0.000391603
0.00352633
-0.000263164
0.00313319
-0.000671225
0.00263241
-0.000826219
0.00211147
-0.000758735
0.00164715
-0.000524423
0.0013347
-0.000172104
0.00111501
0.000134934
0.000941146
0.000310309
0.00079577
0.000398547
0.000671841
0.000452285
0.000566668
0.000495293
0.000480801
0.000542512
0.000420018
0.000611676
0.000398016
0.000731857
0.000485422
0.000991323
0.000694229
0.00139723
0.00100143
0.00183758
0.00133729
0.00241465
0.00114149
0.0018386
0.0006042
0.00108222
0.000681509
-0.000357446
-0.00724991
-0.000434445
-0.00580875
0.000250502
-0.00499628
-0.000705037
-0.00195007
-0.00145407
-0.00116293
-0.00172727
-0.000712696
-0.00171221
-0.000376278
-0.00156207
-0.00010026
-0.00135814
0.000165515
-0.00111529
0.000448679
-0.000827601
0.00074276
-0.000494941
0.00102718
-0.000110217
0.00128275
0.000332312
0.00149977
0.000835438
0.00164329
0.00137526
0.0016425
0.00194774
0.00143042
0.00228868
0.000899455
0.00232399
0.000355866
0.00211251
-5.2096e-05
0.00173663
-0.000295763
0.001277
-0.00036701
0.000802635
-0.000284792
0.000375508
-9.77178e-05
6.99819e-05
0.000133002
-0.000107127
0.000311629
-0.000208489
0.000411261
-0.000276435
0.000466091
-0.000323238
0.000498691
-0.000349719
0.000521381
-0.000352681
0.000545083
-0.000326411
0.000585014
-0.000262217
0.000667263
-0.000118202
0.000846892
0.000111725
0.00116685
0.000380967
0.00156785
0.000694228
0.00210085
0.000761067
0.00177123
0.000373561
0.00146925
0.00105688
-0.0015869
-0.0050311
-0.00340213
-0.00399425
-0.00320428
-0.00519505
-0.00309654
-0.00205852
-0.00303463
-0.00122547
-0.00296864
-0.000779284
-0.00286227
-0.000483234
-0.00271787
-0.000245231
-0.00254036
-1.25418e-05
-0.00232322
0.000231018
-0.00205575
0.000474792
-0.00173559
0.000706531
-0.00136416
0.000910849
-0.00093875
0.0010739
-0.000464652
0.00116875
2.47019e-05
0.00115271
0.000456521
0.000998195
0.00065702
0.00069856
0.000622101
0.000390388
0.000414407
0.000155184
9.14858e-05
2.67367e-05
-0.000289951
1.4008e-05
-0.000655462
8.0296e-05
-0.000938583
0.000184981
-0.00110186
0.000295863
-0.0011743
0.000383664
-0.00120171
0.000438273
-0.00120431
0.000468292
-0.00118814
0.000482126
-0.00115344
0.000486287
-0.00109821
0.000489456
-0.0010195
0.000505895
-0.000912628
0.000559969
-0.00075896
0.000692783
-0.000532234
0.000939659
-0.000230605
0.00126572
0.000160838
0.00170888
0.000304145
0.00162742
0.000114335
0.00165862
0.00117214
-0.00422093
-0.00819965
-0.00524422
-0.00815111
-0.00381984
-0.00348347
-0.00364514
-0.00140075
-0.00363988
-0.000785128
-0.00362243
-0.000501245
-0.00357367
-0.000294542
-0.00348037
-0.000106374
-0.00333396
8.41022e-05
-0.00313007
0.000270408
-0.0028701
0.000446085
-0.00255978
0.000600082
-0.00220732
0.000720994
-0.00183193
0.000792948
-0.00147665
0.000797039
-0.00120492
0.000726076
-0.00109389
0.000587145
-0.00113995
0.00043605
-0.0012994
0.000314226
-0.00151689
0.0002438
-0.00173264
0.000229338
-0.00190679
0.000254011
-0.00202002
0.000297787
-0.00206973
0.000345153
-0.00207061
0.000384136
-0.00204191
0.000409161
-0.00199432
0.000420298
-0.00193164
0.000419039
-0.00185447
0.0004087
-0.0017619
0.000396457
-0.00165181
0.00039536
-0.00151888
0.000426572
-0.00134575
0.000519176
-0.00110159
0.000695006
-0.000783847
0.000947466
-0.000362979
0.00128749
-0.000145884
0.00140985
5.70831e-06
0.00150661
0.00117298
-0.000815939
-0.00132385
-0.00320882
-0.00109112
-0.00387422
-0.000735931
-0.0041675
-0.000492424
-0.00431664
-0.000352667
-0.00437475
-0.000236975
-0.00436254
-0.000119115
-0.00428645
7.50252e-06
-0.00415427
0.000137738
-0.00397002
0.000261367
-0.0037415
0.000371112
-0.00348198
0.000461047
-0.00321317
0.000523713
-0.00296785
0.000551316
-0.00278225
0.000540072
-0.00268756
0.000492038
-0.0026784
0.000426466
-0.00272773
0.000363125
-0.00280081
0.000316437
-0.00286448
0.000292561
-0.00289893
0.00028801
-0.00289759
0.000296002
-0.00286249
0.000309613
-0.00280113
0.000322341
-0.00272185
0.000329442
-0.00263031
0.000328312
-0.00252983
0.000318107
-0.00242204
0.000300444
-0.00230662
0.000280566
-0.00218042
0.000268672
-0.00203506
0.000280702
-0.00185252
0.000336123
-0.00160941
0.00045138
-0.0012998
0.000637342
-0.000911875
0.000899071
-0.000607132
0.00110466
-0.000227775
0.00112687
0.000941783
-0.00247776
0.00112941
-0.0037881
0.000218638
-0.00449025
-3.43549e-05
-0.0048839
-9.93542e-05
-0.00512445
-0.000112665
-0.00526786
-9.41129e-05
-0.0053328
-5.47084e-05
-0.00532194
-3.87316e-06
-0.00524959
6.48865e-05
-0.00512095
0.000132244
-0.00494429
0.000193983
-0.00473145
0.000247753
-0.00449897
0.000290785
-0.00426794
0.000319839
-0.0040604
0.000332078
-0.00389489
0.000326077
-0.00377549
0.000306592
-0.00369353
0.000280699
-0.00363309
0.000255514
-0.003577
0.000235986
-0.00351285
0.000223381
-0.00343417
0.000216839
-0.00333929
0.000214253
-0.00323015
0.000212718
-0.00311077
0.000209576
-0.00298618
0.00020322
-0.00286192
0.000193348
-0.00274322
0.000181239
-0.00263319
0.00017002
-0.0025299
0.00016485
-0.00242233
0.000172611
-0.00228719
0.000200464
-0.00209086
0.000254542
-0.00179686
0.000342841
-0.00137026
0.000472004
-0.000854009
0.000587967
-0.000344735
0.000617189
0.000591134
0.0018328
-0.00696168
-0.0058786
-0.00570936
-0.00579585
-0.00594821
-0.00611408
-0.00626133
-0.00636899
-0.00642553
-0.00641294
-0.00633272
-0.00619067
-0.00599494
-0.00575646
-0.00548944
-0.00521093
-0.00493938
-0.0046884
-0.00446444
-0.00426669
-0.00408933
-0.00392521
-0.00376807
-0.00361378
-0.00346114
-0.00331165
-0.00316848
-0.00303512
-0.00291385
-0.00280393
-0.00269949
-0.00258786
-0.0024492
-0.00225748
-0.00197851
-0.00157131
-0.00104918
-0.000500561
)
;

boundaryField
{
    floor
    {
        type            calculated;
        value           nonuniform List<scalar> 
29
(
0
0
0
0
0
0
0
0
0
0
0
0
0
0
0
0
0
0
0
0
1.59588e-06
4.95183e-06
8.71483e-06
1.25272e-05
-5.86978e-07
8.8697e-07
2.96734e-06
4.98476e-06
-2.69112e-06
)
;
    }
    ceiling
    {
        type            calculated;
        value           nonuniform List<scalar> 
43
(
8.88515e-05
5.55186e-05
4.57234e-05
4.8809e-05
5.15485e-05
5.24306e-05
5.26409e-05
5.25808e-05
5.24008e-05
5.21335e-05
5.1759e-05
5.15063e-05
5.14156e-05
5.15053e-05
5.1796e-05
5.23078e-05
5.30494e-05
5.40007e-05
5.50882e-05
5.62032e-05
5.72303e-05
5.80828e-05
5.8723e-05
5.91556e-05
5.94098e-05
5.95237e-05
5.95358e-05
5.9486e-05
5.94239e-05
5.94137e-05
5.95324e-05
5.98559e-05
6.04372e-05
6.12797e-05
6.23116e-05
6.33792e-05
6.43411e-05
6.53901e-05
6.81404e-05
8.10892e-05
-6.73556e-06
-1.61074e-05
2.40264e-05
)
;
    }
    sWall
    {
        type            calculated;
        value           uniform -0.000110133;
    }
    nWall
    {
        type            calculated;
        value           nonuniform List<scalar> 6(5.38408e-07 -3.23839e-06 -2.27989e-06 3.10842e-06 5.58507e-06 9.09192e-06);
    }
    sideWalls
    {
        type            empty;
        value           nonuniform 0();
    }
    glass1
    {
        type            calculated;
        value           nonuniform List<scalar> 9(-4.63175e-05 -0.000131779 -0.000212259 -0.000290564 -0.00035648 -0.000422423 -0.00051202 -0.000632244 -0.000803738);
    }
    glass2
    {
        type            calculated;
        value           nonuniform List<scalar> 2(-1.3187e-06 4.56039e-06);
    }
    sun
    {
        type            calculated;
        value           uniform 0;
    }
    heatsource1
    {
        type            calculated;
        value           nonuniform List<scalar> 3(1.99372e-07 1.99823e-07 1.99587e-07);
    }
    heatsource2
    {
        type            calculated;
        value           nonuniform List<scalar> 4(5.02998e-08 5.05472e-08 0 0);
    }
    Table_master
    {
        type            calculated;
        value           nonuniform List<scalar> 9(-1.50228e-07 -1.50458e-07 -1.50491e-07 -1.5048e-07 -1.50445e-07 -1.50384e-07 -1.50289e-07 -1.50152e-07 -1.4996e-07);
    }
    Table_slave
    {
        type            calculated;
        value           nonuniform List<scalar> 9(1.50073e-07 1.50001e-07 1.49926e-07 1.49863e-07 1.49827e-07 1.49818e-07 1.49833e-07 1.4987e-07 1.49935e-07);
    }
    inlet
    {
        type            calculated;
        value           uniform -0.00601177;
    }
    outlet
    {
        type            calculated;
        value           nonuniform List<scalar> 2(-0.00181232 0.00873821);
    }
}


// ************************************************************************* //
