// -*- C++ -*-
// File generated by PyFoam - sorry for the ugliness

FoamFile
{
 version 2.0;
 format ascii;
 class volVectorField;
 location "300";
 object U;
}

dimensions [ 0 1 -1 0 0 0 0 ];

internalField nonuniform List<vector> 459
(
  (-0.0509968 0.0841553 0)
  (-0.186214 -0.0115193 0)
  (-0.134757 -0.0706466 0)
  (-0.0462011 -0.102008 0)
  (0.0690575 -0.084596 0)
  (0.143543 -0.0616057 0)
  (0.203595 -0.0423342 0)
  (0.242847 -0.0276141 0)
  (0.26291 -0.0165292 0)
  (0.268021 -0.00795147 0)
  (0.261239 -0.000279289 0)
  (0.243855 0.00774081 0)
  (0.214664 0.0182514 0)
  (0.166786 0.0381327 0)
  (0.126813 0.0924814 0)
  (-0.0605498 0.0213658 0)
  (-0.0675406 -0.00360195 0)
  (-0.0615802 -0.0238615 0)
  (-0.0295944 -0.0411669 0)
  (0.0184601 -0.0459697 0)
  (0.0602489 -0.0370888 0)
  (0.0907018 -0.0212412 0)
  (0.11056 -0.0126096 0)
  (0.121019 -0.00951073 0)
  (0.126611 -0.00836965 0)
  (0.130809 -0.00766579 0)
  (0.13462 -0.00702069 0)
  (0.13776 -0.00605864 0)
  (0.139212 -0.00431477 0)
  (0.136712 -0.00116619 0)
  (0.127807 0.0039724 0)
  (0.109822 0.0110744 0)
  (0.0782857 0.0218165 0)
  (0.0610572 0.0373613 0)
  (0.101541 0.205505 0)
  (-0.144693 0.0278834 0)
  (-0.0301428 -0.139565 0)
  (0.0521256 -0.167915 0)
  (0.116401 -0.139243 0)
  (0.174346 -0.100242 0)
  (0.218362 -0.0647519 0)
  (0.245906 -0.0359324 0)
  (0.258864 -0.0132982 0)
  (0.260247 0.0048032 0)
  (0.252066 0.0201669 0)
  (0.236062 0.0349949 0)
  (0.213926 0.0519558 0)
  (0.188922 0.0754299 0)
  (0.172296 0.117008 0)
  (0.160601 0.106655 0)
  (0.100861 0.0957053 0)
  (-0.0543505 0.0542274 0)
  (-0.0222569 0.0232781 0)
  (0.0162997 -0.0365957 0)
  (0.0397209 -0.0623358 0)
  (0.0653481 -0.0669444 0)
  (0.0910696 -0.0579728 0)
  (0.105601 -0.0277508 0)
  (0.109706 -0.00876802 0)
  (0.110162 -0.00211554 0)
  (0.110729 -0.000333447 0)
  (0.111765 4.9069e-05 0)
  (0.112833 -3.00879e-05 0)
  (0.113886 0.000636415 0)
  (0.114786 0.00379992 0)
  (0.112838 0.0102097 0)
  (0.104691 0.0222147 0)
  (0.0872359 0.036745 0)
  (0.055121 0.0552974 0)
  (0.06147 0.0736712 0)
  (0.257755 0.290181 0)
  (-0.10633 -0.06227 0)
  (0.0900143 -0.249172 0)
  (0.142492 -0.240824 0)
  (0.180934 -0.195133 0)
  (0.211492 -0.142625 0)
  (0.232904 -0.094218 0)
  (0.244122 -0.0538793 0)
  (0.246652 -0.0216644 0)
  (0.241474 0.00478949 0)
  (0.230313 0.0279337 0)
  (0.215285 0.0493959 0)
  (0.198323 0.0711399 0)
  (0.181287 0.0951833 0)
  (0.166832 0.122771 0)
  (0.143719 0.123261 0)
  (0.108205 0.157801 0)
  (-0.0551976 0.0275853 0)
  (0.0482407 -0.0302305 0)
  (0.082739 -0.0664627 0)
  (0.0962661 -0.0842677 0)
  (0.107717 -0.0875105 0)
  (0.120863 -0.083888 0)
  (0.125927 -0.0614682 0)
  (0.104598 -0.0389736 0)
  (0.0865862 -0.0265452 0)
  (0.0782205 -0.0196467 0)
  (0.0738297 -0.0154153 0)
  (0.0695645 -0.0127436 0)
  (0.0648838 -0.0100831 0)
  (0.0620814 -0.00496815 0)
  (0.0683565 0.00555515 0)
  (0.0724073 0.0322107 0)
  (0.0641291 0.0560236 0)
  (0.0362736 0.0841253 0)
  (0.070864 0.109914 0)
  (0.451797 0.340581 0)
  (0.134763 -0.122506 0)
  (0.202869 -0.275134 0)
  (0.245194 -0.268343 0)
  (0.24668 -0.214256 0)
  (0.23849 -0.153406 0)
  (0.230237 -0.0980656 0)
  (0.221299 -0.0522554 0)
  (0.211526 -0.0154031 0)
  (0.197101 0.0159827 0)
  (0.183096 0.0422287 0)
  (0.170779 0.0646903 0)
  (0.160685 0.0854425 0)
  (0.153269 0.106418 0)
  (0.151578 0.12901 0)
  (0.157393 0.143337 0)
  (0.170767 0.17777 0)
  (0.207938 0.133209 0)
  (0.143442 0.0542848 0)
  (0.151998 -0.010118 0)
  (0.153902 -0.0583082 0)
  (0.14644 -0.0814255 0)
  (0.134496 -0.0850436 0)
  (0.117213 -0.0770565 0)
  (0.110599 -0.0438692 0)
  (0.127271 -0.0254203 0)
  (0.137838 -0.0154697 0)
  (0.137878 -0.00925866 0)
  (0.132184 -0.00470917 0)
  (0.123836 -0.00110883 0)
  (0.113309 0.00203714 0)
  (0.0997281 0.00543038 0)
  (0.0806347 0.0101743 0)
  (0.0629293 0.0371053 0)
  (0.055719 0.0666686 0)
  (0.030711 0.102551 0)
  (0.0878554 0.144925 0)
  (0.674577 0.280686 0)
  (0.309552 -0.166947 0)
  (0.308023 -0.269203 0)
  (0.314653 -0.247204 0)
  (0.267242 -0.189338 0)
  (0.214668 -0.127518 0)
  (0.175658 -0.0735468 0)
  (0.148399 -0.0299203 0)
  (0.123316 0.00652865 0)
  (0.109811 0.0341812 0)
  (0.104458 0.0553415 0)
  (0.103393 0.0732117 0)
  (0.105324 0.0899069 0)
  (0.110417 0.10657 0)
  (0.121339 0.123479 0)
  (0.13902 0.133581 0)
  (0.163328 0.137735 0)
  (0.187093 0.077795 0)
  (0.188205 0.0246657 0)
  (0.190136 -0.02264 0)
  (0.179854 -0.0547957 0)
  (0.160883 -0.0687955 0)
  (0.138643 -0.0674662 0)
  (0.116693 -0.0538252 0)
  (0.103916 -0.0245968 0)
  (0.100815 -0.0053314 0)
  (0.0965097 0.00444406 0)
  (0.0892011 0.0096233 0)
  (0.0809376 0.0129812 0)
  (0.0728368 0.0156274 0)
  (0.06492 0.0183412 0)
  (0.0568773 0.0221276 0)
  (0.0481052 0.0288109 0)
  (0.0424125 0.0478533 0)
  (0.0464154 0.0729474 0)
  (0.0391004 0.104053 0)
  (0.0850891 0.145097 0)
  (0.0850595 0.106822 0)
  (0.0131031 0.0462421 0)
  (0.0168548 0.00463525 0)
  (1.03867 -0.307109 0)
  (0.293322 -0.326014 0)
  (0.27674 -0.268043 0)
  (0.255163 -0.192866 0)
  (0.165406 -0.125568 0)
  (0.088165 -0.0672976 0)
  (0.0400123 -0.0235699 0)
  (0.0164293 0.00600131 0)
  (0.0119793 0.0245396 0)
  (0.0165748 0.0390562 0)
  (0.0241562 0.0534506 0)
  (0.033839 0.0678407 0)
  (0.0453157 0.0818133 0)
  (0.0590419 0.0948494 0)
  (0.0766674 0.105744 0)
  (0.0979404 0.108652 0)
  (0.124947 0.100204 0)
  (0.148869 0.0584899 0)
  (0.160004 0.0174465 0)
  (0.159042 -0.0162893 0)
  (0.146095 -0.0380525 0)
  (0.125826 -0.046743 0)
  (0.10279 -0.0441134 0)
  (0.0805695 -0.0325757 0)
  (0.0635809 -0.0137116 0)
  (0.0522952 0.00150605 0)
  (0.0443376 0.0102002 0)
  (0.0377165 0.0147975 0)
  (0.0318202 0.0176988 0)
  (0.0267759 0.0200582 0)
  (0.0225829 0.0226499 0)
  (0.0193059 0.0264202 0)
  (0.0167902 0.0329737 0)
  (0.0176902 0.047555 0)
  (0.0276594 0.0681403 0)
  (0.0281949 0.0898806 0)
  (0.0593823 0.116469 0)
  (0.0620414 0.0765012 0)
  (0.0339477 0.038304 0)
  (0.0134067 0.0214757 0)
  (1.028 -0.332903 0)
  (-0.39364 -0.235981 0)
  (0.0323894 -0.178093 0)
  (0.0251673 -0.0770037 0)
  (-0.0495847 -0.0453419 0)
  (-0.0715457 -0.0229082 0)
  (-0.0764858 -0.0087896 0)
  (-0.0725929 0.00226501 0)
  (-0.0636857 0.0135108 0)
  (-0.0539507 0.0260456 0)
  (-0.042322 0.039576 0)
  (-0.0288379 0.0529018 0)
  (-0.0136125 0.0652088 0)
  (0.00455167 0.0760812 0)
  (0.0253052 0.0831532 0)
  (0.0479348 0.0826142 0)
  (0.0741585 0.0718927 0)
  (0.0940207 0.0432549 0)
  (0.101472 0.0138345 0)
  (0.0979215 -0.00843267 0)
  (0.0849053 -0.0216756 0)
  (0.0660127 -0.0259378 0)
  (0.0449952 -0.0223208 0)
  (0.0249695 -0.0127719 0)
  (0.00831878 0.000502363 0)
  (-0.00201445 0.0111122 0)
  (-0.00718106 0.0167097 0)
  (-0.0106987 0.0195706 0)
  (-0.0132313 0.0213623 0)
  (-0.0148734 0.0227944 0)
  (-0.0155691 0.0243958 0)
  (-0.0152069 0.0268764 0)
  (-0.0138761 0.0314537 0)
  (-0.0100768 0.0410423 0)
  (0.00120777 0.0570563 0)
  (0.00457804 0.0745145 0)
  (0.0308967 0.0965634 0)
  (0.0369186 0.072796 0)
  (0.021142 0.0523139 0)
  (0.0178958 0.0366247 0)
  (0.969675 -0.255991 0)
  (-0.415301 -0.205846 0)
  (-0.144326 -0.228522 0)
  (-0.100287 -0.0873435 0)
  (-0.1353 -0.0512415 0)
  (-0.131326 -0.0326972 0)
  (-0.127127 -0.0195414 0)
  (-0.121834 -0.0085867 0)
  (-0.1145 0.00234991 0)
  (-0.105943 0.0139805 0)
  (-0.0953794 0.0258157 0)
  (-0.0825644 0.0371243 0)
  (-0.0675772 0.0471256 0)
  (-0.0501195 0.0551697 0)
  (-0.0303269 0.0599524 0)
  (-0.00919015 0.0589707 0)
  (0.0132716 0.049779 0)
  (0.0262553 0.0317842 0)
  (0.0290718 0.0140785 0)
  (0.0231339 0.00111577 0)
  (0.0122294 -0.00621361 0)
  (-0.00400901 -0.00724553 0)
  (-0.0211777 -0.00307667 0)
  (-0.035965 0.00376291 0)
  (-0.0455218 0.0108121 0)
  (-0.0501343 0.0160281 0)
  (-0.0520058 0.0191102 0)
  (-0.0525843 0.0208668 0)
  (-0.0522956 0.021867 0)
  (-0.0512163 0.0224655 0)
  (-0.0493021 0.0230616 0)
  (-0.0465259 0.0242877 0)
  (-0.0429043 0.02726 0)
  (-0.0375065 0.033978 0)
  (-0.0280527 0.0460234 0)
  (-0.0206981 0.0612831 0)
  (0.00457857 0.0827687 0)
  (0.0147427 0.0727937 0)
  (-0.00273716 0.0674739 0)
  (0.0455464 0.0486094 0)
  (0.835595 -0.22629 0)
  (-0.471674 -0.249407 0)
  (-0.343024 -0.287086 0)
  (-0.131986 -0.123242 0)
  (-0.166868 -0.0579136 0)
  (-0.159998 -0.0342771 0)
  (-0.158272 -0.0217258 0)
  (-0.156849 -0.0122704 0)
  (-0.153907 -0.00336652 0)
  (-0.148439 0.00597127 0)
  (-0.140835 0.0154377 0)
  (-0.130674 0.0243666 0)
  (-0.118189 0.0321272 0)
  (-0.103593 0.038105 0)
  (-0.0874355 0.0414123 0)
  (-0.0710557 0.0409038 0)
  (-0.0564342 0.0362153 0)
  (-0.048278 0.0275786 0)
  (-0.0473762 0.0184946 0)
  (-0.0525074 0.0115296 0)
  (-0.0611959 0.00791985 0)
  (-0.0711055 0.00764905 0)
  (-0.0799112 0.00943789 0)
  (-0.0863101 0.0121852 0)
  (-0.0897313 0.0150822 0)
  (-0.090597 0.0173938 0)
  (-0.0898457 0.0188436 0)
  (-0.0881355 0.0195597 0)
  (-0.0857287 0.0196863 0)
  (-0.0826976 0.0194178 0)
  (-0.0790422 0.0191224 0)
  (-0.0747561 0.0194567 0)
  (-0.0697227 0.0214904 0)
  (-0.0632496 0.0267167 0)
  (-0.0541818 0.0362175 0)
  (-0.0430221 0.0492178 0)
  (-0.0210638 0.066264 0)
  (-0.00620971 0.0688307 0)
  (-0.0309264 0.0730207 0)
  (0.0954244 0.053831 0)
  (-0.513689 -0.230078 0)
  (-0.076428 -0.102795 0)
  (-0.152502 -0.0414258 0)
  (-0.17637 -0.0192419 0)
  (-0.185722 -0.00820506 0)
  (-0.189841 -6.28504e-05 0)
  (-0.19075 0.00721855 0)
  (-0.18863 0.0139221 0)
  (-0.184032 0.019588 0)
  (-0.177048 0.0248446 0)
  (-0.167939 0.0294548 0)
  (-0.157125 0.0330824 0)
  (-0.145344 0.0353116 0)
  (-0.133798 0.0357479 0)
  (-0.124068 0.0343466 0)
  (-0.118064 0.0313317 0)
  (-0.116165 0.0279445 0)
  (-0.117525 0.0253371 0)
  (-0.120627 0.0242046 0)
  (-0.123896 0.0246459 0)
  (-0.126158 0.0261154 0)
  (-0.126879 0.0280363 0)
  (-0.125991 0.0300067 0)
  (-0.123773 0.031748 0)
  (-0.120629 0.0331135 0)
  (-0.116861 0.0340717 0)
  (-0.112652 0.0346496 0)
  (-0.10811 0.0349582 0)
  (-0.103282 0.0352253 0)
  (-0.0981313 0.0358139 0)
  (-0.0924198 0.0372304 0)
  (-0.0855313 0.0400869 0)
  (-0.0764973 0.0449106 0)
  (-0.0641433 0.052017 0)
  (-0.0456695 0.0621789 0)
  (-0.0315433 0.0692287 0)
  (-0.0466241 0.0721472 0)
  (0.0868212 0.0735079 0)
  (-0.183565 -0.0527404 0)
  (-0.133731 -0.0811674 0)
  (-0.181002 -0.0861811 0)
  (-0.205902 -0.0852342 0)
  (-0.219219 -0.0834605 0)
  (-0.227238 -0.0806003 0)
  (-0.231642 -0.0764532 0)
  (-0.232739 -0.0706472 0)
  (-0.230767 -0.0626859 0)
  (-0.226306 -0.0553059 0)
  (-0.219547 -0.0490353 0)
  (-0.210913 -0.0441007 0)
  (-0.201025 -0.0407936 0)
  (-0.190725 -0.0394678 0)
  (-0.181027 -0.040421 0)
  (-0.172944 -0.0437752 0)
  (-0.166926 -0.0490187 0)
  (-0.162795 -0.055306 0)
  (-0.159925 -0.0616771 0)
  (-0.157539 -0.0673527 0)
  (-0.154986 -0.0720082 0)
  (-0.151875 -0.0756745 0)
  (-0.148049 -0.0786262 0)
  (-0.143539 -0.0812846 0)
  (-0.138492 -0.084069 0)
  (-0.133111 -0.0872917 0)
  (-0.127633 -0.0911279 0)
  (-0.12231 -0.0955662 0)
  (-0.117348 -0.100312 0)
  (-0.112813 -0.104663 0)
  (-0.108462 -0.107435 0)
  (-0.103517 -0.107126 0)
  (-0.0964656 -0.102374 0)
  (-0.0851481 -0.0924498 0)
  (-0.0682007 -0.078429 0)
  (-0.0513807 -0.0690098 0)
  (-0.0435814 -0.0784754 0)
  (0.0790457 -0.131344 0)
  (0.69199 0.0833458 0)
  (-0.252475 -0.367987 0)
  (-0.320668 0.224574 0)
  (-0.251327 0.226291 0)
  (-0.251441 0.22341 0)
  (-0.256365 0.219847 0)
  (-0.263466 0.216727 0)
  (-0.270469 0.213869 0)
  (-0.276234 0.21097 0)
  (-0.279966 0.207437 0)
  (-0.280806 0.20277 0)
  (-0.278693 0.199587 0)
  (-0.273756 0.198191 0)
  (-0.266271 0.19862 0)
  (-0.256648 0.200955 0)
  (-0.24545 0.205303 0)
  (-0.233408 0.21173 0)
  (-0.221355 0.220137 0)
  (-0.209992 0.230103 0)
  (-0.199722 0.240899 0)
  (-0.190623 0.251628 0)
  (-0.182516 0.26152 0)
  (-0.175108 0.270184 0)
  (-0.168107 0.277621 0)
  (-0.16129 0.284111 0)
  (-0.154549 0.290054 0)
  (-0.147901 0.29583 0)
  (-0.14146 0.301748 0)
  (-0.135382 0.308055 0)
  (-0.129807 0.314923 0)
  (-0.124798 0.322376 0)
  (-0.12026 0.330165 0)
  (-0.115828 0.337687 0)
  (-0.11068 0.344073 0)
  (-0.10338 0.348519 0)
  (-0.0924217 0.350962 0)
  (-0.0784149 0.353702 0)
  (-0.0661385 0.364717 0)
  (-0.0493937 0.400564 0)
  (0.10675 0.505067 0)
)
;

boundaryField
{
  floor
  {
    type noSlip;
  }
  ceiling
  {
    type noSlip;
  }
  sWall
  {
    type noSlip;
  }
  nWall
  {
    type noSlip;
  }
  sideWalls
  {
    type empty;
  }
  glass1
  {
    type noSlip;
  }
  glass2
  {
    type noSlip;
  }
  sun
  {
    type noSlip;
  }
  heatsource1
  {
    type noSlip;
  }
  heatsource2
  {
    type noSlip;
  }
  Table_master
  {
    type noSlip;
  }
  Table_slave
  {
    type noSlip;
  }
  inlet
  {
    type fixedValue;
    value uniform (0.277164 -0.114805 0);
  }
  outlet
  {
    type zeroGradient;
  }
} 	// ************************************************************************* //

