// -*- C++ -*-
// File generated by PyFoam - sorry for the ugliness

FoamFile
{
 version 2.0;
 format ascii;
 class volScalarField;
 location "1600";
 object T;
}

dimensions [ 0 0 0 1 0 0 0 ];

internalField nonuniform List<scalar> 459
(
  303.56
  303.302
  303.289
  303.285
  303.281
  303.277
  303.273
  303.267
  303.259
  303.248
  303.236
  303.224
  303.216
  303.212
  303.214
  303.304
  303.283
  303.276
  303.278
  303.282
  303.285
  303.289
  303.293
  303.297
  303.301
  303.304
  303.308
  303.312
  303.315
  303.319
  303.323
  303.327
  303.333
  303.351
  303.734
  303.344
  303.321
  303.324
  303.327
  303.328
  303.325
  303.319
  303.304
  303.281
  303.256
  303.231
  303.213
  303.202
  303.197
  303.195
  303.193
  303.304
  303.268
  303.262
  303.264
  303.269
  303.273
  303.275
  303.277
  303.278
  303.28
  303.281
  303.282
  303.284
  303.286
  303.288
  303.292
  303.298
  303.306
  303.336
  303.916
  303.395
  303.357
  303.367
  303.381
  303.391
  303.396
  303.391
  303.368
  303.33
  303.285
  303.244
  303.215
  303.198
  303.193
  303.193
  303.194
  303.248
  303.247
  303.253
  303.263
  303.273
  303.28
  303.28
  303.28
  303.281
  303.281
  303.281
  303.281
  303.282
  303.282
  303.283
  303.286
  303.29
  303.298
  303.329
  304.1
  303.458
  303.393
  303.409
  303.437
  303.464
  303.482
  303.48
  303.445
  303.383
  303.314
  303.255
  303.214
  303.193
  303.188
  303.191
  303.198
  303.208
  303.222
  303.24
  303.259
  303.277
  303.293
  303.305
  303.315
  303.323
  303.331
  303.339
  303.344
  303.349
  303.353
  303.356
  303.357
  303.334
  303.314
  303.305
  303.328
  304.279
  303.537
  303.435
  303.446
  303.484
  303.529
  303.568
  303.566
  303.513
  303.424
  303.331
  303.256
  303.207
  303.184
  303.181
  303.19
  303.204
  303.222
  303.242
  303.266
  303.289
  303.311
  303.329
  303.344
  303.357
  303.368
  303.378
  303.385
  303.39
  303.392
  303.392
  303.388
  303.382
  303.364
  303.338
  303.318
  303.326
  303.398
  303.445
  303.45
  304.44
  303.639
  303.508
  303.497
  303.534
  303.59
  303.64
  303.621
  303.542
  303.433
  303.324
  303.239
  303.187
  303.168
  303.173
  303.193
  303.218
  303.246
  303.275
  303.304
  303.331
  303.355
  303.374
  303.388
  303.401
  303.411
  303.419
  303.424
  303.427
  303.427
  303.422
  303.414
  303.403
  303.386
  303.36
  303.335
  303.33
  303.36
  303.377
  303.412
  304.588
  303.803
  303.671
  303.642
  303.659
  303.706
  303.71
  303.641
  303.522
  303.387
  303.268
  303.186
  303.146
  303.143
  303.167
  303.205
  303.246
  303.287
  303.324
  303.356
  303.382
  303.404
  303.42
  303.433
  303.442
  303.45
  303.455
  303.458
  303.458
  303.455
  303.447
  303.436
  303.423
  303.405
  303.382
  303.358
  303.345
  303.353
  303.363
  303.391
  304.802
  304.215
  304.07
  303.984
  303.942
  303.883
  303.756
  303.582
  303.399
  303.244
  303.138
  303.088
  303.088
  303.123
  303.177
  303.241
  303.299
  303.347
  303.385
  303.413
  303.434
  303.45
  303.462
  303.471
  303.478
  303.482
  303.484
  303.484
  303.482
  303.478
  303.47
  303.459
  303.445
  303.429
  303.412
  303.394
  303.387
  303.399
  303.417
  303.539
  305.109
  304.832
  304.576
  304.341
  304.113
  303.813
  303.483
  303.203
  303.016
  302.927
  302.917
  302.966
  303.051
  303.143
  303.234
  303.321
  303.378
  303.417
  303.444
  303.464
  303.478
  303.489
  303.497
  303.502
  303.505
  303.507
  303.507
  303.505
  303.503
  303.5
  303.498
  303.498
  303.499
  303.505
  303.518
  303.54
  303.571
  303.602
  303.623
  303.676
  296.35
  298.218
  299.418
  300.262
  300.978
  301.585
  302.078
  302.462
  302.752
  302.983
  303.175
  303.287
  303.363
  303.417
  303.451
  303.475
  303.492
  303.504
  303.513
  303.519
  303.523
  303.526
  303.527
  303.528
  303.529
  303.529
  303.529
  303.53
  303.531
  303.533
  303.537
  303.545
  303.557
  303.575
  303.598
  303.621
  303.64
  303.66
  297.001
  298.835
  300.277
  301.249
  301.863
  302.315
  302.659
  302.916
  303.102
  303.236
  303.336
  303.404
  303.449
  303.479
  303.5
  303.514
  303.524
  303.531
  303.536
  303.539
  303.541
  303.543
  303.544
  303.546
  303.547
  303.548
  303.549
  303.549
  303.551
  303.553
  303.556
  303.561
  303.57
  303.582
  303.597
  303.615
  303.614
  303.643
  299.716
  299.638
  299.634
  301.469
  302.281
  302.67
  302.898
  303.066
  303.195
  303.292
  303.365
  303.419
  303.458
  303.485
  303.503
  303.515
  303.522
  303.528
  303.531
  303.534
  303.536
  303.538
  303.54
  303.542
  303.544
  303.546
  303.548
  303.55
  303.552
  303.554
  303.556
  303.558
  303.561
  303.564
  303.569
  303.579
  303.588
  303.593
  303.596
  303.635
)
;

boundaryField
{
  floor
  {
    type wallHeatTransfer;
    Tinf uniform 305.2;
    alphaWall uniform 0.24;
    value nonuniform List<scalar> 29
(
  303.406
  303.663
  303.601
  303.569
  303.572
  303.583
  303.596
  303.613
  303.631
  303.65
  303.667
  303.684
  303.701
  303.717
  303.732
  303.747
  303.762
  303.78
  303.794
  303.834
  303.834
  303.751
  303.709
  303.685
  303.406
  303.663
  303.645
  303.463
  303.374
)
;
  }
  ceiling
  {
    type wallHeatTransfer;
    Tinf uniform 303.2;
    alphaWall uniform 0.24;
    value nonuniform List<scalar> 43
(
  299.964
  299.88
  299.868
  301.577
  302.34
  302.705
  302.919
  303.075
  303.195
  303.285
  303.351
  303.399
  303.432
  303.453
  303.465
  303.473
  303.478
  303.48
  303.482
  303.484
  303.485
  303.486
  303.488
  303.49
  303.492
  303.494
  303.497
  303.5
  303.503
  303.506
  303.51
  303.513
  303.518
  303.523
  303.529
  303.54
  303.548
  303.553
  303.553
  303.585
  305.021
  304.767
  297.401
)
;
  }
  sWall
  {
    type wallHeatTransfer;
    Tinf uniform 315.2;
    alphaWall uniform 0.36;
    value uniform 301.315;
  }
  nWall
  {
    type wallHeatTransfer;
    Tinf uniform 307.2;
    alphaWall uniform 0.36;
    value nonuniform List<scalar> 6
(
  304.155
  304.103
  304.026
  304.173
  304.15
  304.214
)
;
  }
  sideWalls
  {
    type empty;
  }
  glass1
  {
    type wallHeatTransfer;
    Tinf uniform 315.2;
    alphaWall uniform 4.3;
    value nonuniform List<scalar> 9
(
  311.516
  310.887
  310.49
  310.187
  309.935
  309.706
  309.537
  309.609
  309.835
)
;
  }
  glass2
  {
    type wallHeatTransfer;
    Tinf uniform 307.2;
    alphaWall uniform 4.3;
    value nonuniform List<scalar> 2
(
  305.817
  305.912
)
;
  }
  sun
  {
    type wallHeatTransfer;
    Tinf uniform 305.2;
    alphaWall uniform 0.24;
    value nonuniform List<scalar> 14
(
  303.733
  303.489
  303.475
  303.465
  303.456
  303.447
  303.438
  303.429
  303.418
  303.407
  303.397
  303.39
  303.388
  303.394
)
;
  }
  heatsource1
  {
    type fixedGradient;
    gradient uniform 0;
  }
  heatsource2
  {
    type fixedGradient;
    gradient uniform 0;
  }
  Table_master
  {
    type zeroGradient;
  }
  Table_slave
  {
    type zeroGradient;
  }
  inlet
  {
    type fixedValue;
    value uniform 293.15;
  }
  outlet
  {
    type zeroGradient;
  }
} 	// ************************************************************************* //

