/*--------------------------------*- C++ -*----------------------------------*\
  =========                 |
  \\      /  F ield         | OpenFOAM: The Open Source CFD Toolbox
   \\    /   O peration     | Website:  https://openfoam.org
    \\  /    A nd           | Version:  6
     \\/     M anipulation  |
\*---------------------------------------------------------------------------*/
FoamFile
{
    version     2.0;
    format      ascii;
    class       volScalarField;
    location    "600";
    object      alphat;
}
// * * * * * * * * * * * * * * * * * * * * * * * * * * * * * * * * * * * * * //

dimensions      [1 -1 -1 0 0 0 0];

internalField   nonuniform List<scalar> 
459
(
0.000837339
0.000875607
0.000866591
0.000893365
0.000915493
0.000933576
0.000948566
0.000961376
0.000972904
0.000984097
0.000991461
0.000993913
0.000991389
0.000985926
0.000978524
0.000721015
0.000670992
0.000634839
0.000609818
0.000590757
0.000573323
0.000554688
0.000536885
0.00051994
0.000503683
0.000488054
0.000472992
0.000458394
0.000444059
0.000429608
0.000414442
0.000397374
0.000383268
0.000351979
0.00125745
0.00197447
0.00168441
0.00193971
0.00207043
0.00220936
0.00234715
0.00247184
0.00256635
0.00260995
0.00261653
0.00255557
0.00238779
0.002061
0.00153137
0.000992845
0.000927666
0.000828918
0.00119531
0.00145731
0.00166653
0.00179254
0.00179772
0.00157986
0.00143984
0.00132486
0.00122634
0.0011387
0.00105857
0.000982272
0.000904567
0.000820945
0.000745311
0.000682298
0.000795728
0.000439792
0.00164426
0.00291944
0.00183933
0.00268541
0.00288079
0.00302119
0.00312793
0.00320814
0.00326737
0.00330131
0.00331418
0.00327969
0.00316397
0.00292778
0.00252514
0.00191694
0.00106152
0.000920263
0.00200066
0.00241873
0.00259015
0.00261868
0.0023167
0.000658462
0.000593636
0.000543897
0.000505165
0.000474395
0.000449461
0.000429079
0.000412812
0.000401505
0.000461534
0.000551035
0.000904697
0.000507132
0.00204945
0.00440913
0.00176241
0.00299813
0.0033023
0.00340999
0.00346073
0.00348437
0.00350144
0.00351915
0.00353845
0.00353934
0.003494
0.00337253
0.00313355
0.00269916
0.00194304
0.00103801
0.00253966
0.00277789
0.00284879
0.00285372
0.00281301
0.00246123
0.000676153
0.000648792
0.000639231
0.000634441
0.000626773
0.00061156
0.000592671
0.000571194
0.000543457
0.000524467
0.000552344
0.00104668
0.000562921
0.00247048
0.00645662
0.00211096
0.00285729
0.00347042
0.00358069
0.00359444
0.003575
0.00355906
0.00356995
0.00360322
0.00364457
0.00365649
0.00360521
0.00345969
0.00321533
0.00295045
0.00277203
0.00277205
0.00286333
0.0028076
0.00275355
0.00274068
0.00270712
0.00249038
0.00248673
0.002516
0.00252747
0.00249875
0.00241549
0.00221654
0.00192272
0.00157151
0.00119666
0.000905672
0.00100526
0.000703312
0.000731263
0.000872766
0.000968852
0.00290677
0.00870472
0.00363904
0.00245786
0.00327742
0.00356755
0.00364094
0.0036258
0.00356912
0.00353875
0.0035908
0.00367397
0.00373004
0.00372087
0.00359805
0.00331134
0.00288846
0.00256413
0.00271783
0.00282341
0.00270095
0.00260951
0.00261109
0.00267469
0.00275672
0.00285798
0.00294063
0.00298789
0.00299212
0.00295066
0.00283417
0.00259662
0.00224258
0.00179328
0.00137133
0.00106893
0.000878901
0.000816272
0.00123266
0.00100733
0.00335649
0.0105787
0.00686245
0.00342116
0.00260523
0.00278443
0.00317381
0.00347373
0.00365964
0.00351088
0.00359187
0.00368898
0.00375782
0.00376945
0.00367335
0.00338514
0.00286018
0.00237937
0.00264644
0.00280967
0.00265007
0.00253983
0.00254246
0.00262013
0.00273058
0.00284549
0.00294216
0.00300653
0.00304116
0.00305191
0.00304171
0.00289631
0.00258851
0.0021654
0.00176171
0.00139583
0.00117027
0.00113206
0.00122602
0.00109313
0.00347974
0.0107364
0.00866991
0.00667229
0.004833
0.00369124
0.00328625
0.00334071
0.00356456
0.00362673
0.00367133
0.00372287
0.00376453
0.00376232
0.00366219
0.00337105
0.00281324
0.00223809
0.00255886
0.00282383
0.00264256
0.0025191
0.00250756
0.0025611
0.00263841
0.00271676
0.00278553
0.00284238
0.00289642
0.00296192
0.0030536
0.00313563
0.0029229
0.00256072
0.00226682
0.0021646
0.00234161
0.00300321
0.00410984
0.00177694
0.00342213
0.00418624
0.00470085
0.00487239
0.00471449
0.00433734
0.00398455
0.00377183
0.00368345
0.00365459
0.00367607
0.00371587
0.00373857
0.00370661
0.00357356
0.00324974
0.00264021
0.0020086
0.00246778
0.00284282
0.00264253
0.00249309
0.002447
0.00245451
0.00247847
0.00250039
0.0025112
0.00250731
0.0024885
0.00245533
0.00240833
0.002349
0.00229001
0.00226027
0.00229663
0.00238692
0.00245109
0.00240732
0.00226617
0.0016489
0.00252039
0.00420741
0.00455493
0.00450546
0.00434993
0.00420221
0.00409581
0.00400819
0.00392856
0.0038397
0.00372162
0.00355453
0.00331114
0.00291243
0.00225516
0.00163728
0.00236139
0.00283059
0.00261167
0.00243069
0.00234902
0.00231537
0.00230058
0.0022918
0.0022822
0.00226905
0.0022537
0.00224157
0.00224158
0.00226341
0.00229997
0.00235136
0.00241378
0.00245615
0.00242455
0.00229141
0.00206363
0.00134617
0.00267419
0.00482096
0.00505417
0.00489293
0.00470487
0.0045048
0.00430092
0.00409592
0.00382905
0.00351832
0.00318814
0.0028503
0.00250358
0.00211212
0.00160332
0.0011641
0.00191402
0.00220727
0.00205812
0.00192275
0.00185531
0.00182981
0.00183506
0.001867
0.00192202
0.00199545
0.00208092
0.00216956
0.00224831
0.00233995
0.00244297
0.00255331
0.00265921
0.00274608
0.00276582
0.00283419
0.00262542
0.0013617
0.00232516
0.00245158
0.00255785
0.00271243
0.00256496
0.00236583
0.00219363
0.00203644
0.00188602
0.00174167
0.00161612
0.00150301
0.00139482
0.00128734
0.00117793
0.00106411
0.000935432
0.000677916
0.000679084
0.000690022
0.000694975
0.000705642
0.000722758
0.000744789
0.000770865
0.000800503
0.000833475
0.000869849
0.000910128
0.000955515
0.00100847
0.00106706
0.00113198
0.00120389
0.00128354
0.00138738
0.00142429
0.0013962
0.00130676
0.00121061
)
;

boundaryField
{
    floor
    {
        type            compressible::alphatWallFunction;
        Prt             0.85;
        value           nonuniform List<scalar> 
29
(
0.00013925
0.000102267
9.49123e-05
8.95558e-05
8.58271e-05
8.2974e-05
8.03543e-05
7.75431e-05
7.48465e-05
7.22692e-05
6.97869e-05
6.73908e-05
6.50725e-05
6.28167e-05
6.05926e-05
5.83414e-05
5.59684e-05
5.32843e-05
5.10549e-05
4.60721e-05
4.60715e-05
5.99271e-05
7.03106e-05
7.8782e-05
0.000139249
0.000102265
0.000117926
0.000130995
0.000147619
)
;
    }
    ceiling
    {
        type            compressible::alphatWallFunction;
        Prt             0.85;
        value           nonuniform List<scalar> 
43
(
0.000319049
0.000335205
0.00034872
0.000368367
0.000349751
0.000324407
0.000302295
0.000281943
0.000262305
0.0002433
0.000226627
0.000211482
0.000196878
0.000182242
0.000167201
0.000151382
0.000133268
9.60563e-05
9.62207e-05
9.78334e-05
9.85623e-05
0.000100129
0.000102637
0.000105856
0.000109651
0.000113946
0.000118701
0.000123922
0.000129673
0.000136118
0.000143593
0.00015181
0.000160854
0.000170801
0.000181742
0.000195891
0.000200892
0.000197088
0.000184918
0.000171732
0.000456986
0.000550042
0.000363361
)
;
    }
    sWall
    {
        type            compressible::alphatWallFunction;
        Prt             0.85;
        value           uniform 0.000317831;
    }
    nWall
    {
        type            compressible::alphatWallFunction;
        Prt             0.85;
        value           nonuniform List<scalar> 6(0.000137664 0.000143086 0.000155096 0.000189946 0.000192057 0.000171389);
    }
    sideWalls
    {
        type            empty;
    }
    glass1
    {
        type            compressible::alphatWallFunction;
        Prt             0.85;
        value           nonuniform List<scalar> 9(0.00011577 0.000173703 0.000225254 0.000277951 0.000331623 0.000386297 0.000441807 0.000457018 0.000450186);
    }
    glass2
    {
        type            compressible::alphatWallFunction;
        Prt             0.85;
        value           nonuniform List<scalar> 2(0.000245981 0.000229166);
    }
    sun
    {
        type            compressible::alphatWallFunction;
        Prt             0.85;
        value           nonuniform List<scalar> 
14
(
0.000119159
0.00012463
0.000123339
0.000127166
0.000130319
0.000132889
0.000135015
0.000136829
0.000138458
0.000140039
0.000141077
0.000141422
0.000141066
0.000140296
)
;
    }
    heatsource1
    {
        type            compressible::alphatWallFunction;
        Prt             0.85;
        value           nonuniform List<scalar> 3(0.0001039 0.00012436 0.000138026);
    }
    heatsource2
    {
        type            compressible::alphatWallFunction;
        Prt             0.85;
        value           nonuniform List<scalar> 4(0.00014141 0.000132187 0.000132185 0.000151052);
    }
    Table_master
    {
        type            compressible::alphatWallFunction;
        Prt             0.85;
        value           nonuniform List<scalar> 9(9.31929e-05 8.35348e-05 7.60363e-05 7.01381e-05 6.54118e-05 6.15536e-05 5.83794e-05 5.58322e-05 5.4054e-05);
    }
    Table_slave
    {
        type            compressible::alphatWallFunction;
        Prt             0.85;
        value           nonuniform List<scalar> 9(9.58081e-05 9.17599e-05 9.03404e-05 8.96283e-05 8.84871e-05 8.62178e-05 8.33905e-05 8.01621e-05 7.59703e-05);
    }
    inlet
    {
        type            fixedValue;
        value           uniform 1.94e-05;
    }
    outlet
    {
        type            zeroGradient;
    }
}


// ************************************************************************* //
