/*--------------------------------*- C++ -*----------------------------------*\
  =========                 |
  \\      /  F ield         | OpenFOAM: The Open Source CFD Toolbox
   \\    /   O peration     | Website:  https://openfoam.org
    \\  /    A nd           | Version:  6
     \\/     M anipulation  |
\*---------------------------------------------------------------------------*/
FoamFile
{
    version     2.0;
    format      ascii;
    class       surfaceScalarField;
    location    "500";
    object      phi;
}
// * * * * * * * * * * * * * * * * * * * * * * * * * * * * * * * * * * * * * //

dimensions      [1 0 -1 0 0 0 0];

internalField   nonuniform List<scalar> 
852
(
-0.00288839
0.00294575
-0.00383613
0.000947755
-0.00459401
0.00075789
-0.00521758
0.000623589
-0.00567847
0.000460898
-0.00595748
0.000279023
-0.00603229
7.48173e-05
-0.0058775
-0.00015478
-0.00547703
-0.000400454
-0.00484686
-0.000630161
-0.00403866
-0.00080819
-0.00312603
-0.000912618
-0.00217534
-0.000950678
-0.00118375
-0.000991575
-0.00118225
-0.000570433
0.000573389
-0.000143762
-0.000426657
0.000463588
-0.000607336
0.000879025
-0.000415423
0.00113083
-0.000251789
0.00127399
-0.000143142
0.00134501
-7.10126e-05
0.0013786
-3.35692e-05
0.00139556
-1.69448e-05
0.00140349
-7.91562e-06
0.00140513
-1.62358e-06
0.00140119
3.95216e-06
0.00138937
1.18333e-05
0.00136129
2.80961e-05
0.00129526
6.60456e-05
0.00115566
0.000139613
0.000932728
0.000222953
0.000680573
0.000252172
0.000684586
-0.00206036
0.00516021
-0.00301236
0.00189977
-0.00380202
0.00154756
-0.00441546
0.00123705
-0.00486497
0.000910419
-0.00514423
0.000558293
-0.00523093
0.000161528
-0.00509723
-0.000288472
-0.00473224
-0.000765433
-0.00416324
-0.00119915
-0.00345239
-0.00151903
-0.00267695
-0.00168805
-0.00191751
-0.00171011
-0.00129079
-0.00161828
-0.00110665
-0.00136639
-0.000324191
-0.000782493
-0.00032423
0.000609358
-2.79469e-05
0.000967898
-0.000785183
0.00114849
-0.000787915
0.00131792
-0.000584839
0.00143804
-0.000371893
0.00149778
-0.000202871
0.00150163
-7.48472e-05
0.00150254
-3.4467e-05
0.00150425
-1.8637e-05
0.00150575
-9.4031e-06
0.00150662
-2.47275e-06
0.00150656
4.02018e-06
0.00150465
1.37634e-05
0.0014973
3.54632e-05
0.00145606
0.000107303
0.001283
0.00031269
0.000984891
0.000521074
0.000615129
0.000621951
0.00130978
-0.00144958
0.00684485
-0.00228861
0.00273881
-0.00299101
0.00224998
-0.00351323
0.00175928
-0.0039038
0.001301
-0.00415801
0.000812508
-0.00424335
0.000246884
-0.00411339
-0.000418417
-0.00375667
-0.00112214
-0.00321897
-0.00173684
-0.00257449
-0.0021635
-0.00189885
-0.00236367
-0.00126462
-0.00234433
-0.00074469
-0.0021382
-0.000379717
-0.00173135
-1.65193e-05
-0.00114568
-0.000340737
0.00134956
-0.00136906
0.00156848
-0.00100408
0.00156446
-0.000783879
0.00157822
-0.000598592
0.00160498
-0.000398637
0.00159426
-0.000192133
0.00151958
0.00148528
0.00146681
0.00145757
0.00145527
0.00145946
0.00147339
0.00150902
0.00161649
0.00133687
0.000592327
0.000993149
0.000864812
0.000552101
0.00106302
0.00187709
-0.00102386
0.00817213
-0.00171056
0.00342552
-0.00217571
0.00271514
-0.00252156
0.00210514
-0.00279049
0.00156994
-0.00297329
0.00099532
-0.00302439
0.000298001
-0.00286515
-0.000577648
-0.00249772
-0.00148957
-0.0019994
-0.00223515
-0.00145141
-0.00271148
-0.00091534
-0.00289973
-0.000436215
-0.00282344
-3.20336e-05
-0.00254237
0.000321758
-0.00208513
0.000704991
-0.0015289
0.0013484
-0.000984138
0.00210179
-0.000745323
0.00165781
-0.000925061
0.00157792
-0.000924183
0.00153209
-0.000738032
0.00149782
-0.000564306
0.0015026
-0.000403407
0.00155623
-0.000245749
0.00167739
-0.000121293
0.00177677
-9.95285e-05
0.00186702
-9.03806e-05
0.00194278
-7.5902e-05
0.00198727
-4.4632e-05
0.00197606
1.10794e-05
0.00188301
9.29062e-05
0.00167684
0.000206036
0.00130513
0.00037157
0.0011627
0.000734779
0.00085589
0.00117163
0.000378086
0.00154084
0.00227502
-0.000726339
0.00925956
-0.00127002
0.00396921
-0.0013754
0.00282053
-0.00146889
0.00219864
-0.00155508
0.00165614
-0.00160758
0.00104783
-0.00155857
0.000249005
-0.00131231
-0.000823897
-0.000933114
-0.00186875
-0.000516268
-0.00265198
-0.000124073
-0.00310366
0.000208962
-0.00323276
0.000471433
-0.00308591
0.0006716
-0.00274253
0.00085211
-0.00226563
0.00105702
-0.0017338
0.00132089
-0.001248
0.00151934
-0.000943754
0.00144844
-0.000854155
0.00130821
-0.000783936
0.00121261
-0.000642422
0.00115038
-0.000502065
0.00112905
-0.000382059
0.00115998
-0.000276666
0.00124604
-0.000207334
0.00133311
-0.000186587
0.00142252
-0.000179778
0.00150798
-0.000161342
0.00157646
-0.000113097
0.00160683
-1.92753e-05
0.00157755
0.000122199
0.00147814
0.000305462
0.00131179
0.000537937
0.00116078
0.0008858
0.000993269
0.00133916
0.000628969
0.00190515
0.000486147
0.00241786
-0.00102622
0.00151218
-0.00148291
0.000456508
-0.00143445
-0.000640331
0.0103094
-0.00103662
0.00436552
-0.000647096
0.00243102
-0.000377154
0.00192871
-0.000223559
0.00150256
-8.98932e-05
0.000914179
0.000170614
-1.1489e-05
0.000550762
-0.00120404
0.000897338
-0.00221532
0.00115685
-0.00291149
0.00131378
-0.00326058
0.00137598
-0.00329495
0.00136907
-0.00307898
0.00131728
-0.00269074
0.00125511
-0.00220344
0.0012128
-0.00169148
0.00119556
-0.00123075
0.00115398
-0.000902161
0.00102782
-0.000727976
0.000861767
-0.000617874
0.000732647
-0.000513288
0.000653815
-0.000423219
0.000625938
-0.000354167
0.000651006
-0.000301719
0.000717041
-0.000273355
0.000800108
-0.000269639
0.000892141
-0.000271796
0.000989161
-0.000258347
0.00108501
-0.000208935
0.00116754
-0.000101784
0.00121639
7.33633e-05
0.00122717
0.000294699
0.00121198
0.000553136
0.00122129
0.000876507
0.00130367
0.00125679
0.00147113
0.00173771
0.00189821
0.0019908
0.00214602
0.00126438
0.00175567
0.000846884
0.000379569
-0.000743549
0.0115059
-0.000669927
0.00429191
0.000381536
0.00137957
0.000988033
0.00132223
0.0013735
0.0011171
0.00181276
0.000474937
0.00230162
-0.000500341
0.00267596
-0.00157836
0.00287537
-0.00241472
0.00288889
-0.002925
0.00274253
-0.00311422
0.00247934
-0.00303175
0.00214857
-0.0027482
0.00179355
-0.0023357
0.00145164
-0.00186152
0.00115014
-0.00138998
0.000895237
-0.000975835
0.00067592
-0.00068283
0.000465856
-0.000517899
0.000281349
-0.000433354
0.000148178
-0.000380102
7.06643e-05
-0.00034569
4.23937e-05
-0.000325881
5.73244e-05
-0.000316634
0.000103246
-0.000319261
0.000165731
-0.000332109
0.000238338
-0.000344387
0.000322209
-0.000342204
0.000422508
-0.000309219
0.000544189
-0.000223449
0.000673979
-5.64118e-05
0.000798865
0.000169828
0.000929
0.000423016
0.00110805
0.000697472
0.00138593
0.000978927
0.00182697
0.00129668
0.00249127
0.00132652
0.00302709
0.000728581
0.00306017
0.000813814
0.00350349
0.00249982
0.00951199
0.0031351
0.00365663
0.0033661
0.00114858
0.00367024
0.00101811
0.00400015
0.000787195
0.00448431
-9.19981e-06
0.00494434
-0.000960358
0.00509874
-0.00173276
0.00493663
-0.0022526
0.00452319
-0.00251155
0.00393871
-0.00252973
0.00326254
-0.00235558
0.00256447
-0.00205012
0.00189426
-0.00166548
0.00128628
-0.00125353
0.000767812
-0.000871493
0.000344222
-0.000552231
2.43764e-05
-0.000362971
-0.000209837
-0.000283671
-0.000375063
-0.000268113
-0.000486388
-0.000268762
-0.00055607
-0.000275993
-0.000594193
-0.000287743
-0.000607909
-0.000302903
-0.000605384
-0.000321771
-0.000594824
-0.000342654
-0.000579554
-0.000359641
-0.000557035
-0.000364708
-0.000517894
-0.000348344
-0.000441889
-0.000299439
-0.000295131
-0.000203155
-9.91716e-05
-2.61158e-05
0.000124016
0.000199844
0.00040004
0.000421464
0.000743747
0.000635236
0.00119912
0.000841328
0.00169426
0.000831398
0.00189581
0.000527045
0.00112074
0.0015889
0.0048822
0.0100664
0.013715
0.0123048
0.00255878
0.0112076
0.0021153
0.0104361
0.00155875
0.00975263
0.000674274
0.00888016
-8.78865e-05
0.00782101
-0.00067361
0.00666386
-0.00109545
0.00547561
-0.0013233
0.0043056
-0.00135972
0.00319946
-0.00124943
0.00219675
-0.00104741
0.00131419
-0.000782904
0.000556269
-0.000495604
-4.99959e-05
-0.000265215
-0.000475445
-0.000126768
-0.000739248
-9.91529e-05
-0.000910026
-0.000112878
-0.00103607
-0.000142057
-0.00113444
-0.000170375
-0.00121412
-0.000196292
-0.00128171
-0.000220139
-0.00134267
-0.000241926
-0.00140316
-0.000261271
-0.00146993
-0.000275869
-0.00154913
-0.000280425
-0.00164704
-0.000266786
-0.00177164
-0.000223729
-0.00193381
-0.000137247
-0.00214231
5.3618e-06
-0.00237992
0.000211511
-0.00267275
0.000492683
-0.00311596
0.000864694
-0.00380566
0.00132495
-0.0048066
0.00184228
-0.00623293
0.00225775
-0.00795574
0.00224987
-0.00746028
0.00109346
-0.00229207
0.00479058
0.00386054
0.00430723
0.00259862
0.00507034
0.000795608
0.00523927
0.000505312
0.00494798
0.000203386
0.00443055
-0.000156194
0.00374737
-0.000412283
0.00295274
-0.000528658
0.0020998
-0.000506779
0.00124975
-0.00039937
0.00044751
-0.000245156
-0.00026338
-7.19996e-05
-0.000810953
5.19837e-05
-0.00115955
8.33986e-05
-0.00135461
6.83031e-05
-0.00147986
2.61144e-05
-0.00157704
-1.56806e-05
-0.00166705
-5.20276e-05
-0.00175672
-8.06901e-05
-0.00184827
-0.000104734
-0.00194343
-0.000124961
-0.00204423
-0.000141108
-0.00215298
-0.000152508
-0.00227163
-0.000157204
-0.00240072
-0.000151319
-0.00253851
-0.000128984
-0.00267974
-8.24793e-05
-0.00281503
-1.94334e-06
-0.00293139
0.000121743
-0.00302492
0.000305051
-0.00310716
0.000574937
-0.00318717
0.000944722
-0.00326445
0.00140224
-0.00329406
0.00187191
-0.00322016
0.00218386
-0.0028687
0.00189843
-0.00159617
-0.000179058
-0.00381302
-0.000581476
0.00449896
0.000630372
0.00138676
0.000792778
0.000633186
0.000899739
0.000398343
0.000894884
0.00020824
0.000699105
3.95899e-05
0.000335028
-4.81967e-05
-0.000154214
-3.94006e-05
-0.000685892
2.49133e-05
-0.00117004
8.47875e-05
-0.00154632
0.000131143
-0.00177775
0.000159446
-0.0018868
0.000161047
-0.00194047
0.000137085
-0.00197396
0.000101807
-0.00201107
6.32371e-05
-0.00205719
3.0459e-05
-0.00211445
5.24661e-06
-0.00218128
-1.38436e-05
-0.00225707
-2.8926e-05
-0.00234094
-4.10812e-05
-0.00243145
-5.05785e-05
-0.00252671
-5.72285e-05
-0.00262378
-6.01252e-05
-0.00271773
-5.73535e-05
-0.00280087
-4.58269e-05
-0.00286195
-2.13826e-05
-0.00288621
2.2334e-05
-0.00286249
9.80315e-05
-0.00276916
0.000211739
-0.00257324
0.000379032
-0.00224818
0.000619677
-0.00177947
0.000933547
-0.00114508
0.00123754
-0.000167245
0.00120604
0.00115568
0.000575515
0.0015833
-0.000606659
-0.00214717
-0.00742051
-0.0102313
-0.00568969
-0.00428042
-0.00363205
-0.00322261
-0.00300637
-0.00296131
-0.00300598
-0.00304341
-0.0030178
-0.00293334
-0.00280348
-0.00264619
-0.00248809
-0.00235458
-0.00225679
-0.00219785
-0.00217186
-0.00217119
-0.00218965
-0.00222322
-0.00226895
-0.00232415
-0.00238597
-0.00245064
-0.00251246
-0.00256268
-0.00258836
-0.00257022
-0.00247625
-0.00226845
-0.00189324
-0.00127727
-0.000347351
0.000886598
0.00208896
0.00266064
0.00204991
)
;

boundaryField
{
    floor
    {
        type            calculated;
        value           nonuniform List<scalar> 
29
(
0
0
0
0
0
0
0
0
0
0
0
0
0
0
0
0
0
0
0
0
-3.99697e-06
-1.00505e-05
-1.51858e-05
-1.98318e-05
-1.48533e-06
-2.94184e-06
-8.00652e-06
-8.44323e-06
-8.05544e-06
)
;
    }
    ceiling
    {
        type            calculated;
        value           nonuniform List<scalar> 
43
(
-4.52561e-05
-4.39502e-05
-4.26364e-05
-2.25081e-05
-1.51627e-05
-1.10901e-05
-7.9813e-06
-5.45319e-06
-3.51613e-06
-1.9578e-06
-6.86823e-07
3.50071e-07
1.29298e-06
2.17283e-06
2.95875e-06
3.58758e-06
4.03175e-06
4.31598e-06
4.48713e-06
4.58613e-06
4.63664e-06
4.65866e-06
4.6594e-06
4.64135e-06
4.60609e-06
4.55486e-06
4.48864e-06
4.40807e-06
4.3131e-06
4.20229e-06
4.07911e-06
3.95524e-06
3.83557e-06
3.72686e-06
3.64179e-06
3.60703e-06
3.69077e-06
3.85471e-06
4.08796e-06
5.11101e-06
1.11759e-05
8.03488e-06
-5.69551e-05
)
;
    }
    sWall
    {
        type            calculated;
        value           uniform -0.00027257;
    }
    nWall
    {
        type            calculated;
        value           nonuniform List<scalar> 6(-4.86551e-05 -5.83331e-05 -6.37344e-05 -7.52026e-05 -8.25376e-05 -0.00010236);
    }
    sideWalls
    {
        type            empty;
        value           nonuniform 0();
    }
    glass1
    {
        type            calculated;
        value           nonuniform List<scalar> 9(-5.73499e-05 -0.000154093 -0.000235049 -0.000303412 -0.000361077 -0.000409542 -0.000452858 -0.000505942 -0.000565583);
    }
    glass2
    {
        type            calculated;
        value           nonuniform List<scalar> 2(-0.000257958 -0.000285996);
    }
    sun
    {
        type            calculated;
        value           uniform 0;
    }
    heatsource1
    {
        type            calculated;
        value           nonuniform List<scalar> 3(2.04147e-07 2.04088e-07 2.04102e-07);
    }
    heatsource2
    {
        type            calculated;
        value           nonuniform List<scalar> 4(5.10578e-08 5.12027e-08 0 0);
    }
    Table_master
    {
        type            calculated;
        value           nonuniform List<scalar> 9(-1.53109e-07 -1.53167e-07 -1.5319e-07 -1.53205e-07 -1.53217e-07 -1.53224e-07 -1.53226e-07 -1.53221e-07 -1.5319e-07);
    }
    Table_slave
    {
        type            calculated;
        value           nonuniform List<scalar> 9(1.53002e-07 1.53008e-07 1.52983e-07 1.52961e-07 1.52949e-07 1.52955e-07 1.52966e-07 1.53007e-07 1.53088e-07);
    }
    inlet
    {
        type            calculated;
        value           uniform -0.00609236;
    }
    outlet
    {
        type            calculated;
        value           nonuniform List<scalar> 2(0.00773833 0.00285474);
    }
}


// ************************************************************************* //
