/*--------------------------------*- C++ -*----------------------------------*\
  =========                 |
  \\      /  F ield         | OpenFOAM: The Open Source CFD Toolbox
   \\    /   O peration     | Website:  https://openfoam.org
    \\  /    A nd           | Version:  6
     \\/     M anipulation  |
\*---------------------------------------------------------------------------*/
FoamFile
{
    version     2.0;
    format      ascii;
    class       surfaceScalarField;
    location    "1100";
    object      phi;
}
// * * * * * * * * * * * * * * * * * * * * * * * * * * * * * * * * * * * * * //

dimensions      [1 0 -1 0 0 0 0];

internalField   nonuniform List<scalar> 
852
(
-0.00215367
0.00220869
-0.00213859
-1.48411e-05
-0.00195846
-0.000179897
-0.00185702
-0.000101212
-0.00179791
-5.88743e-05
-0.00175654
-4.11432e-05
-0.00171964
-3.66665e-05
-0.00167669
-4.27186e-05
-0.00161704
-5.94239e-05
-0.00152865
-8.81515e-05
-0.00139832
-0.000130097
-0.00121129
-0.000186802
-0.000943993
-0.000267059
-0.000547839
-0.000395922
-0.000546906
9.42538e-06
-6.54498e-06
-2.08235e-05
3.03658e-05
-1.85837e-06
-1.88603e-05
7.08894e-06
-8.85423e-06
2.67863e-05
-1.96032e-05
0.000121456
-9.45483e-05
0.000258899
-0.000137311
0.000378117
-0.000119091
0.000470358
-9.21182e-05
0.00054366
-7.3184e-05
0.000602206
-5.84346e-05
0.000645988
-4.36769e-05
0.000666193
-2.0106e-05
0.000666157
1.30256e-07
0.000662076
4.17455e-06
0.000652225
9.94146e-06
0.000634536
1.77632e-05
0.000579483
5.5094e-05
0.000582417
-0.00153707
0.00388363
-0.00192099
0.000369331
-0.00194583
-0.000154817
-0.00193038
-0.000116417
-0.00190765
-8.13655e-05
-0.00188161
-6.69433e-05
-0.00185287
-6.51767e-05
-0.00181831
-7.70362e-05
-0.00177212
-0.000105383
-0.00170571
-0.000154338
-0.00160715
-0.000228422
-0.00146078
-0.000332947
-0.0012522
-0.000475418
-0.000989822
-0.000658085
-0.00069205
-0.000844464
0.00014434
-0.000836232
0.000144526
0.000174749
-0.000176497
3.64724e-05
0.000168747
-0.000127424
0.000145148
-0.000197424
6.12455e-05
-0.000215266
-1.67913e-06
-0.00025934
-5.03477e-05
-0.000218596
-0.000177923
-0.00020685
-0.000130713
-0.000212598
-8.62547e-05
-0.000229806
-5.58674e-05
-0.000258027
-3.01114e-05
-0.000299679
-1.93189e-06
-0.000346397
2.66972e-05
-0.000389395
4.32159e-05
-0.000408327
2.32076e-05
-0.000336348
-6.19228e-05
-0.000168694
-0.000149788
-9.64904e-05
-1.70375e-05
0.00049362
-0.00109788
0.00518235
-0.00161296
0.000884669
-0.00179759
3.00667e-05
-0.00186507
-4.86778e-05
-0.00188009
-6.61043e-05
-0.00187315
-7.36392e-05
-0.00185781
-8.02844e-05
-0.00183939
-9.52212e-05
-0.00181879
-0.000125752
-0.00179348
-0.000179423
-0.00175806
-0.000263621
-0.00170566
-0.000385132
-0.00163309
-0.000547773
-0.00154835
-0.000742623
-0.00146275
-0.000929866
-0.00125201
-0.0010468
-0.00110731
-0.000802359
0.000631247
-0.000909815
0.000276243
-0.000918054
0.000153433
-0.000910231
5.34634e-05
-0.000877909
-3.397e-05
-0.000779099
-0.000149109
-0.000956777
-0.00108725
-0.00117327
-0.00122891
-0.00125879
-0.00126049
-0.00123355
-0.00119005
-0.00116649
-0.00101541
-0.000212697
-0.00104718
-0.000117662
-0.000942329
-0.000121482
-0.00044236
-0.000745658
0.00617998
-0.00126308
0.00140236
-0.00149901
0.000266282
-0.00163555
8.8128e-05
-0.00170971
8.31616e-06
-0.00173522
-4.78777e-05
-0.00173722
-7.80464e-05
-0.00173293
-9.92833e-05
-0.00173353
-0.00012492
-0.00174532
-0.000167409
-0.00177231
-0.000236417
-0.00181916
-0.000338069
-0.00189562
-0.0004711
-0.00201766
-0.000620386
-0.00219265
-0.000754701
-0.0024144
-0.000824882
-0.00284314
-0.000678429
-0.00256535
-0.000274806
-0.002031
9.69785e-05
-0.00193007
0.00017541
-0.00190838
0.000131863
-0.00191953
6.47661e-05
-0.00193875
-1.45721e-05
-0.00200827
-7.94048e-05
-0.0019302
-7.80264e-05
-0.00183962
-9.05431e-05
-0.00173337
-0.000106215
-0.00161524
-0.000118102
-0.00148724
-0.000127971
-0.00134949
-0.000137719
-0.001199
-0.000150444
-0.00102651
-0.000172429
-0.00080754
-0.000218888
-0.000688598
-0.000331373
-0.000400862
-0.000405104
-2.71231e-05
-0.000494903
-0.000468031
-0.000461121
0.00693721
-0.000919526
0.00186106
-0.000997543
0.000344608
-0.00109257
0.000183462
-0.0012618
0.000177827
-0.00138991
8.04929e-05
-0.0014453
-2.24129e-05
-0.0014606
-8.37399e-05
-0.00147147
-0.000113822
-0.00149441
-0.000144251
-0.0015401
-0.000190508
-0.0016165
-0.000261453
-0.00172989
-0.000357495
-0.00188286
-0.000467206
-0.00207212
-0.000565252
-0.00229397
-0.000602843
-0.00247146
-0.000500764
-0.00246758
-0.00027853
-0.00230039
-7.00675e-05
-0.00214906
2.42323e-05
-0.00205185
3.48219e-05
-0.00199051
3.61308e-06
-0.00195629
-4.85956e-05
-0.00193947
-9.60307e-05
-0.00189259
-0.0001247
-0.00183312
-0.000149811
-0.00176624
-0.000172896
-0.00169143
-0.000192716
-0.00160915
-0.000210052
-0.00151929
-0.00022738
-0.00141935
-0.000250173
-0.00130182
-0.000289746
-0.00115577
-0.000364712
-0.000999163
-0.000487744
-0.000749498
-0.000654521
-0.000363353
-0.000880795
0.000271662
-0.0011028
0.00126435
-0.00099265
0.00140462
-0.000140251
0.00142868
-0.000368964
0.00764157
-0.000632718
0.00212511
-0.000294296
6.52526e-06
-0.000163264
5.27726e-05
-0.00038681
0.000401693
-0.000692723
0.000386693
-0.000897474
0.000182596
-0.000989649
8.67603e-06
-0.00103056
-7.26791e-05
-0.00106275
-0.000111834
-0.00110864
-0.000144392
-0.00118222
-0.000187654
-0.00129064
-0.00024885
-0.0014346
-0.000323037
-0.0016082
-0.000391442
-0.00179232
-0.000418509
-0.00192651
-0.000366373
-0.00195893
-0.000245923
-0.00190213
-0.000126684
-0.00182014
-5.75683e-05
-0.00174804
-3.70946e-05
-0.00169485
-4.93728e-05
-0.00166277
-8.04737e-05
-0.00164349
-0.000115104
-0.00162315
-0.000144833
-0.0016009
-0.000171848
-0.00157792
-0.000195669
-0.00155507
-0.000215351
-0.00153408
-0.000230833
-0.00151709
-0.000244156
-0.00150535
-0.000261696
-0.00149785
-0.000297037
-0.00149119
-0.000371155
-0.00147301
-0.000505697
-0.00140511
-0.000722191
-0.00124019
-0.00104549
-0.000881084
-0.00146168
-0.000119245
-0.00175427
0.00052216
-0.000781429
0.00197937
-0.00068093
0.00869427
-4.49192e-05
0.00148942
0.000921063
-0.000959074
0.00114132
-0.000167105
0.000785799
0.000757563
0.000363283
0.000809525
1.77243e-05
0.000528433
-0.000229288
0.000255937
-0.000374679
7.29502e-05
-0.000451272
-3.5008e-05
-0.000506368
-8.90637e-05
-0.000573146
-0.000120644
-0.00066526
-0.000156505
-0.000786854
-0.000201213
-0.000931891
-0.000246177
-0.00108034
-0.000269835
-0.00119498
-0.000251515
-0.00124581
-0.000194883
-0.00124008
-0.000132199
-0.00120773
-8.97165e-05
-0.00117204
-7.25683e-05
-0.00114477
-7.64337e-05
-0.00113056
-9.4479e-05
-0.00112714
-0.000118301
-0.0011297
-0.000142059
-0.0011369
-0.000164421
-0.00114895
-0.000183406
-0.00116736
-0.000196712
-0.00119577
-0.000202201
-0.0012405
-0.000199204
-0.00131056
-0.000191415
-0.00141641
-0.00019097
-0.00156641
-0.000220937
-0.00175869
-0.000313198
-0.00197713
-0.000503522
-0.00220065
-0.000821748
-0.00239416
-0.00126794
-0.00241714
-0.00173107
-0.00150751
-0.00169084
0.000504462
0.00180535
0.00730942
0.00298098
0.000314104
0.00330485
-0.00128255
0.00267693
0.000461205
0.00190455
0.00153032
0.00137641
0.00133798
0.00101248
0.000892653
0.000739757
0.000528911
0.00053519
0.000277761
0.000385872
0.000114553
0.000281765
1.52892e-05
0.000202161
-4.07931e-05
0.000120831
-7.49266e-05
2.24473e-05
-0.000102582
-9.31042e-05
-0.000130379
-0.000211976
-0.000150719
-0.000310796
-0.000152456
-0.00037091
-0.000134533
-0.000393889
-0.00010899
-0.000394647
-8.87321e-05
-0.0003878
-7.91916e-05
-0.000383288
-8.07222e-05
-0.000386449
-9.10934e-05
-0.000398167
-0.000106358
-0.000417229
-0.000122769
-0.000442951
-0.000138469
-0.000474755
-0.000151368
-0.000512545
-0.000158687
-0.000557601
-0.000156909
-0.000614216
-0.000142353
-0.000692309
-0.000113085
-0.000810536
-7.25082e-05
-0.000997238
-3.40027e-05
-0.0012853
-2.49089e-05
-0.00170499
-8.35984e-05
-0.00229528
-0.000231231
-0.00313847
-0.000424515
-0.00421443
-0.000654864
-0.00431696
-0.00158806
-0.00370258
0.00776801
0.00806684
0.00618592
0.000598818
0.00343181
0.00321576
0.00230543
0.00265708
0.00182264
0.0018211
0.0015931
0.00112248
0.0014642
0.000658083
0.00137111
0.000371106
0.00128889
0.000197041
0.00120889
9.55575e-05
0.00113038
3.79864e-05
0.00105298
2.74791e-06
0.00097279
-2.2114e-05
0.00088543
-4.27416e-05
0.000794529
-5.95446e-05
0.000711663
-6.93207e-05
0.000648325
-7.0931e-05
0.000606632
-6.70397e-05
0.000580852
-6.26994e-05
0.000563271
-6.13631e-05
0.000547265
-6.44731e-05
0.000528305
-7.18912e-05
0.000504264
-8.20758e-05
0.000474114
-9.23768e-05
0.000437849
-0.000101961
0.00039646
-0.000109734
0.000351895
-0.000113875
0.000307181
-0.000111944
0.00026634
-0.00010126
0.000233761
-8.02514e-05
0.000213018
-5.15099e-05
0.000205593
-2.6324e-05
0.000209143
-2.82064e-05
0.000214778
-8.89839e-05
0.000212997
-0.000229202
0.000226257
-0.000437528
0.000312366
-0.000740727
0.000245887
-0.00152133
-0.00333811
-0.00341133
0.00259679
-0.00195521
0.00176016
-0.000125635
0.000827931
0.00095179
0.000744037
0.0014967
0.000577899
0.00178825
0.000366852
0.00194696
0.000212715
0.00202843
0.000115891
0.00206382
6.04944e-05
0.00206894
3.31898e-05
0.00204953
2.24783e-05
0.00201069
1.7047e-05
0.00195616
1.21073e-05
0.00189117
5.76119e-06
0.0018233
-1.14279e-06
0.00175994
-7.27001e-06
0.00170504
-1.18477e-05
0.00165885
-1.62196e-05
0.00161924
-2.14832e-05
0.0015832
-2.81576e-05
0.00154779
-3.62168e-05
0.00151099
-4.50052e-05
0.00147077
-5.19046e-05
0.00142685
-5.77741e-05
0.00137986
-6.24861e-05
0.00133155
-6.53075e-05
0.0012852
-6.53351e-05
0.00124602
-6.18161e-05
0.00122104
-5.50071e-05
0.00121782
-4.80197e-05
0.00124134
-4.95767e-05
0.00128954
-7.61409e-05
0.00135066
-0.000149838
0.00141108
-0.000289363
0.00147579
-0.000501979
0.00154246
-0.000807141
0.00136137
-0.00133999
-0.00195168
-0.000668932
0.00324551
0.000709198
0.000382606
0.00126584
0.000271803
0.00183588
0.000174468
0.00235991
5.43179e-05
0.00272008
7.11349e-06
0.00292879
4.42272e-06
0.00302962
1.54771e-05
0.00305968
3.08537e-05
0.00304657
4.66997e-05
0.00301033
5.91129e-05
0.00296256
6.52057e-05
0.00290989
6.51484e-05
0.0028555
6.05111e-05
0.00280131
5.33977e-05
0.00274866
4.57302e-05
0.00269948
3.7664e-05
0.00265399
2.95857e-05
0.00261115
2.16749e-05
0.00256921
1.40762e-05
0.00252639
6.9061e-06
0.00248123
4.41169e-07
0.00243423
-4.62782e-06
0.0023856
-8.86748e-06
0.00233562
-1.22323e-05
0.00228534
-1.47588e-05
0.00223688
-1.66078e-05
0.00219358
-1.82522e-05
0.00215969
-2.0847e-05
0.00213881
-2.68705e-05
0.00213053
-4.10162e-05
0.00212555
-7.08944e-05
0.00210261
-0.000126622
0.00203227
-0.000218756
0.00188616
-0.000355608
0.00161671
-0.000537431
0.00108317
-0.000806199
-0.000841184
0.00446681
0.000130654
0.00334457
0.00369436
0.0039294
0.0040625
0.00407083
0.00402775
0.00397849
0.00393774
0.00391088
0.00389944
0.00390087
0.0039094
0.00391916
0.00392565
0.00392636
0.00392066
0.00390803
0.00388836
0.00386171
0.00382831
0.00378851
0.00374299
0.0036931
0.00363967
0.00358355
0.00352555
0.00346635
0.00340614
0.00334396
0.00327635
0.00319516
0.00308458
0.00291868
0.00266091
0.00226638
0.00168993
0.00084532
)
;

boundaryField
{
    floor
    {
        type            calculated;
        value           nonuniform List<scalar> 
29
(
0
0
0
0
0
0
0
0
0
0
0
0
0
0
0
0
0
0
0
0
-2.94078e-06
-7.70099e-06
-5.91175e-06
-1.11105e-06
-7.03957e-07
-2.74525e-06
-4.69787e-06
-5.29613e-06
-2.87565e-06
)
;
    }
    ceiling
    {
        type            calculated;
        value           nonuniform List<scalar> 
43
(
9.50376e-05
7.46109e-05
3.22466e-05
3.34871e-05
3.74144e-05
4.19967e-05
4.6599e-05
5.07904e-05
5.42635e-05
5.6798e-05
5.82597e-05
5.86603e-05
5.81918e-05
5.71581e-05
5.58474e-05
5.44608e-05
5.31093e-05
5.18428e-05
5.06832e-05
4.96336e-05
4.86854e-05
4.78237e-05
4.70308e-05
4.62897e-05
4.55658e-05
4.4864e-05
4.41844e-05
4.35224e-05
4.2873e-05
4.22336e-05
4.16071e-05
4.10037e-05
4.04417e-05
3.99459e-05
3.95456e-05
3.92746e-05
3.91769e-05
3.92776e-05
3.8665e-05
4.1763e-05
1.77698e-05
1.556e-05
2.09215e-05
)
;
    }
    sWall
    {
        type            calculated;
        value           uniform -0.000110719;
    }
    nWall
    {
        type            calculated;
        value           nonuniform List<scalar> 6(-2.4036e-05 -2.83315e-05 -3.23986e-05 -2.48116e-05 -2.70905e-05 -3.73869e-05);
    }
    sideWalls
    {
        type            empty;
        value           nonuniform 0();
    }
    glass1
    {
        type            calculated;
        value           nonuniform List<scalar> 9(-5.48017e-05 -0.000137648 -0.000200609 -0.000251751 -0.00029588 -0.000335167 -0.000371521 -0.000420262 -0.000476116);
    }
    glass2
    {
        type            calculated;
        value           nonuniform List<scalar> 2(-0.000109671 -0.000118345);
    }
    sun
    {
        type            calculated;
        value           uniform 0;
    }
    heatsource1
    {
        type            calculated;
        value           nonuniform List<scalar> 3(2.01372e-07 2.01437e-07 2.01537e-07);
    }
    heatsource2
    {
        type            calculated;
        value           nonuniform List<scalar> 4(5.06457e-08 5.08213e-08 0 0);
    }
    Table_master
    {
        type            calculated;
        value           nonuniform List<scalar> 9(-1.52639e-07 -1.52568e-07 -1.52496e-07 -1.52434e-07 -1.52378e-07 -1.52331e-07 -1.52282e-07 -1.5223e-07 -1.52148e-07);
    }
    Table_slave
    {
        type            calculated;
        value           nonuniform List<scalar> 9(1.51231e-07 1.51255e-07 1.51279e-07 1.5131e-07 1.51345e-07 1.51384e-07 1.51426e-07 1.51473e-07 1.51501e-07);
    }
    inlet
    {
        type            calculated;
        value           uniform 0.00141415;
    }
    outlet
    {
        type            calculated;
        value           nonuniform List<scalar> 2(-0.00445073 0.00426197);
    }
}


// ************************************************************************* //
