// -*- C++ -*-
// File generated by PyFoam - sorry for the ugliness

FoamFile
{
 version 2.0;
 format ascii;
 class volVectorField;
 location "400";
 object U;
}

dimensions [ 0 1 -1 0 0 0 0 ];

internalField nonuniform List<vector> 459
(
  (0.0374984 0.0844545 0)
  (-0.164016 0.0243363 0)
  (-0.186328 0.0175702 0)
  (-0.216552 0.0127197 0)
  (-0.239497 0.00731022 0)
  (-0.254472 0.00161481 0)
  (-0.260331 -0.00445847 0)
  (-0.255518 -0.0109531 0)
  (-0.240077 -0.0177532 0)
  (-0.214698 -0.0239898 0)
  (-0.181525 -0.0288147 0)
  (-0.143345 -0.0318776 0)
  (-0.103036 -0.0338133 0)
  (-0.0659568 -0.0366166 0)
  (-0.0486241 -0.0417939 0)
  (0.00458977 0.00615694 0)
  (-0.0181867 -0.0185898 0)
  (0.00688872 -0.0254918 0)
  (0.0256848 -0.018057 0)
  (0.0404066 -0.0117167 0)
  (0.0504125 -0.00729292 0)
  (0.0558171 -0.0043976 0)
  (0.0582504 -0.0029037 0)
  (0.0592421 -0.00222312 0)
  (0.0596932 -0.00187503 0)
  (0.0598986 -0.00165349 0)
  (0.0598879 -0.00147288 0)
  (0.059603 -0.00124692 0)
  (0.0588446 -0.000815818 0)
  (0.057073 0.000193909 0)
  (0.0531473 0.00229956 0)
  (0.045849 0.00437997 0)
  (0.0401051 0.00553314 0)
  (-0.0167222 0.0195075 0)
  (0.212883 0.172968 0)
  (-0.154367 0.0640336 0)
  (-0.149784 0.0508864 0)
  (-0.180883 0.0408166 0)
  (-0.203281 0.0295068 0)
  (-0.218141 0.0170322 0)
  (-0.22441 0.00299404 0)
  (-0.220327 -0.0126644 0)
  (-0.206149 -0.0285629 0)
  (-0.183001 -0.0423304 0)
  (-0.15341 -0.051909 0)
  (-0.120575 -0.0563147 0)
  (-0.0878721 -0.0560421 0)
  (-0.0597046 -0.052786 0)
  (-0.0418866 -0.0466675 0)
  (-0.0269688 -0.025554 0)
  (-0.00969921 0.0034319 0)
  (0.0734902 0.0263777 0)
  (0.0364309 -0.0187428 0)
  (0.0406668 -0.0280194 0)
  (0.0506997 -0.0227635 0)
  (0.0582407 -0.0148471 0)
  (0.0627059 -0.00797711 0)
  (0.0642246 -0.00292168 0)
  (0.0642635 -0.000214812 0)
  (0.0641056 0.000985951 0)
  (0.0641349 0.00158135 0)
  (0.0642389 0.00197003 0)
  (0.0643001 0.00230269 0)
  (0.0642855 0.00273612 0)
  (0.0641492 0.00360553 0)
  (0.0633573 0.00578994 0)
  (0.0595059 0.0119336 0)
  (0.0498082 0.0167437 0)
  (0.0458323 0.0191207 0)
  (-0.0522444 0.042602 0)
  (0.373026 0.258786 0)
  (-0.172736 0.102441 0)
  (-0.112336 0.0823298 0)
  (-0.142448 0.0639577 0)
  (-0.161928 0.0452984 0)
  (-0.175376 0.0251248 0)
  (-0.18128 0.0023551 0)
  (-0.176689 -0.0228404 0)
  (-0.162339 -0.0479607 0)
  (-0.140155 -0.0688291 0)
  (-0.113169 -0.0823756 0)
  (-0.0846004 -0.0874451 0)
  (-0.0572355 -0.0847963 0)
  (-0.0336587 -0.0758789 0)
  (-0.0161226 -0.0609657 0)
  (-0.00209271 -0.0368039 0)
  (0.0108287 -0.00483983 0)
  (0.10522 -0.0488183 0)
  (0.0685926 -0.0454675 0)
  (0.0646176 -0.0379294 0)
  (0.0674136 -0.0286277 0)
  (0.0692273 -0.0192166 0)
  (0.0698609 -0.0115311 0)
  (0.0681713 -0.00959211 0)
  (0.0651454 -0.00706484 0)
  (0.0632536 -0.00572146 0)
  (0.0625353 -0.00497011 0)
  (0.0623497 -0.00450598 0)
  (0.0623971 -0.00417183 0)
  (0.0627308 -0.00380463 0)
  (0.0637981 -0.00309231 0)
  (0.0667632 -0.00012632 0)
  (0.0646805 0.0168983 0)
  (0.051022 0.0284451 0)
  (0.0531316 0.035361 0)
  (-0.0828287 0.0671038 0)
  (0.51618 0.32781 0)
  (-0.208301 0.136912 0)
  (-0.07299 0.108794 0)
  (-0.10165 0.0831987 0)
  (-0.11531 0.059444 0)
  (-0.125072 0.0334931 0)
  (-0.128767 0.00271552 0)
  (-0.121142 -0.0323998 0)
  (-0.105339 -0.066595 0)
  (-0.0843269 -0.0934342 0)
  (-0.0612484 -0.109515 0)
  (-0.038755 -0.114162 0)
  (-0.0184476 -0.109028 0)
  (-0.000872446 -0.0957718 0)
  (0.0136689 -0.0758057 0)
  (0.0279028 -0.0511787 0)
  (0.0494407 -0.0264998 0)
  (0.0793322 -0.005596 0)
  (0.0889257 -0.0369148 0)
  (0.0759248 -0.038997 0)
  (0.0689266 -0.0325202 0)
  (0.0666894 -0.025379 0)
  (0.0657435 -0.0178689 0)
  (0.0661838 -0.00945009 0)
  (0.0691415 -0.00585482 0)
  (0.0738035 -0.00517564 0)
  (0.0779464 -0.00478408 0)
  (0.0813032 -0.00435593 0)
  (0.0837861 -0.00360338 0)
  (0.084736 -0.00231393 0)
  (0.0828011 -0.000268934 0)
  (0.0767437 0.00277576 0)
  (0.0639022 0.00732937 0)
  (0.0523838 0.0275152 0)
  (0.0406432 0.0438847 0)
  (0.0567435 0.0560508 0)
  (-0.116783 0.0893161 0)
  (0.638405 0.381505 0)
  (-0.250278 0.165613 0)
  (-0.0343682 0.123664 0)
  (-0.0590078 0.0938711 0)
  (-0.0643817 0.0674569 0)
  (-0.0677766 0.0382026 0)
  (-0.0654785 0.000912675 0)
  (-0.051135 -0.0439075 0)
  (-0.0336992 -0.0849085 0)
  (-0.0158432 -0.114404 0)
  (0.000547035 -0.130091 0)
  (0.0140478 -0.132179 0)
  (0.0245052 -0.123929 0)
  (0.0326004 -0.108267 0)
  (0.0392835 -0.0875998 0)
  (0.0464273 -0.0647127 0)
  (0.05648 -0.0443646 0)
  (0.0670017 -0.0352953 0)
  (0.0695782 -0.0390523 0)
  (0.0639528 -0.0357203 0)
  (0.0571466 -0.0290878 0)
  (0.0526275 -0.0226565 0)
  (0.050047 -0.0167191 0)
  (0.0495167 -0.0111653 0)
  (0.0511294 -0.00712597 0)
  (0.054465 -0.00546788 0)
  (0.0580023 -0.00487667 0)
  (0.0614777 -0.00415082 0)
  (0.0646691 -0.00244663 0)
  (0.0670546 0.000836404 0)
  (0.0674824 0.00572926 0)
  (0.0651658 0.0122551 0)
  (0.0595438 0.0209768 0)
  (0.05247 0.0366169 0)
  (0.0421887 0.0549803 0)
  (0.0646159 0.0748622 0)
  (-0.0227965 0.102146 0)
  (0.044821 0.029701 0)
  (-0.0633054 -0.0351553 0)
  (-0.272641 -0.0577834 0)
  (0.725464 0.426579 0)
  (-0.28996 0.18538 0)
  (-0.00561319 0.119163 0)
  (-0.0150397 0.0939006 0)
  (-0.00944179 0.0690459 0)
  (-0.0042829 0.0371631 0)
  (0.0134798 -0.0086649 0)
  (0.0338265 -0.0601371 0)
  (0.049992 -0.101375 0)
  (0.0610868 -0.127912 0)
  (0.067123 -0.139693 0)
  (0.0687975 -0.138662 0)
  (0.0673477 -0.127917 0)
  (0.0639699 -0.110574 0)
  (0.0599855 -0.089584 0)
  (0.056809 -0.0678655 0)
  (0.0554882 -0.0488543 0)
  (0.0547136 -0.0367974 0)
  (0.0509945 -0.0320903 0)
  (0.0439132 -0.028061 0)
  (0.0364959 -0.023089 0)
  (0.0311006 -0.0184383 0)
  (0.0280104 -0.0144978 0)
  (0.0272425 -0.0111773 0)
  (0.0285523 -0.00904539 0)
  (0.031348 -0.00862214 0)
  (0.0347983 -0.00878142 0)
  (0.038622 -0.00839643 0)
  (0.0426513 -0.00654697 0)
  (0.0465697 -0.00236375 0)
  (0.0500899 0.00448566 0)
  (0.0517387 0.0134212 0)
  (0.0518559 0.0244274 0)
  (0.0520309 0.0391493 0)
  (0.0504865 0.0571172 0)
  (0.0731847 0.0798248 0)
  (0.0520811 0.0966994 0)
  (0.0927326 0.067249 0)
  (0.116157 0.0442314 0)
  (-0.130663 -0.0082613 0)
  (0.77505 0.46773 0)
  (-0.308707 0.171759 0)
  (0.0201957 0.068893 0)
  (0.0432975 0.0697157 0)
  (0.0591357 0.0576052 0)
  (0.0751964 0.0234251 0)
  (0.107862 -0.030085 0)
  (0.12968 -0.0779958 0)
  (0.140176 -0.112352 0)
  (0.140767 -0.13181 0)
  (0.13346 -0.137578 0)
  (0.120581 -0.132176 0)
  (0.104578 -0.118776 0)
  (0.0875026 -0.100364 0)
  (0.071102 -0.0798287 0)
  (0.0566545 -0.0596667 0)
  (0.0448976 -0.042341 0)
  (0.0353803 -0.0303413 0)
  (0.0263953 -0.0238239 0)
  (0.0176666 -0.0199089 0)
  (0.0102815 -0.0166964 0)
  (0.00518376 -0.0142011 0)
  (0.00236667 -0.0124599 0)
  (0.00162355 -0.0113348 0)
  (0.00259876 -0.0110462 0)
  (0.00470544 -0.0116722 0)
  (0.00740402 -0.0124651 0)
  (0.0105599 -0.0125997 0)
  (0.0142692 -0.0112412 0)
  (0.018684 -0.00736579 0)
  (0.0247007 7.64105e-05 0)
  (0.0310219 0.0101416 0)
  (0.0365681 0.0215065 0)
  (0.0435102 0.0346847 0)
  (0.051063 0.0494478 0)
  (0.0733534 0.0677873 0)
  (0.0863686 0.0747668 0)
  (0.118673 0.0516689 0)
  (0.158458 0.0434379 0)
  (-0.0348617 0.0934907 0)
  (0.87907 0.471054 0)
  (-0.0715487 0.151495 0)
  (0.10551 -0.00833348 0)
  (0.172105 -0.02177 0)
  (0.184707 -0.0247859 0)
  (0.209453 -0.049382 0)
  (0.233669 -0.0774983 0)
  (0.242484 -0.100842 0)
  (0.235449 -0.11613 0)
  (0.216134 -0.122182 0)
  (0.188686 -0.119374 0)
  (0.156927 -0.109369 0)
  (0.124208 -0.0944787 0)
  (0.0928386 -0.0766944 0)
  (0.0646425 -0.058325 0)
  (0.0405301 -0.0412202 0)
  (0.0212001 -0.0271536 0)
  (0.00668998 -0.0179785 0)
  (-0.00457433 -0.0135002 0)
  (-0.0126466 -0.0118175 0)
  (-0.0185934 -0.0110253 0)
  (-0.022624 -0.0107591 0)
  (-0.0250842 -0.0109273 0)
  (-0.0262771 -0.0114608 0)
  (-0.0265294 -0.012397 0)
  (-0.0262553 -0.0136614 0)
  (-0.0257666 -0.0148954 0)
  (-0.0251021 -0.0156545 0)
  (-0.0240613 -0.0154439 0)
  (-0.0222184 -0.0136754 0)
  (-0.0185575 -0.00963082 0)
  (-0.00941342 -0.00254334 0)
  (-1.91321e-05 0.00665141 0)
  (0.0107959 0.0154571 0)
  (0.0226387 0.022616 0)
  (0.042752 0.029832 0)
  (0.0612723 0.0223385 0)
  (0.0804594 -0.00560585 0)
  (0.13935 0.0400351 0)
  (-0.415254 0.207051 0)
  (1.02442 0.425137 0)
  (0.488344 0.281168 0)
  (0.50124 0.189643 0)
  (0.518082 0.125473 0)
  (0.492352 0.0805771 0)
  (0.455763 0.0361535 0)
  (0.413841 -0.00708209 0)
  (0.366282 -0.0418601 0)
  (0.313537 -0.0643018 0)
  (0.2582 -0.0742376 0)
  (0.203447 -0.073887 0)
  (0.151812 -0.0664771 0)
  (0.105304 -0.0550923 0)
  (0.0642893 -0.0414774 0)
  (0.0302302 -0.0278701 0)
  (0.00234296 -0.0159187 0)
  (-0.0176203 -0.00817459 0)
  (-0.0294823 -0.00534896 0)
  (-0.0374142 -0.00504896 0)
  (-0.043118 -0.00578144 0)
  (-0.0475698 -0.00673999 0)
  (-0.0511098 -0.00778274 0)
  (-0.0540205 -0.00890759 0)
  (-0.0565368 -0.0101151 0)
  (-0.0589198 -0.0114051 0)
  (-0.0614875 -0.0126861 0)
  (-0.0645398 -0.0137053 0)
  (-0.0683347 -0.0140735 0)
  (-0.0731652 -0.0132518 0)
  (-0.0794536 -0.0105329 0)
  (-0.0877242 -0.00510676 0)
  (-0.0982535 0.00366358 0)
  (-0.108612 0.0150382 0)
  (-0.123676 0.0290913 0)
  (-0.147779 0.0458407 0)
  (-0.183414 0.0641084 0)
  (-0.233938 0.079818 0)
  (-0.291256 0.0904057 0)
  (-0.359608 0.0959694 0)
  (-0.620788 0.0973266 0)
  (-0.176924 0.0176915 0)
  (0.13447 0.0355683 0)
  (0.224933 0.00814587 0)
  (0.214941 -0.0143798 0)
  (0.200672 -0.026569 0)
  (0.181057 -0.0324238 0)
  (0.153054 -0.0341048 0)
  (0.119484 -0.0321777 0)
  (0.0837617 -0.0273395 0)
  (0.0485617 -0.0204436 0)
  (0.0161542 -0.0120912 0)
  (-0.0168416 -0.00241189 0)
  (-0.0382445 0.00301193 0)
  (-0.0524972 0.00548917 0)
  (-0.0606971 0.00564735 0)
  (-0.0654742 0.004644 0)
  (-0.0689892 0.00338815 0)
  (-0.0721501 0.00202032 0)
  (-0.0753314 0.000599425 0)
  (-0.0785756 -0.00078759 0)
  (-0.0819906 -0.00210941 0)
  (-0.0856636 -0.00331927 0)
  (-0.0896967 -0.00433405 0)
  (-0.0942052 -0.00500755 0)
  (-0.0992589 -0.00510199 0)
  (-0.104838 -0.00430329 0)
  (-0.110818 -0.00224839 0)
  (-0.116949 0.00143637 0)
  (-0.122685 0.00710278 0)
  (-0.126921 0.0154264 0)
  (-0.130326 0.0275853 0)
  (-0.133179 0.0438769 0)
  (-0.136379 0.0632988 0)
  (-0.140477 0.0821069 0)
  (-0.142288 0.0903865 0)
  (-0.124521 0.0674231 0)
  (-0.0786279 -0.0264303 0)
  (-0.279652 -0.204562 0)
  (-0.0180525 0.206367 0)
  (0.0492533 0.0890618 0)
  (0.0149457 0.0200229 0)
  (0.00681773 0.0081054 0)
  (0.00344882 0.00540685 0)
  (-0.00306644 0.00082044 0)
  (-0.0169377 -0.00166967 0)
  (-0.0346932 -0.00108472 0)
  (-0.0528085 0.00115968 0)
  (-0.0684635 0.00352901 0)
  (-0.0795677 0.00481432 0)
  (-0.0851522 0.00377873 0)
  (-0.0879793 0.000487348 0)
  (-0.0891504 -0.00351781 0)
  (-0.0896454 -0.00777599 0)
  (-0.0903385 -0.0118277 0)
  (-0.0915024 -0.0151249 0)
  (-0.0930386 -0.0174234 0)
  (-0.0948981 -0.0187481 0)
  (-0.0971321 -0.0193026 0)
  (-0.0997105 -0.0193656 0)
  (-0.102638 -0.0191992 0)
  (-0.105899 -0.0188368 0)
  (-0.109427 -0.0182322 0)
  (-0.113078 -0.0172454 0)
  (-0.116591 -0.0156237 0)
  (-0.119563 -0.0129805 0)
  (-0.121437 -0.00874906 0)
  (-0.121561 -0.00244826 0)
  (-0.119026 0.00625097 0)
  (-0.112377 0.0182159 0)
  (-0.100363 0.0341587 0)
  (-0.0827937 0.0535522 0)
  (-0.0606322 0.0721115 0)
  (-0.0369121 0.0826857 0)
  (0.00386798 0.0662351 0)
  (0.143176 -0.00484107 0)
  (-0.207631 -0.115201 0)
  (-0.0600261 -0.327383 0)
  (-0.419195 -0.121368 0)
  (-0.305798 0.0733104 0)
  (-0.235963 -0.0207849 0)
  (-0.191099 -0.0349064 0)
  (-0.171457 -0.0265228 0)
  (-0.162735 -0.0182934 0)
  (-0.158988 -0.0110396 0)
  (-0.156843 -0.00380396 0)
  (-0.154091 0.00331148 0)
  (-0.149756 0.010172 0)
  (-0.143533 0.0168516 0)
  (-0.135631 0.0233682 0)
  (-0.126791 0.029481 0)
  (-0.118305 0.0350502 0)
  (-0.110954 0.0402325 0)
  (-0.105153 0.0448744 0)
  (-0.100962 0.0487565 0)
  (-0.0981978 0.0515325 0)
  (-0.09662 0.0529503 0)
  (-0.096004 0.0530396 0)
  (-0.0961709 0.0520005 0)
  (-0.0969901 0.0502578 0)
  (-0.098358 0.0482208 0)
  (-0.100183 0.0460111 0)
  (-0.102346 0.0437228 0)
  (-0.104661 0.0414386 0)
  (-0.106838 0.0392288 0)
  (-0.108436 0.0371443 0)
  (-0.108759 0.0352262 0)
  (-0.106562 0.0340229 0)
  (-0.0998559 0.034491 0)
  (-0.0861726 0.037391 0)
  (-0.0637226 0.0435988 0)
  (-0.0333141 0.0535698 0)
  (0.0159992 0.0669188 0)
  (0.060492 0.0677681 0)
  (0.103207 0.0527288 0)
  (0.164262 0.02339 0)
  (-0.216682 -0.0320676 0)
)
;

boundaryField
{
  floor
  {
    type noSlip;
  }
  ceiling
  {
    type noSlip;
  }
  sWall
  {
    type noSlip;
  }
  nWall
  {
    type noSlip;
  }
  sideWalls
  {
    type empty;
  }
  glass1
  {
    type noSlip;
  }
  glass2
  {
    type noSlip;
  }
  sun
  {
    type noSlip;
  }
  heatsource1
  {
    type noSlip;
  }
  heatsource2
  {
    type noSlip;
  }
  Table_master
  {
    type noSlip;
  }
  Table_slave
  {
    type noSlip;
  }
  inlet
  {
    type fixedValue;
    value uniform (0.277164 -0.114805 0);
  }
  outlet
  {
    type zeroGradient;
  }
} 	// ************************************************************************* //

