// -*- C++ -*-
// File generated by PyFoam - sorry for the ugliness

FoamFile
{
 version 2.0;
 format ascii;
 class volScalarField;
 location "2000";
 object T;
}

dimensions [ 0 0 0 1 0 0 0 ];

internalField nonuniform List<scalar> 459
(
  308.621
  308.51
  308.462
  308.434
  308.414
  308.399
  308.389
  308.379
  308.37
  308.36
  308.351
  308.341
  308.33
  308.318
  308.298
  304.445
  304.452
  304.461
  304.456
  304.461
  304.473
  304.488
  304.503
  304.48
  304.46
  304.446
  304.438
  304.438
  304.438
  304.434
  304.436
  304.433
  304.423
  304.412
  308.571
  308.398
  308.316
  308.269
  308.239
  308.22
  308.21
  308.206
  308.206
  308.209
  308.215
  308.225
  308.238
  308.254
  308.268
  308.254
  308.224
  304.65
  304.645
  304.649
  304.644
  304.623
  304.582
  304.567
  304.571
  304.571
  304.565
  304.56
  304.557
  304.561
  304.595
  304.643
  304.682
  304.663
  304.62
  304.596
  308.528
  308.278
  308.161
  308.093
  308.05
  308.024
  308.012
  308.014
  308.027
  308.048
  308.077
  308.111
  308.149
  308.188
  308.222
  308.228
  308.2
  305.023
  304.943
  304.899
  304.88
  304.859
  304.831
  304.717
  304.627
  304.669
  304.724
  304.775
  304.825
  304.877
  304.933
  305.013
  305.134
  305.139
  305.18
  305.311
  308.488
  308.175
  308.031
  307.946
  307.895
  307.866
  307.853
  307.858
  307.882
  307.921
  307.971
  308.026
  308.084
  308.141
  308.189
  308.197
  307.933
  305.661
  305.39
  305.37
  305.406
  305.481
  305.58
  305.682
  305.761
  305.773
  305.781
  305.787
  305.79
  305.79
  305.788
  305.78
  305.765
  305.733
  305.76
  305.804
  305.858
  308.446
  308.101
  307.943
  307.847
  307.808
  307.793
  307.784
  307.785
  307.811
  307.856
  307.916
  307.983
  308.052
  308.118
  308.164
  308.083
  307.524
  305.799
  305.635
  305.642
  305.678
  305.726
  305.775
  305.818
  305.848
  305.865
  305.879
  305.89
  305.901
  305.912
  305.923
  305.936
  305.951
  305.967
  305.996
  306.029
  306.061
  306.089
  306.074
  306.052
  308.4
  308.061
  307.898
  307.802
  307.795
  307.794
  307.787
  307.782
  307.806
  307.852
  307.913
  307.981
  308.048
  308.099
  308.089
  307.862
  307.12
  305.893
  305.782
  305.796
  305.825
  305.855
  305.884
  305.908
  305.928
  305.943
  305.954
  305.964
  305.974
  305.985
  305.998
  306.015
  306.034
  306.056
  306.079
  306.101
  306.118
  306.126
  306.113
  306.048
  308.347
  308.055
  307.907
  307.812
  307.813
  307.822
  307.828
  307.834
  307.852
  307.888
  307.937
  307.99
  308.035
  308.043
  307.948
  307.59
  306.806
  305.981
  305.906
  305.925
  305.952
  305.976
  305.996
  306.012
  306.024
  306.033
  306.037
  306.041
  306.044
  306.048
  306.055
  306.064
  306.078
  306.095
  306.114
  306.134
  306.151
  306.165
  306.172
  306.169
  308.3
  308.079
  307.967
  307.828
  307.825
  307.845
  307.865
  307.881
  307.896
  307.92
  307.95
  307.978
  307.987
  307.941
  307.768
  307.336
  306.614
  306.081
  306.038
  306.067
  306.101
  306.127
  306.142
  306.148
  306.149
  306.147
  306.143
  306.138
  306.132
  306.126
  306.122
  306.12
  306.121
  306.127
  306.137
  306.151
  306.168
  306.187
  306.206
  306.231
  308.277
  308.164
  308.168
  307.861
  307.8
  307.827
  307.858
  307.883
  307.9
  307.913
  307.924
  307.926
  307.9
  307.812
  307.597
  307.165
  306.557
  306.212
  306.194
  306.234
  306.278
  306.299
  306.305
  306.302
  306.294
  306.284
  306.272
  306.259
  306.245
  306.23
  306.216
  306.203
  306.192
  306.185
  306.182
  306.182
  306.184
  306.188
  306.197
  306.223
  308.575
  307.955
  307.752
  307.771
  307.802
  307.828
  307.846
  307.853
  307.852
  307.836
  307.79
  307.689
  307.486
  307.12
  306.614
  306.429
  306.406
  306.433
  306.456
  306.466
  306.465
  306.457
  306.444
  306.428
  306.41
  306.391
  306.371
  306.349
  306.328
  306.307
  306.287
  306.269
  306.255
  306.243
  306.233
  306.224
  306.215
  306.213
  308.561
  308.136
  307.708
  307.704
  307.724
  307.74
  307.752
  307.755
  307.748
  307.726
  307.682
  307.599
  307.452
  307.121
  306.85
  306.736
  306.69
  306.667
  306.653
  306.64
  306.625
  306.607
  306.587
  306.565
  306.541
  306.515
  306.489
  306.462
  306.434
  306.406
  306.379
  306.353
  306.329
  306.307
  306.286
  306.263
  306.237
  306.22
  312.582
  312.465
  310.05
  308.647
  307.657
  307.627
  307.63
  307.634
  307.637
  307.639
  307.634
  307.619
  307.592
  307.543
  307.429
  307.245
  307.126
  307.057
  307.008
  306.966
  306.923
  306.881
  306.841
  306.801
  306.763
  306.726
  306.69
  306.653
  306.617
  306.581
  306.544
  306.508
  306.472
  306.436
  306.4
  306.364
  306.327
  306.285
  306.226
  306.113
)
;

boundaryField
{
  floor
  {
    type wallHeatTransfer;
    Tinf uniform 305.2;
    alphaWall uniform 0.24;
    value nonuniform List<scalar> 29
(
  308.044
  304.695
  304.695
  304.699
  304.701
  304.711
  304.725
  304.744
  304.757
  304.746
  304.729
  304.71
  304.691
  304.676
  304.669
  304.665
  304.665
  304.665
  304.663
  304.666
  304.666
  304.763
  305.288
  305.761
  308.044
  304.695
  304.793
  305.059
  305.592
)
;
  }
  ceiling
  {
    type wallHeatTransfer;
    Tinf uniform 303.2;
    alphaWall uniform 0.24;
    value nonuniform List<scalar> 43
(
  311.599
  311.504
  309.634
  308.219
  307.242
  307.201
  307.201
  307.202
  307.206
  307.21
  307.207
  307.196
  307.174
  307.132
  307.029
  306.86
  306.753
  306.694
  306.659
  306.633
  306.608
  306.581
  306.552
  306.52
  306.486
  306.451
  306.416
  306.381
  306.346
  306.311
  306.276
  306.242
  306.207
  306.172
  306.137
  306.101
  306.062
  306.016
  305.955
  305.843
  308.106
  308.015
  308.351
)
;
  }
  sWall
  {
    type wallHeatTransfer;
    Tinf uniform 315.2;
    alphaWall uniform 0.36;
    value uniform 312.974;
  }
  nWall
  {
    type wallHeatTransfer;
    Tinf uniform 307.2;
    alphaWall uniform 0.36;
    value nonuniform List<scalar> 6
(
  306.295
  306.287
  306.321
  306.326
  306.323
  306.257
)
;
  }
  sideWalls
  {
    type empty;
  }
  glass1
  {
    type wallHeatTransfer;
    Tinf uniform 315.2;
    alphaWall uniform 4.3;
    value nonuniform List<scalar> 9
(
  311.991
  311.785
  311.654
  311.551
  311.457
  311.36
  311.25
  311.118
  310.947
)
;
  }
  glass2
  {
    type wallHeatTransfer;
    Tinf uniform 307.2;
    alphaWall uniform 4.3;
    value nonuniform List<scalar> 2
(
  306.844
  306.828
)
;
  }
  sun
  {
    type wallHeatTransfer;
    Tinf uniform 305.2;
    alphaWall uniform 0.24;
    value nonuniform List<scalar> 14
(
  308.433
  308.321
  308.27
  308.238
  308.214
  308.196
  308.181
  308.168
  308.155
  308.142
  308.128
  308.114
  308.097
  308.076
)
;
  }
  heatsource1
  {
    type fixedGradient;
    gradient uniform 0;
  }
  heatsource2
  {
    type fixedGradient;
    gradient uniform 0;
  }
  Table_master
  {
    type zeroGradient;
  }
  Table_slave
  {
    type zeroGradient;
  }
  inlet
  {
    type fixedValue;
    value uniform 290.15;
  }
  outlet
  {
    type zeroGradient;
  }
} 	// ************************************************************************* //

