/*--------------------------------*- C++ -*----------------------------------*\
  =========                 |
  \\      /  F ield         | OpenFOAM: The Open Source CFD Toolbox
   \\    /   O peration     | Website:  https://openfoam.org
    \\  /    A nd           | Version:  6
     \\/     M anipulation  |
\*---------------------------------------------------------------------------*/
FoamFile
{
    version     2.0;
    format      ascii;
    class       volScalarField;
    location    "400";
    object      nut;
}
// * * * * * * * * * * * * * * * * * * * * * * * * * * * * * * * * * * * * * //

dimensions      [0 2 -1 0 0 0 0];

internalField   nonuniform List<scalar> 
459
(
0.00101264
0.0010975
0.00110965
0.00115941
0.00120494
0.00124671
0.0012865
0.00132659
0.00135965
0.00137856
0.00137811
0.00135426
0.00130648
0.00124141
0.00117127
0.000436269
0.000534056
0.000583
0.000567087
0.000542608
0.000515347
0.000485313
0.000456467
0.000430217
0.000406653
0.000385537
0.000366726
0.000349776
0.000334276
0.000319753
0.000305511
0.000290502
0.000283972
0.000262715
0.00140676
0.00324361
0.0030346
0.00352018
0.00397154
0.00443211
0.00486271
0.0052
0.00548471
0.00572556
0.00588226
0.00590086
0.00569773
0.00509684
0.00361208
0.00118296
0.000785361
0.000506913
0.000924806
0.00121292
0.00141105
0.00150728
0.00150257
0.00127408
0.00112975
0.00102139
0.000935287
0.000864667
0.000802454
0.000746508
0.000694533
0.000645552
0.000603608
0.000562658
0.000683801
0.000365724
0.00173927
0.00444746
0.0036853
0.00474945
0.00522293
0.00556297
0.00582085
0.0060206
0.00622003
0.0064369
0.0066446
0.00680129
0.00684767
0.00671804
0.00628095
0.00509737
0.00114677
0.000987071
0.00132327
0.00159601
0.00182415
0.00197371
0.00191699
0.000683923
0.000611331
0.000552757
0.000505197
0.000466187
0.000433848
0.000406818
0.000384212
0.000365651
0.000394837
0.000452105
0.000768803
0.000432283
0.00206221
0.00581214
0.00364655
0.00504701
0.00552386
0.00566079
0.00570695
0.0057648
0.00588736
0.0060844
0.00632849
0.00658239
0.00677917
0.00687045
0.00680674
0.00638991
0.00495349
0.00130801
0.00164851
0.0020691
0.00240883
0.0026497
0.00279461
0.00262317
0.000765171
0.00070813
0.000670249
0.000643122
0.00061996
0.000595366
0.000571371
0.000545228
0.000513412
0.000483553
0.000487417
0.000899648
0.000482206
0.00239139
0.00758149
0.00403793
0.00478608
0.00549681
0.00555955
0.00546111
0.00540458
0.00549932
0.00569371
0.00595861
0.00626383
0.00651623
0.00664615
0.00661515
0.00638395
0.00583083
0.00474673
0.00429845
0.00408404
0.00396769
0.00391259
0.00388883
0.00379958
0.00331437
0.00311514
0.00301309
0.0029299
0.00282698
0.00267822
0.00240904
0.00205835
0.00165684
0.00124409
0.000915125
0.000900358
0.000646803
0.000602483
0.000723593
0.00081066
0.00273803
0.00949587
0.0057242
0.0045833
0.00513971
0.00542136
0.0054172
0.00524747
0.00534232
0.00552151
0.00578537
0.00609477
0.00636383
0.00649874
0.00643862
0.00618208
0.00578462
0.00533858
0.00503737
0.00483599
0.00468625
0.00457925
0.00449176
0.00438473
0.00421192
0.00406419
0.00393107
0.00379541
0.00364769
0.00348159
0.00325327
0.00292222
0.0024883
0.00197566
0.00149441
0.00108355
0.000862677
0.000756292
0.0010936
0.000846623
0.00306171
0.0108904
0.00836837
0.00595641
0.00537375
0.00543224
0.00549061
0.00541905
0.00541184
0.00553396
0.00579024
0.00611432
0.00639386
0.00651374
0.00640279
0.00607583
0.00564918
0.00530072
0.00512402
0.00501401
0.00487633
0.00469439
0.0044837
0.00427866
0.00410082
0.00395788
0.00383
0.00370547
0.00358231
0.00346425
0.00335241
0.00315954
0.00282802
0.00238696
0.00194364
0.00152252
0.0012471
0.00118245
0.00123671
0.000963997
0.00312973
0.00994781
0.00866615
0.00774526
0.00699496
0.00653249
0.00603131
0.00564246
0.00551011
0.00564057
0.00595408
0.00631937
0.00659067
0.00664458
0.00642095
0.00596926
0.00546378
0.00514106
0.00503438
0.00483757
0.00452781
0.00418833
0.00389578
0.00368259
0.00353751
0.00343271
0.00334634
0.00327196
0.00321305
0.00317835
0.00317824
0.00319524
0.00303657
0.00273785
0.00247109
0.00235223
0.00250487
0.00297334
0.00369412
0.00150741
0.00305111
0.00363756
0.00409004
0.0042897
0.00439761
0.00442057
0.00452222
0.00479753
0.00524823
0.00580748
0.00635726
0.0067657
0.00692366
0.00675963
0.00627134
0.00560863
0.00509021
0.00476237
0.00446348
0.00405981
0.00363587
0.00329795
0.00307201
0.00293159
0.00284092
0.00277325
0.0027135
0.00265469
0.00259298
0.00252511
0.00244832
0.00236222
0.00228889
0.00223601
0.00222592
0.00225003
0.0022451
0.00215375
0.00200933
0.00140673
0.00174317
0.00333324
0.00438018
0.00513297
0.00584108
0.00647003
0.00699887
0.00737515
0.00753284
0.00741566
0.00701684
0.00633994
0.00545328
0.00464408
0.00412989
0.0037267
0.00328325
0.00285808
0.00255019
0.00236369
0.00225967
0.00220235
0.00216934
0.00214849
0.00213385
0.002123
0.00211568
0.00211348
0.00211996
0.00214468
0.0021756
0.0022112
0.00224553
0.00225345
0.0021936
0.00205304
0.00184333
0.00115318
0.00208753
0.00451172
0.00601903
0.00660761
0.0071322
0.00752357
0.00758365
0.00744548
0.00701478
0.00622911
0.00526233
0.00431365
0.00354466
0.002984
0.00255039
0.0021577
0.00186041
0.00168633
0.00159204
0.00155149
0.00154491
0.00155972
0.00158979
0.00163232
0.00168593
0.00174952
0.00182124
0.00189733
0.00197927
0.00207113
0.00217096
0.00227312
0.0023635
0.00242681
0.00241378
0.00243588
0.00237466
0.0011709
0.00181724
0.00192203
0.00199881
0.00211221
0.00199534
0.00186035
0.00173583
0.00161388
0.0015053
0.0013822
0.00123889
0.00107893
0.000910945
0.000756645
0.000635189
0.000554798
0.000510851
0.000492826
0.00049117
0.00049935
0.000513685
0.000531736
0.000552547
0.000575875
0.00060167
0.000630003
0.000661061
0.000695205
0.000733085
0.000775882
0.000824288
0.000877471
0.000936055
0.0010007
0.00107147
0.00115868
0.00118426
0.00115424
0.00108107
0.0010019
)
;

boundaryField
{
    floor
    {
        type            nutkWallFunction;
        Cmu             0.09;
        kappa           0.41;
        E               9.8;
        value           nonuniform List<scalar> 
29
(
0.000140692
5.14965e-05
6.40459e-05
7.02175e-05
6.82184e-05
6.51295e-05
6.16691e-05
5.78305e-05
5.41156e-05
5.07094e-05
4.76293e-05
4.485e-05
4.23575e-05
4.00977e-05
3.80186e-05
3.60592e-05
3.41264e-05
3.20767e-05
3.11806e-05
2.82441e-05
2.8244e-05
4.22247e-05
5.09787e-05
5.74317e-05
0.000140692
5.14965e-05
6.05916e-05
0.000119203
0.000156396
)
;
    }
    ceiling
    {
        type            nutkWallFunction;
        Cmu             0.09;
        kappa           0.41;
        E               9.8;
        value           nonuniform List<scalar> 
43
(
0.000213278
0.000224763
0.000233137
0.000245529
0.000232872
0.000218126
0.000204416
0.00019088
0.00017873
0.000164834
0.00014848
0.00012997
0.000110189
9.1643e-05
7.67295e-05
6.66708e-05
6.10976e-05
5.87945e-05
5.85822e-05
5.96288e-05
6.14578e-05
6.37523e-05
6.63856e-05
6.93232e-05
7.25546e-05
7.60845e-05
7.99322e-05
8.41372e-05
8.87737e-05
9.39778e-05
9.98236e-05
0.0001062
0.000113172
0.000120808
0.000129103
0.000139238
0.000142194
0.000138724
0.000130222
0.00012095
0.00034546
0.000406055
0.000242666
)
;
    }
    sWall
    {
        type            nutkWallFunction;
        Cmu             0.09;
        kappa           0.41;
        E               9.8;
        value           uniform 0.000213337;
    }
    nWall
    {
        type            nutkWallFunction;
        Cmu             0.09;
        kappa           0.41;
        E               9.8;
        value           nonuniform List<scalar> 6(9.81831e-05 0.000102509 0.000116485 0.000138611 0.000140661 0.000120956);
    }
    sideWalls
    {
        type            empty;
    }
    glass1
    {
        type            nutkWallFunction;
        Cmu             0.09;
        kappa           0.41;
        E               9.8;
        value           nonuniform List<scalar> 9(0.000122295 0.000167828 0.000205112 0.000240576 0.000276114 0.000312982 0.000346969 0.000354072 0.000345887);
    }
    glass2
    {
        type            nutkWallFunction;
        Cmu             0.09;
        kappa           0.41;
        E               9.8;
        value           nonuniform List<scalar> 2(0.000179052 0.000167688);
    }
    sun
    {
        type            nutkWallFunction;
        Cmu             0.09;
        kappa           0.41;
        E               9.8;
        value           nonuniform List<scalar> 
14
(
0.000122215
0.000132137
0.000133551
0.000139322
0.000144579
0.000149381
0.00015394
0.000158517
0.00016228
0.000164426
0.000164375
0.000161665
0.000156222
0.000148771
)
;
    }
    heatsource1
    {
        type            nutkWallFunction;
        Cmu             0.09;
        kappa           0.41;
        E               9.8;
        value           nonuniform List<scalar> 3(7.26587e-05 8.76154e-05 9.8182e-05);
    }
    heatsource2
    {
        type            nutkWallFunction;
        Cmu             0.09;
        kappa           0.41;
        E               9.8;
        value           nonuniform List<scalar> 4(0.000142039 9.51246e-05 9.51246e-05 0.000137853);
    }
    Table_master
    {
        type            nutkWallFunction;
        Cmu             0.09;
        kappa           0.41;
        E               9.8;
        value           nonuniform List<scalar> 9(8.27528e-05 7.37635e-05 6.6416e-05 6.03801e-05 5.53767e-05 5.11894e-05 4.76594e-05 4.46843e-05 4.2225e-05);
    }
    Table_slave
    {
        type            nutkWallFunction;
        Cmu             0.09;
        kappa           0.41;
        E               9.8;
        value           nonuniform List<scalar> 9(9.26799e-05 8.57244e-05 8.10685e-05 7.7715e-05 7.48383e-05 7.17695e-05 6.87604e-05 6.54644e-05 6.1427e-05);
    }
    inlet
    {
        type            calculated;
        value           uniform 0.000100623;
    }
    outlet
    {
        type            calculated;
        value           nonuniform List<scalar> 2(0.00181724 0.00192203);
    }
}


// ************************************************************************* //
