/*--------------------------------*- C++ -*----------------------------------*\
  =========                 |
  \\      /  F ield         | OpenFOAM: The Open Source CFD Toolbox
   \\    /   O peration     | Website:  https://openfoam.org
    \\  /    A nd           | Version:  6
     \\/     M anipulation  |
\*---------------------------------------------------------------------------*/
FoamFile
{
    version     2.0;
    format      ascii;
    class       volScalarField;
    location    "720";
    object      epsilon;
}
// * * * * * * * * * * * * * * * * * * * * * * * * * * * * * * * * * * * * * //

dimensions      [0 2 -3 0 0 0 0];

internalField   nonuniform List<scalar> 
459
(
0.000244695
0.00031252
0.000326498
0.000374702
0.000422993
0.000471321
0.00052136
0.000576122
0.00062654
0.000662458
0.000674375
0.000653698
0.000595314
0.000500679
0.000388347
7.37294e-05
0.000176081
0.000152634
0.000129484
0.000111123
9.52886e-05
7.96271e-05
6.61273e-05
5.52168e-05
4.65418e-05
3.96164e-05
3.40034e-05
2.93771e-05
2.54772e-05
2.20793e-05
1.89588e-05
1.60463e-05
1.23673e-05
1.40701e-05
0.00064562
0.000982108
0.000290759
0.000278095
0.000287108
0.000302751
0.000326816
0.000362844
0.000405711
0.000444938
0.000468581
0.000467103
0.00043688
0.000384523
0.000340012
0.000439566
0.000114502
0.000180266
0.000355778
0.000189648
0.000132622
0.000102151
8.31844e-05
7.49701e-05
6.188e-05
5.03071e-05
4.0926e-05
3.35247e-05
2.76946e-05
2.30866e-05
1.94805e-05
1.69809e-05
1.59805e-05
2.00413e-05
2.0982e-05
2.87771e-05
0.00121426
0.00251177
0.000365096
0.000259787
0.000262979
0.000284421
0.000319133
0.000368543
0.000427552
0.000481469
0.000517177
0.00052757
0.000510246
0.000469897
0.000418017
0.000378471
0.000410757
0.000366126
0.000255787
0.000180168
0.000136464
0.000108488
9.51067e-05
0.000193065
0.000133116
9.56548e-05
7.14497e-05
5.52585e-05
4.40704e-05
3.61433e-05
3.04867e-05
2.6629e-05
2.11326e-05
2.23396e-05
2.84979e-05
3.78628e-05
0.00201927
0.00529383
0.000587597
0.000257284
0.000246665
0.000273542
0.00031941
0.000388117
0.000468562
0.000533226
0.000572897
0.000587044
0.000573794
0.00053595
0.000476053
0.000413988
0.000374084
0.00076854
0.00044521
0.00027943
0.000195102
0.000146458
0.000117049
0.000106638
0.000258787
0.000199735
0.000167305
0.000147681
0.000133875
0.000121692
0.000108407
9.57555e-05
8.19578e-05
4.99071e-05
3.57114e-05
4.91852e-05
5.39531e-05
0.0031449
0.0095023
0.00116027
0.000290597
0.000234653
0.000261894
0.000325752
0.000442212
0.000556211
0.000624906
0.000659073
0.000668159
0.000647864
0.000595985
0.000517609
0.000428791
0.000346702
0.00030766
0.000259003
0.000213657
0.000175542
0.000145733
0.000124214
0.000111145
0.000113086
0.000109952
0.00010642
0.000102512
9.75959e-05
9.0982e-05
8.23056e-05
7.29499e-05
6.40076e-05
5.2666e-05
4.20501e-05
5.4206e-05
5.80345e-05
7.95545e-05
7.58855e-05
6.69514e-05
0.00471697
0.0141608
0.00260861
0.00050391
0.000290969
0.000290881
0.000373624
0.00060161
0.000732196
0.000782718
0.000797644
0.000792442
0.000761128
0.000693007
0.00058905
0.000470486
0.000365735
0.000295261
0.000248908
0.00021329
0.000184338
0.0001618
0.000145921
0.000136651
0.000134461
0.000135234
0.000135525
0.000133368
0.000128111
0.000119699
0.00010823
9.34254e-05
7.8679e-05
6.54285e-05
5.3981e-05
5.40357e-05
6.08316e-05
6.77188e-05
0.000172847
0.000129776
0.00668175
0.0170363
0.00579623
0.0016981
0.000895131
0.00070049
0.000843594
0.00100381
0.00104653
0.00103412
0.00100858
0.000980097
0.00093202
0.00084202
0.00070764
0.000556394
0.000425189
0.000336639
0.00028255
0.000246522
0.000221028
0.000204023
0.000194651
0.00019181
0.000193953
0.00019739
0.000197814
0.000192968
0.000182944
0.00016964
0.000155309
0.000140422
0.000121925
0.000106176
9.50163e-05
8.95241e-05
9.13309e-05
9.92066e-05
0.000273333
0.000212777
0.00726268
0.0210741
0.0107609
0.0063408
0.00389815
0.00266746
0.00215444
0.00181359
0.00157063
0.00140762
0.00131083
0.00125085
0.00118087
0.00105966
0.000881976
0.000688078
0.000524454
0.000419312
0.000359509
0.000325861
0.000307929
0.000300093
0.000299662
0.000304077
0.000310231
0.000313758
0.000309816
0.000295555
0.000272165
0.000245838
0.00022544
0.000216619
0.000217644
0.000222165
0.000244754
0.000282193
0.000345516
0.000426121
0.00160426
0.000426768
0.00681417
0.0119177
0.00983789
0.00727626
0.00533522
0.00400843
0.00309487
0.00246334
0.00205055
0.00181341
0.00170043
0.00164063
0.00155326
0.00138339
0.00113809
0.000893086
0.000702824
0.000604379
0.000557966
0.000536299
0.000529105
0.000531309
0.000539624
0.000550799
0.000560434
0.0005621
0.000547991
0.000511955
0.000454211
0.000385945
0.000327854
0.000297001
0.000298897
0.000329669
0.000389191
0.000483915
0.000616943
0.000785926
0.000970251
0.000524502
0.00464829
0.00617519
0.00478693
0.00378268
0.00308892
0.002644
0.00241639
0.00234839
0.00236128
0.00235912
0.00224687
0.00198952
0.00164744
0.00139288
0.00125463
0.00119648
0.0011767
0.00116935
0.00116965
0.00117642
0.00118864
0.00120455
0.00121929
0.0012227
0.00119868
0.00112853
0.000999947
0.00082164
0.000636321
0.000498985
0.000417409
0.000386776
0.000408835
0.000481526
0.000595922
0.000729261
0.000884014
0.000880644
0.00299138
0.00434926
0.00373774
0.00339771
0.00346992
0.00374199
0.00396136
0.00422752
0.00448629
0.0046371
0.00455127
0.00422233
0.00382102
0.00349138
0.00328336
0.00318723
0.00314411
0.00311128
0.00308811
0.00307784
0.00308432
0.00311172
0.00315926
0.0032137
0.00324279
0.00319564
0.00301916
0.00269438
0.00227585
0.00183391
0.00143024
0.00110832
0.000888828
0.000769894
0.000726491
0.000739129
0.00185463
0.00128476
0.00121998
0.00158412
0.00204275
0.00221151
0.00178497
0.00164626
0.00157227
0.00159205
0.00175708
0.00195072
0.00213648
0.0022687
0.0023068
0.00224262
0.00212683
0.00201952
0.00194421
0.00188729
0.00184255
0.0018116
0.00178894
0.00177314
0.00176362
0.00175755
0.00174817
0.00172422
0.00167211
0.00158214
0.00145747
0.0013207
0.00118645
0.00106386
0.000960212
0.000878773
0.000821396
0.000785948
0.000762272
0.000734811
0.000806361
0.000738591
)
;

boundaryField
{
    floor
    {
        Cmu             0.09;
        kappa           0.41;
        E               9.8;
        type            epsilonWallFunction;
        value           nonuniform List<scalar> 
29
(
0.000388347
7.37294e-05
0.000176081
0.000152634
0.000129484
0.000111123
9.52886e-05
7.96271e-05
6.61273e-05
5.52168e-05
4.65418e-05
3.96164e-05
3.40034e-05
2.93771e-05
2.54772e-05
2.20793e-05
1.89588e-05
1.60463e-05
1.23673e-05
1.40701e-05
1.40701e-05
2.87771e-05
3.78628e-05
5.39531e-05
0.000388347
7.37294e-05
0.000180266
0.000366126
0.00076854
)
;
    }
    ceiling
    {
        Cmu             0.09;
        kappa           0.41;
        E               9.8;
        type            epsilonWallFunction;
        value           nonuniform List<scalar> 
43
(
0.00121998
0.00158412
0.00204275
0.00221151
0.00178497
0.00164626
0.00157227
0.00159205
0.00175708
0.00195072
0.00213648
0.0022687
0.0023068
0.00224262
0.00212683
0.00201952
0.00194421
0.00188729
0.00184255
0.0018116
0.00178894
0.00177314
0.00176362
0.00175755
0.00174817
0.00172422
0.00167211
0.00158214
0.00145747
0.0013207
0.00118645
0.00106386
0.000960212
0.000878773
0.000821396
0.000785948
0.000762272
0.000734811
0.000806361
0.000738591
0.00681417
0.0119177
0.00299138
)
;
    }
    sWall
    {
        Cmu             0.09;
        kappa           0.41;
        E               9.8;
        type            epsilonWallFunction;
        value           uniform 0.00121998;
    }
    nWall
    {
        Cmu             0.09;
        kappa           0.41;
        E               9.8;
        type            epsilonWallFunction;
        value           nonuniform List<scalar> 6(6.69514e-05 0.000129776 0.000212777 0.000880644 0.00128476 0.000738591);
    }
    sideWalls
    {
        type            empty;
    }
    glass1
    {
        Cmu             0.09;
        kappa           0.41;
        E               9.8;
        type            epsilonWallFunction;
        value           nonuniform List<scalar> 9(0.000244695 0.00064562 0.00121426 0.00201927 0.0031449 0.00471697 0.00668175 0.00726268 0.00681417);
    }
    glass2
    {
        Cmu             0.09;
        kappa           0.41;
        E               9.8;
        type            epsilonWallFunction;
        value           nonuniform List<scalar> 2(0.000426768 0.000524502);
    }
    sun
    {
        Cmu             0.09;
        kappa           0.41;
        E               9.8;
        type            epsilonWallFunction;
        value           nonuniform List<scalar> 
14
(
0.000244695
0.00031252
0.000326498
0.000374702
0.000422993
0.000471321
0.00052136
0.000576122
0.00062654
0.000662458
0.000674375
0.000653698
0.000595314
0.000500679
)
;
    }
    heatsource1
    {
        Cmu             0.09;
        kappa           0.41;
        E               9.8;
        type            epsilonWallFunction;
        value           nonuniform List<scalar> 3(7.95545e-05 7.58855e-05 6.69514e-05);
    }
    heatsource2
    {
        Cmu             0.09;
        kappa           0.41;
        E               9.8;
        type            epsilonWallFunction;
        value           nonuniform List<scalar> 4(0.000439566 0.000114502 0.000114502 0.000410757);
    }
    Table_master
    {
        Cmu             0.09;
        kappa           0.41;
        E               9.8;
        type            epsilonWallFunction;
        value           nonuniform List<scalar> 9(0.000193065 0.000133116 9.56548e-05 7.14497e-05 5.52585e-05 4.40704e-05 3.61433e-05 3.04867e-05 2.6629e-05);
    }
    Table_slave
    {
        Cmu             0.09;
        kappa           0.41;
        E               9.8;
        type            epsilonWallFunction;
        value           nonuniform List<scalar> 9(0.000258787 0.000199735 0.000167305 0.000147681 0.000133875 0.000121692 0.000108407 9.57555e-05 8.19578e-05);
    }
    inlet
    {
        type            turbulentMixingLengthDissipationRateInlet;
        mixingLength    0.01;
        phi             phi;
        k               k;
        value           uniform 3.01869e-05;
    }
    outlet
    {
        type            zeroGradient;
    }
}


// ************************************************************************* //
