/*--------------------------------*- C++ -*----------------------------------*\
  =========                 |
  \\      /  F ield         | OpenFOAM: The Open Source CFD Toolbox
   \\    /   O peration     | Website:  https://openfoam.org
    \\  /    A nd           | Version:  6
     \\/     M anipulation  |
\*---------------------------------------------------------------------------*/
FoamFile
{
    version     2.0;
    format      ascii;
    class       volVectorField;
    location    "170";
    object      U;
}
// * * * * * * * * * * * * * * * * * * * * * * * * * * * * * * * * * * * * * //

dimensions      [0 1 -1 0 0 0 0];

internalField   nonuniform List<vector> 
459
(
(-0.12581 -0.129156 0)
(0.173762 -0.0585084 0)
(0.213157 -0.0405284 0)
(0.216674 -0.028787 0)
(0.225416 -0.0180995 0)
(0.230121 -0.0106956 0)
(0.226963 -0.0057313 0)
(0.218981 -0.00211453 0)
(0.208514 0.000806817 0)
(0.196165 0.0034115 0)
(0.181593 0.00610496 0)
(0.163837 0.00950673 0)
(0.140884 0.0149014 0)
(0.106024 0.0266488 0)
(0.10003 0.0583047 0)
(-0.125836 -0.00263308 0)
(0.0437408 -0.0059371 0)
(0.0324848 -0.0103164 0)
(0.0384173 -0.00956466 0)
(0.0489126 -0.00631484 0)
(0.0554515 -0.00343311 0)
(0.057688 -0.00215103 0)
(0.058126 -0.00161525 0)
(0.0583539 -0.0012652 0)
(0.0585762 -0.00102352 0)
(0.0586397 -0.000872427 0)
(0.0584558 -0.000724198 0)
(0.0578801 -0.000437853 0)
(0.0565017 0.000222151 0)
(0.0534723 0.00173941 0)
(0.0472157 0.00493028 0)
(0.043565 0.00888972 0)
(-0.0469417 0.0193201 0)
(0.173719 -0.0096397 0)
(-0.312744 -0.172703 0)
(0.180964 -0.0603163 0)
(0.151976 -0.0487484 0)
(0.152719 -0.026993 0)
(0.163129 -0.00697048 0)
(0.167114 0.0052583 0)
(0.164078 0.0117955 0)
(0.157782 0.0156721 0)
(0.150087 0.0184142 0)
(0.141387 0.0208734 0)
(0.131606 0.0238599 0)
(0.120595 0.0283496 0)
(0.108637 0.0357239 0)
(0.0951724 0.0484435 0)
(0.0980129 0.0735856 0)
(0.0881661 0.0652287 0)
(0.0532134 0.0548361 0)
(-0.173046 -0.0052595 0)
(0.0486579 -0.0267478 0)
(0.0359117 -0.0251624 0)
(0.0428532 -0.0187604 0)
(0.0512074 -0.0100478 0)
(0.0547483 -0.00267838 0)
(0.0549202 -0.000847698 0)
(0.054708 -0.000221678 0)
(0.054938 0.000341268 0)
(0.0552542 0.000831103 0)
(0.0554777 0.00123414 0)
(0.0556181 0.00170449 0)
(0.0556601 0.00250988 0)
(0.0554837 0.0041165 0)
(0.05446 0.00758975 0)
(0.0494488 0.0162518 0)
(0.0465234 0.0230466 0)
(-0.0353495 0.0306504 0)
(0.219122 0.0147855 0)
(-0.447948 -0.220925 0)
(0.205655 -0.110431 0)
(0.0879403 -0.0850932 0)
(0.0912185 -0.0430269 0)
(0.100803 -0.014609 0)
(0.101158 0.00132079 0)
(0.0976081 0.0107125 0)
(0.0935113 0.0168297 0)
(0.089449 0.0212755 0)
(0.0853202 0.0251359 0)
(0.0811258 0.0294309 0)
(0.0770429 0.0351846 0)
(0.0735741 0.0434196 0)
(0.0699125 0.0549163 0)
(0.0720861 0.0711657 0)
(0.0645299 0.067001 0)
(0.0482166 0.0795404 0)
(-0.132344 -0.0178606 0)
(0.0469573 -0.044811 0)
(0.0504833 -0.0410674 0)
(0.0536416 -0.0284004 0)
(0.057386 -0.0140311 0)
(0.0563697 -0.00135513 0)
(0.0506124 -0.00325255 0)
(0.0486255 -0.00329195 0)
(0.0482699 -0.00331206 0)
(0.0480699 -0.0033296 0)
(0.0478786 -0.0033807 0)
(0.0478924 -0.00335855 0)
(0.0484179 -0.00303309 0)
(0.0502502 -0.0019411 0)
(0.0553124 0.00198298 0)
(0.0527864 0.0209397 0)
(0.049428 0.0318779 0)
(-0.0279092 0.0390397 0)
(0.246449 0.0385176 0)
(-0.553714 -0.243749 0)
(0.227476 -0.146805 0)
(0.0147194 -0.100004 0)
(0.0311177 -0.0392565 0)
(0.0367519 -0.00875464 0)
(0.0335628 0.00595747 0)
(0.0317974 0.0143822 0)
(0.0314533 0.0198893 0)
(0.0317391 0.0238713 0)
(0.0323516 0.0273563 0)
(0.0334133 0.0312524 0)
(0.0352368 0.0363903 0)
(0.0382882 0.0434642 0)
(0.0420752 0.0529045 0)
(0.0509056 0.0660343 0)
(0.0611949 0.0719608 0)
(0.0743098 0.0851185 0)
(0.100741 -0.0638976 0)
(0.0932172 -0.0478883 0)
(0.0872942 -0.0506777 0)
(0.0749476 -0.0439767 0)
(0.0672979 -0.0301457 0)
(0.0652607 -0.0149208 0)
(0.0673669 -0.000240846 0)
(0.0708368 0.00121011 0)
(0.0691268 0.000524005 0)
(0.0651974 0.000424333 0)
(0.0604628 0.000669408 0)
(0.0549001 0.00109983 0)
(0.048188 0.0017212 0)
(0.0400238 0.0026397 0)
(0.0299545 0.0040967 0)
(0.00690917 0.00688219 0)
(0.0201071 0.0310716 0)
(0.035284 0.0372579 0)
(-0.0273796 0.0403792 0)
(0.263168 0.0713721 0)
(-0.612968 -0.243535 0)
(0.211763 -0.161839 0)
(-0.0577665 -0.098908 0)
(-0.0164272 -0.0282977 0)
(-0.018841 -0.0035101 0)
(-0.0219881 0.00729738 0)
(-0.0215389 0.0138786 0)
(-0.0195552 0.0184647 0)
(-0.0166366 0.0218847 0)
(-0.01294 0.0247797 0)
(-0.00829187 0.0277851 0)
(-0.00229246 0.0315994 0)
(0.00592825 0.0370672 0)
(0.01588 0.0444086 0)
(0.0310524 0.0542189 0)
(0.0494736 0.0589617 0)
(0.072433 0.0574488 0)
(0.091912 0.00894131 0)
(0.0904044 -0.0148114 0)
(0.0778693 -0.0289213 0)
(0.0653687 -0.0293289 0)
(0.0559946 -0.0211682 0)
(0.0503867 -0.0105862 0)
(0.0479747 -0.00136217 0)
(0.0455728 0.00257468 0)
(0.0422983 0.0046574 0)
(0.0381203 0.00639385 0)
(0.0335354 0.00799018 0)
(0.0285549 0.00956628 0)
(0.0229915 0.0113364 0)
(0.0167605 0.0135219 0)
(0.0105999 0.0161939 0)
(-0.000208142 0.0176974 0)
(0.00442365 0.0200882 0)
(0.0266129 0.0252766 0)
(-0.00476309 0.0220355 0)
(0.127654 0.0644593 0)
(0.088774 0.0633415 0)
(-0.100515 0.0624227 0)
(0.347618 -0.0206637 0)
(-0.651706 -0.223231 0)
(0.171947 -0.157917 0)
(-0.0883053 -0.0966142 0)
(-0.0479139 -0.0251593 0)
(-0.0547884 -0.00187184 0)
(-0.0584431 0.00724353 0)
(-0.0586209 0.0120276 0)
(-0.0566508 0.0152305 0)
(-0.053029 0.0175402 0)
(-0.0479538 0.0192975 0)
(-0.0413766 0.0208922 0)
(-0.0330517 0.0228087 0)
(-0.0224999 0.0256063 0)
(-0.00974396 0.02959 0)
(0.00901905 0.0349833 0)
(0.0290037 0.0349524 0)
(0.0513993 0.0262172 0)
(0.0630246 1.83476e-06 0)
(0.0616472 -0.0178178 0)
(0.0524594 -0.0238027 0)
(0.0416504 -0.0211674 0)
(0.0322453 -0.0138847 0)
(0.0254638 -0.0054262 0)
(0.0209208 0.00191389 0)
(0.0183247 0.00618561 0)
(0.0158073 0.00837591 0)
(0.0128999 0.0100427 0)
(0.00969199 0.0117379 0)
(0.00621376 0.0136514 0)
(0.00251359 0.0159404 0)
(-0.00114692 0.0186501 0)
(-0.00331548 0.020751 0)
(-0.00568573 0.0188335 0)
(-0.00245396 0.00992466 0)
(0.00811297 0.00554619 0)
(-0.00957895 -0.00847142 0)
(0.0356661 0.0305053 0)
(0.0367152 0.0602371 0)
(-0.136833 0.0746912 0)
(0.349852 -0.0428631 0)
(-0.692311 -0.182886 0)
(0.132132 -0.141258 0)
(-0.110733 -0.099102 0)
(-0.0679149 -0.0198537 0)
(-0.0770921 0.00209495 0)
(-0.0805156 0.0087212 0)
(-0.0815732 0.0111155 0)
(-0.0803153 0.012212 0)
(-0.0769765 0.0126658 0)
(-0.0717142 0.0126336 0)
(-0.0645608 0.0123405 0)
(-0.055456 0.0121324 0)
(-0.0442963 0.0123582 0)
(-0.031093 0.0131349 0)
(-0.0150231 0.0144395 0)
(0.00337997 0.0134457 0)
(0.0203466 0.00762843 0)
(0.0270255 -0.00419551 0)
(0.0263862 -0.0125301 0)
(0.0198054 -0.0146478 0)
(0.0113543 -0.0117703 0)
(0.00378786 -0.00622253 0)
(-0.00185785 1.67575e-05 0)
(-0.00478892 0.00495605 0)
(-0.00608038 0.00813499 0)
(-0.00721291 0.0102688 0)
(-0.00855456 0.0121435 0)
(-0.0100905 0.0140765 0)
(-0.0116715 0.0161301 0)
(-0.0129867 0.0182095 0)
(-0.0134493 0.0198695 0)
(-0.012237 0.0198702 0)
(-0.0101888 0.015709 0)
(-0.00731816 0.00720187 0)
(-0.00543466 0.002164 0)
(-0.0127101 0.000460272 0)
(0.00194197 0.0279657 0)
(0.0111301 0.0763485 0)
(-0.181864 0.0871218 0)
(0.440961 -0.0510284 0)
(-0.7333 -0.107407 0)
(0.0824012 -0.106294 0)
(-0.143556 -0.122035 0)
(-0.0808096 -0.0280467 0)
(-0.0890802 0.00396152 0)
(-0.0900161 0.0109642 0)
(-0.0911024 0.011391 0)
(-0.0904045 0.0102947 0)
(-0.0877144 0.00868769 0)
(-0.083098 0.00669379 0)
(-0.0766067 0.00450121 0)
(-0.0683657 0.0024098 0)
(-0.0586169 0.00081099 0)
(-0.047655 -2.52696e-05 0)
(-0.0356476 -4.47816e-05 0)
(-0.0233055 -4.33371e-05 0)
(-0.0127122 -0.00116456 0)
(-0.00746697 -0.00471917 0)
(-0.00747134 -0.00759411 0)
(-0.0115201 -0.00729943 0)
(-0.0167573 -0.00440485 0)
(-0.0212769 -0.000479532 0)
(-0.0241461 0.00335711 0)
(-0.0251004 0.00647375 0)
(-0.0252286 0.00900771 0)
(-0.0251176 0.0112061 0)
(-0.0249695 0.0132601 0)
(-0.0247456 0.015228 0)
(-0.0242606 0.0170315 0)
(-0.0231976 0.0184184 0)
(-0.0211289 0.018848 0)
(-0.0177665 0.0173949 0)
(-0.0137577 0.0130073 0)
(-0.00996677 0.00664751 0)
(-0.00697275 0.00221245 0)
(-0.00470933 0.00187734 0)
(0.0107315 0.0226596 0)
(0.0411821 0.0710043 0)
(-0.138757 0.0673317 0)
(0.746336 -0.00234111 0)
(-0.787112 0.0556085 0)
(0.00271061 -0.071542 0)
(-0.205768 -0.164169 0)
(-0.0664322 -0.0495464 0)
(-0.0818095 0.00746506 0)
(-0.0833748 0.0170192 0)
(-0.0838954 0.0154484 0)
(-0.0827158 0.0123664 0)
(-0.0802416 0.00904465 0)
(-0.0764391 0.0054691 0)
(-0.0712585 0.00177222 0)
(-0.0654006 -0.00152328 0)
(-0.0590946 -0.00398821 0)
(-0.0525873 -0.00526764 0)
(-0.0460852 -0.00522134 0)
(-0.0398783 -0.00421674 0)
(-0.0347199 -0.00303436 0)
(-0.0319191 -0.00251678 0)
(-0.031854 -0.00190055 0)
(-0.0336269 -0.000194124 0)
(-0.0359403 0.00245366 0)
(-0.0378297 0.00519136 0)
(-0.0385376 0.00764096 0)
(-0.0383549 0.00984027 0)
(-0.0375956 0.0119207 0)
(-0.0364582 0.0139087 0)
(-0.0350171 0.0157686 0)
(-0.0332492 0.0174128 0)
(-0.0310655 0.0186761 0)
(-0.0283337 0.0192708 0)
(-0.0249271 0.0187427 0)
(-0.0208891 0.016508 0)
(-0.0167042 0.0121654 0)
(-0.0128944 0.00637448 0)
(-0.0093737 0.000818336 0)
(-0.00414549 -0.00160403 0)
(0.0132785 0.00997812 0)
(0.0449827 0.041194 0)
(-0.0991251 0.0339443 0)
(0.737077 0.0423449 0)
(-0.256262 -0.107084 0)
(-0.0144676 -0.0318352 0)
(-0.0469278 0.0182629 0)
(-0.0620761 0.0202207 0)
(-0.0604667 0.0139615 0)
(-0.0565175 0.00772377 0)
(-0.0530374 0.00174734 0)
(-0.0498328 -0.00484044 0)
(-0.0475236 -0.0106342 0)
(-0.0458347 -0.0152545 0)
(-0.0446527 -0.018445 0)
(-0.0437783 -0.01975 0)
(-0.043046 -0.0188873 0)
(-0.0423589 -0.0160676 0)
(-0.0419331 -0.0121161 0)
(-0.0421847 -0.00807046 0)
(-0.0431638 -0.00416739 0)
(-0.0443401 -0.000226507 0)
(-0.0452519 0.00366167 0)
(-0.045677 0.00612261 0)
(-0.0454899 0.00804002 0)
(-0.0447362 0.00968004 0)
(-0.0434559 0.0111265 0)
(-0.0416702 0.012369 0)
(-0.0393891 0.0133449 0)
(-0.0366213 0.0139559 0)
(-0.0333885 0.014057 0)
(-0.029749 0.0134299 0)
(-0.0258427 0.0117621 0)
(-0.0219785 0.00868229 0)
(-0.0187347 0.00390712 0)
(-0.0168684 -0.00263316 0)
(-0.0168507 -0.00977072 0)
(-0.0169163 -0.0137003 0)
(-0.0122806 -0.00577597 0)
(-0.0098533 0.0156553 0)
(-0.149499 0.0151317 0)
(0.435552 0.0740025 0)
(-0.258433 -0.189209 0)
(-0.0358729 -0.141779 0)
(-0.0443885 -0.116459 0)
(-0.0391136 -0.109458 0)
(-0.0285905 -0.109992 0)
(-0.02077 -0.109178 0)
(-0.0160895 -0.107694 0)
(-0.0141033 -0.105834 0)
(-0.0144902 -0.104036 0)
(-0.0167892 -0.102439 0)
(-0.0203423 -0.10087 0)
(-0.0242679 -0.0991704 0)
(-0.0280525 -0.0979447 0)
(-0.031531 -0.0981625 0)
(-0.0348967 -0.0990097 0)
(-0.0382042 -0.0999872 0)
(-0.0413524 -0.101247 0)
(-0.0440472 -0.102354 0)
(-0.0457748 -0.101594 0)
(-0.0465459 -0.100139 0)
(-0.0466796 -0.0989276 0)
(-0.0462579 -0.0978262 0)
(-0.045274 -0.0966609 0)
(-0.0437032 -0.0953644 0)
(-0.0415338 -0.0939514 0)
(-0.0387814 -0.0925054 0)
(-0.035505 -0.0912027 0)
(-0.0318384 -0.0903539 0)
(-0.0280506 -0.0904225 0)
(-0.0246443 -0.0919213 0)
(-0.0224141 -0.0949867 0)
(-0.0222465 -0.098283 0)
(-0.0248541 -0.0984227 0)
(-0.0288868 -0.0996073 0)
(-0.0330071 -0.0970617 0)
(-0.0509426 -0.0781643 0)
(-0.121228 -0.0627072 0)
(0.348986 -0.0345224 0)
(-0.988993 -0.06772 0)
(0.257138 0.191634 0)
(0.0666642 0.620335 0)
(0.0539459 0.518693 0)
(0.0693808 0.446474 0)
(0.0745735 0.419591 0)
(0.0716138 0.410957 0)
(0.0656288 0.403458 0)
(0.0592461 0.396294 0)
(0.0521919 0.389559 0)
(0.0440593 0.383546 0)
(0.0346734 0.378372 0)
(0.0240572 0.374002 0)
(0.0126256 0.370517 0)
(-0.000157436 0.367454 0)
(-0.0117278 0.366141 0)
(-0.0211262 0.365996 0)
(-0.0287758 0.366836 0)
(-0.0346961 0.368876 0)
(-0.0391205 0.371593 0)
(-0.0421588 0.371811 0)
(-0.043897 0.371585 0)
(-0.0445833 0.371954 0)
(-0.044389 0.37259 0)
(-0.0434088 0.373263 0)
(-0.0417261 0.373842 0)
(-0.0394377 0.374226 0)
(-0.0366809 0.374321 0)
(-0.033659 0.374054 0)
(-0.0306606 0.373421 0)
(-0.0280778 0.372549 0)
(-0.0264837 0.371737 0)
(-0.0267812 0.371259 0)
(-0.0296625 0.369929 0)
(-0.0331477 0.362735 0)
(-0.0339889 0.358881 0)
(-0.0391535 0.357518 0)
(-0.0785443 0.345958 0)
(-0.16202 0.350489 0)
(0.47271 0.398 0)
)
;

boundaryField
{
    floor
    {
        type            noSlip;
    }
    ceiling
    {
        type            noSlip;
    }
    sWall
    {
        type            noSlip;
    }
    nWall
    {
        type            noSlip;
    }
    sideWalls
    {
        type            empty;
    }
    glass1
    {
        type            noSlip;
    }
    glass2
    {
        type            noSlip;
    }
    sun
    {
        type            noSlip;
    }
    heatsource1
    {
        type            noSlip;
    }
    heatsource2
    {
        type            noSlip;
    }
    Table_master
    {
        type            noSlip;
    }
    Table_slave
    {
        type            noSlip;
    }
    inlet
    {
        type            fixedValue;
        value           uniform (0.2 0 0);
    }
    outlet
    {
        type            zeroGradient;
    }
}


// ************************************************************************* //
