// -*- C++ -*-
// File generated by PyFoam - sorry for the ugliness

FoamFile
{
 version 2.0;
 format ascii;
 class volScalarField;
 location "520";
 object T;
}

dimensions [ 0 0 0 1 0 0 0 ];

internalField nonuniform List<scalar> 459
(
  300.552
  300.565
  300.57
  300.604
  300.64
  300.665
  300.681
  300.691
  300.696
  300.701
  300.705
  300.709
  300.712
  300.714
  300.709
  300.957
  300.975
  300.978
  300.99
  301.002
  301.013
  301.022
  301.03
  301.038
  301.045
  301.052
  301.06
  301.067
  301.074
  301.081
  301.089
  301.098
  301.11
  301.131
  300.573
  300.573
  300.564
  300.612
  300.687
  300.743
  300.776
  300.793
  300.801
  300.804
  300.803
  300.797
  300.787
  300.772
  300.748
  300.754
  300.764
  300.963
  300.954
  300.963
  300.985
  301.008
  301.028
  301.042
  301.055
  301.068
  301.08
  301.092
  301.105
  301.116
  301.127
  301.136
  301.141
  301.142
  301.141
  301.164
  300.563
  300.559
  300.541
  300.613
  300.738
  300.831
  300.882
  300.904
  300.909
  300.905
  300.892
  300.875
  300.853
  300.827
  300.796
  300.783
  300.779
  300.895
  300.91
  300.942
  300.981
  301.018
  301.046
  301.056
  301.069
  301.082
  301.096
  301.111
  301.126
  301.141
  301.155
  301.165
  301.171
  301.171
  301.166
  301.18
  300.546
  300.536
  300.514
  300.609
  300.789
  300.926
  300.996
  301.019
  301.016
  300.996
  300.969
  300.939
  300.908
  300.875
  300.84
  300.815
  300.798
  300.808
  300.839
  300.885
  300.946
  301.006
  301.058
  301.096
  301.126
  301.151
  301.174
  301.197
  301.22
  301.243
  301.266
  301.29
  301.314
  301.254
  301.219
  301.197
  301.197
  300.53
  300.512
  300.489
  300.597
  300.826
  301.014
  301.098
  301.116
  301.098
  301.063
  301.026
  300.989
  300.953
  300.918
  300.882
  300.855
  300.837
  300.849
  300.89
  300.953
  301.024
  301.089
  301.143
  301.184
  301.219
  301.247
  301.271
  301.291
  301.309
  301.325
  301.341
  301.355
  301.362
  301.314
  301.264
  301.234
  301.217
  301.227
  301.279
  301.458
  300.519
  300.493
  300.464
  300.58
  300.835
  301.077
  301.175
  301.181
  301.152
  301.113
  301.074
  301.036
  301
  300.966
  300.936
  300.915
  300.909
  300.942
  301.002
  301.074
  301.144
  301.205
  301.252
  301.287
  301.316
  301.336
  301.352
  301.366
  301.379
  301.391
  301.401
  301.407
  301.402
  301.363
  301.316
  301.293
  301.254
  301.252
  301.318
  301.434
  300.513
  300.485
  300.438
  300.561
  300.817
  301.112
  301.222
  301.229
  301.203
  301.169
  301.135
  301.103
  301.073
  301.044
  301.025
  301.02
  301.038
  301.09
  301.157
  301.224
  301.284
  301.331
  301.365
  301.391
  301.406
  301.415
  301.424
  301.433
  301.441
  301.447
  301.451
  301.449
  301.438
  301.412
  301.379
  301.348
  301.286
  301.278
  301.341
  301.426
  300.512
  300.485
  300.421
  300.543
  300.79
  301.124
  301.265
  301.287
  301.271
  301.248
  301.225
  301.204
  301.186
  301.172
  301.167
  301.18
  301.215
  301.271
  301.326
  301.377
  301.419
  301.449
  301.468
  301.477
  301.481
  301.484
  301.488
  301.492
  301.495
  301.497
  301.496
  301.49
  301.479
  301.46
  301.433
  301.395
  301.333
  301.308
  301.354
  301.429
  300.493
  300.477
  300.4
  300.542
  300.791
  301.156
  301.328
  301.361
  301.36
  301.353
  301.345
  301.339
  301.335
  301.336
  301.345
  301.366
  301.399
  301.441
  301.479
  301.508
  301.528
  301.54
  301.545
  301.545
  301.545
  301.544
  301.544
  301.543
  301.542
  301.539
  301.534
  301.526
  301.514
  301.497
  301.473
  301.44
  301.392
  301.354
  301.381
  301.441
  300.369
  300.602
  300.894
  301.308
  301.411
  301.442
  301.453
  301.458
  301.461
  301.465
  301.471
  301.48
  301.493
  301.511
  301.534
  301.557
  301.575
  301.588
  301.596
  301.598
  301.597
  301.595
  301.592
  301.588
  301.584
  301.58
  301.575
  301.568
  301.559
  301.548
  301.534
  301.516
  301.494
  301.468
  301.437
  301.41
  301.421
  301.444
  301.246
  301.28
  301.347
  301.431
  301.485
  301.511
  301.524
  301.534
  301.542
  301.55
  301.559
  301.569
  301.58
  301.593
  301.605
  301.616
  301.625
  301.629
  301.63
  301.629
  301.626
  301.622
  301.617
  301.612
  301.606
  301.599
  301.591
  301.582
  301.57
  301.557
  301.541
  301.523
  301.503
  301.483
  301.465
  301.45
  301.453
  301.458
  301.473
  301.465
  301.458
  301.477
  301.498
  301.524
  301.548
  301.564
  301.574
  301.583
  301.592
  301.6
  301.608
  301.616
  301.623
  301.63
  301.635
  301.639
  301.64
  301.64
  301.637
  301.634
  301.63
  301.624
  301.619
  301.612
  301.605
  301.597
  301.587
  301.575
  301.561
  301.545
  301.528
  301.511
  301.494
  301.481
  301.47
  301.464
  301.465
  301.467
)
;

boundaryField
{
  floor
  {
    type wallHeatTransfer;
    Tinf uniform 297.948;
    alphaWall uniform 0.24;
    value nonuniform List<scalar> 29
(
  300.257
  300.424
  300.508
  300.515
  300.517
  300.513
  300.504
  300.488
  300.47
  300.452
  300.435
  300.419
  300.405
  300.39
  300.377
  300.363
  300.348
  300.332
  300.306
  300.34
  300.34
  300.482
  300.557
  300.632
  300.257
  300.424
  300.553
  300.474
  300.319
)
;
  }
  ceiling
  {
    type wallHeatTransfer;
    Tinf uniform 297.948;
    alphaWall uniform 0.24;
    value nonuniform List<scalar> 43
(
  301.151
  301.158
  301.175
  301.203
  301.223
  301.244
  301.266
  301.281
  301.292
  301.301
  301.309
  301.317
  301.325
  301.332
  301.339
  301.346
  301.351
  301.355
  301.355
  301.354
  301.351
  301.347
  301.342
  301.337
  301.331
  301.325
  301.319
  301.312
  301.304
  301.295
  301.284
  301.271
  301.256
  301.24
  301.224
  301.209
  301.2
  301.199
  301.2
  301.174
  300.216
  300.24
  301.035
)
;
  }
  sWall
  {
    type wallHeatTransfer;
    Tinf uniform 300.167;
    alphaWall uniform 0.36;
    value uniform 301.302;
  }
  nWall
  {
    type wallHeatTransfer;
    Tinf uniform 299.15;
    alphaWall uniform 0.36;
    value nonuniform List<scalar> 6
(
  301.053
  301.108
  301.168
  301.232
  301.214
  301.19
)
;
  }
  sideWalls
  {
    type empty;
  }
  glass1
  {
    type wallHeatTransfer;
    Tinf uniform 300.167;
    alphaWall uniform 4.3;
    value nonuniform List<scalar> 9
(
  300.245
  300.271
  300.281
  300.281
  300.277
  300.274
  300.274
  300.276
  300.269
)
;
  }
  glass2
  {
    type wallHeatTransfer;
    Tinf uniform 299.15;
    alphaWall uniform 4.3;
    value nonuniform List<scalar> 2
(
  300.206
  300.268
)
;
  }
  sun
  {
    type wallHeatTransfer;
    Tinf uniform 297.948;
    alphaWall uniform 0.24;
    value nonuniform List<scalar> 14
(
  300.085
  300.158
  300.232
  300.283
  300.314
  300.33
  300.335
  300.335
  300.329
  300.324
  300.318
  300.31
  300.3
  300.283
)
;
  }
  heatsource1
  {
    type fixedGradient;
    gradient uniform 0;
  }
  heatsource2
  {
    type fixedGradient;
    gradient uniform 0;
  }
  Table_master
  {
    type zeroGradient;
  }
  Table_slave
  {
    type zeroGradient;
  }
  inlet
  {
    type fixedValue;
    value uniform 300.15;
  }
  outlet
  {
    type zeroGradient;
  }
} 	// ************************************************************************* //

