// -*- C++ -*-
// File generated by PyFoam - sorry for the ugliness

FoamFile
{
 version 2.0;
 format ascii;
 class volVectorField;
 location "390";
 object U;
}

dimensions [ 0 1 -1 0 0 0 0 ];

internalField nonuniform List<vector> 459
(
  (-0.00863979 0.0464394 0)
  (-0.0944152 0.0174325 0)
  (-0.117115 0.00740918 0)
  (-0.131923 -0.000667006 0)
  (-0.134038 -0.00905222 0)
  (-0.121596 -0.0184562 0)
  (-0.0954484 -0.0287113 0)
  (-0.0588948 -0.0376097 0)
  (-0.016672 -0.0416333 0)
  (0.029937 -0.0312162 0)
  (0.0560181 -0.021191 0)
  (0.0734037 -0.0116329 0)
  (0.0787247 -0.00213164 0)
  (0.0677923 0.0112131 0)
  (0.0651564 0.0385011 0)
  (-0.0656874 0.00591123 0)
  (0.00161101 0.002331 0)
  (-0.0027032 -0.0126912 0)
  (0.0179167 -0.0192698 0)
  (0.0347035 -0.016288 0)
  (0.0500581 -0.0118036 0)
  (0.0606558 -0.00695208 0)
  (0.0664173 -0.00427311 0)
  (0.0689097 -0.00324103 0)
  (0.0700471 -0.00281521 0)
  (0.0707673 -0.00252674 0)
  (0.0711849 -0.00225046 0)
  (0.0711141 -0.00186427 0)
  (0.0701774 -0.00113111 0)
  (0.0675614 0.000434133 0)
  (0.0616264 0.00364215 0)
  (0.0505139 0.00844471 0)
  (0.0211664 0.0170457 0)
  (0.0578 0.0102312 0)
  (0.0620851 0.0959624 0)
  (-0.0818886 0.0486671 0)
  (-0.0945819 0.0315342 0)
  (-0.109546 0.0152206 0)
  (-0.112489 -0.0035127 0)
  (-0.101896 -0.0249846 0)
  (-0.0791189 -0.0462762 0)
  (-0.0479427 -0.0619381 0)
  (-0.0139866 -0.0657409 0)
  (0.0205139 -0.0515862 0)
  (0.0439153 -0.0337817 0)
  (0.0603179 -0.0156689 0)
  (0.0691335 0.00280023 0)
  (0.0709829 0.0219146 0)
  (0.0747828 0.0462989 0)
  (0.0703937 0.0444379 0)
  (0.0455246 0.042599 0)
  (-0.0956253 0.00800991 0)
  (0.0225067 -0.00818082 0)
  (0.026052 -0.024523 0)
  (0.0377664 -0.0288747 0)
  (0.0497298 -0.0249474 0)
  (0.0596737 -0.0178477 0)
  (0.0647923 -0.00772182 0)
  (0.0660099 -0.00175072 0)
  (0.0659412 0.000539501 0)
  (0.0660509 0.00141792 0)
  (0.0663554 0.00194358 0)
  (0.0666067 0.00244794 0)
  (0.0667047 0.00318178 0)
  (0.0665525 0.00459345 0)
  (0.0655994 0.00773252 0)
  (0.0612753 0.0155461 0)
  (0.051704 0.0240806 0)
  (0.0189095 0.0354108 0)
  (0.0986226 0.0275084 0)
  (0.128857 0.143464 0)
  (-0.0803087 0.0739358 0)
  (-0.0727726 0.0486983 0)
  (-0.0869682 0.0221953 0)
  (-0.090153 -0.00803975 0)
  (-0.0800304 -0.041396 0)
  (-0.0593496 -0.0728796 0)
  (-0.0330828 -0.0932802 0)
  (-0.00596534 -0.0949636 0)
  (0.0191199 -0.0767989 0)
  (0.0385822 -0.0527209 0)
  (0.0527037 -0.0279057 0)
  (0.0612461 -0.00387459 0)
  (0.0653544 0.0192715 0)
  (0.067503 0.041277 0)
  (0.0619625 0.0500247 0)
  (0.0489395 0.0723712 0)
  (-0.0859643 -0.0124235 0)
  (0.0439288 -0.0351385 0)
  (0.0514891 -0.0422657 0)
  (0.0572462 -0.0406437 0)
  (0.0631936 -0.0342886 0)
  (0.0684304 -0.0273252 0)
  (0.0695008 -0.0204577 0)
  (0.0630644 -0.0135405 0)
  (0.0579135 -0.00990541 0)
  (0.055718 -0.00791616 0)
  (0.054892 -0.006649 0)
  (0.0544674 -0.00573479 0)
  (0.0544923 -0.00482377 0)
  (0.0557405 -0.00333311 0)
  (0.0599214 0.000990668 0)
  (0.0599272 0.0198767 0)
  (0.0526909 0.0347018 0)
  (0.0159025 0.0515878 0)
  (0.1257 0.0536074 0)
  (0.192773 0.181765 0)
  (-0.08709 0.0943238 0)
  (-0.0502451 0.063954 0)
  (-0.0627196 0.0298891 0)
  (-0.0642633 -0.0106495 0)
  (-0.0522955 -0.0558823 0)
  (-0.0333278 -0.0961474 0)
  (-0.0128615 -0.119211 0)
  (0.0067755 -0.118204 0)
  (0.0235818 -0.0973114 0)
  (0.0377594 -0.0682111 0)
  (0.0480521 -0.0379803 0)
  (0.0546547 -0.00986899 0)
  (0.0590735 0.0154306 0)
  (0.0639084 0.0378493 0)
  (0.071252 0.0543931 0)
  (0.0831528 0.0757708 0)
  (0.106686 0.0223915 0)
  (0.0973776 -0.00426019 0)
  (0.0905158 -0.0290926 0)
  (0.0812159 -0.0399894 0)
  (0.0742389 -0.0398176 0)
  (0.0696363 -0.0340595 0)
  (0.0657288 -0.0254147 0)
  (0.0661526 -0.0150446 0)
  (0.0722735 -0.00975319 0)
  (0.0761766 -0.00684335 0)
  (0.0770997 -0.00504889 0)
  (0.0761919 -0.00359917 0)
  (0.0740701 -0.0022047 0)
  (0.0703735 -0.000600012 0)
  (0.0640918 0.0016293 0)
  (0.052209 0.00517692 0)
  (0.0455103 0.0260692 0)
  (0.0472754 0.042571 0)
  (0.0158797 0.0622608 0)
  (0.145061 0.0888177 0)
  (0.253059 0.210681 0)
  (-0.100457 0.10845 0)
  (-0.0275359 0.0732675 0)
  (-0.0362608 0.0350204 0)
  (-0.0316072 -0.0138093 0)
  (-0.01575 -0.0696211 0)
  (0.000266106 -0.114689 0)
  (0.0133082 -0.136552 0)
  (0.0233543 -0.132983 0)
  (0.0319733 -0.110179 0)
  (0.0389133 -0.0777473 0)
  (0.0435454 -0.044146 0)
  (0.0465504 -0.0141213 0)
  (0.0497213 0.011165 0)
  (0.0552061 0.031476 0)
  (0.0648574 0.044789 0)
  (0.0799354 0.0488212 0)
  (0.0930653 0.0149534 0)
  (0.0933008 -0.00904373 0)
  (0.0864558 -0.0253202 0)
  (0.0772393 -0.0323699 0)
  (0.0678713 -0.0322074 0)
  (0.0596975 -0.0275038 0)
  (0.0532309 -0.019692 0)
  (0.0501232 -0.00900644 0)
  (0.0500576 -0.002716 0)
  (0.0499412 0.000160414 0)
  (0.0490254 0.00175015 0)
  (0.0481019 0.00313894 0)
  (0.0472134 0.00486044 0)
  (0.0460337 0.00735611 0)
  (0.0441894 0.0111158 0)
  (0.0410206 0.0167878 0)
  (0.039494 0.0288184 0)
  (0.0476193 0.04179 0)
  (0.0371481 0.0559298 0)
  (0.106452 0.0860202 0)
  (0.0986361 0.0676281 0)
  (0.0903525 0.0471986 0)
  (-0.126305 0.0467221 0)
  (0.304449 0.232866 0)
  (-0.118103 0.11489 0)
  (-0.00717935 0.0718892 0)
  (-0.00677038 0.0341471 0)
  (0.0121812 -0.0263948 0)
  (0.0290181 -0.084636 0)
  (0.0392757 -0.125783 0)
  (0.0435027 -0.144076 0)
  (0.0436789 -0.138532 0)
  (0.0420478 -0.113981 0)
  (0.0394842 -0.0794846 0)
  (0.0364671 -0.0444408 0)
  (0.0341139 -0.0146792 0)
  (0.0340809 0.00820811 0)
  (0.0381876 0.0241738 0)
  (0.0467962 0.0321195 0)
  (0.0596821 0.0297295 0)
  (0.0687325 0.0107774 0)
  (0.0694737 -0.00631455 0)
  (0.0640011 -0.0175291 0)
  (0.0554721 -0.0227837 0)
  (0.0459988 -0.0228951 0)
  (0.0370789 -0.0193581 0)
  (0.0297378 -0.0134124 0)
  (0.0249969 -0.00634283 0)
  (0.0228252 -0.0019014 0)
  (0.0218623 0.000122673 0)
  (0.0216532 0.00111822 0)
  (0.0221715 0.00206705 0)
  (0.0233142 0.00364425 0)
  (0.0249512 0.00636375 0)
  (0.0269052 0.0106323 0)
  (0.0290006 0.0166186 0)
  (0.0322757 0.0248995 0)
  (0.041354 0.0334243 0)
  (0.0414734 0.037592 0)
  (0.0691264 0.0528631 0)
  (0.0681805 0.0404897 0)
  (0.0880177 0.0368618 0)
  (-0.131627 0.0673453 0)
  (0.348702 0.250744 0)
  (-0.129191 0.102685 0)
  (0.0168601 0.0414008 0)
  (0.0375946 0.0071555 0)
  (0.0662751 -0.0489516 0)
  (0.0805383 -0.0980348 0)
  (0.0834448 -0.130518 0)
  (0.0771729 -0.14225 0)
  (0.0647812 -0.132762 0)
  (0.0501545 -0.106383 0)
  (0.035857 -0.0712839 0)
  (0.0237572 -0.0371254 0)
  (0.0154283 -0.0102276 0)
  (0.0122019 0.0078929 0)
  (0.0153009 0.0184843 0)
  (0.0226802 0.0224096 0)
  (0.0323663 0.0191071 0)
  (0.0382278 0.00773539 0)
  (0.0381792 -0.00341568 0)
  (0.0332597 -0.0108985 0)
  (0.0253566 -0.0142519 0)
  (0.0163932 -0.0140256 0)
  (0.00783882 -0.0113074 0)
  (0.00081093 -0.00716861 0)
  (-0.00368898 -0.00292244 0)
  (-0.0056521 -0.000503127 0)
  (-0.00601273 0.000293796 0)
  (-0.00523761 0.000327449 0)
  (-0.00354678 0.000364 0)
  (-0.000741287 0.00108079 0)
  (0.00348793 0.00318699 0)
  (0.00853847 0.00683863 0)
  (0.0145101 0.0118216 0)
  (0.021428 0.0177661 0)
  (0.0308815 0.02363 0)
  (0.0356733 0.0263578 0)
  (0.0493761 0.0368328 0)
  (0.0543652 0.0408726 0)
  (0.0985637 0.0531669 0)
  (-0.105097 0.109245 0)
  (0.415225 0.243911 0)
  (-0.0187045 0.076374 0)
  (0.0663866 -0.0223947 0)
  (0.123343 -0.0594599 0)
  (0.144317 -0.0842795 0)
  (0.145536 -0.10779 0)
  (0.133059 -0.123429 0)
  (0.109952 -0.125416 0)
  (0.0802798 -0.111565 0)
  (0.049743 -0.084636 0)
  (0.0223768 -0.0514635 0)
  (0.00183196 -0.0215989 0)
  (-0.0100802 -0.00162583 0)
  (-0.0134174 0.00864706 0)
  (-0.0109056 0.0138557 0)
  (-0.00531046 0.0153147 0)
  (0.00114678 0.0126873 0)
  (0.00420169 0.0060441 0)
  (0.00285677 -0.000413892 0)
  (-0.00178826 -0.00473527 0)
  (-0.00895411 -0.00630043 0)
  (-0.0166407 -0.00578948 0)
  (-0.0235791 -0.00408845 0)
  (-0.0288733 -0.00204274 0)
  (-0.0320847 -0.000458717 0)
  (-0.0333164 7.09598e-06 0)
  (-0.0332701 -0.000492935 0)
  (-0.032455 -0.00154821 0)
  (-0.0309604 -0.00274416 0)
  (-0.0286544 -0.00365776 0)
  (-0.0250933 -0.00382769 0)
  (-0.0193853 -0.00283185 0)
  (-0.0111883 -0.000667663 0)
  (-0.0018534 0.00220678 0)
  (0.00855633 0.00497956 0)
  (0.014483 0.00606227 0)
  (0.0234883 0.0116405 0)
  (0.0290139 0.0151552 0)
  (0.101407 0.0600725 0)
  (-0.317114 0.167193 0)
  (0.504872 0.242586 0)
  (0.241454 0.170676 0)
  (0.257194 0.112303 0)
  (0.27195 0.0448551 0)
  (0.255807 -0.0148413 0)
  (0.221469 -0.0566883 0)
  (0.177045 -0.0785556 0)
  (0.126911 -0.0822533 0)
  (0.0751503 -0.0702785 0)
  (0.028446 -0.0472596 0)
  (-0.00940598 -0.0197899 0)
  (-0.0302547 -0.00218308 0)
  (-0.0394976 0.00619006 0)
  (-0.0410934 0.00975869 0)
  (-0.0392659 0.0114292 0)
  (-0.035861 0.0116697 0)
  (-0.0326687 0.010249 0)
  (-0.0318347 0.00728636 0)
  (-0.0339068 0.00431661 0)
  (-0.0379871 0.00230641 0)
  (-0.0431793 0.00145973 0)
  (-0.0484657 0.0013901 0)
  (-0.0529603 0.00160169 0)
  (-0.0561536 0.00167891 0)
  (-0.0579459 0.0013044 0)
  (-0.0588154 0.000333011 0)
  (-0.0592499 -0.00110125 0)
  (-0.0596955 -0.00272942 0)
  (-0.0604483 -0.00433278 0)
  (-0.0618515 -0.0055097 0)
  (-0.0642912 -0.00566962 0)
  (-0.0682496 -0.00392327 0)
  (-0.0740977 0.00061968 0)
  (-0.0816024 0.00829146 0)
  (-0.0930784 0.0197746 0)
  (-0.111836 0.0360274 0)
  (-0.136908 0.057399 0)
  (-0.169221 0.0806531 0)
  (-0.220076 0.0999349 0)
  (-0.425677 0.104125 0)
  (0.254389 -0.0608024 0)
  (0.246607 -0.0529767 0)
  (0.22235 -0.053627 0)
  (0.175795 -0.0505303 0)
  (0.120411 -0.0430168 0)
  (0.0641473 -0.0314631 0)
  (0.00726294 -0.0144334 0)
  (-0.0370044 0.00249104 0)
  (-0.0581936 0.010944 0)
  (-0.0674754 0.0140728 0)
  (-0.0700256 0.0149181 0)
  (-0.0696871 0.0151194 0)
  (-0.0681149 0.0153438 0)
  (-0.0661608 0.0154869 0)
  (-0.0646483 0.0152651 0)
  (-0.0643915 0.0145939 0)
  (-0.0655269 0.0138837 0)
  (-0.0675694 0.0134886 0)
  (-0.0698928 0.013499 0)
  (-0.072001 0.0137245 0)
  (-0.0736621 0.0139783 0)
  (-0.0748746 0.0141915 0)
  (-0.0757918 0.0143813 0)
  (-0.0766737 0.0146215 0)
  (-0.0777304 0.0150354 0)
  (-0.0790295 0.0157324 0)
  (-0.080724 0.0169046 0)
  (-0.0828785 0.0186712 0)
  (-0.085506 0.0209481 0)
  (-0.0884456 0.0235869 0)
  (-0.0914466 0.0267489 0)
  (-0.0944123 0.0315783 0)
  (-0.097105 0.0395867 0)
  (-0.0989778 0.0521719 0)
  (-0.0979196 0.0685694 0)
  (-0.0904768 0.0781361 0)
  (-0.0782761 0.0490325 0)
  (-0.126691 -0.142747 0)
  (-0.00953271 0.0557456 0)
  (-0.0309332 0.00883628 0)
  (-0.0423967 -0.00936058 0)
  (-0.0527609 -0.0212257 0)
  (-0.0680157 -0.0273556 0)
  (-0.0817091 -0.0307345 0)
  (-0.09052 -0.0338212 0)
  (-0.095284 -0.0384479 0)
  (-0.0967005 -0.0445363 0)
  (-0.0964325 -0.0493391 0)
  (-0.0952132 -0.0521875 0)
  (-0.0934637 -0.0533545 0)
  (-0.0913278 -0.0535262 0)
  (-0.0889552 -0.0535466 0)
  (-0.0866309 -0.0541407 0)
  (-0.0846966 -0.0556596 0)
  (-0.0832967 -0.0579058 0)
  (-0.082333 -0.0604595 0)
  (-0.0816038 -0.0629862 0)
  (-0.0809451 -0.0653975 0)
  (-0.0803003 -0.0677641 0)
  (-0.0797087 -0.0702278 0)
  (-0.0792748 -0.0729613 0)
  (-0.0791428 -0.0761088 0)
  (-0.0794609 -0.0796795 0)
  (-0.0803441 -0.0834725 0)
  (-0.0818117 -0.0869776 0)
  (-0.0836979 -0.0894413 0)
  (-0.0856521 -0.089701 0)
  (-0.0871134 -0.0864809 0)
  (-0.0872059 -0.0786162 0)
  (-0.0845385 -0.0654295 0)
  (-0.0771088 -0.0472414 0)
  (-0.0627581 -0.0256929 0)
  (-0.0409092 -0.00524299 0)
  (-0.0112147 0.000256615 0)
  (0.0725934 -0.0751338 0)
  (-0.0863704 -0.120735 0)
  (-0.182349 -0.222495 0)
  (-0.258721 -0.0380909 0)
  (-0.221613 0.12975 0)
  (-0.197433 0.122491 0)
  (-0.178721 0.126581 0)
  (-0.169663 0.13701 0)
  (-0.163582 0.148325 0)
  (-0.156721 0.159707 0)
  (-0.148068 0.171049 0)
  (-0.138605 0.181868 0)
  (-0.129965 0.191155 0)
  (-0.123067 0.197695 0)
  (-0.11773 0.20169 0)
  (-0.113334 0.204012 0)
  (-0.10926 0.205665 0)
  (-0.105137 0.207482 0)
  (-0.100905 0.209968 0)
  (-0.0967375 0.213209 0)
  (-0.0928559 0.216897 0)
  (-0.0894032 0.220598 0)
  (-0.0864298 0.223995 0)
  (-0.083939 0.227007 0)
  (-0.0819256 0.229739 0)
  (-0.0803805 0.232423 0)
  (-0.0792883 0.235353 0)
  (-0.0786229 0.238813 0)
  (-0.0783313 0.242989 0)
  (-0.0783061 0.247892 0)
  (-0.0783422 0.253224 0)
  (-0.0781227 0.25843 0)
  (-0.0771956 0.262613 0)
  (-0.0748973 0.264825 0)
  (-0.0702398 0.264354 0)
  (-0.0619159 0.261173 0)
  (-0.0488742 0.256498 0)
  (-0.0313336 0.252968 0)
  (-0.00944641 0.254005 0)
  (0.0185222 0.259988 0)
  (0.0980224 0.302499 0)
  (-0.224339 0.309528 0)
)
;

boundaryField
{
  floor
  {
    type noSlip;
  }
  ceiling
  {
    type noSlip;
  }
  sWall
  {
    type noSlip;
  }
  nWall
  {
    type noSlip;
  }
  sideWalls
  {
    type empty;
  }
  glass1
  {
    type noSlip;
  }
  glass2
  {
    type noSlip;
  }
  sun
  {
    type noSlip;
  }
  heatsource1
  {
    type noSlip;
  }
  heatsource2
  {
    type noSlip;
  }
  Table_master
  {
    type noSlip;
  }
  Table_slave
  {
    type noSlip;
  }
  inlet
  {
    type fixedValue;
    value uniform (0.277164 -0.114805 0);
  }
  outlet
  {
    type zeroGradient;
  }
} 	// ************************************************************************* //

