// -*- C++ -*-
// File generated by PyFoam - sorry for the ugliness

FoamFile
{
 version 2.0;
 format ascii;
 class volVectorField;
 location "700";
 object U;
}

dimensions [ 0 1 -1 0 0 0 0 ];

internalField nonuniform List<vector> 459
(
  (0.0355126 0.0697176 0)
  (-0.13513 0.0198237 0)
  (-0.15425 0.0161934 0)
  (-0.182569 0.012816 0)
  (-0.206201 0.00894391 0)
  (-0.224669 0.00482231 0)
  (-0.237302 0.000376981 0)
  (-0.243192 -0.00454308 0)
  (-0.241024 -0.0100926 0)
  (-0.229964 -0.0165226 0)
  (-0.209411 -0.0236241 0)
  (-0.179073 -0.0311646 0)
  (-0.139321 -0.0396167 0)
  (-0.0945835 -0.0508642 0)
  (-0.0624489 -0.0664214 0)
  (-0.0921001 -0.00107327 0)
  (0.0379585 -0.0114096 0)
  (0.043549 -0.00938649 0)
  (0.0451011 -0.00509046 0)
  (0.047282 -0.00144138 0)
  (0.046497 0.000794252 0)
  (0.0432733 0.000678586 0)
  (0.0406433 0.00022329 0)
  (0.039493 0.000222765 0)
  (0.038917 0.000362929 0)
  (0.0382907 0.000440863 0)
  (0.0375029 0.000511904 0)
  (0.0364695 0.000701254 0)
  (0.034871 0.00120004 0)
  (0.0320993 0.00240476 0)
  (0.0272106 0.00485199 0)
  (0.020802 0.00652025 0)
  (-0.0472304 0.0121691 0)
  (0.141316 -0.0106387 0)
  (0.185607 0.143644 0)
  (-0.132193 0.0523822 0)
  (-0.128245 0.0463542 0)
  (-0.158195 0.0400167 0)
  (-0.181647 0.03278 0)
  (-0.200034 0.0248322 0)
  (-0.212922 0.0158597 0)
  (-0.219509 0.00544972 0)
  (-0.218441 -0.00670423 0)
  (-0.209191 -0.0201681 0)
  (-0.191879 -0.0336385 0)
  (-0.167378 -0.045707 0)
  (-0.13815 -0.0557758 0)
  (-0.109774 -0.0641595 0)
  (-0.0897154 -0.0672434 0)
  (-0.066806 -0.0451398 0)
  (-0.0285009 -0.0304804 0)
  (-0.10857 -0.0124905 0)
  (0.0383194 -0.0291301 0)
  (0.0454565 -0.0194941 0)
  (0.0478212 -0.00832575 0)
  (0.0488239 0.000724042 0)
  (0.0463228 0.00617217 0)
  (0.0429251 0.00323649 0)
  (0.0421426 0.00101158 0)
  (0.0426798 0.000554063 0)
  (0.0430643 0.000730992 0)
  (0.0431775 0.00101475 0)
  (0.0432367 0.00143675 0)
  (0.0432918 0.00217106 0)
  (0.0432307 0.00352754 0)
  (0.04252 0.00631213 0)
  (0.0388612 0.0132589 0)
  (0.0362271 0.0180534 0)
  (-0.0410389 0.0222688 0)
  (0.198247 0.000345092 0)
  (0.323617 0.216407 0)
  (-0.152051 0.0853688 0)
  (-0.0985864 0.0760679 0)
  (-0.128794 0.0635638 0)
  (-0.14949 0.0509842 0)
  (-0.166096 0.037562 0)
  (-0.178191 0.0225625 0)
  (-0.184829 0.00537016 0)
  (-0.184155 -0.0141821 0)
  (-0.175424 -0.03537 0)
  (-0.159261 -0.0559161 0)
  (-0.137107 -0.073205 0)
  (-0.11167 -0.085523 0)
  (-0.0864868 -0.0916388 0)
  (-0.0637911 -0.0876004 0)
  (-0.0404395 -0.0675808 0)
  (-0.0158503 -0.053607 0)
  (-0.0207081 -0.0505382 0)
  (0.0401121 -0.0420256 0)
  (0.0533496 -0.0278156 0)
  (0.0541827 -0.0120109 0)
  (0.0525444 0.00250799 0)
  (0.0463091 0.0144639 0)
  (0.0379375 0.00676852 0)
  (0.0396143 0.0028794 0)
  (0.0424025 0.000807702 0)
  (0.0436528 -0.000401613 0)
  (0.0441581 -0.00125289 0)
  (0.0447082 -0.00181684 0)
  (0.0456691 -0.00200834 0)
  (0.0476167 -0.00155462 0)
  (0.051936 0.00117904 0)
  (0.0510903 0.0168141 0)
  (0.0491949 0.0261815 0)
  (-0.018509 0.0307824 0)
  (0.218179 0.0270999 0)
  (0.448094 0.275877 0)
  (-0.186203 0.115496 0)
  (-0.0658155 0.101819 0)
  (-0.0968189 0.0839038 0)
  (-0.112178 0.067927 0)
  (-0.125147 0.0510203 0)
  (-0.135315 0.0317247 0)
  (-0.141453 0.00887189 0)
  (-0.140657 -0.0179627 0)
  (-0.131855 -0.0470045 0)
  (-0.116772 -0.0742758 0)
  (-0.0973279 -0.0961114 0)
  (-0.0760093 -0.110288 0)
  (-0.0547103 -0.115574 0)
  (-0.0342336 -0.109653 0)
  (-0.0140009 -0.0921202 0)
  (0.00508346 -0.0751269 0)
  (0.0460005 -0.119192 0)
  (0.0652233 -0.0741178 0)
  (0.0652905 -0.0486219 0)
  (0.0608457 -0.0303525 0)
  (0.0577507 -0.0130031 0)
  (0.0578004 0.00287342 0)
  (0.0601778 0.0164153 0)
  (0.0643082 0.0123142 0)
  (0.0590776 0.0069149 0)
  (0.0533724 0.00373248 0)
  (0.0498447 0.00186693 0)
  (0.0473625 0.00068086 0)
  (0.0448667 -1.64828e-06 0)
  (0.041883 -0.000200518 0)
  (0.0378468 0.00015 0)
  (0.0295126 0.00135137 0)
  (0.032431 0.0212673 0)
  (0.043183 0.0311609 0)
  (-0.00973946 0.0347714 0)
  (0.233691 0.0594755 0)
  (0.556992 0.322785 0)
  (-0.226121 0.141231 0)
  (-0.0313143 0.118176 0)
  (-0.0632963 0.0970805 0)
  (-0.071609 0.0794373 0)
  (-0.0790142 0.0605435 0)
  (-0.0855115 0.0384101 0)
  (-0.0898498 0.0112022 0)
  (-0.0871883 -0.0220664 0)
  (-0.0772927 -0.0582238 0)
  (-0.0638337 -0.0905691 0)
  (-0.0485718 -0.115031 0)
  (-0.0333304 -0.129724 0)
  (-0.0186194 -0.13455 0)
  (-0.00445579 -0.128379 0)
  (0.0104016 -0.110826 0)
  (0.0256229 -0.0881957 0)
  (0.0421012 -0.0655922 0)
  (0.050049 -0.0532381 0)
  (0.0480028 -0.039238 0)
  (0.0445781 -0.0241549 0)
  (0.0424406 -0.00945159 0)
  (0.0426438 0.00303986 0)
  (0.0448985 0.0107236 0)
  (0.0455354 0.00793506 0)
  (0.0430926 0.00503051 0)
  (0.0399182 0.00401078 0)
  (0.0372974 0.0038311 0)
  (0.0350282 0.0039347 0)
  (0.0327573 0.00435146 0)
  (0.0303835 0.00522767 0)
  (0.0279121 0.00674026 0)
  (0.0247678 0.0091609 0)
  (0.0252699 0.0175217 0)
  (0.037843 0.0248912 0)
  (0.0131782 0.0234635 0)
  (0.114875 0.0566598 0)
  (0.0834791 0.0552239 0)
  (-0.0937441 0.05693 0)
  (0.328115 -0.0209982 0)
  (0.638469 0.36271 0)
  (-0.265114 0.160188 0)
  (-0.00163715 0.119443 0)
  (-0.028585 0.10274 0)
  (-0.0298334 0.085258 0)
  (-0.0309809 0.0654474 0)
  (-0.0324 0.0423967 0)
  (-0.0334297 0.0131137 0)
  (-0.023882 -0.0265533 0)
  (-0.0121074 -0.0689521 0)
  (-0.00172183 -0.103648 0)
  (0.0072555 -0.128185 0)
  (0.0141832 -0.141431 0)
  (0.0198419 -0.144911 0)
  (0.0245254 -0.138318 0)
  (0.0292294 -0.122075 0)
  (0.0342126 -0.0995953 0)
  (0.0379275 -0.0764084 0)
  (0.0372966 -0.057298 0)
  (0.0327837 -0.0388937 0)
  (0.0277653 -0.0222844 0)
  (0.0242719 -0.00840379 0)
  (0.0230555 0.00223277 0)
  (0.0242676 0.00851755 0)
  (0.0250493 0.00892598 0)
  (0.0244103 0.00761927 0)
  (0.0229603 0.00667322 0)
  (0.0214121 0.00615372 0)
  (0.0199453 0.00593981 0)
  (0.0185591 0.00610867 0)
  (0.0173286 0.00676519 0)
  (0.0164078 0.00796964 0)
  (0.0157079 0.00969822 0)
  (0.0168966 0.012937 0)
  (0.0241148 0.0152401 0)
  (0.0118931 0.00614426 0)
  (0.0387942 0.0330111 0)
  (0.0425094 0.0551738 0)
  (-0.132542 0.072421 0)
  (0.343781 -0.0392165 0)
  (0.67612 0.398064 0)
  (-0.288411 0.150905 0)
  (0.0200624 0.0867266 0)
  (0.0142123 0.0985901 0)
  (0.0163487 0.0880996 0)
  (0.0199157 0.0663721 0)
  (0.0243412 0.0409238 0)
  (0.0299504 0.00699417 0)
  (0.0499459 -0.0394831 0)
  (0.0609636 -0.0800416 0)
  (0.0657002 -0.110863 0)
  (0.0660383 -0.131616 0)
  (0.0631594 -0.142743 0)
  (0.0581923 -0.144742 0)
  (0.0519984 -0.137537 0)
  (0.045571 -0.121398 0)
  (0.0394146 -0.0987275 0)
  (0.0329496 -0.074062 0)
  (0.0251727 -0.0515332 0)
  (0.0166891 -0.0322565 0)
  (0.00946292 -0.0169226 0)
  (0.00487592 -0.00542476 0)
  (0.00317719 0.00272392 0)
  (0.00417582 0.00752021 0)
  (0.00535807 0.00870424 0)
  (0.00576915 0.00817181 0)
  (0.00550575 0.00745438 0)
  (0.00495571 0.00694847 0)
  (0.00437125 0.00668228 0)
  (0.00392672 0.00669025 0)
  (0.00382355 0.00700234 0)
  (0.00428085 0.00760244 0)
  (0.00534178 0.00841426 0)
  (0.00755953 0.00975175 0)
  (0.0116745 0.0110727 0)
  (0.00518616 0.00942894 0)
  (0.0122027 0.0331369 0)
  (0.0315482 0.073779 0)
  (-0.18047 0.0887702 0)
  (0.430577 -0.0466493 0)
  (0.76804 0.406726 0)
  (-0.100889 0.122989 0)
  (0.0743234 0.0199826 0)
  (0.106823 0.0347345 0)
  (0.0979001 0.0440701 0)
  (0.0959969 0.031457 0)
  (0.102093 0.00606372 0)
  (0.122565 -0.0276229 0)
  (0.138141 -0.0594893 0)
  (0.141564 -0.0876053 0)
  (0.136063 -0.109718 0)
  (0.124811 -0.124707 0)
  (0.109811 -0.132157 0)
  (0.0925518 -0.131994 0)
  (0.0742474 -0.123936 0)
  (0.056122 -0.108015 0)
  (0.0391322 -0.0858584 0)
  (0.0238015 -0.0614271 0)
  (0.0100808 -0.0392556 0)
  (-0.00137931 -0.0217174 0)
  (-0.0092503 -0.00968711 0)
  (-0.0135586 -0.00184245 0)
  (-0.0149758 0.00341419 0)
  (-0.0142135 0.00662564 0)
  (-0.0129917 0.00794738 0)
  (-0.0120893 0.00809493 0)
  (-0.0116122 0.00784092 0)
  (-0.0113596 0.00752248 0)
  (-0.0111052 0.00722599 0)
  (-0.01063 0.00697671 0)
  (-0.00969902 0.00677758 0)
  (-0.00806983 0.00662326 0)
  (-0.00554123 0.00657033 0)
  (-0.00175471 0.00706106 0)
  (0.00356661 0.00900579 0)
  (0.00559465 0.0125624 0)
  (0.0157424 0.0330264 0)
  (0.0525333 0.0747266 0)
  (-0.143982 0.0744672 0)
  (0.716575 0.00370534 0)
  (0.888292 0.409413 0)
  (0.42802 0.290467 0)
  (0.426999 0.230717 0)
  (0.402231 0.170334 0)
  (0.35097 0.12637 0)
  (0.310911 0.0848701 0)
  (0.290366 0.0439194 0)
  (0.275889 0.00370479 0)
  (0.254685 -0.0330905 0)
  (0.229563 -0.0627121 0)
  (0.202422 -0.0842602 0)
  (0.173962 -0.0982865 0)
  (0.144408 -0.105301 0)
  (0.114145 -0.105395 0)
  (0.0838671 -0.0981655 0)
  (0.0548363 -0.0836396 0)
  (0.0284838 -0.0632178 0)
  (0.00662504 -0.0406967 0)
  (-0.0100126 -0.0212355 0)
  (-0.0201423 -0.00902892 0)
  (-0.0263591 -0.00126515 0)
  (-0.0297095 0.00354557 0)
  (-0.0306279 0.00660744 0)
  (-0.0300839 0.00859988 0)
  (-0.02898 0.00970759 0)
  (-0.0278415 0.0101322 0)
  (-0.0268351 0.0101473 0)
  (-0.0259097 0.00992388 0)
  (-0.0249489 0.00953288 0)
  (-0.0238143 0.0089964 0)
  (-0.0223458 0.00831509 0)
  (-0.0203561 0.00750268 0)
  (-0.017606 0.00665314 0)
  (-0.0137274 0.00606221 0)
  (-0.00830332 0.0065861 0)
  (-0.00113933 0.00954474 0)
  (0.0147385 0.0225451 0)
  (0.0515038 0.0527849 0)
  (-0.108586 0.0438565 0)
  (0.705739 0.04423 0)
  (0.129796 0.0884512 0)
  (0.243539 0.126059 0)
  (0.281139 0.112036 0)
  (0.281607 0.0826422 0)
  (0.278778 0.0508056 0)
  (0.272675 0.0230155 0)
  (0.259404 -0.00195964 0)
  (0.238774 -0.0263259 0)
  (0.211859 -0.0480537 0)
  (0.179666 -0.0650428 0)
  (0.143944 -0.0758239 0)
  (0.106841 -0.0795172 0)
  (0.0700705 -0.0753463 0)
  (0.0354539 -0.0636758 0)
  (0.0046983 -0.0459153 0)
  (-0.0179636 -0.0266659 0)
  (-0.0306779 -0.0127095 0)
  (-0.0375757 -0.00298284 0)
  (-0.0410366 0.00353271 0)
  (-0.0425263 0.00663977 0)
  (-0.0426365 0.00842814 0)
  (-0.0419254 0.0095598 0)
  (-0.0407603 0.0101464 0)
  (-0.0394207 0.010253 0)
  (-0.0380575 0.0099917 0)
  (-0.0367198 0.00945837 0)
  (-0.0354133 0.00870798 0)
  (-0.0341272 0.00775898 0)
  (-0.0328405 0.00659884 0)
  (-0.0315343 0.0051816 0)
  (-0.0302478 0.00334776 0)
  (-0.0290958 0.000680239 0)
  (-0.027738 -0.00137648 0)
  (-0.0245021 -0.000139658 0)
  (-0.0146571 0.0100798 0)
  (-0.00464235 0.0316163 0)
  (-0.155535 0.0248859 0)
  (0.429536 0.0706508 0)
  (-0.0129814 0.148172 0)
  (0.105024 0.122299 0)
  (0.150044 0.0741321 0)
  (0.180761 0.0295977 0)
  (0.202877 -0.0142334 0)
  (0.213758 -0.057598 0)
  (0.211999 -0.0941645 0)
  (0.195722 -0.112435 0)
  (0.167638 -0.117228 0)
  (0.132702 -0.112998 0)
  (0.0958638 -0.103858 0)
  (0.0611104 -0.0933402 0)
  (0.0299226 -0.0856519 0)
  (0.00345466 -0.0818041 0)
  (-0.0173638 -0.0818416 0)
  (-0.0310914 -0.0842392 0)
  (-0.040342 -0.086661 0)
  (-0.0460897 -0.0879154 0)
  (-0.0489585 -0.0872671 0)
  (-0.0499394 -0.0861822 0)
  (-0.0500231 -0.0853357 0)
  (-0.0495103 -0.0845982 0)
  (-0.0485494 -0.0840003 0)
  (-0.0473041 -0.083608 0)
  (-0.0459229 -0.083448 0)
  (-0.0445192 -0.0835388 0)
  (-0.0431823 -0.0839236 0)
  (-0.0419955 -0.0846807 0)
  (-0.0410559 -0.0859156 0)
  (-0.040529 -0.0877167 0)
  (-0.0408061 -0.0900345 0)
  (-0.0426411 -0.0924273 0)
  (-0.0461 -0.0942663 0)
  (-0.0484456 -0.0922897 0)
  (-0.0475153 -0.0776387 0)
  (-0.0573352 -0.0489762 0)
  (-0.126353 -0.0355428 0)
  (0.341799 -0.00953868 0)
  (0.12072 -0.1945 0)
  (-0.255344 -0.0263811 0)
  (-0.162359 0.234273 0)
  (-0.0731209 0.225587 0)
  (-0.00271629 0.217556 0)
  (0.0518661 0.222862 0)
  (0.0852912 0.236314 0)
  (0.102474 0.261367 0)
  (0.105159 0.291235 0)
  (0.0995888 0.302262 0)
  (0.0868228 0.299533 0)
  (0.0688693 0.288511 0)
  (0.0469795 0.275515 0)
  (0.0226349 0.267481 0)
  (-0.0062812 0.273339 0)
  (-0.0250227 0.28229 0)
  (-0.0376912 0.29022 0)
  (-0.0461276 0.298835 0)
  (-0.0512837 0.306486 0)
  (-0.0542617 0.311514 0)
  (-0.0557474 0.313003 0)
  (-0.0561966 0.313671 0)
  (-0.0559565 0.31429 0)
  (-0.0552503 0.314711 0)
  (-0.0542392 0.314959 0)
  (-0.0530944 0.315087 0)
  (-0.051976 0.315123 0)
  (-0.0510271 0.315089 0)
  (-0.050378 0.315027 0)
  (-0.0501455 0.315018 0)
  (-0.0504396 0.315202 0)
  (-0.0514139 0.315794 0)
  (-0.0532816 0.316999 0)
  (-0.0558457 0.318545 0)
  (-0.0575361 0.319765 0)
  (-0.0561622 0.317414 0)
  (-0.0572583 0.304312 0)
  (-0.0856396 0.284956 0)
  (-0.151852 0.283143 0)
  (0.437481 0.321477 0)
)
;

boundaryField
{
  floor
  {
    type noSlip;
  }
  ceiling
  {
    type noSlip;
  }
  sWall
  {
    type noSlip;
  }
  nWall
  {
    type noSlip;
  }
  sideWalls
  {
    type empty;
  }
  glass1
  {
    type noSlip;
  }
  glass2
  {
    type noSlip;
  }
  sun
  {
    type noSlip;
  }
  heatsource1
  {
    type noSlip;
  }
  heatsource2
  {
    type noSlip;
  }
  Table_master
  {
    type noSlip;
  }
  Table_slave
  {
    type noSlip;
  }
  inlet
  {
    type fixedValue;
    value uniform (0.277164 -0.114805 0);
  }
  outlet
  {
    type zeroGradient;
  }
} 	// ************************************************************************* //

