// -*- C++ -*-
// File generated by PyFoam - sorry for the ugliness

FoamFile
{
 version 2.0;
 format ascii;
 class volScalarField;
 location "500";
 object T;
}

dimensions [ 0 0 0 1 0 0 0 ];

internalField nonuniform List<scalar> 459
(
  304.547
  304.261
  304.248
  304.246
  304.243
  304.239
  304.235
  304.23
  304.225
  304.218
  304.209
  304.196
  304.179
  304.16
  304.139
  303.856
  303.864
  303.87
  303.863
  303.829
  303.768
  303.718
  303.691
  303.676
  303.667
  303.662
  303.659
  303.662
  303.671
  303.687
  303.71
  303.714
  303.693
  303.688
  304.758
  304.324
  304.295
  304.297
  304.301
  304.302
  304.303
  304.3
  304.296
  304.288
  304.274
  304.251
  304.219
  304.179
  304.131
  304.086
  304.071
  303.866
  303.876
  303.877
  303.865
  303.837
  303.788
  303.736
  303.705
  303.683
  303.665
  303.652
  303.644
  303.645
  303.668
  303.717
  303.776
  303.752
  303.717
  303.693
  304.955
  304.397
  304.345
  304.354
  304.366
  304.377
  304.385
  304.39
  304.389
  304.383
  304.367
  304.337
  304.291
  304.229
  304.156
  304.084
  304.035
  303.892
  303.9
  303.9
  303.893
  303.877
  303.846
  303.766
  303.741
  303.724
  303.708
  303.688
  303.667
  303.654
  303.672
  303.749
  303.883
  303.826
  303.784
  303.807
  305.137
  304.482
  304.397
  304.409
  304.433
  304.456
  304.477
  304.494
  304.503
  304.504
  304.49
  304.458
  304.404
  304.327
  304.231
  304.125
  304.026
  303.96
  303.934
  303.951
  303.96
  303.964
  303.965
  303.963
  303.962
  303.959
  303.958
  303.957
  303.955
  303.954
  303.952
  303.95
  303.948
  303.943
  303.927
  303.908
  303.894
  305.303
  304.578
  304.458
  304.459
  304.491
  304.527
  304.562
  304.595
  304.621
  304.635
  304.633
  304.61
  304.562
  304.488
  304.394
  304.288
  304.183
  304.099
  304.046
  304.04
  304.044
  304.045
  304.04
  304.032
  304.024
  304.016
  304.008
  304.001
  303.993
  303.984
  303.977
  303.973
  303.969
  303.963
  303.951
  303.932
  303.91
  303.898
  303.887
  303.924
  305.446
  304.692
  304.551
  304.518
  304.541
  304.581
  304.626
  304.671
  304.713
  304.746
  304.763
  304.757
  304.725
  304.667
  304.585
  304.488
  304.388
  304.299
  304.232
  304.192
  304.175
  304.162
  304.146
  304.128
  304.111
  304.094
  304.076
  304.057
  304.036
  304.016
  304
  303.991
  303.986
  303.979
  303.965
  303.944
  303.922
  303.905
  303.891
  303.9
  305.568
  304.862
  304.74
  304.662
  304.628
  304.644
  304.681
  304.725
  304.772
  304.821
  304.854
  304.866
  304.856
  304.821
  304.763
  304.687
  304.6
  304.516
  304.444
  304.389
  304.35
  304.319
  304.291
  304.263
  304.235
  304.206
  304.173
  304.136
  304.095
  304.055
  304.025
  304.008
  304
  303.993
  303.981
  303.961
  303.932
  303.915
  303.903
  303.908
  305.763
  305.237
  305.123
  305.001
  304.888
  304.831
  304.817
  304.827
  304.852
  304.888
  304.917
  304.933
  304.935
  304.923
  304.894
  304.847
  304.784
  304.714
  304.646
  304.587
  304.539
  304.498
  304.462
  304.427
  304.39
  304.351
  304.305
  304.248
  304.18
  304.112
  304.059
  304.029
  304.017
  304.011
  304.003
  303.991
  303.976
  303.969
  303.983
  304.039
  306.032
  305.81
  305.571
  305.419
  305.266
  305.158
  305.087
  305.046
  305.026
  305.011
  305.002
  304.997
  304.99
  304.981
  304.965
  304.941
  304.906
  304.861
  304.811
  304.761
  304.714
  304.671
  304.631
  304.593
  304.554
  304.513
  304.465
  304.403
  304.313
  304.209
  304.121
  304.064
  304.042
  304.04
  304.046
  304.055
  304.065
  304.076
  304.086
  304.119
  303.356
  304.974
  305.097
  305.105
  305.09
  305.073
  305.059
  305.049
  305.038
  305.028
  305.018
  305.008
  304.996
  304.982
  304.963
  304.939
  304.91
  304.877
  304.842
  304.807
  304.772
  304.735
  304.698
  304.659
  304.614
  304.56
  304.487
  304.392
  304.281
  304.171
  304.092
  304.054
  304.035
  304.029
  304.029
  304.028
  304.012
  304.023
  303.698
  304.702
  304.917
  304.998
  305.024
  305.031
  305.03
  305.026
  305.021
  305.016
  305.009
  305.001
  304.993
  304.984
  304.973
  304.96
  304.943
  304.924
  304.902
  304.877
  304.85
  304.822
  304.793
  304.761
  304.724
  304.68
  304.624
  304.55
  304.457
  304.352
  304.251
  304.169
  304.109
  304.069
  304.043
  304.023
  304.008
  304.015
  303.871
  303.814
  303.81
  304.586
  304.861
  304.954
  304.977
  304.984
  304.986
  304.984
  304.98
  304.976
  304.971
  304.965
  304.959
  304.951
  304.943
  304.934
  304.924
  304.913
  304.9
  304.885
  304.869
  304.852
  304.832
  304.811
  304.786
  304.758
  304.724
  304.682
  304.628
  304.562
  304.484
  304.398
  304.309
  304.22
  304.137
  304.063
  304.02
  304.07
)
;

boundaryField
{
  floor
  {
    type wallHeatTransfer;
    Tinf uniform 305.2;
    alphaWall uniform 0.24;
    value nonuniform List<scalar> 29
(
  304.272
  304.148
  304.128
  304.146
  304.155
  304.158
  304.156
  304.155
  304.151
  304.146
  304.144
  304.142
  304.138
  304.12
  304.083
  304.04
  304.008
  303.984
  303.971
  304.013
  304.013
  304.004
  304.026
  304.062
  304.272
  304.148
  304.091
  304.077
  304.113
)
;
  }
  ceiling
  {
    type wallHeatTransfer;
    Tinf uniform 303.2;
    alphaWall uniform 0.24;
    value nonuniform List<scalar> 43
(
  303.836
  303.787
  303.787
  304.524
  304.782
  304.863
  304.876
  304.874
  304.866
  304.855
  304.842
  304.83
  304.817
  304.805
  304.793
  304.782
  304.772
  304.763
  304.754
  304.744
  304.733
  304.721
  304.706
  304.69
  304.672
  304.653
  304.632
  304.607
  304.577
  304.54
  304.492
  304.433
  304.362
  304.284
  304.202
  304.12
  304.041
  303.968
  303.926
  303.982
  305.902
  305.705
  303.684
)
;
  }
  sWall
  {
    type wallHeatTransfer;
    Tinf uniform 315.2;
    alphaWall uniform 0.36;
    value uniform 304.741;
  }
  nWall
  {
    type wallHeatTransfer;
    Tinf uniform 307.2;
    alphaWall uniform 0.36;
    value nonuniform List<scalar> 6
(
  304.527
  304.481
  304.416
  304.43
  304.448
  304.522
)
;
  }
  sideWalls
  {
    type empty;
  }
  glass1
  {
    type wallHeatTransfer;
    Tinf uniform 315.2;
    alphaWall uniform 4.3;
    value nonuniform List<scalar> 9
(
  312.623
  311.757
  311.194
  310.774
  310.46
  310.213
  310.027
  310.095
  310.312
)
;
  }
  glass2
  {
    type wallHeatTransfer;
    Tinf uniform 307.2;
    alphaWall uniform 4.3;
    value nonuniform List<scalar> 2
(
  306.174
  306.124
)
;
  }
  sun
  {
    type wallHeatTransfer;
    Tinf uniform 305.2;
    alphaWall uniform 0.24;
    value nonuniform List<scalar> 14
(
  304.642
  304.394
  304.39
  304.384
  304.378
  304.372
  304.365
  304.358
  304.351
  304.342
  304.332
  304.319
  304.304
  304.288
)
;
  }
  heatsource1
  {
    type fixedGradient;
    gradient uniform 0;
  }
  heatsource2
  {
    type fixedGradient;
    gradient uniform 0;
  }
  Table_master
  {
    type zeroGradient;
  }
  Table_slave
  {
    type zeroGradient;
  }
  inlet
  {
    type fixedValue;
    value uniform 296.15;
  }
  outlet
  {
    type zeroGradient;
  }
} 	// ************************************************************************* //

