/*--------------------------------*- C++ -*----------------------------------*\
  =========                 |
  \\      /  F ield         | OpenFOAM: The Open Source CFD Toolbox
   \\    /   O peration     | Website:  https://openfoam.org
    \\  /    A nd           | Version:  6
     \\/     M anipulation  |
\*---------------------------------------------------------------------------*/
FoamFile
{
    version     2.0;
    format      ascii;
    class       volScalarField;
    location    "1600";
    object      epsilon;
}
// * * * * * * * * * * * * * * * * * * * * * * * * * * * * * * * * * * * * * //

dimensions      [0 2 -3 0 0 0 0];

internalField   nonuniform List<scalar> 
459
(
0.000290319
0.000368268
0.000386999
0.000443526
0.000499205
0.000554132
0.000609925
0.000669275
0.000728614
0.000772989
0.00079138
0.000774062
0.000719279
0.000639578
0.000555842
3.22937e-05
6.34591e-05
7.62315e-05
6.99271e-05
6.13914e-05
5.29297e-05
4.50362e-05
3.84248e-05
3.30811e-05
2.87833e-05
2.53125e-05
2.24843e-05
2.01441e-05
1.818e-05
1.64663e-05
1.48667e-05
1.32093e-05
1.1577e-05
8.70687e-06
0.000773297
0.00124718
0.000350379
0.000339003
0.000351499
0.000370768
0.000398613
0.00043952
0.000492513
0.000544477
0.000579549
0.00058263
0.000547388
0.000487353
0.000456238
0.000586801
0.00017849
7.21664e-05
0.000107039
9.83139e-05
8.23316e-05
6.6243e-05
5.30934e-05
4.53999e-05
3.72926e-05
3.04656e-05
2.5001e-05
2.06839e-05
1.72695e-05
1.45305e-05
1.23681e-05
1.07678e-05
1.00437e-05
1.02368e-05
1.84683e-05
1.42412e-05
0.00147273
0.00332393
0.000441948
0.000317378
0.000326094
0.000355173
0.000398774
0.000460524
0.000538612
0.000615574
0.000668657
0.000682475
0.0006529
0.000592667
0.000530675
0.000498932
0.000531088
0.000352342
0.000219874
0.000151529
0.000109253
8.17913e-05
6.53321e-05
0.000110452
8.07258e-05
6.06578e-05
4.67684e-05
3.68861e-05
2.96663e-05
2.42775e-05
2.02445e-05
1.73304e-05
1.32323e-05
1.13507e-05
2.80493e-05
1.94274e-05
0.00250163
0.0072788
0.000745238
0.000311616
0.000304078
0.000341112
0.000399545
0.000488175
0.000604291
0.000707711
0.000769425
0.000781628
0.000745652
0.000675635
0.000586033
0.000507596
0.000464167
0.000803039
0.000435301
0.000250318
0.000160504
0.000111124
8.20189e-05
6.78536e-05
0.000146408
0.000115082
9.52401e-05
8.12699e-05
7.01171e-05
6.09951e-05
5.27989e-05
4.48765e-05
3.65685e-05
2.20023e-05
1.47466e-05
3.92607e-05
2.45562e-05
0.00400252
0.0134375
0.00160989
0.000362507
0.000289038
0.000322298
0.00039807
0.00055134
0.000737864
0.000864629
0.000920605
0.000916772
0.000860215
0.000763199
0.000638218
0.000505058
0.000383102
0.000304573
0.000229041
0.000167824
0.000122685
9.17931e-05
7.18393e-05
6.05674e-05
5.92014e-05
5.68336e-05
5.40914e-05
5.07366e-05
4.66064e-05
4.21134e-05
3.75219e-05
3.30265e-05
2.87061e-05
2.26254e-05
1.71244e-05
3.18501e-05
2.4912e-05
5.43545e-05
0.000100564
0.000137464
0.00618182
0.0203063
0.00397536
0.000749982
0.000415808
0.000392344
0.000473035
0.000796607
0.00103165
0.00113404
0.00115083
0.00111096
0.00102319
0.000890692
0.000723522
0.000544891
0.00038415
0.000267872
0.000193266
0.000141774
0.000104698
8.03501e-05
6.62697e-05
5.97261e-05
5.85159e-05
5.91638e-05
5.93156e-05
5.79022e-05
5.44121e-05
4.86009e-05
4.18152e-05
3.49949e-05
2.88051e-05
2.34652e-05
2.01271e-05
2.61157e-05
2.58276e-05
3.76397e-05
0.000185023
0.000149666
0.00894187
0.0244411
0.00892903
0.00298621
0.00167035
0.00124744
0.00129521
0.00154092
0.00161317
0.00157931
0.00149819
0.00138786
0.00124234
0.00105459
0.000832764
0.000604927
0.000404408
0.000261217
0.000173365
0.000122011
9.08274e-05
7.37385e-05
6.64177e-05
6.51461e-05
6.72696e-05
7.05181e-05
7.31605e-05
7.44227e-05
7.35277e-05
6.92654e-05
6.08451e-05
5.17402e-05
4.29718e-05
3.54932e-05
3.2385e-05
3.59322e-05
4.35177e-05
7.05009e-05
0.000186687
0.000173407
0.00968103
0.0280143
0.0151214
0.00994758
0.0067649
0.00482858
0.00380766
0.00307823
0.00257161
0.00222245
0.00196626
0.00174406
0.00150873
0.00123689
0.000937361
0.000647678
0.000399825
0.000235304
0.000141712
0.000103468
8.52114e-05
7.7272e-05
7.51777e-05
7.64296e-05
7.97418e-05
8.42921e-05
8.96198e-05
9.56905e-05
0.000102473
0.000109525
0.000114366
0.000114948
0.000115984
0.000120345
0.000135836
0.000195963
0.000360529
0.000752505
0.00267569
0.000782985
0.00906598
0.0156765
0.0127163
0.00964668
0.00734194
0.00568231
0.00450994
0.00370548
0.00315789
0.00276599
0.00244456
0.002127
0.00177149
0.00137088
0.000958182
0.00060193
0.000308957
0.000181106
0.000126702
0.000105286
9.65267e-05
9.31425e-05
9.21729e-05
9.25361e-05
9.40962e-05
9.71054e-05
0.000102048
0.000109637
0.000120804
0.000136766
0.000159159
0.000190505
0.000237526
0.0003123
0.000427612
0.000593987
0.000799394
0.000995062
0.00113551
0.000704771
0.00406508
0.00627675
0.00596394
0.0053876
0.00487198
0.00436159
0.00385329
0.00335927
0.00286057
0.00232901
0.00175969
0.00117118
0.00061249
0.00033208
0.000204749
0.00015987
0.00014551
0.000142289
0.000140464
0.000137665
0.000133365
0.000127608
0.000121095
0.000115003
0.000110818
0.000110181
0.000114812
0.000126617
0.000146991
0.000178217
0.000224626
0.000292431
0.000386699
0.000503609
0.000619559
0.00069457
0.000698529
0.000481333
0.00271663
0.00590806
0.0058993
0.00501998
0.00446834
0.00411422
0.003675
0.00317818
0.00259231
0.00192582
0.00130736
0.00082244
0.0005056
0.000361261
0.000311572
0.000306071
0.000313923
0.000320611
0.000321932
0.000316913
0.000305895
0.000288863
0.000267019
0.000242728
0.000219024
0.00019896
0.000185093
0.000179446
0.00018433
0.000201403
0.000233297
0.000283261
0.000352351
0.000434623
0.000504974
0.000597457
0.000697529
0.000522504
0.00256391
0.00233516
0.00246037
0.00292918
0.0025272
0.00212259
0.00178129
0.00150034
0.00133414
0.00118991
0.00102014
0.000835693
0.000646139
0.000472385
0.000346953
0.000274124
0.000235686
0.000214654
0.000201287
0.000191325
0.000182921
0.000174941
0.000166378
0.000157954
0.000150676
0.000145589
0.000143594
0.000145418
0.000151754
0.000163001
0.000178652
0.000199383
0.000226619
0.000262327
0.000308376
0.000368833
0.00040091
0.000378141
0.000324502
0.000278741
)
;

boundaryField
{
    floor
    {
        Cmu             0.09;
        kappa           0.41;
        E               9.8;
        type            epsilonWallFunction;
        value           nonuniform List<scalar> 
29
(
0.000555842
3.22937e-05
6.34591e-05
7.62315e-05
6.99271e-05
6.13914e-05
5.29297e-05
4.50362e-05
3.84248e-05
3.30811e-05
2.87833e-05
2.53125e-05
2.24843e-05
2.01441e-05
1.818e-05
1.64663e-05
1.48667e-05
1.32093e-05
1.1577e-05
8.70687e-06
8.70687e-06
1.42412e-05
1.94274e-05
2.45562e-05
0.000555842
3.22937e-05
7.21664e-05
0.000352342
0.000803039
)
;
    }
    ceiling
    {
        Cmu             0.09;
        kappa           0.41;
        E               9.8;
        type            epsilonWallFunction;
        value           nonuniform List<scalar> 
43
(
0.00256391
0.00233516
0.00246037
0.00292918
0.0025272
0.00212259
0.00178129
0.00150034
0.00133414
0.00118991
0.00102014
0.000835693
0.000646139
0.000472385
0.000346953
0.000274124
0.000235686
0.000214654
0.000201287
0.000191325
0.000182921
0.000174941
0.000166378
0.000157954
0.000150676
0.000145589
0.000143594
0.000145418
0.000151754
0.000163001
0.000178652
0.000199383
0.000226619
0.000262327
0.000308376
0.000368833
0.00040091
0.000378141
0.000324502
0.000278741
0.00906598
0.0156765
0.00271663
)
;
    }
    sWall
    {
        Cmu             0.09;
        kappa           0.41;
        E               9.8;
        type            epsilonWallFunction;
        value           uniform 0.00256391;
    }
    nWall
    {
        Cmu             0.09;
        kappa           0.41;
        E               9.8;
        type            epsilonWallFunction;
        value           nonuniform List<scalar> 6(0.000137464 0.000149666 0.000173407 0.000481333 0.000522504 0.000278741);
    }
    sideWalls
    {
        type            empty;
    }
    glass1
    {
        Cmu             0.09;
        kappa           0.41;
        E               9.8;
        type            epsilonWallFunction;
        value           nonuniform List<scalar> 9(0.000290319 0.000773297 0.00147273 0.00250163 0.00400252 0.00618182 0.00894187 0.00968103 0.00906598);
    }
    glass2
    {
        Cmu             0.09;
        kappa           0.41;
        E               9.8;
        type            epsilonWallFunction;
        value           nonuniform List<scalar> 2(0.000782985 0.000704771);
    }
    sun
    {
        Cmu             0.09;
        kappa           0.41;
        E               9.8;
        type            epsilonWallFunction;
        value           nonuniform List<scalar> 
14
(
0.000290319
0.000368268
0.000386999
0.000443526
0.000499205
0.000554132
0.000609925
0.000669275
0.000728614
0.000772989
0.00079138
0.000774062
0.000719279
0.000639578
)
;
    }
    heatsource1
    {
        Cmu             0.09;
        kappa           0.41;
        E               9.8;
        type            epsilonWallFunction;
        value           nonuniform List<scalar> 3(5.43545e-05 0.000100564 0.000137464);
    }
    heatsource2
    {
        Cmu             0.09;
        kappa           0.41;
        E               9.8;
        type            epsilonWallFunction;
        value           nonuniform List<scalar> 4(0.000586801 0.00017849 0.00017849 0.000531088);
    }
    Table_master
    {
        Cmu             0.09;
        kappa           0.41;
        E               9.8;
        type            epsilonWallFunction;
        value           nonuniform List<scalar> 9(0.000110452 8.07258e-05 6.06578e-05 4.67684e-05 3.68861e-05 2.96663e-05 2.42775e-05 2.02445e-05 1.73304e-05);
    }
    Table_slave
    {
        Cmu             0.09;
        kappa           0.41;
        E               9.8;
        type            epsilonWallFunction;
        value           nonuniform List<scalar> 9(0.000146408 0.000115082 9.52401e-05 8.12699e-05 7.01171e-05 6.09951e-05 5.27989e-05 4.48765e-05 3.65685e-05);
    }
    inlet
    {
        type            turbulentMixingLengthDissipationRateInlet;
        mixingLength    0.01;
        phi             phi;
        k               k;
        value           uniform 0.000101881;
    }
    outlet
    {
        type            zeroGradient;
    }
}


// ************************************************************************* //
