// -*- C++ -*-
// File generated by PyFoam - sorry for the ugliness

FoamFile
{
 version 2.0;
 format ascii;
 class volVectorField;
 location "400";
 object U;
}

dimensions [ 0 1 -1 0 0 0 0 ];

internalField nonuniform List<vector> 459
(
  (0.0810706 0.0746995 0)
  (-0.147838 0.00986013 0)
  (-0.147359 0.0121797 0)
  (-0.171938 0.0106934 0)
  (-0.193973 0.00803628 0)
  (-0.212772 0.00486453 0)
  (-0.227508 0.00124727 0)
  (-0.23738 -0.00289792 0)
  (-0.241433 -0.007715 0)
  (-0.238356 -0.0134153 0)
  (-0.226433 -0.0205774 0)
  (-0.202887 -0.029696 0)
  (-0.16623 -0.0424939 0)
  (-0.125792 -0.0625911 0)
  (-0.115265 -0.0905935 0)
  (0.0768675 -0.0350286 0)
  (0.0421027 -0.0217463 0)
  (0.0539964 -0.0128151 0)
  (0.0672768 -0.00839913 0)
  (0.0748579 -0.00616867 0)
  (0.0794428 -0.00432537 0)
  (0.0820326 -0.00214041 0)
  (0.0819504 -0.000799454 0)
  (0.0802605 -0.000277653 0)
  (0.0782384 -0.000130666 0)
  (0.0763544 -0.00010018 0)
  (0.0745672 -9.58095e-05 0)
  (0.0727153 -3.47631e-05 0)
  (0.0705333 0.000253207 0)
  (0.067416 0.00114418 0)
  (0.0621462 0.00313801 0)
  (0.0534571 0.00520708 0)
  (0.0467923 0.00639035 0)
  (-0.0172475 0.0230157 0)
  (0.286748 0.160664 0)
  (-0.164173 0.0353707 0)
  (-0.128712 0.0394434 0)
  (-0.158453 0.0366851 0)
  (-0.181395 0.0325372 0)
  (-0.200787 0.0274808 0)
  (-0.216178 0.0213755 0)
  (-0.226963 0.0139285 0)
  (-0.232289 0.00479332 0)
  (-0.230957 -0.00638113 0)
  (-0.222225 -0.0192416 0)
  (-0.205169 -0.0336159 0)
  (-0.180725 -0.0506997 0)
  (-0.154545 -0.0727074 0)
  (-0.131791 -0.0927151 0)
  (-0.0965439 -0.0787328 0)
  (-0.0595881 -0.0556517 0)
  (0.0776694 -0.0452218 0)
  (0.0249617 -0.0239048 0)
  (0.0354621 -0.0119214 0)
  (0.0471511 -0.00866884 0)
  (0.0552178 -0.00782481 0)
  (0.0615196 -0.0057749 0)
  (0.0660316 -3.91979e-05 0)
  (0.0669002 0.00314065 0)
  (0.0665747 0.00411054 0)
  (0.0665128 0.00425832 0)
  (0.0667139 0.00423452 0)
  (0.0669027 0.00423349 0)
  (0.066977 0.00441466 0)
  (0.066893 0.00511686 0)
  (0.0661158 0.00721168 0)
  (0.0622156 0.0132232 0)
  (0.0522632 0.0180498 0)
  (0.0505025 0.020139 0)
  (-0.0629743 0.0491898 0)
  (0.46639 0.245139 0)
  (-0.208826 0.0675176 0)
  (-0.101842 0.0678322 0)
  (-0.137482 0.0592464 0)
  (-0.158574 0.0509462 0)
  (-0.176872 0.0415504 0)
  (-0.19183 0.0304878 0)
  (-0.202936 0.0173669 0)
  (-0.209319 0.00195858 0)
  (-0.209647 -0.0156081 0)
  (-0.203421 -0.0351708 0)
  (-0.19112 -0.0559571 0)
  (-0.174564 -0.0773796 0)
  (-0.156709 -0.0982921 0)
  (-0.136874 -0.112797 0)
  (-0.113125 -0.113998 0)
  (-0.112423 -0.121608 0)
  (0.0377116 -0.0473564 0)
  (-0.00559831 -0.0359716 0)
  (0.0122695 -0.0240638 0)
  (0.0254529 -0.0197483 0)
  (0.035793 -0.0177809 0)
  (0.0439845 -0.0162326 0)
  (0.0515213 -0.0103745 0)
  (0.0509719 -0.00624907 0)
  (0.0501014 -0.00434457 0)
  (0.0510808 -0.00349814 0)
  (0.0528811 -0.00304929 0)
  (0.054724 -0.00275815 0)
  (0.0565848 -0.00244168 0)
  (0.0590074 -0.00173788 0)
  (0.0632568 0.00135189 0)
  (0.0623324 0.0188108 0)
  (0.0490288 0.0301601 0)
  (0.0583891 0.0356875 0)
  (-0.10381 0.0753424 0)
  (0.617685 0.315644 0)
  (-0.262097 0.102597 0)
  (-0.0683462 0.0938831 0)
  (-0.111386 0.0801642 0)
  (-0.127923 0.0696199 0)
  (-0.143245 0.0579834 0)
  (-0.156426 0.0442072 0)
  (-0.166958 0.0276074 0)
  (-0.173866 0.00766586 0)
  (-0.175455 -0.0155897 0)
  (-0.171037 -0.0409848 0)
  (-0.162455 -0.066512 0)
  (-0.151947 -0.0901765 0)
  (-0.141984 -0.109807 0)
  (-0.133814 -0.122124 0)
  (-0.1314 -0.124929 0)
  (-0.139021 -0.109955 0)
  (-0.116514 -0.0430719 0)
  (-0.0525567 -0.0634362 0)
  (-0.0274497 -0.0572958 0)
  (-0.00575361 -0.0424815 0)
  (0.00925104 -0.0325745 0)
  (0.0191595 -0.027191 0)
  (0.0254176 -0.0227271 0)
  (0.0340245 -0.0163667 0)
  (0.0487918 -0.0136276 0)
  (0.0621066 -0.0118525 0)
  (0.0733632 -0.0102784 0)
  (0.0824814 -0.00837109 0)
  (0.0886122 -0.00581946 0)
  (0.0902407 -0.00254388 0)
  (0.0854611 0.00180855 0)
  (0.0724263 0.00776183 0)
  (0.0573661 0.0287883 0)
  (0.0416167 0.0459486 0)
  (0.0653662 0.0573707 0)
  (-0.151772 0.0974467 0)
  (0.741167 0.373354 0)
  (-0.312386 0.137387 0)
  (-0.0317661 0.111487 0)
  (-0.0815379 0.0951608 0)
  (-0.0920683 0.0836 0)
  (-0.10267 0.0705436 0)
  (-0.112203 0.0547926 0)
  (-0.120325 0.035472 0)
  (-0.126182 0.0118364 0)
  (-0.12742 -0.0161429 0)
  (-0.122988 -0.0461586 0)
  (-0.116101 -0.0744659 0)
  (-0.108858 -0.0982982 0)
  (-0.103065 -0.11623 0)
  (-0.099691 -0.127597 0)
  (-0.0992984 -0.132175 0)
  (-0.096696 -0.125126 0)
  (-0.0802018 -0.0984006 0)
  (-0.0515878 -0.0941617 0)
  (-0.0291498 -0.080814 0)
  (-0.0117647 -0.058292 0)
  (-0.000788113 -0.0445413 0)
  (0.00838107 -0.0359888 0)
  (0.015914 -0.0295806 0)
  (0.0252389 -0.0228017 0)
  (0.0363383 -0.0191935 0)
  (0.0469751 -0.0170472 0)
  (0.0567434 -0.0147311 0)
  (0.0653669 -0.0111307 0)
  (0.072083 -0.0053999 0)
  (0.0758864 0.00268185 0)
  (0.0746572 0.0122685 0)
  (0.0684082 0.0235299 0)
  (0.0592902 0.0408614 0)
  (0.0445193 0.0601771 0)
  (0.073056 0.0805216 0)
  (-0.0430177 0.111203 0)
  (0.0455726 0.0193106 0)
  (-0.0738897 -0.0402676 0)
  (-0.289833 -0.0640739 0)
  (0.825076 0.424358 0)
  (-0.354237 0.167058 0)
  (-0.00181994 0.114117 0)
  (-0.0476249 0.104198 0)
  (-0.0528338 0.0925572 0)
  (-0.0583272 0.0783624 0)
  (-0.0628921 0.0614799 0)
  (-0.0667708 0.0407963 0)
  (-0.0698424 0.015036 0)
  (-0.0678027 -0.0169173 0)
  (-0.0618451 -0.0512062 0)
  (-0.0564907 -0.0808733 0)
  (-0.0527245 -0.103513 0)
  (-0.0514024 -0.119027 0)
  (-0.0528167 -0.128008 0)
  (-0.0561805 -0.130444 0)
  (-0.0572498 -0.125212 0)
  (-0.0514494 -0.116129 0)
  (-0.037084 -0.113743 0)
  (-0.0238382 -0.0975408 0)
  (-0.0123452 -0.0683611 0)
  (-0.00692403 -0.0525364 0)
  (-0.00119163 -0.0430842 0)
  (0.00444826 -0.0365062 0)
  (0.0109949 -0.031538 0)
  (0.018546 -0.0287277 0)
  (0.0263842 -0.0267943 0)
  (0.0342679 -0.0243279 0)
  (0.0420344 -0.0200433 0)
  (0.0493433 -0.0126333 0)
  (0.0558236 -0.00117345 0)
  (0.0594328 0.0128655 0)
  (0.0593351 0.0279467 0)
  (0.0583828 0.0453965 0)
  (0.0536589 0.0648987 0)
  (0.0811789 0.0892438 0)
  (0.0475632 0.106892 0)
  (0.0984133 0.069315 0)
  (0.123979 0.0448372 0)
  (-0.144095 -0.0134175 0)
  (0.846957 0.470123 0)
  (-0.373792 0.161977 0)
  (0.01738 0.0757246 0)
  (0.00162764 0.106102 0)
  (-0.00440441 0.103377 0)
  (-0.00863748 0.0837415 0)
  (-0.00910727 0.0635429 0)
  (-0.00782117 0.0419574 0)
  (-0.00733192 0.0149959 0)
  (0.00504401 -0.0228904 0)
  (0.0122824 -0.0581296 0)
  (0.0143569 -0.0852229 0)
  (0.0127844 -0.104359 0)
  (0.00792185 -0.116625 0)
  (0.000114961 -0.12332 0)
  (-0.0092672 -0.124951 0)
  (-0.0171894 -0.122436 0)
  (-0.0225492 -0.120347 0)
  (-0.0190688 -0.123356 0)
  (-0.0160675 -0.107308 0)
  (-0.0106822 -0.0724177 0)
  (-0.0116237 -0.0553545 0)
  (-0.0107258 -0.0460765 0)
  (-0.00933343 -0.0403517 0)
  (-0.00703302 -0.0367017 0)
  (-0.00383138 -0.0346606 0)
  (8.35977e-05 -0.033275 0)
  (0.00462034 -0.0313786 0)
  (0.00981559 -0.0277122 0)
  (0.0159347 -0.0207328 0)
  (0.0234566 -0.00870077 0)
  (0.0341345 0.00835349 0)
  (0.0408376 0.0252354 0)
  (0.0478302 0.0417954 0)
  (0.0541085 0.0582152 0)
  (0.0801034 0.07833 0)
  (0.0906415 0.0840644 0)
  (0.128294 0.0530409 0)
  (0.171545 0.0420093 0)
  (-0.0312379 0.0967211 0)
  (0.945182 0.488621 0)
  (-0.137773 0.14465 0)
  (0.0810188 0.00732643 0)
  (0.118941 0.045499 0)
  (0.0943594 0.0724416 0)
  (0.0753674 0.0627116 0)
  (0.0710766 0.0418329 0)
  (0.0739749 0.0191839 0)
  (0.0788089 -0.00998688 0)
  (0.0949205 -0.0384523 0)
  (0.0989201 -0.0632067 0)
  (0.0942588 -0.0829512 0)
  (0.0842151 -0.0971471 0)
  (0.070483 -0.106096 0)
  (0.0543332 -0.110688 0)
  (0.0371217 -0.112007 0)
  (0.0206697 -0.11152 0)
  (0.00450702 -0.113066 0)
  (-0.00118129 -0.123094 0)
  (-0.00837186 -0.110079 0)
  (-0.00818117 -0.0705 0)
  (-0.0162603 -0.0530799 0)
  (-0.0210302 -0.0445846 0)
  (-0.0246678 -0.0397779 0)
  (-0.0274019 -0.0370749 0)
  (-0.0294078 -0.0357453 0)
  (-0.0308633 -0.0349857 0)
  (-0.0317689 -0.0339193 0)
  (-0.0319011 -0.0316677 0)
  (-0.0307724 -0.0273553 0)
  (-0.0272513 -0.0201102 0)
  (-0.0174125 -0.00893963 0)
  (-0.00112284 0.00633007 0)
  (0.011456 0.0202593 0)
  (0.0235823 0.0291359 0)
  (0.0466731 0.0380935 0)
  (0.0654396 0.028841 0)
  (0.0839945 -0.00538248 0)
  (0.146205 0.0455897 0)
  (-0.468588 0.226356 0)
  (1.07406 0.4505 0)
  (0.518514 0.300516 0)
  (0.517712 0.234693 0)
  (0.483474 0.197228 0)
  (0.397439 0.171186 0)
  (0.322844 0.133388 0)
  (0.279421 0.0917408 0)
  (0.256077 0.0532441 0)
  (0.243912 0.0183188 0)
  (0.225 -0.0148493 0)
  (0.202915 -0.0426309 0)
  (0.179118 -0.063321 0)
  (0.154128 -0.0771903 0)
  (0.128291 -0.0854466 0)
  (0.102103 -0.0895416 0)
  (0.0761557 -0.0909375 0)
  (0.0511164 -0.0914536 0)
  (0.0260061 -0.095074 0)
  (0.0139385 -0.1105 0)
  (-0.00330281 -0.103056 0)
  (-0.00608566 -0.0609083 0)
  (-0.021473 -0.0454728 0)
  (-0.0321856 -0.0391655 0)
  (-0.0407618 -0.0357328 0)
  (-0.0485317 -0.0337148 0)
  (-0.056074 -0.0325691 0)
  (-0.063733 -0.0316354 0)
  (-0.0717554 -0.0301027 0)
  (-0.0803556 -0.0270678 0)
  (-0.0898335 -0.0215888 0)
  (-0.100619 -0.0127532 0)
  (-0.112899 0.000117702 0)
  (-0.12464 0.0163764 0)
  (-0.13943 0.0347091 0)
  (-0.16608 0.0543867 0)
  (-0.206431 0.073779 0)
  (-0.264817 0.087595 0)
  (-0.330633 0.0931219 0)
  (-0.403149 0.0914765 0)
  (-0.673134 0.0829713 0)
  (-0.230995 0.105959 0)
  (0.174986 0.178977 0)
  (0.262161 0.172842 0)
  (0.258275 0.141392 0)
  (0.25899 0.101526 0)
  (0.261813 0.061574 0)
  (0.260188 0.0262893 0)
  (0.251626 -0.00257884 0)
  (0.234997 -0.0244726 0)
  (0.212689 -0.0399918 0)
  (0.186618 -0.0501706 0)
  (0.158369 -0.0560747 0)
  (0.129173 -0.0587271 0)
  (0.0997562 -0.0591311 0)
  (0.0702169 -0.0586609 0)
  (0.0396072 -0.0615155 0)
  (0.0242911 -0.0830223 0)
  (-0.00678834 -0.0800483 0)
  (-0.00999895 -0.0359888 0)
  (-0.030106 -0.0269688 0)
  (-0.0446129 -0.0252035 0)
  (-0.0556796 -0.0246338 0)
  (-0.0660722 -0.0244681 0)
  (-0.0766784 -0.0244506 0)
  (-0.0877392 -0.0241228 0)
  (-0.0992753 -0.0228307 0)
  (-0.111021 -0.0197349 0)
  (-0.122314 -0.0138746 0)
  (-0.132007 -0.0042977 0)
  (-0.138695 0.00970171 0)
  (-0.142494 0.0277102 0)
  (-0.145001 0.049921 0)
  (-0.148278 0.0744971 0)
  (-0.153374 0.0963556 0)
  (-0.156999 0.103723 0)
  (-0.13896 0.0745059 0)
  (-0.0827607 -0.0334314 0)
  (-0.291996 -0.233228 0)
  (-0.118118 0.259067 0)
  (0.0861141 0.188245 0)
  (0.106257 0.140028 0)
  (0.139628 0.114817 0)
  (0.175287 0.0851982 0)
  (0.202614 0.0560166 0)
  (0.217084 0.0329545 0)
  (0.219036 0.0176766 0)
  (0.211891 0.00718018 0)
  (0.197739 -0.000714464 0)
  (0.178762 -0.00634083 0)
  (0.156553 -0.00984826 0)
  (0.13231 -0.0113451 0)
  (0.106814 -0.0109736 0)
  (0.0802337 -0.00960863 0)
  (0.0519676 -0.0153695 0)
  (0.0331345 -0.0600239 0)
  (-0.0264371 -0.0573335 0)
  (-0.0341415 0.0179746 0)
  (-0.0505149 0.0329804 0)
  (-0.0626528 0.0309926 0)
  (-0.0719233 0.0313842 0)
  (-0.0803767 0.0324806 0)
  (-0.0884949 0.0327574 0)
  (-0.0963668 0.032362 0)
  (-0.103945 0.0316549 0)
  (-0.111022 0.0308453 0)
  (-0.117161 0.0299577 0)
  (-0.121365 0.0287425 0)
  (-0.121778 0.0303867 0)
  (-0.116127 0.0377969 0)
  (-0.103368 0.0518525 0)
  (-0.0843008 0.0716938 0)
  (-0.0607452 0.0915788 0)
  (-0.0362703 0.102559 0)
  (0.00864614 0.0838728 0)
  (0.144611 0.00550651 0)
  (-0.206697 -0.147375 0)
  (-0.171553 -0.375747 0)
  (-0.455379 -0.101234 0)
  (-0.329872 0.158942 0)
  (-0.174141 0.0643869 0)
  (-0.082381 0.037973 0)
  (0.0254422 0.0323509 0)
  (0.0914363 0.0102532 0)
  (0.140572 -0.0116046 0)
  (0.171235 -0.0310034 0)
  (0.184795 -0.0482422 0)
  (0.185743 -0.0628624 0)
  (0.177917 -0.0747738 0)
  (0.164018 -0.0853065 0)
  (0.146228 -0.0954891 0)
  (0.12624 -0.106261 0)
  (0.105401 -0.118587 0)
  (0.0846425 -0.13358 0)
  (0.0639319 -0.153301 0)
  (0.0405737 -0.181556 0)
  (-0.0552956 -0.180972 0)
  (-0.0679838 -0.166486 0)
  (-0.0750299 -0.161261 0)
  (-0.0828734 -0.157743 0)
  (-0.0914791 -0.153243 0)
  (-0.0994765 -0.147746 0)
  (-0.106665 -0.141294 0)
  (-0.113033 -0.133788 0)
  (-0.118354 -0.125051 0)
  (-0.122152 -0.114744 0)
  (-0.123707 -0.102256 0)
  (-0.121947 -0.0866241 0)
  (-0.114915 -0.069873 0)
  (-0.0992431 -0.0516916 0)
  (-0.0724439 -0.0313604 0)
  (-0.0362222 -0.00813673 0)
  (0.0266959 0.0208847 0)
  (0.0797551 0.0209847 0)
  (0.130782 -0.00357721 0)
  (0.182114 -0.0487599 0)
  (-0.164158 -0.120977 0)
)
;

boundaryField
{
  floor
  {
    type noSlip;
  }
  ceiling
  {
    type noSlip;
  }
  sWall
  {
    type noSlip;
  }
  nWall
  {
    type noSlip;
  }
  sideWalls
  {
    type empty;
  }
  glass1
  {
    type noSlip;
  }
  glass2
  {
    type noSlip;
  }
  sun
  {
    type noSlip;
  }
  heatsource1
  {
    type noSlip;
  }
  heatsource2
  {
    type noSlip;
  }
  Table_master
  {
    type noSlip;
  }
  Table_slave
  {
    type noSlip;
  }
  inlet
  {
    type fixedValue;
    value uniform (0.277164 -0.114805 0);
  }
  outlet
  {
    type zeroGradient;
  }
} 	// ************************************************************************* //

