// -*- C++ -*-
// File generated by PyFoam - sorry for the ugliness

FoamFile
{
 version 2.0;
 format ascii;
 class volScalarField;
 location "300";
 object T;
}

dimensions [ 0 0 0 1 0 0 0 ];

internalField nonuniform List<scalar> 459
(
  302.792
  302.462
  302.452
  302.453
  302.453
  302.453
  302.452
  302.452
  302.451
  302.45
  302.448
  302.444
  302.439
  302.432
  302.426
  302.306
  302.291
  302.296
  302.298
  302.297
  302.295
  302.292
  302.29
  302.287
  302.284
  302.281
  302.277
  302.273
  302.268
  302.263
  302.257
  302.251
  302.243
  302.251
  303.026
  302.491
  302.465
  302.469
  302.473
  302.478
  302.481
  302.484
  302.485
  302.485
  302.482
  302.474
  302.46
  302.441
  302.419
  302.399
  302.32
  302.303
  302.291
  302.298
  302.3
  302.297
  302.293
  302.285
  302.276
  302.266
  302.257
  302.247
  302.238
  302.229
  302.219
  302.211
  302.205
  302.2
  302.194
  302.226
  303.254
  302.54
  302.488
  302.497
  302.51
  302.522
  302.532
  302.541
  302.546
  302.548
  302.544
  302.531
  302.508
  302.476
  302.439
  302.405
  302.381
  302.312
  302.306
  302.312
  302.313
  302.307
  302.301
  302.29
  302.275
  302.259
  302.243
  302.227
  302.212
  302.198
  302.185
  302.175
  302.171
  302.169
  302.168
  302.211
  303.467
  302.604
  302.515
  302.527
  302.548
  302.569
  302.59
  302.607
  302.62
  302.626
  302.623
  302.606
  302.574
  302.53
  302.479
  302.428
  302.385
  302.358
  302.337
  302.331
  302.329
  302.325
  302.316
  302.308
  302.298
  302.291
  302.287
  302.284
  302.281
  302.277
  302.272
  302.266
  302.259
  302.229
  302.199
  302.176
  302.209
  303.664
  302.686
  302.546
  302.551
  302.579
  302.609
  302.64
  302.669
  302.693
  302.708
  302.709
  302.692
  302.654
  302.6
  302.539
  302.479
  302.428
  302.39
  302.364
  302.348
  302.339
  302.334
  302.324
  302.317
  302.311
  302.308
  302.306
  302.304
  302.301
  302.297
  302.291
  302.282
  302.27
  302.25
  302.22
  302.19
  302.198
  302.245
  302.276
  302.291
  303.832
  302.788
  302.601
  302.574
  302.6
  302.634
  302.671
  302.709
  302.745
  302.773
  302.784
  302.77
  302.729
  302.669
  302.6
  302.532
  302.471
  302.422
  302.385
  302.359
  302.345
  302.341
  302.332
  302.326
  302.324
  302.323
  302.323
  302.322
  302.32
  302.315
  302.307
  302.295
  302.28
  302.261
  302.235
  302.205
  302.197
  302.211
  302.219
  302.254
  303.962
  302.957
  302.757
  302.657
  302.638
  302.657
  302.689
  302.725
  302.764
  302.809
  302.835
  302.824
  302.783
  302.72
  302.648
  302.575
  302.508
  302.45
  302.402
  302.365
  302.348
  302.347
  302.339
  302.336
  302.336
  302.338
  302.339
  302.34
  302.338
  302.333
  302.323
  302.308
  302.289
  302.27
  302.247
  302.222
  302.208
  302.209
  302.214
  302.243
  304.189
  303.431
  303.214
  303.01
  302.87
  302.799
  302.778
  302.786
  302.809
  302.849
  302.864
  302.844
  302.799
  302.737
  302.667
  302.596
  302.529
  302.467
  302.413
  302.369
  302.35
  302.353
  302.346
  302.346
  302.348
  302.352
  302.355
  302.356
  302.355
  302.351
  302.343
  302.33
  302.307
  302.288
  302.271
  302.256
  302.252
  302.269
  302.293
  302.453
  304.504
  304.182
  303.909
  303.639
  303.405
  303.23
  303.112
  303.039
  302.999
  302.96
  302.904
  302.839
  302.771
  302.702
  302.636
  302.574
  302.516
  302.462
  302.413
  302.369
  302.352
  302.359
  302.354
  302.356
  302.361
  302.366
  302.37
  302.373
  302.374
  302.374
  302.374
  302.375
  302.38
  302.39
  302.411
  302.444
  302.487
  302.528
  302.555
  302.62
  297.918
  300.702
  301.989
  302.447
  302.623
  302.69
  302.709
  302.704
  302.685
  302.656
  302.62
  302.58
  302.54
  302.501
  302.463
  302.427
  302.393
  302.36
  302.354
  302.367
  302.362
  302.366
  302.373
  302.379
  302.385
  302.391
  302.397
  302.402
  302.408
  302.415
  302.422
  302.434
  302.453
  302.478
  302.507
  302.53
  302.54
  302.551
  298.415
  300.655
  301.576
  302.031
  302.257
  302.365
  302.411
  302.426
  302.431
  302.43
  302.425
  302.416
  302.405
  302.394
  302.382
  302.369
  302.356
  302.342
  302.357
  302.378
  302.374
  302.38
  302.386
  302.392
  302.397
  302.403
  302.409
  302.415
  302.421
  302.428
  302.435
  302.445
  302.46
  302.478
  302.498
  302.514
  302.505
  302.533
  299.771
  299.716
  299.713
  301.08
  301.629
  302.002
  302.135
  302.2
  302.234
  302.252
  302.262
  302.271
  302.28
  302.287
  302.294
  302.301
  302.307
  302.312
  302.318
  302.325
  302.364
  302.401
  302.406
  302.411
  302.415
  302.419
  302.422
  302.425
  302.428
  302.431
  302.434
  302.437
  302.442
  302.447
  302.455
  302.471
  302.481
  302.486
  302.486
  302.521
)
;

boundaryField
{
  floor
  {
    type wallHeatTransfer;
    Tinf uniform 305.2;
    alphaWall uniform 0.24;
    value nonuniform List<scalar> 29
(
  302.76
  302.794
  302.705
  302.717
  302.738
  302.751
  302.762
  302.78
  302.8
  302.819
  302.837
  302.855
  302.873
  302.89
  302.907
  302.925
  302.943
  302.964
  302.973
  303.014
  303.014
  302.869
  302.782
  302.732
  302.76
  302.794
  302.76
  302.689
  302.636
)
;
  }
  ceiling
  {
    type wallHeatTransfer;
    Tinf uniform 303.2;
    alphaWall uniform 0.24;
    value nonuniform List<scalar> 43
(
  299.99
  299.93
  299.92
  301.2
  301.722
  302.079
  302.207
  302.271
  302.307
  302.328
  302.341
  302.354
  302.366
  302.377
  302.388
  302.399
  302.409
  302.42
  302.43
  302.441
  302.479
  302.509
  302.51
  302.514
  302.517
  302.52
  302.522
  302.523
  302.523
  302.523
  302.522
  302.521
  302.521
  302.522
  302.526
  302.536
  302.545
  302.551
  302.554
  302.59
  304.445
  304.144
  298.689
)
;
  }
  sWall
  {
    type wallHeatTransfer;
    Tinf uniform 315.2;
    alphaWall uniform 0.36;
    value uniform 301.21;
  }
  nWall
  {
    type wallHeatTransfer;
    Tinf uniform 307.2;
    alphaWall uniform 0.36;
    value nonuniform List<scalar> 6
(
  303.133
  303.071
  302.976
  303.188
  303.166
  303.199
)
;
  }
  sideWalls
  {
    type empty;
  }
  glass1
  {
    type wallHeatTransfer;
    Tinf uniform 315.2;
    alphaWall uniform 4.3;
    value nonuniform List<scalar> 9
(
  312.131
  311.238
  310.632
  310.155
  309.781
  309.476
  309.216
  309.261
  309.482
)
;
  }
  glass2
  {
    type wallHeatTransfer;
    Tinf uniform 307.2;
    alphaWall uniform 4.3;
    value nonuniform List<scalar> 2
(
  305.28
  305.431
)
;
  }
  sun
  {
    type wallHeatTransfer;
    Tinf uniform 305.2;
    alphaWall uniform 0.24;
    value nonuniform List<scalar> 14
(
  303.134
  302.841
  302.84
  302.831
  302.822
  302.815
  302.809
  302.803
  302.797
  302.792
  302.786
  302.78
  302.773
  302.766
)
;
  }
  heatsource1
  {
    type fixedGradient;
    gradient uniform 0;
  }
  heatsource2
  {
    type fixedGradient;
    gradient uniform 0;
  }
  Table_master
  {
    type zeroGradient;
  }
  Table_slave
  {
    type zeroGradient;
  }
  inlet
  {
    type fixedValue;
    value uniform 293.15;
  }
  outlet
  {
    type zeroGradient;
  }
} 	// ************************************************************************* //

