/*--------------------------------*- C++ -*----------------------------------*\
  =========                 |
  \\      /  F ield         | OpenFOAM: The Open Source CFD Toolbox
   \\    /   O peration     | Website:  https://openfoam.org
    \\  /    A nd           | Version:  6
     \\/     M anipulation  |
\*---------------------------------------------------------------------------*/
FoamFile
{
    version     2.0;
    format      ascii;
    class       volScalarField;
    location    "800";
    object      alphat;
}
// * * * * * * * * * * * * * * * * * * * * * * * * * * * * * * * * * * * * * //

dimensions      [1 -1 -1 0 0 0 0];

internalField   nonuniform List<scalar> 
459
(
0.0019082
0.00247044
0.00244554
0.00234624
0.00224549
0.00215326
0.00206797
0.00198957
0.00191488
0.00184039
0.00176299
0.00167932
0.00158452
0.0014688
0.00132303
0.000277534
0.000292108
0.000298146
0.000275062
0.000254474
0.000242578
0.000231537
0.000204701
0.000192908
0.000187439
0.000191511
0.000202756
0.000222069
0.000251262
0.000289701
0.000328459
0.000351454
0.000357207
0.000320148
0.0024054
0.0035731
0.00390857
0.003875
0.00373625
0.00360865
0.00350336
0.00338478
0.00324512
0.0030917
0.00292824
0.00275099
0.00254106
0.0022396
0.0018062
0.00127869
0.00102339
0.000432214
0.000671216
0.000807406
0.000941831
0.00103203
0.000977878
0.000610741
0.000309276
0.000242951
0.000247964
0.000298009
0.00039323
0.000534192
0.000722564
0.000967637
0.00143344
0.00141889
0.00133916
0.000428829
0.00303687
0.00449528
0.00440198
0.00403408
0.00375909
0.00362371
0.00357768
0.00354285
0.00350503
0.00345053
0.00336584
0.0032357
0.00303752
0.00272341
0.00228516
0.00181251
0.00103917
0.000670944
0.00180673
0.00179356
0.00171673
0.00150695
0.00117894
0.000405946
0.000327264
0.000257368
0.000261224
0.000301355
0.000346434
0.000399557
0.000465565
0.000551935
0.00149568
0.00134988
0.00102674
0.000537499
0.00320469
0.00562101
0.00460912
0.00364812
0.00323317
0.00314561
0.00323517
0.00335622
0.00345593
0.00351214
0.00351242
0.00344332
0.0032835
0.00298862
0.00255516
0.00203946
0.00118258
0.000820924
0.00244265
0.00247193
0.00233465
0.0019468
0.00143236
0.000921475
0.000558064
0.0005781
0.000596442
0.000611474
0.000626132
0.000643665
0.000667643
0.000702271
0.000764206
0.00256313
0.00277739
0.00257272
0.000859198
0.00329585
0.00615257
0.00393116
0.00272426
0.0027004
0.00300744
0.00332022
0.00338192
0.00344895
0.00351848
0.00354845
0.00350576
0.00335793
0.00304028
0.00256459
0.00205125
0.00155048
0.00233223
0.00325565
0.00345276
0.00337386
0.00323862
0.0031219
0.00306262
0.00308169
0.00314548
0.00317027
0.00317165
0.00315762
0.00314742
0.00316563
0.00323
0.0033527
0.00358441
0.00362914
0.00349215
0.00289276
0.0012314
0.00110099
0.000964109
0.00336538
0.00583183
0.00282409
0.0025126
0.0036227
0.00387019
0.00380958
0.00354442
0.00348425
0.00350934
0.00351516
0.00344605
0.00326138
0.00292517
0.0024989
0.00213411
0.00216353
0.00346364
0.00408885
0.00418823
0.00419542
0.00420983
0.00423731
0.00427602
0.004313
0.00434254
0.00434592
0.00430613
0.00421751
0.00410477
0.00401495
0.00397832
0.003987
0.00400156
0.00398208
0.00388882
0.00359332
0.00299082
0.00232614
0.00105219
0.00344876
0.00485431
0.00227431
0.00229744
0.00364063
0.00375587
0.00361324
0.00350215
0.00344892
0.003434
0.0033975
0.00329232
0.00308871
0.00278771
0.00248425
0.00237408
0.00291525
0.00415888
0.00452322
0.00461622
0.00468869
0.00475343
0.0048067
0.00485356
0.0049046
0.00496675
0.00502877
0.00505418
0.00499451
0.00483726
0.00463787
0.0044544
0.0042949
0.0041299
0.00392084
0.00362195
0.00317617
0.00259702
0.00198328
0.00104032
0.00356683
0.00413834
0.00267423
0.00192095
0.0031768
0.00351164
0.00342407
0.00337539
0.00334852
0.00331868
0.00325855
0.00314175
0.00295729
0.00273415
0.00259042
0.00275929
0.00365035
0.00458169
0.00483999
0.00499236
0.00510488
0.00517495
0.00520849
0.00522791
0.00526224
0.00533926
0.00547469
0.00565248
0.00580176
0.00581997
0.0056944
0.00546676
0.00515789
0.00476925
0.00430623
0.003794
0.00329454
0.0028319
0.002445
0.00145929
0.00378162
0.00428838
0.00447874
0.0026449
0.0028377
0.0034655
0.00342948
0.00335115
0.00331888
0.00328611
0.00322902
0.00313196
0.00299614
0.00286515
0.00287261
0.00327477
0.00428482
0.00492513
0.00525429
0.00546234
0.00559423
0.00564186
0.00562849
0.00558985
0.00556225
0.00558033
0.00567974
0.00588934
0.00620797
0.00653479
0.0067604
0.00685433
0.00684521
0.00684202
0.00693982
0.00705803
0.00673706
0.00566947
0.0050553
0.00170086
0.00667419
0.00393695
0.00348798
0.00383962
0.00385213
0.00375959
0.00366055
0.00360208
0.00354921
0.00348028
0.0033966
0.00334482
0.00346829
0.00403016
0.00494412
0.00544249
0.00585405
0.00609397
0.0062191
0.00623355
0.00617601
0.00609138
0.0060161
0.00597743
0.00599829
0.00610044
0.00629712
0.00654903
0.00682992
0.00712256
0.00736767
0.00754757
0.0076857
0.00767758
0.00729161
0.00642614
0.00525278
0.00172177
0.00305323
0.00394319
0.00460686
0.00432511
0.00411173
0.00388443
0.00363094
0.00349878
0.00344195
0.00341386
0.0033897
0.00338216
0.00348655
0.00394563
0.00464765
0.00536903
0.00607566
0.00652329
0.00669829
0.00668633
0.00658847
0.00647915
0.00639933
0.0063638
0.00637158
0.00641442
0.00647755
0.00650636
0.00648943
0.00647966
0.00651721
0.00660647
0.00670028
0.00649664
0.00599264
0.00514104
0.00441044
0.00174064
0.00177493
0.00173634
0.00186772
0.00131842
0.00127034
0.00122745
0.0012163
0.00121783
0.00122905
0.00123559
0.00124107
0.00124534
0.00124664
0.0012422
0.001229
0.00123004
0.00125216
0.00129012
0.00133853
0.00140395
0.00146068
0.00149699
0.00151334
0.00151575
0.00151101
0.00150444
0.00149906
0.00149571
0.00149358
0.00149523
0.0014979
0.00149603
0.00148774
0.001471
0.00144077
0.0014121
0.00137493
0.00131145
0.00129021
0.00143255
)
;

boundaryField
{
    floor
    {
        type            compressible::alphatWallFunction;
        Prt             0.85;
        value           nonuniform List<scalar> 
29
(
0.000187207
3.40133e-05
3.64148e-05
3.74064e-05
3.36041e-05
3.01758e-05
2.81783e-05
2.63154e-05
2.17309e-05
1.96894e-05
1.87379e-05
1.94468e-05
2.13941e-05
2.47049e-05
2.9636e-05
3.6013e-05
4.23303e-05
4.60295e-05
4.69496e-05
4.09835e-05
4.09829e-05
5.8265e-05
7.49844e-05
0.000122364
0.000187205
3.40128e-05
5.88138e-05
9.4989e-05
0.000116878
)
;
    }
    ceiling
    {
        type            compressible::alphatWallFunction;
        Prt             0.85;
        value           nonuniform List<scalar> 
43
(
0.000248026
0.000242872
0.000260106
0.000186675
0.000180101
0.000174213
0.000172679
0.000172889
0.000174434
0.000175333
0.000176085
0.000176672
0.000176848
0.000176235
0.000174414
0.000174553
0.000177589
0.000182787
0.000189394
0.000198279
0.000205945
0.000210834
0.000213031
0.000213353
0.000212716
0.000211831
0.000211106
0.000210654
0.000210366
0.000210587
0.000210945
0.000210693
0.000209576
0.00020732
0.00020324
0.000199362
0.000194321
0.000185675
0.000182772
0.000202129
0.000501056
0.000562385
0.000411342
)
;
    }
    sWall
    {
        type            compressible::alphatWallFunction;
        Prt             0.85;
        value           uniform 0.000247095;
    }
    nWall
    {
        type            compressible::alphatWallFunction;
        Prt             0.85;
        value           nonuniform List<scalar> 6(0.000137156 0.000149551 0.00014789 0.000240508 0.000243004 0.000201831);
    }
    sideWalls
    {
        type            empty;
    }
    glass1
    {
        type            compressible::alphatWallFunction;
        Prt             0.85;
        value           nonuniform List<scalar> 9(0.000261111 0.000324857 0.000403778 0.000424423 0.000435567 0.000444023 0.000454138 0.00046844 0.00049441);
    }
    glass2
    {
        type            compressible::alphatWallFunction;
        Prt             0.85;
        value           nonuniform List<scalar> 2(0.00020471 0.000236941);
    }
    sun
    {
        type            compressible::alphatWallFunction;
        Prt             0.85;
        value           nonuniform List<scalar> 
14
(
0.000265347
0.000337898
0.00033472
0.000322028
0.000309094
0.000297198
0.000286151
0.00027595
0.000266193
0.00025642
0.00024622
0.000235137
0.000222506
0.000206972
)
;
    }
    heatsource1
    {
        type            compressible::alphatWallFunction;
        Prt             0.85;
        value           nonuniform List<scalar> 3(0.000174609 0.000156563 0.000137354);
    }
    heatsource2
    {
        type            compressible::alphatWallFunction;
        Prt             0.85;
        value           nonuniform List<scalar> 4(0.000181093 0.0001457 0.000145699 0.000147913);
    }
    Table_master
    {
        type            compressible::alphatWallFunction;
        Prt             0.85;
        value           nonuniform List<scalar> 9(5.47569e-05 4.221e-05 3.07245e-05 3.13674e-05 3.79931e-05 4.52966e-05 5.37453e-05 6.40446e-05 7.72474e-05);
    }
    Table_slave
    {
        type            compressible::alphatWallFunction;
        Prt             0.85;
        value           nonuniform List<scalar> 9(7.81862e-05 8.12067e-05 8.39595e-05 8.62078e-05 8.83937e-05 9.10004e-05 9.45515e-05 9.96527e-05 0.000108702);
    }
    inlet
    {
        type            fixedValue;
        value           uniform 1.94e-05;
    }
    outlet
    {
        type            zeroGradient;
    }
}


// ************************************************************************* //
