// -*- C++ -*-
// File generated by PyFoam - sorry for the ugliness

FoamFile
{
 version 2.0;
 format ascii;
 class volVectorField;
 location "530";
 object U;
}

dimensions [ 0 1 -1 0 0 0 0 ];

internalField nonuniform List<vector> 459
(
  (0.0079077 0.057645 0)
  (-0.113587 0.019969 0)
  (-0.136775 0.0121357 0)
  (-0.158606 0.006101 0)
  (-0.171586 -0.000312089 0)
  (-0.174137 -0.00723081 0)
  (-0.164512 -0.01488 0)
  (-0.142909 -0.0229094 0)
  (-0.111039 -0.0298374 0)
  (-0.0733055 -0.0340962 0)
  (-0.0355365 -0.0341765 0)
  (0.00244148 -0.0258811 0)
  (0.0239553 -0.0128709 0)
  (0.0302527 0.00108696 0)
  (0.0479527 0.0217697 0)
  (-0.0816065 0.00776004 0)
  (0.0188013 -0.00329042 0)
  (0.012237 -0.01251 0)
  (0.0274874 -0.0144826 0)
  (0.0437971 -0.0129199 0)
  (0.0578705 -0.00982512 0)
  (0.0672681 -0.00567425 0)
  (0.071984 -0.00328957 0)
  (0.0735929 -0.00241246 0)
  (0.0739588 -0.00209064 0)
  (0.073964 -0.00187131 0)
  (0.0736829 -0.00161917 0)
  (0.0729415 -0.00123605 0)
  (0.0713669 -0.000487101 0)
  (0.068109 0.00116794 0)
  (0.0614363 0.00463023 0)
  (0.04947 0.00973804 0)
  (0.017322 0.0182891 0)
  (0.0593347 0.00703803 0)
  (0.110694 0.118074 0)
  (-0.103687 0.053007 0)
  (-0.112071 0.0394474 0)
  (-0.134518 0.0274487 0)
  (-0.147882 0.0137136 0)
  (-0.151344 -0.00217432 0)
  (-0.143043 -0.0201789 0)
  (-0.123751 -0.0379597 0)
  (-0.095666 -0.0518123 0)
  (-0.0632446 -0.0585648 0)
  (-0.0315651 -0.0564203 0)
  (-0.00299516 -0.0433849 0)
  (0.0183548 -0.0232038 0)
  (0.0319321 -0.00261014 0)
  (0.0455578 0.0199774 0)
  (0.0456688 0.0242345 0)
  (0.0315304 0.0290739 0)
  (-0.0960987 0.00466628 0)
  (0.0256219 -0.0227806 0)
  (0.0299415 -0.0263865 0)
  (0.0419364 -0.026114 0)
  (0.054219 -0.0224839 0)
  (0.064309 -0.0166382 0)
  (0.0697346 -0.00676361 0)
  (0.0709163 -0.000873682 0)
  (0.0707234 0.00138044 0)
  (0.0707557 0.00223654 0)
  (0.0710185 0.00276049 0)
  (0.0712021 0.00322012 0)
  (0.0712103 0.0038724 0)
  (0.0709967 0.00522243 0)
  (0.0699591 0.00843775 0)
  (0.0653444 0.0168054 0)
  (0.0551666 0.0257915 0)
  (0.0213299 0.0365697 0)
  (0.0995631 0.02658 0)
  (0.206998 0.17703 0)
  (-0.109148 0.0825803 0)
  (-0.0864467 0.0629432 0)
  (-0.108166 0.0427171 0)
  (-0.121072 0.020185 0)
  (-0.12504 -0.00564309 0)
  (-0.11695 -0.0342644 0)
  (-0.0986739 -0.0616517 0)
  (-0.073413 -0.081346 0)
  (-0.0457825 -0.0889609 0)
  (-0.0200068 -0.0832829 0)
  (0.00268426 -0.0645528 0)
  (0.0202957 -0.0396999 0)
  (0.0332245 -0.0143541 0)
  (0.0426198 0.0103025 0)
  (0.0443465 0.0276514 0)
  (0.0377975 0.0547359 0)
  (-0.0275577 -0.022759 0)
  (0.0379497 -0.0374854 0)
  (0.0500529 -0.0404116 0)
  (0.0563833 -0.0372728 0)
  (0.0629082 -0.0319153 0)
  (0.0690456 -0.0268818 0)
  (0.0720354 -0.0195662 0)
  (0.0665752 -0.0126005 0)
  (0.062106 -0.00898851 0)
  (0.060631 -0.00703635 0)
  (0.060558 -0.00578678 0)
  (0.0609271 -0.00482906 0)
  (0.0617402 -0.00387187 0)
  (0.0637323 -0.0023984 0)
  (0.0686447 0.00205492 0)
  (0.0691954 0.0222999 0)
  (0.0612747 0.0380024 0)
  (0.0247045 0.0548404 0)
  (0.123638 0.0563096 0)
  (0.297654 0.224858 0)
  (-0.126067 0.10758 0)
  (-0.0586632 0.0836435 0)
  (-0.0788059 0.0571465 0)
  (-0.0896065 0.0278834 0)
  (-0.0925809 -0.00722369 0)
  (-0.0825986 -0.0469689 0)
  (-0.0646654 -0.0834643 0)
  (-0.0429515 -0.107566 0)
  (-0.0212341 -0.11489 0)
  (-0.00206756 -0.105559 0)
  (0.0142333 -0.082855 0)
  (0.0275907 -0.054622 0)
  (0.0387987 -0.0255834 0)
  (0.0490457 0.00206093 0)
  (0.0599171 0.0256012 0)
  (0.0743477 0.0499545 0)
  (0.100085 0.0010195 0)
  (0.0946613 -0.0194073 0)
  (0.0838533 -0.0340362 0)
  (0.0743601 -0.0393433 0)
  (0.0683375 -0.037609 0)
  (0.0648972 -0.0327305 0)
  (0.0619002 -0.0260394 0)
  (0.0633148 -0.0159341 0)
  (0.0722057 -0.0110181 0)
  (0.0796197 -0.00840283 0)
  (0.084553 -0.00683494 0)
  (0.0881317 -0.00556295 0)
  (0.0905502 -0.00413931 0)
  (0.0908251 -0.00214269 0)
  (0.0871433 0.00100346 0)
  (0.0770944 0.00594573 0)
  (0.0670957 0.0280366 0)
  (0.0648044 0.0474385 0)
  (0.0337123 0.0695944 0)
  (0.140391 0.0993777 0)
  (0.381129 0.26156 0)
  (-0.150729 0.126296 0)
  (-0.0295596 0.0965149 0)
  (-0.0463649 0.0665213 0)
  (-0.0530353 0.0333854 0)
  (-0.0515105 -0.00920893 0)
  (-0.036814 -0.0598671 0)
  (-0.0201935 -0.102547 0)
  (-0.00427771 -0.127754 0)
  (0.00949277 -0.132604 0)
  (0.0199025 -0.119906 0)
  (0.0285225 -0.0953577 0)
  (0.0359516 -0.065226 0)
  (0.0428063 -0.0349802 0)
  (0.0505429 -0.00804736 0)
  (0.0606578 0.0130178 0)
  (0.0747794 0.0226834 0)
  (0.0861674 0.00136372 0)
  (0.084848 -0.0156793 0)
  (0.0764438 -0.0264022 0)
  (0.0675509 -0.0310337 0)
  (0.0600343 -0.0309447 0)
  (0.0542353 -0.0277563 0)
  (0.050246 -0.0219679 0)
  (0.050119 -0.0129432 0)
  (0.0537613 -0.00801634 0)
  (0.0578299 -0.00612369 0)
  (0.061504 -0.00519816 0)
  (0.0649984 -0.00402892 0)
  (0.0681702 -0.00180087 0)
  (0.0706866 0.00224536 0)
  (0.0712781 0.00848899 0)
  (0.069527 0.0175872 0)
  (0.0674263 0.0331802 0)
  (0.0719331 0.0500649 0)
  (0.0636325 0.0678033 0)
  (0.119081 0.0993648 0)
  (0.114329 0.0778507 0)
  (0.119242 0.0552508 0)
  (-0.212166 0.0489524 0)
  (0.447996 0.291198 0)
  (-0.178884 0.137022 0)
  (-0.00466677 0.0960894 0)
  (-0.0121151 0.0696956 0)
  (-0.0128245 0.0371786 0)
  (0.00116668 -0.0157132 0)
  (0.0202702 -0.0753635 0)
  (0.0325884 -0.117298 0)
  (0.0400546 -0.138787 0)
  (0.0433987 -0.140399 0)
  (0.0438672 -0.125501 0)
  (0.0429638 -0.099538 0)
  (0.0418336 -0.0688118 0)
  (0.0415825 -0.0390436 0)
  (0.0434512 -0.0142093 0)
  (0.0488076 0.00302631 0)
  (0.0571462 0.00923214 0)
  (0.0623677 0.00018278 0)
  (0.0608571 -0.0112283 0)
  (0.0546861 -0.0192844 0)
  (0.047169 -0.0234229 0)
  (0.0400009 -0.0242365 0)
  (0.0340081 -0.0225392 0)
  (0.0298773 -0.0188646 0)
  (0.0286676 -0.0139508 0)
  (0.03029 -0.0111731 0)
  (0.0331965 -0.0102075 0)
  (0.0366101 -0.00969025 0)
  (0.0403571 -0.00865171 0)
  (0.0443566 -0.00628815 0)
  (0.0485275 -0.00159611 0)
  (0.0529986 0.00614392 0)
  (0.0564658 0.0166512 0)
  (0.0601825 0.0300851 0)
  (0.0678179 0.0438549 0)
  (0.0703865 0.0535374 0)
  (0.0923929 0.0684387 0)
  (0.0904281 0.0532773 0)
  (0.119994 0.0514754 0)
  (-0.173154 0.078058 0)
  (0.492006 0.316494 0)
  (-0.197225 0.125252 0)
  (0.0171009 0.0654873 0)
  (0.0293595 0.0556204 0)
  (0.0387643 0.0249618 0)
  (0.0664376 -0.0355832 0)
  (0.0841462 -0.0894742 0)
  (0.0901419 -0.124723 0)
  (0.0872571 -0.140037 0)
  (0.0783028 -0.137171 0)
  (0.0660648 -0.119763 0)
  (0.0531058 -0.093084 0)
  (0.0413351 -0.0630865 0)
  (0.0324232 -0.0353872 0)
  (0.0275314 -0.0138754 0)
  (0.0272547 -0.000292344 0)
  (0.0305137 0.00449088 0)
  (0.0324368 3.9526e-05 0)
  (0.0309109 -0.00731637 0)
  (0.0262005 -0.0132956 0)
  (0.0199524 -0.0168172 0)
  (0.0135448 -0.0180917 0)
  (0.00796089 -0.0176751 0)
  (0.00404029 -0.0161452 0)
  (0.00255416 -0.0142593 0)
  (0.00335484 -0.0134251 0)
  (0.00543814 -0.0134238 0)
  (0.00815217 -0.0134467 0)
  (0.0113148 -0.0128549 0)
  (0.0150355 -0.0110429 0)
  (0.0196277 -0.00709697 0)
  (0.0263268 0.00027687 0)
  (0.0342366 0.0107952 0)
  (0.0423214 0.0226577 0)
  (0.0523144 0.0340279 0)
  (0.0602635 0.0420412 0)
  (0.0744456 0.0529549 0)
  (0.0803151 0.0555433 0)
  (0.132525 0.073122 0)
  (-0.118824 0.138854 0)
  (0.572415 0.317889 0)
  (-0.0577431 0.0984351 0)
  (0.0694387 0.00136645 0)
  (0.110392 -0.0197896 0)
  (0.13126 -0.0465264 0)
  (0.153966 -0.0768946 0)
  (0.160716 -0.104384 0)
  (0.152221 -0.122215 0)
  (0.132545 -0.126969 0)
  (0.106505 -0.118666 0)
  (0.0784666 -0.0996017 0)
  (0.0519275 -0.0739291 0)
  (0.0292036 -0.0468737 0)
  (0.0125924 -0.0237376 0)
  (0.0028742 -0.00769853 0)
  (-0.000784378 0.00109466 0)
  (-1.13132e-05 0.00347837 0)
  (0.000347121 0.000598303 0)
  (-0.0012462 -0.00417949 0)
  (-0.00528227 -0.00829574 0)
  (-0.0106366 -0.0110444 0)
  (-0.0161599 -0.0126018 0)
  (-0.0209672 -0.0133886 0)
  (-0.0244153 -0.0138297 0)
  (-0.0261549 -0.0142794 0)
  (-0.0264444 -0.0150444 0)
  (-0.0259001 -0.0159159 0)
  (-0.0249666 -0.0165177 0)
  (-0.0238355 -0.0165582 0)
  (-0.022447 -0.0158261 0)
  (-0.0203937 -0.0140032 0)
  (-0.0166222 -0.0103766 0)
  (-0.00780781 -0.0038057 0)
  (0.00463543 0.00514024 0)
  (0.0161748 0.012271 0)
  (0.0262776 0.0157922 0)
  (0.0390381 0.0187929 0)
  (0.0494302 0.0171499 0)
  (0.13304 0.0716381 0)
  (-0.3778 0.212626 0)
  (0.678853 0.310194 0)
  (0.326763 0.215402 0)
  (0.334965 0.160658 0)
  (0.341042 0.0983497 0)
  (0.325187 0.0437414 0)
  (0.291575 -0.00951282 0)
  (0.251221 -0.0521478 0)
  (0.20622 -0.0775434 0)
  (0.157936 -0.0854565 0)
  (0.110141 -0.0793527 0)
  (0.0661946 -0.0633743 0)
  (0.0288335 -0.042234 0)
  (-0.000592517 -0.0212459 0)
  (-0.0186186 -0.00661081 0)
  (-0.0275589 0.00101822 0)
  (-0.0308964 0.0042232 0)
  (-0.0312934 0.00447542 0)
  (-0.0318653 0.00264238 0)
  (-0.033594 -3.67311e-05 0)
  (-0.0369638 -0.00253141 0)
  (-0.0412559 -0.00462845 0)
  (-0.0457023 -0.00637558 0)
  (-0.0498056 -0.00791804 0)
  (-0.0532926 -0.00940958 0)
  (-0.0560653 -0.0109039 0)
  (-0.0582878 -0.0123948 0)
  (-0.0602544 -0.0137237 0)
  (-0.0622786 -0.0146882 0)
  (-0.0647802 -0.0151071 0)
  (-0.0683591 -0.0147439 0)
  (-0.0736609 -0.012999 0)
  (-0.0811106 -0.00859212 0)
  (-0.0910101 0.000141249 0)
  (-0.101564 0.0126836 0)
  (-0.116441 0.0290463 0)
  (-0.141321 0.0507136 0)
  (-0.175739 0.0789311 0)
  (-0.218265 0.111162 0)
  (-0.285407 0.141829 0)
  (-0.565154 0.16269 0)
  (0.195719 0.00848892 0)
  (0.219758 0.0206008 0)
  (0.216602 -0.00627184 0)
  (0.197032 -0.0297505 0)
  (0.166462 -0.0428197 0)
  (0.128547 -0.0470852 0)
  (0.0858755 -0.044207 0)
  (0.0435093 -0.0353943 0)
  (0.00394093 -0.0211696 0)
  (-0.026814 -0.00572869 0)
  (-0.0449101 0.00358876 0)
  (-0.0544919 0.00831722 0)
  (-0.0584509 0.0103044 0)
  (-0.0597133 0.0109724 0)
  (-0.0600576 0.0108521 0)
  (-0.0606936 0.0101482 0)
  (-0.0621142 0.00916549 0)
  (-0.0641761 0.00806451 0)
  (-0.0669048 0.00670544 0)
  (-0.070128 0.00529464 0)
  (-0.0737971 0.00410417 0)
  (-0.0779005 0.00318925 0)
  (-0.0823979 0.00274675 0)
  (-0.0872721 0.00299982 0)
  (-0.0924573 0.00423157 0)
  (-0.0978303 0.00671694 0)
  (-0.103328 0.0105623 0)
  (-0.109088 0.0153888 0)
  (-0.115402 0.0201747 0)
  (-0.1223 0.023527 0)
  (-0.128219 0.0279446 0)
  (-0.133079 0.0358193 0)
  (-0.13703 0.0485567 0)
  (-0.13999 0.0664066 0)
  (-0.139189 0.0864831 0)
  (-0.128652 0.0933599 0)
  (-0.113559 0.0444496 0)
  (-0.215979 -0.172683 0)
  (0.0611603 0.129162 0)
  (0.027368 0.0563835 0)
  (0.0215884 0.00180998 0)
  (0.017511 -0.0283666 0)
  (0.013816 -0.0401796 0)
  (-0.00462958 -0.0430219 0)
  (-0.0265825 -0.0442224 0)
  (-0.0477784 -0.0439777 0)
  (-0.064203 -0.0447997 0)
  (-0.0740357 -0.0471075 0)
  (-0.0784482 -0.0498945 0)
  (-0.0802406 -0.0524629 0)
  (-0.0804708 -0.0546847 0)
  (-0.0799437 -0.0565689 0)
  (-0.0791921 -0.0585764 0)
  (-0.0786406 -0.061093 0)
  (-0.07855 -0.0640541 0)
  (-0.0790198 -0.0670963 0)
  (-0.0801108 -0.0697575 0)
  (-0.0818966 -0.0719784 0)
  (-0.0843891 -0.0739445 0)
  (-0.0876431 -0.076491 0)
  (-0.0918413 -0.0798482 0)
  (-0.0971521 -0.0840702 0)
  (-0.103606 -0.088877 0)
  (-0.110923 -0.0934388 0)
  (-0.118378 -0.0961966 0)
  (-0.124922 -0.0954804 0)
  (-0.129626 -0.0903338 0)
  (-0.131966 -0.0788902 0)
  (-0.131413 -0.0623566 0)
  (-0.126358 -0.0410301 0)
  (-0.114879 -0.0156749 0)
  (-0.0953157 0.0121155 0)
  (-0.0678202 0.0375305 0)
  (-0.0363783 0.0472524 0)
  (0.102599 -0.0429589 0)
  (-0.171076 -0.106767 0)
  (-0.124611 -0.251275 0)
  (-0.300689 -0.0500315 0)
  (-0.2225 0.145995 0)
  (-0.183057 0.128485 0)
  (-0.137355 0.131884 0)
  (-0.120412 0.145126 0)
  (-0.117273 0.153471 0)
  (-0.118768 0.156783 0)
  (-0.120817 0.162367 0)
  (-0.120231 0.169145 0)
  (-0.117544 0.17834 0)
  (-0.113405 0.187736 0)
  (-0.10889 0.195113 0)
  (-0.104809 0.200402 0)
  (-0.101382 0.204178 0)
  (-0.0985836 0.207116 0)
  (-0.0963352 0.209898 0)
  (-0.0946787 0.212889 0)
  (-0.093724 0.21602 0)
  (-0.0935594 0.218964 0)
  (-0.0941725 0.221251 0)
  (-0.095482 0.222751 0)
  (-0.0973652 0.223799 0)
  (-0.099712 0.225871 0)
  (-0.102355 0.229463 0)
  (-0.105098 0.234838 0)
  (-0.107738 0.241757 0)
  (-0.110057 0.249168 0)
  (-0.111814 0.254997 0)
  (-0.112728 0.257228 0)
  (-0.112349 0.255401 0)
  (-0.109728 0.248562 0)
  (-0.10328 0.238831 0)
  (-0.0910069 0.228056 0)
  (-0.0712402 0.218808 0)
  (-0.044339 0.213841 0)
  (-0.00924137 0.214211 0)
  (0.0287224 0.218077 0)
  (0.141499 0.249042 0)
  (-0.296236 0.234626 0)
)
;

boundaryField
{
  floor
  {
    type noSlip;
  }
  ceiling
  {
    type noSlip;
  }
  sWall
  {
    type noSlip;
  }
  nWall
  {
    type noSlip;
  }
  sideWalls
  {
    type empty;
  }
  glass1
  {
    type noSlip;
  }
  glass2
  {
    type noSlip;
  }
  sun
  {
    type noSlip;
  }
  heatsource1
  {
    type noSlip;
  }
  heatsource2
  {
    type noSlip;
  }
  Table_master
  {
    type noSlip;
  }
  Table_slave
  {
    type noSlip;
  }
  inlet
  {
    type fixedValue;
    value uniform (0.277164 -0.114805 0);
  }
  outlet
  {
    type zeroGradient;
  }
} 	// ************************************************************************* //

