/*--------------------------------*- C++ -*----------------------------------*\
  =========                 |
  \\      /  F ield         | OpenFOAM: The Open Source CFD Toolbox
   \\    /   O peration     | Website:  https://openfoam.org
    \\  /    A nd           | Version:  6
     \\/     M anipulation  |
\*---------------------------------------------------------------------------*/
FoamFile
{
    version     2.0;
    format      ascii;
    class       volScalarField;
    location    "800";
    object      epsilon;
}
// * * * * * * * * * * * * * * * * * * * * * * * * * * * * * * * * * * * * * //

dimensions      [0 2 -3 0 0 0 0];

internalField   nonuniform List<scalar> 
459
(
0.00433788
0.00391682
0.00345085
0.00306199
0.00275216
0.00249809
0.00228359
0.00209734
0.00192891
0.00177015
0.00161441
0.00145518
0.00128425
0.00108695
0.000863601
6.39489e-06
7.52761e-06
2.64781e-06
1.24454e-06
7.98368e-07
5.33501e-07
4.81644e-07
5.29707e-07
4.7845e-07
4.97533e-07
5.63173e-07
6.93576e-07
9.60364e-07
1.4535e-06
1.88042e-06
2.75097e-06
4.93383e-06
1.18565e-05
8.34099e-06
0.00673638
0.00489612
0.00371654
0.00282677
0.0022567
0.00188462
0.00162655
0.00143839
0.00129601
0.00118562
0.00109837
0.00102618
0.000957296
0.00086219
0.000736033
0.000740886
0.000470444
2.44887e-05
3.74483e-05
1.13677e-05
3.56289e-06
1.61144e-06
1.09837e-06
1.21562e-06
1.3668e-06
1.50757e-06
1.73053e-06
2.11267e-06
2.67109e-06
3.49959e-06
4.69376e-06
7.55807e-06
1.29884e-05
2.48663e-05
6.74129e-05
3.80966e-05
0.00867168
0.00617024
0.00399981
0.00260008
0.00187489
0.00147809
0.00124553
0.0010962
0.000987853
0.000906299
0.000844451
0.000797561
0.000758714
0.000705387
0.000641337
0.000640287
0.000483116
6.51029e-05
6.79432e-05
1.76914e-05
7.91257e-06
5.56944e-06
5.11912e-06
2.66431e-06
2.08097e-06
3.1221e-06
4.6271e-06
6.88448e-06
1.04372e-05
1.63566e-05
2.70142e-05
4.83252e-05
4.41016e-05
7.08267e-05
0.00020224
0.000107036
0.0104412
0.00769214
0.00391633
0.00194207
0.00116837
0.000837959
0.000689313
0.000634015
0.000618206
0.000614989
0.000613607
0.000611331
0.00060675
0.000586479
0.00056078
0.000585619
0.000590278
0.000125844
6.3229e-05
2.9293e-05
1.86169e-05
1.74336e-05
1.94955e-05
2.4445e-05
3.41186e-05
3.92822e-05
4.45326e-05
5.0311e-05
5.73352e-05
6.52931e-05
7.5523e-05
9.0872e-05
0.000119184
7.41866e-05
0.000113337
0.000281215
0.000182259
0.0122898
0.00956119
0.00360424
0.0012014
0.000605767
0.000431241
0.0003757
0.000373111
0.000395148
0.00042481
0.000452498
0.000475141
0.000491307
0.000489844
0.000483596
0.000517675
0.000521376
0.000194885
4.47444e-05
2.66887e-05
2.27649e-05
2.28296e-05
2.44705e-05
2.72604e-05
3.07889e-05
3.41084e-05
3.76242e-05
4.14476e-05
4.5558e-05
4.97582e-05
5.43407e-05
5.96745e-05
6.60117e-05
7.24805e-05
8.76336e-05
0.000115163
0.000152213
0.000123531
0.000148721
0.000141577
0.0144707
0.0119873
0.00367479
0.000700506
0.000444169
0.000313598
0.00026486
0.000260842
0.000286052
0.000319348
0.000352486
0.00038155
0.000403378
0.000410347
0.000417307
0.000451583
0.000445895
0.000170113
5.42413e-05
4.15461e-05
4.20314e-05
4.42418e-05
4.66295e-05
4.9355e-05
5.27406e-05
5.68463e-05
6.15467e-05
6.67362e-05
7.14468e-05
7.60121e-05
8.0638e-05
8.55169e-05
9.08791e-05
9.71655e-05
0.000105876
0.000119401
0.00014281
0.000195759
0.000328673
0.000286734
0.0173908
0.0155253
0.00614086
0.000843429
0.000506529
0.000298679
0.000224474
0.000213693
0.000232328
0.000258941
0.000287705
0.000314485
0.000335895
0.000348594
0.000363624
0.000394708
0.00037783
0.000159727
8.44394e-05
8.78179e-05
0.000100125
0.000109085
0.000112887
0.00011388
0.000114991
0.000118045
0.000122029
0.000125884
0.000130254
0.000135111
0.000140433
0.000146203
0.000152314
0.000158538
0.000165049
0.000174916
0.000201216
0.000287324
0.000561774
0.000467569
0.0220183
0.0242084
0.0166777
0.00173418
0.000752196
0.000366338
0.000229421
0.000191357
0.000200358
0.000222273
0.000246607
0.000270447
0.000291215
0.000307098
0.000323711
0.000346974
0.000321487
0.000167764
0.000152606
0.000200391
0.00025383
0.000287535
0.000293442
0.000284724
0.000272932
0.000263283
0.000257926
0.000256422
0.000257888
0.000261514
0.000266737
0.000273139
0.00028013
0.000286483
0.000290275
0.000291481
0.000302473
0.000387834
0.000800474
0.000690124
0.0310612
0.0499345
0.0624967
0.01076
0.00153883
0.000668444
0.000371426
0.000235059
0.000197796
0.000210696
0.000231051
0.00025355
0.000274774
0.000291498
0.000303993
0.000316821
0.000295221
0.000218831
0.000308021
0.000470519
0.000632344
0.000700146
0.000695949
0.000662359
0.000624323
0.000593413
0.000572636
0.000560968
0.000556208
0.000556307
0.000559802
0.000565687
0.0005729
0.000579483
0.000581822
0.000575819
0.000566502
0.000605511
0.000878491
0.0008237
0.140844
0.0299343
0.00333911
0.00147029
0.000917274
0.000578872
0.000405708
0.000350522
0.00033791
0.00034462
0.000357354
0.000367415
0.000372228
0.000394933
0.000429823
0.000494945
0.000796606
0.00121983
0.0015361
0.00166126
0.00164879
0.00157579
0.0014944
0.00142863
0.00138431
0.00135861
0.00134613
0.00134198
0.00134291
0.00134708
0.00135308
0.00135846
0.00135796
0.00134198
0.00129822
0.00123257
0.00127389
0.00125755
0.0299109
0.00663516
0.0048838
0.00301457
0.00225162
0.00153124
0.000996994
0.000658015
0.000497591
0.000431003
0.000406155
0.000397542
0.000394763
0.000427222
0.00062146
0.0011405
0.00202452
0.00302028
0.00370644
0.00395165
0.00389412
0.00372162
0.00355357
0.0034377
0.00337895
0.00336383
0.00337494
0.00339825
0.00342532
0.00345225
0.00347682
0.00349526
0.0034992
0.00347654
0.00342409
0.00336667
0.00336349
0.00264223
0.00180935
0.00147309
0.00789204
0.00429236
0.00125028
0.000984313
0.000873278
0.000781502
0.000724867
0.000704144
0.000682028
0.00066411
0.000654574
0.000650883
0.00065111
0.000684847
0.000783549
0.000931824
0.00112935
0.00136978
0.00164791
0.00187981
0.00201611
0.00206374
0.00205604
0.00202618
0.00199589
0.00197483
0.00196414
0.00196071
0.00196032
0.00195936
0.00195498
0.0019443
0.00192339
0.00188644
0.00182618
0.00173154
0.00156675
0.00106038
)
;

boundaryField
{
    floor
    {
        Cmu             0.09;
        kappa           0.41;
        E               9.8;
        type            epsilonWallFunction;
        value           nonuniform List<scalar> 
29
(
0.000863601
6.39489e-06
7.52761e-06
2.64781e-06
1.24454e-06
7.98368e-07
5.33501e-07
4.81644e-07
5.29707e-07
4.7845e-07
4.97533e-07
5.63173e-07
6.93576e-07
9.60364e-07
1.4535e-06
1.88042e-06
2.75097e-06
4.93383e-06
1.18565e-05
8.34099e-06
8.34099e-06
3.80966e-05
0.000107036
0.000182259
0.000863601
6.39489e-06
2.44887e-05
6.51029e-05
0.000125844
)
;
    }
    ceiling
    {
        Cmu             0.09;
        kappa           0.41;
        E               9.8;
        type            epsilonWallFunction;
        value           nonuniform List<scalar> 
43
(
0.00180935
0.00147309
0.00789204
0.00429236
0.00125028
0.000984313
0.000873278
0.000781502
0.000724867
0.000704144
0.000682028
0.00066411
0.000654574
0.000650883
0.00065111
0.000684847
0.000783549
0.000931824
0.00112935
0.00136978
0.00164791
0.00187981
0.00201611
0.00206374
0.00205604
0.00202618
0.00199589
0.00197483
0.00196414
0.00196071
0.00196032
0.00195936
0.00195498
0.0019443
0.00192339
0.00188644
0.00182618
0.00173154
0.00156675
0.00106038
0.0310612
0.0499345
0.0299109
)
;
    }
    sWall
    {
        Cmu             0.09;
        kappa           0.41;
        E               9.8;
        type            epsilonWallFunction;
        value           uniform 0.00180935;
    }
    nWall
    {
        Cmu             0.09;
        kappa           0.41;
        E               9.8;
        type            epsilonWallFunction;
        value           nonuniform List<scalar> 6(0.000141577 0.000286734 0.000467569 0.00125755 0.00264223 0.00106038);
    }
    sideWalls
    {
        type            empty;
    }
    glass1
    {
        Cmu             0.09;
        kappa           0.41;
        E               9.8;
        type            epsilonWallFunction;
        value           nonuniform List<scalar> 9(0.00433788 0.00673638 0.00867168 0.0104412 0.0122898 0.0144707 0.0173908 0.0220183 0.0310612);
    }
    glass2
    {
        Cmu             0.09;
        kappa           0.41;
        E               9.8;
        type            epsilonWallFunction;
        value           nonuniform List<scalar> 2(0.000690124 0.0008237);
    }
    sun
    {
        Cmu             0.09;
        kappa           0.41;
        E               9.8;
        type            epsilonWallFunction;
        value           nonuniform List<scalar> 
14
(
0.00433788
0.00391682
0.00345085
0.00306199
0.00275216
0.00249809
0.00228359
0.00209734
0.00192891
0.00177015
0.00161441
0.00145518
0.00128425
0.00108695
)
;
    }
    heatsource1
    {
        Cmu             0.09;
        kappa           0.41;
        E               9.8;
        type            epsilonWallFunction;
        value           nonuniform List<scalar> 3(0.000123531 0.000148721 0.000141577);
    }
    heatsource2
    {
        Cmu             0.09;
        kappa           0.41;
        E               9.8;
        type            epsilonWallFunction;
        value           nonuniform List<scalar> 4(0.000740886 0.000470444 0.000470444 0.000483116);
    }
    Table_master
    {
        Cmu             0.09;
        kappa           0.41;
        E               9.8;
        type            epsilonWallFunction;
        value           nonuniform List<scalar> 9(2.66431e-06 2.08097e-06 3.1221e-06 4.6271e-06 6.88448e-06 1.04372e-05 1.63566e-05 2.70142e-05 4.83252e-05);
    }
    Table_slave
    {
        Cmu             0.09;
        kappa           0.41;
        E               9.8;
        type            epsilonWallFunction;
        value           nonuniform List<scalar> 9(3.41186e-05 3.92822e-05 4.45326e-05 5.0311e-05 5.73352e-05 6.52931e-05 7.5523e-05 9.0872e-05 0.000119184);
    }
    inlet
    {
        type            turbulentMixingLengthDissipationRateInlet;
        mixingLength    0.01;
        phi             phi;
        k               k;
        value           uniform 3.77336e-06;
    }
    outlet
    {
        type            zeroGradient;
    }
}


// ************************************************************************* //
