/*--------------------------------*- C++ -*----------------------------------*\
  =========                 |
  \\      /  F ield         | OpenFOAM: The Open Source CFD Toolbox
   \\    /   O peration     | Website:  https://openfoam.org
    \\  /    A nd           | Version:  6
     \\/     M anipulation  |
\*---------------------------------------------------------------------------*/
FoamFile
{
    version     2.0;
    format      ascii;
    class       volScalarField;
    location    "230";
    object      T;
}
// * * * * * * * * * * * * * * * * * * * * * * * * * * * * * * * * * * * * * //

dimensions      [0 0 0 1 0 0 0];

internalField   nonuniform List<scalar> 
459
(
305.739
305.568
305.563
305.564
305.565
305.565
305.564
305.559
305.552
305.543
305.535
305.529
305.525
305.511
305.475
305.45
305.515
305.561
305.583
305.597
305.605
305.607
305.607
305.606
305.604
305.602
305.6
305.598
305.596
305.594
305.591
305.586
305.574
305.488
305.863
305.616
305.607
305.613
305.618
305.619
305.616
305.604
305.586
305.567
305.551
305.543
305.54
305.537
305.526
305.533
305.539
305.549
305.585
305.606
305.624
305.639
305.651
305.655
305.658
305.661
305.663
305.665
305.667
305.668
305.668
305.665
305.658
305.644
305.62
305.612
305.989
305.658
305.641
305.654
305.665
305.671
305.669
305.649
305.615
305.579
305.554
305.542
305.54
305.543
305.544
305.545
305.545
305.574
305.595
305.618
305.64
305.66
305.677
305.679
305.681
305.684
305.687
305.691
305.694
305.697
305.699
305.699
305.695
305.681
305.656
305.647
306.114
305.704
305.673
305.693
305.717
305.735
305.734
305.701
305.644
305.589
305.551
305.536
305.537
305.544
305.55
305.553
305.554
305.558
305.577
305.6
305.629
305.659
305.687
305.71
305.731
305.749
305.765
305.779
305.792
305.804
305.814
305.822
305.829
305.794
305.753
305.709
305.682
306.238
305.759
305.706
305.727
305.765
305.801
305.801
305.748
305.663
305.59
305.545
305.528
305.531
305.544
305.558
305.567
305.574
305.588
305.609
305.636
305.667
305.699
305.729
305.756
305.781
305.802
305.819
305.834
305.847
305.857
305.864
305.867
305.865
305.848
305.813
305.767
305.723
305.726
305.73
305.756
306.351
305.827
305.753
305.764
305.807
305.861
305.843
305.765
305.664
305.579
305.528
305.514
305.526
305.549
305.572
305.591
305.607
305.628
305.654
305.684
305.717
305.75
305.78
305.807
305.83
305.85
305.865
305.878
305.888
305.895
305.898
305.898
305.893
305.88
305.856
305.824
305.783
305.766
305.758
305.77
306.456
305.935
305.855
305.853
305.889
305.915
305.859
305.747
305.627
305.537
305.494
305.495
305.524
305.563
305.6
305.63
305.656
305.683
305.712
305.744
305.776
305.807
305.835
305.859
305.878
305.892
305.903
305.911
305.915
305.918
305.918
305.916
305.91
305.899
305.882
305.859
305.826
305.801
305.783
305.784
306.606
306.206
306.11
306.066
306.056
305.976
305.825
305.657
305.524
305.452
305.443
305.479
305.538
305.599
305.651
305.69
305.723
305.751
305.78
305.81
305.839
305.864
305.885
305.902
305.913
305.921
305.925
305.927
305.926
305.924
305.921
305.917
305.911
305.903
305.89
305.873
305.849
305.826
305.809
305.856
306.816
306.624
306.452
306.305
306.137
305.85
305.574
305.387
305.312
305.328
305.401
305.499
305.592
305.671
305.73
305.769
305.797
305.823
305.848
305.871
305.891
305.907
305.919
305.926
305.93
305.931
305.93
305.928
305.924
305.919
305.913
305.907
305.899
305.891
305.885
305.879
305.877
305.883
305.895
305.93
301.932
303.033
303.505
303.936
304.338
304.715
305.034
305.283
305.474
305.622
305.711
305.77
305.81
305.838
305.86
305.88
305.897
305.911
305.921
305.928
305.932
305.933
305.933
305.931
305.928
305.924
305.919
305.914
305.909
305.904
305.899
305.895
305.891
305.89
305.892
305.9
305.916
305.959
302.089
302.959
303.529
304.112
304.629
305.062
305.343
305.53
305.658
305.745
305.801
305.838
305.863
305.883
305.898
305.91
305.919
305.926
305.93
305.933
305.933
305.932
305.93
305.927
305.925
305.922
305.919
305.915
305.912
305.909
305.906
305.903
305.9
305.899
305.9
305.905
305.921
305.947
303.301
303.192
303.186
304.272
304.866
305.164
305.388
305.554
305.666
305.741
305.794
305.832
305.858
305.877
305.89
305.9
305.908
305.913
305.916
305.917
305.917
305.916
305.915
305.913
305.91
305.908
305.907
305.905
305.904
305.903
305.903
305.903
305.903
305.903
305.903
305.903
305.904
305.91
305.917
305.951
)
;

boundaryField
{
    floor
    {
        type            wallHeatTransfer;
        Tinf            uniform 301.25;
        alphaWall       uniform 0.24;
        value           nonuniform List<scalar> 
29
(
304.939
304.77
304.926
304.961
304.977
304.98
304.972
304.946
304.912
304.876
304.841
304.807
304.774
304.741
304.709
304.677
304.641
304.602
304.543
304.526
304.526
304.762
304.846
304.939
304.939
304.77
305.013
305.071
305.144
)
;
    }
    ceiling
    {
        type            wallHeatTransfer;
        Tinf            uniform 301.25;
        alphaWall       uniform 0.24;
        value           nonuniform List<scalar> 
43
(
303.127
303.037
303.042
304.054
304.61
304.9
305.117
305.276
305.379
305.444
305.487
305.514
305.533
305.546
305.556
305.564
305.571
305.576
305.579
305.58
305.58
305.579
305.577
305.575
305.573
305.57
305.566
305.561
305.556
305.548
305.539
305.529
305.519
305.508
305.499
305.491
305.486
305.484
305.502
305.523
306.528
306.384
302.032
)
;
    }
    sWall
    {
        type            wallHeatTransfer;
        Tinf            uniform 314.15;
        alphaWall       uniform 0.36;
        value           uniform 304.629;
    }
    nWall
    {
        type            wallHeatTransfer;
        Tinf            uniform 308.15;
        alphaWall       uniform 0.36;
        value           nonuniform List<scalar> 6(306.303 306.251 306.214 306.238 306.199 306.239);
    }
    sideWalls
    {
        type            empty;
    }
    glass1
    {
        type            wallHeatTransfer;
        Tinf            uniform 314.15;
        alphaWall       uniform 4.3;
        value           nonuniform List<scalar> 9(311.607 311.196 310.933 310.729 310.557 310.397 310.275 310.316 310.462);
    }
    glass2
    {
        type            wallHeatTransfer;
        Tinf            uniform 308.15;
        alphaWall       uniform 4.3;
        value           nonuniform List<scalar> 2(307.443 307.43);
    }
    sun
    {
        type            wallHeatTransfer;
        Tinf            uniform 301.25;
        alphaWall       uniform 0.24;
        value           nonuniform List<scalar> 
14
(
305.234
305.117
305.122
305.139
305.154
305.168
305.18
305.185
305.184
305.175
305.162
305.142
305.112
305.043
)
;
    }
    heatsource1
    {
        type            fixedGradient;
        gradient        uniform 0;
    }
    heatsource2
    {
        type            fixedGradient;
        gradient        uniform 0;
    }
    Table_master
    {
        type            zeroGradient;
    }
    Table_slave
    {
        type            zeroGradient;
    }
    inlet
    {
        type            fixedValue;
        value           uniform 299.15;
    }
    outlet
    {
        type            zeroGradient;
    }
}


// ************************************************************************* //
