/*--------------------------------*- C++ -*----------------------------------*\
  =========                 |
  \\      /  F ield         | OpenFOAM: The Open Source CFD Toolbox
   \\    /   O peration     | Website:  https://openfoam.org
    \\  /    A nd           | Version:  6
     \\/     M anipulation  |
\*---------------------------------------------------------------------------*/
FoamFile
{
    version     2.0;
    format      ascii;
    class       surfaceScalarField;
    location    "50";
    object      phi;
}
// * * * * * * * * * * * * * * * * * * * * * * * * * * * * * * * * * * * * * //

dimensions      [1 0 -1 0 0 0 0];

internalField   nonuniform List<scalar> 
852
(
-0.00250194
0.00252905
-0.00354548
0.00104319
-0.00376306
0.000217235
-0.00316786
-0.000595546
-0.00165066
-0.00151753
0.000561776
-0.0022128
0.00244689
-0.00188546
0.00381578
-0.00136924
0.00469323
-0.000877793
0.00514851
-0.000455616
0.00522816
-7.99915e-05
0.00494498
0.000282834
0.00424237
0.000702257
0.0028804
0.00136162
0.00287517
-0.000304672
0.000295573
-0.000355243
4.98807e-05
0.00041324
-0.000769885
0.00126548
-0.000853838
0.00183535
-0.000571366
0.00206152
-0.000227356
0.00205789
2.84908e-06
0.00197958
7.78619e-05
0.00189455
8.48119e-05
0.00182653
6.79373e-05
0.00177914
4.73624e-05
0.00174227
3.68643e-05
0.00169846
4.37807e-05
0.00162241
7.60101e-05
0.00146796
0.000154404
0.00115824
0.000309653
0.000654597
0.000503575
-2.92511e-05
0.000683767
-3.90168e-05
-0.00178115
0.00438587
-0.00263033
0.00189201
-0.00284024
0.000426807
-0.00232093
-0.00111518
-0.00104499
-0.00279379
0.000534784
-0.00379296
0.00199605
-0.00334712
0.00311071
-0.00248428
0.00384697
-0.00161442
0.00423913
-0.000848144
0.00434262
-0.000183832
0.004203
0.000422104
0.00387652
0.00102838
0.00355794
0.00167984
0.00405566
0.00237708
0.0019515
0.00210374
0.00195107
-0.000237068
0.000512841
0.000126524
-0.000314399
0.000702866
-0.00134756
0.00125129
-0.00140404
0.0016296
-0.000951718
0.00177996
-0.000379642
0.00179838
-1.69778e-05
0.0018085
6.68557e-05
0.00180537
8.74133e-05
0.00179888
7.41482e-05
0.00179276
5.33193e-05
0.0017862
4.33378e-05
0.00177672
5.32094e-05
0.00175693
9.5762e-05
0.00167894
0.000232371
0.00135581
0.000632759
0.000902
0.000957332
0.000536522
0.00104915
0.000472401
-0.00126863
0.0057726
-0.00193628
0.00255931
-0.00212678
0.00061696
-0.00165487
-0.0015874
-0.000557436
-0.00389152
0.000623523
-0.0049743
0.00171298
-0.004437
0.00256077
-0.00333249
0.00311326
-0.00216732
0.00340306
-0.00113834
0.00349267
-0.000273819
0.00344356
0.000470852
0.00332446
0.00114711
0.00320361
0.00180033
0.00307351
0.00250681
0.00219368
0.0029832
0.00414437
2.74785e-05
0.00045398
0.00117692
-0.00146442
0.00152399
-0.00169549
0.00169265
-0.00157399
0.00175758
-0.00101846
0.00143558
-5.96675e-05
0.001417
0.00148288
0.00156981
0.00164375
0.00169704
0.00174043
0.00179373
0.00188961
0.00212211
0.00159671
0.00115815
0.00124801
0.001306
0.000909449
0.0013876
0.00134301
-0.000910132
0.00683814
-0.00140462
0.00305343
-0.00149835
0.00071035
-0.000953799
-0.00213225
-1.80875e-05
-0.00482751
0.000810372
-0.00580315
0.00155416
-0.00518127
0.00210502
-0.00388383
0.00242636
-0.00248913
0.0025658
-0.00127821
0.00259639
-0.000304808
0.00258146
0.000485402
0.00257219
0.00115601
0.00260255
0.0017696
0.00273257
0.00237642
0.00297634
0.00273905
0.0042233
0.00289704
0.00277674
0.00141479
0.00320715
2.33034e-05
0.00274641
-0.00100403
0.0025818
-0.00153138
0.00247819
-0.00147113
0.00248668
-0.0010281
0.00281408
-0.000388832
0.00277148
4.04772e-05
0.0024992
0.000270036
0.00205529
0.000441787
0.00155106
0.000502594
0.00111721
0.00043293
0.000822983
0.000293818
0.000655454
0.000167319
0.000557169
9.81232e-05
0.000442909
0.000114104
0.00093814
0.000662876
0.00114443
0.00109963
0.0011888
0.00134311
0.0024816
-0.000658866
0.00768548
-0.000979278
0.00337348
-0.000815935
0.000546672
-5.38807e-05
-0.00289458
0.000627689
-0.00550933
0.00110816
-0.00628402
0.00148721
-0.00556084
0.00169681
-0.00409399
0.00173689
-0.00252973
0.0016843
-0.00122609
0.00162976
-0.000250697
0.00163373
0.000481045
0.00172607
0.00106328
0.00192963
0.00156568
0.00230324
0.00200244
0.00281667
0.00222525
0.00349973
0.0022136
0.00377064
0.00114351
0.00374994
4.36356e-05
0.00346475
-0.000719207
0.00307501
-0.00114204
0.00273096
-0.00112758
0.00247663
-0.000774513
0.00229764
-0.000210993
0.00202528
0.000311255
0.0016475
0.000646071
0.00127347
0.000814292
0.00097339
0.000801704
0.000768116
0.000637766
0.000641379
0.000420408
0.000570848
0.000237808
0.000533701
0.000135257
0.000504319
0.000143477
0.000732417
0.000434738
0.0011129
0.000719065
0.00170878
0.000747129
0.00280784
0.00138243
0.0013242
0.00148333
-0.000449634
0.00177349
-0.00052009
-0.00053168
0.00843582
-0.000548523
0.00338996
0.000181288
-0.000183476
0.00102595
-0.00373947
0.00141702
-0.00590063
0.00154386
-0.00641127
0.00149916
-0.00551671
0.00130589
-0.00390135
0.00101821
-0.00224262
0.000758954
-0.000967331
0.000628401
-0.000120578
0.000657628
0.000451426
0.000829945
0.000890595
0.00112797
0.0012673
0.00156094
0.00156912
0.00208871
0.00169713
0.00273677
0.0015652
0.003077
0.000802946
0.00308991
3.04062e-05
0.00289193
-0.000521533
0.00252878
-0.000779206
0.0021054
-0.000704634
0.00166882
-0.000338575
0.00127151
0.000185263
0.000945126
0.000636426
0.000685359
0.000904629
0.000515689
0.00098304
0.000434588
0.00088229
0.000408604
0.000663535
0.000406045
0.000422894
0.000414615
0.000229217
0.000430793
0.000119075
0.000456102
0.000118164
0.000611983
0.000278836
0.000845518
0.00048548
0.000962438
0.000630134
0.00106154
0.00128323
0.000515176
0.00202959
-0.000437667
0.0027262
-0.00102729
-0.000152035
0.00883862
0.000394483
0.00284308
0.00170735
-0.00149664
0.00236403
-0.00439633
0.00244054
-0.00597736
0.00210195
-0.0060731
0.00153074
-0.00494611
0.000862733
-0.00323402
0.000231227
-0.00161172
-0.000165506
-0.000571092
-0.000306853
2.03486e-05
-0.000247061
0.000391254
-3.84939e-05
0.00068167
0.000292015
0.00093644
0.000728677
0.00113213
0.00123726
0.00118824
0.00178434
0.00101784
0.00207021
0.000516823
0.00207097
2.9408e-05
0.00184562
-0.000296435
0.00145737
-0.000391262
0.000959213
-0.000206908
0.000473731
0.000146198
0.000135549
0.000522731
-4.36841e-05
0.000814892
-0.000108649
0.000968902
-8.65171e-05
0.000960426
-1.46039e-05
0.000810127
6.72145e-05
0.000581622
0.000138771
0.00035131
0.000199634
0.000168353
0.000256944
6.1774e-05
0.000322718
5.23995e-05
0.000441292
0.000160258
0.000573864
0.000352884
0.000581966
0.000621987
0.00054013
0.00132499
0.000176691
0.00239293
-6.20617e-05
0.00296484
-0.00115548
0.0025332
0.00659072
0.00352363
0.0018523
0.00412093
-0.00209419
0.00424735
-0.00452289
0.00368286
-0.0054131
0.00263019
-0.00502091
0.00138185
-0.00369844
0.000190723
-0.0020436
-0.000624717
-0.000796872
-0.00100762
-0.000188633
-0.00110618
0.000118521
-0.00102998
0.000314705
-0.000831881
0.000483256
-0.00052966
0.000633927
-0.000137428
0.000739641
0.000299168
0.000751421
0.000692215
0.000624623
0.000857137
0.000351757
0.000779651
0.000106734
0.000494441
-1.14806e-05
6.90086e-05
3.37896e-05
-0.000355678
0.000217348
-0.000643568
0.000433739
-0.000774445
0.000653207
-0.0007816
0.000821621
-0.000697455
0.000884397
-0.000559586
0.000822325
-0.000409368
0.0006598
-0.000278907
0.000451129
-0.000177778
0.000250188
-9.92067e-05
8.98093e-05
-2.60479e-05
-1.13503e-05
6.50755e-05
-3.86913e-05
0.000202797
2.25532e-05
0.000376343
0.000179334
0.000537591
0.000460711
0.000819376
0.00104315
0.00123402
0.0019782
0.0022725
0.00192627
0.00067407
0.0068623
0.0086685
0.00782168
-0.0012475
0.00632514
-0.00302643
0.00444957
-0.00353783
0.00244258
-0.00301452
0.00050108
-0.00175764
-0.000875378
-0.000667826
-0.00154845
-0.000124283
-0.00181585
7.83878e-05
-0.00186233
0.000164673
-0.00178199
0.00023409
-0.00161305
0.000314092
-0.00137367
0.000394352
-0.00108684
0.00045267
-0.000799871
0.000464366
-0.000591365
0.000416076
-0.000559589
0.000319964
-0.000699248
0.000246366
-0.000942104
0.000231301
-0.00119254
0.000284121
-0.00136645
0.000391109
-0.0014475
0.00051461
-0.00142696
0.000632464
-0.00131563
0.000710085
-0.00114397
0.000712576
-0.000951856
0.000630123
-0.00077668
0.000484598
-0.000640879
0.000315348
-0.000548125
0.000157485
-0.000488526
3.02823e-05
-0.000438007
-6.17844e-05
-0.000369808
-0.000106809
-0.00024252
-0.00010468
-2.40791e-05
-3.9096e-05
0.000284394
0.000152223
0.000800241
0.000527259
0.00159325
0.00118512
0.00243131
0.00108816
0.00263181
0.00574684
-0.000596578
0.00375591
-0.00103587
0.00169927
-0.00148182
-0.000264746
-0.00105134
-0.00167559
-0.000347379
-0.00234372
-1.70487e-07
-0.00260081
0.000132444
-0.00266921
0.000146493
-0.00264834
0.00014357
-0.00257477
0.000160351
-0.00245864
0.00019784
-0.00230959
0.000245247
-0.00214613
0.000289192
-0.00199949
0.000317751
-0.00190755
0.000324189
-0.0018987
0.000311173
-0.00195135
0.000299057
-0.00202371
0.000303677
-0.0020731
0.000333481
-0.00206753
0.000385486
-0.00199873
0.000445733
-0.00186537
0.000499021
-0.00167914
0.000523771
-0.00146757
0.000500957
-0.00126527
0.000427809
-0.00110098
0.000320351
-0.000988733
0.000203169
-0.000928268
9.71247e-05
-0.000910843
1.29867e-05
-0.000918668
-5.38203e-05
-0.000930981
-9.43674e-05
-0.000915843
-0.000119719
-0.000835795
-0.000119088
-0.000673591
-9.97651e-06
-0.000477596
0.000331247
-0.000253664
0.000961157
-5.02164e-05
0.00088469
0.0025029
-0.000686886
3.22331e-05
-0.00112431
-0.000598935
-0.00205391
-0.000552738
-0.00287295
-0.000232813
-0.00324394
2.3185e-05
-0.00336914
0.000124684
-0.00339399
0.000157008
-0.00339054
0.000142826
-0.00337494
0.000127813
-0.00334237
0.000127682
-0.00328668
0.000142103
-0.00320712
0.000165689
-0.00311023
0.000192346
-0.0030089
0.000216473
-0.00291823
0.000233584
-0.00284887
0.000241864
-0.00279579
0.000246018
-0.00274369
0.000251588
-0.00267302
0.00026281
-0.00256709
0.000279533
-0.00241822
0.000296834
-0.00222722
0.000307995
-0.00200719
0.000303717
-0.00178318
0.000276957
-0.00158421
0.000228886
-0.00143297
0.000169188
-0.00134013
0.000110455
-0.00130423
6.13874e-05
-0.00131463
2.35664e-05
-0.00137291
4.64809e-06
-0.00146778
6.65864e-07
-0.00159352
6.1578e-06
-0.00173147
1.8966e-05
-0.00179708
5.56877e-05
-0.00168893
0.00022312
-0.00127043
0.000542659
-0.00109171
0.000705972
0.00131078
-0.00321416
-0.00256799
-0.00262742
-0.00330996
-0.00394496
-0.00426276
-0.00432784
-0.00429332
-0.00422777
-0.00417728
-0.00414244
-0.0041082
-0.0040599
-0.0039883
-0.0038903
-0.00376848
-0.00362997
-0.00348374
-0.00333399
-0.00317928
-0.00301379
-0.00283176
-0.00263225
-0.00242105
-0.00221329
-0.00203125
-0.00189623
-0.00182001
-0.00180197
-0.00183285
-0.0019018
-0.00199006
-0.00208284
-0.00217093
-0.00224717
-0.00228699
-0.00215753
-0.00170469
-0.00108606
)
;

boundaryField
{
    floor
    {
        type            calculated;
        value           nonuniform List<scalar> 
29
(
0
0
0
0
0
0
0
0
0
0
0
0
0
0
0
0
0
0
0
0
9.63008e-06
2.50198e-05
3.87313e-05
5.00829e-05
4.86197e-06
8.68402e-06
1.9185e-05
3.10196e-05
3.13881e-05
)
;
    }
    ceiling
    {
        type            calculated;
        value           nonuniform List<scalar> 
43
(
0.000117782
0.000105892
9.12024e-05
8.31562e-05
8.18416e-05
8.46087e-05
8.79394e-05
8.99068e-05
9.1247e-05
9.21882e-05
9.28799e-05
9.34015e-05
9.37987e-05
9.41115e-05
9.43919e-05
9.47058e-05
9.51195e-05
9.56636e-05
9.62892e-05
9.68868e-05
9.73261e-05
9.7495e-05
9.73243e-05
9.68004e-05
9.59741e-05
9.49654e-05
9.39473e-05
9.3106e-05
9.2596e-05
9.24973e-05
9.27528e-05
9.31468e-05
9.3653e-05
9.44196e-05
9.53289e-05
9.559e-05
9.37297e-05
8.98578e-05
8.7385e-05
9.50923e-05
4.99471e-05
4.57547e-05
5.76197e-05
)
;
    }
    sWall
    {
        type            calculated;
        value           uniform -8.31355e-05;
    }
    nWall
    {
        type            calculated;
        value           nonuniform List<scalar> 6(7.02377e-05 6.94961e-05 6.60996e-05 7.86953e-05 0.000100424 0.000129676);
    }
    sideWalls
    {
        type            empty;
        value           nonuniform 0();
    }
    glass1
    {
        type            calculated;
        value           nonuniform List<scalar> 9(-2.74815e-05 -7.6031e-05 -0.000118466 -0.000155764 -0.000188831 -0.000219007 -0.000251123 -0.000285646 -0.000321874);
    }
    glass2
    {
        type            calculated;
        value           nonuniform List<scalar> 2(0.000442924 0.00047356);
    }
    sun
    {
        type            calculated;
        value           uniform 0;
    }
    heatsource1
    {
        type            calculated;
        value           nonuniform List<scalar> 3(1.97406e-07 1.97615e-07 1.97797e-07);
    }
    heatsource2
    {
        type            calculated;
        value           nonuniform List<scalar> 4(4.99506e-08 5.01852e-08 0 0);
    }
    Table_master
    {
        type            calculated;
        value           nonuniform List<scalar> 9(-1.48972e-07 -1.48779e-07 -1.48644e-07 -1.48574e-07 -1.48539e-07 -1.4852e-07 -1.48504e-07 -1.48476e-07 -1.48406e-07);
    }
    Table_slave
    {
        type            calculated;
        value           nonuniform List<scalar> 9(1.48911e-07 1.48751e-07 1.48613e-07 1.48549e-07 1.48566e-07 1.48635e-07 1.48704e-07 1.4875e-07 1.48778e-07);
    }
    inlet
    {
        type            calculated;
        value           uniform -0.00639788;
    }
    outlet
    {
        type            calculated;
        value           nonuniform List<scalar> 2(0.00317907 -0.000752517);
    }
}


// ************************************************************************* //
