// -*- C++ -*-
// File generated by PyFoam - sorry for the ugliness

FoamFile
{
 version 2.0;
 format ascii;
 class volScalarField;
 location "50";
 object T;
}

dimensions [ 0 0 0 1 0 0 0 ];

internalField nonuniform List<scalar> 459
(
  305.243
  305.103
  305.074
  305.055
  305.043
  305.066
  305.197
  305.278
  305.339
  305.383
  305.413
  305.439
  305.463
  305.488
  305.511
  307.461
  307.342
  307.17
  307.24
  307.377
  307.508
  307.599
  307.65
  307.67
  307.671
  307.662
  307.652
  307.644
  307.639
  307.635
  307.631
  307.627
  307.623
  307.606
  305.305
  305.111
  305.056
  305.014
  304.982
  305.025
  305.198
  305.346
  305.456
  305.53
  305.573
  305.596
  305.606
  305.6
  305.582
  305.613
  305.669
  307.302
  306.917
  306.735
  306.83
  307.049
  307.306
  307.526
  307.664
  307.742
  307.781
  307.799
  307.806
  307.807
  307.802
  307.79
  307.767
  307.735
  307.709
  307.727
  305.368
  305.13
  305.052
  304.988
  304.917
  304.971
  305.195
  305.419
  305.586
  305.691
  305.743
  305.76
  305.754
  305.728
  305.691
  305.684
  305.703
  306.991
  306.372
  306.361
  306.48
  306.711
  307.028
  307.384
  307.624
  307.751
  307.814
  307.844
  307.858
  307.863
  307.863
  307.856
  307.834
  307.8
  307.773
  307.781
  305.435
  305.163
  305.073
  304.987
  304.858
  304.918
  305.193
  305.502
  305.738
  305.879
  305.939
  305.946
  305.917
  305.867
  305.808
  305.768
  305.749
  305.785
  306.01
  306.057
  306.144
  306.288
  306.487
  306.731
  306.942
  307.18
  307.429
  307.653
  307.806
  307.875
  307.897
  307.902
  307.901
  307.863
  307.837
  307.818
  307.816
  305.504
  305.213
  305.12
  305.002
  304.806
  304.867
  305.197
  305.595
  305.905
  306.081
  306.147
  306.135
  306.08
  306.006
  305.929
  305.871
  305.836
  305.854
  305.91
  306.005
  306.143
  306.315
  306.512
  306.732
  306.985
  307.263
  307.527
  307.725
  307.836
  307.882
  307.897
  307.903
  307.903
  307.89
  307.873
  307.857
  307.843
  307.864
  308.039
  308.37
  305.575
  305.28
  305.194
  304.995
  304.754
  304.82
  305.214
  305.705
  306.085
  306.287
  306.342
  306.304
  306.224
  306.134
  306.049
  305.986
  305.951
  305.974
  306.047
  306.172
  306.339
  306.532
  306.741
  306.98
  307.228
  307.467
  307.667
  307.797
  307.863
  307.889
  307.9
  307.906
  307.909
  307.908
  307.901
  307.894
  307.881
  307.903
  308.097
  308.409
  305.663
  305.375
  305.287
  304.961
  304.665
  304.776
  305.262
  305.85
  306.286
  306.48
  306.498
  306.436
  306.348
  306.254
  306.174
  306.121
  306.108
  306.163
  306.282
  306.448
  306.646
  306.858
  307.084
  307.295
  307.481
  307.648
  307.771
  307.845
  307.881
  307.897
  307.906
  307.914
  307.922
  307.927
  307.927
  307.924
  307.917
  307.945
  308.125
  308.469
  305.773
  305.565
  305.358
  304.81
  304.497
  304.747
  305.383
  306.067
  306.517
  306.638
  306.621
  306.554
  306.475
  306.401
  306.342
  306.316
  306.347
  306.457
  306.631
  306.823
  307.034
  307.257
  307.418
  307.545
  307.661
  307.76
  307.831
  307.871
  307.892
  307.905
  307.916
  307.93
  307.946
  307.958
  307.964
  307.963
  307.957
  307.986
  308.138
  308.575
  305.935
  305.826
  305.134
  304.288
  304.191
  304.817
  305.689
  306.429
  306.733
  306.79
  306.761
  306.708
  306.656
  306.616
  306.601
  306.625
  306.709
  306.864
  307.059
  307.246
  307.403
  307.529
  307.626
  307.705
  307.773
  307.828
  307.865
  307.888
  307.903
  307.917
  307.936
  307.959
  307.984
  308.007
  308.021
  308.024
  308.022
  308.049
  308.176
  308.574
  300.884
  302.164
  303.879
  305.403
  306.473
  306.836
  306.954
  306.968
  306.951
  306.93
  306.918
  306.924
  306.957
  307.024
  307.131
  307.268
  307.408
  307.529
  307.624
  307.697
  307.753
  307.799
  307.836
  307.864
  307.884
  307.9
  307.915
  307.936
  307.963
  307.996
  308.031
  308.065
  308.093
  308.109
  308.122
  308.156
  308.262
  308.503
  305.54
  305.824
  306.248
  306.672
  306.969
  307.097
  307.137
  307.148
  307.154
  307.164
  307.186
  307.223
  307.278
  307.352
  307.44
  307.534
  307.62
  307.691
  307.747
  307.789
  307.821
  307.846
  307.866
  307.881
  307.894
  307.909
  307.928
  307.955
  307.99
  308.032
  308.077
  308.12
  308.158
  308.191
  308.221
  308.262
  308.349
  308.476
  306.988
  306.913
  306.848
  306.93
  307.078
  307.197
  307.266
  307.298
  307.318
  307.339
  307.364
  307.396
  307.436
  307.483
  307.536
  307.593
  307.651
  307.705
  307.751
  307.788
  307.816
  307.837
  307.853
  307.864
  307.873
  307.881
  307.891
  307.907
  307.932
  307.969
  308.016
  308.069
  308.123
  308.174
  308.219
  308.259
  308.295
  308.336
  308.396
  308.473
)
;

boundaryField
{
  floor
  {
    type wallHeatTransfer;
    Tinf uniform 298.85;
    alphaWall uniform 0.24;
    value nonuniform List<scalar> 29
(
  304.852
  306.281
  306.358
  306.186
  306.208
  306.264
  306.28
  306.243
  306.167
  306.057
  305.924
  305.782
  305.649
  305.54
  305.464
  305.425
  305.457
  305.675
  306.095
  306.298
  306.298
  306.59
  306.723
  306.834
  304.852
  306.281
  306.431
  306.147
  305.076
)
;
  }
  ceiling
  {
    type wallHeatTransfer;
    Tinf uniform 298.85;
    alphaWall uniform 0.24;
    value nonuniform List<scalar> 43
(
  306.313
  306.307
  306.325
  306.451
  306.605
  306.708
  306.757
  306.778
  306.791
  306.806
  306.827
  306.856
  306.893
  306.938
  306.99
  307.045
  307.1
  307.151
  307.194
  307.227
  307.253
  307.273
  307.29
  307.305
  307.319
  307.333
  307.349
  307.369
  307.397
  307.434
  307.48
  307.53
  307.581
  307.627
  307.667
  307.705
  307.752
  307.815
  307.89
  307.924
  305.55
  305.472
  305.169
)
;
  }
  sWall
  {
    type wallHeatTransfer;
    Tinf uniform 311.144;
    alphaWall uniform 0.36;
    value uniform 307.486;
  }
  nWall
  {
    type wallHeatTransfer;
    Tinf uniform 299.15;
    alphaWall uniform 0.36;
    value nonuniform List<scalar> 6
(
  307.301
  307.54
  307.769
  307.93
  307.815
  307.697
)
;
  }
  sideWalls
  {
    type empty;
  }
  glass1
  {
    type wallHeatTransfer;
    Tinf uniform 311.144;
    alphaWall uniform 4.3;
    value nonuniform List<scalar> 9
(
  309.066
  308.843
  308.684
  308.555
  308.45
  308.375
  308.382
  308.455
  308.589
)
;
  }
  glass2
  {
    type wallHeatTransfer;
    Tinf uniform 299.15;
    alphaWall uniform 4.3;
    value nonuniform List<scalar> 2
(
  304.58
  304.792
)
;
  }
  sun
  {
    type wallHeatTransfer;
    Tinf uniform 298.85;
    alphaWall uniform 0.24;
    value nonuniform List<scalar> 14
(
  304.655
  304.585
  304.585
  304.598
  304.611
  304.645
  304.761
  304.824
  304.864
  304.884
  304.889
  304.889
  304.886
  304.876
)
;
  }
  heatsource1
  {
    type fixedGradient;
    gradient uniform 0;
  }
  heatsource2
  {
    type fixedGradient;
    gradient uniform 0;
  }
  Table_master
  {
    type zeroGradient;
  }
  Table_slave
  {
    type zeroGradient;
  }
  inlet
  {
    type fixedValue;
    value uniform 300.15;
  }
  outlet
  {
    type zeroGradient;
  }
} 	// ************************************************************************* //

