// -*- C++ -*-
// File generated by PyFoam - sorry for the ugliness

FoamFile
{
 version 2.0;
 format ascii;
 class volVectorField;
 location "410";
 object U;
}

dimensions [ 0 1 -1 0 0 0 0 ];

internalField nonuniform List<vector> 459
(
  (0.019099 0.0685337 0)
  (-0.133875 0.0222573 0)
  (-0.157924 0.0149679 0)
  (-0.184232 0.00939688 0)
  (-0.202415 0.00335489 0)
  (-0.211188 -0.00315923 0)
  (-0.208634 -0.0102469 0)
  (-0.19395 -0.0179785 0)
  (-0.167718 -0.0253528 0)
  (-0.13248 -0.030906 0)
  (-0.0926632 -0.0334226 0)
  (-0.0536405 -0.03213 0)
  (-0.0208582 -0.0261925 0)
  (0.00404269 -0.00927896 0)
  (0.0482237 0.010175 0)
  (-0.104164 0.00657239 0)
  (0.0317186 -0.00497168 0)
  (0.0164042 -0.00968204 0)
  (0.0280188 -0.0115831 0)
  (0.0426251 -0.0105774 0)
  (0.0550223 -0.00814056 0)
  (0.0631355 -0.00471498 0)
  (0.0672039 -0.00272541 0)
  (0.0686354 -0.00201127 0)
  (0.068999 -0.00176529 0)
  (0.0690264 -0.00159526 0)
  (0.0687756 -0.0013803 0)
  (0.0680759 -0.00102572 0)
  (0.0665582 -0.000301812 0)
  (0.0633876 0.00133292 0)
  (0.0568814 0.00479494 0)
  (0.0462462 0.00999227 0)
  (-0.00176392 0.0199893 0)
  (0.0931583 -0.00192797 0)
  (0.150174 0.140245 0)
  (-0.124396 0.0585527 0)
  (-0.129193 0.045672 0)
  (-0.156394 0.0345289 0)
  (-0.174737 0.0217725 0)
  (-0.184132 0.00708393 0)
  (-0.182586 -0.00984836 0)
  (-0.16936 -0.0280277 0)
  (-0.145602 -0.0444499 0)
  (-0.114248 -0.0557684 0)
  (-0.0796835 -0.0598017 0)
  (-0.0464955 -0.0558741 0)
  (-0.0184313 -0.0440671 0)
  (0.00365874 -0.0242093 0)
  (0.0235746 3.8953e-06 0)
  (0.0275743 0.0114645 0)
  (0.0211442 0.022015 0)
  (-0.120887 0.00291219 0)
  (0.0308297 -0.0241703 0)
  (0.0309536 -0.0242951 0)
  (0.0416864 -0.0230676 0)
  (0.0531612 -0.0195632 0)
  (0.0622669 -0.0143527 0)
  (0.0669282 -0.00588012 0)
  (0.0679628 -0.000790821 0)
  (0.067861 0.00118786 0)
  (0.0679509 0.00196345 0)
  (0.0682183 0.00245956 0)
  (0.0684029 0.00292108 0)
  (0.0684245 0.00358932 0)
  (0.0682341 0.0049503 0)
  (0.0672419 0.00815325 0)
  (0.0627736 0.0164607 0)
  (0.0543872 0.025508 0)
  (0.0081584 0.0367928 0)
  (0.138018 0.0223486 0)
  (0.271941 0.210278 0)
  (-0.134834 0.0923711 0)
  (-0.0989277 0.0736243 0)
  (-0.125406 0.0542562 0)
  (-0.142465 0.033241 0)
  (-0.151963 0.00933597 0)
  (-0.150782 -0.0180346 0)
  (-0.137726 -0.0469305 0)
  (-0.115217 -0.07195 0)
  (-0.0869456 -0.087763 0)
  (-0.0572293 -0.091753 0)
  (-0.0297566 -0.0840413 0)
  (-0.00665012 -0.065834 0)
  (0.0115793 -0.0396279 0)
  (0.025057 -0.0124423 0)
  (0.0316431 0.0114479 0)
  (0.0295002 0.0428845 0)
  (-0.0381221 -0.0231867 0)
  (0.0385721 -0.0371367 0)
  (0.0514069 -0.0380861 0)
  (0.0569525 -0.0337817 0)
  (0.0628571 -0.028157 0)
  (0.0682408 -0.0233838 0)
  (0.0703245 -0.017448 0)
  (0.065481 -0.0114159 0)
  (0.0615842 -0.00826112 0)
  (0.0602481 -0.00654502 0)
  (0.060127 -0.00544501 0)
  (0.0604223 -0.00459739 0)
  (0.061173 -0.00372488 0)
  (0.0630948 -0.00233478 0)
  (0.0678873 0.00199441 0)
  (0.0686066 0.0216928 0)
  (0.0628675 0.0371218 0)
  (0.0157428 0.0535425 0)
  (0.163902 0.0526921 0)
  (0.384552 0.267015 0)
  (-0.159354 0.121676 0)
  (-0.0661478 0.0979981 0)
  (-0.0912083 0.0720515 0)
  (-0.104627 0.0451027 0)
  (-0.112743 0.0134929 0)
  (-0.110017 -0.0245516 0)
  (-0.0954251 -0.0646744 0)
  (-0.0740866 -0.0974711 0)
  (-0.0499642 -0.116409 0)
  (-0.0264528 -0.119416 0)
  (-0.0058408 -0.108 0)
  (0.0117385 -0.0845753 0)
  (0.0259833 -0.0555798 0)
  (0.039257 -0.024991 0)
  (0.0532874 0.00390572 0)
  (0.0704905 0.0307749 0)
  (0.0986047 -0.023548 0)
  (0.0970543 -0.0301158 0)
  (0.0872817 -0.036797 0)
  (0.076915 -0.0378708 0)
  (0.0699933 -0.034072 0)
  (0.0660935 -0.0285504 0)
  (0.0630469 -0.0219729 0)
  (0.0638811 -0.0133222 0)
  (0.0710552 -0.00935197 0)
  (0.0771873 -0.00727011 0)
  (0.0813639 -0.0060621 0)
  (0.084551 -0.00509788 0)
  (0.0869037 -0.00398557 0)
  (0.0875858 -0.00231788 0)
  (0.0847712 0.000488084 0)
  (0.0761504 0.00502304 0)
  (0.0676559 0.0263296 0)
  (0.0678079 0.0453895 0)
  (0.0282544 0.0666038 0)
  (0.179417 0.0985622 0)
  (0.485701 0.310846 0)
  (-0.191961 0.144643 0)
  (-0.0321809 0.112986 0)
  (-0.054288 0.0831947 0)
  (-0.061564 0.0529059 0)
  (-0.06622 0.0159029 0)
  (-0.0572531 -0.032024 0)
  (-0.0401165 -0.0821254 0)
  (-0.0217205 -0.119347 0)
  (-0.00433117 -0.138383 0)
  (0.010669 -0.138463 0)
  (0.022191 -0.123479 0)
  (0.0317301 -0.0982656 0)
  (0.0402817 -0.0679561 0)
  (0.0492747 -0.0375277 0)
  (0.0606637 -0.0117223 0)
  (0.0759265 0.00369841 0)
  (0.0873431 -0.00755823 0)
  (0.0866397 -0.0183117 0)
  (0.077709 -0.0254657 0)
  (0.0683734 -0.0278868 0)
  (0.0607432 -0.0266128 0)
  (0.0549939 -0.0232045 0)
  (0.0510652 -0.0179853 0)
  (0.0505047 -0.0103754 0)
  (0.053277 -0.00637842 0)
  (0.0565519 -0.00499552 0)
  (0.0596435 -0.00446089 0)
  (0.0627495 -0.00373434 0)
  (0.0657546 -0.0020899 0)
  (0.0683213 0.001263 0)
  (0.0695435 0.00684909 0)
  (0.0687909 0.015359 0)
  (0.0679684 0.0301614 0)
  (0.0747205 0.0463938 0)
  (0.062673 0.0622778 0)
  (0.134077 0.0968766 0)
  (0.126344 0.0775299 0)
  (0.112301 0.0566283 0)
  (-0.142419 0.0581186 0)
  (0.563624 0.346926 0)
  (-0.226622 0.159169 0)
  (-0.00394419 0.112352 0)
  (-0.0162919 0.0866963 0)
  (-0.0155455 0.0575164 0)
  (-0.0151862 0.0181636 0)
  (0.00972518 -0.0462109 0)
  (0.0266738 -0.10004 0)
  (0.0387665 -0.134976 0)
  (0.0464425 -0.150096 0)
  (0.0501588 -0.147096 0)
  (0.0511415 -0.129835 0)
  (0.050758 -0.103267 0)
  (0.0503737 -0.0729189 0)
  (0.0513426 -0.0438131 0)
  (0.0549403 -0.0205247 0)
  (0.0612769 -0.00747933 0)
  (0.0650675 -0.00872689 0)
  (0.0624603 -0.0148542 0)
  (0.0554688 -0.0191298 0)
  (0.0476501 -0.0207471 0)
  (0.0405645 -0.0202448 0)
  (0.0348157 -0.0182369 0)
  (0.0308879 -0.0149653 0)
  (0.0295526 -0.0109342 0)
  (0.0307196 -0.00886691 0)
  (0.0330862 -0.00840362 0)
  (0.0360084 -0.00836157 0)
  (0.0393393 -0.00789637 0)
  (0.0430086 -0.00630807 0)
  (0.0469483 -0.00268505 0)
  (0.0515446 0.00393173 0)
  (0.0554924 0.013502 0)
  (0.059808 0.0260465 0)
  (0.0682542 0.0389002 0)
  (0.0690254 0.04621 0)
  (0.0931816 0.0626698 0)
  (0.0912219 0.0510844 0)
  (0.107991 0.0503968 0)
  (-0.142101 0.0870324 0)
  (0.610186 0.378601 0)
  (-0.247528 0.146815 0)
  (0.019393 0.0765196 0)
  (0.0302234 0.0727336 0)
  (0.0391304 0.049886 0)
  (0.0582893 -0.000546134 0)
  (0.085834 -0.0646789 0)
  (0.0996968 -0.112914 0)
  (0.102975 -0.141303 0)
  (0.0986029 -0.150717 0)
  (0.088975 -0.143711 0)
  (0.0766635 -0.124255 0)
  (0.0638494 -0.0971545 0)
  (0.0523986 -0.0678433 0)
  (0.0437434 -0.040963 0)
  (0.0388793 -0.0204907 0)
  (0.0374324 -0.00892449 0)
  (0.0362168 -0.0070394 0)
  (0.0325882 -0.00973678 0)
  (0.0268422 -0.0124687 0)
  (0.0203872 -0.0139794 0)
  (0.0142553 -0.0142909 0)
  (0.00912945 -0.0136736 0)
  (0.00559249 -0.0124056 0)
  (0.00419066 -0.0110399 0)
  (0.00478696 -0.0107162 0)
  (0.00655859 -0.0112003 0)
  (0.00895756 -0.0117471 0)
  (0.0117971 -0.0117585 0)
  (0.0151246 -0.0107174 0)
  (0.0192135 -0.00790595 0)
  (0.0248431 -0.00215181 0)
  (0.0327857 0.0072555 0)
  (0.0408412 0.0183909 0)
  (0.0504982 0.0291522 0)
  (0.0566165 0.0360251 0)
  (0.069211 0.0482897 0)
  (0.0742752 0.0545734 0)
  (0.118692 0.073088 0)
  (-0.111962 0.142274 0)
  (0.701085 0.381436 0)
  (-0.0708529 0.119741 0)
  (0.0802327 0.00777433 0)
  (0.1256 -0.00506355 0)
  (0.132355 -0.0248829 0)
  (0.161629 -0.0604933 0)
  (0.18034 -0.0947448 0)
  (0.181122 -0.120827 0)
  (0.167762 -0.134779 0)
  (0.145193 -0.135504 0)
  (0.117902 -0.124235 0)
  (0.089798 -0.103817 0)
  (0.0634819 -0.0779521 0)
  (0.041051 -0.0516457 0)
  (0.0238585 -0.0289218 0)
  (0.0129681 -0.0131189 0)
  (0.00724555 -0.00491947 0)
  (0.00385829 -0.00323358 0)
  (8.34419e-05 -0.00475332 0)
  (-0.00471808 -0.00674107 0)
  (-0.0099585 -0.00821547 0)
  (-0.0149739 -0.00917215 0)
  (-0.0191787 -0.00978978 0)
  (-0.0221427 -0.0102765 0)
  (-0.0236354 -0.0109337 0)
  (-0.0238588 -0.012036 0)
  (-0.0233115 -0.0133589 0)
  (-0.0223665 -0.0144873 0)
  (-0.0212226 -0.0150738 0)
  (-0.0199144 -0.0149008 0)
  (-0.0181822 -0.013782 0)
  (-0.0152607 -0.0112421 0)
  (-0.00901554 -0.00620425 0)
  (0.00318454 0.00196753 0)
  (0.0135665 0.00953541 0)
  (0.0213749 0.0135659 0)
  (0.0317445 0.0192293 0)
  (0.0405571 0.0225223 0)
  (0.117435 0.076073 0)
  (-0.361312 0.209166 0)
  (0.822913 0.371918 0)
  (0.395725 0.259048 0)
  (0.401617 0.193332 0)
  (0.40086 0.125165 0)
  (0.378982 0.0702928 0)
  (0.347494 0.0156248 0)
  (0.307154 -0.0351029 0)
  (0.262817 -0.0716962 0)
  (0.214939 -0.0907616 0)
  (0.165558 -0.0937598 0)
  (0.118069 -0.0846488 0)
  (0.0755555 -0.0675935 0)
  (0.0391536 -0.0462147 0)
  (0.0106893 -0.0258569 0)
  (-0.0097996 -0.00976388 0)
  (-0.0203625 -0.00155451 0)
  (-0.0262269 0.00185303 0)
  (-0.0295545 0.00207498 0)
  (-0.0325525 0.000897582 0)
  (-0.0360663 -0.000545766 0)
  (-0.0399481 -0.00190825 0)
  (-0.0437427 -0.00322245 0)
  (-0.0471022 -0.00452842 0)
  (-0.0498928 -0.00587071 0)
  (-0.052134 -0.00736457 0)
  (-0.0539567 -0.00902061 0)
  (-0.0555813 -0.0106596 0)
  (-0.0572171 -0.0120303 0)
  (-0.0591617 -0.0129073 0)
  (-0.061942 -0.0130992 0)
  (-0.0662773 -0.012237 0)
  (-0.0728535 -0.00928931 0)
  (-0.0822442 -0.00232724 0)
  (-0.0933232 0.00930923 0)
  (-0.107029 0.025197 0)
  (-0.130067 0.0466343 0)
  (-0.161863 0.075258 0)
  (-0.202384 0.108376 0)
  (-0.268422 0.13939 0)
  (-0.532186 0.158308 0)
  (0.126031 0.0389298 0)
  (0.210229 0.0540443 0)
  (0.235059 0.0220308 0)
  (0.220983 -0.0127209 0)
  (0.200142 -0.0364551 0)
  (0.172125 -0.0504186 0)
  (0.135576 -0.0555692 0)
  (0.093596 -0.0523284 0)
  (0.0517741 -0.0428327 0)
  (0.0142696 -0.0287292 0)
  (-0.0180361 -0.0113687 0)
  (-0.0372473 0.000277554 0)
  (-0.0488571 0.0067073 0)
  (-0.0545365 0.00947841 0)
  (-0.0572133 0.0103552 0)
  (-0.0589535 0.0102404 0)
  (-0.0606768 0.00972787 0)
  (-0.0626057 0.00910203 0)
  (-0.0647376 0.00834936 0)
  (-0.067141 0.00725095 0)
  (-0.0698217 0.00606319 0)
  (-0.072874 0.00510147 0)
  (-0.0764037 0.00437993 0)
  (-0.0804502 0.00412791 0)
  (-0.0850098 0.00469902 0)
  (-0.0899612 0.00652037 0)
  (-0.0951372 0.00998531 0)
  (-0.100504 0.0150912 0)
  (-0.10626 0.0209539 0)
  (-0.112668 0.0257793 0)
  (-0.118802 0.0304732 0)
  (-0.12402 0.0374166 0)
  (-0.128262 0.048832 0)
  (-0.131234 0.0659452 0)
  (-0.130376 0.0872727 0)
  (-0.121539 0.0993688 0)
  (-0.108529 0.0606876 0)
  (-0.17875 -0.167221 0)
  (0.0173444 0.14457 0)
  (0.0603817 0.0761775 0)
  (0.0656306 0.00844542 0)
  (0.0625967 -0.0359219 0)
  (0.0589515 -0.0558073 0)
  (0.0423578 -0.0601009 0)
  (0.018517 -0.0601695 0)
  (-0.00924536 -0.058914 0)
  (-0.0332392 -0.0589914 0)
  (-0.0529958 -0.0585012 0)
  (-0.0661502 -0.0593814 0)
  (-0.0728323 -0.0617356 0)
  (-0.075808 -0.063665 0)
  (-0.0769058 -0.0659674 0)
  (-0.0771107 -0.0683317 0)
  (-0.077096 -0.0707648 0)
  (-0.0771926 -0.0733324 0)
  (-0.0775485 -0.0759771 0)
  (-0.0782415 -0.0785827 0)
  (-0.0793836 -0.0809227 0)
  (-0.0810984 -0.0830562 0)
  (-0.0834132 -0.0849248 0)
  (-0.0863986 -0.0875168 0)
  (-0.0902908 -0.0911145 0)
  (-0.0952996 -0.0957725 0)
  (-0.10141 -0.101089 0)
  (-0.108188 -0.105844 0)
  (-0.114759 -0.108323 0)
  (-0.120137 -0.107345 0)
  (-0.123641 -0.100421 0)
  (-0.12465 -0.0871313 0)
  (-0.12161 -0.0675948 0)
  (-0.112189 -0.0423643 0)
  (-0.0939777 -0.0132039 0)
  (-0.0663055 0.0149214 0)
  (-0.032703 0.0271647 0)
  (0.0844415 -0.0731109 0)
  (-0.134534 -0.132797 0)
  (-0.0311643 -0.251479 0)
  (-0.30635 -0.0483743 0)
  (-0.21798 0.176792 0)
  (-0.158054 0.160264 0)
  (-0.109753 0.166963 0)
  (-0.0887529 0.189617 0)
  (-0.084945 0.199612 0)
  (-0.0895455 0.196286 0)
  (-0.0984838 0.198261 0)
  (-0.106016 0.203718 0)
  (-0.110282 0.211461 0)
  (-0.11072 0.218988 0)
  (-0.108697 0.227793 0)
  (-0.105466 0.235817 0)
  (-0.101968 0.241461 0)
  (-0.0987875 0.245785 0)
  (-0.0962441 0.249214 0)
  (-0.0944212 0.252137 0)
  (-0.0933298 0.254828 0)
  (-0.0929714 0.257353 0)
  (-0.0933467 0.259639 0)
  (-0.0944167 0.261472 0)
  (-0.096122 0.26289 0)
  (-0.0983331 0.263826 0)
  (-0.100949 0.265992 0)
  (-0.103811 0.26996 0)
  (-0.106717 0.276067 0)
  (-0.109434 0.283985 0)
  (-0.111667 0.292214 0)
  (-0.113055 0.298729 0)
  (-0.113164 0.302743 0)
  (-0.111171 0.302282 0)
  (-0.105718 0.297639 0)
  (-0.094948 0.290018 0)
  (-0.077111 0.281519 0)
  (-0.0523907 0.275517 0)
  (-0.0234104 0.276152 0)
  (0.0170244 0.284144 0)
  (0.12787 0.341905 0)
  (-0.285376 0.343008 0)
)
;

boundaryField
{
  floor
  {
    type noSlip;
  }
  ceiling
  {
    type noSlip;
  }
  sWall
  {
    type noSlip;
  }
  nWall
  {
    type noSlip;
  }
  sideWalls
  {
    type empty;
  }
  glass1
  {
    type noSlip;
  }
  glass2
  {
    type noSlip;
  }
  sun
  {
    type noSlip;
  }
  heatsource1
  {
    type noSlip;
  }
  heatsource2
  {
    type noSlip;
  }
  Table_master
  {
    type noSlip;
  }
  Table_slave
  {
    type noSlip;
  }
  inlet
  {
    type fixedValue;
    value uniform (0.277164 -0.114805 0);
  }
  outlet
  {
    type zeroGradient;
  }
} 	// ************************************************************************* //

