// -*- C++ -*-
// File generated by PyFoam - sorry for the ugliness

FoamFile
{
 version 2.0;
 format ascii;
 class volScalarField;
 location "100";
 object T;
}

dimensions [ 0 0 0 1 0 0 0 ];

internalField nonuniform List<scalar> 459
(
  305.54
  304.927
  304.857
  304.823
  304.8
  304.785
  304.775
  304.766
  304.758
  304.75
  304.742
  304.734
  304.725
  304.715
  304.702
  303.155
  303.138
  303.13
  303.125
  303.12
  303.116
  303.11
  303.103
  303.098
  303.092
  303.088
  303.084
  303.08
  303.077
  303.075
  303.074
  303.073
  303.073
  303.087
  305.187
  304.916
  304.768
  304.692
  304.65
  304.625
  304.613
  304.607
  304.606
  304.607
  304.613
  304.621
  304.634
  304.649
  304.666
  304.655
  304.633
  303.18
  303.164
  303.152
  303.145
  303.141
  303.134
  303.121
  303.106
  303.093
  303.081
  303.07
  303.061
  303.054
  303.047
  303.043
  303.041
  303.041
  303.046
  303.072
  305.041
  304.66
  304.506
  304.436
  304.401
  304.385
  304.379
  304.388
  304.407
  304.434
  304.467
  304.503
  304.542
  304.581
  304.617
  304.627
  304.618
  303.217
  303.187
  303.177
  303.172
  303.167
  303.162
  303.142
  303.12
  303.1
  303.082
  303.067
  303.055
  303.044
  303.036
  303.03
  303.029
  303.03
  303.035
  303.066
  304.949
  304.418
  304.294
  304.27
  304.265
  304.263
  304.262
  304.271
  304.295
  304.331
  304.375
  304.426
  304.479
  304.532
  304.581
  304.604
  304.583
  303.796
  303.29
  303.218
  303.202
  303.196
  303.19
  303.184
  303.174
  303.167
  303.161
  303.156
  303.151
  303.145
  303.138
  303.13
  303.121
  303.09
  303.06
  303.043
  303.065
  304.857
  304.237
  304.201
  304.238
  304.257
  304.259
  304.254
  304.251
  304.263
  304.292
  304.336
  304.39
  304.449
  304.509
  304.562
  304.586
  304.491
  303.69
  303.302
  303.233
  303.219
  303.214
  303.209
  303.204
  303.198
  303.193
  303.188
  303.183
  303.178
  303.172
  303.163
  303.152
  303.139
  303.115
  303.084
  303.057
  303.062
  303.121
  303.163
  303.172
  304.752
  304.14
  304.191
  304.272
  304.285
  304.282
  304.271
  304.262
  304.27
  304.295
  304.337
  304.39
  304.448
  304.505
  304.547
  304.531
  304.327
  303.61
  303.301
  303.242
  303.231
  303.227
  303.224
  303.22
  303.216
  303.211
  303.207
  303.203
  303.197
  303.191
  303.181
  303.168
  303.153
  303.131
  303.104
  303.075
  303.066
  303.087
  303.101
  303.134
  304.621
  304.115
  304.198
  304.293
  304.307
  304.308
  304.305
  304.302
  304.309
  304.33
  304.365
  304.409
  304.457
  304.497
  304.509
  304.43
  304.141
  303.531
  303.295
  303.253
  303.242
  303.238
  303.235
  303.232
  303.229
  303.226
  303.222
  303.218
  303.213
  303.206
  303.196
  303.182
  303.165
  303.144
  303.12
  303.095
  303.08
  303.084
  303.092
  303.119
  304.479
  304.084
  304.163
  304.304
  304.325
  304.338
  304.344
  304.349
  304.356
  304.371
  304.396
  304.426
  304.454
  304.467
  304.436
  304.298
  303.968
  303.471
  303.301
  303.27
  303.255
  303.246
  303.244
  303.242
  303.24
  303.237
  303.234
  303.231
  303.226
  303.22
  303.212
  303.201
  303.183
  303.164
  303.146
  303.129
  303.123
  303.134
  303.152
  303.28
  304.338
  304.008
  304.004
  304.264
  304.315
  304.342
  304.36
  304.372
  304.381
  304.391
  304.404
  304.418
  304.423
  304.406
  304.338
  304.166
  303.84
  303.448
  303.336
  303.303
  303.274
  303.255
  303.25
  303.249
  303.249
  303.247
  303.246
  303.244
  303.241
  303.238
  303.236
  303.235
  303.238
  303.244
  303.257
  303.28
  303.312
  303.344
  303.366
  303.421
  303.702
  304.198
  304.269
  304.308
  304.334
  304.351
  304.362
  304.369
  304.373
  304.373
  304.36
  304.324
  304.24
  304.071
  303.794
  303.492
  303.419
  303.369
  303.313
  303.27
  303.255
  303.255
  303.256
  303.257
  303.258
  303.259
  303.26
  303.262
  303.265
  303.269
  303.273
  303.281
  303.294
  303.313
  303.335
  303.357
  303.372
  303.389
  303.948
  304.15
  304.206
  304.241
  304.265
  304.283
  304.294
  304.3
  304.3
  304.293
  304.275
  304.236
  304.164
  304.035
  303.786
  303.645
  303.57
  303.492
  303.401
  303.308
  303.263
  303.259
  303.262
  303.265
  303.267
  303.27
  303.273
  303.276
  303.279
  303.282
  303.286
  303.293
  303.302
  303.316
  303.331
  303.348
  303.343
  303.371
  304.796
  304.37
  304.011
  304.094
  304.123
  304.14
  304.154
  304.166
  304.176
  304.184
  304.186
  304.182
  304.171
  304.15
  304.112
  303.986
  303.865
  303.795
  303.728
  303.647
  303.547
  303.419
  303.292
  303.26
  303.263
  303.267
  303.27
  303.273
  303.276
  303.279
  303.282
  303.285
  303.288
  303.293
  303.298
  303.31
  303.319
  303.323
  303.324
  303.361
)
;

boundaryField
{
  floor
  {
    type wallHeatTransfer;
    Tinf uniform 305.2;
    alphaWall uniform 0.24;
    value nonuniform List<scalar> 29
(
  304.743
  303.588
  303.527
  303.519
  303.515
  303.51
  303.508
  303.512
  303.517
  303.522
  303.527
  303.532
  303.537
  303.542
  303.547
  303.553
  303.561
  303.57
  303.578
  303.612
  303.612
  303.537
  303.491
  303.46
  304.743
  303.588
  303.522
  303.499
  303.948
)
;
  }
  ceiling
  {
    type wallHeatTransfer;
    Tinf uniform 303.2;
    alphaWall uniform 0.24;
    value nonuniform List<scalar> 43
(
  304.679
  304.281
  303.952
  303.999
  304.025
  304.043
  304.057
  304.069
  304.079
  304.087
  304.09
  304.087
  304.078
  304.059
  304.024
  303.909
  303.797
  303.729
  303.666
  303.591
  303.498
  303.383
  303.274
  303.248
  303.252
  303.256
  303.259
  303.262
  303.265
  303.268
  303.271
  303.274
  303.278
  303.282
  303.288
  303.299
  303.307
  303.311
  303.311
  303.343
  304.289
  303.977
  303.908
)
;
  }
  sWall
  {
    type wallHeatTransfer;
    Tinf uniform 315.2;
    alphaWall uniform 0.36;
    value uniform 305.905;
  }
  nWall
  {
    type wallHeatTransfer;
    Tinf uniform 307.2;
    alphaWall uniform 0.36;
    value nonuniform List<scalar> 6
(
  303.907
  303.851
  303.765
  303.933
  303.912
  303.967
)
;
  }
  sideWalls
  {
    type empty;
  }
  glass1
  {
    type wallHeatTransfer;
    Tinf uniform 315.2;
    alphaWall uniform 4.3;
    value nonuniform List<scalar> 9
(
  311.309
  310.29
  310.024
  309.899
  309.8
  309.699
  309.575
  309.421
  309.194
)
;
  }
  glass2
  {
    type wallHeatTransfer;
    Tinf uniform 307.2;
    alphaWall uniform 4.3;
    value nonuniform List<scalar> 2
(
  305.68
  305.791
)
;
  }
  sun
  {
    type wallHeatTransfer;
    Tinf uniform 305.2;
    alphaWall uniform 0.24;
    value nonuniform List<scalar> 14
(
  305.514
  304.942
  304.877
  304.845
  304.825
  304.811
  304.802
  304.795
  304.788
  304.781
  304.774
  304.767
  304.76
  304.753
)
;
  }
  heatsource1
  {
    type fixedGradient;
    gradient uniform 0;
  }
  heatsource2
  {
    type fixedGradient;
    gradient uniform 0;
  }
  Table_master
  {
    type zeroGradient;
  }
  Table_slave
  {
    type zeroGradient;
  }
  inlet
  {
    type fixedValue;
    value uniform 290.15;
  }
  outlet
  {
    type zeroGradient;
  }
} 	// ************************************************************************* //

