// -*- C++ -*-
// File generated by PyFoam - sorry for the ugliness

FoamFile
{
 version 2.0;
 format ascii;
 class volVectorField;
 location "130";
 object U;
}

dimensions [ 0 1 -1 0 0 0 0 ];

internalField nonuniform List<vector> 459
(
  (0.00558678 0.0339119 0)
  (-0.081725 -0.0163661 0)
  (-0.0515199 -0.0486169 0)
  (0.0363193 -0.0986973 0)
  (0.117102 -0.0738336 0)
  (0.180151 -0.0496158 0)
  (0.219641 -0.0320068 0)
  (0.237967 -0.0200283 0)
  (0.24194 -0.0116384 0)
  (0.235925 -0.00485536 0)
  (0.223139 0.00119649 0)
  (0.203914 0.00748042 0)
  (0.17658 0.0157576 0)
  (0.134515 0.0313593 0)
  (0.10974 0.0724451 0)
  (-0.0920053 0.00889121 0)
  (0.00276645 -0.000436343 0)
  (0.00595401 -0.0198634 0)
  (0.0288751 -0.0225281 0)
  (0.0496617 -0.017826 0)
  (0.066494 -0.0122223 0)
  (0.077295 -0.00757743 0)
  (0.083193 -0.00509093 0)
  (0.086201 -0.00402713 0)
  (0.088072 -0.00350719 0)
  (0.0895411 -0.00314506 0)
  (0.0906732 -0.00279983 0)
  (0.0912746 -0.00232122 0)
  (0.0907826 -0.00138443 0)
  (0.0880702 0.000623417 0)
  (0.0809471 0.00470939 0)
  (0.0670859 0.0106596 0)
  (0.0272921 0.0223763 0)
  (0.0836997 0.0145588 0)
  (0.0978113 0.0881717 0)
  (-0.0611759 0.00246166 0)
  (-0.0269359 -0.0634802 0)
  (0.0300547 -0.141027 0)
  (0.0889107 -0.110559 0)
  (0.137648 -0.0668291 0)
  (0.166607 -0.0334269 0)
  (0.17882 -0.0108007 0)
  (0.179876 0.00474054 0)
  (0.173918 0.015853 0)
  (0.163956 0.0247397 0)
  (0.151096 0.0334583 0)
  (0.136278 0.044444 0)
  (0.120585 0.0612406 0)
  (0.119009 0.0928437 0)
  (0.110277 0.0815007 0)
  (0.0671246 0.0681657 0)
  (-0.132001 0.0128564 0)
  (0.0352252 -0.0229926 0)
  (0.0391041 -0.0356335 0)
  (0.0531343 -0.0355015 0)
  (0.0669593 -0.0272182 0)
  (0.0768677 -0.0169405 0)
  (0.0811435 -0.0076707 0)
  (0.0821714 -0.00256097 0)
  (0.0822847 -0.000524511 0)
  (0.0825545 0.000305705 0)
  (0.0829379 0.000773642 0)
  (0.083249 0.00122636 0)
  (0.0834423 0.00210035 0)
  (0.0833143 0.00403096 0)
  (0.0820727 0.00839409 0)
  (0.076182 0.019065 0)
  (0.0638319 0.0298796 0)
  (0.017849 0.0454721 0)
  (0.143091 0.0356174 0)
  (0.17801 0.127688 0)
  (-0.0674643 0.000428723 0)
  (-0.0214841 -0.0908324 0)
  (0.0159181 -0.192315 0)
  (0.0573593 -0.160688 0)
  (0.0937059 -0.0989768 0)
  (0.112008 -0.0510854 0)
  (0.117449 -0.0191961 0)
  (0.115484 0.00230206 0)
  (0.110848 0.0178022 0)
  (0.105536 0.0298526 0)
  (0.100287 0.0409888 0)
  (0.0957878 0.0535547 0)
  (0.0920255 0.0692861 0)
  (0.0937446 0.0894763 0)
  (0.0854925 0.0838807 0)
  (0.0657405 0.102051 0)
  (-0.0864647 -0.0219837 0)
  (0.0571518 -0.0510606 0)
  (0.0713939 -0.0569453 0)
  (0.0782475 -0.0498922 0)
  (0.0844396 -0.0370694 0)
  (0.0882597 -0.0243937 0)
  (0.085552 -0.0190784 0)
  (0.0784492 -0.0129225 0)
  (0.0732093 -0.00957753 0)
  (0.0704489 -0.00767002 0)
  (0.0687908 -0.00645057 0)
  (0.0675196 -0.00556116 0)
  (0.0667165 -0.00462229 0)
  (0.0675322 -0.0028439 0)
  (0.0724517 0.00249145 0)
  (0.0701864 0.0255162 0)
  (0.059272 0.0426749 0)
  (0.00582917 0.0633711 0)
  (0.183933 0.0660672 0)
  (0.241903 0.158726 0)
  (-0.0863241 0.0038375 0)
  (-0.0267618 -0.110638 0)
  (-3.0957e-05 -0.227535 0)
  (0.025423 -0.196265 0)
  (0.0513142 -0.116575 0)
  (0.0602003 -0.0553872 0)
  (0.0590726 -0.0165847 0)
  (0.0551208 0.00727997 0)
  (0.0533153 0.0222856 0)
  (0.0532455 0.0331029 0)
  (0.0547625 0.0428933 0)
  (0.0579725 0.0536048 0)
  (0.0628444 0.0662995 0)
  (0.0735804 0.0820802 0)
  (0.0883138 0.0890059 0)
  (0.107807 0.108572 0)
  (0.142923 0.0241393 0)
  (0.133659 -0.0141474 0)
  (0.124218 -0.0445168 0)
  (0.111905 -0.0544635 0)
  (0.102138 -0.0489354 0)
  (0.0960818 -0.0364806 0)
  (0.0926166 -0.0213911 0)
  (0.0935506 -0.0114332 0)
  (0.0955839 -0.00647992 0)
  (0.0936795 -0.00324256 0)
  (0.088145 -0.00100204 0)
  (0.0804517 0.000733902 0)
  (0.0712721 0.00226054 0)
  (0.0605292 0.00381491 0)
  (0.0476212 0.00580973 0)
  (0.021916 0.00952584 0)
  (0.0282376 0.0376746 0)
  (0.0385328 0.0513858 0)
  (-0.00750955 0.0710328 0)
  (0.212654 0.103258 0)
  (0.29129 0.188262 0)
  (-0.109756 0.0140026 0)
  (-0.0325815 -0.125728 0)
  (-0.0104259 -0.250547 0)
  (-0.00123799 -0.219672 0)
  (0.0150825 -0.124734 0)
  (0.0182321 -0.0529211 0)
  (0.0129538 -0.0113512 0)
  (0.00931796 0.0102824 0)
  (0.0101652 0.0219793 0)
  (0.0136222 0.0302727 0)
  (0.0193935 0.038009 0)
  (0.0275643 0.0463284 0)
  (0.0384477 0.0557985 0)
  (0.055257 0.0667515 0)
  (0.0771568 0.0713686 0)
  (0.104319 0.0681069 0)
  (0.126698 0.0139744 0)
  (0.128483 -0.0200786 0)
  (0.118784 -0.0387027 0)
  (0.10544 -0.0433217 0)
  (0.092115 -0.0381323 0)
  (0.0809394 -0.0279161 0)
  (0.0725331 -0.0156436 0)
  (0.0667312 -0.00327721 0)
  (0.0614487 0.00468164 0)
  (0.0554496 0.00903578 0)
  (0.0482877 0.0116282 0)
  (0.0404396 0.0136005 0)
  (0.0319578 0.0155774 0)
  (0.0226932 0.0179345 0)
  (0.0134551 0.0209562 0)
  (-0.000353658 0.0239431 0)
  (0.00332325 0.0320839 0)
  (0.0279034 0.0427111 0)
  (0.00509462 0.055397 0)
  (0.128582 0.0965162 0)
  (0.103826 0.0786866 0)
  (0.0632679 0.0577826 0)
  (-0.0100142 0.0472348 0)
  (0.335045 0.219563 0)
  (-0.131545 0.0224416 0)
  (-0.0269829 -0.148905 0)
  (-0.0071173 -0.268735 0)
  (-0.0137256 -0.232746 0)
  (-0.00888494 -0.128524 0)
  (-0.00797596 -0.0484272 0)
  (-0.0143473 -0.00775128 0)
  (-0.0174269 0.0100106 0)
  (-0.0162845 0.0183702 0)
  (-0.0120708 0.0239444 0)
  (-0.00511574 0.0290806 0)
  (0.00516733 0.034694 0)
  (0.0181203 0.0403517 0)
  (0.0356113 0.0453083 0)
  (0.0565403 0.0441098 0)
  (0.0803086 0.0333599 0)
  (0.0953237 0.00492143 0)
  (0.0961703 -0.0164223 0)
  (0.087342 -0.0273214 0)
  (0.0743834 -0.0294055 0)
  (0.060752 -0.0249401 0)
  (0.0484428 -0.0166606 0)
  (0.0382636 -0.00647071 0)
  (0.0294475 0.00395088 0)
  (0.0233635 0.0108043 0)
  (0.0176657 0.0147868 0)
  (0.0116102 0.0175613 0)
  (0.00509915 0.0201788 0)
  (-0.00221123 0.023222 0)
  (-0.00917975 0.0262195 0)
  (-0.0140469 0.0280953 0)
  (-0.0176188 0.0263336 0)
  (-0.0128787 0.0198669 0)
  (0.00683464 0.0210959 0)
  (-0.007088 0.0185284 0)
  (0.0544583 0.0518228 0)
  (0.0470468 0.042524 0)
  (0.0355812 0.0375471 0)
  (-0.0269392 0.0496765 0)
  (0.382166 0.247403 0)
  (-0.144525 0.00854549 0)
  (0.00189865 -0.190707 0)
  (0.0206453 -0.282127 0)
  (-0.00307861 -0.235878 0)
  (-0.0157446 -0.124974 0)
  (-0.0189773 -0.0418584 0)
  (-0.0274049 -0.00359581 0)
  (-0.0318516 0.0104397 0)
  (-0.0315781 0.0153336 0)
  (-0.0278997 0.0178512 0)
  (-0.0214458 0.0200414 0)
  (-0.0123485 0.0223856 0)
  (-0.000444703 0.0247177 0)
  (0.0146113 0.0259647 0)
  (0.0309513 0.0233038 0)
  (0.0468168 0.0154488 0)
  (0.0546287 0.00122957 0)
  (0.0532104 -0.0106305 0)
  (0.0447901 -0.0166568 0)
  (0.0329225 -0.0168149 0)
  (0.0203529 -0.0124863 0)
  (0.00885887 -0.00536823 0)
  (-0.00156306 0.00330401 0)
  (-0.00822622 0.0108342 0)
  (-0.0127359 0.0160246 0)
  (-0.0167719 0.0197483 0)
  (-0.020931 0.022905 0)
  (-0.0252611 0.0259406 0)
  (-0.0294145 0.0286688 0)
  (-0.0323181 0.0300318 0)
  (-0.0328394 0.028327 0)
  (-0.0314317 0.0214554 0)
  (-0.0276974 0.0108382 0)
  (-0.0224773 0.00576672 0)
  (-0.0267553 0.00417532 0)
  (0.00270257 0.0285196 0)
  (0.00596072 0.0409089 0)
  (0.0135163 0.0477895 0)
  (-0.046998 0.0640524 0)
  (0.474387 0.254005 0)
  (-0.0311929 -0.0187634 0)
  (0.0628568 -0.196016 0)
  (0.0798464 -0.262306 0)
  (0.0368975 -0.217537 0)
  (-0.00748874 -0.10846 0)
  (-0.0249998 -0.0259382 0)
  (-0.0383299 0.00521072 0)
  (-0.0442406 0.0129368 0)
  (-0.0447311 0.0136706 0)
  (-0.0419262 0.0131594 0)
  (-0.0368794 0.0128686 0)
  (-0.0300424 0.0129372 0)
  (-0.0216312 0.0131518 0)
  (-0.0118364 0.0130558 0)
  (-0.00172786 0.0114497 0)
  (0.00660065 0.00749741 0)
  (0.00895248 0.00095303 0)
  (0.00602977 -0.00467236 0)
  (-0.00190445 -0.00688661 0)
  (-0.0120308 -0.00530068 0)
  (-0.0223832 -0.001037 0)
  (-0.0312832 0.00447746 0)
  (-0.0371413 0.00997406 0)
  (-0.0407794 0.0149374 0)
  (-0.0431126 0.0191214 0)
  (-0.044916 0.0227247 0)
  (-0.0464566 0.0259251 0)
  (-0.0475968 0.0286349 0)
  (-0.0479101 0.0302875 0)
  (-0.0468645 0.0297963 0)
  (-0.044382 0.0259665 0)
  (-0.0415491 0.0184027 0)
  (-0.0396728 0.00983258 0)
  (-0.0394132 0.00526707 0)
  (-0.0404151 0.00715702 0)
  (-0.0310145 0.023233 0)
  (-0.0231285 0.0429374 0)
  (-0.0168763 0.0544573 0)
  (-0.0920999 0.0608712 0)
  (0.576206 0.266588 0)
  (0.262753 0.191668 0)
  (0.17554 -0.0617201 0)
  (0.153004 -0.179461 0)
  (0.0811161 -0.157257 0)
  (-0.00362977 -0.0635585 0)
  (-0.0439177 0.00299881 0)
  (-0.0581069 0.018028 0)
  (-0.0628122 0.0176572 0)
  (-0.062958 0.0144566 0)
  (-0.0609186 0.011746 0)
  (-0.0576969 0.0100032 0)
  (-0.0537182 0.00903532 0)
  (-0.0492544 0.00858637 0)
  (-0.0446005 0.00837802 0)
  (-0.0404117 0.00793706 0)
  (-0.0378081 0.00684275 0)
  (-0.0383723 0.00487716 0)
  (-0.0419616 0.00332507 0)
  (-0.047734 0.00339018 0)
  (-0.054242 0.0050991 0)
  (-0.0597227 0.00778043 0)
  (-0.0636551 0.0109767 0)
  (-0.0658657 0.0144272 0)
  (-0.0666267 0.017953 0)
  (-0.0663168 0.0213546 0)
  (-0.0652464 0.0245248 0)
  (-0.0635031 0.0273072 0)
  (-0.0610106 0.0293867 0)
  (-0.057671 0.0301958 0)
  (-0.0535716 0.0289882 0)
  (-0.0492566 0.025222 0)
  (-0.0458241 0.019218 0)
  (-0.0442076 0.0128873 0)
  (-0.0443585 0.00897566 0)
  (-0.0448934 0.0104578 0)
  (-0.0419578 0.0219601 0)
  (-0.0354261 0.0401066 0)
  (-0.0252581 0.0500003 0)
  (-0.0490127 0.0350295 0)
  (0.111996 -0.144488 0)
  (0.112932 -0.139179 0)
  (0.0283825 -0.0729204 0)
  (-0.0653977 0.0140263 0)
  (-0.0859651 0.033823 0)
  (-0.0895923 0.0324702 0)
  (-0.0887176 0.0267757 0)
  (-0.0868195 0.0216286 0)
  (-0.0849218 0.0179888 0)
  (-0.0831781 0.0156799 0)
  (-0.0815872 0.0143888 0)
  (-0.0801611 0.0138931 0)
  (-0.0789508 0.0140172 0)
  (-0.0781294 0.0145165 0)
  (-0.0780445 0.0150977 0)
  (-0.0791441 0.0155524 0)
  (-0.081315 0.0162012 0)
  (-0.0839087 0.0174373 0)
  (-0.0861317 0.0192148 0)
  (-0.0874076 0.0212901 0)
  (-0.0875247 0.0235044 0)
  (-0.0864313 0.0257438 0)
  (-0.0841856 0.0278976 0)
  (-0.0809002 0.0297875 0)
  (-0.0766979 0.031236 0)
  (-0.0716801 0.032054 0)
  (-0.0659667 0.0320126 0)
  (-0.0597815 0.0308165 0)
  (-0.0535587 0.0281624 0)
  (-0.0480148 0.0239598 0)
  (-0.0440338 0.0186856 0)
  (-0.0421811 0.0136624 0)
  (-0.0421494 0.0107964 0)
  (-0.0424599 0.0124481 0)
  (-0.040934 0.0214543 0)
  (-0.0376796 0.0378569 0)
  (-0.0329303 0.0546579 0)
  (0.0162915 0.0613246 0)
  (-0.177677 -0.0796179 0)
  (-0.07667 -0.0853926 0)
  (-0.12069 -0.0726665 0)
  (-0.134622 -0.0559445 0)
  (-0.128418 -0.0569927 0)
  (-0.120525 -0.065709 0)
  (-0.11456 -0.0743329 0)
  (-0.110667 -0.0805116 0)
  (-0.108339 -0.0842448 0)
  (-0.107013 -0.0861089 0)
  (-0.106252 -0.0866377 0)
  (-0.105738 -0.08626 0)
  (-0.105244 -0.0854073 0)
  (-0.104671 -0.0846034 0)
  (-0.104081 -0.0843982 0)
  (-0.103651 -0.0851209 0)
  (-0.103422 -0.0865446 0)
  (-0.103202 -0.0881532 0)
  (-0.102697 -0.0895526 0)
  (-0.101654 -0.090492 0)
  (-0.0998873 -0.09079 0)
  (-0.0972511 -0.0903699 0)
  (-0.0936393 -0.0892609 0)
  (-0.0889981 -0.0875857 0)
  (-0.083333 -0.085504 0)
  (-0.0767139 -0.08323 0)
  (-0.0693006 -0.0810914 0)
  (-0.0613924 -0.0795754 0)
  (-0.0534801 -0.0792861 0)
  (-0.0462545 -0.0807604 0)
  (-0.0404864 -0.0841503 0)
  (-0.0366921 -0.0888862 0)
  (-0.0346088 -0.0935474 0)
  (-0.0326781 -0.0958715 0)
  (-0.0283407 -0.093604 0)
  (-0.0200728 -0.0881867 0)
  (-0.00481531 -0.0969606 0)
  (0.0632692 -0.260903 0)
  (-0.18127 -0.20316 0)
  (-0.205455 0.0215143 0)
  (-0.189725 0.306627 0)
  (-0.185262 0.279841 0)
  (-0.189321 0.270541 0)
  (-0.179523 0.272371 0)
  (-0.164293 0.280243 0)
  (-0.150911 0.288624 0)
  (-0.14151 0.295044 0)
  (-0.135629 0.299106 0)
  (-0.132211 0.301255 0)
  (-0.130319 0.302089 0)
  (-0.129235 0.30213 0)
  (-0.128405 0.301852 0)
  (-0.127393 0.301765 0)
  (-0.125915 0.302401 0)
  (-0.12389 0.30419 0)
  (-0.121426 0.307246 0)
  (-0.118656 0.311263 0)
  (-0.115615 0.315758 0)
  (-0.112247 0.32032 0)
  (-0.10845 0.324664 0)
  (-0.104099 0.328602 0)
  (-0.0990534 0.332043 0)
  (-0.0932012 0.334961 0)
  (-0.0864907 0.337343 0)
  (-0.0789557 0.339161 0)
  (-0.0707283 0.340386 0)
  (-0.0620568 0.341046 0)
  (-0.0533302 0.341285 0)
  (-0.0450893 0.341401 0)
  (-0.0379964 0.341853 0)
  (-0.0327077 0.343207 0)
  (-0.0295627 0.345975 0)
  (-0.0281385 0.350337 0)
  (-0.0272673 0.355945 0)
  (-0.0264073 0.362824 0)
  (-0.0265828 0.375058 0)
  (-0.0206636 0.411186 0)
  (0.0925 0.626098 0)
)
;

boundaryField
{
  floor
  {
    type noSlip;
  }
  ceiling
  {
    type noSlip;
  }
  sWall
  {
    type noSlip;
  }
  nWall
  {
    type noSlip;
  }
  sideWalls
  {
    type empty;
  }
  glass1
  {
    type noSlip;
  }
  glass2
  {
    type noSlip;
  }
  sun
  {
    type noSlip;
  }
  heatsource1
  {
    type noSlip;
  }
  heatsource2
  {
    type noSlip;
  }
  Table_master
  {
    type noSlip;
  }
  Table_slave
  {
    type noSlip;
  }
  inlet
  {
    type fixedValue;
    value uniform (0.277164 -0.114805 0);
  }
  outlet
  {
    type zeroGradient;
  }
} 	// ************************************************************************* //

