// -*- C++ -*-
// File generated by PyFoam - sorry for the ugliness

FoamFile
{
 version 2.0;
 format ascii;
 class volScalarField;
 location "80";
 object T;
}

dimensions [ 0 0 0 1 0 0 0 ];

internalField nonuniform List<scalar> 459
(
  304.735
  304.61
  304.601
  304.598
  304.599
  304.617
  304.719
  304.789
  304.837
  304.871
  304.891
  304.904
  304.915
  304.925
  304.927
  306.024
  305.885
  305.796
  305.762
  305.792
  305.825
  305.853
  305.877
  305.901
  305.925
  305.948
  305.971
  305.994
  306.018
  306.044
  306.074
  306.112
  306.172
  306.303
  304.803
  304.623
  304.593
  304.577
  304.566
  304.587
  304.719
  304.84
  304.931
  304.992
  305.025
  305.037
  305.036
  305.021
  304.992
  305.007
  305.033
  306.099
  305.896
  305.71
  305.701
  305.748
  305.807
  305.845
  305.879
  305.912
  305.944
  305.976
  306.008
  306.04
  306.074
  306.11
  306.146
  306.186
  306.238
  306.365
  304.873
  304.641
  304.594
  304.564
  304.53
  304.551
  304.714
  304.891
  305.033
  305.123
  305.167
  305.176
  305.163
  305.133
  305.091
  305.071
  305.066
  306.023
  305.609
  305.573
  305.632
  305.732
  305.832
  305.858
  305.891
  305.927
  305.963
  306.001
  306.041
  306.085
  306.139
  306.196
  306.244
  306.279
  306.313
  306.421
  304.945
  304.673
  304.614
  304.572
  304.498
  304.519
  304.712
  304.955
  305.155
  305.283
  305.34
  305.343
  305.315
  305.265
  305.203
  305.153
  305.116
  305.133
  305.261
  305.339
  305.467
  305.63
  305.798
  305.946
  306.064
  306.148
  306.216
  306.276
  306.333
  306.386
  306.435
  306.48
  306.518
  306.469
  306.429
  306.408
  306.475
  305.019
  304.72
  304.656
  304.6
  304.469
  304.489
  304.722
  305.037
  305.304
  305.47
  305.539
  305.536
  305.487
  305.415
  305.336
  305.269
  305.223
  305.235
  305.303
  305.434
  305.616
  305.82
  306.017
  306.188
  306.327
  306.427
  306.506
  306.572
  306.625
  306.664
  306.692
  306.706
  306.701
  306.649
  306.577
  306.517
  306.525
  306.601
  306.934
  308.088
  305.093
  304.782
  304.72
  304.611
  304.436
  304.461
  304.753
  305.15
  305.486
  305.687
  305.761
  305.745
  305.672
  305.581
  305.494
  305.428
  305.397
  305.44
  305.559
  305.736
  305.945
  306.159
  306.355
  306.517
  306.641
  306.73
  306.8
  306.849
  306.885
  306.907
  306.915
  306.908
  306.878
  306.813
  306.728
  306.654
  306.622
  306.692
  307.017
  308.01
  305.182
  304.875
  304.823
  304.602
  304.369
  304.433
  304.821
  305.317
  305.718
  305.938
  305.997
  305.958
  305.87
  305.778
  305.704
  305.665
  305.68
  305.781
  305.953
  306.157
  306.37
  306.573
  306.748
  306.883
  306.978
  307.046
  307.088
  307.114
  307.129
  307.134
  307.125
  307.099
  307.051
  306.972
  306.876
  306.792
  306.73
  306.793
  307.114
  307.927
  305.296
  305.07
  304.925
  304.497
  304.229
  304.418
  304.971
  305.58
  306.02
  306.223
  306.241
  306.193
  306.122
  306.058
  306.02
  306.031
  306.107
  306.258
  306.451
  306.649
  306.838
  307.006
  307.146
  307.24
  307.301
  307.335
  307.351
  307.358
  307.356
  307.344
  307.319
  307.277
  307.215
  307.129
  307.029
  306.93
  306.84
  306.902
  307.178
  307.834
  305.465
  305.346
  304.798
  304.061
  303.957
  304.495
  305.321
  306.015
  306.407
  306.516
  306.526
  306.501
  306.471
  306.457
  306.473
  306.534
  306.649
  306.811
  306.986
  307.144
  307.285
  307.4
  307.487
  307.545
  307.575
  307.587
  307.589
  307.583
  307.568
  307.542
  307.504
  307.45
  307.38
  307.294
  307.197
  307.098
  306.994
  307.064
  307.306
  307.869
  300.843
  302.049
  303.663
  305.067
  306.19
  306.616
  306.785
  306.847
  306.869
  306.88
  306.897
  306.93
  306.987
  307.073
  307.189
  307.321
  307.449
  307.556
  307.642
  307.707
  307.75
  307.774
  307.784
  307.785
  307.778
  307.765
  307.743
  307.713
  307.673
  307.622
  307.562
  307.492
  307.417
  307.346
  307.294
  307.356
  307.549
  307.896
  305.317
  305.653
  306.08
  306.509
  306.843
  307.02
  307.11
  307.162
  307.2
  307.24
  307.285
  307.341
  307.409
  307.49
  307.578
  307.666
  307.745
  307.807
  307.854
  307.885
  307.904
  307.914
  307.916
  307.912
  307.903
  307.888
  307.869
  307.844
  307.815
  307.78
  307.743
  307.704
  307.666
  307.635
  307.621
  307.663
  307.817
  307.976
  306.715
  306.691
  306.693
  306.823
  307.016
  307.179
  307.296
  307.374
  307.431
  307.483
  307.534
  307.586
  307.639
  307.693
  307.748
  307.803
  307.855
  307.901
  307.938
  307.967
  307.987
  308
  308.007
  308.01
  308.009
  308.005
  307.998
  307.99
  307.98
  307.968
  307.956
  307.944
  307.934
  307.924
  307.917
  307.913
  307.916
  307.946
  308.041
  308.111
)
;

boundaryField
{
  floor
  {
    type wallHeatTransfer;
    Tinf uniform 298.85;
    alphaWall uniform 0.24;
    value nonuniform List<scalar> 29
(
  304.314
  305.06
  305.075
  305.066
  305.078
  305.115
  305.14
  305.137
  305.125
  305.112
  305.099
  305.088
  305.078
  305.07
  305.063
  305.059
  305.057
  305.057
  305.059
  305.102
  305.102
  305.196
  305.267
  305.361
  304.314
  305.06
  305.259
  305.239
  304.514
)
;
  }
  ceiling
  {
    type wallHeatTransfer;
    Tinf uniform 298.85;
    alphaWall uniform 0.24;
    value nonuniform List<scalar> 43
(
  306.065
  306.102
  306.179
  306.351
  306.551
  306.699
  306.796
  306.857
  306.906
  306.953
  307.001
  307.052
  307.104
  307.158
  307.214
  307.268
  307.318
  307.36
  307.393
  307.417
  307.432
  307.44
  307.444
  307.444
  307.441
  307.435
  307.426
  307.415
  307.4
  307.383
  307.364
  307.344
  307.325
  307.313
  307.312
  307.328
  307.364
  307.434
  307.55
  307.578
  305.113
  305.025
  304.949
)
;
  }
  sWall
  {
    type wallHeatTransfer;
    Tinf uniform 311.144;
    alphaWall uniform 0.36;
    value uniform 307.244;
  }
  nWall
  {
    type wallHeatTransfer;
    Tinf uniform 299.15;
    alphaWall uniform 0.36;
    value nonuniform List<scalar> 6
(
  306.907
  307.021
  307.145
  307.334
  307.336
  307.359
)
;
  }
  sideWalls
  {
    type empty;
  }
  glass1
  {
    type wallHeatTransfer;
    Tinf uniform 311.144;
    alphaWall uniform 4.3;
    value nonuniform List<scalar> 9
(
  308.926
  308.675
  308.496
  308.348
  308.225
  308.129
  308.119
  308.191
  308.33
)
;
  }
  glass2
  {
    type wallHeatTransfer;
    Tinf uniform 299.15;
    alphaWall uniform 4.3;
    value nonuniform List<scalar> 2
(
  303.845
  304.169
)
;
  }
  sun
  {
    type wallHeatTransfer;
    Tinf uniform 298.85;
    alphaWall uniform 0.24;
    value nonuniform List<scalar> 14
(
  304.18
  304.12
  304.135
  304.161
  304.186
  304.217
  304.313
  304.366
  304.396
  304.408
  304.405
  304.393
  304.377
  304.354
)
;
  }
  heatsource1
  {
    type fixedGradient;
    gradient uniform 0;
  }
  heatsource2
  {
    type fixedGradient;
    gradient uniform 0;
  }
  Table_master
  {
    type zeroGradient;
  }
  Table_slave
  {
    type zeroGradient;
  }
  inlet
  {
    type fixedValue;
    value uniform 300.15;
  }
  outlet
  {
    type zeroGradient;
  }
} 	// ************************************************************************* //

