// -*- C++ -*-
// File generated by PyFoam - sorry for the ugliness

FoamFile
{
 version 2.0;
 format ascii;
 class volScalarField;
 location "600";
 object T;
}

dimensions [ 0 0 0 1 0 0 0 ];

internalField nonuniform List<scalar> 459
(
  303.273
  302.984
  302.975
  302.974
  302.972
  302.971
  302.969
  302.967
  302.965
  302.962
  302.957
  302.95
  302.941
  302.93
  302.92
  302.934
  302.927
  302.925
  302.923
  302.922
  302.921
  302.92
  302.919
  302.919
  302.918
  302.916
  302.915
  302.914
  302.912
  302.911
  302.909
  302.907
  302.905
  302.914
  303.487
  303.017
  302.999
  303.004
  303.009
  303.014
  303.017
  303.018
  303.018
  303.016
  303.007
  302.991
  302.968
  302.941
  302.912
  302.895
  302.886
  302.919
  302.916
  302.914
  302.911
  302.909
  302.905
  302.901
  302.897
  302.893
  302.889
  302.885
  302.881
  302.878
  302.874
  302.872
  302.871
  302.872
  302.875
  302.897
  303.704
  303.061
  303.028
  303.042
  303.058
  303.073
  303.086
  303.096
  303.101
  303.101
  303.088
  303.062
  303.024
  302.977
  302.932
  302.901
  302.889
  302.915
  302.918
  302.92
  302.919
  302.917
  302.913
  302.906
  302.899
  302.892
  302.886
  302.879
  302.873
  302.867
  302.861
  302.857
  302.855
  302.856
  302.859
  302.888
  303.913
  303.119
  303.056
  303.077
  303.104
  303.132
  303.158
  303.179
  303.192
  303.195
  303.181
  303.145
  303.088
  303.019
  302.952
  302.905
  302.889
  302.899
  302.91
  302.924
  302.93
  302.931
  302.93
  302.927
  302.924
  302.922
  302.919
  302.917
  302.913
  302.91
  302.906
  302.901
  302.895
  302.876
  302.861
  302.856
  302.885
  304.109
  303.193
  303.084
  303.102
  303.137
  303.175
  303.212
  303.247
  303.272
  303.281
  303.268
  303.224
  303.152
  303.061
  302.971
  302.906
  302.885
  302.896
  302.916
  302.933
  302.942
  302.944
  302.943
  302.941
  302.939
  302.937
  302.934
  302.931
  302.926
  302.921
  302.915
  302.908
  302.899
  302.885
  302.868
  302.856
  302.876
  302.933
  302.962
  302.971
  304.279
  303.288
  303.131
  303.12
  303.153
  303.194
  303.236
  303.279
  303.318
  303.34
  303.332
  303.283
  303.199
  303.093
  302.984
  302.905
  302.881
  302.896
  302.924
  302.945
  302.954
  302.956
  302.956
  302.954
  302.952
  302.95
  302.947
  302.942
  302.937
  302.93
  302.921
  302.912
  302.902
  302.889
  302.873
  302.859
  302.867
  302.893
  302.902
  302.937
  304.41
  303.447
  303.273
  303.193
  303.186
  303.209
  303.244
  303.283
  303.331
  303.37
  303.363
  303.308
  303.216
  303.101
  302.983
  302.9
  302.877
  302.897
  302.933
  302.957
  302.965
  302.967
  302.968
  302.967
  302.965
  302.963
  302.959
  302.954
  302.947
  302.938
  302.926
  302.914
  302.903
  302.891
  302.877
  302.864
  302.864
  302.872
  302.88
  302.909
  304.629
  303.912
  303.708
  303.525
  303.405
  303.348
  303.334
  303.346
  303.387
  303.404
  303.373
  303.299
  303.194
  303.074
  302.955
  302.88
  302.87
  302.9
  302.945
  302.968
  302.976
  302.978
  302.979
  302.979
  302.978
  302.976
  302.972
  302.968
  302.961
  302.952
  302.941
  302.926
  302.915
  302.905
  302.895
  302.886
  302.887
  302.902
  302.927
  303.08
  304.933
  304.625
  304.357
  304.101
  303.889
  303.733
  303.633
  303.576
  303.534
  303.452
  303.346
  303.23
  303.112
  302.995
  302.888
  302.843
  302.863
  302.91
  302.961
  302.979
  302.986
  302.99
  302.992
  302.993
  302.993
  302.992
  302.991
  302.988
  302.985
  302.982
  302.982
  302.985
  302.991
  303.005
  303.028
  303.06
  303.102
  303.141
  303.166
  303.225
  298.003
  300.919
  302.288
  302.791
  302.991
  303.064
  303.069
  303.057
  303.024
  302.975
  302.916
  302.851
  302.787
  302.805
  302.873
  302.936
  302.976
  302.99
  302.997
  303.002
  303.005
  303.008
  303.011
  303.013
  303.015
  303.017
  303.02
  303.023
  303.027
  303.032
  303.04
  303.053
  303.073
  303.097
  303.125
  303.149
  303.162
  303.175
  298.486
  300.868
  301.814
  302.308
  302.559
  302.675
  302.717
  302.734
  302.74
  302.737
  302.726
  302.709
  302.695
  302.813
  302.931
  302.974
  302.993
  303.003
  303.009
  303.014
  303.018
  303.022
  303.026
  303.029
  303.033
  303.037
  303.04
  303.044
  303.049
  303.053
  303.06
  303.07
  303.084
  303.101
  303.12
  303.138
  303.129
  303.157
  299.945
  299.885
  299.882
  301.343
  301.909
  302.284
  302.443
  302.513
  302.547
  302.563
  302.578
  302.591
  302.603
  302.615
  302.642
  302.937
  303.003
  303.013
  303.019
  303.023
  303.027
  303.031
  303.034
  303.037
  303.04
  303.044
  303.047
  303.049
  303.052
  303.055
  303.059
  303.062
  303.067
  303.072
  303.08
  303.094
  303.105
  303.11
  303.11
  303.146
)
;

boundaryField
{
  floor
  {
    type wallHeatTransfer;
    Tinf uniform 305.2;
    alphaWall uniform 0.24;
    value nonuniform List<scalar> 29
(
  303.197
  303.313
  303.326
  303.338
  303.349
  303.358
  303.367
  303.376
  303.385
  303.393
  303.401
  303.409
  303.416
  303.423
  303.431
  303.438
  303.447
  303.458
  303.467
  303.5
  303.5
  303.417
  303.366
  303.332
  303.197
  303.313
  303.262
  303.233
  303.183
)
;
  }
  ceiling
  {
    type wallHeatTransfer;
    Tinf uniform 303.2;
    alphaWall uniform 0.24;
    value nonuniform List<scalar> 43
(
  300.159
  300.094
  300.083
  301.451
  301.987
  302.343
  302.494
  302.563
  302.598
  302.617
  302.633
  302.649
  302.664
  302.68
  302.71
  302.982
  303.039
  303.047
  303.052
  303.055
  303.058
  303.06
  303.062
  303.064
  303.066
  303.067
  303.069
  303.071
  303.073
  303.075
  303.077
  303.079
  303.082
  303.087
  303.093
  303.104
  303.114
  303.119
  303.119
  303.152
  304.851
  304.568
  298.762
)
;
  }
  sWall
  {
    type wallHeatTransfer;
    Tinf uniform 315.2;
    alphaWall uniform 0.36;
    value uniform 301.404;
  }
  nWall
  {
    type wallHeatTransfer;
    Tinf uniform 307.2;
    alphaWall uniform 0.36;
    value nonuniform List<scalar> 6
(
  303.747
  303.7
  303.641
  303.757
  303.736
  303.786
)
;
  }
  sideWalls
  {
    type empty;
  }
  glass1
  {
    type wallHeatTransfer;
    Tinf uniform 315.2;
    alphaWall uniform 4.3;
    value nonuniform List<scalar> 9
(
  312.151
  311.429
  310.933
  310.523
  310.176
  309.871
  309.598
  309.628
  309.824
)
;
  }
  glass2
  {
    type wallHeatTransfer;
    Tinf uniform 307.2;
    alphaWall uniform 4.3;
    value nonuniform List<scalar> 2
(
  305.628
  305.738
)
;
  }
  sun
  {
    type wallHeatTransfer;
    Tinf uniform 305.2;
    alphaWall uniform 0.24;
    value nonuniform List<scalar> 14
(
  303.537
  303.277
  303.27
  303.262
  303.255
  303.25
  303.245
  303.24
  303.235
  303.231
  303.225
  303.218
  303.211
  303.204
)
;
  }
  heatsource1
  {
    type fixedGradient;
    gradient uniform 0;
  }
  heatsource2
  {
    type fixedGradient;
    gradient uniform 0;
  }
  Table_master
  {
    type zeroGradient;
  }
  Table_slave
  {
    type zeroGradient;
  }
  inlet
  {
    type fixedValue;
    value uniform 293.15;
  }
  outlet
  {
    type zeroGradient;
  }
} 	// ************************************************************************* //

