// -*- C++ -*-
// File generated by PyFoam - sorry for the ugliness

FoamFile
{
 version 2.0;
 format ascii;
 class volVectorField;
 location "700";
 object U;
}

dimensions [ 0 1 -1 0 0 0 0 ];

internalField nonuniform List<vector> 459
(
  (0.0699576 0.0774859 0)
  (-0.152377 0.0136363 0)
  (-0.159486 0.0141768 0)
  (-0.187269 0.0117046 0)
  (-0.211556 0.00834956 0)
  (-0.231823 0.00461723 0)
  (-0.247369 0.000506935 0)
  (-0.257445 -0.00410505 0)
  (-0.261087 -0.00939167 0)
  (-0.256905 -0.0155951 0)
  (-0.243334 -0.0233325 0)
  (-0.217562 -0.033063 0)
  (-0.178038 -0.0466207 0)
  (-0.134497 -0.0679102 0)
  (-0.122628 -0.0977994 0)
  (0.0770056 -0.0422106 0)
  (0.05242 -0.0262153 0)
  (0.0658617 -0.0160644 0)
  (0.0793506 -0.0107065 0)
  (0.0863048 -0.00765046 0)
  (0.0895752 -0.00539605 0)
  (0.0910058 -0.00347418 0)
  (0.0906665 -0.00227667 0)
  (0.0893673 -0.00166233 0)
  (0.0878527 -0.00131838 0)
  (0.0863593 -0.00106849 0)
  (0.084828 -0.000836988 0)
  (0.0831016 -0.000538832 0)
  (0.0808715 3.27884e-06 0)
  (0.0774413 0.00118248 0)
  (0.0714379 0.00355818 0)
  (0.0613525 0.0063502 0)
  (0.0502636 0.0090538 0)
  (-0.00719441 0.0250189 0)
  (0.271737 0.164932 0)
  (-0.162461 0.0432985 0)
  (-0.135571 0.0452129 0)
  (-0.167578 0.0408746 0)
  (-0.192393 0.0355414 0)
  (-0.21301 0.0295252 0)
  (-0.229054 0.0225623 0)
  (-0.23995 0.0142743 0)
  (-0.244815 0.00425776 0)
  (-0.242317 -0.007835 0)
  (-0.232062 -0.0213647 0)
  (-0.213213 -0.0360545 0)
  (-0.187136 -0.0532087 0)
  (-0.160663 -0.0753404 0)
  (-0.140699 -0.0949534 0)
  (-0.107037 -0.0776274 0)
  (-0.0638051 -0.0681282 0)
  (0.0791853 -0.0627933 0)
  (0.0348455 -0.0308452 0)
  (0.0443099 -0.0139367 0)
  (0.0558973 -0.00775738 0)
  (0.062874 -0.00519083 0)
  (0.0672953 -0.00260077 0)
  (0.0701289 0.00137055 0)
  (0.0706833 0.00349202 0)
  (0.0705868 0.00415156 0)
  (0.0706821 0.00426406 0)
  (0.0709312 0.00426562 0)
  (0.07116 0.00431837 0)
  (0.0713041 0.00459756 0)
  (0.0713024 0.00548048 0)
  (0.0705821 0.00791589 0)
  (0.0665684 0.0146137 0)
  (0.0562051 0.0207011 0)
  (0.0500535 0.0251559 0)
  (-0.0499224 0.0522652 0)
  (0.451465 0.250477 0)
  (-0.203022 0.0768001 0)
  (-0.104518 0.075775 0)
  (-0.140906 0.064945 0)
  (-0.162953 0.0547238 0)
  (-0.181727 0.0436875 0)
  (-0.196722 0.0311276 0)
  (-0.20741 0.0165585 0)
  (-0.212814 -0.000283527 0)
  (-0.211375 -0.0191785 0)
  (-0.202869 -0.0398017 0)
  (-0.18775 -0.0610093 0)
  (-0.168217 -0.0822092 0)
  (-0.147883 -0.102361 0)
  (-0.126224 -0.11486 0)
  (-0.0977538 -0.111192 0)
  (-0.0810611 -0.116838 0)
  (0.0533662 -0.0770314 0)
  (0.0110638 -0.0408549 0)
  (0.0229366 -0.0239416 0)
  (0.0344445 -0.0175918 0)
  (0.0430512 -0.0139834 0)
  (0.0494619 -0.0108175 0)
  (0.0537217 -0.00771482 0)
  (0.0532955 -0.00538478 0)
  (0.0528567 -0.00428276 0)
  (0.0536283 -0.00375404 0)
  (0.0549695 -0.00342363 0)
  (0.0564246 -0.00313691 0)
  (0.058054 -0.00273008 0)
  (0.0604389 -0.00182318 0)
  (0.0650193 0.00163583 0)
  (0.0643038 0.020004 0)
  (0.0513398 0.0331839 0)
  (0.0552475 0.0419856 0)
  (-0.0886693 0.0796766 0)
  (0.605629 0.321266 0)
  (-0.256053 0.11147 0)
  (-0.0678144 0.102868 0)
  (-0.110524 0.0865625 0)
  (-0.127055 0.0737916 0)
  (-0.14226 0.0602133 0)
  (-0.155128 0.0445915 0)
  (-0.16506 0.0260879 0)
  (-0.170812 0.00406688 0)
  (-0.170184 -0.0213848 0)
  (-0.163022 -0.0486675 0)
  (-0.151035 -0.0753164 0)
  (-0.136704 -0.0993824 0)
  (-0.122586 -0.118944 0)
  (-0.109115 -0.130686 0)
  (-0.0972553 -0.13277 0)
  (-0.0901969 -0.118996 0)
  (-0.0639254 -0.0486419 0)
  (-0.000299218 -0.0797981 0)
  (-1.51938e-05 -0.0532292 0)
  (0.0106888 -0.0357349 0)
  (0.0205103 -0.0272345 0)
  (0.0287493 -0.0217104 0)
  (0.0354385 -0.0162657 0)
  (0.044221 -0.0127244 0)
  (0.0566864 -0.0112352 0)
  (0.0679633 -0.00997617 0)
  (0.0773449 -0.00859126 0)
  (0.0844714 -0.00677627 0)
  (0.0885237 -0.00439748 0)
  (0.0880407 -0.00139801 0)
  (0.081857 0.0024711 0)
  (0.067837 0.00783179 0)
  (0.0541327 0.0298515 0)
  (0.0409453 0.048399 0)
  (0.0604676 0.0624597 0)
  (-0.13067 0.102875 0)
  (0.733022 0.378636 0)
  (-0.308515 0.144835 0)
  (-0.0284326 0.120059 0)
  (-0.0776461 0.101243 0)
  (-0.0872979 0.0875102 0)
  (-0.097445 0.0724417 0)
  (-0.106591 0.0546186 0)
  (-0.114279 0.0329896 0)
  (-0.119193 0.00663257 0)
  (-0.117988 -0.0243582 0)
  (-0.110945 -0.0570603 0)
  (-0.101176 -0.0870036 0)
  (-0.0908902 -0.11164 0)
  (-0.0818263 -0.129949 0)
  (-0.0743692 -0.141444 0)
  (-0.0680203 -0.146326 0)
  (-0.0574141 -0.140163 0)
  (-0.0362232 -0.109542 0)
  (-0.0118355 -0.0904261 0)
  (-0.00510853 -0.0632459 0)
  (0.00272612 -0.0453754 0)
  (0.0101254 -0.0356586 0)
  (0.01716 -0.0293992 0)
  (0.0243552 -0.0241639 0)
  (0.0330816 -0.0193816 0)
  (0.0429993 -0.0165445 0)
  (0.0523618 -0.0144558 0)
  (0.0607356 -0.0118837 0)
  (0.0677456 -0.00795345 0)
  (0.0726403 -0.00211497 0)
  (0.0741993 0.0052592 0)
  (0.071295 0.0136342 0)
  (0.0640071 0.0235727 0)
  (0.0548008 0.0406438 0)
  (0.0416161 0.0610149 0)
  (0.0685271 0.0831175 0)
  (-0.0359039 0.117188 0)
  (0.041919 0.0211323 0)
  (-0.074921 -0.0420806 0)
  (-0.284216 -0.0651094 0)
  (0.820744 0.429047 0)
  (-0.352993 0.172594 0)
  (0.00389652 0.120569 0)
  (-0.0416023 0.109214 0)
  (-0.045111 0.095895 0)
  (-0.0500771 0.0798489 0)
  (-0.054377 0.0609871 0)
  (-0.0581632 0.0379518 0)
  (-0.0606094 0.00890548 0)
  (-0.0552937 -0.0273759 0)
  (-0.0475307 -0.064787 0)
  (-0.0405345 -0.096048 0)
  (-0.0351539 -0.119524 0)
  (-0.0321079 -0.135685 0)
  (-0.0312396 -0.145556 0)
  (-0.0316806 -0.14994 0)
  (-0.0279653 -0.146922 0)
  (-0.0190153 -0.128766 0)
  (-0.00908896 -0.0977375 0)
  (-0.0065307 -0.0680132 0)
  (-0.0031459 -0.0510107 0)
  (0.000521468 -0.0413029 0)
  (0.00485795 -0.0353218 0)
  (0.00999794 -0.0309074 0)
  (0.0162634 -0.0274312 0)
  (0.0232941 -0.0252296 0)
  (0.0305093 -0.0232217 0)
  (0.0375929 -0.0202799 0)
  (0.044371 -0.0153398 0)
  (0.0504118 -0.00743772 0)
  (0.0554417 0.00348431 0)
  (0.0567088 0.0156593 0)
  (0.0553853 0.028739 0)
  (0.0539605 0.0450139 0)
  (0.0496495 0.0648295 0)
  (0.076974 0.0902847 0)
  (0.0461313 0.111761 0)
  (0.0949249 0.0718295 0)
  (0.121518 0.0450384 0)
  (-0.14602 -0.01658 0)
  (0.844984 0.47419 0)
  (-0.374157 0.164631 0)
  (0.0237136 0.0778381 0)
  (0.00847982 0.10893 0)
  (0.00532514 0.10609 0)
  (0.00181382 0.0854543 0)
  (0.00161104 0.0629503 0)
  (0.00262272 0.0387172 0)
  (0.00367803 0.00648763 0)
  (0.0199616 -0.0361646 0)
  (0.0270123 -0.0728604 0)
  (0.0289955 -0.100947 0)
  (0.0272966 -0.1209 0)
  (0.0223823 -0.134075 0)
  (0.0151336 -0.142066 0)
  (0.00629547 -0.146499 0)
  (0.00104938 -0.148043 0)
  (-0.00166484 -0.135137 0)
  (-0.0019156 -0.098904 0)
  (-0.00678162 -0.0669972 0)
  (-0.00855554 -0.0512167 0)
  (-0.00960741 -0.0428579 0)
  (-0.00928424 -0.0379378 0)
  (-0.00782975 -0.0347053 0)
  (-0.00530289 -0.0325021 0)
  (-0.00196088 -0.0310134 0)
  (0.00211579 -0.0294202 0)
  (0.00658816 -0.0268671 0)
  (0.0116704 -0.0222614 0)
  (0.0174838 -0.0142659 0)
  (0.0252277 -0.00164497 0)
  (0.0330141 0.0129816 0)
  (0.0381686 0.0270578 0)
  (0.0446182 0.0418914 0)
  (0.0506608 0.0581012 0)
  (0.0766282 0.0790878 0)
  (0.0870233 0.0880084 0)
  (0.124254 0.0567504 0)
  (0.167569 0.0425391 0)
  (-0.0355791 0.0944419 0)
  (0.942549 0.490514 0)
  (-0.130906 0.146939 0)
  (0.0856075 0.00797428 0)
  (0.125456 0.0451488 0)
  (0.103808 0.0720289 0)
  (0.0866882 0.0621064 0)
  (0.0835677 0.0395005 0)
  (0.0865642 0.0131915 0)
  (0.0980728 -0.0196927 0)
  (0.110981 -0.0500468 0)
  (0.112215 -0.0763482 0)
  (0.105251 -0.0972493 0)
  (0.0930819 -0.112472 0)
  (0.0774292 -0.122694 0)
  (0.0598531 -0.129251 0)
  (0.0413412 -0.134092 0)
  (0.0270656 -0.139084 0)
  (0.0141047 -0.130207 0)
  (0.00564498 -0.0931049 0)
  (-0.00831116 -0.0599339 0)
  (-0.0155149 -0.0467327 0)
  (-0.0213227 -0.0402819 0)
  (-0.0253625 -0.0366859 0)
  (-0.0281818 -0.0345627 0)
  (-0.0300744 -0.0333184 0)
  (-0.0312935 -0.0325161 0)
  (-0.0319654 -0.0315915 0)
  (-0.0320577 -0.0299325 0)
  (-0.0313112 -0.0268965 0)
  (-0.0292071 -0.021794 0)
  (-0.0242615 -0.0139054 0)
  (-0.0106754 -0.00241653 0)
  (-3.53775e-05 0.0106961 0)
  (0.0120471 0.0215044 0)
  (0.0239259 0.0296716 0)
  (0.0474077 0.0392392 0)
  (0.0678343 0.0320733 0)
  (0.0891405 -0.00389634 0)
  (0.151917 0.0403256 0)
  (-0.450329 0.217957 0)
  (1.06997 0.451873 0)
  (0.518222 0.301886 0)
  (0.51962 0.233601 0)
  (0.488751 0.19563 0)
  (0.405589 0.169519 0)
  (0.333263 0.131651 0)
  (0.291681 0.08932 0)
  (0.269955 0.0490399 0)
  (0.255749 0.0114143 0)
  (0.234064 -0.0239228 0)
  (0.208919 -0.0531491 0)
  (0.181906 -0.0748106 0)
  (0.153615 -0.0895949 0)
  (0.124539 -0.0991661 0)
  (0.0954271 -0.105583 0)
  (0.0668007 -0.111545 0)
  (0.045064 -0.120318 0)
  (0.0235091 -0.115161 0)
  (0.0100568 -0.0772057 0)
  (-0.0125988 -0.0474523 0)
  (-0.0248469 -0.0386068 0)
  (-0.034655 -0.0347418 0)
  (-0.0426562 -0.0325602 0)
  (-0.0497084 -0.0312535 0)
  (-0.0562508 -0.0304471 0)
  (-0.0626087 -0.0297709 0)
  (-0.0690215 -0.0287416 0)
  (-0.075671 -0.0267738 0)
  (-0.0827625 -0.023186 0)
  (-0.09062 -0.017243 0)
  (-0.0996109 -0.00826093 0)
  (-0.109762 0.00408413 0)
  (-0.11846 0.0186171 0)
  (-0.13332 0.0351306 0)
  (-0.158943 0.0536927 0)
  (-0.197207 0.0728074 0)
  (-0.25274 0.0872249 0)
  (-0.316991 0.0942357 0)
  (-0.38914 0.0949559 0)
  (-0.657417 0.0896748 0)
  (-0.24023 0.101253 0)
  (0.175138 0.174003 0)
  (0.265401 0.168273 0)
  (0.262663 0.137314 0)
  (0.263523 0.097272 0)
  (0.265642 0.0563958 0)
  (0.262185 0.0200766 0)
  (0.25073 -0.00949919 0)
  (0.230872 -0.0317017 0)
  (0.2052 -0.0475627 0)
  (0.175574 -0.0583694 0)
  (0.143523 -0.065467 0)
  (0.11023 -0.070494 0)
  (0.076497 -0.0763973 0)
  (0.0510957 -0.0894151 0)
  (0.0189685 -0.0884057 0)
  (0.00442101 -0.0461694 0)
  (-0.0217869 -0.0267141 0)
  (-0.0370227 -0.0238696 0)
  (-0.0485372 -0.02332 0)
  (-0.058642 -0.023159 0)
  (-0.0683233 -0.0231279 0)
  (-0.0779118 -0.0230654 0)
  (-0.0876367 -0.0227325 0)
  (-0.0976024 -0.0217594 0)
  (-0.10773 -0.0196297 0)
  (-0.117722 -0.0156955 0)
  (-0.127009 -0.00925131 0)
  (-0.134658 0.000351425 0)
  (-0.139434 0.0133008 0)
  (-0.142088 0.0298291 0)
  (-0.144013 0.0501249 0)
  (-0.146684 0.0730322 0)
  (-0.150885 0.0941791 0)
  (-0.153467 0.101945 0)
  (-0.135496 0.0737384 0)
  (-0.0836425 -0.0316143 0)
  (-0.291132 -0.223624 0)
  (-0.121407 0.253815 0)
  (0.0899204 0.182641 0)
  (0.107638 0.134475 0)
  (0.139559 0.110064 0)
  (0.173634 0.0808976 0)
  (0.198968 0.0513235 0)
  (0.211069 0.0276234 0)
  (0.210685 0.0116572 0)
  (0.200863 -0.000141931 0)
  (0.183679 -0.00920685 0)
  (0.161243 -0.0160911 0)
  (0.135036 -0.0212905 0)
  (0.105958 -0.0260016 0)
  (0.0743041 -0.0347649 0)
  (0.047665 -0.0610293 0)
  (-0.00729558 -0.0638439 0)
  (-0.0238079 0.0122106 0)
  (-0.0419041 0.0285001 0)
  (-0.0544541 0.0242042 0)
  (-0.0639736 0.0222474 0)
  (-0.0728297 0.0214528 0)
  (-0.08145 0.0204061 0)
  (-0.0898833 0.0191519 0)
  (-0.098137 0.0179477 0)
  (-0.106121 0.0170002 0)
  (-0.113613 0.0164688 0)
  (-0.120258 0.0164828 0)
  (-0.12551 0.0171523 0)
  (-0.12838 0.0185485 0)
  (-0.127354 0.0231979 0)
  (-0.120682 0.0326663 0)
  (-0.107366 0.0476417 0)
  (-0.0878991 0.0675856 0)
  (-0.0639257 0.0876669 0)
  (-0.0386887 0.0991694 0)
  (0.00477351 0.0809972 0)
  (0.146596 0.0038917 0)
  (-0.209963 -0.136361 0)
  (-0.152913 -0.366276 0)
  (-0.444871 -0.100052 0)
  (-0.323368 0.153874 0)
  (-0.169722 0.0609868 0)
  (-0.0827583 0.0361389 0)
  (0.019568 0.0333383 0)
  (0.0843258 0.0127692 0)
  (0.130969 -0.00821312 0)
  (0.159237 -0.0269384 0)
  (0.170223 -0.0434975 0)
  (0.168562 -0.0567188 0)
  (0.157623 -0.0676118 0)
  (0.140288 -0.077544 0)
  (0.118706 -0.0877069 0)
  (0.0941254 -0.0996543 0)
  (0.0664891 -0.116602 0)
  (0.0384914 -0.144878 0)
  (-0.0524827 -0.145565 0)
  (-0.0632605 -0.134815 0)
  (-0.0677363 -0.129604 0)
  (-0.0734718 -0.125432 0)
  (-0.0809032 -0.119972 0)
  (-0.088424 -0.113668 0)
  (-0.0956951 -0.107 0)
  (-0.102708 -0.100175 0)
  (-0.109393 -0.093247 0)
  (-0.115544 -0.0861429 0)
  (-0.120784 -0.078663 0)
  (-0.124551 -0.0704648 0)
  (-0.126065 -0.061025 0)
  (-0.124214 -0.0496001 0)
  (-0.11698 -0.0373393 0)
  (-0.101332 -0.0236437 0)
  (-0.0750366 -0.00753736 0)
  (-0.0392073 0.0117927 0)
  (0.0192813 0.0361461 0)
  (0.071715 0.0377399 0)
  (0.121106 0.0157598 0)
  (0.176494 -0.0249946 0)
  (-0.183669 -0.0931439 0)
)
;

boundaryField
{
  floor
  {
    type noSlip;
  }
  ceiling
  {
    type noSlip;
  }
  sWall
  {
    type noSlip;
  }
  nWall
  {
    type noSlip;
  }
  sideWalls
  {
    type empty;
  }
  glass1
  {
    type noSlip;
  }
  glass2
  {
    type noSlip;
  }
  sun
  {
    type noSlip;
  }
  heatsource1
  {
    type noSlip;
  }
  heatsource2
  {
    type noSlip;
  }
  Table_master
  {
    type noSlip;
  }
  Table_slave
  {
    type noSlip;
  }
  inlet
  {
    type fixedValue;
    value uniform (0.277164 -0.114805 0);
  }
  outlet
  {
    type zeroGradient;
  }
} 	// ************************************************************************* //

