/*--------------------------------*- C++ -*----------------------------------*\
  =========                 |
  \\      /  F ield         | OpenFOAM: The Open Source CFD Toolbox
   \\    /   O peration     | Website:  https://openfoam.org
    \\  /    A nd           | Version:  6
     \\/     M anipulation  |
\*---------------------------------------------------------------------------*/
FoamFile
{
    version     2.0;
    format      ascii;
    class       volScalarField;
    location    "100";
    object      nut;
}
// * * * * * * * * * * * * * * * * * * * * * * * * * * * * * * * * * * * * * //

dimensions      [0 2 -1 0 0 0 0];

internalField   nonuniform List<scalar> 
459
(
0.000781426
0.000800542
0.000709703
0.000734567
0.000764306
0.000793145
0.00082087
0.000848131
0.000876135
0.000903044
0.000924178
0.000937473
0.000940973
0.00093295
0.000908108
0.000484255
0.000555716
0.00054675
0.000434415
0.000297012
0.000245479
0.000227813
0.000226145
0.000217377
0.000208576
0.000204347
0.0002027
0.00021097
0.000257978
0.000352934
0.000514585
0.000648415
0.000652738
0.00056073
0.00136606
0.00251272
0.00176997
0.00243302
0.00265912
0.00287608
0.00310106
0.00331215
0.00347881
0.00359288
0.00364438
0.00359395
0.00337835
0.00289772
0.00204934
0.000966434
0.000687755
0.000562993
0.00140209
0.00142638
0.00118139
0.000871865
0.000559542
0.000478734
0.000400788
0.000384261
0.000384724
0.000383941
0.000391052
0.000453917
0.000606541
0.000935474
0.00142208
0.00175518
0.00180367
0.000649576
0.00185382
0.00408438
0.00188391
0.00339525
0.00395536
0.00419191
0.00438876
0.00455512
0.00467912
0.00475882
0.00477552
0.00468416
0.00441492
0.00387714
0.00301604
0.00196031
0.00101266
0.000934026
0.0022702
0.00192459
0.00157848
0.00129821
0.00101106
0.000320907
0.000215891
0.000217884
0.000239802
0.000278639
0.000333974
0.00040721
0.000507813
0.000680519
0.00171041
0.00197357
0.00156644
0.000737088
0.00229831
0.00592259
0.00212741
0.00354288
0.00460456
0.00486239
0.00501862
0.00515493
0.00527371
0.00537
0.00545308
0.00548641
0.00539376
0.00505476
0.00432956
0.00318242
0.00190893
0.00112943
0.00222731
0.00240485
0.0021495
0.00186767
0.00158152
0.00124922
0.000953793
0.00097975
0.00101238
0.00104744
0.00108206
0.00111401
0.00114332
0.00116258
0.0011734
0.00199015
0.00249221
0.00280623
0.00107861
0.00269842
0.00780696
0.00269169
0.00325591
0.00475886
0.00507373
0.00519168
0.00529672
0.00541218
0.00554101
0.00573926
0.0060083
0.00630473
0.00655579
0.00666721
0.00655326
0.00619073
0.00563232
0.00511274
0.00476419
0.00459617
0.0044773
0.00437563
0.00430421
0.00427446
0.00434181
0.00444484
0.00455077
0.00462604
0.00465205
0.00464073
0.00462028
0.00460176
0.00461182
0.00449794
0.00409863
0.0030805
0.00132721
0.0011741
0.0011288
0.00306354
0.00940176
0.0036981
0.00291861
0.00443851
0.00488537
0.00499951
0.00505599
0.00510622
0.00517955
0.00540571
0.00578716
0.00629436
0.00686807
0.00740982
0.00779372
0.00790343
0.00771465
0.00732521
0.0068901
0.00651894
0.00625147
0.00606649
0.00592975
0.00582279
0.00575735
0.00573173
0.00571335
0.005657
0.00554117
0.0053923
0.00526757
0.00520613
0.0052004
0.00523654
0.00524102
0.00489357
0.00413107
0.00271565
0.0013959
0.00340111
0.0105014
0.00551391
0.00302373
0.00342625
0.00416591
0.00453463
0.00467352
0.00463939
0.00458694
0.00472653
0.00504297
0.00553976
0.00619626
0.00692982
0.00759286
0.00800814
0.00812002
0.00797977
0.00771178
0.00743323
0.00720201
0.00701915
0.00686209
0.00671484
0.00659058
0.00650497
0.00643312
0.00631036
0.0060857
0.00577648
0.00545989
0.00520481
0.00503004
0.00489882
0.00471419
0.00435962
0.00385932
0.00309276
0.001393
0.00348266
0.010822
0.00770301
0.00504861
0.00366226
0.00371442
0.00419553
0.00450699
0.00431019
0.00415245
0.00413678
0.004259
0.00453505
0.00499976
0.00566046
0.00643782
0.00705713
0.00744329
0.00759093
0.00757096
0.00747735
0.00737607
0.00729469
0.00723875
0.00720743
0.00720354
0.00723006
0.00726981
0.00725581
0.0070955
0.00674772
0.00625649
0.0056606
0.00501718
0.00438487
0.00381983
0.00333738
0.00291146
0.00250635
0.00160797
0.00337738
0.00406171
0.00453836
0.00443366
0.00399157
0.00360266
0.0034055
0.0033599
0.00337314
0.003424
0.00349753
0.00359393
0.0037304
0.00394528
0.00429176
0.00479551
0.00537637
0.00591331
0.00631483
0.00656587
0.00670505
0.00678075
0.00683129
0.00689007
0.00699689
0.00719564
0.00750088
0.00786073
0.00817905
0.00840955
0.00852137
0.00848248
0.0083415
0.00813342
0.0078245
0.00721525
0.00617538
0.0052002
0.00471331
0.00179445
0.00372328
0.00435151
0.00416818
0.00387119
0.00362952
0.0034611
0.00334636
0.00327635
0.00323848
0.00322242
0.00322601
0.00325891
0.00334546
0.00352108
0.00380859
0.0041922
0.00461482
0.00501222
0.00534488
0.00560234
0.00579479
0.00594853
0.00610785
0.00633569
0.00669547
0.00720349
0.00778705
0.00830236
0.00865483
0.00883375
0.00887002
0.00880996
0.00868339
0.0084742
0.00806749
0.00711074
0.00620409
0.00178967
0.00274391
0.00438554
0.00423363
0.00398732
0.00374085
0.00352358
0.00333765
0.00317773
0.00301296
0.00285307
0.00270942
0.00259249
0.00251413
0.00248968
0.00253782
0.00267534
0.00290538
0.00320738
0.00354058
0.00386084
0.00413855
0.00436772
0.00456662
0.00477491
0.00504757
0.00543712
0.005953
0.00651088
0.00700055
0.00736337
0.00757805
0.00765512
0.00761144
0.00743935
0.00702807
0.00610436
0.00507923
0.00162611
0.00197902
0.00219087
0.00239031
0.0024425
0.00220433
0.00203813
0.00189274
0.00176524
0.00165258
0.00155216
0.00146476
0.00138661
0.00131534
0.00124984
0.00118977
0.00113543
0.00108752
0.0010471
0.00101535
0.000993196
0.000980801
0.000977246
0.000980714
0.000989143
0.00100103
0.0010161
0.00103583
0.00106332
0.00110186
0.001157
0.00122984
0.00131234
0.00139376
0.001463
0.00151034
0.00152706
0.00150753
0.00147233
0.00143795
0.00133473
)
;

boundaryField
{
    floor
    {
        type            nutkWallFunction;
        Cmu             0.09;
        kappa           0.41;
        E               9.8;
        value           nonuniform List<scalar> 
29
(
0.000109835
5.77334e-05
6.68206e-05
6.56777e-05
5.12905e-05
3.30258e-05
2.59055e-05
2.34182e-05
2.31826e-05
2.19363e-05
2.0677e-05
2.00667e-05
1.98271e-05
2.10169e-05
2.76597e-05
4.05975e-05
6.16333e-05
7.84163e-05
7.89471e-05
6.74566e-05
6.74566e-05
7.85379e-05
8.92711e-05
0.00012991
0.000109835
5.77334e-05
6.77252e-05
0.000112912
0.000135807
)
;
    }
    ceiling
    {
        type            nutkWallFunction;
        Cmu             0.09;
        kappa           0.41;
        E               9.8;
        value           nonuniform List<scalar> 
43
(
0.000231122
0.000254099
0.000275517
0.000281094
0.000255551
0.000237555
0.000221684
0.000207659
0.000195175
0.000183969
0.000174152
0.000165319
0.000157215
0.000149723
0.000142816
0.000136532
0.000130965
0.000126246
0.000122525
0.000119921
0.000118462
0.000118043
0.000118452
0.000119445
0.000120842
0.000122613
0.000124925
0.000128138
0.00013263
0.000139028
0.000147426
0.000156873
0.000166131
0.000173959
0.000179291
0.000181175
0.000178983
0.000175026
0.000171145
0.000159442
0.000379172
0.000449083
0.000313042
)
;
    }
    sWall
    {
        type            nutkWallFunction;
        Cmu             0.09;
        kappa           0.41;
        E               9.8;
        value           uniform 0.000231181;
    }
    nWall
    {
        type            nutkWallFunction;
        Cmu             0.09;
        kappa           0.41;
        E               9.8;
        value           nonuniform List<scalar> 6(0.000135744 0.000166319 0.000166066 0.000210345 0.00019224 0.000159456);
    }
    sideWalls
    {
        type            empty;
    }
    glass1
    {
        type            nutkWallFunction;
        Cmu             0.09;
        kappa           0.41;
        E               9.8;
        value           nonuniform List<scalar> 9(9.46464e-05 0.000163185 0.000217733 0.000266069 0.000308727 0.000347075 0.000382111 0.000390533 0.000379695);
    }
    glass2
    {
        type            nutkWallFunction;
        Cmu             0.09;
        kappa           0.41;
        E               9.8;
        value           nonuniform List<scalar> 2(0.000190301 0.000210983);
    }
    sun
    {
        type            nutkWallFunction;
        Cmu             0.09;
        kappa           0.41;
        E               9.8;
        value           nonuniform List<scalar> 
14
(
9.46497e-05
9.69591e-05
8.59199e-05
8.89568e-05
9.25733e-05
9.60647e-05
9.94069e-05
0.00010268
0.00010603
0.000109237
0.000111748
0.000113324
0.000113737
0.000112786
)
;
    }
    heatsource1
    {
        type            nutkWallFunction;
        Cmu             0.09;
        kappa           0.41;
        E               9.8;
        value           nonuniform List<scalar> 3(0.000158475 0.000140923 0.00013573);
    }
    heatsource2
    {
        type            nutkWallFunction;
        Cmu             0.09;
        kappa           0.41;
        E               9.8;
        value           nonuniform List<scalar> 4(0.000116739 8.32259e-05 8.32259e-05 0.000122178);
    }
    Table_master
    {
        type            nutkWallFunction;
        Cmu             0.09;
        kappa           0.41;
        E               9.8;
        value           nonuniform List<scalar> 9(3.62772e-05 2.17684e-05 2.20468e-05 2.51319e-05 3.05157e-05 3.80261e-05 4.77306e-05 6.07185e-05 8.23244e-05);
    }
    Table_slave
    {
        type            nutkWallFunction;
        Cmu             0.09;
        kappa           0.41;
        E               9.8;
        value           nonuniform List<scalar> 9(0.000115251 0.000118318 0.000122162 0.000126276 0.000130326 0.00013405 0.000137457 0.000139686 0.000140929);
    }
    inlet
    {
        type            calculated;
        value           uniform 3.3541e-05;
    }
    outlet
    {
        type            calculated;
        value           nonuniform List<scalar> 2(0.00197902 0.00219087);
    }
}


// ************************************************************************* //
