// -*- C++ -*-
// File generated by PyFoam - sorry for the ugliness

FoamFile
{
 version 2.0;
 format ascii;
 class volVectorField;
 location "700";
 object U;
}

dimensions [ 0 1 -1 0 0 0 0 ];

internalField nonuniform List<vector> 459
(
  (0.0925424 0.0622886 0)
  (-0.128698 2.67913e-05 0)
  (-0.105027 0.000503477 0)
  (-0.109017 0.00139078 0)
  (-0.112845 0.00101055 0)
  (-0.11585 0.000153822 0)
  (-0.117531 -0.000988245 0)
  (-0.117508 -0.00241733 0)
  (-0.115346 -0.00423386 0)
  (-0.110443 -0.00655913 0)
  (-0.101893 -0.00947119 0)
  (-0.0884876 -0.0130925 0)
  (-0.0696623 -0.0177615 0)
  (-0.0493444 -0.0239621 0)
  (-0.0436521 -0.0301114 0)
  (0.0105478 0.0155257 0)
  (-0.0309035 0.000843624 0)
  (-0.0291118 -0.00205729 0)
  (-0.0266651 -0.00351219 0)
  (-0.0227111 -0.00429155 0)
  (-0.0183141 -0.00436388 0)
  (-0.0142077 -0.00422038 0)
  (-0.0109956 -0.00348083 0)
  (-0.00922608 -0.00274239 0)
  (-0.00879401 -0.00241312 0)
  (-0.008656 -0.00254024 0)
  (-0.00810833 -0.00274885 0)
  (-0.00695792 -0.00258571 0)
  (-0.00524368 -0.00223831 0)
  (-0.00327949 -0.00283892 0)
  (-0.00100099 -0.00548971 0)
  (0.00453366 -0.00831578 0)
  (0.0177886 -0.00547706 0)
  (-0.0393274 0.00684594 0)
  (0.281095 0.136581 0)
  (-0.149731 0.0133496 0)
  (-0.0928328 0.00626914 0)
  (-0.101611 0.00670478 0)
  (-0.106697 0.00581365 0)
  (-0.110543 0.00412496 0)
  (-0.113057 0.00187826 0)
  (-0.1141 -0.000942234 0)
  (-0.113369 -0.00448599 0)
  (-0.110538 -0.00897549 0)
  (-0.104969 -0.0145538 0)
  (-0.0958604 -0.0213147 0)
  (-0.0827062 -0.0294434 0)
  (-0.0663002 -0.0390336 0)
  (-0.0489072 -0.0484222 0)
  (-0.0304823 -0.0527822 0)
  (0.0269386 0.00349868 0)
  (0.059504 0.033359 0)
  (-0.0278471 0.00877122 0)
  (-0.0242404 0.00119432 0)
  (-0.0268241 -0.00290538 0)
  (-0.0268241 -0.00442966 0)
  (-0.0260479 -0.00382522 0)
  (-0.0253328 -0.00255151 0)
  (-0.025448 -0.000129563 0)
  (-0.025154 0.00205693 0)
  (-0.0249044 0.00302042 0)
  (-0.0244636 0.00290789 0)
  (-0.0238712 0.00234652 0)
  (-0.0234762 0.00203489 0)
  (-0.02364 0.00166248 0)
  (-0.0239049 -0.000609233 0)
  (-0.0222034 -0.0043718 0)
  (-0.0141365 -0.00413708 0)
  (-0.010682 0.00236457 0)
  (-0.0719404 0.0130823 0)
  (0.433635 0.207405 0)
  (-0.188954 0.0364796 0)
  (-0.0746374 0.015988 0)
  (-0.0897762 0.0126435 0)
  (-0.0961102 0.0100773 0)
  (-0.100417 0.00708119 0)
  (-0.103604 0.0035574 0)
  (-0.105815 -0.000670122 0)
  (-0.10688 -0.00578624 0)
  (-0.106742 -0.0121343 0)
  (-0.105163 -0.0200066 0)
  (-0.101791 -0.0294995 0)
  (-0.0964456 -0.0404581 0)
  (-0.0893559 -0.0519115 0)
  (-0.0812255 -0.0607429 0)
  (-0.0742207 -0.0614402 0)
  (-0.0745618 -0.0512409 0)
  (0.0658931 0.0555543 0)
  (-0.0403869 0.0193378 0)
  (-0.0312417 0.00804926 0)
  (-0.0337442 0.00085745 0)
  (-0.0363449 -0.00423048 0)
  (-0.0377821 -0.00765554 0)
  (-0.0317607 -0.00713883 0)
  (-0.0383294 -0.00691912 0)
  (-0.0399657 -0.00615765 0)
  (-0.0404963 -0.00642466 0)
  (-0.0410084 -0.00771316 0)
  (-0.0422679 -0.00949078 0)
  (-0.0447396 -0.0111777 0)
  (-0.0478244 -0.0127909 0)
  (-0.0486644 -0.0147224 0)
  (-0.0445247 -0.0133439 0)
  (-0.0331466 -0.0117912 0)
  (-0.0238861 -0.0121528 0)
  (-0.0517926 -0.0136285 0)
  (0.552134 0.264562 0)
  (-0.224197 0.0632639 0)
  (-0.0540305 0.0272587 0)
  (-0.0740279 0.0198598 0)
  (-0.0822331 0.0151528 0)
  (-0.0863472 0.0109213 0)
  (-0.089397 0.00660185 0)
  (-0.0919602 0.00171951 0)
  (-0.0943123 -0.00407151 0)
  (-0.0964075 -0.0110569 0)
  (-0.0985982 -0.0195819 0)
  (-0.101031 -0.0296803 0)
  (-0.103994 -0.0408487 0)
  (-0.107955 -0.0514711 0)
  (-0.113872 -0.0579481 0)
  (-0.124279 -0.0538632 0)
  (-0.139534 -0.028687 0)
  (-0.134469 0.0287099 0)
  (-0.0802887 0.0409154 0)
  (-0.0966533 0.0222361 0)
  (-0.0894882 0.0109104 0)
  (-0.0952782 0.0033774 0)
  (-0.100271 -0.00260447 0)
  (-0.104266 -0.00667993 0)
  (-0.104167 -0.00573962 0)
  (-0.0993805 -0.00554177 0)
  (-0.0941395 -0.00604332 0)
  (-0.0885517 -0.00636364 0)
  (-0.0829484 -0.00657732 0)
  (-0.0774919 -0.0068343 0)
  (-0.0718116 -0.00743409 0)
  (-0.0652839 -0.0089184 0)
  (-0.0587445 -0.0117461 0)
  (-0.0551592 -0.0160306 0)
  (-0.0498552 -0.0210308 0)
  (-0.0429599 -0.0303966 0)
  (-0.0510688 -0.0458563 0)
  (0.641361 0.309839 0)
  (-0.249361 0.0906558 0)
  (-0.0351939 0.0373024 0)
  (-0.0518653 0.0271896 0)
  (-0.0629592 0.0201884 0)
  (-0.067345 0.0142909 0)
  (-0.0697129 0.0091593 0)
  (-0.0714889 0.00416622 0)
  (-0.0735482 -0.00135809 0)
  (-0.0760518 -0.00776483 0)
  (-0.0797091 -0.0153495 0)
  (-0.0849183 -0.0242337 0)
  (-0.0920079 -0.0339915 0)
  (-0.101201 -0.0434185 0)
  (-0.112575 -0.0504579 0)
  (-0.125577 -0.0520694 0)
  (-0.136606 -0.0432373 0)
  (-0.138577 -0.0183531 0)
  (-0.125011 0.010674 0)
  (-0.112096 0.0166972 0)
  (-0.102433 0.0118336 0)
  (-0.0994158 0.00619397 0)
  (-0.0986086 0.000632531 0)
  (-0.0985299 -0.00336671 0)
  (-0.0975835 -0.00483022 0)
  (-0.0952679 -0.00609486 0)
  (-0.0923941 -0.00689417 0)
  (-0.0892421 -0.00722413 0)
  (-0.0859391 -0.0071566 0)
  (-0.0825467 -0.00688233 0)
  (-0.0789454 -0.00685019 0)
  (-0.074908 -0.00800293 0)
  (-0.070581 -0.0117233 0)
  (-0.0665736 -0.0186833 0)
  (-0.0627303 -0.0271287 0)
  (-0.0589029 -0.040263 0)
  (-0.0536467 -0.0579856 0)
  (-0.03045 -0.0657236 0)
  (0.0536573 -0.051104 0)
  (-0.0915432 0.00355485 0)
  (0.695734 0.34827 0)
  (-0.267226 0.111098 0)
  (-0.0200906 0.0367121 0)
  (-0.0183561 0.032001 0)
  (-0.0306701 0.0276319 0)
  (-0.0389645 0.0183508 0)
  (-0.0424286 0.0109656 0)
  (-0.0437457 0.00562851 0)
  (-0.044812 0.000661123 0)
  (-0.0466558 -0.00463643 0)
  (-0.0498019 -0.0104859 0)
  (-0.0550454 -0.0171851 0)
  (-0.0626774 -0.0245334 0)
  (-0.0726867 -0.0315617 0)
  (-0.0846798 -0.0365413 0)
  (-0.0974265 -0.0370647 0)
  (-0.107782 -0.0306419 0)
  (-0.111518 -0.0173948 0)
  (-0.106826 -0.00260561 0)
  (-0.0978367 0.00469917 0)
  (-0.0897095 0.00499039 0)
  (-0.0847299 0.00235287 0)
  (-0.0818488 -0.00142702 0)
  (-0.0805197 -0.00470973 0)
  (-0.0795881 -0.00679297 0)
  (-0.0784787 -0.00833822 0)
  (-0.077172 -0.0094407 0)
  (-0.0756664 -0.010088 0)
  (-0.0739432 -0.0103308 0)
  (-0.0719975 -0.0103362 0)
  (-0.0698481 -0.0104914 0)
  (-0.0676217 -0.0115466 0)
  (-0.0656719 -0.0145716 0)
  (-0.0644818 -0.0204021 0)
  (-0.064634 -0.0291542 0)
  (-0.0669705 -0.0419215 0)
  (-0.0670586 -0.0568519 0)
  (-0.0510523 -0.0647176 0)
  (-0.0334696 -0.0437564 0)
  (-0.177549 0.0788816 0)
  (0.713326 0.382918 0)
  (-0.270256 0.0962617 0)
  (0.00739961 -0.00846807 0)
  (0.0358419 0.0244557 0)
  (0.0245304 0.0386645 0)
  (0.00826443 0.027221 0)
  (-0.000305884 0.0136579 0)
  (-0.00423721 0.0065261 0)
  (-0.0066589 0.00186363 0)
  (-0.00909979 -0.00253746 0)
  (-0.0117818 -0.00675135 0)
  (-0.0162153 -0.0111836 0)
  (-0.0229475 -0.0161868 0)
  (-0.0320383 -0.021273 0)
  (-0.0429636 -0.0252656 0)
  (-0.0544259 -0.026361 0)
  (-0.0639739 -0.0229037 0)
  (-0.0689507 -0.0154217 0)
  (-0.0683503 -0.00720114 0)
  (-0.0642912 -0.00234859 0)
  (-0.0595691 -0.00091406 0)
  (-0.0557049 -0.00165435 0)
  (-0.0532591 -0.00358704 0)
  (-0.0520891 -0.00574597 0)
  (-0.0515926 -0.0075876 0)
  (-0.0513539 -0.00912083 0)
  (-0.0511776 -0.0103246 0)
  (-0.050917 -0.0111631 0)
  (-0.0504518 -0.011647 0)
  (-0.0497104 -0.0118847 0)
  (-0.0487236 -0.0121511 0)
  (-0.0477286 -0.0129472 0)
  (-0.0472566 -0.0149534 0)
  (-0.0481804 -0.0188741 0)
  (-0.0522607 -0.0254937 0)
  (-0.0622514 -0.0358255 0)
  (-0.0743696 -0.0496527 0)
  (-0.0743165 -0.064066 0)
  (-0.0900952 -0.0691167 0)
  (-0.252877 -0.0442905 0)
  (0.804184 0.392863 0)
  (-0.0598564 0.0627017 0)
  (0.0948953 -0.0694096 0)
  (0.143801 -0.00208977 0)
  (0.109596 0.0368456 0)
  (0.0747504 0.0325152 0)
  (0.0597403 0.0188995 0)
  (0.05219 0.00968157 0)
  (0.0458615 0.00405544 0)
  (0.0402166 -1.95085e-05 0)
  (0.0346813 -0.0033465 0)
  (0.0297866 -0.00617098 0)
  (0.023814 -0.009065 0)
  (0.0161786 -0.012159 0)
  (0.00698306 -0.0150425 0)
  (-0.00314179 -0.0166872 0)
  (-0.0118887 -0.01572 0)
  (-0.0176257 -0.0122722 0)
  (-0.0196599 -0.00807678 0)
  (-0.0189688 -0.00520942 0)
  (-0.0172317 -0.00403188 0)
  (-0.0156006 -0.00408775 0)
  (-0.0145768 -0.00495674 0)
  (-0.0142779 -0.00621359 0)
  (-0.0145319 -0.00753465 0)
  (-0.0151351 -0.0087985 0)
  (-0.0159255 -0.00992241 0)
  (-0.016742 -0.0108425 0)
  (-0.0174273 -0.0115298 0)
  (-0.0178522 -0.0120175 0)
  (-0.0179627 -0.0124368 0)
  (-0.0178553 -0.0130246 0)
  (-0.0178358 -0.0140562 0)
  (-0.0184919 -0.0157558 0)
  (-0.0212447 -0.0183167 0)
  (-0.0290861 -0.0216836 0)
  (-0.041465 -0.0264977 0)
  (-0.0475536 -0.0428025 0)
  (-0.0785213 -0.0845017 0)
  (-0.361904 -0.148209 0)
  (0.931627 0.366716 0)
  (0.440284 0.19531 0)
  (0.260435 0.105595 0)
  (0.294059 0.117627 0)
  (0.203315 0.109824 0)
  (0.137699 0.0791473 0)
  (0.11536 0.0499692 0)
  (0.10673 0.030256 0)
  (0.0994613 0.0179228 0)
  (0.0929653 0.010017 0)
  (0.087436 0.00480967 0)
  (0.0815853 0.0012427 0)
  (0.0752431 -0.00132854 0)
  (0.0683255 -0.00342503 0)
  (0.0608933 -0.0052428 0)
  (0.0530996 -0.00664886 0)
  (0.045783 -0.00708087 0)
  (0.0399727 -0.00627654 0)
  (0.0362938 -0.00478162 0)
  (0.0344506 -0.00350815 0)
  (0.0335983 -0.00285076 0)
  (0.0330404 -0.00278075 0)
  (0.0323939 -0.00316798 0)
  (0.0314902 -0.0038554 0)
  (0.03029 -0.00468683 0)
  (0.0288154 -0.00558403 0)
  (0.0271296 -0.00648902 0)
  (0.025331 -0.00735282 0)
  (0.0235405 -0.00814477 0)
  (0.0218843 -0.00886965 0)
  (0.0204673 -0.00958703 0)
  (0.0193407 -0.0104137 0)
  (0.0184973 -0.0114822 0)
  (0.0179199 -0.0128757 0)
  (0.0175737 -0.0145393 0)
  (0.017483 -0.0157503 0)
  (0.0200141 -0.0144163 0)
  (0.0323545 -0.0137313 0)
  (0.0742533 -0.0496407 0)
  (-0.241184 -0.150298 0)
  (-1.46634 0.0785296 0)
  (0.0796367 0.139143 0)
  (0.0517212 0.100166 0)
  (0.0626133 0.0681379 0)
  (0.0905162 0.0453427 0)
  (0.109981 0.0311847 0)
  (0.118239 0.0235968 0)
  (0.121104 0.0201869 0)
  (0.122045 0.0192476 0)
  (0.121926 0.0194557 0)
  (0.12081 0.0197525 0)
  (0.118518 0.0194065 0)
  (0.114996 0.0181765 0)
  (0.110471 0.0162924 0)
  (0.105363 0.014248 0)
  (0.100325 0.0124896 0)
  (0.0959533 0.0111175 0)
  (0.0924392 0.0099537 0)
  (0.0896128 0.00882436 0)
  (0.0872128 0.00764808 0)
  (0.0850238 0.0063975 0)
  (0.0828981 0.00507467 0)
  (0.0807012 0.00373424 0)
  (0.078342 0.00237022 0)
  (0.0757996 0.000975527 0)
  (0.0730928 -0.000453651 0)
  (0.0702692 -0.00192942 0)
  (0.0673989 -0.00348873 0)
  (0.0645628 -0.00521147 0)
  (0.0618371 -0.00723434 0)
  (0.0592886 -0.00975087 0)
  (0.0570039 -0.0130044 0)
  (0.0551427 -0.0172782 0)
  (0.0540225 -0.0227744 0)
  (0.0547475 -0.029599 0)
  (0.059171 -0.0402916 0)
  (0.0861925 -0.0670285 0)
  (-0.0603563 -0.122114 0)
  (-0.640784 0.0931263 0)
  (0.227635 0.0494625 0)
  (0.100547 0.0113138 0)
  (0.0900346 -0.00415289 0)
  (0.117032 -0.0207877 0)
  (0.140438 -0.0376596 0)
  (0.153176 -0.0528781 0)
  (0.159335 -0.0661718 0)
  (0.162254 -0.0771517 0)
  (0.163269 -0.0853292 0)
  (0.162911 -0.0905185 0)
  (0.161527 -0.0929473 0)
  (0.159347 -0.0931268 0)
  (0.156521 -0.091654 0)
  (0.153225 -0.0890886 0)
  (0.149732 -0.0859552 0)
  (0.146349 -0.0827592 0)
  (0.143271 -0.0799325 0)
  (0.140504 -0.0777004 0)
  (0.13793 -0.0760936 0)
  (0.135398 -0.0750402 0)
  (0.132762 -0.074406 0)
  (0.130006 -0.0736799 0)
  (0.127056 -0.0729243 0)
  (0.123883 -0.0721704 0)
  (0.12047 -0.0714342 0)
  (0.11681 -0.0707347 0)
  (0.112912 -0.0701056 0)
  (0.108786 -0.0696014 0)
  (0.104429 -0.0692969 0)
  (0.0998038 -0.0692819 0)
  (0.0948332 -0.0696499 0)
  (0.0893945 -0.0704867 0)
  (0.0832797 -0.0718472 0)
  (0.0762297 -0.0737455 0)
  (0.0673027 -0.0764001 0)
  (0.0806964 -0.0821302 0)
  (-0.099439 -0.0960911 0)
  (0.572157 0.209927 0)
  (0.281879 -0.182198 0)
  (-0.189908 0.162301 0)
  (0.201977 0.115472 0)
  (0.206958 0.121188 0)
  (0.175973 0.142182 0)
  (0.176125 0.164107 0)
  (0.18445 0.187342 0)
  (0.188571 0.210673 0)
  (0.189125 0.232242 0)
  (0.188876 0.250526 0)
  (0.188999 0.26441 0)
  (0.189645 0.27332 0)
  (0.190723 0.277346 0)
  (0.1921 0.277119 0)
  (0.193597 0.273557 0)
  (0.19503 0.267669 0)
  (0.196258 0.260451 0)
  (0.197184 0.252826 0)
  (0.197718 0.245557 0)
  (0.197762 0.239148 0)
  (0.197234 0.233818 0)
  (0.196095 0.229569 0)
  (0.194358 0.226266 0)
  (0.192003 0.223177 0)
  (0.189144 0.220284 0)
  (0.18583 0.217572 0)
  (0.182067 0.215011 0)
  (0.177832 0.212578 0)
  (0.173071 0.210264 0)
  (0.167684 0.208091 0)
  (0.161506 0.206102 0)
  (0.154284 0.204359 0)
  (0.145654 0.202929 0)
  (0.135103 0.201854 0)
  (0.121899 0.201124 0)
  (0.105057 0.200644 0)
  (0.0836497 0.20034 0)
  (0.089565 0.196113 0)
  (-0.174039 0.243446 0)
)
;

boundaryField
{
  floor
  {
    type noSlip;
  }
  ceiling
  {
    type noSlip;
  }
  sWall
  {
    type noSlip;
  }
  nWall
  {
    type noSlip;
  }
  sideWalls
  {
    type empty;
  }
  glass1
  {
    type noSlip;
  }
  glass2
  {
    type noSlip;
  }
  sun
  {
    type noSlip;
  }
  heatsource1
  {
    type noSlip;
  }
  heatsource2
  {
    type noSlip;
  }
  Table_master
  {
    type noSlip;
  }
  Table_slave
  {
    type noSlip;
  }
  inlet
  {
    type fixedValue;
    value uniform (0.0382683 -0.092388 0);
  }
  outlet
  {
    type zeroGradient;
  }
} 	// ************************************************************************* //

