/*--------------------------------*- C++ -*----------------------------------*\
  =========                 |
  \\      /  F ield         | OpenFOAM: The Open Source CFD Toolbox
   \\    /   O peration     | Website:  https://openfoam.org
    \\  /    A nd           | Version:  6
     \\/     M anipulation  |
\*---------------------------------------------------------------------------*/
FoamFile
{
    version     2.0;
    format      ascii;
    class       volScalarField;
    location    "600";
    object      nut;
}
// * * * * * * * * * * * * * * * * * * * * * * * * * * * * * * * * * * * * * //

dimensions      [0 2 -1 0 0 0 0];

internalField   nonuniform List<scalar> 
459
(
0.00102568
0.00111482
0.0011311
0.0011834
0.00123135
0.00127555
0.00131796
0.00136104
0.00139598
0.00141607
0.001416
0.00139164
0.0013423
0.00127416
0.00119968
0.000447324
0.000552006
0.000609184
0.00059454
0.000568764
0.000539271
0.000506709
0.000475621
0.000447521
0.000422466
0.000400148
0.000380234
0.000362466
0.000346359
0.000331374
0.000316758
0.000301362
0.000291705
0.000267348
0.00141385
0.00330483
0.00311153
0.00361303
0.00409029
0.00457617
0.00502796
0.0053768
0.0056796
0.00593743
0.00611015
0.00614423
0.00595625
0.00536662
0.00384816
0.00121645
0.000786743
0.000497769
0.000970063
0.00128916
0.00149984
0.00159652
0.00158285
0.00132946
0.00117018
0.0010516
0.000958172
0.00088229
0.000818914
0.000761826
0.000708441
0.000657282
0.000612898
0.000572819
0.000681427
0.000358567
0.00174096
0.00452185
0.00380423
0.00486372
0.00536119
0.00572479
0.00600294
0.00621822
0.00643806
0.00667699
0.00690889
0.00709042
0.00715942
0.00704976
0.00660879
0.00532926
0.00117678
0.00101694
0.0013756
0.00167439
0.00191784
0.00206853
0.00200213
0.000717849
0.000639756
0.000576694
0.00052547
0.000483453
0.000448632
0.000419549
0.000395246
0.000375271
0.000402661
0.000461804
0.000762561
0.000418298
0.00205868
0.00587493
0.00377377
0.00516568
0.00565596
0.00581009
0.0058732
0.00594605
0.00608976
0.00631137
0.00658594
0.0068723
0.00709737
0.00721774
0.00716696
0.00673991
0.00523067
0.00137976
0.0017164
0.00215586
0.00251932
0.00277125
0.00291065
0.00272811
0.000803503
0.000738635
0.000693261
0.000659362
0.000630467
0.000602695
0.000575867
0.000547268
0.000513329
0.000482682
0.000488964
0.000872676
0.000464117
0.00238392
0.00763563
0.00417148
0.00490955
0.00562276
0.00569916
0.00561863
0.00557302
0.00569189
0.00591028
0.00621038
0.0065529
0.00683334
0.00699136
0.00698313
0.00676528
0.0062054
0.00506957
0.00461703
0.00439674
0.00426174
0.00417229
0.00410626
0.00397956
0.00345061
0.00321406
0.00308521
0.00298288
0.00286309
0.00267661
0.00239744
0.00204424
0.00164263
0.00122654
0.00090262
0.000892226
0.000616343
0.000580438
0.000702281
0.000786284
0.00272829
0.00955131
0.00589291
0.00474787
0.00527685
0.00556457
0.00549191
0.0054323
0.00554524
0.00574599
0.00604299
0.00639298
0.00670082
0.00686506
0.00682518
0.00658585
0.00620855
0.00578061
0.00548677
0.00526932
0.00508102
0.0049246
0.0047944
0.00465922
0.0044621
0.00429003
0.00413293
0.00397307
0.00380002
0.00360423
0.00333147
0.00296453
0.00250227
0.00196939
0.00148115
0.00109117
0.000838093
0.00072244
0.00104054
0.000818434
0.00304833
0.0109364
0.00853557
0.00621435
0.00567567
0.00573712
0.00571341
0.00562841
0.00562623
0.00577603
0.00607776
0.00645461
0.00678115
0.00693153
0.00683781
0.00652801
0.00613323
0.00582176
0.00565354
0.00551325
0.00532876
0.00510662
0.00486659
0.00463306
0.00442128
0.00424166
0.00407657
0.0039148
0.0037556
0.00360459
0.00346201
0.00322494
0.00285795
0.00239445
0.00193991
0.00152006
0.00122287
0.00113211
0.00116326
0.000918848
0.00311459
0.00992372
0.0087029
0.00787644
0.00723374
0.00672282
0.00617245
0.00579831
0.00571457
0.00591432
0.00630577
0.00674379
0.00706818
0.00714467
0.00692787
0.00649088
0.00602957
0.00574705
0.00562185
0.00537881
0.00502268
0.00463773
0.0042947
0.00402773
0.00383034
0.00367643
0.00354358
0.00342561
0.00332747
0.00325946
0.00323285
0.00322605
0.00301668
0.00270083
0.00241712
0.00226875
0.00235608
0.00273951
0.00342413
0.00145346
0.00303573
0.00361503
0.0040472
0.00421971
0.00431043
0.00437717
0.00456109
0.00494607
0.00552577
0.00621269
0.00686735
0.00734587
0.00753187
0.00734587
0.00683703
0.00620017
0.00574776
0.00542157
0.00507148
0.00460922
0.00412281
0.00371438
0.00341633
0.00320887
0.00305767
0.00293487
0.00282472
0.00272069
0.00261959
0.00251796
0.00241192
0.00230276
0.00221166
0.00214426
0.00212292
0.00214182
0.00214237
0.00206801
0.00193888
0.00136899
0.00163688
0.00321054
0.00443886
0.00539996
0.00627842
0.00706834
0.00771875
0.00814524
0.0082917
0.00814101
0.007696
0.00694535
0.00605071
0.00531101
0.00481221
0.00434542
0.00384082
0.003364
0.00299315
0.00273463
0.00255736
0.00242961
0.00233018
0.00224783
0.00217801
0.00211989
0.0020744
0.00204362
0.0020313
0.00204184
0.00206207
0.00209096
0.00212298
0.00213503
0.00208778
0.00196577
0.00178125
0.00113657
0.00203027
0.004627
0.00649124
0.00726615
0.00787681
0.00825364
0.00834909
0.00811729
0.00758488
0.00682502
0.00595541
0.00512145
0.00442039
0.00384763
0.0033461
0.00291634
0.00259712
0.00238024
0.00222453
0.00210342
0.00201072
0.00194091
0.00188972
0.00185551
0.00183784
0.0018364
0.00185018
0.00187656
0.00191957
0.00198024
0.00205625
0.00214179
0.0022226
0.00227954
0.00226968
0.00230259
0.00232549
0.00115727
0.00178249
0.00188753
0.00196286
0.00208915
0.00199738
0.00189189
0.00180807
0.00171885
0.00161956
0.0015012
0.00135973
0.00120217
0.00104225
0.000895996
0.000778641
0.00069623
0.000643864
0.000612643
0.000595429
0.000587735
0.000586804
0.000591589
0.000600393
0.000612599
0.000628213
0.000647342
0.000670179
0.000697042
0.00072849
0.000765533
0.000808051
0.000855518
0.000908602
0.000967963
0.00103355
0.00111143
0.00113941
0.00111245
0.00104424
0.00097269
)
;

boundaryField
{
    floor
    {
        type            nutkWallFunction;
        Cmu             0.09;
        kappa           0.41;
        E               9.8;
        value           nonuniform List<scalar> 
29
(
0.000143971
5.29282e-05
6.63141e-05
7.34899e-05
7.166e-05
6.8426e-05
6.47034e-05
6.05643e-05
5.65816e-05
5.29538e-05
4.96948e-05
4.67713e-05
4.4145e-05
4.1787e-05
3.96365e-05
3.7624e-05
3.56498e-05
3.35572e-05
3.22375e-05
2.88824e-05
2.88823e-05
4.12677e-05
4.91507e-05
5.51002e-05
0.000143971
5.29282e-05
5.94223e-05
0.000122716
0.000164561
)
;
    }
    ceiling
    {
        type            nutkWallFunction;
        Cmu             0.09;
        kappa           0.41;
        E               9.8;
        value           nonuniform List<scalar> 
43
(
0.000209454
0.000220989
0.000229223
0.000243037
0.0002331
0.000221591
0.000212392
0.000202545
0.000191517
0.000178272
0.000162284
0.000144257
0.000125682
0.000108407
9.43086e-05
8.42594e-05
7.78008e-05
7.39203e-05
7.17709e-05
7.08079e-05
7.06915e-05
7.12913e-05
7.23928e-05
7.39166e-05
7.58604e-05
7.82339e-05
8.10564e-05
8.43618e-05
8.8212e-05
9.27221e-05
9.7867e-05
0.000103574
0.000109912
0.000116949
0.000124667
0.000133759
0.000137008
0.000133878
0.00012592
0.000117508
0.000343865
0.00040376
0.000236449
)
;
    }
    sWall
    {
        type            nutkWallFunction;
        Cmu             0.09;
        kappa           0.41;
        E               9.8;
        value           uniform 0.000209512;
    }
    nWall
    {
        type            nutkWallFunction;
        Cmu             0.09;
        kappa           0.41;
        E               9.8;
        value           nonuniform List<scalar> 6(9.52375e-05 9.91197e-05 0.000111133 0.000136688 0.000139087 0.000117513);
    }
    sideWalls
    {
        type            empty;
    }
    glass1
    {
        type            nutkWallFunction;
        Cmu             0.09;
        kappa           0.41;
        E               9.8;
        value           nonuniform List<scalar> 9(0.000123828 0.000168631 0.000205298 0.000240193 0.000275317 0.000311956 0.000345576 0.000352499 0.000344286);
    }
    glass2
    {
        type            nutkWallFunction;
        Cmu             0.09;
        kappa           0.41;
        E               9.8;
        value           nonuniform List<scalar> 2(0.000172973 0.000163406);
    }
    sun
    {
        type            nutkWallFunction;
        Cmu             0.09;
        kappa           0.41;
        E               9.8;
        value           nonuniform List<scalar> 
14
(
0.000123745
0.000134151
0.000136041
0.000142095
0.000147617
0.000152687
0.000157532
0.000162437
0.000166403
0.000168676
0.000168668
0.000165909
0.000160305
0.000152527
)
;
    }
    heatsource1
    {
        type            nutkWallFunction;
        Cmu             0.09;
        kappa           0.41;
        E               9.8;
        value           nonuniform List<scalar> 3(6.98963e-05 8.50054e-05 9.52373e-05);
    }
    heatsource2
    {
        type            nutkWallFunction;
        Cmu             0.09;
        kappa           0.41;
        E               9.8;
        value           nonuniform List<scalar> 4(0.000145899 9.52927e-05 9.52927e-05 0.000141325);
    }
    Table_master
    {
        type            nutkWallFunction;
        Cmu             0.09;
        kappa           0.41;
        E               9.8;
        value           nonuniform List<scalar> 9(8.69106e-05 7.72944e-05 6.94259e-05 6.29572e-05 5.75933e-05 5.31041e-05 4.93212e-05 4.61346e-05 4.34968e-05);
    }
    Table_slave
    {
        type            nutkWallFunction;
        Cmu             0.09;
        kappa           0.41;
        E               9.8;
        value           nonuniform List<scalar> 9(9.7316e-05 8.94486e-05 8.38972e-05 7.97214e-05 7.61416e-05 7.26822e-05 6.9322e-05 6.57189e-05 6.14128e-05);
    }
    inlet
    {
        type            calculated;
        value           uniform 0.000100623;
    }
    outlet
    {
        type            calculated;
        value           nonuniform List<scalar> 2(0.00178249 0.00188753);
    }
}


// ************************************************************************* //
