/*--------------------------------*- C++ -*----------------------------------*\
  =========                 |
  \\      /  F ield         | OpenFOAM: The Open Source CFD Toolbox
   \\    /   O peration     | Website:  https://openfoam.org
    \\  /    A nd           | Version:  6
     \\/     M anipulation  |
\*---------------------------------------------------------------------------*/
FoamFile
{
    version     2.0;
    format      ascii;
    class       surfaceScalarField;
    location    "400";
    object      phi;
}
// * * * * * * * * * * * * * * * * * * * * * * * * * * * * * * * * * * * * * //

dimensions      [1 0 -1 0 0 0 0];

internalField   nonuniform List<scalar> 
852
(
-0.0022857
0.00233934
-0.00251032
0.000224683
-0.0027689
0.000258657
-0.00305609
0.000287256
-0.00331936
0.000263339
-0.00353456
0.000215268
-0.00368487
0.000150373
-0.00375418
6.93734e-05
-0.00372548
-2.86285e-05
-0.00357912
-0.000146293
-0.00329637
-0.000282683
-0.00286161
-0.000434695
-0.00224323
-0.000618306
-0.00134045
-0.00090271
-0.00134003
-0.000463051
0.000465725
-0.000456102
-6.89783e-06
-0.000392034
-6.40028e-05
-0.000352089
-3.9878e-05
-0.000301355
-5.06685e-05
-0.000221124
-8.0166e-05
-0.000100268
-0.000120788
1.19072e-05
-0.000112102
0.000103265
-9.12823e-05
0.000172563
-6.92197e-05
0.000219879
-4.72373e-05
0.000239593
-1.96322e-05
0.000221092
1.85769e-05
0.000160463
6.07082e-05
8.9108e-05
7.14412e-05
7.25239e-05
1.66915e-05
0.00015456
-8.19238e-05
0.0002616
-0.000106901
0.000263855
-0.00164659
0.0041256
-0.00215791
0.000736084
-0.00254202
0.000642834
-0.00285713
0.000602437
-0.003129
0.000535282
-0.00335149
0.000437832
-0.00351359
0.000312554
-0.00360238
0.000158234
-0.00360424
-2.66973e-05
-0.00350797
-0.000242492
-0.00330287
-0.000487711
-0.00297882
-0.000758663
-0.00253244
-0.00106462
-0.00201986
-0.00141522
-0.001624
-0.00173583
9.64056e-05
-0.00172038
9.64224e-05
0.000360961
0.000111302
2.95596e-05
0.000324529
-0.000294467
0.000260058
-0.000421218
8.69212e-05
-0.000440589
-3.12375e-05
-0.000448341
-7.23484e-05
-0.000415197
-0.000153859
-0.000414558
-0.000112661
-0.000433475
-7.22796e-05
-0.000464535
-3.80676e-05
-0.000505921
-5.75166e-06
-0.000550451
2.50092e-05
-0.000589882
5.81401e-05
-0.000624646
9.56187e-05
-0.000623146
7.00938e-05
-0.000510699
-9.5607e-05
-0.000493151
-9.93145e-05
-0.000490986
-0.000108917
-0.000222918
-0.00121529
0.00554866
-0.00183329
0.00135416
-0.00224166
0.00105127
-0.00254961
0.000910469
-0.00281184
0.000797585
-0.00303057
0.000656637
-0.00319881
0.000480873
-0.00330633
0.00026583
-0.00334186
8.91858e-06
-0.00329819
-0.000286087
-0.00317759
-0.000608231
-0.00298993
-0.000946241
-0.00275919
-0.00129528
-0.00253544
-0.00163888
-0.00236343
-0.00190776
-0.00208182
-0.00200192
-0.00198532
-0.000831826
0.000949309
-0.000933733
0.000426491
-0.000924404
0.000250785
-0.00091833
8.09108e-05
-0.0008885
-6.09988e-05
-0.000746668
-0.000214104
-0.000900281
-0.00101268
-0.0010847
-0.00112249
-0.00112795
-0.00110263
-0.00104418
-0.000948245
-0.000877851
-0.000432732
-0.0005406
-0.000159629
-0.000372286
-2.51065e-05
-0.000243301
-0.000244598
-0.000910799
0.00672273
-0.00155374
0.00199718
-0.00190116
0.00139878
-0.00217381
0.0011832
-0.00240421
0.00102807
-0.0025962
0.000848705
-0.00274803
0.000632787
-0.00285316
0.000371045
-0.00290266
5.85003e-05
-0.00289128
-0.000297386
-0.00283465
-0.000664778
-0.00276517
-0.00101563
-0.00272474
-0.00133563
-0.00275935
-0.00160419
-0.00288939
-0.00177764
-0.00310392
-0.00178731
-0.00367095
-0.00141821
-0.00305291
-0.000614836
-0.0021722
6.86919e-05
-0.00196465
0.000219018
-0.001879
0.000165221
-0.00185933
6.13291e-05
-0.00186329
-5.69645e-05
-0.00193929
-0.000138027
-0.0018183
-0.000121053
-0.00169605
-0.000122328
-0.00156604
-0.000130075
-0.00143041
-0.00013569
-0.00128939
-0.000141088
-0.00113963
-0.000149815
-0.000971054
-0.000168626
-0.000758642
-0.000212462
-0.000439642
-0.000319047
-0.000447055
-0.000533076
-0.000226791
-0.000592436
7.49755e-05
-0.000544949
-0.000166996
-0.000683867
0.00771677
-0.00132022
0.00263361
-0.00153714
0.00161578
-0.00174659
0.00139273
-0.00192471
0.00120627
-0.00206189
0.000985972
-0.00216235
0.000733326
-0.00222584
0.000434628
-0.00224436
7.71031e-05
-0.00221445
-0.00032721
-0.00216415
-0.000714988
-0.00213623
-0.00104347
-0.00216652
-0.00130525
-0.00227508
-0.00149554
-0.0024601
-0.00159253
-0.00270983
-0.00153749
-0.00290219
-0.00122577
-0.00279093
-0.000726013
-0.00243581
-0.000286337
-0.0021379
-7.87998e-05
-0.00194139
-3.12133e-05
-0.00182161
-5.83673e-05
-0.00176093
-0.00011756
-0.00173434
-0.000164537
-0.00167397
-0.000181338
-0.00160325
-0.000192968
-0.00152986
-0.000203373
-0.0014541
-0.000211361
-0.00137646
-0.000218641
-0.00129546
-0.000230714
-0.00120474
-0.000259256
-0.00109176
-0.000325339
-0.000956469
-0.000454235
-0.000851383
-0.000638058
-0.000626598
-0.000817117
-0.00017426
-0.000997181
0.000748621
-0.00108977
0.00166644
-0.000917915
0.00159299
7.33493e-05
0.00161948
-0.000636796
0.00870451
-0.00122117
0.00321806
-0.00114905
0.00154375
-0.00122598
0.00146975
-0.00135531
0.00133569
-0.00142343
0.00105418
-0.00143961
0.000749603
-0.00142261
0.00041771
-0.0013648
1.93917e-05
-0.00127648
-0.000415445
-0.00120439
-0.000786987
-0.00118687
-0.0010609
-0.00124557
-0.00124646
-0.00138493
-0.00135609
-0.0015908
-0.00138657
-0.00182278
-0.00130543
-0.00197359
-0.00107487
-0.00195865
-0.000740862
-0.00180768
-0.000437223
-0.00163775
-0.000248637
-0.00150527
-0.000163609
-0.00141824
-0.000145317
-0.001373
-0.000162711
-0.00135131
-0.000186147
-0.00133096
-0.0002016
-0.00131071
-0.000213132
-0.00129328
-0.000220709
-0.00128126
-0.000223291
-0.00127785
-0.000221959
-0.00128592
-0.000222549
-0.00130633
-0.000238756
-0.00133783
-0.000293738
-0.00138016
-0.000411807
-0.0014184
-0.000599723
-0.00138256
-0.000852851
-0.00119426
-0.00118538
-0.000702704
-0.00158123
0.000205396
-0.00182591
0.000829474
-0.000550625
0.00248044
-0.00085096
0.00994346
-0.000975573
0.00334276
-0.000404609
0.000972874
-0.000322538
0.00138777
-0.000491775
0.00150502
-0.000529546
0.00109204
-0.000447645
0.000667793
-0.000313783
0.00028394
-0.000164061
-0.00013024
-3.86922e-05
-0.000540722
2.57853e-05
-0.000851374
1.27885e-05
-0.00104781
-8.14121e-05
-0.00115217
-0.000250573
-0.00118683
-0.000473871
-0.00116318
-0.000706267
-0.00107294
-0.000878144
-0.0009029
-0.000943304
-0.000675609
-0.000921283
-0.000459152
-0.00086608
-0.000303749
-0.000815329
-0.00021427
-0.00078469
-0.000175866
-0.000777352
-0.00016996
-0.000786007
-0.000177402
-0.000801321
-0.000186197
-0.000821154
-0.000193208
-0.00084696
-0.000194811
-0.000882942
-0.000187214
-0.000936718
-0.000168088
-0.00101965
-0.000139519
-0.00114622
-0.000112086
-0.00133049
-0.000109379
-0.00157849
-0.000163708
-0.00187635
-0.000301765
-0.0021853
-0.000543795
-0.00246162
-0.000908959
-0.00264375
-0.001399
-0.00259048
-0.00187908
-0.00144256
-0.00169844
0.00107464
0.00163585
0.00874154
0.00214764
0.00283105
0.00218113
0.000939468
0.00177588
0.00179312
0.00141063
0.00187036
0.0012873
0.00121547
0.00130555
0.000649638
0.00140374
0.000185846
0.00151813
-0.000244539
0.00155917
-0.000581674
0.00151476
-0.000806872
0.00140083
-0.000933798
0.00123194
-0.000983185
0.00101824
-0.000973037
0.000772022
-0.000916867
0.000520805
-0.000821625
0.000308072
-0.000690071
0.000166906
-0.000534347
9.23573e-05
-0.000384507
5.63818e-05
-0.000267678
3.37424e-05
-0.000191534
9.30208e-06
-0.000151331
-2.35524e-05
-0.000137011
-6.41241e-05
-0.000136735
-0.000108737
-0.000141488
-0.000156012
-0.000145836
-0.000205966
-0.00014476
-0.00026011
-0.000132971
-0.000322715
-0.000105382
-0.00040291
-5.92229e-05
-0.000519555
4.65945e-06
-0.000711523
8.26897e-05
-0.0010319
0.000156766
-0.00151606
0.000182502
-0.00216183
0.000102066
-0.00296146
-0.000109223
-0.00399138
-0.000368979
-0.00525143
-0.000618916
-0.00528296
-0.00166681
-0.0040638
0.0092088
0.0120241
0.0100927
0.00287093
0.00743012
0.00445577
0.00612233
0.00317823
0.00530863
0.00202925
0.00474077
0.00121759
0.00431232
0.000614378
0.00392127
0.000146591
0.00354497
-0.00020528
0.00319262
-0.000454437
0.00286357
-0.000604661
0.00255313
-0.000672651
0.00225628
-0.000676104
0.00197074
-0.000631233
0.00170215
-0.000552939
0.00146658
-0.000454403
0.00127897
-0.000346641
0.00113937
-0.000244807
0.00103597
-0.000164176
0.000954886
-0.000110349
0.000885305
-8.16482e-05
0.000819977
-7.15823e-05
0.000755541
-7.21974e-05
0.000691897
-7.77432e-05
0.000629063
-8.28982e-05
0.000567665
-8.32582e-05
0.000509382
-7.45824e-05
0.000456919
-5.28127e-05
0.000414341
-1.6537e-05
0.000381993
3.71162e-05
0.000358804
0.000105987
0.000347477
0.0001682
0.000349458
0.000180627
0.000349194
0.000102437
0.000331862
-9.17841e-05
0.000307432
-0.000344441
0.000307073
-0.000618449
8.41473e-05
-0.00144377
-0.00381951
0.000580935
0.00309955
0.00296127
0.00207552
0.00422662
0.00191296
0.00458806
0.00166789
0.00464368
0.00116205
0.00459678
0.000661363
0.00447019
0.000273259
0.00427521
-1.02103e-05
0.00402634
-0.000205481
0.0037434
-0.000321641
0.00344558
-0.000374742
0.00314782
-0.000378254
0.00286262
-0.000345939
0.00260094
-0.000291167
0.00237312
-0.00022649
0.00218345
-0.000156868
0.00202957
-9.08301e-05
0.00190604
-4.05396e-05
0.00180543
-9.63094e-06
0.00172018
3.70721e-06
0.001644
4.6976e-06
0.00157318
-1.26409e-06
0.00150581
-1.02633e-05
0.001441
-1.79791e-05
0.00137944
-2.1594e-05
0.00132379
-1.88215e-05
0.00127873
-7.64041e-06
0.00124886
1.34481e-05
0.00124197
4.41268e-05
0.00126837
7.97e-05
0.00133613
0.000100553
0.00144685
7.00233e-05
0.00157753
-2.81301e-05
0.00170776
-0.000221893
0.00184263
-0.000479204
0.00196014
-0.000735845
0.00166965
-0.00115318
-0.00211435
-6.9114e-05
0.00315794
0.00194193
6.45412e-05
0.00298843
0.000866525
0.00362324
0.00103316
0.00405954
0.000725825
0.00431134
0.00040964
0.00440674
0.000177946
0.00437648
2.01314e-05
0.00423383
-6.275e-05
0.00401864
-0.000106359
0.00376168
-0.000117698
0.00348879
-0.000105275
0.0032215
-7.85557e-05
0.00297654
-4.61083e-05
0.00276409
-1.39463e-05
0.00259307
1.42506e-05
0.00246742
3.49213e-05
0.00238011
4.68758e-05
0.00231906
5.15275e-05
0.00227185
5.1025e-05
0.00222995
4.67062e-05
0.00218869
4.01065e-05
0.00214481
3.37288e-05
0.00209876
2.81909e-05
0.00205287
2.4405e-05
0.00201118
2.29871e-05
0.00197929
2.43675e-05
0.00196276
3.00957e-05
0.00196774
3.927e-05
0.00200138
4.61853e-05
0.00206364
3.84099e-05
0.00213593
-2.14405e-06
0.00219434
-8.64179e-05
0.0021966
-0.000224029
0.00215627
-0.000438761
0.00219282
-0.000772274
0.00224153
-0.00120177
0.00016645
0.00404537
-0.00277323
0.0003695
0.000415358
0.00126078
0.00227068
0.00297103
0.00335298
0.00350107
0.00348925
0.0033927
0.00325099
0.00309671
0.00295399
0.00283755
0.0027535
0.00270186
0.0026789
0.00267719
0.00268795
0.00270379
0.00271946
0.00273112
0.00273645
0.0027357
0.00272972
0.0027203
0.00270982
0.00270111
0.00269854
0.00270556
0.00271989
0.00272676
0.00269324
0.0025756
0.00232038
0.00185019
0.00104573
-0.000188147
)
;

boundaryField
{
    floor
    {
        type            calculated;
        value           nonuniform List<scalar> 
29
(
0
0
0
0
0
0
0
0
0
0
0
0
0
0
0
0
0
0
0
0
-2.11281e-06
-4.08306e-06
-3.29503e-06
-2.49782e-06
-3.51088e-07
-2.63282e-06
-6.50743e-06
-6.11946e-06
-3.12365e-06
)
;
    }
    ceiling
    {
        type            calculated;
        value           nonuniform List<scalar> 
43
(
4.4298e-05
2.89298e-05
1.52825e-05
1.87418e-05
2.11805e-05
2.33363e-05
2.55639e-05
2.77737e-05
2.99377e-05
3.20372e-05
3.38828e-05
3.5441e-05
3.66759e-05
3.75338e-05
3.79812e-05
3.80388e-05
3.77906e-05
3.73083e-05
3.67343e-05
3.6218e-05
3.57987e-05
3.54585e-05
3.51646e-05
3.4886e-05
3.45975e-05
3.42865e-05
3.39484e-05
3.3584e-05
3.31977e-05
3.27915e-05
3.23764e-05
3.1982e-05
3.16628e-05
3.14989e-05
3.13477e-05
3.13171e-05
3.15587e-05
3.23068e-05
3.22176e-05
2.95858e-05
1.97184e-05
1.58387e-05
1.07749e-05
)
;
    }
    sWall
    {
        type            calculated;
        value           uniform -0.000151284;
    }
    nWall
    {
        type            calculated;
        value           nonuniform List<scalar> 6(-2.65855e-05 -3.13863e-05 -3.66529e-05 -3.53953e-05 -3.9159e-05 -5.11841e-05);
    }
    sideWalls
    {
        type            empty;
        value           nonuniform 0();
    }
    glass1
    {
        type            calculated;
        value           nonuniform List<scalar> 9(-5.35743e-05 -0.000139597 -0.000207703 -0.000263205 -0.000310106 -0.00035088 -0.000387923 -0.000433868 -0.000486914);
    }
    glass2
    {
        type            calculated;
        value           nonuniform List<scalar> 2(-0.000144417 -0.000160045);
    }
    sun
    {
        type            calculated;
        value           uniform 0;
    }
    heatsource1
    {
        type            calculated;
        value           nonuniform List<scalar> 3(2.01655e-07 2.01752e-07 2.01851e-07);
    }
    heatsource2
    {
        type            calculated;
        value           nonuniform List<scalar> 4(5.0494e-08 5.07299e-08 0 0);
    }
    Table_master
    {
        type            calculated;
        value           nonuniform List<scalar> 9(-1.52503e-07 -1.52437e-07 -1.5237e-07 -1.5231e-07 -1.52256e-07 -1.52199e-07 -1.52135e-07 -1.52062e-07 -1.51945e-07);
    }
    Table_slave
    {
        type            calculated;
        value           nonuniform List<scalar> 9(1.51395e-07 1.51439e-07 1.51478e-07 1.51517e-07 1.51555e-07 1.51592e-07 1.51629e-07 1.51667e-07 1.51685e-07);
    }
    inlet
    {
        type            calculated;
        value           uniform -0.000809505;
    }
    outlet
    {
        type            calculated;
        value           nonuniform List<scalar> 2(-0.00393826 0.00678978);
    }
}


// ************************************************************************* //
