// -*- C++ -*-
// File generated by PyFoam - sorry for the ugliness

FoamFile
{
 version 2.0;
 format ascii;
 class volVectorField;
 location "400";
 object U;
}

dimensions [ 0 1 -1 0 0 0 0 ];

internalField nonuniform List<vector> 459
(
  (0.0842322 0.0632002 0)
  (-0.127627 0.00364779 0)
  (-0.113675 0.00566317 0)
  (-0.126491 0.00616277 0)
  (-0.138663 0.00508827 0)
  (-0.149193 0.00337063 0)
  (-0.157249 0.00119869 0)
  (-0.162153 -0.0014213 0)
  (-0.163197 -0.00454479 0)
  (-0.159569 -0.00832899 0)
  (-0.150205 -0.0129983 0)
  (-0.133386 -0.0188198 0)
  (-0.10793 -0.0267399 0)
  (-0.0786157 -0.0385441 0)
  (-0.0657198 -0.0537659 0)
  (0.020599 0.00945692 0)
  (-0.0248865 -0.00174436 0)
  (-0.0194415 -0.00261707 0)
  (-0.0162526 -0.00209602 0)
  (-0.0141302 -0.00236556 0)
  (-0.0111121 -0.00351595 0)
  (-0.00714664 -0.00558665 0)
  (-0.00238151 -0.00515352 0)
  (0.00259417 -0.00429993 0)
  (0.00588156 -0.00367934 0)
  (0.0081887 -0.00328087 0)
  (0.0102627 -0.0028214 0)
  (0.0107329 -0.00144735 0)
  (0.00894566 0.00178062 0)
  (0.0050481 0.00544512 0)
  (0.0037045 0.00351036 0)
  (0.00611111 -0.00255784 0)
  (0.0140817 -0.00468239 0)
  (-0.031006 0.00612938 0)
  (0.269559 0.136884 0)
  (-0.145795 0.0199163 0)
  (-0.100178 0.0194693 0)
  (-0.117343 0.019704 0)
  (-0.130187 0.0179061 0)
  (-0.141061 0.0148927 0)
  (-0.149506 0.010884 0)
  (-0.155067 0.00585651 0)
  (-0.157152 -0.000299003 0)
  (-0.15507 -0.00771256 0)
  (-0.148399 -0.0163249 0)
  (-0.136387 -0.0261637 0)
  (-0.118899 -0.038027 0)
  (-0.0980136 -0.0534432 0)
  (-0.078543 -0.0707894 0)
  (-0.0628889 -0.0775299 0)
  (0.0413151 0.0159606 0)
  (0.0874887 0.0121308 0)
  (0.00796639 0.0111269 0)
  (-0.0159187 0.00705002 0)
  (-0.0164383 0.00258816 0)
  (-0.0187199 -0.000736138 0)
  (-0.0191116 -0.00378117 0)
  (-0.0184387 -0.0064801 0)
  (-0.0181588 -0.00489464 0)
  (-0.0182632 -0.00300457 0)
  (-0.0192596 -0.00103236 0)
  (-0.0207876 0.00106 0)
  (-0.023032 0.00321131 0)
  (-0.0249705 0.00538381 0)
  (-0.026711 0.00707881 0)
  (-0.0272911 0.0059736 0)
  (-0.0239847 -5.66819e-05 0)
  (-0.0164264 -0.00130968 0)
  (-0.0199393 -0.000968727 0)
  (-0.0719734 0.001065 0)
  (0.425648 0.208352 0)
  (-0.186308 0.0445289 0)
  (-0.081293 0.0364481 0)
  (-0.104091 0.0327108 0)
  (-0.116591 0.0287224 0)
  (-0.127159 0.0234086 0)
  (-0.135641 0.0166784 0)
  (-0.141741 0.00843938 0)
  (-0.144972 -0.00137255 0)
  (-0.144575 -0.0126579 0)
  (-0.140735 -0.0253012 0)
  (-0.133634 -0.0389821 0)
  (-0.124056 -0.0536665 0)
  (-0.113526 -0.0689866 0)
  (-0.10392 -0.0819206 0)
  (-0.0985219 -0.0862854 0)
  (-0.106507 -0.0810372 0)
  (0.00801845 0.0324656 0)
  (-0.0407708 0.0181428 0)
  (-0.0416364 0.0126221 0)
  (-0.0399414 0.00487808 0)
  (-0.0389093 -0.00159792 0)
  (-0.0373066 -0.00675358 0)
  (-0.0330467 -0.0069274 0)
  (-0.0417588 -0.00628086 0)
  (-0.0457204 -0.00510514 0)
  (-0.0480452 -0.00427149 0)
  (-0.0489128 -0.00366879 0)
  (-0.0483224 -0.00326668 0)
  (-0.0469482 -0.00332309 0)
  (-0.0448976 -0.00456288 0)
  (-0.0398368 -0.0090602 0)
  (-0.0268115 -0.0157711 0)
  (-0.0124487 -0.0102371 0)
  (0.00360228 -0.00607024 0)
  (-0.0519979 -0.00592769 0)
  (0.552182 0.26742 0)
  (-0.229039 0.073166 0)
  (-0.0589414 0.0534303 0)
  (-0.0882176 0.045504 0)
  (-0.0996801 0.0397277 0)
  (-0.108848 0.0327591 0)
  (-0.116385 0.024171 0)
  (-0.12209 0.0136851 0)
  (-0.125544 0.00115259 0)
  (-0.12606 -0.0131558 0)
  (-0.124109 -0.0283968 0)
  (-0.120921 -0.0436868 0)
  (-0.118028 -0.0584178 0)
  (-0.117162 -0.0715175 0)
  (-0.120422 -0.0800923 0)
  (-0.131807 -0.0785948 0)
  (-0.152075 -0.0565147 0)
  (-0.148293 0.000560056 0)
  (-0.102265 0.0230059 0)
  (-0.0930516 0.0154464 0)
  (-0.0828919 0.0092658 0)
  (-0.0807684 0.00273524 0)
  (-0.0813122 -0.00320622 0)
  (-0.0828258 -0.00755638 0)
  (-0.0815962 -0.00646116 0)
  (-0.0761421 -0.00603674 0)
  (-0.0706061 -0.00638941 0)
  (-0.0648753 -0.00672458 0)
  (-0.059001 -0.00710414 0)
  (-0.0528626 -0.00766241 0)
  (-0.0457107 -0.00868472 0)
  (-0.0362191 -0.0108212 0)
  (-0.0249087 -0.015292 0)
  (-0.0208438 -0.0227959 0)
  (-0.0148497 -0.0206758 0)
  (-0.00227411 -0.0158862 0)
  (-0.0213838 0.0018636 0)
  (0.651562 0.315891 0)
  (-0.265564 0.103105 0)
  (-0.0368306 0.0671875 0)
  (-0.0698857 0.056225 0)
  (-0.0802269 0.0487052 0)
  (-0.0869016 0.0401556 0)
  (-0.0920931 0.030001 0)
  (-0.0958269 0.0177541 0)
  (-0.0977215 0.00311159 0)
  (-0.0968803 -0.0134052 0)
  (-0.0945549 -0.0299138 0)
  (-0.0924709 -0.0448205 0)
  (-0.092243 -0.0575489 0)
  (-0.095116 -0.0675744 0)
  (-0.10194 -0.0736458 0)
  (-0.112822 -0.0732961 0)
  (-0.123485 -0.0614454 0)
  (-0.12462 -0.033017 0)
  (-0.113486 -0.0077327 0)
  (-0.0989632 0.00256001 0)
  (-0.0876538 0.00300073 0)
  (-0.0810063 0.000324435 0)
  (-0.077402 -0.00334847 0)
  (-0.0757052 -0.00607671 0)
  (-0.0738305 -0.00644583 0)
  (-0.0709622 -0.00697522 0)
  (-0.0678136 -0.00741507 0)
  (-0.0645765 -0.00777322 0)
  (-0.0612931 -0.0081458 0)
  (-0.0579134 -0.00875833 0)
  (-0.0541334 -0.0100521 0)
  (-0.0495276 -0.01283 0)
  (-0.0443865 -0.0181914 0)
  (-0.0394912 -0.026252 0)
  (-0.0326043 -0.031506 0)
  (-0.0182462 -0.0351991 0)
  (0.00868418 -0.0354377 0)
  (0.0450901 -0.0431955 0)
  (0.0893756 -0.0201797 0)
  (-0.0449146 0.0306071 0)
  (0.714883 0.359157 0)
  (-0.294329 0.129768 0)
  (-0.0214143 0.0723528 0)
  (-0.0468985 0.0648541 0)
  (-0.0569358 0.0557459 0)
  (-0.0610084 0.0447604 0)
  (-0.0626854 0.0328514 0)
  (-0.0629315 0.0191305 0)
  (-0.0614187 0.0026643 0)
  (-0.0567861 -0.0156913 0)
  (-0.05287 -0.0323722 0)
  (-0.0507775 -0.0455517 0)
  (-0.0516432 -0.0552426 0)
  (-0.0560838 -0.0616741 0)
  (-0.0640757 -0.0643338 0)
  (-0.0744587 -0.0615024 0)
  (-0.0835034 -0.0507618 0)
  (-0.0864537 -0.0331893 0)
  (-0.082308 -0.0172657 0)
  (-0.0747071 -0.00837857 0)
  (-0.0677729 -0.00500967 0)
  (-0.0629629 -0.00487533 0)
  (-0.0601927 -0.0063899 0)
  (-0.0588837 -0.00794956 0)
  (-0.0580416 -0.00867389 0)
  (-0.0571487 -0.0092296 0)
  (-0.0562978 -0.00967117 0)
  (-0.0556213 -0.00997098 0)
  (-0.0552568 -0.0102131 0)
  (-0.0553379 -0.0106751 0)
  (-0.0559139 -0.0119382 0)
  (-0.0569917 -0.0149482 0)
  (-0.0587248 -0.0206879 0)
  (-0.0607797 -0.0291748 0)
  (-0.0608724 -0.0390569 0)
  (-0.0555234 -0.0509431 0)
  (-0.0429946 -0.0637666 0)
  (-0.0278823 -0.0715171 0)
  (0.0497343 -0.018451 0)
  (-0.094216 0.0815058 0)
  (0.733194 0.398691 0)
  (-0.306183 0.128853 0)
  (-0.00580944 0.0454804 0)
  (-0.00395621 0.0699272 0)
  (-0.0186341 0.0651397 0)
  (-0.0241023 0.0463458 0)
  (-0.0223311 0.0308108 0)
  (-0.0183316 0.0156142 0)
  (-0.0104959 -0.00284703 0)
  (-0.00277132 -0.0219434 0)
  (0.00136452 -0.0368437 0)
  (0.0021695 -0.0467017 0)
  (-0.000384832 -0.052625 0)
  (-0.00638496 -0.0555051 0)
  (-0.0153552 -0.0556065 0)
  (-0.0259018 -0.0520677 0)
  (-0.0352465 -0.0437197 0)
  (-0.0405204 -0.0318443 0)
  (-0.0411274 -0.020585 0)
  (-0.0389901 -0.0129704 0)
  (-0.0363869 -0.00895315 0)
  (-0.0344961 -0.00752325 0)
  (-0.0336651 -0.00765787 0)
  (-0.0337536 -0.00830182 0)
  (-0.034317 -0.008827 0)
  (-0.0350689 -0.00922454 0)
  (-0.0360153 -0.0094106 0)
  (-0.0372786 -0.0092825 0)
  (-0.0391057 -0.00883194 0)
  (-0.0419126 -0.00828347 0)
  (-0.0462892 -0.0082774 0)
  (-0.0528914 -0.00993647 0)
  (-0.0622822 -0.0143894 0)
  (-0.0743119 -0.0220622 0)
  (-0.0878922 -0.0330076 0)
  (-0.100947 -0.0475323 0)
  (-0.10981 -0.0630709 0)
  (-0.109855 -0.0666566 0)
  (-0.105254 -0.0220702 0)
  (-0.15822 0.142612 0)
  (0.826955 0.418258 0)
  (-0.123789 0.104812 0)
  (0.0662028 -0.0241121 0)
  (0.103698 0.0307482 0)
  (0.0737848 0.0466415 0)
  (0.0546171 0.028933 0)
  (0.0532785 0.0118275 0)
  (0.0566506 -0.00287843 0)
  (0.064581 -0.0175583 0)
  (0.0685875 -0.0301504 0)
  (0.068029 -0.0395037 0)
  (0.0641635 -0.0452468 0)
  (0.0577928 -0.0478052 0)
  (0.0493263 -0.0478331 0)
  (0.0391085 -0.0458511 0)
  (0.0278884 -0.0418932 0)
  (0.0173154 -0.0355984 0)
  (0.00938686 -0.0274574 0)
  (0.00486846 -0.0194599 0)
  (0.00280987 -0.0133896 0)
  (0.00180297 -0.00960339 0)
  (0.000933753 -0.0077189 0)
  (-0.000248204 -0.00714959 0)
  (-0.00184485 -0.00723117 0)
  (-0.00370663 -0.00747732 0)
  (-0.00569443 -0.00767013 0)
  (-0.00778186 -0.00760353 0)
  (-0.00999635 -0.00705885 0)
  (-0.012447 -0.00584973 0)
  (-0.0154099 -0.00392661 0)
  (-0.0194426 -0.00150888 0)
  (-0.0254185 0.00076826 0)
  (-0.035821 0.00131665 0)
  (-0.0530914 -0.00233102 0)
  (-0.0787794 -0.0125677 0)
  (-0.111152 -0.0298895 0)
  (-0.146676 -0.0525795 0)
  (-0.183547 -0.0779629 0)
  (-0.238474 -0.100292 0)
  (-0.451821 -0.114358 0)
  (0.955426 0.402761 0)
  (0.453512 0.261292 0)
  (0.41366 0.176686 0)
  (0.393392 0.164341 0)
  (0.301309 0.131528 0)
  (0.240831 0.0885579 0)
  (0.212639 0.052965 0)
  (0.195985 0.0255828 0)
  (0.179545 0.0030772 0)
  (0.162144 -0.0144877 0)
  (0.146106 -0.0262367 0)
  (0.131368 -0.0327639 0)
  (0.117541 -0.0352454 0)
  (0.10436 -0.0347909 0)
  (0.0916563 -0.032279 0)
  (0.0794552 -0.0283531 0)
  (0.0682491 -0.0234569 0)
  (0.0588793 -0.018064 0)
  (0.0518107 -0.0129583 0)
  (0.0467213 -0.00887834 0)
  (0.0429061 -0.00608431 0)
  (0.0397714 -0.00447009 0)
  (0.0369226 -0.00374894 0)
  (0.0341377 -0.00355954 0)
  (0.0313694 -0.00359595 0)
  (0.0286305 -0.00363867 0)
  (0.0259352 -0.00349084 0)
  (0.0233278 -0.00294349 0)
  (0.020892 -0.00177703 0)
  (0.0187746 0.000177142 0)
  (0.0173491 0.00306094 0)
  (0.0162093 0.00677705 0)
  (0.0154566 0.010706 0)
  (0.014868 0.0133443 0)
  (0.0144575 0.0129787 0)
  (0.0141346 0.00829779 0)
  (0.0133654 0.000701867 0)
  (0.0179361 -0.00952245 0)
  (0.0575888 -0.0646286 0)
  (-0.325144 -0.185034 0)
  (-0.889374 0.0806803 0)
  (0.227854 0.157018 0)
  (0.185272 0.125612 0)
  (0.184175 0.0900495 0)
  (0.196628 0.0589945 0)
  (0.201601 0.0342481 0)
  (0.198524 0.0161927 0)
  (0.190914 0.00378894 0)
  (0.180776 -0.00526254 0)
  (0.169039 -0.0110973 0)
  (0.15627 -0.0139445 0)
  (0.143152 -0.0141485 0)
  (0.130318 -0.0122219 0)
  (0.118287 -0.0088298 0)
  (0.107517 -0.00472508 0)
  (0.0983615 -0.000544159 0)
  (0.0909053 0.0031309 0)
  (0.084966 0.00582025 0)
  (0.0802068 0.0073836 0)
  (0.0762771 0.00791483 0)
  (0.0728516 0.00773904 0)
  (0.0696953 0.00720193 0)
  (0.0667206 0.00647969 0)
  (0.0638588 0.0058135 0)
  (0.061106 0.00538564 0)
  (0.0585299 0.00535478 0)
  (0.0562757 0.00585645 0)
  (0.0546371 0.00687258 0)
  (0.0537988 0.00842229 0)
  (0.054094 0.0104384 0)
  (0.0560266 0.0121051 0)
  (0.0597766 0.0116085 0)
  (0.0650975 0.00670526 0)
  (0.0713561 -0.00453288 0)
  (0.0767677 -0.0193221 0)
  (0.0815127 -0.0352577 0)
  (0.101247 -0.0652288 0)
  (-0.0419563 -0.12564 0)
  (-0.482053 0.123113 0)
  (0.213701 0.0628912 0)
  (0.119797 0.0528129 0)
  (0.134315 0.0456444 0)
  (0.164511 0.0253135 0)
  (0.183434 0.00173165 0)
  (0.191229 -0.0200358 0)
  (0.192173 -0.0391305 0)
  (0.188022 -0.0527538 0)
  (0.179954 -0.0621262 0)
  (0.169367 -0.0685026 0)
  (0.157547 -0.0727399 0)
  (0.145557 -0.0753832 0)
  (0.134228 -0.0767324 0)
  (0.124159 -0.076947 0)
  (0.11577 -0.0755956 0)
  (0.10933 -0.0730134 0)
  (0.104768 -0.0703209 0)
  (0.101657 -0.0681247 0)
  (0.0994154 -0.0665759 0)
  (0.0975628 -0.0656582 0)
  (0.0958134 -0.0652371 0)
  (0.0939812 -0.065021 0)
  (0.0920219 -0.0648365 0)
  (0.0899969 -0.0645389 0)
  (0.08805 -0.0640121 0)
  (0.0864098 -0.0631432 0)
  (0.0853051 -0.0616665 0)
  (0.0849722 -0.059454 0)
  (0.0857088 -0.056935 0)
  (0.0876745 -0.0553335 0)
  (0.0906508 -0.0564483 0)
  (0.0940065 -0.0587449 0)
  (0.0957778 -0.0619831 0)
  (0.0952437 -0.0659261 0)
  (0.0912749 -0.0689244 0)
  (0.115045 -0.077384 0)
  (-0.0283195 -0.106467 0)
  (0.704889 0.17304 0)
  (0.0666796 -0.286508 0)
  (-0.338129 0.150264 0)
  (0.145604 0.0658451 0)
  (0.0438289 0.0915566 0)
  (0.0726158 0.108823 0)
  (0.111871 0.113701 0)
  (0.138463 0.119976 0)
  (0.151089 0.131398 0)
  (0.153613 0.147653 0)
  (0.150623 0.163289 0)
  (0.144861 0.177759 0)
  (0.138009 0.191293 0)
  (0.131253 0.203603 0)
  (0.12542 0.214041 0)
  (0.120964 0.221933 0)
  (0.117995 0.226925 0)
  (0.116398 0.228099 0)
  (0.115905 0.226008 0)
  (0.116178 0.22262 0)
  (0.116846 0.219146 0)
  (0.117604 0.216116 0)
  (0.118245 0.21371 0)
  (0.118641 0.21189 0)
  (0.118743 0.210429 0)
  (0.11858 0.209151 0)
  (0.118218 0.207897 0)
  (0.11775 0.206526 0)
  (0.117293 0.204894 0)
  (0.11699 0.202719 0)
  (0.117006 0.199795 0)
  (0.117405 0.196271 0)
  (0.117928 0.192849 0)
  (0.117728 0.190783 0)
  (0.114904 0.186444 0)
  (0.107448 0.179646 0)
  (0.0925308 0.170213 0)
  (0.067105 0.156014 0)
  (0.123432 0.143133 0)
  (-0.401644 0.26693 0)
)
;

boundaryField
{
  floor
  {
    type noSlip;
  }
  ceiling
  {
    type noSlip;
  }
  sWall
  {
    type noSlip;
  }
  nWall
  {
    type noSlip;
  }
  sideWalls
  {
    type empty;
  }
  glass1
  {
    type noSlip;
  }
  glass2
  {
    type noSlip;
  }
  sun
  {
    type noSlip;
  }
  heatsource1
  {
    type noSlip;
  }
  heatsource2
  {
    type noSlip;
  }
  Table_master
  {
    type noSlip;
  }
  Table_slave
  {
    type noSlip;
  }
  inlet
  {
    type fixedValue;
    value uniform (0.0707107 -0.0707107 0);
  }
  outlet
  {
    type zeroGradient;
  }
} 	// ************************************************************************* //

