// -*- C++ -*-
// File generated by PyFoam - sorry for the ugliness

FoamFile
{
 version 2.0;
 format ascii;
 class volVectorField;
 location "1300";
 object U;
}

dimensions [ 0 1 -1 0 0 0 0 ];

internalField nonuniform List<vector> 459
(
  (0.368875 -0.165138 0)
  (0.28039 -0.162597 0)
  (0.425414 -0.110253 0)
  (0.538046 -0.0739964 0)
  (0.592236 -0.0528704 0)
  (0.615409 -0.038622 0)
  (0.625603 -0.0274153 0)
  (0.625584 -0.0177865 0)
  (0.614045 -0.00868244 0)
  (0.590535 0.00064519 0)
  (0.55402 0.0110505 0)
  (0.502267 0.023894 0)
  (0.430684 0.0423699 0)
  (0.325236 0.0775961 0)
  (0.241099 0.172298 0)
  (0.0141343 0.00964896 0)
  (-0.0264773 -0.00283022 0)
  (-0.0173669 -0.00266287 0)
  (-0.0168635 0.000673467 0)
  (-0.0184629 0.000596554 0)
  (-0.0212108 -0.00170487 0)
  (-0.0209024 -0.00513946 0)
  (-0.0158105 -0.00777011 0)
  (-0.00794933 -0.0103078 0)
  (0.00383513 -0.0143101 0)
  (0.0111197 -0.00912233 0)
  (0.0168919 -0.00660846 0)
  (0.0202068 -0.00515715 0)
  (0.0226557 -0.00410662 0)
  (0.0251076 -0.00309908 0)
  (0.0270538 -0.00226002 0)
  (0.0286149 -0.00283466 0)
  (0.0322461 9.50975e-05 0)
  (-0.00781306 0.0141867 0)
  (0.489646 -0.342652 0)
  (0.217195 -0.267752 0)
  (0.345413 -0.149461 0)
  (0.434992 -0.0792549 0)
  (0.470794 -0.0433549 0)
  (0.486608 -0.0198401 0)
  (0.49609 -5.98083e-05 0)
  (0.499016 0.017762 0)
  (0.491919 0.0342031 0)
  (0.474367 0.0507663 0)
  (0.445816 0.0689425 0)
  (0.405836 0.0905366 0)
  (0.355743 0.118469 0)
  (0.299418 0.158524 0)
  (0.268441 0.229267 0)
  (0.238374 0.199468 0)
  (0.120054 0.14226 0)
  (0.0871633 0.0239395 0)
  (-0.0123102 -0.000526314 0)
  (-0.000132673 -0.00641409 0)
  (0.00504459 -0.00180297 0)
  (0.00593844 0.00168543 0)
  (0.00341559 0.00403996 0)
  (9.54084e-05 0.00126653 0)
  (-0.00466341 -0.00647443 0)
  (-0.00116355 -0.0112964 0)
  (-0.00246234 -0.0158143 0)
  (-0.00297431 -0.00701751 0)
  (0.00146693 -0.00322168 0)
  (0.00162991 -0.00230631 0)
  (3.70026e-05 -0.0021828 0)
  (-0.00147008 -0.00236507 0)
  (-0.00181702 -0.00401563 0)
  (0.00111675 -0.00841638 0)
  (0.0179147 -0.000803846 0)
  (-0.0583298 0.0301406 0)
  (0.541677 -0.524889 0)
  (0.0733592 -0.36206 0)
  (0.232028 -0.200305 0)
  (0.299569 -0.118458 0)
  (0.316128 -0.0778679 0)
  (0.326553 -0.049009 0)
  (0.336213 -0.023616 0)
  (0.343427 0.0013884 0)
  (0.343312 0.0278703 0)
  (0.335398 0.0564181 0)
  (0.31928 0.0876102 0)
  (0.294961 0.12208 0)
  (0.263938 0.160534 0)
  (0.227258 0.203106 0)
  (0.19866 0.249224 0)
  (0.156765 0.211709 0)
  (0.0910605 0.173975 0)
  (0.0936096 0.00445779 0)
  (0.0218986 0.000275605 0)
  (0.00511721 -0.000290426 0)
  (0.00234422 0.00115928 0)
  (0.00352687 0.00244703 0)
  (0.00430276 0.00312998 0)
  (0.0142899 0.00176056 0)
  (0.0147909 -0.00333365 0)
  (0.0106818 -0.00934059 0)
  (-0.0113267 -0.0144784 0)
  (-0.0227369 -0.00873618 0)
  (-0.0261278 -0.0062485 0)
  (-0.028911 -0.00478429 0)
  (-0.0309259 -0.00358958 0)
  (-0.0309359 -0.00281209 0)
  (-0.0267548 -0.00140981 0)
  (-0.0292053 0.00303266 0)
  (-0.0464383 0.0118646 0)
  (-0.105049 0.0225305 0)
  (0.565936 -0.639945 0)
  (-0.0678558 -0.409809 0)
  (0.149139 -0.225568 0)
  (0.182368 -0.135968 0)
  (0.175981 -0.0906495 0)
  (0.182927 -0.0562717 0)
  (0.192246 -0.0263467 0)
  (0.20123 0.00341161 0)
  (0.205482 0.0347649 0)
  (0.204104 0.0686936 0)
  (0.196757 0.105769 0)
  (0.183088 0.145989 0)
  (0.163455 0.188669 0)
  (0.136596 0.232057 0)
  (0.113117 0.273627 0)
  (0.0812939 0.260067 0)
  (0.0531993 0.232021 0)
  (-0.0295996 0.0903375 0)
  (-0.0534598 -0.00252822 0)
  (-0.0467987 0.00213587 0)
  (-0.0438044 0.00478399 0)
  (-0.0443647 0.00456396 0)
  (-0.0469972 0.00255298 0)
  (-0.0505477 -0.000467162 0)
  (-0.0529232 -0.00226051 0)
  (-0.0514665 -0.00353009 0)
  (-0.0489652 -0.00446492 0)
  (-0.0454542 -0.00507476 0)
  (-0.0413062 -0.00546534 0)
  (-0.0367419 -0.00574771 0)
  (-0.0317108 -0.00603535 0)
  (-0.0257573 -0.00636216 0)
  (-0.0181581 -0.00640075 0)
  (-0.0122792 -0.0061641 0)
  (-0.00221566 -0.0038591 0)
  (0.0117351 -0.00179197 0)
  (-0.042999 0.00261026 0)
  (0.55776 -0.700197 0)
  (-0.165779 -0.438133 0)
  (0.0942159 -0.241851 0)
  (0.0821846 -0.135481 0)
  (0.0535342 -0.0954719 0)
  (0.0648147 -0.0636328 0)
  (0.0746641 -0.0347009 0)
  (0.081788 -0.00348806 0)
  (0.0882729 0.031939 0)
  (0.0892469 0.0710222 0)
  (0.0860074 0.113682 0)
  (0.0781283 0.159261 0)
  (0.0656011 0.206632 0)
  (0.0465769 0.254005 0)
  (0.0319827 0.298824 0)
  (0.00896581 0.298276 0)
  (-0.000686693 0.261433 0)
  (-0.0489634 0.0877107 0)
  (-0.0472484 0.00721579 0)
  (-0.0580034 0.00288156 0)
  (-0.0617741 0.00496987 0)
  (-0.062954 0.0055762 0)
  (-0.0631797 0.00446952 0)
  (-0.0628301 0.00233025 0)
  (-0.0616908 -3.58901e-05 0)
  (-0.0597552 -0.00245136 0)
  (-0.0574178 -0.00420542 0)
  (-0.0546768 -0.00540642 0)
  (-0.0516302 -0.00624331 0)
  (-0.0483333 -0.00698353 0)
  (-0.0446824 -0.00798116 0)
  (-0.0403148 -0.00962626 0)
  (-0.0346262 -0.0122116 0)
  (-0.0268221 -0.0156947 0)
  (-0.0150787 -0.0186234 0)
  (0.00753271 -0.0203472 0)
  (0.0315997 -0.0175338 0)
  (0.0677688 -0.0239629 0)
  (0.0989221 -0.00321985 0)
  (-0.0469304 0.043132 0)
  (0.505486 -0.709185 0)
  (-0.204952 -0.445637 0)
  (0.031236 -0.234039 0)
  (-0.00772054 -0.107884 0)
  (-0.0468225 -0.0963027 0)
  (-0.0321987 -0.0715121 0)
  (-0.0258913 -0.0436442 0)
  (-0.0208733 -0.0107324 0)
  (-0.0161951 0.0280679 0)
  (-0.0155669 0.071167 0)
  (-0.0164722 0.117987 0)
  (-0.0199271 0.167792 0)
  (-0.0261172 0.219402 0)
  (-0.0362388 0.270242 0)
  (-0.040791 0.313461 0)
  (-0.0506499 0.313673 0)
  (-0.04464 0.263589 0)
  (-0.0609218 0.0968191 0)
  (-0.0530256 0.0237562 0)
  (-0.0619874 0.0101005 0)
  (-0.0656816 0.00712442 0)
  (-0.066246 0.00545757 0)
  (-0.0652305 0.00320784 0)
  (-0.0635644 0.000402534 0)
  (-0.0616898 -0.00242163 0)
  (-0.0599557 -0.004868 0)
  (-0.0584581 -0.00667179 0)
  (-0.0572196 -0.00787501 0)
  (-0.0563317 -0.00865717 0)
  (-0.0558941 -0.00935289 0)
  (-0.0559084 -0.0104839 0)
  (-0.0561855 -0.0126899 0)
  (-0.0562427 -0.0165921 0)
  (-0.0550675 -0.0226126 0)
  (-0.0507534 -0.0307041 0)
  (-0.0407725 -0.0412408 0)
  (-0.0258314 -0.0540474 0)
  (-0.00592334 -0.0618959 0)
  (0.0737411 -0.00943392 0)
  (-0.0799159 0.0889273 0)
  (0.394315 -0.647734 0)
  (-0.208172 -0.406218 0)
  (-0.0844719 -0.20401 0)
  (-0.0903643 -0.0788052 0)
  (-0.14454 -0.0938539 0)
  (-0.131585 -0.0759362 0)
  (-0.12695 -0.0479219 0)
  (-0.122367 -0.0128267 0)
  (-0.117776 0.0273121 0)
  (-0.115117 0.071445 0)
  (-0.112306 0.119277 0)
  (-0.109692 0.170344 0)
  (-0.107313 0.223235 0)
  (-0.105204 0.274075 0)
  (-0.0976626 0.312729 0)
  (-0.0910642 0.30981 0)
  (-0.0718766 0.248935 0)
  (-0.0665107 0.0960366 0)
  (-0.0575141 0.031182 0)
  (-0.0610358 0.0139907 0)
  (-0.0614537 0.00782317 0)
  (-0.0598579 0.00419211 0)
  (-0.0572494 0.0010453 0)
  (-0.0544416 -0.00187326 0)
  (-0.0522645 -0.00434448 0)
  (-0.050831 -0.00624325 0)
  (-0.0501848 -0.00744571 0)
  (-0.0503861 -0.00793115 0)
  (-0.0516587 -0.0078114 0)
  (-0.0544008 -0.0074532 0)
  (-0.059028 -0.00758494 0)
  (-0.0658042 -0.00912209 0)
  (-0.0744888 -0.0128394 0)
  (-0.0843616 -0.0193803 0)
  (-0.0944898 -0.0294963 0)
  (-0.103499 -0.0438264 0)
  (-0.10827 -0.0599874 0)
  (-0.102846 -0.0637096 0)
  (-0.0871614 -0.0163697 0)
  (-0.147003 0.160337 0)
  (0.226337 -0.504989 0)
  (-0.315167 -0.320275 0)
  (-0.302747 -0.191243 0)
  (-0.192984 -0.0615379 0)
  (-0.26172 -0.104547 0)
  (-0.233636 -0.0870976 0)
  (-0.224263 -0.0556316 0)
  (-0.217639 -0.0177006 0)
  (-0.210853 0.0239361 0)
  (-0.204578 0.0679642 0)
  (-0.196399 0.114836 0)
  (-0.185658 0.164546 0)
  (-0.172021 0.215618 0)
  (-0.155245 0.263467 0)
  (-0.133196 0.296779 0)
  (-0.110208 0.290029 0)
  (-0.0806867 0.223127 0)
  (-0.0620989 0.0866159 0)
  (-0.052122 0.0308927 0)
  (-0.0506965 0.0132585 0)
  (-0.0471164 0.00555257 0)
  (-0.0422657 0.000942878 0)
  (-0.0374731 -0.00215367 0)
  (-0.0339404 -0.00423507 0)
  (-0.0316376 -0.00567862 0)
  (-0.0304743 -0.00658216 0)
  (-0.0302602 -0.0068284 0)
  (-0.0308786 -0.00622917 0)
  (-0.0324313 -0.00463611 0)
  (-0.035326 -0.00207999 0)
  (-0.0400506 0.0010772 0)
  (-0.0483103 0.00376382 0)
  (-0.0620421 0.00398722 0)
  (-0.0825988 -0.000726158 0)
  (-0.110153 -0.0120062 0)
  (-0.142427 -0.0290488 0)
  (-0.174808 -0.0485614 0)
  (-0.205904 -0.0658062 0)
  (-0.256463 -0.0731587 0)
  (-0.466951 -0.0577156 0)
  (-0.0216229 -0.363873 0)
  (-0.632423 -0.319785 0)
  (-0.830775 -0.31254 0)
  (-0.244793 -0.178529 0)
  (-0.358167 -0.143406 0)
  (-0.308712 -0.104367 0)
  (-0.297343 -0.0646827 0)
  (-0.292305 -0.0255806 0)
  (-0.28632 0.0150493 0)
  (-0.276975 0.0577736 0)
  (-0.262765 0.101807 0)
  (-0.242578 0.147558 0)
  (-0.215976 0.193934 0)
  (-0.183211 0.236645 0)
  (-0.145124 0.26494 0)
  (-0.106727 0.256605 0)
  (-0.0684344 0.190851 0)
  (-0.0397284 0.0728649 0)
  (-0.0285389 0.026282 0)
  (-0.0242336 0.0100613 0)
  (-0.0169178 0.00246547 0)
  (-0.0100704 -0.00145306 0)
  (-0.00526104 -0.00315141 0)
  (-0.00213459 -0.00380253 0)
  (-0.000481129 -0.0040823 0)
  (3.79803e-05 -0.0041504 0)
  (-0.000201424 -0.00385236 0)
  (-0.000855646 -0.00289049 0)
  (-0.00164893 -0.000958033 0)
  (-0.00238144 0.0021312 0)
  (-0.00275557 0.00645235 0)
  (-0.00320445 0.0117603 0)
  (-0.0039726 0.0167438 0)
  (-0.00531046 0.0193262 0)
  (-0.00697841 0.0175018 0)
  (-0.00981808 0.0101479 0)
  (-0.0128575 -0.00162357 0)
  (-0.00118482 -0.0192965 0)
  (0.0286956 -0.0858018 0)
  (-0.374693 -0.186857 0)
  (-1.78601 -0.332558 0)
  (-0.131788 -0.288637 0)
  (-0.345407 -0.174042 0)
  (-0.33337 -0.107005 0)
  (-0.337821 -0.0541441 0)
  (-0.340234 -0.0103949 0)
  (-0.336744 0.0258008 0)
  (-0.32608 0.0568816 0)
  (-0.306963 0.0895091 0)
  (-0.27787 0.124165 0)
  (-0.238439 0.160091 0)
  (-0.189739 0.194035 0)
  (-0.13502 0.217181 0)
  (-0.0811713 0.211152 0)
  (-0.0313227 0.156557 0)
  (0.0153902 0.052081 0)
  (0.0243134 0.0191366 0)
  (0.0284642 0.00538495 0)
  (0.033798 -0.00309642 0)
  (0.0364306 -0.0060425 0)
  (0.0376636 -0.00614266 0)
  (0.0380278 -0.00529347 0)
  (0.0377872 -0.00434268 0)
  (0.0371177 -0.0034628 0)
  (0.0361771 -0.00247548 0)
  (0.0351711 -0.00105313 0)
  (0.034407 0.00115222 0)
  (0.0343246 0.00433855 0)
  (0.035221 0.00802133 0)
  (0.0375107 0.0121035 0)
  (0.0412003 0.0154225 0)
  (0.0460599 0.0158121 0)
  (0.0516169 0.0111691 0)
  (0.0578567 0.000187305 0)
  (0.06225 -0.0146698 0)
  (0.0695863 -0.0317346 0)
  (0.106341 -0.068585 0)
  (-0.0811819 -0.132745 0)
  (-0.196974 0.0601932 0)
  (-0.0715974 -0.252463 0)
  (-0.259412 -0.172371 0)
  (-0.317369 -0.138479 0)
  (-0.354147 -0.113927 0)
  (-0.372404 -0.0888656 0)
  (-0.374875 -0.0587151 0)
  (-0.363058 -0.0217704 0)
  (-0.338733 0.0118316 0)
  (-0.300578 0.0443742 0)
  (-0.248231 0.0770538 0)
  (-0.18337 0.109105 0)
  (-0.110979 0.134526 0)
  (-0.0380998 0.134663 0)
  (0.0422277 0.0705472 0)
  (0.0907638 -0.00521963 0)
  (0.104178 -0.0478298 0)
  (0.104302 -0.0720131 0)
  (0.0991797 -0.0799123 0)
  (0.093025 -0.0800965 0)
  (0.0875985 -0.0773556 0)
  (0.0833626 -0.0740888 0)
  (0.0801442 -0.0712371 0)
  (0.0776048 -0.0689969 0)
  (0.0754791 -0.0672389 0)
  (0.0736846 -0.0657163 0)
  (0.0723687 -0.0641582 0)
  (0.0719588 -0.0622443 0)
  (0.0726295 -0.0587927 0)
  (0.074801 -0.0535705 0)
  (0.0786665 -0.048995 0)
  (0.0837523 -0.0478984 0)
  (0.0889509 -0.0514994 0)
  (0.0920835 -0.0562004 0)
  (0.0906567 -0.0613478 0)
  (0.0832042 -0.066842 0)
  (0.108988 -0.0783028 0)
  (-0.1332 -0.0914914 0)
  (0.641271 0.2148 0)
  (0.174235 -0.259859 0)
  (-0.205007 0.21451 0)
  (-0.0906048 0.0940916 0)
  (-0.231347 0.133416 0)
  (-0.29701 0.156569 0)
  (-0.342204 0.168019 0)
  (-0.368619 0.172053 0)
  (-0.377787 0.170185 0)
  (-0.369201 0.164001 0)
  (-0.342564 0.163662 0)
  (-0.297601 0.167933 0)
  (-0.234268 0.176506 0)
  (-0.156254 0.189342 0)
  (-0.0741461 0.204704 0)
  (0.0454449 0.206768 0)
  (0.118275 0.19248 0)
  (0.163066 0.19415 0)
  (0.178317 0.205416 0)
  (0.177393 0.216356 0)
  (0.170575 0.218147 0)
  (0.163508 0.214701 0)
  (0.156954 0.209522 0)
  (0.150685 0.204647 0)
  (0.144661 0.200948 0)
  (0.138991 0.198584 0)
  (0.13381 0.197322 0)
  (0.129263 0.196734 0)
  (0.125524 0.19634 0)
  (0.122819 0.195653 0)
  (0.121332 0.193159 0)
  (0.121282 0.187839 0)
  (0.122667 0.181605 0)
  (0.124451 0.176697 0)
  (0.124539 0.173855 0)
  (0.120131 0.168938 0)
  (0.109265 0.162357 0)
  (0.088667 0.154966 0)
  (0.125056 0.139477 0)
  (-0.273518 0.178252 0)
)
;

boundaryField
{
  floor
  {
    type noSlip;
  }
  ceiling
  {
    type noSlip;
  }
  sWall
  {
    type noSlip;
  }
  nWall
  {
    type noSlip;
  }
  sideWalls
  {
    type empty;
  }
  glass1
  {
    type noSlip;
  }
  glass2
  {
    type noSlip;
  }
  sun
  {
    type noSlip;
  }
  heatsource1
  {
    type noSlip;
  }
  heatsource2
  {
    type noSlip;
  }
  Table_master
  {
    type noSlip;
  }
  Table_slave
  {
    type noSlip;
  }
  inlet
  {
    type fixedValue;
    value uniform (0.1 0 0);
  }
  outlet
  {
    type zeroGradient;
  }
} 	// ************************************************************************* //

