// -*- C++ -*-
// File generated by PyFoam - sorry for the ugliness

FoamFile
{
 version 2.0;
 format ascii;
 class volScalarField;
 location "60";
 object T;
}

dimensions [ 0 0 0 1 0 0 0 ];

internalField nonuniform List<scalar> 459
(
  302.846
  302.677
  302.727
  302.787
  302.835
  302.871
  302.898
  302.918
  302.939
  302.96
  302.981
  303.002
  303.024
  303.047
  303.072
  304.727
  304.449
  304.196
  304.178
  304.26
  304.382
  304.538
  304.701
  304.85
  304.974
  305.064
  305.12
  305.149
  305.16
  305.161
  305.159
  305.156
  305.148
  305.114
  302.691
  302.63
  302.728
  302.879
  302.991
  303.065
  303.112
  303.144
  303.169
  303.186
  303.196
  303.198
  303.19
  303.172
  303.145
  303.172
  303.223
  304.672
  304.192
  303.965
  303.943
  304.01
  304.139
  304.343
  304.585
  304.807
  304.982
  305.105
  305.183
  305.229
  305.252
  305.258
  305.249
  305.229
  305.203
  305.202
  302.546
  302.564
  302.756
  303.056
  303.255
  303.367
  303.423
  303.452
  303.457
  303.446
  303.425
  303.394
  303.356
  303.309
  303.258
  303.244
  303.258
  304.448
  303.856
  303.783
  303.812
  303.892
  304.006
  304.222
  304.563
  304.863
  305.056
  305.171
  305.239
  305.277
  305.298
  305.305
  305.296
  305.272
  305.243
  305.236
  302.499
  302.526
  302.804
  303.314
  303.599
  303.726
  303.765
  303.756
  303.719
  303.671
  303.619
  303.563
  303.502
  303.438
  303.37
  303.327
  303.305
  303.335
  303.496
  303.565
  303.662
  303.776
  303.89
  303.993
  304.076
  304.172
  304.317
  304.531
  304.819
  305.115
  305.291
  305.34
  305.34
  305.307
  305.286
  305.263
  305.255
  302.458
  302.481
  302.807
  303.577
  303.917
  304.018
  304.015
  303.964
  303.9
  303.832
  303.765
  303.696
  303.627
  303.555
  303.484
  303.431
  303.402
  303.427
  303.502
  303.618
  303.758
  303.903
  304.034
  304.145
  304.247
  304.377
  304.557
  304.796
  305.057
  305.248
  305.326
  305.341
  305.337
  305.317
  305.298
  305.281
  305.27
  305.281
  305.315
  305.353
  302.408
  302.419
  302.742
  303.711
  304.099
  304.177
  304.153
  304.093
  304.023
  303.953
  303.882
  303.81
  303.741
  303.672
  303.608
  303.564
  303.55
  303.597
  303.703
  303.842
  303.996
  304.146
  304.278
  304.393
  304.518
  304.664
  304.846
  305.053
  305.22
  305.308
  305.337
  305.341
  305.336
  305.326
  305.313
  305.302
  305.29
  305.297
  305.327
  305.362
  302.33
  302.278
  302.535
  303.687
  304.173
  304.268
  304.245
  304.188
  304.122
  304.056
  303.992
  303.929
  303.869
  303.81
  303.766
  303.748
  303.771
  303.857
  303.991
  304.143
  304.3
  304.444
  304.57
  304.701
  304.826
  304.944
  305.077
  305.201
  305.287
  305.327
  305.338
  305.339
  305.337
  305.332
  305.325
  305.318
  305.307
  305.31
  305.337
  305.373
  302.184
  302.073
  302.145
  303.545
  304.21
  304.345
  304.334
  304.286
  304.229
  304.174
  304.123
  304.077
  304.037
  304.006
  303.993
  304.014
  304.083
  304.203
  304.343
  304.488
  304.634
  304.765
  304.876
  304.965
  305.044
  305.127
  305.208
  305.275
  305.315
  305.333
  305.337
  305.337
  305.336
  305.334
  305.331
  305.327
  305.32
  305.322
  305.343
  305.39
  302.244
  301.953
  301.64
  303.311
  304.244
  304.43
  304.441
  304.412
  304.376
  304.34
  304.311
  304.291
  304.281
  304.287
  304.315
  304.375
  304.471
  304.595
  304.718
  304.833
  304.937
  305.021
  305.082
  305.134
  305.185
  305.233
  305.277
  305.308
  305.326
  305.332
  305.334
  305.334
  305.333
  305.333
  305.333
  305.332
  305.33
  305.333
  305.348
  305.389
  301.25
  303.043
  304.324
  304.54
  304.571
  304.567
  304.558
  304.552
  304.553
  304.562
  304.584
  304.62
  304.673
  304.745
  304.83
  304.921
  305.004
  305.073
  305.128
  305.171
  305.205
  305.235
  305.262
  305.287
  305.307
  305.32
  305.326
  305.328
  305.328
  305.328
  305.329
  305.33
  305.331
  305.333
  305.336
  305.34
  305.352
  305.373
  304.256
  304.42
  304.61
  304.681
  304.704
  304.715
  304.727
  304.745
  304.769
  304.799
  304.837
  304.883
  304.936
  304.994
  305.053
  305.109
  305.157
  305.195
  305.225
  305.248
  305.267
  305.283
  305.297
  305.308
  305.316
  305.32
  305.322
  305.322
  305.321
  305.322
  305.323
  305.325
  305.328
  305.332
  305.336
  305.342
  305.351
  305.363
  304.771
  304.75
  304.728
  304.75
  304.789
  304.815
  304.838
  304.863
  304.891
  304.923
  304.958
  304.995
  305.033
  305.072
  305.111
  305.148
  305.181
  305.21
  305.234
  305.252
  305.267
  305.278
  305.287
  305.293
  305.298
  305.302
  305.303
  305.303
  305.302
  305.3
  305.3
  305.3
  305.302
  305.305
  305.309
  305.315
  305.321
  305.328
  305.335
  305.342
)
;

boundaryField
{
  floor
  {
    type wallHeatTransfer;
    Tinf uniform 299.755;
    alphaWall uniform 0.24;
    value nonuniform List<scalar> 29
(
  302.653
  304.009
  303.853
  303.67
  303.648
  303.706
  303.791
  303.891
  303.988
  304.061
  304.1
  304.096
  304.051
  303.976
  303.892
  303.816
  303.764
  303.78
  303.929
  304.151
  304.151
  304.31
  304.39
  304.485
  302.653
  304.009
  304.062
  303.877
  302.894
)
;
  }
  ceiling
  {
    type wallHeatTransfer;
    Tinf uniform 299.755;
    alphaWall uniform 0.24;
    value nonuniform List<scalar> 43
(
  304.337
  304.339
  304.357
  304.397
  304.434
  304.457
  304.477
  304.499
  304.525
  304.554
  304.587
  304.622
  304.658
  304.695
  304.732
  304.765
  304.795
  304.82
  304.839
  304.854
  304.864
  304.873
  304.88
  304.887
  304.894
  304.901
  304.906
  304.911
  304.915
  304.918
  304.92
  304.922
  304.925
  304.928
  304.931
  304.935
  304.942
  304.951
  304.948
  304.899
  302.008
  301.742
  303.997
)
;
  }
  sWall
  {
    type wallHeatTransfer;
    Tinf uniform 303.161;
    alphaWall uniform 0.36;
    value uniform 304.571;
  }
  nWall
  {
    type wallHeatTransfer;
    Tinf uniform 303.145;
    alphaWall uniform 0.36;
    value nonuniform List<scalar> 6
(
  304.989
  305.059
  305.125
  305.169
  305.135
  305.091
)
;
  }
  sideWalls
  {
    type empty;
  }
  glass1
  {
    type wallHeatTransfer;
    Tinf uniform 303.161;
    alphaWall uniform 4.3;
    value nonuniform List<scalar> 9
(
  303.083
  303.028
  302.966
  302.94
  302.917
  302.892
  302.858
  302.807
  302.843
)
;
  }
  glass2
  {
    type wallHeatTransfer;
    Tinf uniform 303.145;
    alphaWall uniform 4.3;
    value nonuniform List<scalar> 2
(
  304.189
  304.241
)
;
  }
  sun
  {
    type wallHeatTransfer;
    Tinf uniform 299.755;
    alphaWall uniform 0.24;
    value nonuniform List<scalar> 14
(
  302.401
  302.367
  302.429
  302.484
  302.524
  302.552
  302.57
  302.583
  302.597
  302.61
  302.623
  302.634
  302.644
  302.651
)
;
  }
  heatsource1
  {
    type fixedGradient;
    gradient uniform 0;
  }
  heatsource2
  {
    type fixedGradient;
    gradient uniform 0;
  }
  Table_master
  {
    type zeroGradient;
  }
  Table_slave
  {
    type zeroGradient;
  }
  inlet
  {
    type fixedValue;
    value uniform 300.15;
  }
  outlet
  {
    type zeroGradient;
  }
} 	// ************************************************************************* //

