/*--------------------------------*- C++ -*----------------------------------*\
  =========                 |
  \\      /  F ield         | OpenFOAM: The Open Source CFD Toolbox
   \\    /   O peration     | Website:  https://openfoam.org
    \\  /    A nd           | Version:  6
     \\/     M anipulation  |
\*---------------------------------------------------------------------------*/
FoamFile
{
    version     2.0;
    format      ascii;
    class       volScalarField;
    location    "400";
    object      alphat;
}
// * * * * * * * * * * * * * * * * * * * * * * * * * * * * * * * * * * * * * //

dimensions      [1 -1 -1 0 0 0 0];

internalField   nonuniform List<scalar> 
459
(
0.00117766
0.00127786
0.00129247
0.00135061
0.00140383
0.00145269
0.00149928
0.00154627
0.0015849
0.00160697
0.00160642
0.00157852
0.00152267
0.00144652
0.00136432
0.000507863
0.000622305
0.000680528
0.000662303
0.000633762
0.000601866
0.0005667
0.000532939
0.000502236
0.000474694
0.000450014
0.000428036
0.000408256
0.000390184
0.000373267
0.000356688
0.000339221
0.000331308
0.00030622
0.00163372
0.00377968
0.00353919
0.00410586
0.00463393
0.0051726
0.00567577
0.00606895
0.00640225
0.00668443
0.00686864
0.0068922
0.00665764
0.00595991
0.00422794
0.00137921
0.000911947
0.000581082
0.00107612
0.00141634
0.00164921
0.00176202
0.00175618
0.00148802
0.00131871
0.00119169
0.00109083
0.00100827
0.000935876
0.000870765
0.000810221
0.000753026
0.000703921
0.000656401
0.000796324
0.000424705
0.00201767
0.00518039
0.00430131
0.00553797
0.00609095
0.00648864
0.00679059
0.00702448
0.00725906
0.0075144
0.00775954
0.00794547
0.00800195
0.00785315
0.00734512
0.00596689
0.00133451
0.00115203
0.00154361
0.00186318
0.00213044
0.00230516
0.00223868
0.000799077
0.000714083
0.000645504
0.000589821
0.000544146
0.000506279
0.000474627
0.000448153
0.000426413
0.000460276
0.000527397
0.000895024
0.000501422
0.00238994
0.00676311
0.00425733
0.00588393
0.00643887
0.00659899
0.00665421
0.00672311
0.00686849
0.00710146
0.00739027
0.00769122
0.00792333
0.00803222
0.00795872
0.00747179
0.00579067
0.00152828
0.00192399
0.00241554
0.00281367
0.00309557
0.00326408
0.00306336
0.000893974
0.000826767
0.000781886
0.000749591
0.000722023
0.000693074
0.000664857
0.00063418
0.000596942
0.000562343
0.000567517
0.00104528
0.000559081
0.00276908
0.0088141
0.00471231
0.00558116
0.00640563
0.00647805
0.00636495
0.00630053
0.00641392
0.00664409
0.00695801
0.00732034
0.00761723
0.00777084
0.00773552
0.00746656
0.00682127
0.00555401
0.00503246
0.00478296
0.00464634
0.00457941
0.00454809
0.00444068
0.00387083
0.00363479
0.00351299
0.00341393
0.00329217
0.00311492
0.00280051
0.00239223
0.00192526
0.00144516
0.00106355
0.00104768
0.000749412
0.000698157
0.000838821
0.000939704
0.00316831
0.0110322
0.00667283
0.00535012
0.00599232
0.00631697
0.00629586
0.00611754
0.00623034
0.00644309
0.00675659
0.0071235
0.00744178
0.00760116
0.00753133
0.00723271
0.00677154
0.00625471
0.00590569
0.00567039
0.00549298
0.00536436
0.00525917
0.00513228
0.00492832
0.00475311
0.00459487
0.00443373
0.00425866
0.00406205
0.00379175
0.00340295
0.00289538
0.00229733
0.00173737
0.00126208
0.00100152
0.000876494
0.00126668
0.000981303
0.00354047
0.0126412
0.00973536
0.00695037
0.00628032
0.00634784
0.0064016
0.00631667
0.00631018
0.0064584
0.00676531
0.00715105
0.00748225
0.00762361
0.00749337
0.00711184
0.00661761
0.00621676
0.00601335
0.00588343
0.00571989
0.00550569
0.00525845
0.00501662
0.00480497
0.00463346
0.00447962
0.00433
0.00418248
0.00404153
0.00390838
0.00367999
0.00329134
0.00277662
0.00226044
0.00177128
0.00144874
0.00137087
0.00143158
0.0011164
0.00361617
0.0115207
0.0100494
0.0089972
0.00814286
0.0076018
0.00701356
0.00656586
0.00642182
0.00658662
0.0069648
0.0074005
0.0077216
0.00778371
0.00751941
0.00699106
0.00640613
0.00603627
0.00591236
0.00568114
0.00531828
0.00491955
0.00457336
0.00431843
0.00414291
0.00401494
0.0039091
0.00381788
0.00374538
0.0037018
0.00369911
0.00371674
0.00352812
0.00317995
0.00286871
0.00272805
0.00289927
0.00343578
0.00426974
0.00174609
0.00352154
0.00420162
0.00472664
0.00495863
0.00508518
0.00511944
0.00524967
0.00558663
0.00613112
0.00680232
0.00745771
0.00794059
0.00812333
0.00792379
0.00734555
0.00657099
0.00597429
0.00559604
0.00524686
0.00477433
0.00427564
0.00387445
0.00360306
0.00343213
0.00332031
0.00323624
0.00316218
0.00308993
0.00301497
0.00293339
0.00284181
0.00273958
0.00265284
0.00259009
0.00257713
0.00260424
0.00259846
0.00249343
0.00232682
0.0016296
0.0020559
0.00390682
0.00513422
0.00602771
0.00687007
0.00761944
0.00824814
0.00869123
0.00886562
0.00871392
0.00823283
0.00742632
0.00638027
0.00544316
0.00485122
0.00438183
0.00386366
0.00336396
0.0029982
0.00277323
0.00264509
0.00257231
0.00252867
0.00249987
0.00247898
0.00246318
0.00245217
0.00244777
0.00245402
0.00248196
0.00251712
0.00255791
0.00259743
0.00260666
0.00253785
0.00237586
0.00213429
0.00133681
0.00246473
0.00531627
0.00710482
0.00780041
0.00841727
0.00886832
0.00894066
0.00877327
0.00822609
0.00729559
0.00616941
0.00507174
0.00418142
0.00352997
0.00302131
0.00255984
0.00220926
0.00200123
0.00188569
0.00183209
0.00181855
0.00183038
0.00186037
0.00190517
0.00196318
0.00203312
0.00211286
0.00219817
0.00229111
0.00239591
0.00251036
0.00262794
0.00273226
0.00280522
0.00279015
0.00281645
0.00275204
0.0013576
0.00213187
0.00225552
0.00234557
0.00246653
0.00232679
0.0021697
0.00202782
0.00188872
0.00176215
0.00161829
0.00145224
0.00126374
0.00106761
0.00088814
0.000746884
0.000652864
0.000600831
0.000578718
0.000575625
0.000584089
0.000599826
0.000620056
0.000643544
0.000670004
0.000699375
0.000731741
0.000767319
0.000806526
0.000850112
0.000899436
0.000955233
0.00101657
0.00108419
0.00115887
0.00124065
0.00134112
0.00137098
0.00133636
0.00125179
0.00116031
)
;

boundaryField
{
    floor
    {
        type            compressible::alphatWallFunction;
        Prt             0.85;
        value           nonuniform List<scalar> 
29
(
0.000192652
7.04454e-05
8.7709e-05
9.63385e-05
9.36474e-05
8.94148e-05
8.46568e-05
7.93747e-05
7.42654e-05
6.95838e-05
6.53534e-05
6.15364e-05
5.81148e-05
5.50161e-05
5.21682e-05
4.94868e-05
4.68436e-05
4.40414e-05
4.2766e-05
3.86954e-05
3.86948e-05
5.75937e-05
6.9458e-05
7.82237e-05
0.00019265
7.04445e-05
8.15371e-05
0.00016353
0.000214793
)
;
    }
    ceiling
    {
        type            compressible::alphatWallFunction;
        Prt             0.85;
        value           nonuniform List<scalar> 
43
(
0.000294141
0.000310085
0.000321641
0.000337197
0.000319387
0.000299202
0.000280832
0.000262682
0.000246033
0.000226948
0.00020468
0.000179045
0.000151904
0.000126557
0.00010618
9.23629e-05
8.46128e-05
8.12943e-05
8.0829e-05
8.21019e-05
8.44624e-05
8.74859e-05
9.09812e-05
9.49e-05
9.9228e-05
0.000103972
0.000109157
0.000114838
0.000121116
0.000128173
0.000136102
0.000144757
0.000154227
0.000164606
0.000175886
0.00018963
0.00019369
0.000188982
0.000177417
0.00016481
0.000469219
0.000551911
0.00033673
)
;
    }
    sWall
    {
        type            compressible::alphatWallFunction;
        Prt             0.85;
        value           uniform 0.000292926;
    }
    nWall
    {
        type            compressible::alphatWallFunction;
        Prt             0.85;
        value           nonuniform List<scalar> 6(0.000133574 0.000139455 0.000158371 0.00018871 0.000191536 0.00016448);
    }
    sideWalls
    {
        type            empty;
    }
    glass1
    {
        type            compressible::alphatWallFunction;
        Prt             0.85;
        value           nonuniform List<scalar> 9(0.000162931 0.000223892 0.000273879 0.000321461 0.000369183 0.000418745 0.000464411 0.00047377 0.000462455);
    }
    glass2
    {
        type            compressible::alphatWallFunction;
        Prt             0.85;
        value           nonuniform List<scalar> 2(0.00024212 0.00022679);
    }
    sun
    {
        type            compressible::alphatWallFunction;
        Prt             0.85;
        value           nonuniform List<scalar> 
14
(
0.000167099
0.000180867
0.000182864
0.000190795
0.00019802
0.000204626
0.000210902
0.000217211
0.00022238
0.000225326
0.000225252
0.000221524
0.000214041
0.000203788
)
;
    }
    heatsource1
    {
        type            compressible::alphatWallFunction;
        Prt             0.85;
        value           nonuniform List<scalar> 3(9.90473e-05 0.00011949 0.000133898);
    }
    heatsource2
    {
        type            compressible::alphatWallFunction;
        Prt             0.85;
        value           nonuniform List<scalar> 4(0.000194803 0.000129951 0.00012995 0.000188721);
    }
    Table_master
    {
        type            compressible::alphatWallFunction;
        Prt             0.85;
        value           nonuniform List<scalar> 9(0.000113757 0.000101383 9.12689e-05 8.29598e-05 7.60719e-05 7.03068e-05 6.54461e-05 6.13491e-05 5.79619e-05);
    }
    Table_slave
    {
        type            compressible::alphatWallFunction;
        Prt             0.85;
        value           nonuniform List<scalar> 9(0.000127392 0.000117757 0.00011127 0.000106576 0.000102549 9.83001e-05 9.41381e-05 8.95888e-05 8.40299e-05);
    }
    inlet
    {
        type            fixedValue;
        value           uniform 1.94e-05;
    }
    outlet
    {
        type            zeroGradient;
    }
}


// ************************************************************************* //
