/*--------------------------------*- C++ -*----------------------------------*\
  =========                 |
  \\      /  F ield         | OpenFOAM: The Open Source CFD Toolbox
   \\    /   O peration     | Website:  https://openfoam.org
    \\  /    A nd           | Version:  6
     \\/     M anipulation  |
\*---------------------------------------------------------------------------*/
FoamFile
{
    version     2.0;
    format      ascii;
    class       volScalarField;
    location    "400";
    object      epsilon;
}
// * * * * * * * * * * * * * * * * * * * * * * * * * * * * * * * * * * * * * //

dimensions      [0 2 -3 0 0 0 0];

internalField   nonuniform List<scalar> 
459
(
0.000369753
0.000471162
0.000487447
0.000556222
0.000624583
0.000692075
0.000760794
0.000834568
0.000898636
0.000936602
0.000935527
0.000887514
0.000796505
0.000682815
0.000572863
2.95603e-05
5.43758e-05
7.11074e-05
6.5546e-05
5.74326e-05
4.91904e-05
4.1062e-05
3.41517e-05
2.85827e-05
2.41335e-05
2.05615e-05
1.76935e-05
1.53521e-05
1.34022e-05
1.17334e-05
1.02382e-05
8.80642e-06
8.20443e-06
6.47901e-06
0.000989014
0.00150816
0.00044528
0.000423588
0.000438112
0.00046232
0.000497919
0.000549437
0.000608109
0.000656634
0.000676745
0.000655747
0.000593159
0.000508829
0.000460421
0.000591749
0.000171036
4.42749e-05
9.31004e-05
8.99945e-05
7.75078e-05
6.35718e-05
5.18081e-05
4.50017e-05
3.67962e-05
2.97335e-05
2.40748e-05
1.9626e-05
1.61648e-05
1.34616e-05
1.13584e-05
9.84187e-06
8.99028e-06
8.72989e-06
2.68183e-05
1.72842e-05
0.00186664
0.00390099
0.000578928
0.000406857
0.000415831
0.000453962
0.000511651
0.000590492
0.000679648
0.000753076
0.000787559
0.000771991
0.000708904
0.000617395
0.000529591
0.000482583
0.00053609
0.000344971
0.000214653
0.000147936
0.000107274
8.11455e-05
6.6158e-05
0.000115131
8.21585e-05
6.06853e-05
4.62942e-05
3.6349e-05
2.92751e-05
2.41194e-05
2.03035e-05
1.74892e-05
1.35811e-05
1.16772e-05
5.12739e-05
2.84446e-05
0.00310824
0.00827491
0.000970986
0.000417421
0.000403973
0.000455656
0.000539025
0.0006592
0.00078887
0.00088193
0.000917844
0.000893961
0.000818153
0.000710904
0.00059033
0.000496355
0.000456619
0.000805343
0.00043495
0.000247573
0.00015918
0.000111508
8.36833e-05
7.13379e-05
0.000161266
0.000127564
0.000107899
9.50762e-05
8.49686e-05
7.51528e-05
6.6342e-05
5.75756e-05
4.8016e-05
2.92142e-05
1.96136e-05
8.57621e-05
3.94312e-05
0.0048436
0.0148402
0.00199617
0.000508908
0.000409688
0.000463121
0.000584724
0.000797938
0.000980018
0.00107693
0.00109576
0.00104691
0.000943179
0.000803133
0.000646704
0.000498236
0.000376352
0.000306583
0.000230339
0.000169041
0.000124639
9.45824e-05
7.52386e-05
6.46396e-05
6.49342e-05
6.34885e-05
6.18596e-05
5.9816e-05
5.67064e-05
5.20987e-05
4.70702e-05
4.22962e-05
3.79821e-05
3.12669e-05
2.45978e-05
5.95677e-05
4.60722e-05
7.68328e-05
0.000133308
0.000187439
0.00726716
0.0219835
0.00456636
0.0010102
0.000604874
0.000598242
0.000779184
0.00115169
0.00133083
0.00137941
0.00134738
0.00125585
0.00111305
0.000929628
0.000726191
0.000530734
0.000369692
0.000259381
0.000188861
0.00014017
0.00010541
8.26185e-05
6.94026e-05
6.3621e-05
6.37308e-05
6.63429e-05
6.91916e-05
7.09461e-05
7.04316e-05
6.64334e-05
5.84619e-05
4.97829e-05
4.18857e-05
3.49616e-05
3.06299e-05
4.3448e-05
4.64488e-05
5.78076e-05
0.000246528
0.000213389
0.0101557
0.0262125
0.00959759
0.00346585
0.00205226
0.00164792
0.00183137
0.00196051
0.00194143
0.00184392
0.00170797
0.00153805
0.00132788
0.00108084
0.000818163
0.000572344
0.000374285
0.000241312
0.000162302
0.000116168
8.82712e-05
7.30116e-05
6.6816e-05
6.70746e-05
7.18411e-05
7.88758e-05
8.64309e-05
9.35171e-05
9.89402e-05
0.000100652
9.5053e-05
8.2656e-05
7.05871e-05
6.07694e-05
5.69795e-05
6.5071e-05
8.46445e-05
0.000139057
0.000327894
0.000314189
0.0108449
0.0292532
0.0159667
0.0104904
0.00722111
0.00532951
0.00419908
0.00340704
0.00286318
0.00247847
0.00217235
0.00188162
0.00156962
0.0012306
0.000889728
0.000584552
0.000347872
0.00020184
0.00012307
8.92795e-05
7.33871e-05
6.74381e-05
6.8011e-05
7.31624e-05
8.16706e-05
9.26053e-05
0.000105475
0.000120278
0.000137105
0.00015569
0.000174685
0.000185905
0.000192614
0.000211829
0.00025479
0.000388538
0.000734016
0.00141477
0.00415457
0.00120402
0.0100465
0.0170156
0.0136653
0.0103256
0.00784315
0.00609359
0.00487483
0.00405079
0.00348088
0.0030422
0.00264097
0.00222207
0.00176965
0.00129816
0.000858106
0.000495309
0.000237812
0.000131771
8.68683e-05
6.85449e-05
6.21229e-05
6.23154e-05
6.67746e-05
7.43989e-05
8.4755e-05
9.78219e-05
0.000114
0.000134186
0.000159818
0.000192984
0.000236532
0.000294106
0.00037241
0.000490268
0.00066503
0.000901845
0.00117034
0.00140008
0.0015748
0.000980174
0.00443679
0.00665072
0.00646797
0.00594989
0.00542027
0.00483299
0.00421056
0.00356425
0.00289864
0.00222982
0.00158359
0.000957856
0.000476797
0.000230516
0.000115777
7.14905e-05
5.45942e-05
4.89302e-05
4.87538e-05
5.17659e-05
5.69981e-05
6.41175e-05
7.31412e-05
8.43386e-05
9.82501e-05
0.000115767
0.000138266
0.000167832
0.000207632
0.000263063
0.000339543
0.000444442
0.000581299
0.000736632
0.000867788
0.000918953
0.000854049
0.000540955
0.0031976
0.00643404
0.00647824
0.005366
0.00466825
0.00413921
0.00347884
0.00267228
0.00184411
0.00116449
0.000666188
0.000342629
0.000168477
8.70931e-05
5.2831e-05
4.05686e-05
3.73835e-05
3.82008e-05
4.10326e-05
4.52809e-05
5.0795e-05
5.76487e-05
6.60677e-05
7.64245e-05
8.92871e-05
0.000105519
0.000126439
0.000154046
0.000191274
0.000241723
0.000310384
0.000402213
0.00051765
0.000648454
0.000744564
0.000841338
0.000767469
0.000566516
0.00211362
0.0025013
0.00281288
0.00332431
0.00281061
0.0022878
0.00187286
0.00151642
0.00123329
0.000956241
0.000691595
0.000455967
0.000275015
0.000158368
9.41998e-05
6.2921e-05
4.90461e-05
4.38289e-05
4.31311e-05
4.50632e-05
4.8806e-05
5.39146e-05
6.02787e-05
6.80263e-05
7.73733e-05
8.86231e-05
0.000102192
0.000118675
0.000138978
0.000164605
0.000197185
0.000237672
0.000288336
0.000352128
0.000432088
0.000545865
0.000583183
0.00054014
0.000443943
0.000353681
)
;

boundaryField
{
    floor
    {
        Cmu             0.09;
        kappa           0.41;
        E               9.8;
        type            epsilonWallFunction;
        value           nonuniform List<scalar> 
29
(
0.000572863
2.95603e-05
5.43758e-05
7.11074e-05
6.5546e-05
5.74326e-05
4.91904e-05
4.1062e-05
3.41517e-05
2.85827e-05
2.41335e-05
2.05615e-05
1.76935e-05
1.53521e-05
1.34022e-05
1.17334e-05
1.02382e-05
8.80642e-06
8.20443e-06
6.47901e-06
6.47901e-06
1.72842e-05
2.84446e-05
3.94312e-05
0.000572863
2.95603e-05
4.42749e-05
0.000344971
0.000805343
)
;
    }
    ceiling
    {
        Cmu             0.09;
        kappa           0.41;
        E               9.8;
        type            epsilonWallFunction;
        value           nonuniform List<scalar> 
43
(
0.00211362
0.0025013
0.00281288
0.00332431
0.00281061
0.0022878
0.00187286
0.00151642
0.00123329
0.000956241
0.000691595
0.000455967
0.000275015
0.000158368
9.41998e-05
6.2921e-05
4.90461e-05
4.38289e-05
4.31311e-05
4.50632e-05
4.8806e-05
5.39146e-05
6.02787e-05
6.80263e-05
7.73733e-05
8.86231e-05
0.000102192
0.000118675
0.000138978
0.000164605
0.000197185
0.000237672
0.000288336
0.000352128
0.000432088
0.000545865
0.000583183
0.00054014
0.000443943
0.000353681
0.0100465
0.0170156
0.0031976
)
;
    }
    sWall
    {
        Cmu             0.09;
        kappa           0.41;
        E               9.8;
        type            epsilonWallFunction;
        value           uniform 0.00211362;
    }
    nWall
    {
        Cmu             0.09;
        kappa           0.41;
        E               9.8;
        type            epsilonWallFunction;
        value           nonuniform List<scalar> 6(0.000187439 0.000213389 0.000314189 0.000540955 0.000566516 0.000353681);
    }
    sideWalls
    {
        type            empty;
    }
    glass1
    {
        Cmu             0.09;
        kappa           0.41;
        E               9.8;
        type            epsilonWallFunction;
        value           nonuniform List<scalar> 9(0.000369753 0.000989014 0.00186664 0.00310824 0.0048436 0.00726716 0.0101557 0.0108449 0.0100465);
    }
    glass2
    {
        Cmu             0.09;
        kappa           0.41;
        E               9.8;
        type            epsilonWallFunction;
        value           nonuniform List<scalar> 2(0.00120402 0.000980174);
    }
    sun
    {
        Cmu             0.09;
        kappa           0.41;
        E               9.8;
        type            epsilonWallFunction;
        value           nonuniform List<scalar> 
14
(
0.000369753
0.000471162
0.000487447
0.000556222
0.000624583
0.000692075
0.000760794
0.000834568
0.000898636
0.000936602
0.000935527
0.000887514
0.000796505
0.000682815
)
;
    }
    heatsource1
    {
        Cmu             0.09;
        kappa           0.41;
        E               9.8;
        type            epsilonWallFunction;
        value           nonuniform List<scalar> 3(7.68328e-05 0.000133308 0.000187439);
    }
    heatsource2
    {
        Cmu             0.09;
        kappa           0.41;
        E               9.8;
        type            epsilonWallFunction;
        value           nonuniform List<scalar> 4(0.000591749 0.000171036 0.000171036 0.00053609);
    }
    Table_master
    {
        Cmu             0.09;
        kappa           0.41;
        E               9.8;
        type            epsilonWallFunction;
        value           nonuniform List<scalar> 9(0.000115131 8.21585e-05 6.06853e-05 4.62942e-05 3.6349e-05 2.92751e-05 2.41194e-05 2.03035e-05 1.74892e-05);
    }
    Table_slave
    {
        Cmu             0.09;
        kappa           0.41;
        E               9.8;
        type            epsilonWallFunction;
        value           nonuniform List<scalar> 9(0.000161266 0.000127564 0.000107899 9.50762e-05 8.49686e-05 7.51528e-05 6.6342e-05 5.75756e-05 4.8016e-05);
    }
    inlet
    {
        type            turbulentMixingLengthDissipationRateInlet;
        mixingLength    0.01;
        phi             phi;
        k               k;
        value           uniform 0.000101881;
    }
    outlet
    {
        type            zeroGradient;
    }
}


// ************************************************************************* //
