/*--------------------------------*- C++ -*----------------------------------*\
  =========                 |
  \\      /  F ield         | OpenFOAM: The Open Source CFD Toolbox
   \\    /   O peration     | Website:  https://openfoam.org
    \\  /    A nd           | Version:  6
     \\/     M anipulation  |
\*---------------------------------------------------------------------------*/
FoamFile
{
    version     2.0;
    format      ascii;
    class       volScalarField;
    location    "160";
    object      alphat;
}
// * * * * * * * * * * * * * * * * * * * * * * * * * * * * * * * * * * * * * //

dimensions      [1 -1 -1 0 0 0 0];

internalField   nonuniform List<scalar> 
459
(
0.00118749
0.00131156
0.00135383
0.00142703
0.00149788
0.00156985
0.00163844
0.00168736
0.00170784
0.00169351
0.00164026
0.00153996
0.00135683
0.00115458
0.000990473
0.000681536
0.000844744
0.000863014
0.000891439
0.000882757
0.000854215
0.000798434
0.00073937
0.000686026
0.000639464
0.000598913
0.000563625
0.000532792
0.000505269
0.000479841
0.000455017
0.00043069
0.000398726
0.000412431
0.00156321
0.00398445
0.00390624
0.00455751
0.00522069
0.00580422
0.00626625
0.00669415
0.00705469
0.00730832
0.00741433
0.00731999
0.00697081
0.00629067
0.00429038
0.00124815
0.000967981
0.00103248
0.0033298
0.00313151
0.00340017
0.00360488
0.00346016
0.00245977
0.00203516
0.00175779
0.0015561
0.00140272
0.0012804
0.00117264
0.0010718
0.000972709
0.00088622
0.000883227
0.000839086
0.000540191
0.00187258
0.00539667
0.00485731
0.00572273
0.006171
0.00651835
0.00683809
0.00721701
0.00765372
0.00810293
0.00849239
0.00870626
0.00864365
0.00825057
0.00710056
0.00464994
0.00122594
0.00109986
0.00314229
0.00358516
0.00418582
0.00461139
0.00423632
0.00111082
0.000958177
0.000839056
0.000746099
0.00067279
0.000614297
0.00056761
0.000530803
0.000503838
0.000577069
0.000760608
0.000983005
0.000605432
0.00216598
0.00667274
0.0049248
0.00587879
0.00605781
0.00617708
0.00637659
0.00670557
0.00718823
0.00776842
0.00834219
0.00872859
0.00891231
0.00885501
0.00838031
0.00697096
0.00379337
0.0014057
0.00213525
0.00301839
0.00415447
0.00516424
0.00576115
0.00523228
0.00123409
0.00111681
0.00103386
0.000971163
0.000919798
0.000873189
0.000830085
0.000785897
0.000735701
0.000704356
0.000773347
0.00112648
0.000685183
0.00246481
0.00828504
0.00529439
0.00584309
0.00595742
0.00593912
0.00605468
0.00633453
0.00684367
0.00747616
0.00809164
0.00855553
0.00881269
0.00887327
0.00871588
0.00812562
0.0068355
0.00590214
0.00613806
0.00665804
0.00717872
0.00754674
0.00767163
0.00736217
0.00602422
0.00537805
0.00500154
0.00474023
0.00451572
0.00426864
0.00389682
0.00340065
0.00278974
0.00215977
0.00166724
0.00155486
0.00112291
0.000759057
0.000733164
0.000684926
0.00278358
0.0100965
0.00692951
0.00616114
0.00632754
0.00609889
0.0060601
0.00625993
0.00675492
0.00743203
0.00809931
0.00858945
0.00883927
0.00889904
0.00886967
0.00878981
0.00863302
0.0087221
0.00899066
0.00919931
0.00926796
0.00917671
0.00893416
0.00853388
0.00794303
0.00743074
0.00701742
0.00666566
0.00633997
0.00600415
0.00559964
0.00508077
0.00444475
0.00372686
0.00302498
0.00249249
0.00193235
0.00148511
0.00157086
0.000810827
0.00307243
0.0113849
0.00945892
0.00768728
0.00712557
0.00648158
0.00618918
0.00635454
0.00691842
0.00769088
0.00842952
0.00894429
0.00918349
0.00924639
0.00932629
0.00955342
0.00985542
0.0101831
0.0103785
0.0103411
0.0101027
0.00971549
0.00923227
0.00870003
0.008163
0.00768547
0.0072706
0.00690101
0.00656117
0.00623334
0.0058929
0.00552056
0.00509454
0.00457895
0.00400208
0.00344106
0.00282875
0.00223123
0.00204284
0.000943582
0.00313213
0.0101154
0.00900091
0.00800304
0.00695769
0.00624005
0.00609679
0.00652452
0.00735664
0.00831554
0.00913118
0.00963861
0.00984939
0.0099171
0.0100301
0.0101953
0.0103597
0.0104726
0.0104325
0.0101882
0.00974436
0.0091892
0.00858794
0.00799946
0.0074688
0.00701308
0.0066197
0.00627221
0.00596091
0.00567657
0.00540119
0.00511958
0.00485946
0.00465587
0.00433227
0.00397838
0.00355088
0.0028532
0.00303048
0.00113675
0.00305571
0.00362704
0.0041297
0.00422896
0.00441763
0.00492987
0.00583936
0.00707933
0.00840134
0.00950058
0.0102162
0.0105228
0.0105718
0.0104097
0.0100792
0.00983236
0.00969981
0.00957675
0.009357
0.00901604
0.0085823
0.00810022
0.00761707
0.00717575
0.00678787
0.00643827
0.00610702
0.00577779
0.00544178
0.00509432
0.00471808
0.00427386
0.00375855
0.00327917
0.00291209
0.00260935
0.00235654
0.00215166
0.00201925
0.00126043
0.00218711
0.00410003
0.00583078
0.00735922
0.00879652
0.0100113
0.0108017
0.0111138
0.011104
0.0106548
0.010086
0.00957316
0.00919894
0.00896282
0.00880702
0.00865611
0.00847037
0.00825417
0.00802974
0.00781675
0.00762172
0.00743858
0.0072507
0.00703312
0.00676999
0.00644506
0.00604502
0.00556772
0.0050258
0.00444402
0.0038815
0.00338356
0.00297999
0.00269065
0.00249612
0.00234928
0.00226995
0.00158328
0.00216267
0.00477703
0.00706583
0.00878786
0.0103315
0.01121
0.0113708
0.0109415
0.010294
0.00968749
0.00921554
0.00890608
0.00873442
0.00865343
0.00862224
0.00861078
0.00859991
0.00858173
0.0085561
0.00852614
0.00849369
0.0084569
0.00840941
0.00833831
0.00822814
0.00805847
0.00780584
0.00744848
0.00697122
0.0063707
0.00569005
0.00498726
0.00432979
0.00376947
0.00332237
0.00299913
0.00379712
0.00183267
0.00164599
0.00178048
0.00193076
0.00205666
0.00218555
0.00231585
0.00238349
0.00237964
0.00233128
0.00226824
0.00219428
0.00213407
0.00209404
0.00207141
0.00206136
0.00205908
0.00206044
0.00206224
0.00206278
0.00206175
0.00205963
0.00205701
0.00205409
0.00205064
0.00204583
0.00203841
0.00202626
0.00200691
0.00197798
0.00193788
0.00188689
0.00182826
0.00176567
0.0017045
0.00164964
0.00160349
0.00156307
0.00152516
0.00158681
0.00153366
)
;

boundaryField
{
    floor
    {
        type            compressible::alphatWallFunction;
        Prt             0.85;
        value           nonuniform List<scalar> 
29
(
0.000141329
9.68272e-05
0.000120589
0.000123216
0.000127286
0.000126047
0.000121959
0.000113921
0.000105335
9.75099e-05
9.06185e-05
8.45663e-05
7.92583e-05
7.45864e-05
7.03872e-05
6.64819e-05
6.26438e-05
5.88561e-05
5.38355e-05
5.59849e-05
5.59842e-05
7.57021e-05
8.5536e-05
9.7381e-05
0.000141327
9.68261e-05
0.000147241
0.000156662
0.000198667
)
;
    }
    ceiling
    {
        type            compressible::alphatWallFunction;
        Prt             0.85;
        value           nonuniform List<scalar> 
43
(
0.000230784
0.0002486
0.000268342
0.000284829
0.000301555
0.000318337
0.000327012
0.000326528
0.000320342
0.000312254
0.000302734
0.000294958
0.000289774
0.00028684
0.000285536
0.00028524
0.000285416
0.000285651
0.00028572
0.000285585
0.00028531
0.000284968
0.000284588
0.00028414
0.000283513
0.000282547
0.000280967
0.000278447
0.000274675
0.000269437
0.00026276
0.000255058
0.000246808
0.000238712
0.000231425
0.000225272
0.000219869
0.000214786
0.000223047
0.000215933
0.000411871
0.000482381
0.000298393
)
;
    }
    sWall
    {
        type            compressible::alphatWallFunction;
        Prt             0.85;
        value           uniform 0.000229702;
    }
    nWall
    {
        type            compressible::alphatWallFunction;
        Prt             0.85;
        value           nonuniform List<scalar> 6(9.6927e-05 0.000115277 0.000134261 0.000222104 0.000255161 0.000215462);
    }
    sideWalls
    {
        type            empty;
    }
    glass1
    {
        type            compressible::alphatWallFunction;
        Prt             0.85;
        value           nonuniform List<scalar> 9(0.000165517 0.000216057 0.000256722 0.000294661 0.000332774 0.000372919 0.00040891 0.000416386 0.000407064);
    }
    glass2
    {
        type            compressible::alphatWallFunction;
        Prt             0.85;
        value           nonuniform List<scalar> 2(0.000160752 0.000177793);
    }
    sun
    {
        type            compressible::alphatWallFunction;
        Prt             0.85;
        value           nonuniform List<scalar> 
14
(
0.000168829
0.000185856
0.000191617
0.000201548
0.000211104
0.000220761
0.000229916
0.000236422
0.000239138
0.000237237
0.000230158
0.000216754
0.000192025
0.000164265
)
;
    }
    heatsource1
    {
        type            compressible::alphatWallFunction;
        Prt             0.85;
        value           nonuniform List<scalar> 3(0.000107951 0.000104175 9.70973e-05);
    }
    heatsource2
    {
        type            compressible::alphatWallFunction;
        Prt             0.85;
        value           nonuniform List<scalar> 4(0.000176916 0.000137907 0.000137905 0.000173863);
    }
    Table_master
    {
        type            compressible::alphatWallFunction;
        Prt             0.85;
        value           nonuniform List<scalar> 9(0.000157938 0.00013652 0.000119529 0.00010607 9.53141e-05 8.66294e-05 7.96247e-05 7.4052e-05 6.99388e-05);
    }
    Table_slave
    {
        type            compressible::alphatWallFunction;
        Prt             0.85;
        value           nonuniform List<scalar> 9(0.00017499 0.000158776 0.00014719 0.00013836 0.000131075 0.000124425 0.000118237 0.000111853 0.000104549);
    }
    inlet
    {
        type            fixedValue;
        value           uniform 1.94e-05;
    }
    outlet
    {
        type            zeroGradient;
    }
}


// ************************************************************************* //
