// -*- C++ -*-
// File generated by PyFoam - sorry for the ugliness

FoamFile
{
 version 2.0;
 format ascii;
 class volScalarField;
 location "200";
 object T;
}

dimensions [ 0 0 0 1 0 0 0 ];

internalField nonuniform List<scalar> 459
(
  301.537
  301.488
  301.474
  301.469
  301.592
  301.669
  301.718
  301.75
  301.769
  301.782
  301.795
  301.806
  301.816
  301.826
  301.833
  302.491
  302.424
  302.375
  302.383
  302.406
  302.429
  302.45
  302.47
  302.489
  302.508
  302.527
  302.546
  302.564
  302.583
  302.602
  302.622
  302.645
  302.677
  302.734
  301.549
  301.482
  301.455
  301.448
  301.609
  301.765
  301.866
  301.923
  301.95
  301.962
  301.965
  301.958
  301.943
  301.919
  301.888
  301.9
  301.922
  302.464
  302.345
  302.318
  302.342
  302.382
  302.42
  302.447
  302.473
  302.499
  302.524
  302.55
  302.575
  302.6
  302.624
  302.646
  302.666
  302.684
  302.706
  302.754
  301.558
  301.471
  301.43
  301.412
  301.616
  301.866
  302.028
  302.109
  302.139
  302.141
  302.125
  302.096
  302.058
  302.013
  301.965
  301.947
  301.945
  302.326
  302.221
  302.253
  302.316
  302.384
  302.44
  302.459
  302.484
  302.511
  302.54
  302.57
  302.6
  302.631
  302.66
  302.685
  302.704
  302.718
  302.732
  302.769
  301.564
  301.46
  301.407
  301.375
  301.608
  301.959
  302.194
  302.299
  302.325
  302.306
  302.264
  302.211
  302.155
  302.097
  302.038
  301.999
  301.977
  301.991
  302.044
  302.124
  302.233
  302.345
  302.444
  302.518
  302.575
  302.619
  302.661
  302.701
  302.741
  302.781
  302.822
  302.866
  302.91
  302.828
  302.787
  302.77
  302.787
  301.57
  301.452
  301.389
  301.339
  301.586
  302.026
  302.341
  302.467
  302.478
  302.434
  302.369
  302.303
  302.238
  302.174
  302.113
  302.069
  302.045
  302.068
  302.139
  302.249
  302.373
  302.492
  302.592
  302.668
  302.731
  302.781
  302.821
  302.856
  302.887
  302.917
  302.947
  302.975
  302.994
  302.918
  302.851
  302.817
  302.809
  302.827
  302.857
  302.915
  301.576
  301.452
  301.378
  301.307
  301.551
  302.057
  302.457
  302.597
  302.589
  302.532
  302.465
  302.399
  302.331
  302.269
  302.216
  302.183
  302.18
  302.237
  302.344
  302.469
  302.59
  302.697
  302.781
  302.844
  302.893
  302.928
  302.955
  302.98
  303.004
  303.027
  303.047
  303.059
  303.05
  302.99
  302.919
  302.886
  302.856
  302.863
  302.889
  302.94
  301.589
  301.475
  301.365
  301.277
  301.514
  302.065
  302.551
  302.694
  302.689
  302.639
  302.583
  302.528
  302.474
  302.425
  302.389
  302.382
  302.417
  302.507
  302.62
  302.732
  302.832
  302.912
  302.971
  303.016
  303.042
  303.058
  303.073
  303.088
  303.104
  303.116
  303.123
  303.117
  303.096
  303.053
  303.003
  302.962
  302.905
  302.902
  302.925
  302.974
  301.615
  301.539
  301.348
  301.238
  301.491
  302.089
  302.644
  302.802
  302.813
  302.782
  302.747
  302.713
  302.682
  302.658
  302.649
  302.668
  302.727
  302.818
  302.909
  302.992
  303.059
  303.108
  303.14
  303.156
  303.163
  303.169
  303.176
  303.184
  303.19
  303.193
  303.189
  303.176
  303.152
  303.116
  303.071
  303.019
  302.965
  302.952
  302.973
  303.014
  301.653
  301.622
  301.221
  301.165
  301.518
  302.225
  302.799
  302.95
  302.972
  302.967
  302.957
  302.947
  302.941
  302.941
  302.954
  302.986
  303.039
  303.104
  303.164
  303.211
  303.244
  303.263
  303.271
  303.273
  303.272
  303.272
  303.273
  303.274
  303.273
  303.269
  303.261
  303.246
  303.223
  303.189
  303.146
  303.094
  303.042
  303.018
  303.032
  303.07
  300.505
  301.054
  301.736
  302.732
  303.03
  303.116
  303.146
  303.16
  303.168
  303.176
  303.184
  303.197
  303.216
  303.242
  303.276
  303.311
  303.341
  303.361
  303.372
  303.376
  303.375
  303.372
  303.367
  303.363
  303.358
  303.354
  303.348
  303.34
  303.328
  303.312
  303.289
  303.259
  303.222
  303.178
  303.134
  303.104
  303.108
  303.15
  302.631
  302.721
  302.912
  303.094
  303.21
  303.265
  303.294
  303.312
  303.327
  303.339
  303.351
  303.365
  303.38
  303.398
  303.415
  303.431
  303.443
  303.449
  303.45
  303.448
  303.444
  303.439
  303.432
  303.426
  303.419
  303.411
  303.402
  303.391
  303.376
  303.358
  303.336
  303.308
  303.277
  303.244
  303.212
  303.187
  303.183
  303.258
  303.17
  303.157
  303.146
  303.219
  303.276
  303.325
  303.368
  303.396
  303.416
  303.43
  303.442
  303.453
  303.463
  303.472
  303.48
  303.487
  303.493
  303.497
  303.498
  303.496
  303.493
  303.489
  303.483
  303.477
  303.47
  303.462
  303.454
  303.445
  303.434
  303.421
  303.404
  303.385
  303.361
  303.335
  303.308
  303.283
  303.263
  303.249
  303.251
  303.294
)
;

boundaryField
{
  floor
  {
    type wallHeatTransfer;
    Tinf uniform 299.755;
    alphaWall uniform 0.24;
    value nonuniform List<scalar> 29
(
  301.562
  302.005
  302.024
  302.012
  302.025
  302.04
  302.05
  302.052
  302.051
  302.049
  302.047
  302.046
  302.045
  302.044
  302.044
  302.044
  302.043
  302.041
  302.032
  302.036
  302.036
  302.107
  302.156
  302.219
  301.562
  302.005
  302.075
  301.96
  301.676
)
;
  }
  ceiling
  {
    type wallHeatTransfer;
    Tinf uniform 299.755;
    alphaWall uniform 0.24;
    value nonuniform List<scalar> 43
(
  302.884
  302.886
  302.893
  302.968
  303.015
  303.052
  303.087
  303.112
  303.13
  303.143
  303.155
  303.165
  303.174
  303.182
  303.19
  303.197
  303.202
  303.205
  303.205
  303.202
  303.197
  303.192
  303.185
  303.178
  303.171
  303.164
  303.157
  303.149
  303.141
  303.131
  303.118
  303.102
  303.081
  303.056
  303.029
  303.002
  302.977
  302.956
  302.948
  302.95
  301.509
  301.48
  302.458
)
;
  }
  sWall
  {
    type wallHeatTransfer;
    Tinf uniform 303.161;
    alphaWall uniform 0.36;
    value uniform 303.169;
  }
  nWall
  {
    type wallHeatTransfer;
    Tinf uniform 303.145;
    alphaWall uniform 0.36;
    value nonuniform List<scalar> 6
(
  302.978
  302.996
  303.022
  303.149
  303.242
  303.273
)
;
  }
  sideWalls
  {
    type empty;
  }
  glass1
  {
    type wallHeatTransfer;
    Tinf uniform 303.161;
    alphaWall uniform 4.3;
    value nonuniform List<scalar> 9
(
  302.687
  302.631
  302.587
  302.549
  302.518
  302.499
  302.498
  302.52
  302.554
)
;
  }
  glass2
  {
    type wallHeatTransfer;
    Tinf uniform 303.145;
    alphaWall uniform 4.3;
    value nonuniform List<scalar> 2
(
  303.123
  303.132
)
;
  }
  sun
  {
    type wallHeatTransfer;
    Tinf uniform 299.755;
    alphaWall uniform 0.24;
    value nonuniform List<scalar> 14
(
  301.325
  301.307
  301.31
  301.315
  301.427
  301.493
  301.532
  301.554
  301.564
  301.569
  301.573
  301.576
  301.576
  301.572
)
;
  }
  heatsource1
  {
    type fixedGradient;
    gradient uniform 0;
  }
  heatsource2
  {
    type fixedGradient;
    gradient uniform 0;
  }
  Table_master
  {
    type zeroGradient;
  }
  Table_slave
  {
    type zeroGradient;
  }
  inlet
  {
    type fixedValue;
    value uniform 300.15;
  }
  outlet
  {
    type zeroGradient;
  }
} 	// ************************************************************************* //

