// -*- C++ -*-
// File generated by PyFoam - sorry for the ugliness

FoamFile
{
 version 2.0;
 format ascii;
 class volVectorField;
 location "200";
 object U;
}

dimensions [ 0 1 -1 0 0 0 0 ];

internalField nonuniform List<vector> 459
(
  (-0.0134186 0.0317178 0)
  (-0.0758209 -0.00491915 0)
  (-0.0621728 -0.0305054 0)
  (-0.0210572 -0.0647904 0)
  (0.061602 -0.0692417 0)
  (0.119796 -0.0506404 0)
  (0.164503 -0.0340866 0)
  (0.191105 -0.0219173 0)
  (0.202355 -0.013277 0)
  (0.202517 -0.00669978 0)
  (0.194516 -0.000876469 0)
  (0.179652 0.00511621 0)
  (0.156809 0.0128607 0)
  (0.12022 0.0271931 0)
  (0.098408 0.0647958 0)
  (-0.0790104 0.00844174 0)
  (-0.00279721 0.00181924 0)
  (-0.00461822 -0.0176663 0)
  (0.0211438 -0.0241879 0)
  (0.0418416 -0.019487 0)
  (0.0601888 -0.013713 0)
  (0.0726944 -0.00837994 0)
  (0.0797056 -0.00549652 0)
  (0.0832117 -0.00430833 0)
  (0.0852816 -0.003737 0)
  (0.0868478 -0.0033165 0)
  (0.0879957 -0.00290594 0)
  (0.0885221 -0.00237169 0)
  (0.0878621 -0.00139567 0)
  (0.0849953 0.000568407 0)
  (0.0779323 0.00442569 0)
  (0.0645045 0.0100824 0)
  (0.0286312 0.0207838 0)
  (0.072926 0.0145305 0)
  (0.0507361 0.0787207 0)
  (-0.058591 0.019817 0)
  (-0.0423832 -0.0303806 0)
  (-0.00841256 -0.0952449 0)
  (0.0460019 -0.108821 0)
  (0.0931627 -0.0773558 0)
  (0.12819 -0.0458022 0)
  (0.148098 -0.0219322 0)
  (0.155826 -0.00488396 0)
  (0.154923 0.0076765 0)
  (0.148369 0.0177386 0)
  (0.138051 0.0271952 0)
  (0.125212 0.0382344 0)
  (0.111086 0.0541023 0)
  (0.108871 0.0830672 0)
  (0.101006 0.0734546 0)
  (0.0620505 0.062281 0)
  (-0.1203 0.0128715 0)
  (0.029821 -0.00921892 0)
  (0.0323614 -0.0317181 0)
  (0.0459773 -0.0361624 0)
  (0.060116 -0.0297357 0)
  (0.0714068 -0.0201461 0)
  (0.0768865 -0.00917638 0)
  (0.0782277 -0.00295415 0)
  (0.0782864 -0.000556481 0)
  (0.0785309 0.000391648 0)
  (0.0789504 0.000960784 0)
  (0.0792914 0.00152369 0)
  (0.0794916 0.00251191 0)
  (0.0793167 0.00445466 0)
  (0.0780684 0.00858674 0)
  (0.0725831 0.0183629 0)
  (0.0609491 0.028695 0)
  (0.0198557 0.0431673 0)
  (0.124038 0.0348104 0)
  (0.106781 0.115459 0)
  (-0.0577266 0.0267935 0)
  (-0.0340411 -0.045561 0)
  (-0.00643894 -0.134147 0)
  (0.030964 -0.155874 0)
  (0.0661815 -0.114331 0)
  (0.0914716 -0.0691259 0)
  (0.103929 -0.0346687 0)
  (0.107285 -0.0105891 0)
  (0.105067 0.00706084 0)
  (0.100692 0.0210507 0)
  (0.0957454 0.0334719 0)
  (0.091194 0.046463 0)
  (0.0871416 0.0617476 0)
  (0.0875772 0.0806635 0)
  (0.0792253 0.076553 0)
  (0.0608154 0.093806 0)
  (-0.123719 -0.0113259 0)
  (0.0594582 -0.0451264 0)
  (0.0657127 -0.053849 0)
  (0.0716756 -0.0503142 0)
  (0.0780719 -0.040339 0)
  (0.0831286 -0.0297337 0)
  (0.0823015 -0.022435 0)
  (0.074287 -0.0150418 0)
  (0.0679388 -0.0110194 0)
  (0.064723 -0.00871717 0)
  (0.0629688 -0.00720967 0)
  (0.0617164 -0.00609442 0)
  (0.0609908 -0.00497069 0)
  (0.0620068 -0.00301332 0)
  (0.0669905 0.00224511 0)
  (0.0660741 0.023997 0)
  (0.0568826 0.0409762 0)
  (0.00940899 0.060968 0)
  (0.160195 0.0634355 0)
  (0.153699 0.144529 0)
  (-0.066149 0.0342746 0)
  (-0.0311349 -0.0563934 0)
  (-0.00609655 -0.164025 0)
  (0.0174138 -0.189801 0)
  (0.0404519 -0.13942 0)
  (0.0565889 -0.0810331 0)
  (0.0611812 -0.037206 0)
  (0.0594229 -0.0081746 0)
  (0.0561603 0.0111929 0)
  (0.0547347 0.0248285 0)
  (0.0550792 0.0361057 0)
  (0.0571994 0.0473815 0)
  (0.0608834 0.0599905 0)
  (0.0695838 0.0750996 0)
  (0.0817751 0.0822244 0)
  (0.0979838 0.100898 0)
  (0.127492 0.0276389 0)
  (0.119093 -0.00533496 0)
  (0.11451 -0.0376983 0)
  (0.103763 -0.0508102 0)
  (0.0947065 -0.0487355 0)
  (0.0884645 -0.0393193 0)
  (0.0834541 -0.0266505 0)
  (0.0830549 -0.0150107 0)
  (0.0867919 -0.00897117 0)
  (0.0867363 -0.00525489 0)
  (0.0827868 -0.00284346 0)
  (0.0767384 -0.00109747 0)
  (0.0695062 0.000305553 0)
  (0.0610915 0.00160674 0)
  (0.0508951 0.00318392 0)
  (0.0317831 0.00612716 0)
  (0.0326686 0.0333616 0)
  (0.040217 0.04944 0)
  (-0.00151177 0.0696375 0)
  (0.186635 0.0985302 0)
  (0.194074 0.169458 0)
  (-0.0785004 0.0429654 0)
  (-0.0266863 -0.0662474 0)
  (-0.00178812 -0.186409 0)
  (0.00876973 -0.210448 0)
  (0.0189942 -0.154019 0)
  (0.0267583 -0.0838624 0)
  (0.0241883 -0.0331742 0)
  (0.0179785 -0.00317422 0)
  (0.0154067 0.0135736 0)
  (0.0170731 0.024051 0)
  (0.021444 0.0327744 0)
  (0.028305 0.0416201 0)
  (0.0376818 0.051361 0)
  (0.0522385 0.0623763 0)
  (0.0711933 0.0676717 0)
  (0.0947512 0.0665642 0)
  (0.114862 0.0175881 0)
  (0.118067 -0.0142693 0)
  (0.111157 -0.0348269 0)
  (0.0996319 -0.0418706 0)
  (0.0870595 -0.0389381 0)
  (0.075826 -0.0305136 0)
  (0.066696 -0.0191302 0)
  (0.0607934 -0.00563476 0)
  (0.0564954 0.00297158 0)
  (0.0516602 0.00731425 0)
  (0.0457108 0.00958926 0)
  (0.0392816 0.0111202 0)
  (0.0325971 0.0125387 0)
  (0.0255503 0.0142206 0)
  (0.0185264 0.0165461 0)
  (0.00864021 0.0197413 0)
  (0.0103716 0.0324843 0)
  (0.0303462 0.0442698 0)
  (0.00977862 0.0574952 0)
  (0.116924 0.0938711 0)
  (0.0951473 0.0755297 0)
  (0.0553717 0.0540338 0)
  (-0.0107449 0.0413475 0)
  (0.233517 0.191602 0)
  (-0.0913839 0.0470878 0)
  (-0.0124948 -0.0874453 0)
  (0.0113686 -0.204571 0)
  (0.0098866 -0.220251 0)
  (0.0061716 -0.159449 0)
  (0.00518509 -0.0791239 0)
  (-0.00277599 -0.0242751 0)
  (-0.0102464 0.00121494 0)
  (-0.0113871 0.0126149 0)
  (-0.00870168 0.0193853 0)
  (-0.00300436 0.0252703 0)
  (0.00591732 0.031568 0)
  (0.017387 0.0379498 0)
  (0.0329959 0.0437476 0)
  (0.0516828 0.0438176 0)
  (0.0735542 0.0350782 0)
  (0.0882726 0.00795858 0)
  (0.0903298 -0.0131975 0)
  (0.0832952 -0.025203 0)
  (0.0716298 -0.0289515 0)
  (0.0585047 -0.0260725 0)
  (0.046109 -0.0190039 0)
  (0.03548 -0.00946466 0)
  (0.0267506 0.00108353 0)
  (0.0206662 0.00816425 0)
  (0.0156913 0.0118858 0)
  (0.0105551 0.0141133 0)
  (0.00515845 0.0160217 0)
  (-0.000616347 0.0181422 0)
  (-0.00598692 0.0202683 0)
  (-0.00960297 0.0219376 0)
  (-0.0122499 0.0223634 0)
  (-0.00836784 0.0228279 0)
  (0.012638 0.0274236 0)
  (-4.35252e-05 0.0270954 0)
  (0.0535552 0.0550437 0)
  (0.0465676 0.0431875 0)
  (0.0340983 0.0358138 0)
  (-0.0207699 0.0433885 0)
  (0.279893 0.209933 0)
  (-0.0976957 0.0343648 0)
  (0.0193759 -0.13376 0)
  (0.0393331 -0.215093 0)
  (0.0266337 -0.218521 0)
  (0.00563077 -0.153611 0)
  (-0.00738076 -0.0660209 0)
  (-0.0184589 -0.0163455 0)
  (-0.0259841 0.00374118 0)
  (-0.0273545 0.0109936 0)
  (-0.0250609 0.0145258 0)
  (-0.0198353 0.0174385 0)
  (-0.011923 0.0205525 0)
  (-0.00125909 0.0237613 0)
  (0.0127294 0.0259723 0)
  (0.0280527 0.0241616 0)
  (0.043587 0.0169935 0)
  (0.0517726 0.00294737 0)
  (0.0512372 -0.00896563 0)
  (0.0439035 -0.0156718 0)
  (0.0327227 -0.0169458 0)
  (0.0202933 -0.0137045 0)
  (0.00849905 -0.00742932 0)
  (-0.00239842 0.000805841 0)
  (-0.0097268 0.00820312 0)
  (-0.0140779 0.0130606 0)
  (-0.0177142 0.0162014 0)
  (-0.0213605 0.0186108 0)
  (-0.0250398 0.0207071 0)
  (-0.0283348 0.0223404 0)
  (-0.0303507 0.0228472 0)
  (-0.0302784 0.0214592 0)
  (-0.0283973 0.0175513 0)
  (-0.0236517 0.0124986 0)
  (-0.0151353 0.0112146 0)
  (-0.0206183 0.0107406 0)
  (0.0110917 0.0355864 0)
  (0.0109845 0.042005 0)
  (0.0161422 0.0455635 0)
  (-0.0358048 0.0583152 0)
  (0.349343 0.200941 0)
  (0.00671272 0.00929886 0)
  (0.069723 -0.137982 0)
  (0.0899854 -0.204053 0)
  (0.0617552 -0.197333 0)
  (0.0157671 -0.130491 0)
  (-0.015447 -0.0447754 0)
  (-0.0308562 -0.00454317 0)
  (-0.0394168 0.00810678 0)
  (-0.0412002 0.0105879 0)
  (-0.0394749 0.0108908 0)
  (-0.0353704 0.0112315 0)
  (-0.0293594 0.0119583 0)
  (-0.0216285 0.0128402 0)
  (-0.0122563 0.0133539 0)
  (-0.00231252 0.0121975 0)
  (0.00635018 0.0084599 0)
  (0.00909971 0.00192578 0)
  (0.00673524 -0.00380629 0)
  (-0.000629142 -0.00650802 0)
  (-0.0106593 -0.00559774 0)
  (-0.0212099 -0.00196362 0)
  (-0.0305581 0.00300416 0)
  (-0.0370097 0.00800308 0)
  (-0.0409028 0.0124093 0)
  (-0.0433265 0.0159866 0)
  (-0.0451424 0.018893 0)
  (-0.0466148 0.0212118 0)
  (-0.0475885 0.0227985 0)
  (-0.0476648 0.0232288 0)
  (-0.0464422 0.0219148 0)
  (-0.0439044 0.0184975 0)
  (-0.0406863 0.0133377 0)
  (-0.0373024 0.00854901 0)
  (-0.0343388 0.00739331 0)
  (-0.0338527 0.0113447 0)
  (-0.021119 0.0283176 0)
  (-0.0150719 0.0441216 0)
  (-0.00742284 0.0526301 0)
  (-0.0769214 0.0604914 0)
  (0.43329 0.212145 0)
  (0.191499 0.152567 0)
  (0.160031 -0.0525337 0)
  (0.152372 -0.143812 0)
  (0.0984399 -0.143759 0)
  (0.0183709 -0.0810547 0)
  (-0.0339361 -0.00966571 0)
  (-0.0520487 0.0119716 0)
  (-0.0586485 0.014157 0)
  (-0.0598115 0.0120077 0)
  (-0.0584789 0.00990009 0)
  (-0.0558115 0.00866261 0)
  (-0.0522388 0.00819035 0)
  (-0.0479985 0.00820292 0)
  (-0.0433622 0.00837066 0)
  (-0.0390235 0.00817876 0)
  (-0.0361373 0.00722505 0)
  (-0.0364325 0.0052971 0)
  (-0.0398519 0.00366703 0)
  (-0.0453162 0.00340487 0)
  (-0.0517349 0.00465599 0)
  (-0.0573245 0.0068228 0)
  (-0.0614459 0.00947473 0)
  (-0.0639157 0.0123603 0)
  (-0.0649443 0.0152825 0)
  (-0.0649249 0.0180457 0)
  (-0.0641548 0.0204769 0)
  (-0.0627281 0.0223277 0)
  (-0.0606138 0.0232729 0)
  (-0.0577808 0.0229257 0)
  (-0.0543448 0.0209695 0)
  (-0.0506999 0.0174384 0)
  (-0.0474798 0.013035 0)
  (-0.0451411 0.0093737 0)
  (-0.0437413 0.00848208 0)
  (-0.0425865 0.0125782 0)
  (-0.0373218 0.0254935 0)
  (-0.0300735 0.0418453 0)
  (-0.0214611 0.0495741 0)
  (-0.0627166 0.040129 0)
  (0.170516 -0.126221 0)
  (0.142985 -0.115977 0)
  (0.0663471 -0.0775848 0)
  (-0.0496439 0.00686661 0)
  (-0.0769425 0.0299658 0)
  (-0.083815 0.0296898 0)
  (-0.0845456 0.0250598 0)
  (-0.0833739 0.020641 0)
  (-0.0818987 0.0175225 0)
  (-0.0804189 0.0156327 0)
  (-0.0789447 0.0146999 0)
  (-0.0774828 0.0144992 0)
  (-0.0760948 0.0148388 0)
  (-0.0749869 0.0154643 0)
  (-0.0745389 0.0160916 0)
  (-0.0752309 0.0165058 0)
  (-0.0769792 0.0169835 0)
  (-0.0791682 0.0178873 0)
  (-0.0810919 0.0192327 0)
  (-0.0822 0.0207839 0)
  (-0.0822978 0.0223919 0)
  (-0.081353 0.0239593 0)
  (-0.0794306 0.0253979 0)
  (-0.0766446 0.0265674 0)
  (-0.0731178 0.0272946 0)
  (-0.0689752 0.0273845 0)
  (-0.0643794 0.0266416 0)
  (-0.05958 0.0248996 0)
  (-0.054958 0.0221128 0)
  (-0.0510167 0.0185207 0)
  (-0.0482458 0.0148105 0)
  (-0.0468257 0.0121469 0)
  (-0.0463452 0.0119528 0)
  (-0.0454981 0.0159615 0)
  (-0.0421344 0.026331 0)
  (-0.0365519 0.0420457 0)
  (-0.0298493 0.0566038 0)
  (-0.00445938 0.062069 0)
  (-0.152905 -0.0548758 0)
  (-0.0760828 -0.0614771 0)
  (-0.113884 -0.0518379 0)
  (-0.126555 -0.0417698 0)
  (-0.121368 -0.047045 0)
  (-0.114487 -0.0576213 0)
  (-0.109377 -0.0666171 0)
  (-0.106029 -0.072791 0)
  (-0.10402 -0.0764486 0)
  (-0.102843 -0.0782206 0)
  (-0.10208 -0.0786562 0)
  (-0.101425 -0.0782026 0)
  (-0.100673 -0.0773081 0)
  (-0.0997507 -0.0765011 0)
  (-0.0987483 -0.0763207 0)
  (-0.097869 -0.077087 0)
  (-0.0971901 -0.0785678 0)
  (-0.09657 -0.0802093 0)
  (-0.0957594 -0.0815411 0)
  (-0.0945282 -0.0822863 0)
  (-0.0927108 -0.0822765 0)
  (-0.0901774 -0.08148 0)
  (-0.086835 -0.0799981 0)
  (-0.0826443 -0.0780513 0)
  (-0.077638 -0.0759369 0)
  (-0.0719392 -0.074012 0)
  (-0.0657787 -0.0726852 0)
  (-0.0595083 -0.0723897 0)
  (-0.0535972 -0.0734937 0)
  (-0.0485815 -0.0761435 0)
  (-0.0449304 -0.0800811 0)
  (-0.0427985 -0.0844991 0)
  (-0.0416549 -0.0879564 0)
  (-0.0398665 -0.0883089 0)
  (-0.0348792 -0.0835217 0)
  (-0.0250705 -0.0752336 0)
  (-0.00894767 -0.0773041 0)
  (0.0479556 -0.229328 0)
  (-0.212051 -0.202466 0)
  (-0.211129 0.00670508 0)
  (-0.196838 0.242056 0)
  (-0.188187 0.227448 0)
  (-0.18654 0.223902 0)
  (-0.174192 0.230573 0)
  (-0.158023 0.240893 0)
  (-0.144476 0.250493 0)
  (-0.135217 0.257463 0)
  (-0.12946 0.261901 0)
  (-0.126057 0.264415 0)
  (-0.124044 0.265633 0)
  (-0.122707 0.266074 0)
  (-0.121505 0.266208 0)
  (-0.12003 0.266518 0)
  (-0.118034 0.2675 0)
  (-0.115476 0.26953 0)
  (-0.112505 0.272677 0)
  (-0.109307 0.276594 0)
  (-0.105967 0.280753 0)
  (-0.102459 0.284699 0)
  (-0.0986968 0.288145 0)
  (-0.0945602 0.290934 0)
  (-0.0899204 0.293034 0)
  (-0.0846768 0.294491 0)
  (-0.0787982 0.295401 0)
  (-0.0723532 0.295871 0)
  (-0.0655272 0.296028 0)
  (-0.0586271 0.296044 0)
  (-0.0520688 0.296162 0)
  (-0.046339 0.296708 0)
  (-0.0419137 0.298073 0)
  (-0.0391058 0.300641 0)
  (-0.0378172 0.304647 0)
  (-0.037282 0.309946 0)
  (-0.0361741 0.315917 0)
  (-0.0335154 0.322434 0)
  (-0.0292283 0.333008 0)
  (-0.0177168 0.36247 0)
  (0.066234 0.5517 0)
)
;

boundaryField
{
  floor
  {
    type noSlip;
  }
  ceiling
  {
    type noSlip;
  }
  sWall
  {
    type noSlip;
  }
  nWall
  {
    type noSlip;
  }
  sideWalls
  {
    type empty;
  }
  glass1
  {
    type noSlip;
  }
  glass2
  {
    type noSlip;
  }
  sun
  {
    type noSlip;
  }
  heatsource1
  {
    type noSlip;
  }
  heatsource2
  {
    type noSlip;
  }
  Table_master
  {
    type noSlip;
  }
  Table_slave
  {
    type noSlip;
  }
  inlet
  {
    type fixedValue;
    value uniform (0.277164 -0.114805 0);
  }
  outlet
  {
    type zeroGradient;
  }
} 	// ************************************************************************* //

