// -*- C++ -*-
// File generated by PyFoam - sorry for the ugliness

FoamFile
{
 version 2.0;
 format ascii;
 class volScalarField;
 location "200";
 object T;
}

dimensions [ 0 0 0 1 0 0 0 ];

internalField nonuniform List<scalar> 459
(
  302.767
  302.507
  302.498
  302.498
  302.498
  302.498
  302.495
  302.491
  302.488
  302.492
  302.507
  302.519
  302.525
  302.527
  302.536
  302.849
  302.816
  302.798
  302.806
  302.826
  302.843
  302.857
  302.87
  302.882
  302.894
  302.907
  302.92
  302.933
  302.947
  302.961
  302.976
  302.994
  303.018
  303.061
  302.934
  302.54
  302.517
  302.521
  302.524
  302.525
  302.516
  302.499
  302.486
  302.488
  302.506
  302.524
  302.533
  302.534
  302.534
  302.53
  302.523
  302.854
  302.779
  302.764
  302.781
  302.809
  302.835
  302.848
  302.858
  302.868
  302.879
  302.889
  302.901
  302.912
  302.925
  302.939
  302.955
  302.975
  303.003
  303.055
  303.112
  302.587
  302.549
  302.561
  302.574
  302.578
  302.557
  302.518
  302.487
  302.484
  302.508
  302.536
  302.553
  302.556
  302.551
  302.545
  302.534
  302.802
  302.744
  302.742
  302.776
  302.823
  302.864
  302.867
  302.873
  302.88
  302.888
  302.898
  302.909
  302.921
  302.934
  302.948
  302.966
  302.984
  303.009
  303.059
  303.295
  302.65
  302.592
  302.615
  302.646
  302.658
  302.615
  302.541
  302.487
  302.479
  302.509
  302.551
  302.581
  302.591
  302.586
  302.575
  302.559
  302.569
  302.595
  302.648
  302.722
  302.803
  302.879
  302.94
  302.989
  303.028
  303.06
  303.089
  303.117
  303.143
  303.167
  303.19
  303.209
  303.125
  303.065
  303.044
  303.072
  303.477
  302.732
  302.647
  302.68
  302.74
  302.751
  302.668
  302.555
  302.484
  302.473
  302.512
  302.572
  302.621
  302.644
  302.643
  302.633
  302.625
  302.642
  302.684
  302.753
  302.838
  302.926
  303.007
  303.075
  303.135
  303.18
  303.217
  303.247
  303.269
  303.285
  303.294
  303.296
  303.286
  303.225
  303.14
  303.086
  303.089
  303.326
  303.414
  303.399
  303.647
  302.842
  302.735
  302.765
  302.853
  302.817
  302.69
  302.553
  302.469
  302.462
  302.52
  302.607
  302.682
  302.724
  302.736
  302.734
  302.738
  302.773
  302.836
  302.918
  303.007
  303.094
  303.171
  303.234
  303.285
  303.325
  303.356
  303.378
  303.393
  303.4
  303.397
  303.385
  303.361
  303.304
  303.219
  303.144
  303.119
  303.223
  303.275
  303.332
  303.814
  303.017
  302.916
  302.95
  302.97
  302.848
  302.66
  302.499
  302.425
  302.447
  302.542
  302.671
  302.78
  302.847
  302.876
  302.885
  302.906
  302.96
  303.038
  303.121
  303.205
  303.281
  303.345
  303.395
  303.434
  303.463
  303.482
  303.494
  303.5
  303.498
  303.487
  303.466
  303.433
  303.379
  303.305
  303.229
  303.186
  303.215
  303.246
  303.29
  304.044
  303.453
  303.336
  303.282
  303.07
  302.773
  302.508
  302.358
  302.348
  302.445
  302.608
  302.797
  302.941
  303.03
  303.058
  303.077
  303.114
  303.179
  303.261
  303.338
  303.406
  303.463
  303.508
  303.541
  303.564
  303.578
  303.586
  303.588
  303.585
  303.574
  303.557
  303.534
  303.502
  303.452
  303.396
  303.337
  303.306
  303.33
  303.356
  303.468
  304.38
  304.092
  303.866
  303.382
  302.729
  302.265
  302.067
  302.098
  302.293
  302.536
  302.787
  303.051
  303.177
  303.229
  303.259
  303.292
  303.34
  303.404
  303.473
  303.534
  303.584
  303.62
  303.644
  303.659
  303.666
  303.667
  303.662
  303.651
  303.635
  303.616
  303.597
  303.578
  303.562
  303.552
  303.551
  303.564
  303.594
  303.628
  303.647
  303.709
  295.561
  296.583
  298.53
  300.103
  301.223
  302.034
  302.693
  303.034
  303.216
  303.324
  303.388
  303.429
  303.465
  303.504
  303.551
  303.603
  303.652
  303.692
  303.721
  303.739
  303.747
  303.747
  303.742
  303.732
  303.718
  303.701
  303.683
  303.665
  303.648
  303.633
  303.623
  303.618
  303.621
  303.636
  303.664
  303.704
  303.763
  303.857
  296.686
  298.959
  300.924
  301.976
  302.61
  303.007
  303.252
  303.397
  303.486
  303.545
  303.588
  303.624
  303.658
  303.694
  303.73
  303.764
  303.793
  303.814
  303.825
  303.828
  303.825
  303.817
  303.805
  303.79
  303.774
  303.756
  303.738
  303.72
  303.703
  303.688
  303.675
  303.667
  303.665
  303.672
  303.69
  303.729
  303.768
  303.835
  300.441
  300.363
  300.35
  302.266
  303.013
  303.306
  303.463
  303.57
  303.646
  303.702
  303.743
  303.776
  303.804
  303.828
  303.85
  303.869
  303.885
  303.898
  303.906
  303.909
  303.907
  303.901
  303.892
  303.88
  303.867
  303.853
  303.837
  303.821
  303.804
  303.786
  303.769
  303.752
  303.736
  303.722
  303.712
  303.71
  303.72
  303.739
  303.763
  303.837
)
;

boundaryField
{
  floor
  {
    type wallHeatTransfer;
    Tinf uniform 305.2;
    alphaWall uniform 0.24;
    value nonuniform List<scalar> 29
(
  302.839
  303.249
  303.18
  303.125
  303.113
  303.128
  303.149
  303.175
  303.203
  303.231
  303.257
  303.284
  303.309
  303.334
  303.359
  303.383
  303.409
  303.437
  303.471
  303.533
  303.533
  303.488
  303.467
  303.462
  302.839
  303.249
  303.259
  303.148
  302.813
)
;
  }
  ceiling
  {
    type wallHeatTransfer;
    Tinf uniform 303.2;
    alphaWall uniform 0.24;
    value nonuniform List<scalar> 43
(
  300.63
  300.548
  300.531
  302.322
  303.025
  303.299
  303.444
  303.541
  303.609
  303.657
  303.693
  303.72
  303.744
  303.764
  303.782
  303.798
  303.811
  303.821
  303.826
  303.826
  303.822
  303.814
  303.804
  303.792
  303.78
  303.766
  303.752
  303.737
  303.723
  303.709
  303.695
  303.682
  303.671
  303.662
  303.656
  303.657
  303.666
  303.682
  303.701
  303.763
  304.326
  304.057
  297.091
)
;
  }
  sWall
  {
    type wallHeatTransfer;
    Tinf uniform 315.2;
    alphaWall uniform 0.36;
    value uniform 301.916;
  }
  nWall
  {
    type wallHeatTransfer;
    Tinf uniform 307.2;
    alphaWall uniform 0.36;
    value nonuniform List<scalar> 6
(
  304.112
  304.034
  303.931
  304.336
  304.31
  304.393
)
;
  }
  sideWalls
  {
    type empty;
  }
  glass1
  {
    type wallHeatTransfer;
    Tinf uniform 315.2;
    alphaWall uniform 4.3;
    value nonuniform List<scalar> 9
(
  310.94
  310.317
  309.93
  309.639
  309.398
  309.182
  309.043
  309.135
  309.386
)
;
  }
  glass2
  {
    type wallHeatTransfer;
    Tinf uniform 307.2;
    alphaWall uniform 4.3;
    value nonuniform List<scalar> 2
(
  305.785
  305.926
)
;
  }
  sun
  {
    type wallHeatTransfer;
    Tinf uniform 305.2;
    alphaWall uniform 0.24;
    value nonuniform List<scalar> 14
(
  302.998
  302.743
  302.729
  302.72
  302.712
  302.703
  302.694
  302.686
  302.684
  302.691
  302.716
  302.744
  302.77
  302.799
)
;
  }
  heatsource1
  {
    type fixedGradient;
    gradient uniform 0;
  }
  heatsource2
  {
    type fixedGradient;
    gradient uniform 0;
  }
  Table_master
  {
    type zeroGradient;
  }
  Table_slave
  {
    type zeroGradient;
  }
  inlet
  {
    type fixedValue;
    value uniform 293.15;
  }
  outlet
  {
    type zeroGradient;
  }
} 	// ************************************************************************* //

