// -*- C++ -*-
// File generated by PyFoam - sorry for the ugliness

FoamFile
{
 version 2.0;
 format ascii;
 class volVectorField;
 location "200";
 object U;
}

dimensions [ 0 1 -1 0 0 0 0 ];

internalField nonuniform List<vector> 459
(
  (0.0205414 0.0902699 0)
  (-0.17906 0.0275459 0)
  (-0.208846 0.0139494 0)
  (-0.235663 0.00350962 0)
  (-0.245781 -0.00771415 0)
  (-0.236288 -0.019577 0)
  (-0.207952 -0.0319506 0)
  (-0.163676 -0.0425448 0)
  (-0.110139 -0.0492354 0)
  (-0.0556074 -0.050359 0)
  (0.00138355 -0.0405029 0)
  (0.037688 -0.0254441 0)
  (0.0572891 -0.0109032 0)
  (0.0595076 0.00639537 0)
  (0.042509 0.0369001 0)
  (-0.0218449 0.014686 0)
  (-0.0451985 -0.0137202 0)
  (-0.0217175 -0.0285181 0)
  (0.00450055 -0.02918 0)
  (0.0295399 -0.0223624 0)
  (0.0493206 -0.0156253 0)
  (0.0628848 -0.0090713 0)
  (0.0707042 -0.00551537 0)
  (0.0744384 -0.00413157 0)
  (0.0763374 -0.00355905 0)
  (0.0776547 -0.00319589 0)
  (0.078663 -0.00289363 0)
  (0.0792802 -0.00255712 0)
  (0.0792134 -0.00197055 0)
  (0.0777435 -0.000681439 0)
  (0.0733944 0.00194486 0)
  (0.0644803 0.00525364 0)
  (0.0516092 0.00978081 0)
  (0.00575991 0.025746 0)
  (0.189634 0.186387 0)
  (-0.161662 0.078081 0)
  (-0.167743 0.0529347 0)
  (-0.196301 0.0307819 0)
  (-0.20752 0.00524633 0)
  (-0.199498 -0.0233426 0)
  (-0.173704 -0.0513593 0)
  (-0.134481 -0.07284 0)
  (-0.08872 -0.0837375 0)
  (-0.0435092 -0.0826828 0)
  (-0.0012756 -0.0670578 0)
  (0.030393 -0.0428736 0)
  (0.0512333 -0.0172861 0)
  (0.0645142 0.0102794 0)
  (0.0700495 0.0404433 0)
  (0.0716019 0.0420431 0)
  (0.0483252 0.0442433 0)
  (0.0400018 0.0469927 0)
  (0.00645996 -0.0179369 0)
  (0.0269473 -0.0406714 0)
  (0.041441 -0.0404654 0)
  (0.0550111 -0.0328065 0)
  (0.0662497 -0.0229529 0)
  (0.0717392 -0.0105106 0)
  (0.0732141 -0.00309399 0)
  (0.0733058 -0.000228704 0)
  (0.0735191 0.000840897 0)
  (0.0738903 0.00139375 0)
  (0.0741838 0.00178848 0)
  (0.0743459 0.00231807 0)
  (0.0743121 0.00345214 0)
  (0.0734698 0.00617077 0)
  (0.069147 0.0132753 0)
  (0.0584799 0.0201788 0)
  (0.0475946 0.027729 0)
  (-0.0303446 0.0535458 0)
  (0.344487 0.278404 0)
  (-0.170801 0.122152 0)
  (-0.127195 0.0846169 0)
  (-0.155555 0.0470453 0)
  (-0.166052 0.00472072 0)
  (-0.156374 -0.041272 0)
  (-0.130214 -0.0844753 0)
  (-0.0943888 -0.114627 0)
  (-0.0559694 -0.126764 0)
  (-0.0201219 -0.120946 0)
  (0.0118263 -0.097675 0)
  (0.0360278 -0.0666929 0)
  (0.0541944 -0.0334882 0)
  (0.0668042 -9.03302e-05 0)
  (0.0741815 0.0304918 0)
  (0.0723533 0.048109 0)
  (0.0612288 0.0813898 0)
  (0.107051 -0.00081597 0)
  (0.0759731 -0.0349701 0)
  (0.0736191 -0.0487116 0)
  (0.0767137 -0.0484451 0)
  (0.079931 -0.0408773 0)
  (0.0836201 -0.0323574 0)
  (0.0828 -0.0247582 0)
  (0.0743134 -0.016304 0)
  (0.0678094 -0.0117198 0)
  (0.0647931 -0.00913863 0)
  (0.0633394 -0.00748679 0)
  (0.0622993 -0.00635513 0)
  (0.0615618 -0.00543811 0)
  (0.0617702 -0.00416181 0)
  (0.0644973 -0.000156294 0)
  (0.0621514 0.0187056 0)
  (0.0487321 0.0323814 0)
  (0.0462793 0.0445426 0)
  (-0.0667273 0.0806166 0)
  (0.485217 0.352335 0)
  (-0.197535 0.160664 0)
  (-0.0851222 0.113033 0)
  (-0.111975 0.0626015 0)
  (-0.118132 0.00450411 0)
  (-0.100887 -0.0596662 0)
  (-0.07262 -0.116385 0)
  (-0.0414228 -0.151595 0)
  (-0.0124594 -0.162259 0)
  (0.013205 -0.150455 0)
  (0.0331254 -0.122688 0)
  (0.0495493 -0.0862795 0)
  (0.0623746 -0.0476666 0)
  (0.0725265 -0.010582 0)
  (0.08185 0.0228653 0)
  (0.0932077 0.0494099 0)
  (0.110996 0.0813752 0)
  (0.1419 0.0740902 0)
  (0.132909 0.0110631 0)
  (0.117395 -0.0248492 0)
  (0.106667 -0.0404188 0)
  (0.0979577 -0.0430607 0)
  (0.0904 -0.0378326 0)
  (0.0841506 -0.0281059 0)
  (0.0837631 -0.0162703 0)
  (0.0898529 -0.0102454 0)
  (0.0934569 -0.00680111 0)
  (0.0931587 -0.00447757 0)
  (0.0904649 -0.00252354 0)
  (0.0859622 -0.000586909 0)
  (0.0791823 0.00164769 0)
  (0.0689805 0.00466622 0)
  (0.0512947 0.00937186 0)
  (0.0393558 0.0306776 0)
  (0.0300283 0.0467759 0)
  (0.0459411 0.0611991 0)
  (-0.107217 0.101509 0)
  (0.608378 0.409129 0)
  (-0.233366 0.191065 0)
  (-0.0436709 0.13044 0)
  (-0.0645649 0.072178 0)
  (-0.0575476 0.000415945 0)
  (-0.028073 -0.0819593 0)
  (0.000499708 -0.146075 0)
  (0.023305 -0.179217 0)
  (0.039468 -0.184049 0)
  (0.0509593 -0.167906 0)
  (0.0589961 -0.13666 0)
  (0.064808 -0.0971514 0)
  (0.0691841 -0.0561401 0)
  (0.0735458 -0.0183786 0)
  (0.0798157 0.0135526 0)
  (0.0896561 0.0361268 0)
  (0.105914 0.0454175 0)
  (0.118381 0.0161127 0)
  (0.117264 -0.0126465 0)
  (0.10972 -0.0272841 0)
  (0.098996 -0.0334056 0)
  (0.0874755 -0.0336294 0)
  (0.0768013 -0.0290771 0)
  (0.0682022 -0.0206827 0)
  (0.063676 -0.00884512 0)
  (0.0627544 -0.00171334 0)
  (0.0615676 0.00186456 0)
  (0.0596448 0.00408458 0)
  (0.0574587 0.00618835 0)
  (0.0549558 0.00879653 0)
  (0.051642 0.0123709 0)
  (0.0470153 0.0174493 0)
  (0.0398193 0.0247408 0)
  (0.0329059 0.0389408 0)
  (0.025044 0.0552088 0)
  (0.0533385 0.0744141 0)
  (-0.0297296 0.109286 0)
  (0.045681 0.0296532 0)
  (-0.0620654 -0.0342951 0)
  (-0.270953 -0.0566082 0)
  (0.701603 0.454932 0)
  (-0.270626 0.209457 0)
  (-0.00944148 0.126151 0)
  (-0.0111095 0.067024 0)
  (0.0270852 -0.0266117 0)
  (0.0612287 -0.111145 0)
  (0.083315 -0.166876 0)
  (0.0938184 -0.192162 0)
  (0.095329 -0.191277 0)
  (0.0909386 -0.170753 0)
  (0.083579 -0.137053 0)
  (0.0754298 -0.0963036 0)
  (0.0682861 -0.0553769 0)
  (0.0637126 -0.0194317 0)
  (0.0629074 0.00843033 0)
  (0.0673558 0.0253804 0)
  (0.0773795 0.0285545 0)
  (0.0849197 0.0133797 0)
  (0.0848713 -0.00262771 0)
  (0.0783269 -0.0142198 0)
  (0.0682227 -0.0204786 0)
  (0.0571675 -0.0217121 0)
  (0.0467 -0.018803 0)
  (0.0379901 -0.0127886 0)
  (0.0322036 -0.0051136 0)
  (0.029238 -1.515e-05 0)
  (0.0277536 0.00257689 0)
  (0.0272304 0.00416212 0)
  (0.0273927 0.00599802 0)
  (0.0280788 0.00884933 0)
  (0.0290002 0.0132286 0)
  (0.0300275 0.01962 0)
  (0.0307452 0.028289 0)
  (0.0324057 0.03996 0)
  (0.0327047 0.0543555 0)
  (0.0617692 0.0752505 0)
  (0.0411043 0.0962891 0)
  (0.0892182 0.0644592 0)
  (0.114614 0.0425981 0)
  (-0.131549 -0.00756031 0)
  (0.7714 0.495851 0)
  (-0.287831 0.190635 0)
  (0.0320924 0.0619813 0)
  (0.0762987 0.00758654 0)
  (0.133061 -0.0745644 0)
  (0.163234 -0.140498 0)
  (0.17355 -0.179456 0)
  (0.167443 -0.191482 0)
  (0.149267 -0.181275 0)
  (0.124359 -0.155651 0)
  (0.097867 -0.120673 0)
  (0.0730361 -0.080837 0)
  (0.0526962 -0.042616 0)
  (0.0382212 -0.0109673 0)
  (0.0305595 0.010696 0)
  (0.0316506 0.0213332 0)
  (0.0376954 0.0219221 0)
  (0.0420703 0.012751 0)
  (0.0411155 0.0017253 0)
  (0.0361332 -0.00673867 0)
  (0.0277769 -0.011182 0)
  (0.0182503 -0.0119036 0)
  (0.00903581 -0.00974213 0)
  (0.00134572 -0.00565212 0)
  (-0.00369983 -0.00103255 0)
  (-0.00598027 0.00173711 0)
  (-0.00594554 0.00275158 0)
  (-0.0045659 0.00317756 0)
  (-0.0019924 0.00407941 0)
  (0.00189537 0.00624905 0)
  (0.00697067 0.0100586 0)
  (0.0133164 0.015833 0)
  (0.0207879 0.0236582 0)
  (0.0302942 0.0330512 0)
  (0.0395911 0.0436825 0)
  (0.0651452 0.0600323 0)
  (0.0790308 0.0686929 0)
  (0.114913 0.0452361 0)
  (0.156707 0.0385608 0)
  (-0.0350778 0.0896618 0)
  (0.882956 0.487875 0)
  (-0.0314019 0.164659 0)
  (0.132422 -0.0352428 0)
  (0.248712 -0.104938 0)
  (0.286927 -0.140016 0)
  (0.288287 -0.164143 0)
  (0.268345 -0.174072 0)
  (0.232499 -0.168053 0)
  (0.185952 -0.147865 0)
  (0.135467 -0.118676 0)
  (0.0877684 -0.0851384 0)
  (0.0459436 -0.049455 0)
  (0.0148189 -0.0178051 0)
  (-0.00632861 0.00508474 0)
  (-0.0120982 0.0153149 0)
  (-0.0109118 0.019057 0)
  (-0.00676947 0.0177983 0)
  (-0.00414675 0.0117742 0)
  (-0.00544544 0.00465696 0)
  (-0.00978635 -0.00068631 0)
  (-0.0162964 -0.00327519 0)
  (-0.0238186 -0.00348817 0)
  (-0.0309421 -0.00215425 0)
  (-0.0365949 -0.000182217 0)
  (-0.0399225 0.00142557 0)
  (-0.0407975 0.00179932 0)
  (-0.0401441 0.00115608 0)
  (-0.0384043 0.000118242 0)
  (-0.0356137 -0.000774982 0)
  (-0.0312413 -0.000977805 0)
  (-0.0247449 -1.33288e-05 0)
  (-0.0163841 0.00226925 0)
  (-0.00645571 0.00570805 0)
  (0.0074473 0.00973619 0)
  (0.0197756 0.0132455 0)
  (0.0394793 0.0198824 0)
  (0.0570661 0.0154207 0)
  (0.0744737 -0.00880225 0)
  (0.133884 0.041104 0)
  (-0.431944 0.206022 0)
  (1.04054 0.425937 0)
  (0.494753 0.277829 0)
  (0.515128 0.167315 0)
  (0.529418 0.0570082 0)
  (0.482962 -0.025392 0)
  (0.409288 -0.0767733 0)
  (0.329118 -0.0994631 0)
  (0.248041 -0.0996976 0)
  (0.168132 -0.0835667 0)
  (0.0944719 -0.0590793 0)
  (0.0320886 -0.0315472 0)
  (-0.0213394 -0.00354755 0)
  (-0.0454105 0.00932574 0)
  (-0.0544463 0.0144848 0)
  (-0.0559021 0.0163639 0)
  (-0.0540234 0.0165822 0)
  (-0.0511788 0.0150245 0)
  (-0.049778 0.0116389 0)
  (-0.0510269 0.00777248 0)
  (-0.054551 0.00472278 0)
  (-0.059367 0.00304995 0)
  (-0.064407 0.00249349 0)
  (-0.0689374 0.00250489 0)
  (-0.0724866 0.00252746 0)
  (-0.0750495 0.00209645 0)
  (-0.077058 0.00099743 0)
  (-0.0791348 -0.000479476 0)
  (-0.0816526 -0.00183023 0)
  (-0.0849881 -0.00247419 0)
  (-0.089702 -0.00176797 0)
  (-0.0961073 0.000919708 0)
  (-0.104324 0.00606726 0)
  (-0.115556 0.0140663 0)
  (-0.132168 0.0253756 0)
  (-0.157145 0.0399753 0)
  (-0.192113 0.0564496 0)
  (-0.240368 0.0704979 0)
  (-0.295568 0.0784063 0)
  (-0.35997 0.0802737 0)
  (-0.609553 0.0776313 0)
  (-0.0536544 -0.0336397 0)
  (0.117886 -0.0712734 0)
  (0.167899 -0.0903905 0)
  (0.133496 -0.0776629 0)
  (0.0880431 -0.0555306 0)
  (0.0404124 -0.0318819 0)
  (-0.0171685 -0.00572851 0)
  (-0.0599458 0.00966655 0)
  (-0.0857433 0.0172734 0)
  (-0.0964826 0.0191648 0)
  (-0.0995302 0.0181333 0)
  (-0.0991182 0.0171704 0)
  (-0.0970032 0.0165576 0)
  (-0.0942349 0.0161789 0)
  (-0.0917367 0.0155883 0)
  (-0.0904982 0.0145533 0)
  (-0.0909576 0.0134684 0)
  (-0.0928169 0.0128444 0)
  (-0.0954042 0.0129515 0)
  (-0.0980529 0.0136878 0)
  (-0.100342 0.0147373 0)
  (-0.102128 0.0157337 0)
  (-0.103535 0.0163531 0)
  (-0.104859 0.0163951 0)
  (-0.106386 0.0158671 0)
  (-0.10827 0.0149704 0)
  (-0.110545 0.0141495 0)
  (-0.113171 0.0140995 0)
  (-0.116034 0.0157269 0)
  (-0.118963 0.0200844 0)
  (-0.121829 0.0281801 0)
  (-0.124645 0.0406147 0)
  (-0.127628 0.0568417 0)
  (-0.130638 0.0738057 0)
  (-0.130445 0.0830114 0)
  (-0.108195 0.066174 0)
  (-0.0318588 -0.0170131 0)
  (-0.265058 -0.202269 0)
  (0.0865455 0.157691 0)
  (-0.00570886 0.0352178 0)
  (-0.0417802 -0.013223 0)
  (-0.08124 -0.0135946 0)
  (-0.11616 -0.00466822 0)
  (-0.139372 0.00273512 0)
  (-0.149841 0.00637007 0)
  (-0.152803 0.00565441 0)
  (-0.151399 0.00345766 0)
  (-0.147043 0.000799928 0)
  (-0.141817 -0.00238697 0)
  (-0.1367 -0.00510184 0)
  (-0.131855 -0.00716099 0)
  (-0.127313 -0.0089274 0)
  (-0.123254 -0.0110116 0)
  (-0.12001 -0.0138853 0)
  (-0.117765 -0.0176081 0)
  (-0.116416 -0.0219371 0)
  (-0.11566 -0.0264853 0)
  (-0.115156 -0.0308778 0)
  (-0.11466 -0.0348291 0)
  (-0.114076 -0.038153 0)
  (-0.113454 -0.0407018 0)
  (-0.112914 -0.042256 0)
  (-0.11254 -0.0424483 0)
  (-0.112286 -0.0408267 0)
  (-0.111918 -0.0369889 0)
  (-0.110989 -0.0307087 0)
  (-0.108822 -0.0219281 0)
  (-0.104488 -0.0105974 0)
  (-0.0968818 0.00347095 0)
  (-0.0849959 0.0203618 0)
  (-0.0683489 0.0389156 0)
  (-0.047445 0.0548836 0)
  (-0.0251978 0.0619582 0)
  (0.0181924 0.0379452 0)
  (0.143948 -0.0255951 0)
  (-0.197543 -0.102019 0)
  (-0.0714855 -0.322269 0)
  (-0.414278 -0.121322 0)
  (-0.31379 0.0615273 0)
  (-0.292396 0.0138333 0)
  (-0.258366 0.0151595 0)
  (-0.253254 0.0236975 0)
  (-0.248718 0.0323035 0)
  (-0.240557 0.0401389 0)
  (-0.228692 0.0467725 0)
  (-0.215424 0.0517683 0)
  (-0.202563 0.0559753 0)
  (-0.191014 0.0598967 0)
  (-0.181073 0.0637918 0)
  (-0.172402 0.0679786 0)
  (-0.164403 0.0726636 0)
  (-0.156591 0.0780444 0)
  (-0.148764 0.0842889 0)
  (-0.140995 0.0914429 0)
  (-0.133469 0.0993487 0)
  (-0.126342 0.107615 0)
  (-0.119688 0.115687 0)
  (-0.113515 0.123005 0)
  (-0.1078 0.129148 0)
  (-0.10252 0.133865 0)
  (-0.0976793 0.136976 0)
  (-0.0933081 0.138259 0)
  (-0.0894261 0.137402 0)
  (-0.0859806 0.134103 0)
  (-0.0827738 0.128255 0)
  (-0.0793366 0.120172 0)
  (-0.0746983 0.110718 0)
  (-0.0671755 0.101279 0)
  (-0.0546599 0.0935928 0)
  (-0.0358083 0.0893764 0)
  (-0.0102959 0.0892721 0)
  (0.0303777 0.0904134 0)
  (0.0639174 0.0879519 0)
  (0.0968519 0.0795372 0)
  (0.160964 0.0600371 0)
  (-0.261253 0.0268651 0)
)
;

boundaryField
{
  floor
  {
    type noSlip;
  }
  ceiling
  {
    type noSlip;
  }
  sWall
  {
    type noSlip;
  }
  nWall
  {
    type noSlip;
  }
  sideWalls
  {
    type empty;
  }
  glass1
  {
    type noSlip;
  }
  glass2
  {
    type noSlip;
  }
  sun
  {
    type noSlip;
  }
  heatsource1
  {
    type noSlip;
  }
  heatsource2
  {
    type noSlip;
  }
  Table_master
  {
    type noSlip;
  }
  Table_slave
  {
    type noSlip;
  }
  inlet
  {
    type fixedValue;
    value uniform (0.277164 -0.114805 0);
  }
  outlet
  {
    type zeroGradient;
  }
} 	// ************************************************************************* //

