/*--------------------------------*- C++ -*----------------------------------*\
  =========                 |
  \\      /  F ield         | OpenFOAM: The Open Source CFD Toolbox
   \\    /   O peration     | Website:  https://openfoam.org
    \\  /    A nd           | Version:  6
     \\/     M anipulation  |
\*---------------------------------------------------------------------------*/
FoamFile
{
    version     2.0;
    format      ascii;
    class       surfaceScalarField;
    location    "10";
    object      phi;
}
// * * * * * * * * * * * * * * * * * * * * * * * * * * * * * * * * * * * * * //

dimensions      [1 0 -1 0 0 0 0];

internalField   nonuniform List<scalar> 
852
(
-0.00158129
0.0015999
-0.00175859
0.000177145
-0.0013959
-0.000362889
-0.000896558
-0.000499573
-0.000396758
-0.00050004
8.16437e-06
-0.000405134
0.00027566
-0.000267655
0.00042
-0.000144458
0.00046828
-4.8368e-05
0.000450407
1.78061e-05
0.000392249
5.81042e-05
0.000312521
7.96835e-05
0.00022177
9.07117e-05
0.000122574
9.91577e-05
0.000119814
0.000121988
-0.000125738
9.3822e-05
2.81097e-05
5.05045e-05
4.32765e-05
3.77432e-05
1.27259e-05
4.15462e-05
-3.83767e-06
4.94891e-05
-7.98008e-06
5.36697e-05
-4.22432e-06
5.37182e-05
-9.63486e-08
5.30315e-05
6.37058e-07
5.25266e-05
4.54836e-07
5.22237e-05
2.52663e-07
5.18588e-05
3.14644e-07
5.01112e-05
1.69753e-06
4.07814e-05
9.2802e-06
7.12552e-06
3.36077e-05
-5.98273e-05
6.6907e-05
-0.000165651
0.000105773
-0.000218477
5.27577e-05
-0.000222372
-0.000968845
0.00261942
-0.00116822
0.00037625
-0.0010233
-0.000508151
-0.000695628
-0.000827655
-0.000324151
-0.000871956
-1.42806e-06
-0.000728254
0.000231851
-0.000501243
0.000369096
-0.000281929
0.000426058
-0.000105488
0.000424596
1.91606e-05
0.000386103
9.65228e-05
0.000328441
0.000137294
0.000266533
0.000152581
0.000217114
0.000148545
0.000185158
0.000151741
5.24516e-05
0.000132639
5.23959e-05
-9.89128e-05
-3.54409e-05
-4.58153e-05
-2.50141e-05
1.67564e-06
-4.23562e-06
2.52407e-05
-1.08573e-05
3.90161e-05
-1.76299e-05
5.01075e-05
-1.90881e-05
5.35171e-05
-7.6514e-06
5.35239e-05
-1.20077e-07
5.374e-05
4.0489e-07
5.38386e-05
3.40512e-07
5.38604e-05
2.15212e-07
5.37592e-05
4.00211e-07
5.3396e-05
2.0448e-06
5.33963e-05
9.2627e-06
4.97637e-05
3.72208e-05
5.5658e-05
6.09915e-05
6.74683e-05
9.3938e-05
7.08005e-05
4.9396e-05
-0.000161252
-0.000631876
0.00333057
-0.000840481
0.000584488
-0.000794024
-0.000555068
-0.000540249
-0.001082
-0.000222062
-0.00119078
5.51404e-05
-0.00100605
0.000254189
-0.000700758
0.000369696
-0.000397779
0.000415356
-0.000151387
0.000411137
2.32191e-05
0.000376128
0.000131426
0.00032558
0.000187772
0.000269379
0.000208736
0.000208458
0.000209434
0.000150104
0.00021007
7.90576e-05
0.00020367
0.000131445
-4.24772e-05
-4.56899e-06
-2.28467e-05
-4.46597e-05
1.38197e-05
-4.09148e-05
3.50912e-05
-3.21402e-05
4.61485e-05
-2.86973e-05
5.82101e-05
-3.11593e-05
5.07006e-05
5.07247e-05
5.12749e-05
5.17612e-05
5.21222e-05
5.26682e-05
5.48585e-05
6.42658e-05
0.000101628
0.000156883
5.72615e-06
0.000222454
2.8354e-05
0.000236768
3.5066e-05
6.1391e-05
-0.000473258
0.00390949
-0.000713566
0.000824367
-0.000701853
-0.000567302
-0.000442701
-0.00134185
-0.000118743
-0.00151558
0.000144749
-0.00127034
0.000316963
-0.000873617
0.000403635
-0.000484929
0.000425802
-0.000173886
0.000406522
4.22779e-05
0.000365085
0.000172719
0.00031499
0.000237774
0.000264015
0.000259653
0.000215741
0.000257669
0.000178911
0.000246876
0.000159029
0.000223535
0.000137652
0.000152811
0.000120541
4.82143e-06
9.97842e-05
1.61775e-05
7.58724e-05
-2.07572e-05
6.46159e-05
-2.96669e-05
6.1459e-05
-2.89909e-05
5.91111e-05
-2.63562e-05
4.93663e-05
-2.142e-05
5.78836e-05
-8.6707e-06
6.00009e-05
-2.26916e-06
5.95425e-05
3.07028e-07
5.86606e-05
7.30778e-07
5.9216e-05
-7.06495e-07
6.32628e-05
-4.19785e-06
7.34511e-05
-1.03395e-05
9.3288e-05
-1.99885e-05
0.000127673
-3.45374e-05
0.00017038
-3.69859e-05
0.000235737
-3.70099e-05
0.000265453
5.34074e-06
0.000309783
-0.000437521
0.00447792
-0.000728834
0.00111531
-0.000701305
-0.000595252
-0.000373881
-0.00166997
-7.48992e-06
-0.00188299
0.000257738
-0.00153658
0.000402758
-0.00101948
0.000452378
-0.000535175
0.000441244
-0.000163187
0.000398879
8.43557e-05
0.000345825
0.000225589
0.000293874
0.00028961
0.00024886
0.000304597
0.000214076
0.000292409
0.000194508
0.000266417
0.000192159
0.000225867
0.000188826
0.000156132
0.000142905
5.0734e-05
0.000127064
3.20104e-05
0.00010568
6.2058e-07
9.03455e-05
-1.43391e-05
8.05327e-05
-1.91837e-05
7.30525e-05
-1.88809e-05
6.63734e-05
-1.47448e-05
6.45558e-05
-6.85585e-06
6.31901e-05
-9.05339e-07
6.13641e-05
2.13165e-06
5.96197e-05
2.47398e-06
5.87517e-05
1.60462e-07
5.96266e-05
-5.07369e-06
6.3124e-05
-1.38381e-05
7.01667e-05
-2.70325e-05
7.86187e-05
-4.29914e-05
9.45672e-05
-5.29374e-05
0.000116312
-5.87589e-05
0.000165488
-4.38407e-05
0.000410571
6.46931e-05
0.000322133
8.82329e-05
0.00024395
7.79814e-05
0.000247306
-0.00050114
0.00513554
-0.000787792
0.00140189
-0.000661197
-0.000721838
-0.000238035
-0.00209354
0.000164795
-0.00228695
0.000413895
-0.00178693
0.000509705
-0.00111635
0.000503234
-0.000529492
0.000446347
-0.000106842
0.00037512
0.000155229
0.000309135
0.000291351
0.000256086
0.000342523
0.000217629
0.000342971
0.000193496
0.000316493
0.000183546
0.000276336
0.000184382
0.000225012
0.000181739
0.000158763
0.000148875
8.35891e-05
0.000134052
4.6826e-05
0.000117701
1.69664e-05
0.000103491
-1.34896e-07
9.20944e-05
-7.79156e-06
8.26165e-05
-9.40713e-06
7.46904e-05
-6.82224e-06
6.9314e-05
-1.48228e-06
6.51883e-05
3.21796e-06
6.14982e-05
5.81985e-06
5.80525e-05
5.9179e-06
5.48929e-05
3.31839e-06
5.20314e-05
-2.2139e-06
4.91852e-05
-1.09936e-05
4.52425e-05
-2.30915e-05
3.89952e-05
-3.67462e-05
3.36196e-05
-4.75642e-05
2.92172e-05
-5.43593e-05
3.53494e-05
-4.99758e-05
0.000115019
-1.49788e-05
0.000209533
-6.28304e-06
0.000189768
9.77473e-05
0.000440677
-0.000495325
0.00581496
-0.000569646
0.00147677
-0.00026009
-0.00103039
0.00017615
-0.00252939
0.000525533
-0.00263742
0.000669011
-0.00193193
0.000647401
-0.00109606
0.000544428
-0.000427489
0.000424332
1.26068e-05
0.000321479
0.000257669
0.000246256
0.000366322
0.000197213
0.000391415
0.000169156
0.000370939
0.000156939
0.000328657
0.000156237
0.000277007
0.000161218
0.000220012
0.000161677
0.000158292
0.00014684
9.84175e-05
0.000135326
5.83329e-05
0.000122548
2.97386e-05
0.000110098
1.231e-05
9.87931e-05
3.50874e-06
8.86522e-05
7.2967e-07
7.97784e-05
2.04795e-06
7.26021e-05
5.69072e-06
6.65606e-05
9.25656e-06
6.10477e-05
1.13301e-05
5.56557e-05
1.13074e-05
5.00277e-05
8.94396e-06
4.36569e-05
4.15444e-06
3.56429e-05
-2.98186e-06
2.44887e-05
-1.19398e-05
8.81523e-06
-2.10751e-05
-1.09855e-05
-2.77659e-05
-3.43327e-05
-3.10144e-05
-5.32921e-05
-3.10183e-05
-3.2762e-05
-3.55097e-05
4.1624e-05
-8.06681e-05
0.000153113
-1.3739e-05
0.000597733
0.00057096
0.00545732
0.000921366
0.00112756
0.00124282
-0.00134931
0.00139256
-0.00267712
0.00132756
-0.00257325
0.00109772
-0.00170399
0.00080913
-0.000809158
0.000545437
-0.000164977
0.000348494
0.000208798
0.000221417
0.000384293
0.000149393
0.000438079
0.000115286
0.000425366
0.000105217
0.000380918
0.000109424
0.000324397
0.000121054
0.000265345
0.000133867
0.00020718
0.000141031
0.000151115
0.00013834
0.000101099
0.000132206
6.44605e-05
0.000123223
3.87152e-05
0.000112967
2.25609e-05
0.000102511
1.39599e-05
9.24003e-05
1.08355e-05
8.30359e-05
1.1408e-05
7.47467e-05
1.39759e-05
6.72945e-05
1.67051e-05
6.02482e-05
1.83727e-05
5.31557e-05
1.83964e-05
4.54915e-05
1.66047e-05
3.65222e-05
1.31205e-05
2.5117e-05
8.41997e-06
9.5738e-06
3.6002e-06
-1.2284e-05
7.79522e-07
-4.303e-05
2.97696e-06
-8.69859e-05
1.29389e-05
-0.000150434
3.24281e-05
-0.000242728
5.67843e-05
-0.000385485
6.20923e-05
-0.000465477
6.62604e-05
0.000156228
0.00566677
0.00676237
0.00544125
-2.4592e-05
0.00400845
-0.00124067
0.00266545
-0.00123095
0.00159633
-0.000637566
0.000861428
-7.64906e-05
0.000413738
0.000281311
0.000170352
0.00045138
5.49369e-05
0.000499255
1.34872e-05
0.000479272
1.21324e-05
0.000426575
3.05777e-05
0.000362388
5.70161e-05
0.00029791
8.45054e-05
0.000237826
0.000107947
0.00018372
0.000123214
0.000135836
0.000128804
9.54993e-05
0.000127879
6.53779e-05
0.000122353
4.42354e-05
0.000114109
3.07986e-05
0.00010456
2.35027e-05
9.46368e-05
2.07535e-05
8.49677e-05
2.1072e-05
7.59265e-05
2.30121e-05
6.7469e-05
2.51576e-05
5.93027e-05
2.65342e-05
5.10151e-05
2.66793e-05
4.20872e-05
2.5528e-05
3.18395e-05
2.33635e-05
1.93227e-05
2.09322e-05
3.15353e-06
1.97649e-05
-1.86612e-05
2.25899e-05
-4.92639e-05
3.35755e-05
-9.47582e-05
5.84296e-05
-0.000168112
0.000105779
-0.000298905
0.000187577
-0.000531032
0.000294223
-0.000723255
0.000258493
-0.000539954
0.00566274
0.000779317
0.0039204
0.000497895
0.00222166
0.000461311
0.00100239
0.000576596
0.000293209
0.00062987
-4.47358e-05
0.000617843
-0.000172195
0.000578126
-0.000191185
0.000517855
-0.000158402
0.000446269
-0.000104568
0.000372615
-4.62623e-05
0.00030401
8.00594e-06
0.000243599
5.40561e-05
0.00019175
8.91457e-05
0.000148614
0.000111886
0.000113083
0.000123084
8.42922e-05
0.000125703
6.27506e-05
0.000122341
4.75899e-05
0.000115261
3.78708e-05
0.000106182
3.25748e-05
9.62826e-05
3.06461e-05
8.63297e-05
3.10181e-05
7.67434e-05
3.25918e-05
6.75795e-05
3.43149e-05
5.86495e-05
3.54577e-05
4.96404e-05
3.56819e-05
4.01884e-05
3.49737e-05
2.99333e-05
3.36122e-05
1.85804e-05
3.22788e-05
5.97773e-06
3.23613e-05
-7.81308e-06
3.63746e-05
-2.23637e-05
4.81202e-05
-3.69759e-05
7.30365e-05
-5.08746e-05
0.000119673
-6.13689e-05
0.000198068
-5.2599e-05
0.000285452
4.90836e-06
0.000200987
-0.000529412
-0.000474121
0.00123352
-0.000706015
0.000727535
-0.000850257
0.000602719
-0.000888999
0.00061285
-0.000853328
0.000592579
-0.00076237
0.000525959
-0.000632917
0.00044816
-0.000488486
0.000373134
-0.000347701
0.000305319
-0.000221795
0.000246613
-0.000115467
0.000197627
-2.8539e-05
0.000156637
3.83073e-05
0.000124882
8.39455e-05
0.00010296
0.000111322
8.56946e-05
0.000124662
7.09412e-05
0.000128058
5.93446e-05
0.000124928
5.07105e-05
0.000117925
4.48648e-05
0.000108894
4.15963e-05
9.89945e-05
4.05364e-05
8.88968e-05
4.11067e-05
7.89351e-05
4.25445e-05
6.91861e-05
4.4055e-05
5.95808e-05
4.50542e-05
4.99962e-05
4.52576e-05
4.0349e-05
4.4612e-05
3.07438e-05
4.32086e-05
2.17416e-05
4.1272e-05
1.4893e-05
3.92012e-05
1.30321e-05
3.82268e-05
2.13657e-05
3.97783e-05
5.02402e-05
4.4154e-05
0.000119484
5.04222e-05
0.00026446
5.30858e-05
0.000508517
4.13909e-05
0.000676603
3.28989e-05
0.000152838
-0.0047067
-0.00552336
-0.00432815
-0.00364039
-0.00308058
-0.00251291
-0.00196709
-0.00148898
-0.00108946
-0.000765541
-0.000509923
-0.000313435
-0.000166324
-6.05729e-05
1.30883e-05
6.45458e-05
9.85018e-05
0.000117515
0.000124795
0.000123341
0.000115959
0.000105221
9.3315e-05
8.18526e-05
7.16896e-05
6.2902e-05
5.49948e-05
4.71948e-05
3.86742e-05
2.86869e-05
1.66939e-05
2.5296e-06
-1.27739e-05
-2.68008e-05
-3.6905e-05
-4.14725e-05
-4.45476e-05
-6.11789e-05
-8.92049e-05
)
;

boundaryField
{
    floor
    {
        type            calculated;
        value           nonuniform List<scalar> 
29
(
0
0
0
0
0
0
0
0
0
0
0
0
0
0
0
0
0
0
0
0
3.8184e-06
9.64312e-06
1.41033e-05
1.70469e-05
2.7087e-06
3.66801e-06
8.57801e-06
1.15847e-05
1.22781e-05
)
;
    }
    ceiling
    {
        type            calculated;
        value           nonuniform List<scalar> 
43
(
4.46296e-05
4.06541e-05
3.74884e-05
3.86392e-05
4.16819e-05
4.41163e-05
4.601e-05
4.73902e-05
4.83541e-05
4.90541e-05
4.96038e-05
5.00675e-05
5.04797e-05
5.0861e-05
5.1202e-05
5.14859e-05
5.17231e-05
5.19125e-05
5.205e-05
5.2149e-05
5.22317e-05
5.23198e-05
5.24267e-05
5.25539e-05
5.26922e-05
5.28272e-05
5.29461e-05
5.30422e-05
5.31172e-05
5.31804e-05
5.32494e-05
5.33498e-05
5.35146e-05
5.37896e-05
5.42428e-05
5.49748e-05
5.61464e-05
5.80079e-05
6.09098e-05
7.15977e-05
3.54934e-05
3.23204e-05
1.81932e-05
)
;
    }
    sWall
    {
        type            calculated;
        value           uniform -0.000103346;
    }
    nWall
    {
        type            calculated;
        value           nonuniform List<scalar> 6(-3.55408e-06 -3.59977e-06 -3.93992e-06 -5.63122e-06 -5.64554e-06 -7.97629e-06);
    }
    sideWalls
    {
        type            empty;
        value           nonuniform 0();
    }
    glass1
    {
        type            calculated;
        value           nonuniform List<scalar> 9(-1.87122e-05 -5.08359e-05 -7.94831e-05 -0.000105935 -0.000131232 -0.000156746 -0.000184057 -0.00021313 -0.000244788);
    }
    glass2
    {
        type            calculated;
        value           nonuniform List<scalar> 2(-2.39635e-05 -2.70638e-05);
    }
    sun
    {
        type            calculated;
        value           uniform 0;
    }
    heatsource1
    {
        type            calculated;
        value           nonuniform List<scalar> 3(2.00717e-07 2.0104e-07 2.01297e-07);
    }
    heatsource2
    {
        type            calculated;
        value           nonuniform List<scalar> 4(5.02019e-08 5.03442e-08 0 0);
    }
    Table_master
    {
        type            calculated;
        value           nonuniform List<scalar> 9(-1.50746e-07 -1.50973e-07 -1.50997e-07 -1.51002e-07 -1.51003e-07 -1.51002e-07 -1.50999e-07 -1.50983e-07 -1.50827e-07);
    }
    Table_slave
    {
        type            calculated;
        value           nonuniform List<scalar> 9(1.50447e-07 1.5069e-07 1.50707e-07 1.50714e-07 1.50718e-07 1.50718e-07 1.50715e-07 1.50703e-07 1.50536e-07);
    }
    inlet
    {
        type            calculated;
        value           uniform -0.0064672;
    }
    outlet
    {
        type            calculated;
        value           nonuniform List<scalar> 2(0.00476431 0.000775035);
    }
}


// ************************************************************************* //
