/*--------------------------------*- C++ -*----------------------------------*\
  =========                 |
  \\      /  F ield         | OpenFOAM: The Open Source CFD Toolbox
   \\    /   O peration     | Website:  https://openfoam.org
    \\  /    A nd           | Version:  6
     \\/     M anipulation  |
\*---------------------------------------------------------------------------*/
FoamFile
{
    version     2.0;
    format      ascii;
    class       volScalarField;
    location    "400";
    object      nut;
}
// * * * * * * * * * * * * * * * * * * * * * * * * * * * * * * * * * * * * * //

dimensions      [0 2 -1 0 0 0 0];

internalField   nonuniform List<scalar> 
459
(
0.000676964
0.000700202
0.000645443
0.000667868
0.000692926
0.000717022
0.000740222
0.000763124
0.000786678
0.00081011
0.000830277
0.000846155
0.000856955
0.000861928
0.000857215
0.00031007
0.000290004
0.000255141
0.000227544
0.000213002
0.000206618
0.000208635
0.000221554
0.000235874
0.000248019
0.000255098
0.000253553
0.000250901
0.000252907
0.000263315
0.000284716
0.000283004
0.000254644
0.000243736
0.00113875
0.00211947
0.00164226
0.00218593
0.0024086
0.00261444
0.00281774
0.00300324
0.00314861
0.00324846
0.00329439
0.00325237
0.0030647
0.00263341
0.00185017
0.000928398
0.000583554
0.000398182
0.00117549
0.0010145
0.000866676
0.000710285
0.000602332
0.000572569
0.000657278
0.000752143
0.000824859
0.000865018
0.000865474
0.000863269
0.000901845
0.00102582
0.00133373
0.00128296
0.00106488
0.000335395
0.00156002
0.00355574
0.00177226
0.00305313
0.00363671
0.00390907
0.00412705
0.00430826
0.0044467
0.00454344
0.00459485
0.00456622
0.00439245
0.00396658
0.00316707
0.00203797
0.000968427
0.000576861
0.00156096
0.00129869
0.000963336
0.000706241
0.000488026
0.000298717
0.000315949
0.000337894
0.000361546
0.000388732
0.000422483
0.00046693
0.000530175
0.000626704
0.00202376
0.00215299
0.00195694
0.000514627
0.00196977
0.00543263
0.00217967
0.00306025
0.00417478
0.00453093
0.00473933
0.00490647
0.005046
0.00516151
0.00528482
0.00539661
0.00544019
0.00530619
0.00481774
0.00377253
0.00218722
0.000919823
0.002144
0.0025677
0.00214469
0.00168749
0.00129022
0.000915841
0.000623268
0.000617087
0.000615762
0.000618626
0.000626774
0.000641868
0.000666532
0.000705755
0.00077143
0.00245405
0.002589
0.0024349
0.00074548
0.00235952
0.00753761
0.00337743
0.00284999
0.00407307
0.00460369
0.00484699
0.00501218
0.00514125
0.00525793
0.00545389
0.00572954
0.00605935
0.00638409
0.00660417
0.00661029
0.00633843
0.00581302
0.00543937
0.0049776
0.00460721
0.00433177
0.00407867
0.00384797
0.00364011
0.00350991
0.00339302
0.00328205
0.00317683
0.00308277
0.00301147
0.00297749
0.0029905
0.00306707
0.00293909
0.00276935
0.00252729
0.000973675
0.000837757
0.000719464
0.00273115
0.00951962
0.00572388
0.00359757
0.00361316
0.00410441
0.00449896
0.00476674
0.00490169
0.00500064
0.00520679
0.00552969
0.00597886
0.00652909
0.00708123
0.00748883
0.00762585
0.00743257
0.00702709
0.0065757
0.00619846
0.00590082
0.00565929
0.00545511
0.00526999
0.0050994
0.00493888
0.00478079
0.00461209
0.00441892
0.00419617
0.00395521
0.00371305
0.00346708
0.00320193
0.00293041
0.00262967
0.00217471
0.00160157
0.000744001
0.00305482
0.0108795
0.00874146
0.00603988
0.00448049
0.00397734
0.00417045
0.00452875
0.00470261
0.00479671
0.00493672
0.00516104
0.00552223
0.00606415
0.00673058
0.00733281
0.00771881
0.00779963
0.00762364
0.00732538
0.00701713
0.00673906
0.00649636
0.00628254
0.00608846
0.00591364
0.00576307
0.0056358
0.00551914
0.0053845
0.00519038
0.00490465
0.00453508
0.00411757
0.00367647
0.00322462
0.00275642
0.00224545
0.00167807
0.000789482
0.00309595
0.0100626
0.00903855
0.00825859
0.00675522
0.00562921
0.00511615
0.00497272
0.00492883
0.0048863
0.00488442
0.00495899
0.00514956
0.00549518
0.00599912
0.00657858
0.00708644
0.00739123
0.00746422
0.00737212
0.00720006
0.00700096
0.00680104
0.00660965
0.00642913
0.00626729
0.00613609
0.00604517
0.00599986
0.00599389
0.00599574
0.00593747
0.00573946
0.00537594
0.00486796
0.00426933
0.00365032
0.0030684
0.00258965
0.0014234
0.00297629
0.0034596
0.00641964
0.00708726
0.00679979
0.00623864
0.00572963
0.00535564
0.0050925
0.00491651
0.00483499
0.00484929
0.00496392
0.00517872
0.00548681
0.00586515
0.00625833
0.00658605
0.00679077
0.00686859
0.00685015
0.00676992
0.00665834
0.00653444
0.00640919
0.00629285
0.00619583
0.00612842
0.00610151
0.0061263
0.00620954
0.00633938
0.00646869
0.00656745
0.00661493
0.00660772
0.00642833
0.00590111
0.00531058
0.00154126
0.0135917
0.0135576
0.00896836
0.00730906
0.00639872
0.00581646
0.00542921
0.00518093
0.00505276
0.00504418
0.00513075
0.0052777
0.00545838
0.00565911
0.00586987
0.00607262
0.00624303
0.00636323
0.00642921
0.0064465
0.00643343
0.00640235
0.00636179
0.00632
0.00628308
0.0062563
0.00624553
0.00625836
0.00630313
0.00638204
0.00648463
0.00659246
0.00664717
0.00659468
0.00637078
0.00589227
0.00491121
0.00159872
0.00519889
0.0107085
0.00843037
0.00709946
0.00628954
0.00577148
0.00546353
0.00533287
0.00535636
0.00549879
0.00571197
0.00594459
0.00615539
0.00631692
0.00642345
0.0064834
0.00651156
0.0065226
0.00652741
0.00653203
0.0065391
0.00654838
0.00655831
0.00656694
0.00657233
0.00657309
0.00656875
0.00656028
0.00655049
0.00654171
0.00652169
0.00646592
0.00635618
0.00615848
0.00582252
0.00527728
0.00459471
0.00173504
0.00170783
0.00233343
0.00375989
0.00315568
0.00271711
0.0025099
0.0022516
0.00202816
0.00184877
0.00170964
0.00160721
0.00153974
0.00150335
0.00149126
0.00149486
0.00150622
0.00151861
0.00152807
0.00153311
0.00153396
0.00153177
0.00152794
0.00152349
0.00151923
0.00151553
0.00151243
0.00150975
0.00150722
0.00150448
0.0015011
0.00149656
0.00149017
0.00148186
0.00147147
0.00145734
0.0014371
0.00140576
0.00135416
0.00131059
0.00128839
)
;

boundaryField
{
    floor
    {
        type            nutkWallFunction;
        Cmu             0.09;
        kappa           0.41;
        E               9.8;
        value           nonuniform List<scalar> 
29
(
0.000103785
3.47217e-05
3.19809e-05
2.71612e-05
2.32828e-05
2.12125e-05
2.02984e-05
2.05881e-05
2.24322e-05
2.44593e-05
2.61652e-05
2.71543e-05
2.6939e-05
2.65684e-05
2.68482e-05
2.82967e-05
3.12514e-05
3.10143e-05
2.70856e-05
2.55609e-05
2.55608e-05
3.81346e-05
6.15494e-05
9.02809e-05
0.000103785
3.47216e-05
4.6493e-05
6.94293e-05
0.00011126
)
;
    }
    ceiling
    {
        type            nutkWallFunction;
        Cmu             0.09;
        kappa           0.41;
        E               9.8;
        value           nonuniform List<scalar> 
43
(
0.000201498
0.000269705
0.000418696
0.000356443
0.000310507
0.000288534
0.000260869
0.000236665
0.000217028
0.000201655
0.000190251
0.000182696
0.000178605
0.000177243
0.000177648
0.000178926
0.000180319
0.000181383
0.000181949
0.000182044
0.000181797
0.000181367
0.000180866
0.000180386
0.000179971
0.000179621
0.00017932
0.000179034
0.000178725
0.000178345
0.000177833
0.000177112
0.000176175
0.000175003
0.000173408
0.00017112
0.000167572
0.000161711
0.000156742
0.000154206
0.000337825
0.000388003
0.000563232
)
;
    }
    sWall
    {
        type            nutkWallFunction;
        Cmu             0.09;
        kappa           0.41;
        E               9.8;
        value           uniform 0.000201542;
    }
    nWall
    {
        type            nutkWallFunction;
        Cmu             0.09;
        kappa           0.41;
        E               9.8;
        value           nonuniform List<scalar> 6(8.71045e-05 9.0103e-05 9.56276e-05 0.000189298 0.000204461 0.000154215);
    }
    sideWalls
    {
        type            empty;
    }
    glass1
    {
        type            nutkWallFunction;
        Cmu             0.09;
        kappa           0.41;
        E               9.8;
        value           nonuniform List<scalar> 9(8.18421e-05 0.000137065 0.000185152 0.000230542 0.000272769 0.000312346 0.000346357 0.00035066 0.000338162);
    }
    glass2
    {
        type            nutkWallFunction;
        Cmu             0.09;
        kappa           0.41;
        E               9.8;
        value           nonuniform List<scalar> 2(0.0001696 0.000182887);
    }
    sun
    {
        type            nutkWallFunction;
        Cmu             0.09;
        kappa           0.41;
        E               9.8;
        value           nonuniform List<scalar> 
14
(
8.1882e-05
8.47421e-05
7.79861e-05
8.07609e-05
8.38485e-05
8.68048e-05
8.96402e-05
9.24288e-05
9.52865e-05
9.81194e-05
0.00010055
0.000102458
0.000103754
0.00010435
)
;
    }
    heatsource1
    {
        type            nutkWallFunction;
        Cmu             0.09;
        kappa           0.41;
        E               9.8;
        value           nonuniform List<scalar> 3(0.000117648 0.000101452 8.71054e-05);
    }
    heatsource2
    {
        type            nutkWallFunction;
        Cmu             0.09;
        kappa           0.41;
        E               9.8;
        value           nonuniform List<scalar> 4(0.00011228 7.02673e-05 7.02673e-05 0.000117023);
    }
    Table_master
    {
        type            nutkWallFunction;
        Cmu             0.09;
        kappa           0.41;
        E               9.8;
        value           nonuniform List<scalar> 9(3.31647e-05 3.55088e-05 3.84703e-05 4.16346e-05 4.52391e-05 4.967e-05 5.54382e-05 6.35303e-05 7.56593e-05);
    }
    Table_slave
    {
        type            nutkWallFunction;
        Cmu             0.09;
        kappa           0.41;
        E               9.8;
        value           nonuniform List<scalar> 9(7.52303e-05 7.44602e-05 7.4295e-05 7.46522e-05 7.5667e-05 7.75425e-05 8.0596e-05 8.54243e-05 9.34383e-05);
    }
    inlet
    {
        type            calculated;
        value           uniform 3.3541e-05;
    }
    outlet
    {
        type            calculated;
        value           nonuniform List<scalar> 2(0.00170783 0.00233343);
    }
}


// ************************************************************************* //
