/*--------------------------------*- C++ -*----------------------------------*\
  =========                 |
  \\      /  F ield         | OpenFOAM: The Open Source CFD Toolbox
   \\    /   O peration     | Website:  https://openfoam.org
    \\  /    A nd           | Version:  6
     \\/     M anipulation  |
\*---------------------------------------------------------------------------*/
FoamFile
{
    version     2.0;
    format      ascii;
    class       surfaceScalarField;
    location    "400";
    object      phi;
}
// * * * * * * * * * * * * * * * * * * * * * * * * * * * * * * * * * * * * * //

dimensions      [1 0 -1 0 0 0 0];

internalField   nonuniform List<scalar> 
852
(
-0.00234815
0.00240547
-0.00256185
0.000213812
-0.00283364
0.000271909
-0.00314269
0.000309167
-0.00343081
0.000288237
-0.0036703
0.000239604
-0.0038417
0.000171515
-0.00392674
8.51538e-05
-0.00390673
-1.99008e-05
-0.00376077
-0.000145841
-0.00346975
-0.0002909
-0.00301862
-0.000451022
-0.0023742
-0.000644302
-0.00142427
-0.000949811
-0.00142319
-0.000578466
0.00058298
-0.000542329
-3.60154e-05
-0.00036184
-0.000180368
-0.000244504
-0.000117217
-0.000145094
-9.92912e-05
-2.07498e-05
-0.000124227
0.000121804
-0.000142437
0.000251645
-0.000129725
0.000352777
-0.000101015
0.000434684
-8.1791e-05
0.000502733
-6.79344e-05
0.000551361
-4.85148e-05
0.00055854
-7.06951e-06
0.000523554
3.50933e-05
0.000472602
5.1056e-05
0.000476688
-3.98121e-06
0.000616525
-0.000139734
0.000681015
-6.43872e-05
0.000685243
-0.001693
0.00424733
-0.00221754
0.000738474
-0.00262533
0.000679812
-0.00296587
0.000649818
-0.00326363
0.000586112
-0.00351024
0.000486331
-0.00369255
0.00035394
-0.00379566
0.000188379
-0.00380406
-1.13892e-05
-0.00370552
-0.000244266
-0.0034893
-0.000507003
-0.00314534
-0.000794866
-0.00267125
-0.00111828
-0.00213108
-0.00148987
-0.00172268
-0.00183148
9.70591e-05
-0.00181967
9.71236e-05
0.000761024
-0.000167792
0.000543419
0.000181716
0.00014081
0.000222368
-9.15602e-05
0.000115277
-0.000192878
2.14929e-06
-0.000296395
-2.05897e-05
-0.000216677
-0.000222035
-0.000189906
-0.000156377
-0.000188433
-0.000102371
-0.000204292
-6.58175e-05
-0.000239428
-3.26869e-05
-0.000295468
7.6358e-06
-0.000359216
5.67833e-05
-0.000421133
9.71084e-05
-0.000470352
0.000100367
-0.000481154
6.90503e-06
-0.000525057
-9.57602e-05
-0.000522141
-6.7211e-05
0.000174326
-0.0012507
0.00571913
-0.00189535
0.00138324
-0.0023366
0.00112118
-0.00267322
0.000986559
-0.00296306
0.000876058
-0.00320683
0.000730215
-0.00339574
0.000542963
-0.00351774
0.000310502
-0.0035601
3.10788e-05
-0.00351418
-0.000290068
-0.00338237
-0.0006387
-0.00317699
-0.00100014
-0.00292622
-0.00136894
-0.00268657
-0.0017294
-0.00250736
-0.00201057
-0.00221391
-0.00211301
-0.00211667
-0.00083365
0.000675819
-0.000943795
0.000291986
-0.000898979
0.000177678
-0.000841851
5.82748e-05
-0.00077182
-6.77577e-05
-0.000542757
-0.00024953
-0.000764518
-0.000920624
-0.00102273
-0.00108827
-0.00112069
-0.00111279
-0.00105574
-0.00095836
-0.000857713
-0.000561017
-0.000289647
-0.00060084
-5.57705e-05
-0.000635137
-3.27319e-05
-0.000451574
-0.000937974
0.00693705
-0.00161651
0.00206189
-0.00200473
0.00150951
-0.00230624
0.00128818
-0.00256391
0.00113384
-0.00278096
0.000947379
-0.00295392
0.000716039
-0.00307415
0.000430844
-0.0031301
8.71384e-05
-0.00311462
-0.000305436
-0.00304486
-0.000708348
-0.00295798
-0.00108691
-0.0029016
-0.00142521
-0.00292668
-0.00170421
-0.00305481
-0.00188232
-0.00327574
-0.00189196
-0.0038887
-0.00150359
-0.00316603
-0.000716331
-0.0023678
-0.000122286
-0.00212919
5.34924e-05
-0.0019903
3.89064e-05
-0.00190692
-2.49917e-05
-0.00185388
-0.000120681
-0.00190899
-0.000194312
-0.00174199
-0.000167031
-0.00157587
-0.000166167
-0.00140468
-0.000171224
-0.00123241
-0.000172309
-0.001062
-0.000170451
-0.000892476
-0.000169559
-0.000715401
-0.000177112
-0.000511765
-0.000203673
-0.000246879
-0.000264921
-0.00014259
-0.000393815
0.000187597
-0.000385834
0.000449034
-0.000294044
5.06397e-06
-0.00070195
0.00796876
-0.00138236
0.00274241
-0.00164907
0.00177633
-0.00188768
0.0015269
-0.00208803
0.00133432
-0.00224619
0.00110564
-0.00236533
0.000835296
-0.00244235
0.000507969
-0.00246554
0.000110439
-0.00242723
-0.000343635
-0.00235885
-0.000776613
-0.00230942
-0.00113623
-0.00231976
-0.00141476
-0.00241208
-0.00161178
-0.00258511
-0.00170918
-0.00282813
-0.00164883
-0.00300379
-0.00132783
-0.00287545
-0.000844555
-0.00255656
-0.000441067
-0.00227067
-0.000232287
-0.0020666
-0.000165047
-0.00192264
-0.000168845
-0.00183267
-0.000210535
-0.00177958
-0.000247287
-0.00168868
-0.000257824
-0.00158819
-0.000266547
-0.00148579
-0.00027351
-0.00138243
-0.000275558
-0.00127937
-0.000273407
-0.00117562
-0.000273191
-0.00106504
-0.000287583
-0.00093377
-0.000334835
-0.000764799
-0.000433782
-0.000574205
-0.000584299
-0.000209461
-0.000750468
0.000417305
-0.000920702
0.00141426
-0.000991791
0.00216024
-0.000746076
0.00184579
0.000314354
0.00187775
-0.000647832
0.00898983
-0.00128733
0.00338202
-0.00127979
0.00176891
-0.00140012
0.00164735
-0.00153533
0.00146963
-0.00160998
0.00118041
-0.00163592
0.000861346
-0.00162606
0.000498216
-0.00156716
5.16482e-05
-0.00146304
-0.000447642
-0.001369
-0.000870553
-0.00132929
-0.00117583
-0.00136917
-0.00137477
-0.00149391
-0.00148693
-0.00168947
-0.00151352
-0.00191396
-0.00142423
-0.00205481
-0.00118687
-0.00204027
-0.000858985
-0.00191044
-0.000570779
-0.00175769
-0.000384932
-0.00163092
-0.000291709
-0.00153909
-0.00026056
-0.00148352
-0.000266
-0.00144991
-0.000280784
-0.0014172
-0.000290421
-0.00138608
-0.00029756
-0.00135995
-0.000299523
-0.00134185
-0.000293552
-0.0013348
-0.000280353
-0.00134055
-0.000267331
-0.00135732
-0.000270699
-0.00137807
-0.000313982
-0.00139113
-0.00042062
-0.00137075
-0.00060457
-0.00125032
-0.000870794
-0.000941239
-0.00122968
-0.000282729
-0.0016502
0.000784181
-0.00181288
0.00128567
-0.000187032
0.0032011
-0.000888988
0.0102914
-0.00108891
0.00358205
-0.000609896
0.00129002
-0.000604678
0.00164224
-0.000749634
0.0016147
-0.000758835
0.00118972
-0.000660433
0.000763055
-0.00051023
0.000348123
-0.000334349
-0.000124123
-0.000175584
-0.000606298
-8.59365e-05
-0.000960092
-8.13483e-05
-0.00118031
-0.000163013
-0.001293
-0.000323446
-0.00132639
-0.000541481
-0.00129538
-0.000770892
-0.00119471
-0.000941862
-0.00101579
-0.00101376
-0.000786978
-0.00100896
-0.000575472
-0.000972376
-0.000421405
-0.000935518
-0.000328457
-0.000912852
-0.000283116
-0.000909353
-0.000269389
-0.000920151
-0.000269876
-0.000938007
-0.000272455
-0.000963096
-0.000272361
-0.000999151
-0.000263359
-0.00105311
-0.000239482
-0.00113531
-0.000198045
-0.00125831
-0.000144221
-0.00143256
-9.63436e-05
-0.00165931
-8.71295e-05
-0.00192896
-0.000150868
-0.00221746
-0.000315964
-0.00248706
-0.000601096
-0.00269349
-0.00102314
-0.00276431
-0.00157928
-0.00250853
-0.00206856
-0.00105308
-0.00164238
0.00219266
0.00160174
0.00915031
0.00203318
0.00315072
0.00183902
0.00148429
0.00141552
0.00206586
0.00105712
0.00197321
0.000960956
0.00128601
0.00104391
0.000680209
0.00123222
0.000159925
0.00143043
-0.000322217
0.00151313
-0.000688887
0.00148661
-0.000933468
0.00137793
-0.00107152
0.00120926
-0.00112423
0.000993609
-0.00111063
0.000743878
-0.00104554
0.000487471
-0.000938199
0.000266933
-0.000795145
0.00011324
-0.000633177
2.0735e-05
-0.000482859
-3.514e-05
-0.000365422
-7.65393e-05
-0.00028695
-0.000117222
-0.000242325
-0.000163846
-0.000222656
-0.00021656
-0.000217053
-0.000272981
-0.000215925
-0.000333007
-0.000212226
-0.000398131
-0.000198124
-0.000472456
-0.000165047
-0.000564619
-0.000105771
-0.000690204
-1.85264e-05
-0.000884525
9.80851e-05
-0.00120065
0.000229101
-0.00167881
0.000327402
-0.00231678
0.000322107
-0.00306714
0.00014937
-0.00391091
-0.000179267
-0.00497221
-0.000517874
-0.00623188
-0.00080879
-0.00596782
-0.00190634
-0.00358819
0.00965104
0.0127897
0.0101754
0.00409864
0.00771138
0.00453
0.0062969
0.0033878
0.0054314
0.00215161
0.00487095
0.00124078
0.00444647
0.000584506
0.00404155
8.28186e-05
0.00364966
-0.000296889
0.00327989
-0.000563595
0.00293257
-0.000724091
0.00260421
-0.000795758
0.00229045
-0.000796766
0.00198913
-0.000744107
0.00170517
-0.000654132
0.00145304
-0.000542907
0.00124755
-0.000427592
0.00108969
-0.000324884
0.000966616
-0.000242246
0.000864692
-0.000184919
0.000773922
-0.000151448
0.00068784
-0.000136468
0.000603712
-0.000132818
0.000521246
-0.00013335
0.000440867
-0.000131738
0.000364252
-0.0001214
0.00029441
-9.50944e-05
0.000234658
-4.59078e-05
0.000186881
2.93612e-05
0.000147885
0.000137192
0.000113752
0.000263344
8.06629e-05
0.000360599
3.9428e-05
0.00036345
-4.28244e-05
0.00023173
-0.000187165
-3.48186e-05
-0.00036698
-0.000337951
-0.000552812
-0.000622852
-0.000727603
-0.00173145
-0.0041122
0.00141505
0.00356419
0.00302387
0.00292127
0.00428197
0.00212981
0.00474597
0.00168771
0.00485002
0.00113684
0.00481597
0.000618658
0.00468405
0.000214845
0.00447229
-8.50249e-05
0.00419854
-0.000289732
0.00388831
-0.000413764
0.0035633
-0.000470643
0.00323963
-0.000472987
0.00293017
-0.000434546
0.00264587
-0.000369722
0.00239602
-0.000292951
0.00218635
-0.000217825
0.00201569
-0.000154117
0.00187292
-9.93683e-05
0.00175006
-6.19549e-05
0.00164065
-4.19321e-05
0.00153978
-3.54913e-05
0.00144445
-3.73866e-05
0.00135345
-4.22373e-05
0.00126707
-4.52545e-05
0.00118778
-4.2003e-05
0.00112085
-2.80515e-05
0.00107348
1.57362e-06
0.00105304
4.99051e-05
0.00106989
0.000120456
0.00113095
0.000202393
0.00123042
0.000261239
0.00134843
0.000245555
0.00146711
0.000113153
0.00155062
-0.000118215
0.00164169
-0.000428911
0.00184092
-0.000821972
0.00172719
-0.00161761
-0.0023401
-0.000165517
0.00372043
0.0019347
0.000821151
0.00308869
0.000975921
0.00384434
0.000932158
0.00432788
0.000653406
0.00458225
0.000364383
0.00466143
0.000135772
0.00460031
-2.3797e-05
0.00442772
-0.000117041
0.00418552
-0.000171462
0.00390621
-0.000191234
0.00361616
-0.000182831
0.00333558
-0.000153868
0.00307883
-0.000112868
0.00285459
-6.86025e-05
0.00266545
-2.85874e-05
0.00250849
2.95095e-06
0.00238472
2.4498e-05
0.0022883
3.45725e-05
0.00220987
3.65969e-05
0.002141
3.34794e-05
0.00207589
2.78335e-05
0.00201189
2.18664e-05
0.00194937
1.7366e-05
0.0018916
1.58743e-05
0.00184472
1.89358e-05
0.00181795
2.84524e-05
0.00181775
5.02153e-05
0.00185728
8.10381e-05
0.00194519
0.000114589
0.00207398
0.000132563
0.00221297
0.000106668
0.00231167
1.45661e-05
0.00231903
-0.000125462
0.00220171
-0.000311486
0.00192432
-0.000544467
0.00123386
-0.000927043
-0.00105448
-0.00190327
-0.00349666
0.000211738
0.00101866
0.00197801
0.00289183
0.00352532
0.00386827
0.00398111
0.00393294
0.0037902
0.00359182
0.00337258
0.00316083
0.00297733
0.00283441
0.00273563
0.00267702
0.00265034
0.00264578
0.00265189
0.00266056
0.00266658
0.00266738
0.00266261
0.00265374
0.00264379
0.00263733
0.00264086
0.00266668
0.00272388
0.00281521
0.00292503
0.00300931
0.0030016
0.00285392
0.00252019
0.00195329
0.00100464
)
;

boundaryField
{
    floor
    {
        type            calculated;
        value           nonuniform List<scalar> 
29
(
0
0
0
0
0
0
0
0
0
0
0
0
0
0
0
0
0
0
0
0
-4.1231e-06
-1.11123e-05
-9.01333e-06
-7.47992e-06
-9.68094e-07
-4.39328e-06
-1.01268e-05
-9.83655e-06
-6.22692e-06
)
;
    }
    ceiling
    {
        type            calculated;
        value           nonuniform List<scalar> 
43
(
1.76968e-05
1.41902e-05
1.21117e-05
1.43081e-05
1.66639e-05
1.8434e-05
2.00163e-05
2.15326e-05
2.30235e-05
2.44778e-05
2.58013e-05
2.70141e-05
2.81014e-05
2.90242e-05
2.9727e-05
3.01556e-05
3.02813e-05
3.01217e-05
2.97333e-05
2.91574e-05
2.85665e-05
2.8031e-05
2.75597e-05
2.71356e-05
2.67355e-05
2.63385e-05
2.59291e-05
2.54956e-05
2.50273e-05
2.45057e-05
2.39407e-05
2.33662e-05
2.28511e-05
2.24911e-05
2.23863e-05
2.23241e-05
2.2349e-05
2.25358e-05
2.17137e-05
2.29033e-05
1.57701e-05
1.21813e-05
9.36154e-06
)
;
    }
    sWall
    {
        type            calculated;
        value           uniform -0.000170661;
    }
    nWall
    {
        type            calculated;
        value           nonuniform List<scalar> 6(-3.2052e-05 -3.75805e-05 -4.45264e-05 -4.48066e-05 -5.16566e-05 -7.26358e-05);
    }
    sideWalls
    {
        type            empty;
        value           nonuniform 0();
    }
    glass1
    {
        type            calculated;
        value           nonuniform List<scalar> 9(-5.72129e-05 -0.000148751 -0.000221 -0.00027984 -0.00032966 -0.000373142 -0.00041246 -0.000460574 -0.000516404);
    }
    glass2
    {
        type            calculated;
        value           nonuniform List<scalar> 2(-0.000186864 -0.000203494);
    }
    sun
    {
        type            calculated;
        value           uniform 0;
    }
    heatsource1
    {
        type            calculated;
        value           nonuniform List<scalar> 3(2.0226e-07 2.02348e-07 2.02545e-07);
    }
    heatsource2
    {
        type            calculated;
        value           nonuniform List<scalar> 4(5.07147e-08 5.09771e-08 0 0);
    }
    Table_master
    {
        type            calculated;
        value           nonuniform List<scalar> 9(-1.53578e-07 -1.53496e-07 -1.53406e-07 -1.53328e-07 -1.5326e-07 -1.53199e-07 -1.53135e-07 -1.53064e-07 -1.52953e-07);
    }
    Table_slave
    {
        type            calculated;
        value           nonuniform List<scalar> 9(1.5207e-07 1.52131e-07 1.52185e-07 1.52239e-07 1.52291e-07 1.52339e-07 1.52386e-07 1.52434e-07 1.52467e-07);
    }
    inlet
    {
        type            calculated;
        value           uniform -0.000880519;
    }
    outlet
    {
        type            calculated;
        value           nonuniform List<scalar> 2(0.00205633 0.00157929);
    }
}


// ************************************************************************* //
