// -*- C++ -*-
// File generated by PyFoam - sorry for the ugliness

FoamFile
{
 version 2.0;
 format ascii;
 class volScalarField;
 location "600";
 object T;
}

dimensions [ 0 0 0 1 0 0 0 ];

internalField nonuniform List<scalar> 459
(
  303.583
  303.325
  303.311
  303.308
  303.304
  303.299
  303.295
  303.289
  303.281
  303.269
  303.257
  303.246
  303.238
  303.234
  303.235
  303.329
  303.307
  303.299
  303.301
  303.305
  303.309
  303.313
  303.317
  303.321
  303.325
  303.329
  303.333
  303.337
  303.34
  303.344
  303.348
  303.353
  303.358
  303.377
  303.757
  303.367
  303.344
  303.346
  303.349
  303.35
  303.347
  303.341
  303.326
  303.303
  303.277
  303.253
  303.234
  303.223
  303.219
  303.217
  303.217
  303.329
  303.29
  303.284
  303.287
  303.291
  303.296
  303.298
  303.3
  303.302
  303.304
  303.305
  303.307
  303.309
  303.311
  303.313
  303.317
  303.323
  303.333
  303.362
  303.938
  303.418
  303.379
  303.39
  303.403
  303.414
  303.418
  303.413
  303.39
  303.351
  303.306
  303.265
  303.236
  303.219
  303.213
  303.214
  303.216
  303.269
  303.268
  303.275
  303.285
  303.295
  303.302
  303.302
  303.303
  303.303
  303.304
  303.305
  303.305
  303.306
  303.307
  303.308
  303.311
  303.316
  303.324
  303.355
  304.121
  303.481
  303.416
  303.432
  303.459
  303.486
  303.504
  303.502
  303.467
  303.405
  303.336
  303.276
  303.234
  303.213
  303.208
  303.211
  303.218
  303.229
  303.242
  303.261
  303.28
  303.298
  303.314
  303.326
  303.336
  303.345
  303.353
  303.36
  303.366
  303.37
  303.374
  303.377
  303.378
  303.356
  303.338
  303.33
  303.354
  304.3
  303.56
  303.458
  303.469
  303.507
  303.551
  303.59
  303.588
  303.535
  303.446
  303.352
  303.276
  303.227
  303.203
  303.201
  303.21
  303.224
  303.241
  303.262
  303.286
  303.31
  303.332
  303.35
  303.365
  303.378
  303.389
  303.398
  303.405
  303.41
  303.412
  303.412
  303.409
  303.402
  303.385
  303.361
  303.342
  303.352
  303.422
  303.469
  303.475
  304.46
  303.662
  303.531
  303.52
  303.556
  303.612
  303.662
  303.642
  303.564
  303.454
  303.345
  303.259
  303.206
  303.186
  303.191
  303.211
  303.237
  303.265
  303.295
  303.325
  303.352
  303.375
  303.394
  303.409
  303.421
  303.431
  303.438
  303.444
  303.447
  303.446
  303.441
  303.434
  303.423
  303.406
  303.382
  303.359
  303.355
  303.384
  303.402
  303.436
  304.608
  303.825
  303.694
  303.665
  303.682
  303.728
  303.732
  303.662
  303.543
  303.408
  303.288
  303.205
  303.164
  303.161
  303.185
  303.223
  303.265
  303.306
  303.343
  303.376
  303.402
  303.424
  303.44
  303.452
  303.462
  303.469
  303.474
  303.477
  303.477
  303.474
  303.466
  303.456
  303.442
  303.425
  303.403
  303.38
  303.369
  303.377
  303.387
  303.415
  304.822
  304.237
  304.092
  304.006
  303.964
  303.904
  303.778
  303.603
  303.419
  303.263
  303.156
  303.105
  303.105
  303.14
  303.195
  303.259
  303.317
  303.366
  303.405
  303.433
  303.454
  303.47
  303.482
  303.49
  303.497
  303.501
  303.503
  303.503
  303.501
  303.497
  303.49
  303.478
  303.465
  303.449
  303.432
  303.416
  303.409
  303.421
  303.44
  303.561
  305.129
  304.853
  304.596
  304.361
  304.132
  303.832
  303.501
  303.221
  303.033
  302.943
  302.933
  302.982
  303.067
  303.16
  303.251
  303.339
  303.397
  303.436
  303.463
  303.483
  303.498
  303.508
  303.516
  303.521
  303.524
  303.526
  303.526
  303.525
  303.522
  303.52
  303.518
  303.518
  303.519
  303.525
  303.539
  303.56
  303.591
  303.623
  303.644
  303.696
  296.346
  298.215
  299.419
  300.266
  300.984
  301.592
  302.088
  302.473
  302.764
  302.996
  303.19
  303.304
  303.381
  303.435
  303.47
  303.494
  303.511
  303.523
  303.532
  303.538
  303.542
  303.545
  303.547
  303.548
  303.548
  303.549
  303.549
  303.55
  303.552
  303.554
  303.558
  303.566
  303.578
  303.596
  303.619
  303.642
  303.66
  303.681
  296.996
  298.836
  300.275
  301.254
  301.871
  302.325
  302.671
  302.929
  303.117
  303.251
  303.353
  303.421
  303.467
  303.498
  303.518
  303.533
  303.543
  303.55
  303.555
  303.558
  303.561
  303.563
  303.564
  303.566
  303.567
  303.568
  303.569
  303.57
  303.571
  303.573
  303.577
  303.582
  303.591
  303.603
  303.618
  303.636
  303.635
  303.664
  299.724
  299.646
  299.641
  301.482
  302.293
  302.683
  302.912
  303.081
  303.21
  303.308
  303.382
  303.436
  303.476
  303.503
  303.521
  303.533
  303.541
  303.546
  303.55
  303.553
  303.555
  303.558
  303.56
  303.562
  303.564
  303.566
  303.568
  303.57
  303.572
  303.574
  303.576
  303.579
  303.582
  303.585
  303.59
  303.6
  303.609
  303.614
  303.616
  303.655
)
;

boundaryField
{
  floor
  {
    type wallHeatTransfer;
    Tinf uniform 305.2;
    alphaWall uniform 0.24;
    value nonuniform List<scalar> 29
(
  303.426
  303.683
  303.62
  303.588
  303.592
  303.602
  303.615
  303.633
  303.651
  303.669
  303.687
  303.704
  303.72
  303.736
  303.751
  303.766
  303.782
  303.799
  303.814
  303.853
  303.853
  303.772
  303.731
  303.707
  303.426
  303.683
  303.665
  303.481
  303.393
)
;
  }
  ceiling
  {
    type wallHeatTransfer;
    Tinf uniform 303.2;
    alphaWall uniform 0.24;
    value nonuniform List<scalar> 43
(
  299.972
  299.887
  299.875
  301.589
  302.351
  302.718
  302.932
  303.089
  303.209
  303.3
  303.366
  303.414
  303.447
  303.469
  303.482
  303.489
  303.494
  303.497
  303.499
  303.5
  303.502
  303.503
  303.505
  303.507
  303.509
  303.511
  303.514
  303.517
  303.52
  303.524
  303.527
  303.531
  303.536
  303.541
  303.548
  303.558
  303.567
  303.571
  303.571
  303.603
  305.039
  304.786
  297.397
)
;
  }
  sWall
  {
    type wallHeatTransfer;
    Tinf uniform 315.2;
    alphaWall uniform 0.36;
    value uniform 301.324;
  }
  nWall
  {
    type wallHeatTransfer;
    Tinf uniform 307.2;
    alphaWall uniform 0.36;
    value nonuniform List<scalar> 6
(
  304.177
  304.125
  304.049
  304.191
  304.169
  304.233
)
;
  }
  sideWalls
  {
    type empty;
  }
  glass1
  {
    type wallHeatTransfer;
    Tinf uniform 315.2;
    alphaWall uniform 4.3;
    value nonuniform List<scalar> 9
(
  311.525
  310.896
  310.5
  310.198
  309.946
  309.718
  309.55
  309.621
  309.847
)
;
  }
  glass2
  {
    type wallHeatTransfer;
    Tinf uniform 307.2;
    alphaWall uniform 4.3;
    value nonuniform List<scalar> 2
(
  305.828
  305.921
)
;
  }
  sun
  {
    type wallHeatTransfer;
    Tinf uniform 305.2;
    alphaWall uniform 0.24;
    value nonuniform List<scalar> 14
(
  303.753
  303.51
  303.495
  303.485
  303.476
  303.467
  303.458
  303.449
  303.438
  303.427
  303.417
  303.41
  303.408
  303.413
)
;
  }
  heatsource1
  {
    type fixedGradient;
    gradient uniform 0;
  }
  heatsource2
  {
    type fixedGradient;
    gradient uniform 0;
  }
  Table_master
  {
    type zeroGradient;
  }
  Table_slave
  {
    type zeroGradient;
  }
  inlet
  {
    type fixedValue;
    value uniform 293.15;
  }
  outlet
  {
    type zeroGradient;
  }
} 	// ************************************************************************* //

