/*--------------------------------*- C++ -*----------------------------------*\
  =========                 |
  \\      /  F ield         | OpenFOAM: The Open Source CFD Toolbox
   \\    /   O peration     | Website:  https://openfoam.org
    \\  /    A nd           | Version:  6
     \\/     M anipulation  |
\*---------------------------------------------------------------------------*/
FoamFile
{
    version     2.0;
    format      ascii;
    class       volScalarField;
    location    "0";
    object      epsilon;
}
// * * * * * * * * * * * * * * * * * * * * * * * * * * * * * * * * * * * * * //

dimensions      [0 2 -3 0 0 0 0];

internalField   uniform 0.01;

boundaryField
{
    ".*"
    {
        type            epsilonWallFunction;
        Cmu             0.09;  //| model coefficient  | no (required) | 0.09
        kappa           0.41;  //| Von Karman constant| no (required) | 0.41
        E               9.8;   //| model coefficient  | no (required) | 9.8
        value           uniform 0.01;
    }
    sideWalls
    {
        type            empty;
    }
    outlet
    {
        type            zeroGradient;
    }
    inlet
    {
        type            turbulentMixingLengthDissipationRateInlet;
        mixingLength    0.00315;  // [m]
        value           uniform 1;
    }
}



// ************************************************************************* //
