// -*- C++ -*-
// File generated by PyFoam - sorry for the ugliness

FoamFile
{
 version 2.0;
 format ascii;
 class volScalarField;
 location "400";
 object T;
}

dimensions [ 0 0 0 1 0 0 0 ];

internalField nonuniform List<scalar> 459
(
  304.111
  303.885
  303.876
  303.875
  303.875
  303.873
  303.871
  303.868
  303.873
  303.894
  303.918
  303.932
  303.939
  303.944
  303.951
  304.389
  304.344
  304.312
  304.304
  304.322
  304.34
  304.355
  304.37
  304.385
  304.399
  304.414
  304.429
  304.445
  304.461
  304.477
  304.495
  304.515
  304.542
  304.589
  304.253
  303.912
  303.891
  303.892
  303.892
  303.889
  303.876
  303.861
  303.862
  303.89
  303.925
  303.948
  303.958
  303.96
  303.959
  303.961
  303.961
  304.406
  304.337
  304.27
  304.271
  304.295
  304.322
  304.339
  304.354
  304.37
  304.386
  304.402
  304.418
  304.435
  304.452
  304.47
  304.489
  304.512
  304.542
  304.591
  304.405
  303.953
  303.92
  303.927
  303.934
  303.93
  303.897
  303.858
  303.85
  303.886
  303.934
  303.97
  303.987
  303.989
  303.984
  303.979
  303.973
  304.392
  304.258
  304.225
  304.246
  304.291
  304.335
  304.344
  304.358
  304.373
  304.389
  304.407
  304.426
  304.445
  304.466
  304.486
  304.507
  304.528
  304.554
  304.599
  304.563
  304.008
  303.96
  303.98
  304.004
  303.998
  303.93
  303.856
  303.837
  303.88
  303.945
  304
  304.029
  304.032
  304.023
  304.011
  303.996
  304.004
  304.04
  304.087
  304.158
  304.242
  304.325
  304.393
  304.448
  304.489
  304.524
  304.557
  304.589
  304.619
  304.648
  304.677
  304.703
  304.647
  304.604
  304.59
  304.613
  304.722
  304.08
  304.011
  304.046
  304.1
  304.077
  303.957
  303.85
  303.825
  303.876
  303.964
  304.043
  304.088
  304.097
  304.086
  304.069
  304.055
  304.067
  304.105
  304.172
  304.259
  304.354
  304.444
  304.52
  304.585
  304.634
  304.676
  304.709
  304.737
  304.758
  304.774
  304.784
  304.784
  304.74
  304.677
  304.634
  304.633
  304.799
  305.039
  305
  304.872
  304.175
  304.088
  304.123
  304.203
  304.125
  303.963
  303.834
  303.808
  303.879
  303.998
  304.108
  304.174
  304.194
  304.184
  304.167
  304.162
  304.19
  304.252
  304.335
  304.431
  304.525
  304.611
  304.681
  304.738
  304.783
  304.816
  304.841
  304.86
  304.872
  304.878
  304.875
  304.86
  304.815
  304.749
  304.69
  304.668
  304.751
  304.842
  304.905
  305.021
  304.325
  304.241
  304.285
  304.296
  304.135
  303.918
  303.78
  303.781
  303.895
  304.062
  304.209
  304.298
  304.331
  304.323
  304.312
  304.324
  304.375
  304.455
  304.546
  304.639
  304.724
  304.796
  304.853
  304.897
  304.927
  304.947
  304.961
  304.97
  304.973
  304.97
  304.958
  304.934
  304.888
  304.826
  304.764
  304.727
  304.756
  304.802
  304.856
  305.223
  304.703
  304.599
  304.582
  304.373
  304.04
  303.766
  303.668
  303.756
  303.954
  304.187
  304.371
  304.473
  304.503
  304.5
  304.505
  304.538
  304.606
  304.693
  304.78
  304.861
  304.927
  304.98
  305.017
  305.04
  305.053
  305.062
  305.066
  305.066
  305.061
  305.05
  305.033
  305.007
  304.967
  304.91
  304.857
  304.822
  304.837
  304.871
  304.966
  305.517
  305.262
  305.066
  304.761
  304.086
  303.571
  303.392
  303.509
  303.808
  304.133
  304.431
  304.611
  304.679
  304.698
  304.712
  304.738
  304.786
  304.857
  304.935
  305.007
  305.066
  305.109
  305.138
  305.155
  305.163
  305.166
  305.164
  305.16
  305.151
  305.137
  305.118
  305.095
  305.072
  305.052
  305.039
  305.04
  305.058
  305.089
  305.112
  305.17
  298.567
  299.112
  300.329
  301.7
  302.794
  303.627
  304.283
  304.604
  304.768
  304.847
  304.886
  304.912
  304.941
  304.98
  305.031
  305.09
  305.148
  305.196
  305.231
  305.254
  305.266
  305.27
  305.269
  305.263
  305.254
  305.241
  305.225
  305.205
  305.184
  305.161
  305.14
  305.123
  305.113
  305.114
  305.129
  305.158
  305.206
  305.362
  298.88
  300.125
  301.605
  303.237
  304.054
  304.526
  304.801
  304.938
  305.012
  305.058
  305.092
  305.123
  305.156
  305.193
  305.233
  305.273
  305.307
  305.332
  305.348
  305.356
  305.357
  305.353
  305.346
  305.335
  305.322
  305.307
  305.289
  305.27
  305.249
  305.228
  305.208
  305.19
  305.176
  305.169
  305.172
  305.204
  305.263
  305.343
  303.975
  302.222
  301.883
  303.634
  304.43
  304.768
  304.961
  305.078
  305.156
  305.208
  305.246
  305.276
  305.302
  305.326
  305.348
  305.369
  305.387
  305.403
  305.413
  305.419
  305.419
  305.416
  305.41
  305.401
  305.391
  305.379
  305.366
  305.352
  305.337
  305.321
  305.305
  305.29
  305.274
  305.26
  305.247
  305.238
  305.241
  305.273
  305.326
  305.421
)
;

boundaryField
{
  floor
  {
    type wallHeatTransfer;
    Tinf uniform 305.2;
    alphaWall uniform 0.24;
    value nonuniform List<scalar> 29
(
  304.09
  304.53
  304.477
  304.435
  304.419
  304.432
  304.449
  304.467
  304.486
  304.505
  304.523
  304.541
  304.558
  304.575
  304.593
  304.61
  304.628
  304.649
  304.676
  304.721
  304.721
  304.718
  304.722
  304.732
  304.09
  304.53
  304.548
  304.53
  304.12
)
;
  }
  ceiling
  {
    type wallHeatTransfer;
    Tinf uniform 303.2;
    alphaWall uniform 0.24;
    value nonuniform List<scalar> 43
(
  303.921
  302.291
  301.974
  303.606
  304.349
  304.663
  304.838
  304.94
  305.004
  305.045
  305.074
  305.099
  305.122
  305.143
  305.163
  305.181
  305.197
  305.21
  305.217
  305.22
  305.218
  305.212
  305.204
  305.195
  305.183
  305.171
  305.156
  305.141
  305.124
  305.106
  305.088
  305.069
  305.051
  305.035
  305.021
  305.011
  305.013
  305.039
  305.087
  305.172
  305.408
  305.177
  299.187
)
;
  }
  sWall
  {
    type wallHeatTransfer;
    Tinf uniform 315.2;
    alphaWall uniform 0.36;
    value uniform 305.118;
  }
  nWall
  {
    type wallHeatTransfer;
    Tinf uniform 307.2;
    alphaWall uniform 0.36;
    value nonuniform List<scalar> 6
(
  305.488
  305.404
  305.343
  305.631
  305.598
  305.705
)
;
  }
  sideWalls
  {
    type empty;
  }
  glass1
  {
    type wallHeatTransfer;
    Tinf uniform 315.2;
    alphaWall uniform 4.3;
    value nonuniform List<scalar> 9
(
  311.427
  310.908
  310.579
  310.33
  310.123
  309.936
  309.815
  309.89
  310.104
)
;
  }
  glass2
  {
    type wallHeatTransfer;
    Tinf uniform 307.2;
    alphaWall uniform 4.3;
    value nonuniform List<scalar> 2
(
  306.518
  306.559
)
;
  }
  sun
  {
    type wallHeatTransfer;
    Tinf uniform 305.2;
    alphaWall uniform 0.24;
    value nonuniform List<scalar> 14
(
  304.215
  304.001
  303.99
  303.984
  303.979
  303.974
  303.968
  303.964
  303.969
  303.992
  304.02
  304.04
  304.056
  304.071
)
;
  }
  heatsource1
  {
    type fixedGradient;
    gradient uniform 0;
  }
  heatsource2
  {
    type fixedGradient;
    gradient uniform 0;
  }
  Table_master
  {
    type zeroGradient;
  }
  Table_slave
  {
    type zeroGradient;
  }
  inlet
  {
    type fixedValue;
    value uniform 293.15;
  }
  outlet
  {
    type zeroGradient;
  }
} 	// ************************************************************************* //

