/*--------------------------------*- C++ -*----------------------------------*\
  =========                 |
  \\      /  F ield         | OpenFOAM: The Open Source CFD Toolbox
   \\    /   O peration     | Website:  https://openfoam.org
    \\  /    A nd           | Version:  6
     \\/     M anipulation  |
\*---------------------------------------------------------------------------*/
FoamFile
{
    version     2.0;
    format      ascii;
    class       volScalarField;
    location    "170";
    object      nut;
}
// * * * * * * * * * * * * * * * * * * * * * * * * * * * * * * * * * * * * * //

dimensions      [0 2 -1 0 0 0 0];

internalField   nonuniform List<scalar> 
459
(
0.000933751
0.00114755
0.00133878
0.00133855
0.00130314
0.00125171
0.00119915
0.00114937
0.00110256
0.0010597
0.00101766
0.000973621
0.000924297
0.000864205
0.00079161
0.000523186
0.000672787
0.000752837
0.000760899
0.000745079
0.00071662
0.000675212
0.000633467
0.000595637
0.000562118
0.000532459
0.00050606
0.000482359
0.000460879
0.000440567
0.000420143
0.000397931
0.0003646
0.00033599
0.00114328
0.00383912
0.00410746
0.0036831
0.00381786
0.00372967
0.00355689
0.00340864
0.00326465
0.00304912
0.00277546
0.00244356
0.00205292
0.00161222
0.00117551
0.000777594
0.000683887
0.000741123
0.00253509
0.00237676
0.00263024
0.00281624
0.00272193
0.00200265
0.00167095
0.00145583
0.0013014
0.0011849
0.00109436
0.00101937
0.000940341
0.000851636
0.000767383
0.000724071
0.00061811
0.000399337
0.00132174
0.00483702
0.00438685
0.00343657
0.00395547
0.0041027
0.0040346
0.00401443
0.00400887
0.00389502
0.00363985
0.00324904
0.0027527
0.00219698
0.00165097
0.00117366
0.000696015
0.000721368
0.00225146
0.002573
0.00312542
0.00352158
0.00328461
0.000891506
0.000784696
0.000697053
0.000625732
0.000567615
0.000520059
0.000481286
0.00045119
0.000430265
0.00049166
0.000630258
0.000735399
0.000448084
0.00148565
0.0053517
0.00410516
0.00299418
0.00398477
0.00434524
0.00426524
0.00429713
0.00436796
0.00429509
0.00405387
0.00366817
0.00317739
0.00262978
0.00207497
0.00155787
0.00102734
0.000709691
0.00120727
0.00195558
0.00296213
0.00384648
0.00437192
0.00403897
0.000986126
0.00090154
0.000833228
0.000772292
0.000714018
0.000655692
0.000595468
0.000531491
0.000457964
0.000468127
0.000596556
0.00090283
0.000517983
0.0016265
0.00551681
0.00357767
0.0026917
0.00414053
0.00473863
0.00461557
0.00468809
0.00470996
0.004573
0.00433139
0.00399222
0.00357296
0.00311424
0.00265379
0.00225088
0.00195793
0.00215615
0.00293535
0.00391671
0.00479894
0.00542321
0.00573779
0.00564502
0.00469345
0.00409351
0.00352224
0.00299116
0.00248626
0.00199994
0.00153714
0.0011076
0.00069424
0.000559996
0.000643927
0.000973839
0.000776818
0.000583745
0.000531313
0.000434247
0.00172728
0.0054315
0.00298169
0.0024751
0.00424845
0.0050979
0.00497284
0.0050862
0.00507682
0.0049254
0.0047364
0.00450497
0.00421776
0.00393399
0.0036949
0.00360162
0.00375751
0.00447322
0.00536959
0.00610567
0.00660134
0.00684076
0.00685008
0.00663227
0.00611262
0.00540438
0.00461915
0.00382825
0.00305851
0.00229766
0.00163192
0.00114708
0.000852735
0.000829948
0.000906993
0.00107562
0.000992383
0.000786725
0.000674512
0.000427722
0.00174703
0.00503172
0.00237493
0.00223184
0.00428838
0.00535768
0.00520386
0.00529826
0.00532034
0.00524326
0.00516958
0.00509933
0.00503254
0.00499854
0.00505499
0.00529188
0.00577663
0.00652179
0.00712809
0.00748323
0.00759817
0.0075003
0.00723658
0.00680344
0.00617176
0.00540506
0.00456826
0.00372134
0.00291646
0.00220663
0.00167621
0.00138007
0.00129225
0.00132689
0.00132736
0.00123423
0.00108151
0.000839141
0.000829245
0.000445271
0.00167778
0.00385282
0.0019177
0.00203986
0.00414793
0.00553306
0.00543748
0.00539351
0.00530343
0.0052793
0.00532532
0.00541366
0.00554256
0.00573168
0.00601273
0.00641788
0.00693741
0.00744032
0.00772325
0.00774509
0.00753959
0.00713427
0.00659838
0.00600008
0.00535275
0.00466353
0.00395295
0.00326627
0.00266365
0.00220629
0.0019424
0.00187241
0.00192804
0.00198518
0.00191548
0.00169652
0.00138566
0.00112245
0.00144805
0.000681741
0.00157364
0.0015042
0.00111874
0.00189635
0.00405617
0.00565748
0.00571763
0.00549552
0.00537895
0.0054179
0.00553126
0.00568257
0.0058685
0.00609724
0.00637525
0.006691
0.00699066
0.00716137
0.00710973
0.00682563
0.00635734
0.00579826
0.0052211
0.00467154
0.00416528
0.00370239
0.00328958
0.00295135
0.00272095
0.00262518
0.00267047
0.00282754
0.00302239
0.00314581
0.00310103
0.00285458
0.00244548
0.0021492
0.0027295
0.00095067
0.000535
0.00231346
0.0046402
0.00592084
0.00589811
0.00585102
0.00593841
0.00607762
0.00621464
0.00633659
0.00644549
0.00654473
0.00663153
0.00668992
0.00668706
0.0065829
0.00636544
0.00606139
0.00571506
0.00536612
0.00503922
0.00474611
0.00449131
0.00427967
0.00412072
0.00402874
0.00401856
0.00409939
0.00426691
0.0044937
0.00472331
0.004878
0.00488513
0.00470396
0.00435315
0.003994
0.0040612
0.00106558
0.00217777
0.00654742
0.006724
0.00622925
0.00611336
0.00624537
0.00645897
0.00665222
0.0067945
0.00688628
0.00693619
0.00695283
0.00694248
0.00690809
0.00684836
0.0067593
0.00663912
0.00649309
0.00633202
0.00616651
0.00600383
0.00584991
0.00571171
0.00559878
0.0055226
0.00549572
0.00553014
0.0056346
0.00580936
0.00603822
0.00628023
0.00646819
0.00652198
0.0063787
0.00604089
0.00558926
0.00479594
0.00122873
0.00142591
0.0015175
0.00165915
0.00172588
0.00169674
0.00165879
0.0016451
0.00164581
0.0016498
0.00165323
0.00165541
0.0016567
0.00165764
0.00165861
0.00165953
0.00165972
0.00165796
0.00165318
0.00164525
0.00163501
0.0016237
0.00161239
0.00160194
0.00159304
0.00158635
0.00158259
0.00158253
0.00158697
0.00159648
0.00161115
0.00162997
0.00165026
0.00166735
0.00167561
0.00167117
0.00165531
0.00163366
0.00160504
0.00152491
0.00122233
)
;

boundaryField
{
    floor
    {
        type            nutkWallFunction;
        Cmu             0.09;
        kappa           0.41;
        E               9.8;
        value           nonuniform List<scalar> 
29
(
9.58731e-05
6.26824e-05
8.13871e-05
9.1183e-05
9.21625e-05
9.02391e-05
8.67668e-05
8.16849e-05
7.65238e-05
7.18113e-05
6.76054e-05
6.38582e-05
6.05014e-05
5.74692e-05
5.47052e-05
5.20768e-05
4.94185e-05
4.6509e-05
4.21038e-05
3.82817e-05
3.82816e-05
4.66941e-05
5.3052e-05
6.20217e-05
9.58731e-05
6.26824e-05
8.97597e-05
8.73481e-05
8.59147e-05
)
;
    }
    ceiling
    {
        type            nutkWallFunction;
        Cmu             0.09;
        kappa           0.41;
        E               9.8;
        value           nonuniform List<scalar> 
43
(
0.000169784
0.000180104
0.000195931
0.000203338
0.000200113
0.000195903
0.000194384
0.000194465
0.000194911
0.000195292
0.000195535
0.000195679
0.000195783
0.000195891
0.000195994
0.000196014
0.000195819
0.000195287
0.000194404
0.000193264
0.000192003
0.000190742
0.000189576
0.000188582
0.000187834
0.000187414
0.000187407
0.000187902
0.000188965
0.000190601
0.0001927
0.000194958
0.000196859
0.000197776
0.000197283
0.000195519
0.000193109
0.000189919
0.000180948
0.000146586
0.000186328
0.000178538
0.0002527
)
;
    }
    sWall
    {
        type            nutkWallFunction;
        Cmu             0.09;
        kappa           0.41;
        E               9.8;
        value           uniform 0.000169792;
    }
    nWall
    {
        type            nutkWallFunction;
        Cmu             0.09;
        kappa           0.41;
        E               9.8;
        value           nonuniform List<scalar> 6(5.12405e-05 5.03954e-05 5.26895e-05 0.000128458 0.000147337 0.000146592);
    }
    sideWalls
    {
        type            empty;
    }
    glass1
    {
        type            nutkWallFunction;
        Cmu             0.09;
        kappa           0.41;
        E               9.8;
        value           nonuniform List<scalar> 9(0.000112902 0.000137449 0.000157947 0.000176501 0.000192263 0.000203449 0.000205633 0.000197963 0.000186362);
    }
    glass2
    {
        type            nutkWallFunction;
        Cmu             0.09;
        kappa           0.41;
        E               9.8;
        value           nonuniform List<scalar> 2(8.25416e-05 0.000114967);
    }
    sun
    {
        type            nutkWallFunction;
        Cmu             0.09;
        kappa           0.41;
        E               9.8;
        value           nonuniform List<scalar> 
14
(
0.000112893
0.000137936
0.000159869
0.000159826
0.000155791
0.00014991
0.00014387
0.000138122
0.000132692
0.000127696
0.000122774
0.000117593
0.000111757
0.000104599
)
;
    }
    heatsource1
    {
        type            nutkWallFunction;
        Cmu             0.09;
        kappa           0.41;
        E               9.8;
        value           nonuniform List<scalar> 3(7.03183e-05 6.37048e-05 5.12401e-05);
    }
    heatsource2
    {
        type            nutkWallFunction;
        Cmu             0.09;
        kappa           0.41;
        E               9.8;
        value           nonuniform List<scalar> 4(9.41773e-05 8.27452e-05 8.27452e-05 8.4235e-05);
    }
    Table_master
    {
        type            nutkWallFunction;
        Cmu             0.09;
        kappa           0.41;
        E               9.8;
        value           nonuniform List<scalar> 9(0.000107874 9.50473e-05 8.43681e-05 7.55595e-05 6.8292e-05 6.22773e-05 5.73231e-05 5.34432e-05 5.07264e-05);
    }
    Table_slave
    {
        type            nutkWallFunction;
        Cmu             0.09;
        kappa           0.41;
        E               9.8;
        value           nonuniform List<scalar> 9(0.00011909 0.000109072 0.000100901 9.35458e-05 8.64473e-05 7.92728e-05 7.17834e-05 6.37252e-05 5.43139e-05);
    }
    inlet
    {
        type            calculated;
        value           uniform 0.000100623;
    }
    outlet
    {
        type            calculated;
        value           nonuniform List<scalar> 2(0.00142591 0.0015175);
    }
}


// ************************************************************************* //
