/*--------------------------------*- C++ -*----------------------------------*\
  =========                 |
  \\      /  F ield         | OpenFOAM: The Open Source CFD Toolbox
   \\    /   O peration     | Website:  https://openfoam.org
    \\  /    A nd           | Version:  6
     \\/     M anipulation  |
\*---------------------------------------------------------------------------*/
FoamFile
{
    version     2.0;
    format      ascii;
    class       volScalarField;
    location    "100";
    object      epsilon;
}
// * * * * * * * * * * * * * * * * * * * * * * * * * * * * * * * * * * * * * //

dimensions      [0 2 -3 0 0 0 0];

internalField   nonuniform List<scalar> 
459
(
0.000807071
0.00111367
0.00126172
0.00150492
0.00178909
0.00210896
0.00236984
0.00250575
0.00246946
0.00208864
0.00169316
0.00132371
0.000960975
0.00070128
0.00047529
0.000113892
0.000187176
0.000304661
0.0004098
0.00044449
0.000423189
0.000352113
0.000284326
0.000231726
0.000192
0.000161673
0.00013816
0.000119542
0.000104516
9.19993e-05
8.09585e-05
7.03576e-05
5.91534e-05
4.48471e-05
0.00170762
0.00215405
0.0010271
0.00106572
0.00123161
0.00148398
0.00170897
0.00181402
0.00177076
0.00152247
0.00124068
0.000988322
0.000778631
0.000629804
0.00049082
0.000776175
0.00045437
0.000101277
0.000158799
0.000261355
0.000311641
0.000324836
0.000323093
0.000345809
0.000284445
0.000224637
0.000177696
0.00014223
0.000115586
9.53281e-05
7.96558e-05
6.75268e-05
5.98322e-05
5.67802e-05
6.14078e-05
5.60692e-05
0.00282197
0.00445959
0.00118364
0.00108285
0.00131519
0.00164671
0.00186747
0.00193427
0.00185589
0.00163485
0.00136264
0.0010968
0.000873579
0.000694332
0.00054838
0.00054288
0.000704169
0.000130083
0.000258813
0.000318288
0.000346818
0.000349813
0.000364059
0.000844561
0.000560118
0.000383225
0.000272242
0.000200681
0.000153032
0.000120277
9.76276e-05
8.31885e-05
6.28004e-05
5.35068e-05
6.33968e-05
6.09535e-05
0.00426222
0.00863685
0.00174163
0.00126459
0.00160496
0.00201388
0.0021556
0.00215365
0.0020395
0.00181035
0.00150462
0.00119732
0.000942472
0.000746759
0.000599562
0.000534588
0.000572542
0.000976709
0.000667079
0.000528209
0.000471707
0.000445183
0.000421852
0.00043243
0.00121082
0.00090855
0.000708756
0.00056897
0.000461669
0.000373902
0.000298988
0.000233081
0.000172719
9.54119e-05
6.08183e-05
6.67904e-05
6.48308e-05
0.00617317
0.0149802
0.00322757
0.00180338
0.00238064
0.00267351
0.00263223
0.00253779
0.00236528
0.002065
0.00166957
0.00127882
0.000965605
0.000744217
0.000599528
0.0005308
0.000558621
0.000667845
0.000639135
0.000611258
0.00059103
0.000560316
0.000512857
0.000462294
0.000461579
0.000428538
0.000391989
0.000355257
0.000314828
0.000271057
0.000225454
0.000179855
0.000135109
8.96912e-05
6.03337e-05
6.01194e-05
5.7569e-05
6.03943e-05
7.89642e-05
0.000118088
0.00871797
0.0222383
0.00697941
0.00352938
0.00395872
0.00365604
0.00334932
0.00311579
0.00283591
0.00240913
0.00186857
0.00135293
0.000961632
0.000712071
0.000582824
0.000549561
0.000603881
0.000690986
0.000741487
0.000757726
0.000733908
0.000673151
0.000588763
0.000499344
0.000429048
0.000378385
0.000339289
0.000302366
0.000263439
0.000222611
0.000181443
0.000142038
0.000106116
7.58749e-05
5.72105e-05
5.45829e-05
5.42316e-05
5.35791e-05
0.000158338
0.00013789
0.0111876
0.026585
0.0137661
0.00856745
0.00626983
0.00498667
0.00429335
0.00387701
0.00344793
0.00283427
0.00208006
0.00140112
0.000931756
0.000682086
0.000596904
0.000615909
0.000705959
0.00081038
0.000871988
0.00086568
0.00080337
0.000704208
0.000589759
0.000480313
0.000393133
0.000332535
0.000289549
0.000251354
0.000214
0.000177305
0.000142623
0.000111149
8.43358e-05
6.51967e-05
5.65524e-05
5.81358e-05
6.39821e-05
7.59285e-05
0.000162882
0.000157213
0.0115459
0.0253701
0.0158838
0.0108028
0.0078136
0.00616378
0.00531525
0.00478663
0.00417269
0.00327274
0.00219333
0.00133406
0.000841344
0.000679475
0.000658097
0.000711516
0.000808296
0.000891328
0.000912651
0.000863582
0.000759143
0.000633191
0.000509502
0.000403965
0.000325693
0.000272539
0.000232959
0.000198742
0.000167727
0.000140277
0.000117333
9.96074e-05
8.76171e-05
8.30037e-05
9.02471e-05
0.000125101
0.00020788
0.000407482
0.00185655
0.000499848
0.0105551
0.0165504
0.0129224
0.00975504
0.00773747
0.00678029
0.00630578
0.0057638
0.00479776
0.00337807
0.00180614
0.00108399
0.000800777
0.000721109
0.00072845
0.00077552
0.000830697
0.000855445
0.000825962
0.000747967
0.000640152
0.000525636
0.000421788
0.000338279
0.000276058
0.000229618
0.000192062
0.000159908
0.000133001
0.000112854
0.000101907
0.000103816
0.00012423
0.000171021
0.000253427
0.000380639
0.000553424
0.000744777
0.000891568
0.000500621
0.00195634
0.00397406
0.00638554
0.00712609
0.00670507
0.00513274
0.00321621
0.001911
0.00119082
0.000897381
0.000789155
0.000765353
0.000775677
0.000793507
0.000797975
0.000771978
0.000712814
0.000632872
0.000548272
0.000471169
0.000406641
0.000354114
0.000309877
0.000269812
0.000231659
0.000195621
0.000163791
0.000139237
0.000125136
0.000124346
0.000139953
0.000176521
0.00024011
0.000333947
0.000447874
0.000546018
0.000575953
0.00044445
0.00313282
0.0123983
0.00968744
0.00663266
0.00437318
0.00277178
0.00178685
0.00126139
0.00100416
0.000898874
0.000863135
0.000859138
0.000867052
0.000875794
0.000877218
0.000865471
0.000839118
0.000801331
0.000757036
0.000710545
0.000663895
0.00061703
0.000568957
0.000518891
0.00046701
0.000414763
0.000364628
0.00031954
0.000282365
0.000255741
0.000242394
0.000245479
0.000267868
0.00030881
0.000360085
0.000422563
0.000671033
0.000528437
0.00236042
0.00291771
0.00340317
0.00447262
0.00332456
0.00271644
0.00224171
0.00182317
0.00149947
0.00129594
0.0011815
0.00112109
0.00108949
0.00106771
0.00104162
0.00100118
0.000941436
0.000864396
0.000778677
0.000694615
0.000619138
0.000554243
0.000498614
0.000449895
0.000406154
0.000366487
0.000331014
0.000300407
0.000275364
0.000256306
0.000243377
0.00023666
0.000236479
0.000243595
0.000258965
0.000282193
0.000309786
0.000313605
0.000295896
0.000294153
)
;

boundaryField
{
    floor
    {
        Cmu             0.09;
        kappa           0.41;
        E               9.8;
        type            epsilonWallFunction;
        value           nonuniform List<scalar> 
29
(
0.00047529
0.000113892
0.000187176
0.000304661
0.0004098
0.00044449
0.000423189
0.000352113
0.000284326
0.000231726
0.000192
0.000161673
0.00013816
0.000119542
0.000104516
9.19993e-05
8.09585e-05
7.03576e-05
5.91534e-05
4.48471e-05
4.48471e-05
5.60692e-05
6.09535e-05
6.48308e-05
0.00047529
0.000113892
0.000101277
0.000130083
0.000976709
)
;
    }
    ceiling
    {
        Cmu             0.09;
        kappa           0.41;
        E               9.8;
        type            epsilonWallFunction;
        value           nonuniform List<scalar> 
43
(
0.00236042
0.00291771
0.00340317
0.00447262
0.00332456
0.00271644
0.00224171
0.00182317
0.00149947
0.00129594
0.0011815
0.00112109
0.00108949
0.00106771
0.00104162
0.00100118
0.000941436
0.000864396
0.000778677
0.000694615
0.000619138
0.000554243
0.000498614
0.000449895
0.000406154
0.000366487
0.000331014
0.000300407
0.000275364
0.000256306
0.000243377
0.00023666
0.000236479
0.000243595
0.000258965
0.000282193
0.000309786
0.000313605
0.000295896
0.000294153
0.0105551
0.0165504
0.00313282
)
;
    }
    sWall
    {
        Cmu             0.09;
        kappa           0.41;
        E               9.8;
        type            epsilonWallFunction;
        value           uniform 0.00236042;
    }
    nWall
    {
        Cmu             0.09;
        kappa           0.41;
        E               9.8;
        type            epsilonWallFunction;
        value           nonuniform List<scalar> 6(0.000118088 0.00013789 0.000157213 0.00044445 0.000528437 0.000294153);
    }
    sideWalls
    {
        type            empty;
    }
    glass1
    {
        Cmu             0.09;
        kappa           0.41;
        E               9.8;
        type            epsilonWallFunction;
        value           nonuniform List<scalar> 9(0.000807071 0.00170762 0.00282197 0.00426222 0.00617317 0.00871797 0.0111876 0.0115459 0.0105551);
    }
    glass2
    {
        Cmu             0.09;
        kappa           0.41;
        E               9.8;
        type            epsilonWallFunction;
        value           nonuniform List<scalar> 2(0.000499848 0.000500621);
    }
    sun
    {
        Cmu             0.09;
        kappa           0.41;
        E               9.8;
        type            epsilonWallFunction;
        value           nonuniform List<scalar> 
14
(
0.000807071
0.00111367
0.00126172
0.00150492
0.00178909
0.00210896
0.00236984
0.00250575
0.00246946
0.00208864
0.00169316
0.00132371
0.000960975
0.00070128
)
;
    }
    heatsource1
    {
        Cmu             0.09;
        kappa           0.41;
        E               9.8;
        type            epsilonWallFunction;
        value           nonuniform List<scalar> 3(6.03943e-05 7.89642e-05 0.000118088);
    }
    heatsource2
    {
        Cmu             0.09;
        kappa           0.41;
        E               9.8;
        type            epsilonWallFunction;
        value           nonuniform List<scalar> 4(0.000776175 0.00045437 0.00045437 0.000704169);
    }
    Table_master
    {
        Cmu             0.09;
        kappa           0.41;
        E               9.8;
        type            epsilonWallFunction;
        value           nonuniform List<scalar> 9(0.000844561 0.000560118 0.000383225 0.000272242 0.000200681 0.000153032 0.000120277 9.76276e-05 8.31885e-05);
    }
    Table_slave
    {
        Cmu             0.09;
        kappa           0.41;
        E               9.8;
        type            epsilonWallFunction;
        value           nonuniform List<scalar> 9(0.00121082 0.00090855 0.000708756 0.00056897 0.000461669 0.000373902 0.000298988 0.000233081 0.000172719);
    }
    inlet
    {
        type            turbulentMixingLengthDissipationRateInlet;
        mixingLength    0.01;
        phi             phi;
        k               k;
        value           uniform 0.000101881;
    }
    outlet
    {
        type            zeroGradient;
    }
}


// ************************************************************************* //
