/*--------------------------------*- C++ -*----------------------------------*\
  =========                 |
  \\      /  F ield         | OpenFOAM: The Open Source CFD Toolbox
   \\    /   O peration     | Website:  https://openfoam.org
    \\  /    A nd           | Version:  6
     \\/     M anipulation  |
\*---------------------------------------------------------------------------*/
FoamFile
{
    version     2.0;
    format      ascii;
    class       volScalarField;
    location    "200";
    object      nut;
}
// * * * * * * * * * * * * * * * * * * * * * * * * * * * * * * * * * * * * * //

dimensions      [0 2 -1 0 0 0 0];

internalField   nonuniform List<scalar> 
459
(
0.00119635
0.00131697
0.00135321
0.00142406
0.00149299
0.00156314
0.00162796
0.00167157
0.00168588
0.00166568
0.00160606
0.001488
0.00130529
0.00109769
0.000925218
0.000540208
0.000635962
0.000739828
0.000792639
0.000793418
0.000771293
0.00072338
0.000672468
0.000626478
0.000586317
0.00055137
0.000520883
0.000494039
0.000470262
0.00044869
0.000428169
0.000407084
0.000387587
0.000351938
0.00159051
0.00405716
0.00395984
0.00460478
0.0052442
0.00579018
0.00621449
0.00658345
0.00686613
0.00703474
0.00706264
0.00690381
0.00647936
0.00572244
0.00388115
0.00117376
0.000908475
0.000530564
0.00134407
0.00208475
0.00269622
0.00306484
0.00302182
0.00215178
0.00178291
0.00154222
0.00136753
0.00123443
0.00112958
0.00104573
0.000969775
0.000890778
0.000815219
0.000748642
0.000818468
0.000416956
0.00191289
0.00551301
0.00490895
0.00579761
0.00623238
0.00656323
0.00685262
0.00716109
0.00748304
0.00778935
0.00803247
0.00812223
0.00797292
0.00752268
0.00641857
0.00428335
0.00117102
0.000782832
0.0014683
0.00231347
0.00320916
0.00384704
0.00368451
0.000997207
0.000867359
0.000763352
0.000680411
0.000613792
0.000559713
0.000515379
0.00047947
0.000452218
0.000505716
0.000605442
0.000946682
0.000463309
0.00221748
0.00689092
0.00502579
0.00601765
0.00622246
0.00635799
0.0065359
0.00678722
0.00712867
0.00752391
0.00789368
0.00810317
0.00814449
0.00798726
0.00749313
0.0062608
0.00348413
0.00134097
0.00164776
0.00238747
0.00341668
0.00442505
0.00508889
0.00471965
0.00113411
0.00102583
0.000943772
0.000876959
0.000819613
0.000766315
0.000713505
0.000658318
0.000596151
0.000550163
0.000597984
0.00109917
0.000498668
0.00252565
0.00863371
0.0055568
0.00608985
0.0062561
0.00625635
0.00633265
0.00651897
0.00686533
0.00729266
0.00767825
0.00791458
0.00797142
0.0078839
0.00766237
0.00714914
0.00608232
0.00537418
0.00557795
0.00605069
0.00658425
0.00699067
0.00714914
0.0068648
0.0055576
0.00487466
0.00442634
0.00404361
0.00362008
0.00315041
0.00264005
0.00210556
0.00157602
0.00111793
0.000866525
0.00105368
0.000635135
0.000594153
0.000714314
0.000802884
0.00285163
0.0105617
0.00745642
0.00663617
0.00671235
0.00650374
0.006391
0.00647863
0.00680519
0.00726127
0.00767121
0.00789274
0.0078984
0.00778537
0.00769672
0.00769563
0.007704
0.0079139
0.00833617
0.00867279
0.00883418
0.00880089
0.00857884
0.00815135
0.00746001
0.0068148
0.00624064
0.00567648
0.00508725
0.00446518
0.00380302
0.00310756
0.00240663
0.00176661
0.00133308
0.0011432
0.000875501
0.000768795
0.0011049
0.00084214
0.00313772
0.0118607
0.0100907
0.00836855
0.0076027
0.00687058
0.00650078
0.006546
0.00692714
0.00745551
0.00790051
0.00809942
0.00805566
0.00796079
0.00810037
0.00858802
0.00915049
0.00965846
0.0100101
0.0100816
0.00991323
0.00955867
0.00906676
0.00846537
0.00777209
0.00709729
0.00646167
0.0058475
0.00524347
0.00467862
0.00410309
0.00351482
0.00290645
0.00230687
0.00185046
0.00153333
0.00128334
0.00124637
0.00130168
0.000986987
0.00318725
0.0101878
0.00927538
0.00815318
0.00709123
0.00642037
0.00627496
0.00660765
0.00724437
0.00791922
0.008377
0.00849684
0.00840333
0.00845617
0.00905918
0.00974829
0.0101979
0.0104627
0.0105073
0.0102806
0.00982778
0.00921178
0.00848694
0.00769698
0.00689305
0.00613501
0.00544218
0.00482401
0.00430348
0.00390724
0.00363072
0.00339917
0.00309271
0.00273798
0.0025113
0.00246622
0.00267279
0.0032022
0.00393148
0.00150458
0.00310114
0.00364868
0.00393475
0.00402039
0.00428774
0.00493364
0.00591118
0.00705525
0.00811885
0.00882329
0.00901889
0.00882304
0.00889123
0.00926663
0.00971473
0.0100285
0.0101367
0.0100596
0.00977362
0.00926796
0.00857812
0.00775663
0.00685676
0.0059431
0.00508775
0.00434067
0.00371631
0.00322184
0.00285878
0.00260742
0.00244231
0.00234055
0.00228346
0.00225797
0.00226316
0.00228145
0.00225956
0.00215448
0.00200396
0.00139581
0.00126031
0.00308316
0.00613511
0.00819073
0.00944304
0.0100752
0.0101654
0.0098329
0.00917246
0.00867423
0.00866132
0.00889765
0.00902594
0.00898529
0.0087888
0.00842511
0.00787559
0.00715573
0.00632156
0.00544975
0.00461874
0.00389259
0.00330579
0.00286252
0.00255017
0.00234611
0.0022255
0.0021703
0.00216258
0.00218727
0.00223406
0.00229325
0.00235011
0.00237802
0.00234521
0.00225408
0.00206885
0.00116652
0.00203675
0.00676604
0.00912274
0.00959955
0.0094552
0.0089333
0.00822908
0.00757721
0.0070803
0.00679389
0.00667114
0.00655641
0.00639558
0.0061888
0.0059112
0.00553167
0.00504698
0.00449608
0.0039454
0.0034567
0.0030627
0.00276501
0.00254732
0.0023895
0.00227546
0.00219536
0.00214566
0.00212727
0.00214197
0.00218991
0.00226711
0.00236192
0.0024532
0.00252193
0.00250348
0.00254765
0.00251841
0.00118758
0.00183362
0.00194418
0.00202412
0.0021822
0.0020409
0.00191161
0.00180399
0.00167533
0.00153133
0.00138782
0.00126176
0.00116719
0.00110091
0.00105287
0.00101449
0.000979411
0.000943282
0.000904385
0.00086379
0.00082437
0.000789146
0.000760003
0.00073743
0.000721069
0.000710509
0.000705861
0.000707902
0.000717816
0.000736733
0.000765322
0.000803753
0.000851942
0.000909826
0.000977208
0.00105392
0.00113903
0.00115732
0.00111575
0.00105147
0.000976906
)
;

boundaryField
{
    floor
    {
        type            nutkWallFunction;
        Cmu             0.09;
        kappa           0.41;
        E               9.8;
        value           nonuniform List<scalar> 
29
(
0.000111889
6.48306e-05
7.68291e-05
8.96011e-05
9.60129e-05
9.61084e-05
9.34301e-05
8.75973e-05
8.13487e-05
7.56551e-05
7.06418e-05
6.62452e-05
6.23817e-05
5.89567e-05
5.59035e-05
5.31169e-05
5.04501e-05
4.76933e-05
4.51273e-05
4.03924e-05
4.03923e-05
4.89818e-05
5.50001e-05
5.95401e-05
0.000111889
6.48305e-05
6.36079e-05
9.48113e-05
0.000160137
)
;
    }
    ceiling
    {
        type            nutkWallFunction;
        Cmu             0.09;
        kappa           0.41;
        E               9.8;
        value           nonuniform List<scalar> 
43
(
0.000215098
0.000227204
0.000235914
0.000253137
0.000237867
0.000223773
0.000211957
0.000197727
0.000181657
0.000165476
0.000151111
0.00014023
0.000132545
0.000126942
0.000122445
0.000118317
0.000114046
0.000109427
0.000104581
9.985e-05
9.55995e-05
9.20658e-05
8.93175e-05
8.73188e-05
8.60254e-05
8.54544e-05
8.57028e-05
8.69145e-05
8.92227e-05
9.2699e-05
9.73489e-05
0.000103144
0.000110054
0.000118036
0.000127047
0.000136957
0.000139076
0.000134255
0.000126761
0.000118001
0.000350633
0.000407142
0.000237116
)
;
    }
    sWall
    {
        type            nutkWallFunction;
        Cmu             0.09;
        kappa           0.41;
        E               9.8;
        value           uniform 0.000215156;
    }
    nWall
    {
        type            nutkWallFunction;
        Cmu             0.09;
        kappa           0.41;
        E               9.8;
        value           nonuniform List<scalar> 6(9.72405e-05 0.000101966 0.000119188 0.000140156 0.000142589 0.000118007);
    }
    sideWalls
    {
        type            empty;
    }
    glass1
    {
        type            nutkWallFunction;
        Cmu             0.09;
        kappa           0.41;
        E               9.8;
        value           nonuniform List<scalar> 9(0.000143731 0.000188532 0.000224248 0.000257394 0.000290438 0.000324931 0.000354867 0.000360032 0.000351084);
    }
    glass2
    {
        type            nutkWallFunction;
        Cmu             0.09;
        kappa           0.41;
        E               9.8;
        value           nonuniform List<scalar> 2(0.000178725 0.000166445);
    }
    sun
    {
        type            nutkWallFunction;
        Cmu             0.09;
        kappa           0.41;
        E               9.8;
        value           nonuniform List<scalar> 
14
(
0.000143588
0.000157413
0.00016154
0.000169574
0.000177347
0.000185218
0.000192455
0.000197305
0.000198894
0.000196648
0.000190008
0.000176768
0.000156073
0.000132154
)
;
    }
    heatsource1
    {
        type            nutkWallFunction;
        Cmu             0.09;
        kappa           0.41;
        E               9.8;
        value           nonuniform List<scalar> 3(7.1613e-05 8.64767e-05 9.72397e-05);
    }
    heatsource2
    {
        type            nutkWallFunction;
        Cmu             0.09;
        kappa           0.41;
        E               9.8;
        value           nonuniform List<scalar> 4(0.000140967 0.000109898 0.000109898 0.000140648);
    }
    Table_master
    {
        type            nutkWallFunction;
        Cmu             0.09;
        kappa           0.41;
        E               9.8;
        value           nonuniform List<scalar> 9(0.000120401 0.000104997 9.24653e-05 8.2327e-05 7.40768e-05 6.73e-05 6.16844e-05 5.70923e-05 5.35789e-05);
    }
    Table_slave
    {
        type            nutkWallFunction;
        Cmu             0.09;
        kappa           0.41;
        E               9.8;
        value           nonuniform List<scalar> 9(0.000136394 0.000123765 0.000114092 0.000106144 9.92662e-05 9.28227e-05 8.63857e-05 7.9598e-05 7.18691e-05);
    }
    inlet
    {
        type            calculated;
        value           uniform 0.000100623;
    }
    outlet
    {
        type            calculated;
        value           nonuniform List<scalar> 2(0.00183362 0.00194418);
    }
}


// ************************************************************************* //
