// -*- C++ -*-
// File generated by PyFoam - sorry for the ugliness

FoamFile
{
 version 2.0;
 format ascii;
 class volScalarField;
 location "200";
 object T;
}

dimensions [ 0 0 0 1 0 0 0 ];

internalField nonuniform List<scalar> 459
(
  302.929
  302.669
  302.66
  302.659
  302.659
  302.657
  302.654
  302.648
  302.641
  302.635
  302.633
  302.636
  302.64
  302.642
  302.651
  302.861
  302.835
  302.826
  302.837
  302.852
  302.865
  302.875
  302.884
  302.893
  302.902
  302.911
  302.92
  302.93
  302.939
  302.95
  302.961
  302.975
  302.992
  303.028
  303.1
  302.706
  302.685
  302.69
  302.695
  302.696
  302.691
  302.675
  302.655
  302.639
  302.633
  302.637
  302.643
  302.644
  302.643
  302.637
  302.626
  302.866
  302.804
  302.802
  302.82
  302.842
  302.862
  302.87
  302.877
  302.882
  302.889
  302.895
  302.902
  302.909
  302.917
  302.926
  302.937
  302.952
  302.974
  303.02
  303.281
  302.755
  302.72
  302.734
  302.749
  302.757
  302.749
  302.717
  302.676
  302.644
  302.633
  302.641
  302.652
  302.657
  302.654
  302.649
  302.638
  302.812
  302.785
  302.793
  302.823
  302.86
  302.89
  302.891
  302.893
  302.895
  302.899
  302.904
  302.909
  302.916
  302.923
  302.931
  302.943
  302.957
  302.976
  303.021
  303.466
  302.818
  302.76
  302.785
  302.819
  302.842
  302.827
  302.766
  302.697
  302.648
  302.632
  302.644
  302.664
  302.677
  302.679
  302.673
  302.662
  302.671
  302.695
  302.738
  302.795
  302.856
  302.912
  302.958
  302.995
  303.025
  303.051
  303.074
  303.095
  303.114
  303.132
  303.148
  303.16
  303.086
  303.029
  303.006
  303.031
  303.649
  302.898
  302.808
  302.837
  302.894
  302.938
  302.904
  302.806
  302.709
  302.647
  302.628
  302.646
  302.679
  302.708
  302.721
  302.721
  302.72
  302.738
  302.774
  302.828
  302.891
  302.956
  303.017
  303.068
  303.114
  303.149
  303.178
  303.202
  303.219
  303.231
  303.236
  303.235
  303.225
  303.172
  303.097
  303.044
  303.043
  303.239
  303.31
  303.302
  303.817
  303.004
  302.887
  302.905
  302.99
  303.02
  302.945
  302.82
  302.703
  302.632
  302.618
  302.65
  302.705
  302.754
  302.785
  302.801
  302.815
  302.847
  302.895
  302.956
  303.023
  303.087
  303.145
  303.193
  303.233
  303.266
  303.291
  303.308
  303.319
  303.323
  303.319
  303.307
  303.285
  303.238
  303.165
  303.097
  303.07
  303.152
  303.193
  303.243
  303.979
  303.174
  303.059
  303.072
  303.136
  303.085
  302.942
  302.777
  302.65
  302.591
  302.602
  302.665
  302.752
  302.831
  302.886
  302.922
  302.952
  302.995
  303.051
  303.112
  303.173
  303.23
  303.279
  303.318
  303.35
  303.373
  303.39
  303.401
  303.404
  303.399
  303.388
  303.369
  303.341
  303.297
  303.235
  303.168
  303.129
  303.149
  303.173
  303.212
  304.206
  303.608
  303.48
  303.447
  303.312
  303.078
  302.825
  302.627
  302.525
  302.523
  302.595
  302.712
  302.849
  302.959
  303.036
  303.079
  303.115
  303.163
  303.22
  303.274
  303.325
  303.368
  303.402
  303.429
  303.448
  303.461
  303.468
  303.469
  303.465
  303.455
  303.439
  303.418
  303.391
  303.351
  303.304
  303.255
  303.229
  303.249
  303.272
  303.387
  304.535
  304.248
  304.014
  303.673
  303.109
  302.638
  302.359
  302.268
  302.326
  302.483
  302.664
  302.852
  303.049
  303.153
  303.205
  303.243
  303.282
  303.328
  303.377
  303.421
  303.457
  303.484
  303.504
  303.516
  303.522
  303.522
  303.517
  303.508
  303.495
  303.481
  303.466
  303.453
  303.442
  303.437
  303.44
  303.455
  303.484
  303.517
  303.537
  303.594
  295.761
  296.743
  298.547
  299.997
  301.039
  301.794
  302.357
  302.81
  303.035
  303.172
  303.262
  303.321
  303.362
  303.398
  303.435
  303.472
  303.508
  303.537
  303.558
  303.572
  303.578
  303.578
  303.573
  303.565
  303.554
  303.541
  303.529
  303.517
  303.506
  303.497
  303.491
  303.49
  303.497
  303.513
  303.539
  303.573
  303.617
  303.679
  296.64
  298.602
  300.614
  301.673
  302.318
  302.735
  303.008
  303.189
  303.305
  303.38
  303.432
  303.471
  303.504
  303.533
  303.561
  303.587
  303.608
  303.622
  303.63
  303.632
  303.629
  303.622
  303.613
  303.602
  303.591
  303.579
  303.567
  303.555
  303.545
  303.535
  303.529
  303.525
  303.528
  303.537
  303.554
  303.585
  303.609
  303.659
  300.098
  300.021
  300.011
  301.949
  302.729
  303.041
  303.213
  303.334
  303.423
  303.488
  303.535
  303.571
  303.598
  303.621
  303.639
  303.654
  303.667
  303.676
  303.681
  303.683
  303.68
  303.675
  303.668
  303.66
  303.65
  303.64
  303.63
  303.619
  303.607
  303.596
  303.585
  303.575
  303.566
  303.559
  303.555
  303.558
  303.567
  303.581
  303.596
  303.652
)
;

boundaryField
{
  floor
  {
    type wallHeatTransfer;
    Tinf uniform 305.2;
    alphaWall uniform 0.24;
    value nonuniform List<scalar> 29
(
  302.952
  303.267
  303.202
  303.157
  303.15
  303.163
  303.181
  303.205
  303.23
  303.255
  303.279
  303.303
  303.326
  303.348
  303.37
  303.392
  303.414
  303.44
  303.468
  303.526
  303.526
  303.469
  303.44
  303.428
  302.952
  303.267
  303.276
  303.132
  302.897
)
;
  }
  ceiling
  {
    type wallHeatTransfer;
    Tinf uniform 303.2;
    alphaWall uniform 0.24;
    value nonuniform List<scalar> 43
(
  300.313
  300.231
  300.215
  302.025
  302.759
  303.052
  303.213
  303.324
  303.405
  303.463
  303.504
  303.534
  303.557
  303.575
  303.591
  303.603
  303.612
  303.619
  303.621
  303.62
  303.617
  303.61
  303.603
  303.595
  303.586
  303.577
  303.568
  303.559
  303.55
  303.542
  303.535
  303.528
  303.522
  303.518
  303.517
  303.522
  303.531
  303.542
  303.553
  303.6
  304.474
  304.206
  297.054
)
;
  }
  sWall
  {
    type wallHeatTransfer;
    Tinf uniform 315.2;
    alphaWall uniform 0.36;
    value uniform 301.62;
  }
  nWall
  {
    type wallHeatTransfer;
    Tinf uniform 307.2;
    alphaWall uniform 0.36;
    value nonuniform List<scalar> 6
(
  304.024
  303.953
  303.852
  304.181
  304.157
  304.226
)
;
  }
  sideWalls
  {
    type empty;
  }
  glass1
  {
    type wallHeatTransfer;
    Tinf uniform 315.2;
    alphaWall uniform 4.3;
    value nonuniform List<scalar> 9
(
  311.083
  310.456
  310.066
  309.773
  309.531
  309.311
  309.16
  309.246
  309.489
)
;
  }
  glass2
  {
    type wallHeatTransfer;
    Tinf uniform 307.2;
    alphaWall uniform 4.3;
    value nonuniform List<scalar> 2
(
  305.736
  305.871
)
;
  }
  sun
  {
    type wallHeatTransfer;
    Tinf uniform 305.2;
    alphaWall uniform 0.24;
    value nonuniform List<scalar> 14
(
  303.151
  302.898
  302.885
  302.876
  302.867
  302.859
  302.85
  302.84
  302.832
  302.828
  302.832
  302.847
  302.874
  302.908
)
;
  }
  heatsource1
  {
    type fixedGradient;
    gradient uniform 0;
  }
  heatsource2
  {
    type fixedGradient;
    gradient uniform 0;
  }
  Table_master
  {
    type zeroGradient;
  }
  Table_slave
  {
    type zeroGradient;
  }
  inlet
  {
    type fixedValue;
    value uniform 293.15;
  }
  outlet
  {
    type zeroGradient;
  }
} 	// ************************************************************************* //

