// -*- C++ -*-
// File generated by PyFoam - sorry for the ugliness

FoamFile
{
 version 2.0;
 format ascii;
 class volVectorField;
 location "200";
 object U;
}

dimensions [ 0 1 -1 0 0 0 0 ];

internalField nonuniform List<vector> 459
(
  (0.0917045 0.0722257 0)
  (-0.144109 0.00612214 0)
  (-0.134833 0.0096253 0)
  (-0.15491 0.00935594 0)
  (-0.173456 0.00755346 0)
  (-0.189501 0.00507439 0)
  (-0.202044 0.00207582 0)
  (-0.210181 -0.00146723 0)
  (-0.21291 -0.00564967 0)
  (-0.209022 -0.0106589 0)
  (-0.196964 -0.0168661 0)
  (-0.174537 -0.0245509 0)
  (-0.140753 -0.0349174 0)
  (-0.103548 -0.0504051 0)
  (-0.0923376 -0.0703854 0)
  (0.0214693 0.0117669 0)
  (-0.030983 -0.00512214 0)
  (-0.015725 -0.0125774 0)
  (0.00183502 -0.0189834 0)
  (0.0268905 -0.0227078 0)
  (0.0492048 -0.0185281 0)
  (0.0655714 -0.00978972 0)
  (0.0720608 -0.00495601 0)
  (0.0715232 -0.00281923 0)
  (0.0686643 -0.00169271 0)
  (0.0656956 -0.000950022 0)
  (0.0628858 -0.000457344 0)
  (0.0601236 -0.000121333 0)
  (0.0573144 0.000217978 0)
  (0.054135 0.00085796 0)
  (0.0498137 0.0020932 0)
  (0.0436769 0.0029994 0)
  (0.0441924 0.00261007 0)
  (-0.0263524 0.0214548 0)
  (0.299712 0.156532 0)
  (-0.16525 0.0271726 0)
  (-0.120921 0.0314644 0)
  (-0.146926 0.0304002 0)
  (-0.166752 0.0273408 0)
  (-0.18361 0.0230168 0)
  (-0.196923 0.0174582 0)
  (-0.206009 0.0104925 0)
  (-0.209981 0.00187261 0)
  (-0.207744 -0.00866901 0)
  (-0.198511 -0.0208801 0)
  (-0.181216 -0.0345262 0)
  (-0.156017 -0.0503458 0)
  (-0.126533 -0.0701994 0)
  (-0.100137 -0.0914267 0)
  (-0.0803778 -0.0982132 0)
  (0.0559974 0.0226203 0)
  (0.0820295 0.0331835 0)
  (-0.0254602 0.00277199 0)
  (-0.0126853 -0.0141935 0)
  (-0.000426818 -0.0288447 0)
  (0.019134 -0.037602 0)
  (0.0367874 -0.0326525 0)
  (0.0515417 -0.011284 0)
  (0.0541518 0.000295983 0)
  (0.0522596 0.00436462 0)
  (0.0507352 0.00569449 0)
  (0.0501069 0.00605812 0)
  (0.0497977 0.00594721 0)
  (0.0495706 0.00568984 0)
  (0.0494109 0.0056496 0)
  (0.0488913 0.00647 0)
  (0.0462637 0.00972368 0)
  (0.0391652 0.0114998 0)
  (0.0486264 0.0102666 0)
  (-0.0833062 0.0459752 0)
  (0.477293 0.2396 0)
  (-0.212182 0.0579413 0)
  (-0.0989293 0.0568589 0)
  (-0.132322 0.050632 0)
  (-0.151761 0.0442157 0)
  (-0.168763 0.0363074 0)
  (-0.182749 0.0265079 0)
  (-0.193161 0.0145407 0)
  (-0.199135 0.000240055 0)
  (-0.199465 -0.0162953 0)
  (-0.19386 -0.0349415 0)
  (-0.182491 -0.0547823 0)
  (-0.166555 -0.0748766 0)
  (-0.148692 -0.094027 0)
  (-0.132005 -0.107935 0)
  (-0.120461 -0.109087 0)
  (-0.12318 -0.0979251 0)
  (0.0830277 0.051365 0)
  (-0.0359929 0.00800556 0)
  (-0.0219717 -0.0180444 0)
  (-0.0101645 -0.0417043 0)
  (0.00657571 -0.0557381 0)
  (0.019403 -0.0551867 0)
  (0.0398877 -0.0308874 0)
  (0.0305575 -0.0128164 0)
  (0.0242439 -0.00560539 0)
  (0.0258925 -0.00289725 0)
  (0.0297813 -0.00180371 0)
  (0.0333518 -0.00147971 0)
  (0.0364385 -0.00147065 0)
  (0.0394848 -0.00133119 0)
  (0.0430721 0.000964489 0)
  (0.0436652 0.0146744 0)
  (0.0332532 0.0204075 0)
  (0.0603673 0.0193586 0)
  (-0.131811 0.068111 0)
  (0.62411 0.309348 0)
  (-0.263902 0.0932933 0)
  (-0.0700655 0.0816499 0)
  (-0.111838 0.070441 0)
  (-0.128556 0.0619582 0)
  (-0.143912 0.0519546 0)
  (-0.157257 0.0395275 0)
  (-0.168061 0.0241467 0)
  (-0.175441 0.00549575 0)
  (-0.177972 -0.0162269 0)
  (-0.175295 -0.0399825 0)
  (-0.16905 -0.0638762 0)
  (-0.161185 -0.0857285 0)
  (-0.154349 -0.103218 0)
  (-0.151359 -0.1123 0)
  (-0.156384 -0.105779 0)
  (-0.169405 -0.069896 0)
  (-0.153135 0.0121026 0)
  (-0.0772981 0.0282409 0)
  (-0.0709393 -0.00115 0)
  (-0.0403448 -0.0320062 0)
  (-0.0228666 -0.0575866 0)
  (-0.0100576 -0.0684846 0)
  (-0.00637374 -0.0604028 0)
  (0.000119267 -0.0312916 0)
  (0.0279907 -0.0217533 0)
  (0.0483754 -0.0175671 0)
  (0.0651131 -0.0149311 0)
  (0.079381 -0.0125613 0)
  (0.0907408 -0.00967444 0)
  (0.0976416 -0.00577356 0)
  (0.0973685 -0.000593349 0)
  (0.0884543 0.00635679 0)
  (0.070154 0.0224602 0)
  (0.0474446 0.0358479 0)
  (0.0741623 0.0435998 0)
  (-0.190763 0.0864125 0)
  (0.74277 0.366988 0)
  (-0.310782 0.129444 0)
  (-0.0377784 0.1003 0)
  (-0.0860862 0.0860446 0)
  (-0.0983632 0.0764069 0)
  (-0.109853 0.0650409 0)
  (-0.120246 0.0507705 0)
  (-0.129137 0.0328481 0)
  (-0.1358 0.0108077 0)
  (-0.138534 -0.0150334 0)
  (-0.136373 -0.0425568 0)
  (-0.132343 -0.0684294 0)
  (-0.128495 -0.0899122 0)
  (-0.126917 -0.105394 0)
  (-0.129043 -0.113463 0)
  (-0.134789 -0.111915 0)
  (-0.138546 -0.0956333 0)
  (-0.129716 -0.0595399 0)
  (-0.103469 -0.0312772 0)
  (-0.0715589 -0.0322536 0)
  (-0.0459299 -0.053001 0)
  (-0.0279009 -0.0744488 0)
  (-0.0147323 -0.0793375 0)
  (-0.00583558 -0.0625713 0)
  (0.00400965 -0.0403442 0)
  (0.0204495 -0.0304573 0)
  (0.0354144 -0.0256401 0)
  (0.0491341 -0.0224848 0)
  (0.061751 -0.0189928 0)
  (0.0728304 -0.0135289 0)
  (0.081204 -0.00473928 0)
  (0.0851227 0.00715826 0)
  (0.0826309 0.0212058 0)
  (0.074593 0.0383896 0)
  (0.0575428 0.0551295 0)
  (0.0823689 0.0726906 0)
  (-0.0458421 0.0978019 0)
  (0.0522511 0.0212994 0)
  (-0.0687575 -0.0358266 0)
  (-0.297843 -0.0609088 0)
  (0.822669 0.418289 0)
  (-0.349667 0.161099 0)
  (-0.0111625 0.106254 0)
  (-0.0548661 0.0967281 0)
  (-0.0628642 0.0865136 0)
  (-0.0695188 0.0738887 0)
  (-0.0751205 0.0584442 0)
  (-0.0797945 0.0391188 0)
  (-0.0833717 0.0149516 0)
  (-0.0833194 -0.014258 0)
  (-0.0795581 -0.0450287 0)
  (-0.0764546 -0.0715396 0)
  (-0.0752441 -0.0912271 0)
  (-0.0769324 -0.103485 0)
  (-0.0817535 -0.107936 0)
  (-0.0883082 -0.1035 0)
  (-0.0919813 -0.0890274 0)
  (-0.0872581 -0.0682776 0)
  (-0.0728774 -0.052959 0)
  (-0.0544539 -0.0544905 0)
  (-0.0399688 -0.0696531 0)
  (-0.0261928 -0.0893631 0)
  (-0.0158365 -0.090812 0)
  (-0.00650243 -0.0686406 0)
  (-0.00126861 -0.0516777 0)
  (0.00863743 -0.042519 0)
  (0.0185525 -0.0379819 0)
  (0.0285688 -0.0349769 0)
  (0.0386559 -0.0313776 0)
  (0.048763 -0.025059 0)
  (0.0584025 -0.0138656 0)
  (0.0676751 0.00327775 0)
  (0.0715704 0.0228148 0)
  (0.0721689 0.0431098 0)
  (0.0674988 0.0624891 0)
  (0.0907209 0.085006 0)
  (0.0572265 0.0968445 0)
  (0.105126 0.0662773 0)
  (0.127651 0.045237 0)
  (-0.136249 -0.00586056 0)
  (0.844418 0.464693 0)
  (-0.36807 0.159571 0)
  (0.00806082 0.0738012 0)
  (-0.00648199 0.101291 0)
  (-0.0160437 0.0981148 0)
  (-0.021488 0.0798774 0)
  (-0.0228028 0.0611818 0)
  (-0.0221482 0.0407608 0)
  (-0.0208867 0.0152946 0)
  (-0.0124889 -0.0173893 0)
  (-0.0063728 -0.0495873 0)
  (-0.00526433 -0.0740487 0)
  (-0.0079881 -0.0903957 0)
  (-0.0141071 -0.0994598 0)
  (-0.0228468 -0.101884 0)
  (-0.0323581 -0.0976228 0)
  (-0.039358 -0.0868496 0)
  (-0.0407831 -0.073155 0)
  (-0.0365407 -0.0634116 0)
  (-0.0305221 -0.0644698 0)
  (-0.0281407 -0.0777317 0)
  (-0.0201288 -0.100112 0)
  (-0.0155244 -0.100669 0)
  (-0.00823219 -0.0728275 0)
  (-0.00873497 -0.0572345 0)
  (-0.00565263 -0.0493191 0)
  (-0.00183974 -0.0453366 0)
  (0.00275931 -0.043025 0)
  (0.00810051 -0.0404483 0)
  (0.0146046 -0.0353641 0)
  (0.0226628 -0.0251618 0)
  (0.0335587 -0.00710649 0)
  (0.0473313 0.0164595 0)
  (0.0567493 0.0381789 0)
  (0.0638464 0.0563973 0)
  (0.0874783 0.0754349 0)
  (0.0989132 0.0775116 0)
  (0.133981 0.0498343 0)
  (0.176395 0.0435227 0)
  (-0.0294426 0.102557 0)
  (0.945012 0.48542 0)
  (-0.142525 0.142559 0)
  (0.0759105 0.00812228 0)
  (0.111993 0.0454504 0)
  (0.084136 0.0712653 0)
  (0.0629206 0.0611926 0)
  (0.0575604 0.0412059 0)
  (0.0597881 0.0203248 0)
  (0.0641218 -0.00607651 0)
  (0.078149 -0.0321497 0)
  (0.0818598 -0.0544104 0)
  (0.0776187 -0.0716048 0)
  (0.0683704 -0.0831683 0)
  (0.0558 -0.0892444 0)
  (0.0412638 -0.0903341 0)
  (0.0263748 -0.0869277 0)
  (0.013272 -0.0796368 0)
  (0.00401291 -0.0705165 0)
  (-0.0011558 -0.0636063 0)
  (-0.00515701 -0.0640478 0)
  (-0.0146326 -0.0770004 0)
  (-0.0115752 -0.105674 0)
  (-0.0145622 -0.107598 0)
  (-0.00960098 -0.0730577 0)
  (-0.0170201 -0.0565461 0)
  (-0.0211821 -0.0492901 0)
  (-0.0245786 -0.0460271 0)
  (-0.0274739 -0.0444851 0)
  (-0.0297079 -0.0430516 0)
  (-0.0308181 -0.0401841 0)
  (-0.0300103 -0.0343774 0)
  (-0.0253489 -0.0242574 0)
  (-0.00773013 -0.00828131 0)
  (0.01177 0.0134219 0)
  (0.0237821 0.0260323 0)
  (0.0449504 0.0349685 0)
  (0.0609914 0.0244625 0)
  (0.0762424 -0.00477159 0)
  (0.140983 0.054484 0)
  (-0.494461 0.239092 0)
  (1.07818 0.447186 0)
  (0.518343 0.297451 0)
  (0.514416 0.235113 0)
  (0.476622 0.197883 0)
  (0.387921 0.171286 0)
  (0.311274 0.133001 0)
  (0.266151 0.0913367 0)
  (0.241414 0.0535773 0)
  (0.227928 0.0201703 0)
  (0.209726 -0.0105355 0)
  (0.189283 -0.0357842 0)
  (0.167786 -0.0541677 0)
  (0.145596 -0.0658221 0)
  (0.123063 -0.0717019 0)
  (0.100804 -0.0729709 0)
  (0.0796617 -0.0707589 0)
  (0.0606138 -0.0662214 0)
  (0.0444985 -0.0608201 0)
  (0.0312617 -0.0564132 0)
  (0.0185403 -0.0555455 0)
  (-0.00177075 -0.0657769 0)
  (-0.0014763 -0.101434 0)
  (-0.0141185 -0.106764 0)
  (-0.00993729 -0.0659935 0)
  (-0.0247934 -0.0494721 0)
  (-0.0367248 -0.0433323 0)
  (-0.0475763 -0.0405048 0)
  (-0.0587674 -0.0386381 0)
  (-0.0708711 -0.0362855 0)
  (-0.0841837 -0.0318891 0)
  (-0.099148 -0.0238349 0)
  (-0.116335 -0.0106131 0)
  (-0.134954 0.00837912 0)
  (-0.15102 0.0304966 0)
  (-0.177549 0.0533851 0)
  (-0.219643 0.0745478 0)
  (-0.280489 0.0891786 0)
  (-0.347403 0.0946853 0)
  (-0.421421 0.0916935 0)
  (-0.69814 0.0796287 0)
  (-0.215238 0.111694 0)
  (0.174461 0.183728 0)
  (0.257227 0.176087 0)
  (0.251688 0.143309 0)
  (0.25154 0.102862 0)
  (0.25416 0.0632929 0)
  (0.252951 0.0290078 0)
  (0.24567 0.00135306 0)
  (0.230982 -0.0195753 0)
  (0.211098 -0.0340314 0)
  (0.188071 -0.042948 0)
  (0.163609 -0.0473485 0)
  (0.139141 -0.048238 0)
  (0.115762 -0.0465614 0)
  (0.0942139 -0.0432375 0)
  (0.0748887 -0.0392171 0)
  (0.0575034 -0.0353774 0)
  (0.0390965 -0.0327279 0)
  (0.0121924 -0.0368249 0)
  (0.0125132 -0.0784509 0)
  (-0.0175719 -0.0891849 0)
  (-0.0143374 -0.0408 0)
  (-0.03349 -0.0291702 0)
  (-0.050099 -0.0271704 0)
  (-0.063982 -0.0267737 0)
  (-0.0781693 -0.0263854 0)
  (-0.0934327 -0.0249064 0)
  (-0.1091 -0.0208777 0)
  (-0.123653 -0.0127295 0)
  (-0.135241 0.00110947 0)
  (-0.14283 0.0206105 0)
  (-0.147744 0.0456825 0)
  (-0.152582 0.0735037 0)
  (-0.159224 0.0975017 0)
  (-0.164209 0.105603 0)
  (-0.147215 0.0761345 0)
  (-0.0916993 -0.0348868 0)
  (-0.29226 -0.246096 0)
  (-0.111293 0.266102 0)
  (0.0796503 0.194521 0)
  (0.102409 0.14517 0)
  (0.136704 0.118441 0)
  (0.173033 0.0881221 0)
  (0.201158 0.0595241 0)
  (0.216612 0.0377451 0)
  (0.219944 0.0240152 0)
  (0.214435 0.0158154 0)
  (0.202611 0.00986995 0)
  (0.186719 0.00608631 0)
  (0.168371 0.00446231 0)
  (0.148877 0.00499392 0)
  (0.129287 0.00760357 0)
  (0.110384 0.0120621 0)
  (0.0927202 0.0178419 0)
  (0.0766171 0.0248986 0)
  (0.060553 0.0366706 0)
  (0.0398282 0.0352869 0)
  (0.0367226 -0.054206 0)
  (-0.0293789 -0.0736728 0)
  (-0.0396083 0.0126737 0)
  (-0.0547912 0.0400722 0)
  (-0.0676443 0.0408668 0)
  (-0.0770975 0.0422273 0)
  (-0.0854781 0.0445946 0)
  (-0.0934661 0.0456858 0)
  (-0.10103 0.0449689 0)
  (-0.107474 0.0420052 0)
  (-0.110806 0.039612 0)
  (-0.108261 0.043102 0)
  (-0.0979226 0.0552668 0)
  (-0.0806487 0.0751337 0)
  (-0.0582785 0.0956448 0)
  (-0.0340902 0.10704 0)
  (0.00974571 0.0901844 0)
  (0.142658 0.00962638 0)
  (-0.20183 -0.162196 0)
  (-0.19622 -0.388564 0)
  (-0.470151 -0.103528 0)
  (-0.338813 0.164501 0)
  (-0.181812 0.0667797 0)
  (-0.0836215 0.0373552 0)
  (0.0286318 0.0270609 0)
  (0.0955744 0.00255452 0)
  (0.146049 -0.0210191 0)
  (0.177911 -0.0420106 0)
  (0.192939 -0.0608978 0)
  (0.195797 -0.0777896 0)
  (0.190583 -0.0915065 0)
  (0.179876 -0.103465 0)
  (0.165775 -0.114715 0)
  (0.149954 -0.126084 0)
  (0.133732 -0.138229 0)
  (0.118073 -0.151552 0)
  (0.103531 -0.165995 0)
  (0.0903113 -0.180641 0)
  (0.0796361 -0.193275 0)
  (0.0732796 -0.203465 0)
  (0.064714 -0.21972 0)
  (-0.0469428 -0.22011 0)
  (-0.0766546 -0.201574 0)
  (-0.0847295 -0.194596 0)
  (-0.0928391 -0.190943 0)
  (-0.10126 -0.186115 0)
  (-0.108334 -0.179173 0)
  (-0.113363 -0.169438 0)
  (-0.115911 -0.155903 0)
  (-0.115145 -0.137225 0)
  (-0.109283 -0.11502 0)
  (-0.0948043 -0.0907637 0)
  (-0.0687213 -0.0642 0)
  (-0.0330477 -0.0351627 0)
  (0.0335581 0.000965036 0)
  (0.0883423 0.000234653 0)
  (0.141563 -0.0272308 0)
  (0.190712 -0.0790849 0)
  (-0.140823 -0.15608 0)
)
;

boundaryField
{
  floor
  {
    type noSlip;
  }
  ceiling
  {
    type noSlip;
  }
  sWall
  {
    type noSlip;
  }
  nWall
  {
    type noSlip;
  }
  sideWalls
  {
    type empty;
  }
  glass1
  {
    type noSlip;
  }
  glass2
  {
    type noSlip;
  }
  sun
  {
    type noSlip;
  }
  heatsource1
  {
    type noSlip;
  }
  heatsource2
  {
    type noSlip;
  }
  Table_master
  {
    type noSlip;
  }
  Table_slave
  {
    type noSlip;
  }
  inlet
  {
    type fixedValue;
    value uniform (0.277164 -0.114805 0);
  }
  outlet
  {
    type zeroGradient;
  }
} 	// ************************************************************************* //

