/*--------------------------------*- C++ -*----------------------------------*\
  =========                 |
  \\      /  F ield         | OpenFOAM: The Open Source CFD Toolbox
   \\    /   O peration     | Website:  https://openfoam.org
    \\  /    A nd           | Version:  6
     \\/     M anipulation  |
\*---------------------------------------------------------------------------*/
FoamFile
{
    version     2.0;
    format      ascii;
    class       volScalarField;
    location    "20";
    object      T;
}
// * * * * * * * * * * * * * * * * * * * * * * * * * * * * * * * * * * * * * //

dimensions      [0 0 0 1 0 0 0];

internalField   nonuniform List<scalar> 
459
(
306.423
306.226
306.2
306.193
306.19
306.19
306.194
306.201
306.211
306.221
306.231
306.237
306.24
306.237
306.212
306.179
306.217
306.235
306.242
306.243
306.24
306.233
306.228
306.226
306.225
306.225
306.225
306.225
306.225
306.226
306.229
306.223
306.207
306.185
306.523
306.268
306.217
306.197
306.186
306.182
306.182
306.189
306.202
306.217
306.232
306.245
306.254
306.258
306.259
306.274
306.287
306.239
306.259
306.266
306.27
306.271
306.272
306.271
306.271
306.272
306.273
306.273
306.273
306.272
306.271
306.268
306.266
306.262
306.255
306.239
306.616
306.302
306.228
306.195
306.178
306.165
306.16
306.165
306.18
306.201
306.222
306.239
306.252
306.261
306.268
306.276
306.283
306.262
306.274
306.277
306.279
306.28
306.282
306.282
306.285
306.286
306.287
306.287
306.287
306.286
306.285
306.282
306.28
306.278
306.273
306.259
306.707
306.339
306.244
306.201
306.175
306.151
306.131
306.13
306.148
306.176
306.205
306.229
306.247
306.259
306.269
306.276
306.28
306.275
306.279
306.281
306.283
306.284
306.285
306.286
306.289
306.291
306.291
306.291
306.292
306.292
306.292
306.292
306.292
306.289
306.287
306.284
306.273
306.795
306.386
306.279
306.228
306.194
306.148
306.101
306.084
306.105
306.143
306.182
306.214
306.238
306.255
306.267
306.275
306.279
306.282
306.283
306.284
306.285
306.286
306.287
306.288
306.289
306.29
306.291
306.291
306.291
306.291
306.292
306.292
306.293
306.293
306.294
306.294
306.289
306.292
306.296
306.308
306.88
306.453
306.348
306.301
306.261
306.174
306.074
306.027
306.046
306.098
306.152
306.196
306.228
306.25
306.264
306.273
306.279
306.283
306.284
306.286
306.287
306.287
306.288
306.289
306.289
306.29
306.29
306.29
306.291
306.291
306.292
306.293
306.294
306.296
306.3
306.303
306.306
306.308
306.307
306.313
306.977
306.559
306.472
306.444
306.371
306.216
306.052
305.962
305.97
306.037
306.113
306.174
306.217
306.244
306.262
306.272
306.279
306.283
306.285
306.286
306.287
306.287
306.288
306.288
306.289
306.289
306.289
306.29
306.29
306.29
306.291
306.293
306.295
306.299
306.306
306.314
306.322
306.327
306.323
306.322
307.116
306.782
306.693
306.627
306.446
306.194
305.972
305.854
305.863
305.959
306.069
306.153
306.208
306.241
306.26
306.272
306.279
306.282
306.285
306.286
306.286
306.287
306.287
306.288
306.288
306.288
306.288
306.288
306.289
306.289
306.29
306.292
306.296
306.302
306.312
306.326
306.341
306.352
306.359
306.378
307.314
307.143
306.946
306.69
306.226
305.828
305.614
305.583
305.686
305.864
306.031
306.142
306.206
306.241
306.261
306.272
306.278
306.282
306.284
306.285
306.285
306.286
306.286
306.286
306.286
306.287
306.287
306.287
306.287
306.288
306.289
306.291
306.295
306.303
306.318
306.339
306.362
306.377
306.386
306.397
301.293
301.937
302.921
303.764
304.433
305.04
305.538
305.866
306.054
306.159
306.216
306.247
306.264
306.273
306.278
306.281
306.282
306.283
306.283
306.284
306.284
306.284
306.284
306.284
306.284
306.284
306.284
306.285
306.286
306.288
306.291
306.298
306.309
306.325
306.342
306.355
306.354
306.341
301.483
302.393
303.448
304.451
305.099
305.486
305.782
305.989
306.116
306.19
306.231
306.253
306.265
306.272
306.276
306.278
306.279
306.279
306.279
306.279
306.279
306.279
306.279
306.279
306.279
306.279
306.28
306.28
306.281
306.282
306.285
306.29
306.298
306.309
306.321
306.327
306.323
306.328
303.569
303.373
303.344
304.586
305.187
305.506
305.712
305.876
306.014
306.116
306.181
306.22
306.241
306.253
306.26
306.263
306.265
306.265
306.265
306.265
306.265
306.265
306.265
306.265
306.265
306.265
306.265
306.264
306.264
306.265
306.265
306.266
306.268
306.271
306.276
306.284
306.291
306.292
306.29
306.306
)
;

boundaryField
{
    floor
    {
        type            wallHeatTransfer;
        Tinf            uniform 301.25;
        alphaWall       uniform 0.24;
        value           nonuniform List<scalar> 
29
(
305.715
305.541
305.657
305.705
305.721
305.713
305.673
305.58
305.5
305.456
305.439
305.435
305.435
305.438
305.452
305.49
305.561
305.584
305.568
305.517
305.517
305.682
305.777
305.849
305.715
305.541
305.736
305.84
305.899
)
;
    }
    ceiling
    {
        type            wallHeatTransfer;
        Tinf            uniform 301.25;
        alphaWall       uniform 0.24;
        value           nonuniform List<scalar> 
43
(
303.366
303.196
303.179
304.346
304.918
305.224
305.421
305.576
305.707
305.802
305.862
305.897
305.915
305.925
305.93
305.933
305.933
305.934
305.933
305.933
305.933
305.933
305.932
305.932
305.932
305.931
305.931
305.931
305.93
305.93
305.93
305.93
305.931
305.932
305.933
305.933
305.926
305.908
305.894
305.896
307.023
306.888
301.465
)
;
    }
    sWall
    {
        type            wallHeatTransfer;
        Tinf            uniform 314.15;
        alphaWall       uniform 0.36;
        value           uniform 304.904;
    }
    nWall
    {
        type            wallHeatTransfer;
        Tinf            uniform 308.15;
        alphaWall       uniform 0.36;
        value           nonuniform List<scalar> 6(306.578 306.558 306.557 306.535 306.501 306.522);
    }
    sideWalls
    {
        type            empty;
    }
    glass1
    {
        type            wallHeatTransfer;
        Tinf            uniform 314.15;
        alphaWall       uniform 4.3;
        value           nonuniform List<scalar> 9(311.35 310.911 310.67 310.509 310.397 310.32 310.303 310.394 310.574);
    }
    glass2
    {
        type            wallHeatTransfer;
        Tinf            uniform 308.15;
        alphaWall       uniform 4.3;
        value           nonuniform List<scalar> 2(307.513 307.475);
    }
    sun
    {
        type            wallHeatTransfer;
        Tinf            uniform 301.25;
        alphaWall       uniform 0.24;
        value           nonuniform List<scalar> 
14
(
305.967
305.827
305.802
305.804
305.813
305.821
305.828
305.833
305.834
305.831
305.822
305.808
305.791
305.767
)
;
    }
    heatsource1
    {
        type            fixedGradient;
        gradient        uniform 0;
    }
    heatsource2
    {
        type            fixedGradient;
        gradient        uniform 0;
    }
    Table_master
    {
        type            zeroGradient;
    }
    Table_slave
    {
        type            zeroGradient;
    }
    inlet
    {
        type            fixedValue;
        value           uniform 299.15;
    }
    outlet
    {
        type            zeroGradient;
    }
}


// ************************************************************************* //
