/*--------------------------------*- C++ -*----------------------------------*\
  =========                 |
  \\      /  F ield         | OpenFOAM: The Open Source CFD Toolbox
   \\    /   O peration     | Website:  https://openfoam.org
    \\  /    A nd           | Version:  6
     \\/     M anipulation  |
\*---------------------------------------------------------------------------*/
FoamFile
{
    version     2.0;
    format      ascii;
    class       volVectorField;
    location    "20";
    object      U;
}
// * * * * * * * * * * * * * * * * * * * * * * * * * * * * * * * * * * * * * //

dimensions      [0 1 -1 0 0 0 0];

internalField   nonuniform List<vector> 
459
(
(0.0323217 0.0610727 0)
(-0.121728 0.0116651 0)
(-0.121777 -0.000791649 0)
(-0.12318 -0.00522376 0)
(-0.116362 -0.0106152 0)
(-0.101622 -0.0155807 0)
(-0.0807929 -0.0186989 0)
(-0.0571488 -0.0190125 0)
(-0.0343496 -0.0165302 0)
(-0.0153928 -0.0121808 0)
(-0.00174133 -0.00716617 0)
(0.00565139 -0.00297158 0)
(0.00768985 6.0776e-07 0)
(0.00619307 0.00236783 0)
(0.0386312 0.00472982 0)
(-0.065706 -0.00605536 0)
(0.0171373 -0.00161602 0)
(0.00989563 0.00228772 0)
(0.00420847 0.000576917 0)
(0.00456182 -0.000642042 0)
(0.0058712 -0.000749904 0)
(0.00641072 -1.7752e-05 0)
(0.00619893 0.0002474 0)
(0.00593267 0.000225379 0)
(0.0057862 0.000179931 0)
(0.00570277 0.000163004 0)
(0.00561969 0.00018767 0)
(0.00542823 0.000334336 0)
(0.00475203 0.000859726 0)
(0.0028821 0.00215011 0)
(-0.000975925 0.0038096 0)
(-0.014264 0.00519369 0)
(-0.0242972 -0.000660267 0)
(0.0715807 -0.0120966 0)
(0.151288 0.127175 0)
(-0.111533 0.0402437 0)
(-0.103914 0.0126723 0)
(-0.110892 -0.00123397 0)
(-0.108416 -0.0143641 0)
(-0.0973142 -0.0260183 0)
(-0.0796957 -0.0336411 0)
(-0.0590362 -0.0355275 0)
(-0.0388616 -0.0319811 0)
(-0.0216962 -0.0248865 0)
(-0.00869834 -0.0164872 0)
(-1.41259e-05 -0.00864833 0)
(0.00465778 -0.00274304 0)
(0.00627258 0.000650467 0)
(0.0109691 0.0051427 0)
(0.00602436 0.00795583 0)
(0.00029758 0.00232008 0)
(-0.089463 -0.00473886 0)
(0.00392499 -0.00310129 0)
(0.000845078 5.36252e-05 0)
(0.00139732 -0.000789061 0)
(0.00316763 -0.00176905 0)
(0.00485454 -0.0017743 0)
(0.0059152 -0.000187617 0)
(0.00600047 0.000337487 0)
(0.00585984 0.00034241 0)
(0.00583143 0.000283192 0)
(0.00583069 0.00026312 0)
(0.00582458 0.000335639 0)
(0.00579525 0.000658047 0)
(0.00559367 0.0016634 0)
(0.00538772 0.00369563 0)
(0.00637551 0.00490936 0)
(0.00352486 0.0067718 0)
(-0.0103073 0.00234198 0)
(0.114394 -0.0102774 0)
(0.254242 0.190027 0)
(-0.117157 0.0672864 0)
(-0.0895521 0.0276537 0)
(-0.0996437 0.00281913 0)
(-0.100177 -0.0194561 0)
(-0.0908858 -0.038685 0)
(-0.0743835 -0.0510707 0)
(-0.0548444 -0.0541027 0)
(-0.036104 -0.0487761 0)
(-0.0205036 -0.0383717 0)
(-0.00883186 -0.026328 0)
(-0.000900338 -0.0151149 0)
(0.00365434 -0.00621283 0)
(0.00523395 0.000121302 0)
(0.00557308 0.00533127 0)
(0.00379852 0.00825453 0)
(-0.00439243 0.00684147 0)
(-0.0793233 0.0050768 0)
(0.00116995 -0.0021126 0)
(1.45412e-05 -0.0029515 0)
(0.00104153 -0.00309969 0)
(0.00243238 -0.0034678 0)
(0.00382286 -0.00380053 0)
(0.00570514 -0.00238593 0)
(0.00557586 -0.00227508 0)
(0.00539731 -0.00267136 0)
(0.00553662 -0.00288206 0)
(0.00565423 -0.00294304 0)
(0.00577072 -0.00290823 0)
(0.00595573 -0.00269102 0)
(0.00612774 -0.0018816 0)
(0.00896924 0.00195738 0)
(0.0156153 0.00150157 0)
(0.0176361 0.00435372 0)
(0.00916683 0.00529437 0)
(0.126443 0.00689996 0)
(0.343057 0.242331 0)
(-0.131719 0.0962805 0)
(-0.0767141 0.0458012 0)
(-0.0881911 0.00915758 0)
(-0.0899772 -0.0236193 0)
(-0.0805824 -0.0518439 0)
(-0.0637608 -0.0696496 0)
(-0.044632 -0.0735122 0)
(-0.0271993 -0.0656878 0)
(-0.0134977 -0.0513753 0)
(-0.00390103 -0.0353991 0)
(0.00224702 -0.0207705 0)
(0.00561391 -0.00914672 0)
(0.00683457 -0.000558886 0)
(0.00693404 0.00575071 0)
(0.00655744 0.00888678 0)
(0.0051047 0.003204 0)
(0.00768926 -0.0571854 0)
(0.000826974 -0.00282157 0)
(0.00643342 -0.00411818 0)
(0.00335261 -0.00396459 0)
(0.00231017 -0.00372882 0)
(0.00186274 -0.00373777 0)
(0.00109081 -0.0036861 0)
(-0.000277254 -0.00184874 0)
(0.000702763 -0.00133852 0)
(0.00139046 -0.00130986 0)
(0.00190727 -0.00151506 0)
(0.00282465 -0.00195492 0)
(0.00450549 -0.0026796 0)
(0.00727475 -0.00374433 0)
(0.0114002 -0.00515675 0)
(0.0189914 -0.00701382 0)
(0.024069 -0.0057492 0)
(0.0275213 -0.0012196 0)
(0.0244336 0.0075857 0)
(0.127062 0.035992 0)
(0.419526 0.285925 0)
(-0.150586 0.124117 0)
(-0.0623357 0.0631147 0)
(-0.0712626 0.0157057 0)
(-0.0708684 -0.0281738 0)
(-0.0592809 -0.0661323 0)
(-0.0424233 -0.088728 0)
(-0.0254104 -0.0920825 0)
(-0.0111625 -0.0806561 0)
(-0.000916151 -0.0618103 0)
(0.00528148 -0.0418881 0)
(0.0084562 -0.0245116 0)
(0.00970668 -0.010858 0)
(0.00984264 -0.000944017 0)
(0.00974079 0.00576783 0)
(0.0101662 0.0091097 0)
(0.0104919 0.00789266 0)
(0.00915998 0.00155009 0)
(0.00627493 0.00267353 0)
(0.00591073 -0.001026 0)
(0.00418951 -0.00235497 0)
(0.00301797 -0.00276533 0)
(0.00212451 -0.00280621 0)
(0.00127677 -0.00236258 0)
(0.000845957 -0.00115208 0)
(0.00105994 -0.000671026 0)
(0.00144588 -0.000660196 0)
(0.00197274 -0.00107611 0)
(0.00285377 -0.00194973 0)
(0.00430906 -0.00334051 0)
(0.00655601 -0.00531259 0)
(0.00975664 -0.00785909 0)
(0.0143669 -0.0103389 0)
(0.0201086 -0.0112834 0)
(0.0270734 -0.00944366 0)
(0.0340367 -0.00219467 0)
(0.0734866 0.0242507 0)
(0.0822168 0.0201697 0)
(0.0807134 0.0215517 0)
(-0.0398387 0.0403809 0)
(0.481949 0.324193 0)
(-0.171708 0.145338 0)
(-0.0434451 0.0716531 0)
(-0.0397006 0.0182151 0)
(-0.0296269 -0.0362045 0)
(-0.0152474 -0.0819058 0)
(-0.00217697 -0.105876 0)
(0.00749348 -0.106271 0)
(0.0139246 -0.0904705 0)
(0.0173702 -0.0675039 0)
(0.0179042 -0.0444226 0)
(0.0165627 -0.0250272 0)
(0.0145357 -0.0103938 0)
(0.012633 -0.000251748 0)
(0.0113701 0.00601257 0)
(0.0110181 0.00861513 0)
(0.0108329 0.00742743 0)
(0.00905017 0.00353966 0)
(0.00680906 0.0024254 0)
(0.00579486 0.000232718 0)
(0.00451108 -0.00108662 0)
(0.00338827 -0.00173434 0)
(0.00243343 -0.00191239 0)
(0.00163756 -0.00165079 0)
(0.00120576 -0.00106601 0)
(0.00114957 -0.000824129 0)
(0.00129194 -0.00101561 0)
(0.0016031 -0.00168239 0)
(0.0021563 -0.00290454 0)
(0.0030466 -0.00477703 0)
(0.0043618 -0.00737324 0)
(0.00614535 -0.0106489 0)
(0.00857103 -0.0141717 0)
(0.0121438 -0.01701 0)
(0.0174732 -0.0184937 0)
(0.0246609 -0.0172656 0)
(0.0412951 -0.00733474 0)
(0.0567553 0.00105338 0)
(0.0687601 0.028053 0)
(-0.0438678 0.076782 0)
(0.546938 0.358853 0)
(-0.180917 0.142064 0)
(-0.00850254 0.047491 0)
(0.0276414 -0.00501317 0)
(0.0504894 -0.0578191 0)
(0.0616516 -0.0965685 0)
(0.0637722 -0.113104 0)
(0.058559 -0.108956 0)
(0.0501246 -0.0902066 0)
(0.0413245 -0.0648443 0)
(0.0327013 -0.0403346 0)
(0.0248509 -0.020745 0)
(0.0185686 -0.00677144 0)
(0.0141545 0.00234882 0)
(0.0114938 0.00746082 0)
(0.0102275 0.00918491 0)
(0.00950154 0.00799105 0)
(0.00814664 0.00514825 0)
(0.00663173 0.00329622 0)
(0.00560305 0.0014075 0)
(0.00452048 5.91371e-05 0)
(0.00350569 -0.000730553 0)
(0.00260401 -0.00105681 0)
(0.00185088 -0.00101609 0)
(0.00134603 -0.000789341 0)
(0.00108259 -0.000761837 0)
(0.000958881 -0.00110394 0)
(0.000925977 -0.00192516 0)
(0.000970093 -0.00333279 0)
(0.00107463 -0.00542702 0)
(0.00119239 -0.00827143 0)
(0.00122526 -0.011825 0)
(0.0011359 -0.0158254 0)
(0.00119527 -0.0198385 0)
(0.00188511 -0.0236349 0)
(0.00374119 -0.0265715 0)
(0.0110579 -0.0257788 0)
(0.026463 -0.0187548 0)
(0.0529913 0.0240125 0)
(-0.0551431 0.114338 0)
(0.657541 0.358449 0)
(-0.033647 0.110962 0)
(0.0814399 -0.0293804 0)
(0.1574 -0.0746203 0)
(0.176959 -0.0942945 0)
(0.172461 -0.106265 0)
(0.155512 -0.106013 0)
(0.128402 -0.093441 0)
(0.0963534 -0.0723206 0)
(0.0675982 -0.0480533 0)
(0.0457228 -0.0263255 0)
(0.0300687 -0.0101216 0)
(0.0195919 0.00069405 0)
(0.013227 0.0070966 0)
(0.00980519 0.0101859 0)
(0.00823683 0.0106932 0)
(0.00750226 0.0092101 0)
(0.00671593 0.00671198 0)
(0.00585764 0.00460996 0)
(0.00510103 0.00275469 0)
(0.00427027 0.00139047 0)
(0.0034274 0.000540134 0)
(0.00262555 0.000122774 0)
(0.00191171 2.11943e-05 0)
(0.00134073 5.62084e-05 0)
(0.000899642 -3.65253e-05 0)
(0.000511588 -0.000433289 0)
(0.000102632 -0.0012598 0)
(-0.000409911 -0.00261493 0)
(-0.00114731 -0.00456329 0)
(-0.00231381 -0.00710622 0)
(-0.00425515 -0.0101336 0)
(-0.0074609 -0.0134026 0)
(-0.0125238 -0.0166391 0)
(-0.0204708 -0.0196521 0)
(-0.0330623 -0.020994 0)
(-0.0475862 -0.0133225 0)
(-0.0614625 0.0205226 0)
(-0.105874 0.0810577 0)
(-0.321776 0.141809 0)
(0.814463 0.359549 0)
(0.372311 0.248851 0)
(0.372313 0.137685 0)
(0.386745 0.0534311 0)
(0.352137 -0.00526317 0)
(0.299751 -0.040299 0)
(0.24788 -0.0510865 0)
(0.192941 -0.0442864 0)
(0.133176 -0.0282582 0)
(0.0803574 -0.0113421 0)
(0.0459765 0.000105633 0)
(0.025898 0.00680727 0)
(0.0145532 0.0106117 0)
(0.0086228 0.0125616 0)
(0.00595657 0.0129786 0)
(0.00509621 0.0120626 0)
(0.00499888 0.0101196 0)
(0.00494392 0.00773091 0)
(0.00473953 0.00562872 0)
(0.00439527 0.00388998 0)
(0.00386639 0.00262231 0)
(0.00321906 0.00181483 0)
(0.00252525 0.00138614 0)
(0.00184639 0.00122184 0)
(0.00122532 0.00117072 0)
(0.000646788 0.00104588 0)
(4.01442e-05 0.000698028 0)
(-0.000686555 1.81093e-05 0)
(-0.00165972 -0.00104303 0)
(-0.00307227 -0.00246362 0)
(-0.00524149 -0.00408589 0)
(-0.00873706 -0.00550813 0)
(-0.0145469 -0.00598498 0)
(-0.0243442 -0.0043424 0)
(-0.0411575 0.00100555 0)
(-0.070508 0.0112011 0)
(-0.113122 0.0227863 0)
(-0.156352 0.0220974 0)
(-0.218391 -0.00124669 0)
(-0.359539 -0.0569985 0)
(-0.17149 0.0143183 0)
(0.0726721 -0.0362705 0)
(0.142129 -0.0648777 0)
(0.123281 -0.0548634 0)
(0.101483 -0.028511 0)
(0.0720088 -0.000173455 0)
(0.0439796 0.0174167 0)
(0.0249603 0.0211564 0)
(0.0127736 0.0188006 0)
(0.00544571 0.0157257 0)
(0.00147021 0.0134407 0)
(-2.11261e-05 0.0116531 0)
(0.000114898 0.00985158 0)
(0.0010788 0.00777834 0)
(0.00222771 0.00545535 0)
(0.00311837 0.00315758 0)
(0.00360671 0.00122726 0)
(0.00370293 -0.00029254 0)
(0.00345467 -0.00139838 0)
(0.00297198 -0.00213756 0)
(0.00236152 -0.00258862 0)
(0.00170774 -0.00284401 0)
(0.0010605 -0.00300892 0)
(0.00040779 -0.00319428 0)
(-0.000320186 -0.00348741 0)
(-0.00121407 -0.00393998 0)
(-0.00239858 -0.00455447 0)
(-0.00404842 -0.00527278 0)
(-0.00636695 -0.00577626 0)
(-0.00956315 -0.00541724 0)
(-0.0137892 -0.0032049 0)
(-0.0188811 0.00244905 0)
(-0.0240277 0.013126 0)
(-0.0275378 0.0291026 0)
(-0.0275215 0.0470854 0)
(-0.0238447 0.0561871 0)
(-2.63422e-05 0.0174439 0)
(-0.0520983 -0.145858 0)
(-0.0841188 0.0666055 0)
(0.0671983 -0.0333435 0)
(0.0426261 -0.0768826 0)
(-0.00052925 -0.0658659 0)
(-0.0253921 -0.0396032 0)
(-0.0309759 -0.020108 0)
(-0.0306658 -0.00964445 0)
(-0.0268318 -0.00790751 0)
(-0.0220609 -0.0110497 0)
(-0.0176625 -0.0155147 0)
(-0.013657 -0.0196394 0)
(-0.00981612 -0.0231907 0)
(-0.00614573 -0.0264151 0)
(-0.00281663 -0.029554 0)
(-6.54957e-05 -0.0326902 0)
(0.00186676 -0.0356383 0)
(0.00296245 -0.0381598 0)
(0.00336665 -0.0401794 0)
(0.00327457 -0.0417133 0)
(0.00287744 -0.0428561 0)
(0.00231596 -0.0437256 0)
(0.00168742 -0.0444325 0)
(0.00105352 -0.0450737 0)
(0.00042733 -0.0457416 0)
(-0.000250727 -0.0465167 0)
(-0.00108929 -0.0474317 0)
(-0.00219957 -0.0484379 0)
(-0.00369993 -0.0493551 0)
(-0.0056523 -0.049961 0)
(-0.00788058 -0.0497873 0)
(-0.00978893 -0.0478851 0)
(-0.00998346 -0.0432707 0)
(-0.00595478 -0.035775 0)
(0.00604577 -0.0279603 0)
(0.0270883 -0.0290042 0)
(0.0542312 -0.0514179 0)
(0.103544 -0.0916877 0)
(0.0223894 -0.186872 0)
(0.420704 -0.107698 0)
(-0.255148 -0.0838831 0)
(-0.147609 0.202104 0)
(-0.105477 0.236773 0)
(-0.113469 0.237871 0)
(-0.120991 0.234087 0)
(-0.118789 0.225987 0)
(-0.107816 0.220954 0)
(-0.0914321 0.220269 0)
(-0.0728797 0.22228 0)
(-0.0556561 0.225845 0)
(-0.0412694 0.230321 0)
(-0.0297087 0.235145 0)
(-0.0205026 0.239998 0)
(-0.0132254 0.244773 0)
(-0.00761256 0.24933 0)
(-0.0035201 0.253222 0)
(-0.000775418 0.256128 0)
(0.000901004 0.25826 0)
(0.00180545 0.26 0)
(0.0021286 0.261569 0)
(0.00202224 0.263057 0)
(0.00163148 0.264546 0)
(0.00106831 0.266076 0)
(0.000398507 0.267645 0)
(-0.000349414 0.269144 0)
(-0.00116737 0.270399 0)
(-0.00209475 0.271416 0)
(-0.00319874 0.272316 0)
(-0.00447399 0.273065 0)
(-0.00580954 0.273705 0)
(-0.00694902 0.274416 0)
(-0.00734134 0.27502 0)
(-0.00616374 0.276035 0)
(-0.00251451 0.278784 0)
(0.00538402 0.282749 0)
(0.0164521 0.291847 0)
(0.0236095 0.316654 0)
(0.111625 0.329999 0)
(-0.325018 0.497705 0)
)
;

boundaryField
{
    floor
    {
        type            noSlip;
    }
    ceiling
    {
        type            noSlip;
    }
    sWall
    {
        type            noSlip;
    }
    nWall
    {
        type            noSlip;
    }
    sideWalls
    {
        type            empty;
    }
    glass1
    {
        type            noSlip;
    }
    glass2
    {
        type            noSlip;
    }
    sun
    {
        type            noSlip;
    }
    heatsource1
    {
        type            noSlip;
    }
    heatsource2
    {
        type            noSlip;
    }
    Table_master
    {
        type            noSlip;
    }
    Table_slave
    {
        type            noSlip;
    }
    inlet
    {
        type            fixedValue;
        value           uniform (0.2 0 0);
    }
    outlet
    {
        type            zeroGradient;
    }
}


// ************************************************************************* //
