// -*- C++ -*-
// File generated by PyFoam - sorry for the ugliness

FoamFile
{
 version 2.0;
 format ascii;
 class volScalarField;
 location "460";
 object T;
}

dimensions [ 0 0 0 1 0 0 0 ];

internalField nonuniform List<scalar> 459
(
  303.648
  303.499
  303.496
  303.497
  303.498
  303.498
  303.498
  303.497
  303.493
  303.487
  303.479
  303.471
  303.465
  303.456
  303.416
  303.347
  303.389
  303.442
  303.475
  303.486
  303.49
  303.49
  303.487
  303.484
  303.481
  303.477
  303.474
  303.469
  303.465
  303.461
  303.456
  303.448
  303.424
  303.392
  303.76
  303.543
  303.538
  303.545
  303.55
  303.553
  303.553
  303.55
  303.54
  303.523
  303.505
  303.49
  303.482
  303.479
  303.477
  303.489
  303.497
  303.452
  303.482
  303.505
  303.521
  303.532
  303.539
  303.543
  303.547
  303.55
  303.554
  303.557
  303.561
  303.563
  303.563
  303.56
  303.549
  303.53
  303.489
  303.492
  303.871
  303.58
  303.568
  303.581
  303.593
  303.602
  303.605
  303.602
  303.585
  303.555
  303.52
  303.493
  303.481
  303.481
  303.486
  303.492
  303.497
  303.502
  303.517
  303.529
  303.54
  303.549
  303.556
  303.559
  303.563
  303.568
  303.573
  303.578
  303.584
  303.589
  303.594
  303.595
  303.59
  303.572
  303.541
  303.539
  303.983
  303.618
  303.594
  303.612
  303.634
  303.654
  303.667
  303.666
  303.64
  303.59
  303.534
  303.493
  303.475
  303.476
  303.485
  303.494
  303.499
  303.503
  303.515
  303.527
  303.54
  303.553
  303.565
  303.574
  303.584
  303.594
  303.604
  303.613
  303.623
  303.633
  303.642
  303.652
  303.66
  303.643
  303.618
  303.588
  303.573
  304.093
  303.662
  303.617
  303.635
  303.665
  303.698
  303.726
  303.729
  303.691
  303.62
  303.542
  303.488
  303.467
  303.47
  303.484
  303.499
  303.511
  303.523
  303.537
  303.551
  303.566
  303.58
  303.593
  303.604
  303.617
  303.629
  303.64
  303.651
  303.661
  303.671
  303.679
  303.686
  303.689
  303.681
  303.66
  303.634
  303.604
  303.61
  303.683
  303.849
  304.194
  303.716
  303.647
  303.653
  303.682
  303.72
  303.767
  303.772
  303.718
  303.629
  303.539
  303.477
  303.455
  303.463
  303.486
  303.511
  303.532
  303.55
  303.567
  303.584
  303.601
  303.616
  303.63
  303.643
  303.655
  303.667
  303.678
  303.688
  303.698
  303.707
  303.714
  303.718
  303.719
  303.713
  303.7
  303.687
  303.647
  303.636
  303.722
  303.867
  304.284
  303.804
  303.721
  303.704
  303.719
  303.752
  303.798
  303.789
  303.717
  303.61
  303.509
  303.448
  303.435
  303.458
  303.497
  303.535
  303.565
  303.59
  303.61
  303.629
  303.646
  303.661
  303.675
  303.687
  303.697
  303.708
  303.718
  303.727
  303.736
  303.743
  303.749
  303.752
  303.752
  303.746
  303.736
  303.722
  303.677
  303.663
  303.744
  303.894
  304.415
  304.042
  303.939
  303.876
  303.853
  303.869
  303.865
  303.794
  303.671
  303.538
  303.438
  303.397
  303.413
  303.464
  303.524
  303.577
  303.616
  303.644
  303.666
  303.684
  303.7
  303.713
  303.724
  303.734
  303.743
  303.752
  303.76
  303.768
  303.775
  303.781
  303.785
  303.787
  303.785
  303.78
  303.77
  303.753
  303.711
  303.694
  303.758
  303.937
  304.597
  304.421
  304.294
  304.18
  304.096
  304.031
  303.888
  303.691
  303.502
  303.368
  303.313
  303.335
  303.408
  303.5
  303.582
  303.642
  303.683
  303.709
  303.727
  303.741
  303.753
  303.763
  303.772
  303.78
  303.787
  303.794
  303.801
  303.807
  303.812
  303.815
  303.817
  303.817
  303.815
  303.81
  303.801
  303.785
  303.754
  303.738
  303.785
  303.943
  301.662
  302.346
  302.695
  302.795
  302.835
  302.876
  302.941
  303.04
  303.171
  303.324
  303.469
  303.594
  303.673
  303.719
  303.747
  303.765
  303.778
  303.788
  303.797
  303.805
  303.811
  303.817
  303.822
  303.827
  303.831
  303.834
  303.837
  303.838
  303.838
  303.837
  303.835
  303.831
  303.825
  303.815
  303.8
  303.793
  303.83
  303.915
  301.709
  302.168
  302.385
  302.499
  302.605
  302.755
  302.931
  303.119
  303.309
  303.491
  303.609
  303.689
  303.74
  303.769
  303.788
  303.8
  303.81
  303.817
  303.824
  303.829
  303.834
  303.838
  303.841
  303.844
  303.846
  303.847
  303.848
  303.848
  303.848
  303.847
  303.845
  303.843
  303.84
  303.838
  303.836
  303.839
  303.866
  303.908
  302.156
  302.087
  302.084
  302.337
  302.525
  302.703
  302.914
  303.12
  303.305
  303.457
  303.576
  303.664
  303.721
  303.757
  303.78
  303.795
  303.806
  303.813
  303.82
  303.825
  303.829
  303.832
  303.835
  303.837
  303.839
  303.84
  303.841
  303.841
  303.841
  303.84
  303.84
  303.839
  303.839
  303.839
  303.842
  303.845
  303.851
  303.861
  303.88
  303.906
)
;

boundaryField
{
  floor
  {
    type wallHeatTransfer;
    Tinf uniform 298.85;
    alphaWall uniform 0.24;
    value nonuniform List<scalar> 29
(
  302.885
  302.633
  302.718
  302.707
  302.735
  302.72
  302.688
  302.636
  302.578
  302.52
  302.463
  302.409
  302.358
  302.308
  302.261
  302.214
  302.166
  302.15
  302.329
  302.519
  302.519
  302.715
  302.82
  302.888
  302.885
  302.633
  302.883
  302.975
  303.075
)
;
  }
  ceiling
  {
    type wallHeatTransfer;
    Tinf uniform 298.85;
    alphaWall uniform 0.24;
    value nonuniform List<scalar> 43
(
  301.854
  301.806
  301.817
  302.07
  302.25
  302.418
  302.617
  302.818
  302.999
  303.15
  303.267
  303.349
  303.397
  303.425
  303.441
  303.45
  303.458
  303.463
  303.468
  303.472
  303.476
  303.479
  303.481
  303.484
  303.485
  303.487
  303.488
  303.489
  303.49
  303.49
  303.491
  303.491
  303.492
  303.492
  303.492
  303.494
  303.505
  303.527
  303.556
  303.553
  304.285
  304.163
  301.474
)
;
  }
  sWall
  {
    type wallHeatTransfer;
    Tinf uniform 311.144;
    alphaWall uniform 0.36;
    value uniform 303.339;
  }
  nWall
  {
    type wallHeatTransfer;
    Tinf uniform 299.15;
    alphaWall uniform 0.36;
    value nonuniform List<scalar> 6
(
  303.195
  303.338
  303.467
  303.556
  303.493
  303.425
)
;
  }
  sideWalls
  {
    type empty;
  }
  glass1
  {
    type wallHeatTransfer;
    Tinf uniform 311.144;
    alphaWall uniform 4.3;
    value nonuniform List<scalar> 9
(
  308.973
  308.626
  308.395
  308.214
  308.058
  307.912
  307.789
  307.811
  307.928
)
;
  }
  glass2
  {
    type wallHeatTransfer;
    Tinf uniform 299.15;
    alphaWall uniform 4.3;
    value nonuniform List<scalar> 2
(
  301.659
  301.767
)
;
  }
  sun
  {
    type wallHeatTransfer;
    Tinf uniform 298.85;
    alphaWall uniform 0.24;
    value nonuniform List<scalar> 14
(
  303.078
  302.983
  302.991
  303.011
  303.027
  303.041
  303.053
  303.065
  303.071
  303.07
  303.064
  303.053
  303.034
  303
)
;
  }
  heatsource1
  {
    type fixedGradient;
    gradient uniform 0;
  }
  heatsource2
  {
    type fixedGradient;
    gradient uniform 0;
  }
  Table_master
  {
    type zeroGradient;
  }
  Table_slave
  {
    type zeroGradient;
  }
  inlet
  {
    type fixedValue;
    value uniform 300.15;
  }
  outlet
  {
    type zeroGradient;
  }
} 	// ************************************************************************* //

