/*--------------------------------*- C++ -*----------------------------------*\
  =========                 |
  \\      /  F ield         | OpenFOAM: The Open Source CFD Toolbox
   \\    /   O peration     | Website:  https://openfoam.org
    \\  /    A nd           | Version:  6
     \\/     M anipulation  |
\*---------------------------------------------------------------------------*/
FoamFile
{
    version     2.0;
    format      ascii;
    class       volScalarField;
    location    "400";
    object      alphat;
}
// * * * * * * * * * * * * * * * * * * * * * * * * * * * * * * * * * * * * * //

dimensions      [1 -1 -1 0 0 0 0];

internalField   nonuniform List<scalar> 
459
(
0.00154244
0.00173879
0.00174927
0.00124832
0.0010315
0.000896353
0.000799003
0.000708117
0.000654184
0.000624172
0.00061205
0.000611238
0.000615195
0.000618877
0.000613774
0.000313036
0.000343437
0.000357733
0.000302192
0.00024167
0.000211383
0.000196676
0.000194144
0.000206493
0.000229672
0.000258445
0.000287713
0.000309391
0.00031977
0.000338321
0.000363803
0.000396921
0.000418244
0.000361631
0.00166648
0.00277274
0.00346748
0.00392931
0.00376435
0.00344813
0.00259521
0.00204151
0.00247132
0.00266326
0.00253869
0.00240401
0.00223534
0.00193905
0.00142363
0.000694368
0.000501793
0.000445699
0.000901323
0.00105469
0.00105836
0.000828407
0.000453835
0.000279417
0.000306167
0.000411974
0.000580016
0.000774952
0.000966683
0.0011265
0.00125193
0.00139521
0.00164574
0.00155209
0.00148646
0.000433591
0.00319995
0.00365823
0.00374058
0.00383832
0.00390577
0.00386145
0.00366348
0.00294313
0.00288052
0.00354827
0.00349545
0.00328721
0.00302818
0.00263543
0.00206421
0.0013931
0.000770115
0.00072539
0.00199333
0.00182015
0.00153288
0.00113484
0.000740117
0.000286114
0.000303876
0.000339347
0.000376229
0.00041568
0.000459358
0.000510606
0.000575686
0.00066756
0.00185772
0.00163089
0.00121835
0.000644212
0.00394229
0.00454348
0.00435163
0.00412093
0.0040323
0.0040317
0.00401804
0.00357371
0.00357058
0.00432561
0.00444324
0.00426175
0.00401459
0.00362222
0.00300861
0.00219873
0.0013996
0.000936291
0.0023895
0.00243913
0.00211228
0.00166007
0.00125705
0.000936894
0.000671401
0.000678459
0.000686665
0.000696808
0.000711328
0.000733266
0.000766399
0.000816594
0.000901272
0.00282104
0.00307474
0.00276261
0.000938484
0.00428561
0.00536669
0.00500823
0.00440518
0.00413797
0.00411931
0.00422859
0.00399642
0.00415467
0.00507232
0.0053924
0.00539192
0.00538687
0.00535285
0.0052446
0.00504195
0.00476879
0.00451161
0.00450653
0.00427826
0.00404831
0.00388497
0.00378334
0.00367258
0.00357815
0.00353011
0.00347195
0.00340418
0.00334117
0.00330612
0.00332152
0.00339795
0.00353383
0.00374573
0.00379139
0.00368349
0.00318182
0.0013446
0.00118098
0.00102496
0.00459882
0.00575924
0.00573048
0.00457562
0.00411325
0.00412208
0.00433333
0.00427892
0.00451841
0.00545189
0.00590717
0.00604794
0.00617203
0.00629458
0.00638403
0.00640833
0.00634239
0.00618642
0.00597666
0.00574318
0.00553667
0.00537834
0.00526335
0.00517638
0.00510133
0.00501907
0.00490924
0.00475875
0.00457111
0.00437634
0.00422029
0.00412978
0.00409068
0.00406051
0.00399648
0.00386483
0.00356644
0.00294288
0.00220026
0.00108143
0.00495469
0.00556459
0.00590435
0.00457685
0.00405785
0.00412806
0.00438071
0.00444396
0.00475571
0.00565211
0.00610783
0.00631851
0.00650482
0.00669398
0.00686993
0.00699456
0.00702851
0.00695525
0.00679617
0.00659521
0.00639577
0.00622567
0.00609623
0.00600857
0.00595453
0.00591943
0.00588055
0.00580135
0.00564002
0.00538191
0.00507235
0.00478185
0.00453709
0.00431522
0.00407233
0.00375692
0.00331132
0.00273181
0.0021073
0.00107747
0.00543152
0.00565044
0.00456294
0.0041474
0.00407938
0.00421981
0.00444386
0.00456105
0.00493012
0.00570022
0.00609991
0.00633741
0.00652302
0.00672967
0.0069389
0.00711609
0.00722175
0.00723082
0.00714838
0.00700358
0.00683294
0.00666791
0.00653068
0.00643553
0.00639032
0.00639999
0.00646419
0.00656423
0.00664628
0.00662332
0.00644157
0.00613967
0.0057638
0.00534192
0.00487225
0.00435891
0.00381909
0.00327304
0.0028517
0.00157608
0.00620913
0.0074246
0.0105331
0.00379537
0.00388562
0.00454126
0.00466457
0.00477727
0.00503133
0.00551935
0.00590608
0.00614567
0.00633668
0.00652581
0.00671326
0.00688492
0.00701575
0.00708179
0.00707474
0.00700513
0.00689498
0.00676891
0.00664878
0.00655218
0.0064935
0.00648784
0.00655376
0.00671026
0.00696249
0.00726768
0.00748549
0.00758269
0.00756808
0.00753909
0.00759941
0.00761968
0.00714534
0.00599316
0.00566203
0.0017978
0.0186543
0.0100584
0.00322512
0.00487562
0.00520056
0.00507998
0.00502806
0.00533276
0.00570699
0.00595255
0.00614164
0.00630599
0.00645501
0.00658853
0.00669941
0.0067771
0.00681362
0.00680829
0.00676799
0.00670448
0.00663124
0.00656162
0.00650818
0.00648397
0.00650477
0.00659005
0.00675838
0.0070063
0.0072822
0.0075675
0.00781243
0.00798276
0.00806345
0.00792704
0.00739406
0.00647211
0.00531655
0.00179313
0.00796981
0.0081593
0.00600673
0.00490443
0.00470659
0.00442239
0.00435658
0.00453782
0.00485416
0.0052145
0.00557285
0.00589347
0.00615429
0.00634809
0.00647852
0.00655492
0.00658872
0.00659163
0.00657466
0.00654745
0.00651786
0.00649192
0.00647408
0.00646789
0.00647663
0.00650364
0.00655023
0.00659945
0.00663063
0.00665962
0.0067046
0.00676687
0.00678237
0.00655813
0.00607493
0.00525847
0.0045743
0.00177444
0.00206355
0.00312744
0.00563227
0.0040844
0.00292746
0.00231717
0.00203488
0.00185627
0.00173082
0.00163768
0.00156826
0.00152269
0.0014975
0.00148851
0.00149064
0.0014987
0.00150829
0.00151633
0.00152119
0.00152239
0.00152028
0.00151564
0.00150944
0.00150258
0.00149577
0.0014895
0.00148406
0.00147946
0.00147552
0.00147364
0.00147506
0.00147537
0.00147074
0.00145696
0.00143198
0.00140827
0.00137657
0.00132492
0.00131596
0.00130058
)
;

boundaryField
{
    floor
    {
        type            compressible::alphatWallFunction;
        Prt             0.85;
        value           nonuniform List<scalar> 
29
(
8.6501e-05
3.98234e-05
4.47387e-05
4.70304e-05
3.80555e-05
2.80187e-05
2.28713e-05
2.03355e-05
1.98941e-05
2.20269e-05
2.59855e-05
3.08255e-05
3.56758e-05
3.9227e-05
4.09154e-05
4.39151e-05
4.80005e-05
5.32525e-05
5.66042e-05
4.76522e-05
4.76516e-05
5.90044e-05
9.10037e-05
0.000133678
8.65e-05
3.98228e-05
6.0889e-05
0.000102971
0.000133364
)
;
    }
    ceiling
    {
        type            compressible::alphatWallFunction;
        Prt             0.85;
        value           nonuniform List<scalar> 
43
(
0.000285788
0.000420725
0.000721946
0.000537931
0.000395785
0.000318459
0.000281976
0.000258618
0.000242068
0.000229695
0.000220422
0.000214309
0.000210919
0.000209706
0.00020999
0.000211071
0.000212357
0.000213436
0.000214086
0.000214245
0.000213959
0.000213335
0.0002125
0.000211575
0.000210657
0.000209812
0.000209078
0.000208457
0.000207923
0.000207669
0.000207858
0.000207898
0.000207273
0.000205414
0.00020204
0.00019883
0.000194532
0.000187506
0.000186296
0.000184158
0.000789094
0.000928836
0.000990897
)
;
    }
    sWall
    {
        type            compressible::alphatWallFunction;
        Prt             0.85;
        value           uniform 0.000284827;
    }
    nWall
    {
        type            compressible::alphatWallFunction;
        Prt             0.85;
        value           nonuniform List<scalar> 6(0.000145723 0.000153631 0.000153077 0.000249935 0.000247461 0.000183859);
    }
    sideWalls
    {
        type            empty;
    }
    glass1
    {
        type            compressible::alphatWallFunction;
        Prt             0.85;
        value           nonuniform List<scalar> 9(0.000213493 0.000229989 0.000424554 0.000514757 0.000555951 0.000593262 0.00063537 0.000691361 0.000781742);
    }
    glass2
    {
        type            compressible::alphatWallFunction;
        Prt             0.85;
        value           nonuniform List<scalar> 2(0.000220282 0.000249647);
    }
    sun
    {
        type            compressible::alphatWallFunction;
        Prt             0.85;
        value           nonuniform List<scalar> 
14
(
0.000217068
0.000243298
0.000244701
0.000177043
0.000146759
0.000127594
0.000113618
0.000100441
9.249e-05
8.80373e-05
8.62347e-05
8.61172e-05
8.67106e-05
8.72617e-05
)
;
    }
    heatsource1
    {
        type            compressible::alphatWallFunction;
        Prt             0.85;
        value           nonuniform List<scalar> 3(0.000190097 0.000167662 0.000145932);
    }
    heatsource2
    {
        type            compressible::alphatWallFunction;
        Prt             0.85;
        value           nonuniform List<scalar> 4(9.84935e-05 6.96241e-05 6.96232e-05 0.000109564);
    }
    Table_master
    {
        type            compressible::alphatWallFunction;
        Prt             0.85;
        value           nonuniform List<scalar> 9(3.54893e-05 3.84012e-05 4.4154e-05 5.00522e-05 5.62787e-05 6.30845e-05 7.09661e-05 8.08335e-05 9.45327e-05);
    }
    Table_slave
    {
        type            compressible::alphatWallFunction;
        Prt             0.85;
        value           nonuniform List<scalar> 9(9.51043e-05 9.61452e-05 9.73542e-05 9.88462e-05 0.000100978 0.000104189 0.000109017 0.000116284 0.000128426);
    }
    inlet
    {
        type            fixedValue;
        value           uniform 1.94e-05;
    }
    outlet
    {
        type            zeroGradient;
    }
}


// ************************************************************************* //
