/*--------------------------------*- C++ -*----------------------------------*\
  =========                 |
  \\      /  F ield         | OpenFOAM: The Open Source CFD Toolbox
   \\    /   O peration     | Website:  https://openfoam.org
    \\  /    A nd           | Version:  6
     \\/     M anipulation  |
\*---------------------------------------------------------------------------*/
FoamFile
{
    version     2.0;
    format      ascii;
    class       volScalarField;
    location    "1700";
    object      T;
}
// * * * * * * * * * * * * * * * * * * * * * * * * * * * * * * * * * * * * * //

dimensions      [0 0 0 1 0 0 0];

internalField   nonuniform List<scalar> 
459
(
312.316
312.184
312.088
312.013
311.948
311.883
311.815
311.743
311.662
311.558
311.047
309.737
308.612
307.678
307.054
304.765
304.804
304.826
304.85
304.885
304.912
304.918
304.906
304.897
304.892
304.89
304.89
304.884
304.875
304.89
304.92
304.913
304.932
305.079
312.402
312.171
311.995
311.875
311.787
311.711
311.644
311.584
311.527
311.445
310.84
309.39
307.92
306.945
306.516
306.376
306.332
304.998
305.024
305.054
305.081
305.101
305.122
305.131
305.13
305.132
305.14
305.155
305.186
305.252
305.355
305.512
305.719
305.743
305.705
305.772
312.45
312.094
311.786
311.578
311.449
311.371
311.338
311.336
311.346
311.293
310.635
309.16
307.669
306.789
306.467
306.319
306.218
305.337
305.401
305.471
305.519
305.537
305.531
305.453
305.531
305.616
305.709
305.813
305.927
306.054
306.211
306.403
306.565
306.574
306.575
306.423
312.488
312.011
311.509
311.154
310.939
310.876
310.931
311.043
311.156
311.124
310.401
308.885
307.445
306.776
306.553
306.4
306.22
306.051
305.962
306.223
306.424
306.571
306.669
306.719
306.754
306.765
306.774
306.785
306.797
306.811
306.827
306.846
306.865
306.879
306.903
306.921
306.942
312.525
311.953
311.183
310.62
310.298
310.325
310.532
310.781
310.995
310.96
310.196
308.705
307.441
306.951
306.826
306.77
306.713
306.659
306.628
306.703
306.784
306.843
306.88
306.897
306.906
306.912
306.918
306.926
306.936
306.948
306.963
306.981
306.999
307.017
307.033
307.045
307.054
307.062
307.077
307.096
312.562
311.94
310.82
310.018
309.922
310.054
310.308
310.61
310.855
310.822
310.076
308.664
307.547
307.144
307.061
307.048
307.038
307.025
307.021
307.031
307.049
307.064
307.07
307.07
307.067
307.063
307.061
307.061
307.063
307.069
307.077
307.087
307.099
307.11
307.117
307.121
307.124
307.129
307.142
307.161
312.601
311.992
310.465
309.952
309.953
310.06
310.249
310.503
310.73
310.723
310.077
308.787
307.749
307.367
307.285
307.297
307.314
307.323
307.328
307.33
307.328
307.321
307.308
307.291
307.273
307.255
307.239
307.227
307.218
307.212
307.21
307.21
307.211
307.212
307.211
307.206
307.199
307.196
307.199
307.206
312.661
312.177
310.829
310.128
310.119
310.172
310.268
310.433
310.614
310.65
310.141
309.083
308.179
307.706
307.568
307.576
307.605
307.631
307.648
307.653
307.645
307.625
307.597
307.563
307.527
307.493
307.462
307.434
307.41
307.39
307.374
307.36
307.349
307.338
307.325
307.309
307.29
307.272
307.258
307.244
312.83
312.861
312.921
310.916
310.672
310.516
310.356
310.379
310.495
310.56
310.201
309.432
308.759
308.351
308.139
308.01
307.984
307.996
308.011
308.012
307.996
307.965
307.924
307.875
307.825
307.774
307.726
307.682
307.641
307.605
307.571
307.541
307.513
307.486
307.458
307.428
307.395
307.358
307.321
307.281
316.896
313.537
312.559
311.552
310.809
310.415
310.375
310.438
310.226
309.741
309.304
309.005
308.809
308.675
308.567
308.504
308.464
308.427
308.385
308.334
308.277
308.214
308.149
308.084
308.02
307.96
307.902
307.847
307.795
307.745
307.697
307.651
307.604
307.556
307.505
307.449
307.388
307.318
316.683
315.834
314.831
313.39
312.021
310.969
310.364
310.295
310.196
309.945
309.702
309.515
309.374
309.261
309.16
309.061
308.969
308.882
308.798
308.717
308.637
308.558
308.479
308.4
308.323
308.247
308.172
308.098
308.026
307.956
307.886
307.818
307.75
307.681
307.61
307.532
307.446
307.346
319.299
318.816
317.791
317.512
317.077
316.411
315.291
313.422
311.31
310.332
310.121
310
309.893
309.802
309.722
309.65
309.581
309.509
309.433
309.351
309.264
309.175
309.083
308.989
308.894
308.798
308.702
308.604
308.507
308.409
308.311
308.213
308.116
308.019
307.922
307.824
307.723
307.613
307.481
307.31
)
;

boundaryField
{
    floor
    {
        type            wallHeatTransfer;
        Tinf            uniform 305.2;
        alphaWall       uniform 0.24;
        value           nonuniform List<scalar> 
29
(
306.812
304.909
304.93
304.95
304.97
304.994
305.014
305.021
305.012
305.001
304.993
304.987
304.984
304.979
304.973
304.981
304.999
304.994
305.005
305.113
305.113
305.655
306.223
306.691
306.812
304.909
305.047
305.314
305.941
)
;
    }
    ceiling
    {
        type            wallHeatTransfer;
        Tinf            uniform 303.2;
        alphaWall       uniform 0.24;
        value           nonuniform List<scalar> 
43
(
317.992
317.826
317.318
316.995
316.508
315.785
314.631
312.78
310.735
309.804
309.581
309.446
309.331
309.237
309.16
309.094
309.035
308.981
308.928
308.873
308.813
308.746
308.672
308.592
308.507
308.417
308.325
308.231
308.136
308.04
307.944
307.849
307.755
307.662
307.569
307.475
307.377
307.268
307.135
306.939
312.571
312.645
316.412
)
;
    }
    sWall
    {
        type            wallHeatTransfer;
        Tinf            uniform 315.2;
        alphaWall       uniform 0.36;
        value           uniform 318.819;
    }
    nWall
    {
        type            wallHeatTransfer;
        Tinf            uniform 307.2;
        alphaWall       uniform 0.36;
        value           nonuniform List<scalar> 6(307.116 307.167 307.205 307.305 307.331 307.295);
    }
    sideWalls
    {
        type            empty;
    }
    glass1
    {
        type            wallHeatTransfer;
        Tinf            uniform 315.2;
        alphaWall       uniform 4.3;
        value           nonuniform List<scalar> 9(313.868 313.806 313.758 313.719 313.684 313.65 313.615 313.586 313.614);
    }
    glass2
    {
        type            wallHeatTransfer;
        Tinf            uniform 307.2;
        alphaWall       uniform 4.3;
        value           nonuniform List<scalar> 2(307.215 307.229);
    }
    sun
    {
        type            wallHeatTransfer;
        Tinf            uniform 305.2;
        alphaWall       uniform 0.24;
        value           nonuniform List<scalar> 
14
(
311.883
311.733
311.619
311.526
311.445
311.364
311.281
311.192
311.09
310.959
310.428
309.171
308.16
307.356
)
;
    }
    heatsource1
    {
        type            fixedGradient;
        gradient        uniform 0;
    }
    heatsource2
    {
        type            fixedGradient;
        gradient        uniform 0;
    }
    Table_master
    {
        type            zeroGradient;
    }
    Table_slave
    {
        type            zeroGradient;
    }
    inlet
    {
        type            fixedValue;
        value           uniform 290.15;
    }
    outlet
    {
        type            zeroGradient;
    }
}


// ************************************************************************* //
