// -*- C++ -*-
// File generated by PyFoam - sorry for the ugliness

FoamFile
{
 version 2.0;
 format ascii;
 class volVectorField;
 location "1000";
 object U;
}

dimensions [ 0 1 -1 0 0 0 0 ];

internalField nonuniform List<vector> 459
(
  (0.0328132 0.0854788 0)
  (-0.166166 0.025716 0)
  (-0.190816 0.0178437 0)
  (-0.221413 0.0123005 0)
  (-0.243683 0.00624579 0)
  (-0.256779 -0.000101253 0)
  (-0.259362 -0.00679307 0)
  (-0.250255 -0.0138307 0)
  (-0.230144 -0.0207208 0)
  (-0.200525 -0.0264066 0)
  (-0.164426 -0.0300484 0)
  (-0.125293 -0.0313868 0)
  (-0.0863879 -0.0309413 0)
  (-0.0524409 -0.0303448 0)
  (-0.0370035 -0.0313398 0)
  (-0.002915 0.00746902 0)
  (-0.0225241 -0.0174392 0)
  (0.0011135 -0.0262294 0)
  (0.0220913 -0.0194981 0)
  (0.0378216 -0.0131237 0)
  (0.049495 -0.00839218 0)
  (0.056417 -0.00502799 0)
  (0.0598843 -0.00326968 0)
  (0.061467 -0.00251177 0)
  (0.0622995 -0.0021469 0)
  (0.0628281 -0.00191104 0)
  (0.0631099 -0.00171802 0)
  (0.063079 -0.00148026 0)
  (0.0625254 -0.00102481 0)
  (0.0608794 3.16245e-05 0)
  (0.0569345 0.00223245 0)
  (0.049364 0.00463323 0)
  (0.041455 0.00675017 0)
  (-0.0101587 0.0204158 0)
  (0.204938 0.174617 0)
  (-0.154264 0.0672766 0)
  (-0.152708 0.0521769 0)
  (-0.18394 0.0406319 0)
  (-0.205691 0.0277149 0)
  (-0.21876 0.0134217 0)
  (-0.221786 -0.00249474 0)
  (-0.213405 -0.0195603 0)
  (-0.194831 -0.0356273 0)
  (-0.167935 -0.0481914 0)
  (-0.135958 -0.0554866 0)
  (-0.102318 -0.0570852 0)
  (-0.0702252 -0.0536771 0)
  (-0.0433893 -0.0468466 0)
  (-0.0263467 -0.0378008 0)
  (-0.0128591 -0.0184265 0)
  (-0.00704433 0.0137579 0)
  (0.0595202 0.0314673 0)
  (0.0312901 -0.0198839 0)
  (0.0384201 -0.0306562 0)
  (0.0492137 -0.0260317 0)
  (0.0576822 -0.0179589 0)
  (0.0633093 -0.0105656 0)
  (0.065539 -0.00437273 0)
  (0.0658634 -0.00093696 0)
  (0.0657772 0.000530691 0)
  (0.065859 0.00121094 0)
  (0.0660237 0.00163903 0)
  (0.0661414 0.00201099 0)
  (0.0661704 0.00249674 0)
  (0.0660567 0.00343418 0)
  (0.0652676 0.00573092 0)
  (0.0613807 0.0120579 0)
  (0.0516104 0.0174751 0)
  (0.0451732 0.0214024 0)
  (-0.0435372 0.0440721 0)
  (0.362639 0.260896 0)
  (-0.16983 0.106638 0)
  (-0.114069 0.0839407 0)
  (-0.143828 0.063437 0)
  (-0.162749 0.0422562 0)
  (-0.174453 0.0191422 0)
  (-0.176734 -0.00665652 0)
  (-0.167444 -0.0338984 0)
  (-0.148881 -0.0587514 0)
  (-0.123669 -0.0771823 0)
  (-0.0953231 -0.0868407 0)
  (-0.0667773 -0.0876904 0)
  (-0.0402979 -0.0809037 0)
  (-0.0180801 -0.0680763 0)
  (-0.0018554 -0.0501831 0)
  (0.0104265 -0.0246405 0)
  (0.017057 0.00979306 0)
  (0.105452 -0.0387142 0)
  (0.0730012 -0.042996 0)
  (0.0690812 -0.0394606 0)
  (0.0712475 -0.0317131 0)
  (0.0727907 -0.0226073 0)
  (0.0736431 -0.0149647 0)
  (0.0719394 -0.0121766 0)
  (0.0678929 -0.00870149 0)
  (0.0650899 -0.00681811 0)
  (0.0638184 -0.00574557 0)
  (0.0632589 -0.00506595 0)
  (0.0629825 -0.00459205 0)
  (0.0630219 -0.00413278 0)
  (0.0638504 -0.00332359 0)
  (0.0666801 -0.00018598 0)
  (0.0646433 0.0170416 0)
  (0.0513932 0.0292786 0)
  (0.0507213 0.0380226 0)
  (-0.0729635 0.0691884 0)
  (0.504553 0.330081 0)
  (-0.203031 0.141309 0)
  (-0.0738407 0.110504 0)
  (-0.101309 0.0823083 0)
  (-0.114409 0.0551341 0)
  (-0.122142 0.0248848 0)
  (-0.120665 -0.0104802 0)
  (-0.108041 -0.0482613 0)
  (-0.0887218 -0.0810761 0)
  (-0.0659742 -0.103788 0)
  (-0.0430468 -0.114266 0)
  (-0.0216427 -0.11365 0)
  (-0.00250332 -0.103704 0)
  (0.0137465 -0.0862977 0)
  (0.027122 -0.0642372 0)
  (0.0414408 -0.0382106 0)
  (0.0634735 -0.0114138 0)
  (0.0940517 0.000572042 0)
  (0.101575 -0.032633 0)
  (0.0880159 -0.038164 0)
  (0.0794084 -0.0341153 0)
  (0.0751654 -0.027915 0)
  (0.0723673 -0.020561 0)
  (0.0709916 -0.0120154 0)
  (0.0726815 -0.00704573 0)
  (0.0768065 -0.00553707 0)
  (0.0802105 -0.00469248 0)
  (0.0824937 -0.00404137 0)
  (0.0838674 -0.00321075 0)
  (0.0837761 -0.00194364 0)
  (0.0811759 -2.25731e-05 0)
  (0.0748294 0.00284054 0)
  (0.0619431 0.00717928 0)
  (0.0510087 0.0274362 0)
  (0.0403828 0.0442528 0)
  (0.0535813 0.0578536 0)
  (-0.103282 0.0920141 0)
  (0.626482 0.383562 0)
  (-0.243677 0.169522 0)
  (-0.0347998 0.125176 0)
  (-0.0571688 0.0924788 0)
  (-0.0619142 0.0619404 0)
  (-0.0625116 0.0266692 0)
  (-0.0510834 -0.0174934 0)
  (-0.0329636 -0.0644606 0)
  (-0.0139906 -0.101697 0)
  (0.00369573 -0.125064 0)
  (0.0180313 -0.133293 0)
  (0.0292937 -0.129653 0)
  (0.0379626 -0.117111 0)
  (0.0447718 -0.0982203 0)
  (0.0508735 -0.0756369 0)
  (0.0582336 -0.0520221 0)
  (0.0694513 -0.0328391 0)
  (0.0799011 -0.0284901 0)
  (0.0814255 -0.0344327 0)
  (0.0748585 -0.0333404 0)
  (0.066807 -0.0284975 0)
  (0.0606297 -0.0230046 0)
  (0.0562532 -0.0173026 0)
  (0.0538962 -0.0114198 0)
  (0.0539465 -0.00622973 0)
  (0.0560556 -0.00384201 0)
  (0.0584145 -0.00298183 0)
  (0.0607028 -0.00226611 0)
  (0.0628239 -0.000755467 0)
  (0.0643996 0.00209491 0)
  (0.0642708 0.00640657 0)
  (0.0618538 0.012348 0)
  (0.0564535 0.0205727 0)
  (0.0499105 0.0359805 0)
  (0.0409488 0.0544966 0)
  (0.0618473 0.0749948 0)
  (-0.0168973 0.104244 0)
  (0.0454469 0.0341458 0)
  (-0.0611687 -0.0343341 0)
  (-0.268827 -0.0566154 0)
  (0.714209 0.428059 0)
  (-0.282936 0.188288 0)
  (-0.00569235 0.120017 0)
  (-0.0116377 0.0915641 0)
  (-0.00478469 0.0618621 0)
  (0.00576033 0.0196239 0)
  (0.0350342 -0.0352081 0)
  (0.0560882 -0.0831458 0)
  (0.0707916 -0.117052 0)
  (0.0791612 -0.135729 0)
  (0.0820139 -0.140439 0)
  (0.0808772 -0.133952 0)
  (0.077121 -0.119296 0)
  (0.0721655 -0.0994605 0)
  (0.067492 -0.0773228 0)
  (0.0644528 -0.0555625 0)
  (0.0639241 -0.0379103 0)
  (0.063485 -0.0289642 0)
  (0.0594518 -0.0267717 0)
  (0.0518359 -0.0247305 0)
  (0.0435884 -0.0212123 0)
  (0.036966 -0.017298 0)
  (0.0323991 -0.0134608 0)
  (0.0300623 -0.0097756 0)
  (0.0299437 -0.00690338 0)
  (0.0315783 -0.00593945 0)
  (0.0340339 -0.00591133 0)
  (0.0369663 -0.00562523 0)
  (0.0402134 -0.00411526 0)
  (0.0435663 -0.000530121 0)
  (0.0465133 0.00540143 0)
  (0.0480618 0.0133809 0)
  (0.0484141 0.0236265 0)
  (0.0489732 0.0379118 0)
  (0.0483204 0.0558387 0)
  (0.0702578 0.0786642 0)
  (0.0522843 0.0972333 0)
  (0.0914422 0.0683026 0)
  (0.114433 0.0445988 0)
  (-0.128079 -0.00727714 0)
  (0.767327 0.468629 0)
  (-0.301502 0.173618 0)
  (0.0221741 0.0677706 0)
  (0.0498507 0.062637 0)
  (0.0708061 0.0431515 0)
  (0.10479 -0.00538329 0)
  (0.136264 -0.0589029 0)
  (0.154283 -0.0994722 0)
  (0.159988 -0.124713 0)
  (0.15549 -0.135715 0)
  (0.143454 -0.134662 0)
  (0.126755 -0.124414 0)
  (0.107937 -0.107879 0)
  (0.0891525 -0.0879672 0)
  (0.0721485 -0.0672336 0)
  (0.0580113 -0.0477205 0)
  (0.0472362 -0.0320917 0)
  (0.0386729 -0.0227184 0)
  (0.0303245 -0.0185706 0)
  (0.0218284 -0.0163111 0)
  (0.0141866 -0.0140995 0)
  (0.0083629 -0.0119977 0)
  (0.00455953 -0.010175 0)
  (0.00278149 -0.00866183 0)
  (0.00287611 -0.00783345 0)
  (0.0043491 -0.0080904 0)
  (0.00658462 -0.00880365 0)
  (0.00936362 -0.00911499 0)
  (0.0127357 -0.00817037 0)
  (0.0168316 -0.00497107 0)
  (0.0225838 0.00145072 0)
  (0.0282744 0.0101792 0)
  (0.0337141 0.020513 0)
  (0.0407089 0.0331179 0)
  (0.0485424 0.04775 0)
  (0.0703004 0.0661301 0)
  (0.083942 0.0744954 0)
  (0.115802 0.0525092 0)
  (0.155315 0.0440027 0)
  (-0.0361957 0.0925365 0)
  (0.872192 0.469845 0)
  (-0.0638862 0.152177 0)
  (0.110274 -0.0140713 0)
  (0.182268 -0.0421074 0)
  (0.214229 -0.0541819 0)
  (0.245547 -0.0766137 0)
  (0.262838 -0.0985818 0)
  (0.2631 -0.114032 0)
  (0.248011 -0.121084 0)
  (0.221688 -0.119863 0)
  (0.188644 -0.111628 0)
  (0.15291 -0.0981789 0)
  (0.117631 -0.0813001 0)
  (0.0851816 -0.0631657 0)
  (0.0571592 -0.0456587 0)
  (0.0341486 -0.0299533 0)
  (0.0169617 -0.0182281 0)
  (0.00460676 -0.0117602 0)
  (-0.0048395 -0.0093094 0)
  (-0.012088 -0.00861321 0)
  (-0.0178635 -0.00823767 0)
  (-0.0220933 -0.00802703 0)
  (-0.0248711 -0.00801123 0)
  (-0.0263304 -0.00823658 0)
  (-0.0266904 -0.00886167 0)
  (-0.0263562 -0.00995566 0)
  (-0.025717 -0.0112071 0)
  (-0.0248826 -0.0121636 0)
  (-0.023696 -0.0123281 0)
  (-0.0217627 -0.0111134 0)
  (-0.0181101 -0.00777521 0)
  (-0.00950044 -0.00162959 0)
  (-0.00125648 0.0063246 0)
  (0.00925702 0.0144549 0)
  (0.0209341 0.0214947 0)
  (0.0406773 0.0288081 0)
  (0.0597037 0.0223919 0)
  (0.0797215 -0.00467732 0)
  (0.138422 0.0391129 0)
  (-0.404808 0.202419 0)
  (1.01927 0.422859 0)
  (0.484836 0.279438 0)
  (0.49975 0.182681 0)
  (0.526684 0.11102 0)
  (0.50769 0.0592203 0)
  (0.465349 0.011931 0)
  (0.416236 -0.0270918 0)
  (0.362334 -0.0535209 0)
  (0.303973 -0.0667573 0)
  (0.244093 -0.0689402 0)
  (0.186161 -0.0634774 0)
  (0.132762 -0.0534757 0)
  (0.0855173 -0.0408433 0)
  (0.0459069 -0.0277692 0)
  (0.0140082 -0.0160285 0)
  (-0.0112748 -0.00668255 0)
  (-0.0258822 -0.0026442 0)
  (-0.0349169 -0.00171778 0)
  (-0.0409842 -0.00227821 0)
  (-0.0457209 -0.00329084 0)
  (-0.0496199 -0.00430429 0)
  (-0.0528087 -0.00529489 0)
  (-0.0553832 -0.0062904 0)
  (-0.0574912 -0.00732824 0)
  (-0.0593667 -0.00845849 0)
  (-0.0613612 -0.00966163 0)
  (-0.0638321 -0.0107339 0)
  (-0.0670773 -0.0113086 0)
  (-0.0714138 -0.0108569 0)
  (-0.0772676 -0.00867598 0)
  (-0.0851829 -0.00394263 0)
  (-0.0951017 0.00388954 0)
  (-0.105227 0.0143144 0)
  (-0.120012 0.0275666 0)
  (-0.143191 0.0437817 0)
  (-0.177273 0.0619026 0)
  (-0.225603 0.0780806 0)
  (-0.28123 0.0897561 0)
  (-0.349197 0.0968649 0)
  (-0.608778 0.099942 0)
  (-0.149464 0.00127043 0)
  (0.120623 9.27562e-05 0)
  (0.198701 -0.0334989 0)
  (0.185969 -0.0428163 0)
  (0.169805 -0.0402991 0)
  (0.147597 -0.0350117 0)
  (0.118066 -0.0285156 0)
  (0.0843284 -0.0209485 0)
  (0.0497288 -0.0127709 0)
  (0.0148019 -0.00460449 0)
  (-0.0180968 0.00273697 0)
  (-0.040106 0.00688544 0)
  (-0.0552076 0.00911019 0)
  (-0.0641406 0.00949902 0)
  (-0.0691137 0.00861152 0)
  (-0.0725903 0.00766539 0)
  (-0.0753618 0.00691332 0)
  (-0.0778272 0.00635714 0)
  (-0.0803029 0.00590934 0)
  (-0.0829145 0.0052961 0)
  (-0.0856354 0.00457414 0)
  (-0.0885402 0.00375938 0)
  (-0.0917507 0.00290512 0)
  (-0.0954136 0.00213713 0)
  (-0.0996155 0.00169096 0)
  (-0.104353 0.00188182 0)
  (-0.109557 0.00304075 0)
  (-0.11505 0.00546828 0)
  (-0.120209 0.00970412 0)
  (-0.124325 0.0166501 0)
  (-0.127741 0.0274206 0)
  (-0.130667 0.0424032 0)
  (-0.133759 0.0607984 0)
  (-0.137448 0.0792078 0)
  (-0.138698 0.088137 0)
  (-0.121258 0.0671193 0)
  (-0.0783685 -0.022921 0)
  (-0.273776 -0.198112 0)
  (0.0173015 0.194104 0)
  (0.0409409 0.0696393 0)
  (0.000379616 0.00537257 0)
  (-0.0133762 -0.00267523 0)
  (-0.0273627 -0.000458924 0)
  (-0.0426317 9.74789e-05 0)
  (-0.058963 0.00137398 0)
  (-0.0742571 0.00369775 0)
  (-0.0860208 0.00574624 0)
  (-0.0924912 0.00595973 0)
  (-0.0965994 0.00390118 0)
  (-0.0982256 -0.000141009 0)
  (-0.0983924 -0.00467645 0)
  (-0.0977523 -0.00954736 0)
  (-0.0972148 -0.0147546 0)
  (-0.0972911 -0.0198309 0)
  (-0.0980017 -0.0245002 0)
  (-0.0992443 -0.0285111 0)
  (-0.100889 -0.0316779 0)
  (-0.102853 -0.0338904 0)
  (-0.105202 -0.0352967 0)
  (-0.107852 -0.0358566 0)
  (-0.110705 -0.0355118 0)
  (-0.113661 -0.0343627 0)
  (-0.116598 -0.0324959 0)
  (-0.11928 -0.0296871 0)
  (-0.121336 -0.025517 0)
  (-0.122303 -0.0194112 0)
  (-0.121757 -0.0114382 0)
  (-0.118814 -0.00129184 0)
  (-0.112116 0.011743 0)
  (-0.100384 0.0283065 0)
  (-0.0831679 0.0479112 0)
  (-0.0612161 0.0666459 0)
  (-0.0373992 0.0775867 0)
  (0.00243043 0.0616781 0)
  (0.14289 -0.00847472 0)
  (-0.204772 -0.108202 0)
  (-0.0425261 -0.319478 0)
  (-0.412925 -0.123317 0)
  (-0.301042 0.0639037 0)
  (-0.250572 -0.0170587 0)
  (-0.210967 -0.0220595 0)
  (-0.20004 -0.0109753 0)
  (-0.195676 -0.00130506 0)
  (-0.192149 0.00669234 0)
  (-0.187471 0.0142007 0)
  (-0.180784 0.0216762 0)
  (-0.171957 0.0291861 0)
  (-0.161376 0.0366176 0)
  (-0.15021 0.0438146 0)
  (-0.139599 0.050791 0)
  (-0.130305 0.0578089 0)
  (-0.122578 0.0648303 0)
  (-0.116447 0.0718121 0)
  (-0.111732 0.0785322 0)
  (-0.108192 0.0845861 0)
  (-0.105621 0.0895959 0)
  (-0.103838 0.0933102 0)
  (-0.102689 0.0956061 0)
  (-0.102084 0.0965479 0)
  (-0.101987 0.096083 0)
  (-0.10236 0.0941629 0)
  (-0.103131 0.0910514 0)
  (-0.104171 0.0871219 0)
  (-0.105269 0.0824705 0)
  (-0.106044 0.077145 0)
  (-0.105822 0.0713011 0)
  (-0.103352 0.0661694 0)
  (-0.0968066 0.0626674 0)
  (-0.0838239 0.0616911 0)
  (-0.0626082 0.0642135 0)
  (-0.0336014 0.0707731 0)
  (0.0119572 0.0804213 0)
  (0.0548753 0.081366 0)
  (0.0955731 0.0687206 0)
  (0.160846 0.043231 0)
  (-0.232905 -0.00655993 0)
)
;

boundaryField
{
  floor
  {
    type noSlip;
  }
  ceiling
  {
    type noSlip;
  }
  sWall
  {
    type noSlip;
  }
  nWall
  {
    type noSlip;
  }
  sideWalls
  {
    type empty;
  }
  glass1
  {
    type noSlip;
  }
  glass2
  {
    type noSlip;
  }
  sun
  {
    type noSlip;
  }
  heatsource1
  {
    type noSlip;
  }
  heatsource2
  {
    type noSlip;
  }
  Table_master
  {
    type noSlip;
  }
  Table_slave
  {
    type noSlip;
  }
  inlet
  {
    type fixedValue;
    value uniform (0.277164 -0.114805 0);
  }
  outlet
  {
    type zeroGradient;
  }
} 	// ************************************************************************* //

