// -*- C++ -*-
// File generated by PyFoam - sorry for the ugliness

FoamFile
{
 version 2.0;
 format ascii;
 class volScalarField;
 location "140";
 object T;
}

dimensions [ 0 0 0 1 0 0 0 ];

internalField nonuniform List<scalar> 459
(
  302.923
  302.978
  303.043
  303.092
  303.124
  303.146
  303.163
  303.18
  303.197
  303.213
  303.229
  303.245
  303.262
  303.278
  303.291
  303.957
  303.944
  303.924
  303.943
  303.968
  303.991
  304.008
  304.024
  304.037
  304.05
  304.062
  304.073
  304.084
  304.095
  304.107
  304.119
  304.134
  304.156
  304.218
  302.928
  303.042
  303.164
  303.263
  303.324
  303.359
  303.381
  303.397
  303.408
  303.415
  303.416
  303.413
  303.403
  303.384
  303.356
  303.379
  303.421
  303.956
  303.904
  303.882
  303.915
  303.961
  304.003
  304.032
  304.059
  304.082
  304.104
  304.125
  304.144
  304.162
  304.179
  304.192
  304.2
  304.204
  304.207
  304.26
  302.91
  303.07
  303.278
  303.476
  303.582
  303.629
  303.647
  303.646
  303.635
  303.616
  303.593
  303.565
  303.531
  303.491
  303.446
  303.436
  303.448
  303.854
  303.761
  303.81
  303.886
  303.963
  304.024
  304.05
  304.077
  304.104
  304.129
  304.154
  304.177
  304.199
  304.22
  304.236
  304.247
  304.25
  304.247
  304.285
  302.88
  303.069
  303.387
  303.765
  303.916
  303.949
  303.929
  303.885
  303.835
  303.787
  303.74
  303.692
  303.642
  303.587
  303.531
  303.496
  303.482
  303.508
  303.58
  303.669
  303.793
  303.921
  304.031
  304.115
  304.18
  304.233
  304.283
  304.331
  304.377
  304.421
  304.466
  304.511
  304.552
  304.412
  304.341
  304.303
  304.314
  302.842
  303.04
  303.445
  304.054
  304.209
  304.19
  304.123
  304.051
  303.984
  303.922
  303.864
  303.805
  303.744
  303.681
  303.619
  303.577
  303.555
  303.584
  303.665
  303.794
  303.943
  304.085
  304.202
  304.292
  304.365
  304.426
  304.474
  304.513
  304.547
  304.577
  304.603
  304.626
  304.635
  304.533
  304.433
  304.377
  304.35
  304.372
  304.517
  304.996
  302.778
  302.962
  303.409
  304.16
  304.36
  304.338
  304.271
  304.2
  304.132
  304.068
  304.005
  303.941
  303.87
  303.804
  303.744
  303.707
  303.702
  303.77
  303.898
  304.05
  304.199
  304.328
  304.429
  304.503
  304.562
  304.603
  304.634
  304.66
  304.681
  304.699
  304.712
  304.72
  304.709
  304.629
  304.544
  304.503
  304.425
  304.428
  304.619
  304.947
  302.666
  302.775
  303.192
  304.167
  304.488
  304.498
  304.443
  304.381
  304.32
  304.259
  304.198
  304.136
  304.073
  304.012
  303.962
  303.948
  303.983
  304.092
  304.232
  304.371
  304.494
  304.592
  304.662
  304.713
  304.743
  304.76
  304.775
  304.787
  304.798
  304.806
  304.809
  304.805
  304.788
  304.743
  304.693
  304.643
  304.503
  304.491
  304.677
  304.944
  302.503
  302.479
  302.765
  304.06
  304.607
  304.687
  304.659
  304.614
  304.565
  304.516
  304.465
  304.415
  304.367
  304.325
  304.299
  304.309
  304.37
  304.48
  304.593
  304.693
  304.776
  304.836
  304.873
  304.889
  304.895
  304.898
  304.902
  304.906
  304.909
  304.911
  304.911
  304.906
  304.896
  304.875
  304.842
  304.781
  304.626
  304.574
  304.706
  304.975
  302.314
  302.122
  302.078
  303.82
  304.7
  304.875
  304.891
  304.87
  304.84
  304.807
  304.774
  304.741
  304.712
  304.693
  304.689
  304.711
  304.764
  304.84
  304.913
  304.968
  305.008
  305.029
  305.037
  305.036
  305.032
  305.029
  305.026
  305.025
  305.024
  305.023
  305.021
  305.017
  305.009
  304.994
  304.965
  304.911
  304.789
  304.707
  304.781
  305.006
  301.471
  303.527
  304.813
  305.043
  305.082
  305.078
  305.064
  305.047
  305.03
  305.014
  305.003
  304.999
  305.005
  305.024
  305.056
  305.094
  305.127
  305.15
  305.162
  305.165
  305.162
  305.156
  305.149
  305.142
  305.136
  305.13
  305.125
  305.12
  305.113
  305.104
  305.091
  305.07
  305.038
  304.988
  304.92
  304.86
  304.893
  304.998
  304.756
  304.935
  305.121
  305.193
  305.211
  305.21
  305.202
  305.193
  305.185
  305.181
  305.179
  305.182
  305.19
  305.203
  305.219
  305.235
  305.247
  305.253
  305.253
  305.249
  305.243
  305.235
  305.226
  305.218
  305.209
  305.201
  305.192
  305.182
  305.17
  305.155
  305.136
  305.109
  305.076
  305.037
  304.999
  304.971
  304.987
  305.022
  305.524
  305.425
  305.244
  305.246
  305.295
  305.312
  305.313
  305.308
  305.303
  305.298
  305.296
  305.296
  305.298
  305.302
  305.307
  305.312
  305.317
  305.319
  305.319
  305.316
  305.311
  305.303
  305.295
  305.286
  305.276
  305.267
  305.257
  305.247
  305.235
  305.221
  305.204
  305.183
  305.158
  305.13
  305.101
  305.074
  305.054
  305.043
  305.052
  305.073
)
;

boundaryField
{
  floor
  {
    type wallHeatTransfer;
    Tinf uniform 297.948;
    alphaWall uniform 0.24;
    value nonuniform List<scalar> 29
(
  302.668
  303.018
  303.176
  303.183
  303.2
  303.197
  303.185
  303.158
  303.127
  303.094
  303.062
  303.032
  303.003
  302.975
  302.948
  302.922
  302.894
  302.865
  302.82
  302.883
  302.883
  303.127
  303.258
  303.391
  302.668
  303.018
  303.276
  303.204
  302.788
)
;
  }
  ceiling
  {
    type wallHeatTransfer;
    Tinf uniform 297.948;
    alphaWall uniform 0.24;
    value nonuniform List<scalar> 43
(
  304.799
  304.722
  304.712
  304.765
  304.82
  304.841
  304.845
  304.842
  304.837
  304.833
  304.831
  304.83
  304.832
  304.835
  304.839
  304.844
  304.848
  304.851
  304.85
  304.846
  304.839
  304.831
  304.821
  304.811
  304.802
  304.792
  304.783
  304.774
  304.764
  304.754
  304.741
  304.726
  304.705
  304.68
  304.652
  304.625
  304.609
  304.611
  304.626
  304.611
  301.95
  301.778
  304.388
)
;
  }
  sWall
  {
    type wallHeatTransfer;
    Tinf uniform 300.167;
    alphaWall uniform 0.36;
    value uniform 304.791;
  }
  nWall
  {
    type wallHeatTransfer;
    Tinf uniform 299.15;
    alphaWall uniform 0.36;
    value nonuniform List<scalar> 6
(
  304.195
  304.311
  304.443
  304.588
  304.546
  304.515
)
;
  }
  sideWalls
  {
    type empty;
  }
  glass1
  {
    type wallHeatTransfer;
    Tinf uniform 300.167;
    alphaWall uniform 4.3;
    value nonuniform List<scalar> 9
(
  301.231
  301.31
  301.316
  301.293
  301.274
  301.239
  301.182
  301.098
  300.985
)
;
  }
  glass2
  {
    type wallHeatTransfer;
    Tinf uniform 299.15;
    alphaWall uniform 4.3;
    value nonuniform List<scalar> 2
(
  302.296
  302.456
)
;
  }
  sun
  {
    type wallHeatTransfer;
    Tinf uniform 297.948;
    alphaWall uniform 0.24;
    value nonuniform List<scalar> 14
(
  302.516
  302.628
  302.687
  302.719
  302.732
  302.735
  302.734
  302.733
  302.732
  302.73
  302.727
  302.721
  302.713
  302.697
)
;
  }
  heatsource1
  {
    type fixedGradient;
    gradient uniform 0;
  }
  heatsource2
  {
    type fixedGradient;
    gradient uniform 0;
  }
  Table_master
  {
    type zeroGradient;
  }
  Table_slave
  {
    type zeroGradient;
  }
  inlet
  {
    type fixedValue;
    value uniform 300.15;
  }
  outlet
  {
    type zeroGradient;
  }
} 	// ************************************************************************* //

