/*--------------------------------*- C++ -*----------------------------------*\
  =========                 |
  \\      /  F ield         | OpenFOAM: The Open Source CFD Toolbox
   \\    /   O peration     | Website:  https://openfoam.org
    \\  /    A nd           | Version:  6
     \\/     M anipulation  |
\*---------------------------------------------------------------------------*/
FoamFile
{
    version     2.0;
    format      ascii;
    class       volScalarField;
    location    "690";
    object      nut;
}
// * * * * * * * * * * * * * * * * * * * * * * * * * * * * * * * * * * * * * //

dimensions      [0 2 -1 0 0 0 0];

internalField   nonuniform List<scalar> 
459
(
0.000805782
0.00086887
0.000881587
0.000919255
0.000952364
0.000981745
0.0010087
0.00103454
0.00106084
0.00108382
0.0011005
0.0011083
0.00110524
0.00109226
0.00107375
0.000618334
0.000734299
0.00068631
0.00062351
0.000560017
0.000507522
0.000459083
0.000415647
0.000378394
0.000346708
0.000319567
0.000296116
0.00027562
0.000257343
0.000240564
0.000224732
0.000223703
0.000330049
0.000459849
0.00110955
0.00231446
0.00205749
0.00232342
0.0025699
0.00283146
0.00309195
0.0033272
0.00349857
0.00364271
0.00375505
0.00379341
0.00368584
0.00330102
0.00239829
0.00112388
0.000936093
0.000821983
0.00190685
0.00178394
0.00172151
0.00162076
0.00147206
0.00121493
0.00103998
0.00091099
0.00080985
0.000728538
0.000661667
0.000604908
0.000555614
0.000516319
0.000487148
0.000557998
0.000753074
0.000552776
0.00137239
0.00315045
0.00249864
0.00313636
0.00340167
0.0036021
0.00375109
0.00386363
0.00395329
0.0040604
0.00419443
0.0043382
0.00446368
0.00452341
0.00438194
0.00359351
0.00122273
0.00104294
0.00173529
0.00205735
0.00216407
0.00213064
0.00191767
0.000640697
0.000547482
0.000480415
0.000429771
0.000390232
0.000358634
0.00033306
0.000312446
0.000296645
0.000328838
0.000485495
0.000836128
0.000607387
0.00163171
0.00412202
0.00244376
0.00340158
0.00364927
0.00371437
0.00369998
0.00366438
0.0036605
0.00371884
0.00384608
0.0040356
0.00427907
0.00456852
0.00485931
0.00495972
0.00419763
0.00127874
0.0020943
0.00258232
0.00281853
0.00286024
0.00275432
0.00238896
0.000754061
0.000673307
0.000607031
0.000552669
0.000507641
0.000469432
0.000435523
0.000403276
0.000368638
0.000359692
0.000454881
0.000896755
0.000656756
0.00189882
0.00542395
0.00254754
0.00328404
0.00366383
0.00365423
0.00352492
0.00337596
0.00330832
0.00333853
0.00346105
0.00366703
0.00394934
0.00430457
0.00470436
0.0050298
0.0050598
0.0045657
0.00440619
0.00427115
0.00410105
0.00389772
0.00365759
0.0033253
0.00256893
0.00228306
0.00210059
0.00196776
0.00186137
0.0017552
0.00162465
0.00145054
0.00121618
0.000934983
0.000721176
0.00078331
0.000798462
0.000644187
0.000793662
0.0011667
0.00218167
0.00689244
0.00346425
0.00292583
0.00347024
0.00356646
0.00346477
0.00327196
0.00310785
0.00312607
0.00324695
0.00346427
0.00376938
0.00415463
0.00457757
0.00494902
0.00515757
0.00514556
0.00503241
0.00486234
0.00466295
0.00447007
0.00428718
0.00405213
0.0036963
0.00344109
0.00323986
0.00306646
0.00290336
0.00273027
0.00252868
0.00228571
0.00199569
0.00166894
0.00137307
0.00108767
0.000873023
0.00104111
0.00172546
0.0015601
0.0024709
0.0080946
0.00546079
0.00323917
0.00289047
0.00301619
0.00317265
0.00321752
0.00308486
0.00310572
0.00321083
0.00342068
0.00374147
0.00415569
0.00461561
0.00503652
0.00531672
0.00539807
0.00531553
0.00513514
0.00493102
0.00475743
0.00458446
0.00437753
0.00414692
0.00393919
0.00374672
0.00356283
0.00338158
0.00319394
0.00299059
0.00276452
0.00251238
0.00224188
0.00198512
0.00168871
0.00111135
0.00166848
0.00326381
0.00207174
0.00255855
0.00808449
0.00646255
0.00498396
0.0039491
0.00342642
0.00330436
0.00330776
0.00321959
0.00318321
0.00326973
0.00350024
0.00385884
0.00431389
0.00481562
0.00528248
0.00560501
0.00570099
0.00558043
0.00532272
0.00502871
0.0047489
0.00448062
0.00427568
0.00411726
0.00398374
0.0038637
0.00375497
0.00365558
0.00356049
0.00346243
0.00335207
0.00321605
0.00303385
0.00279185
0.00246431
0.00176917
0.00231628
0.00558821
0.002785
0.00251931
0.00307822
0.00341006
0.00351153
0.00343107
0.00327969
0.0031609
0.0030864
0.00305461
0.00312697
0.00334425
0.00369282
0.00413543
0.00463922
0.00517016
0.00565985
0.00598929
0.00605035
0.00584517
0.00552572
0.00521164
0.00492231
0.00469488
0.00454932
0.00446581
0.00442123
0.00440134
0.00439973
0.00441226
0.00443377
0.00445647
0.00446782
0.00444725
0.00436031
0.00418001
0.00385823
0.00321531
0.0034685
0.00707752
0.00308132
0.00145052
0.00224198
0.00266077
0.00282644
0.00288979
0.00293913
0.00308055
0.00336586
0.00376609
0.00424043
0.0047414
0.00523927
0.00575215
0.00622874
0.00652969
0.00656286
0.00644122
0.00628522
0.00612895
0.00597081
0.00584791
0.00577034
0.00573278
0.00572739
0.00574785
0.00578988
0.00585005
0.00592425
0.00600565
0.0060814
0.00612717
0.00609493
0.00595547
0.00567803
0.00520819
0.00525375
0.0073086
0.00258666
0.001606
0.00232717
0.00274548
0.00299343
0.00323934
0.00360517
0.00412636
0.00468191
0.00523154
0.00570189
0.00605037
0.00635973
0.0068542
0.00739544
0.00773325
0.00780765
0.00774385
0.00759481
0.00741909
0.00727645
0.00717837
0.00711788
0.00708968
0.00708946
0.00711272
0.00715545
0.0072145
0.00728703
0.00736882
0.00745094
0.00751203
0.00750086
0.00734407
0.00698122
0.00645107
0.00606251
0.00567828
0.0021541
0.00134183
0.00143897
0.00153555
0.0016659
0.00166097
0.00160465
0.00154607
0.00148881
0.00144692
0.00145854
0.00150729
0.00157348
0.00163693
0.00169719
0.0017922
0.00184567
0.00185355
0.00183742
0.00181618
0.00179851
0.00178659
0.00177817
0.00177272
0.00177008
0.0017698
0.0017714
0.00177445
0.00177861
0.00178365
0.00178935
0.00179528
0.00180028
0.00180152
0.00179541
0.00178059
0.00177045
0.00180173
0.00189279
0.00197367
0.00178357
)
;

boundaryField
{
    floor
    {
        type            nutkWallFunction;
        Cmu             0.09;
        kappa           0.41;
        E               9.8;
        value           nonuniform List<scalar> 
29
(
0.00012936
7.46384e-05
8.89244e-05
8.3048e-05
7.52834e-05
6.73369e-05
6.06841e-05
5.44698e-05
4.8828e-05
4.39303e-05
3.97163e-05
3.60673e-05
3.28824e-05
3.00717e-05
2.75423e-05
2.51992e-05
2.29684e-05
2.28234e-05
3.74849e-05
5.45725e-05
5.45725e-05
6.64259e-05
7.32763e-05
7.94052e-05
0.00012936
7.46383e-05
9.95425e-05
0.000125756
0.00015304
)
;
    }
    ceiling
    {
        type            nutkWallFunction;
        Cmu             0.09;
        kappa           0.41;
        E               9.8;
        value           nonuniform List<scalar> 
43
(
0.000160217
0.000171223
0.000182088
0.000196643
0.000196103
0.000189834
0.000183286
0.000176859
0.000172141
0.000173453
0.000178941
0.000186361
0.000193441
0.000200141
0.000210658
0.000216546
0.000217412
0.000215639
0.000213303
0.000211356
0.000210043
0.000209113
0.000208512
0.000208221
0.000208189
0.000208366
0.000208703
0.000209163
0.000209719
0.000210348
0.000211002
0.000211553
0.00021169
0.000211016
0.000209382
0.000208263
0.000211714
0.000221723
0.000230571
0.000209714
0.000289386
0.0003482
0.000189954
)
;
    }
    sWall
    {
        type            nutkWallFunction;
        Cmu             0.09;
        kappa           0.41;
        E               9.8;
        value           uniform 0.000160253;
    }
    nWall
    {
        type            nutkWallFunction;
        Cmu             0.09;
        kappa           0.41;
        E               9.8;
        value           nonuniform List<scalar> 6(0.000140157 0.000184874 0.000241239 0.000296476 0.000250165 0.000209709);
    }
    sideWalls
    {
        type            empty;
    }
    glass1
    {
        type            nutkWallFunction;
        Cmu             0.09;
        kappa           0.41;
        E               9.8;
        value           nonuniform List<scalar> 9(9.75996e-05 0.000133616 0.000163856 0.000193059 0.000222608 0.000253412 0.000284473 0.000293812 0.000289644);
    }
    glass2
    {
        type            nutkWallFunction;
        Cmu             0.09;
        kappa           0.41;
        E               9.8;
        value           nonuniform List<scalar> 2(0.000317287 0.000348302);
    }
    sun
    {
        type            nutkWallFunction;
        Cmu             0.09;
        kappa           0.41;
        E               9.8;
        value           nonuniform List<scalar> 
14
(
9.7594e-05
0.00010517
0.00010669
0.000111176
0.000115101
0.000118571
0.000121744
0.000124777
0.000127854
0.000130537
0.00013248
0.000133387
0.00013303
0.000131518
)
;
    }
    heatsource1
    {
        type            nutkWallFunction;
        Cmu             0.09;
        kappa           0.41;
        E               9.8;
        value           nonuniform List<scalar> 3(7.78451e-05 9.61298e-05 0.000140167);
    }
    heatsource2
    {
        type            nutkWallFunction;
        Cmu             0.09;
        kappa           0.41;
        E               9.8;
        value           nonuniform List<scalar> 4(0.000135201 0.00011317 0.00011317 0.000146621);
    }
    Table_master
    {
        type            nutkWallFunction;
        Cmu             0.09;
        kappa           0.41;
        E               9.8;
        value           nonuniform List<scalar> 9(7.74133e-05 6.57475e-05 5.72042e-05 5.06549e-05 4.5474e-05 4.12857e-05 3.78611e-05 3.50759e-05 3.29248e-05);
    }
    Table_slave
    {
        type            nutkWallFunction;
        Cmu             0.09;
        kappa           0.41;
        E               9.8;
        value           nonuniform List<scalar> 9(9.13301e-05 8.14451e-05 7.32262e-05 6.64033e-05 6.06897e-05 5.57921e-05 5.14037e-05 4.71904e-05 4.26168e-05);
    }
    inlet
    {
        type            calculated;
        value           uniform 0.000100623;
    }
    outlet
    {
        type            calculated;
        value           nonuniform List<scalar> 2(0.00134183 0.00143897);
    }
}


// ************************************************************************* //
