// -*- C++ -*-
// File generated by PyFoam - sorry for the ugliness

FoamFile
{
 version 2.0;
 format ascii;
 class volScalarField;
 location "160";
 object T;
}

dimensions [ 0 0 0 1 0 0 0 ];

internalField nonuniform List<scalar> 459
(
  302.681
  302.603
  302.597
  302.604
  302.681
  302.803
  302.882
  302.934
  302.966
  302.986
  303.003
  303.019
  303.034
  303.047
  303.057
  303.869
  303.796
  303.738
  303.756
  303.788
  303.819
  303.848
  303.874
  303.899
  303.923
  303.947
  303.97
  303.993
  304.015
  304.037
  304.059
  304.085
  304.118
  304.184
  302.708
  302.594
  302.564
  302.556
  302.657
  302.874
  303.03
  303.125
  303.176
  303.199
  303.208
  303.204
  303.188
  303.161
  303.124
  303.138
  303.166
  303.83
  303.689
  303.664
  303.701
  303.756
  303.807
  303.844
  303.88
  303.915
  303.948
  303.981
  304.012
  304.042
  304.07
  304.095
  304.116
  304.134
  304.155
  304.209
  302.734
  302.588
  302.537
  302.507
  302.624
  302.939
  303.188
  303.332
  303.397
  303.416
  303.405
  303.375
  303.332
  303.278
  303.219
  303.197
  303.195
  303.664
  303.538
  303.583
  303.667
  303.756
  303.828
  303.858
  303.894
  303.932
  303.971
  304.01
  304.048
  304.085
  304.118
  304.145
  304.163
  304.176
  304.187
  304.228
  302.761
  302.587
  302.518
  302.459
  302.586
  302.989
  303.344
  303.544
  303.622
  303.628
  303.588
  303.527
  303.458
  303.385
  303.311
  303.262
  303.234
  303.252
  303.316
  303.416
  303.555
  303.699
  303.826
  303.923
  303.997
  304.057
  304.113
  304.168
  304.223
  304.278
  304.337
  304.401
  304.465
  304.317
  304.257
  304.233
  304.25
  302.788
  302.596
  302.517
  302.415
  302.544
  303.013
  303.478
  303.739
  303.821
  303.804
  303.734
  303.65
  303.565
  303.483
  303.404
  303.349
  303.319
  303.345
  303.432
  303.569
  303.728
  303.882
  304.011
  304.111
  304.193
  304.261
  304.315
  304.362
  304.406
  304.448
  304.491
  304.535
  304.562
  304.424
  304.333
  304.29
  304.278
  304.297
  304.328
  304.38
  302.817
  302.62
  302.536
  302.377
  302.5
  303.017
  303.587
  303.907
  303.982
  303.939
  303.858
  303.77
  303.681
  303.6
  303.53
  303.486
  303.481
  303.552
  303.686
  303.845
  304.003
  304.141
  304.251
  304.334
  304.401
  304.448
  304.484
  304.518
  304.551
  304.585
  304.613
  304.629
  304.616
  304.525
  304.429
  304.387
  304.344
  304.349
  304.371
  304.409
  302.856
  302.666
  302.547
  302.338
  302.458
  303.02
  303.684
  304.06
  304.116
  304.073
  304.001
  303.927
  303.855
  303.79
  303.74
  303.729
  303.772
  303.887
  304.034
  304.181
  304.312
  304.417
  304.495
  304.555
  304.59
  304.611
  304.632
  304.653
  304.673
  304.691
  304.7
  304.695
  304.668
  304.612
  304.547
  304.49
  304.415
  304.408
  304.422
  304.442
  302.915
  302.777
  302.547
  302.265
  302.425
  303.066
  303.824
  304.21
  304.279
  304.248
  304.201
  304.153
  304.11
  304.077
  304.063
  304.086
  304.162
  304.283
  304.407
  304.516
  304.606
  304.672
  304.714
  304.733
  304.743
  304.751
  304.76
  304.769
  304.777
  304.78
  304.773
  304.751
  304.711
  304.654
  304.594
  304.544
  304.512
  304.52
  304.541
  304.577
  303
  302.939
  302.368
  302.077
  302.429
  303.26
  304.092
  304.421
  304.482
  304.477
  304.462
  304.447
  304.436
  304.435
  304.451
  304.492
  304.563
  304.653
  304.737
  304.802
  304.846
  304.87
  304.881
  304.883
  304.882
  304.882
  304.882
  304.882
  304.88
  304.873
  304.858
  304.831
  304.79
  304.737
  304.681
  304.635
  304.618
  304.647
  304.735
  304.915
  300.64
  301.559
  302.694
  303.996
  304.518
  304.665
  304.71
  304.728
  304.738
  304.747
  304.757
  304.772
  304.797
  304.834
  304.88
  304.929
  304.971
  305
  305.016
  305.021
  305.02
  305.016
  305.01
  305.004
  304.998
  304.992
  304.984
  304.972
  304.955
  304.93
  304.895
  304.849
  304.795
  304.742
  304.708
  304.718
  304.792
  304.911
  303.881
  304.032
  304.355
  304.645
  304.801
  304.876
  304.914
  304.937
  304.955
  304.971
  304.987
  305.005
  305.025
  305.049
  305.074
  305.096
  305.113
  305.123
  305.126
  305.124
  305.119
  305.112
  305.104
  305.096
  305.087
  305.078
  305.067
  305.053
  305.035
  305.011
  304.98
  304.941
  304.896
  304.849
  304.808
  304.801
  304.841
  304.89
  304.762
  304.74
  304.723
  304.835
  304.918
  304.981
  305.031
  305.067
  305.091
  305.11
  305.126
  305.139
  305.152
  305.163
  305.174
  305.184
  305.193
  305.199
  305.201
  305.2
  305.197
  305.192
  305.185
  305.178
  305.17
  305.161
  305.152
  305.142
  305.13
  305.116
  305.097
  305.074
  305.045
  305.01
  304.971
  304.934
  304.905
  304.902
  304.954
  305.03
)
;

boundaryField
{
  floor
  {
    type wallHeatTransfer;
    Tinf uniform 300.35;
    alphaWall uniform 0.24;
    value nonuniform List<scalar> 29
(
  302.743
  303.283
  303.312
  303.302
  303.324
  303.346
  303.361
  303.365
  303.365
  303.363
  303.361
  303.36
  303.358
  303.356
  303.355
  303.352
  303.349
  303.343
  303.328
  303.33
  303.33
  303.426
  303.491
  303.573
  302.743
  303.283
  303.363
  303.221
  302.886
)
;
  }
  ceiling
  {
    type wallHeatTransfer;
    Tinf uniform 300.35;
    alphaWall uniform 0.24;
    value nonuniform List<scalar> 43
(
  304.411
  304.411
  304.418
  304.533
  304.605
  304.654
  304.693
  304.723
  304.745
  304.763
  304.777
  304.79
  304.802
  304.813
  304.824
  304.833
  304.841
  304.845
  304.846
  304.844
  304.838
  304.831
  304.823
  304.814
  304.806
  304.797
  304.789
  304.78
  304.771
  304.76
  304.746
  304.727
  304.7
  304.667
  304.626
  304.583
  304.543
  304.528
  304.575
  304.626
  302.839
  302.785
  303.683
)
;
  }
  sWall
  {
    type wallHeatTransfer;
    Tinf uniform 306.167;
    alphaWall uniform 0.36;
    value uniform 304.924;
  }
  nWall
  {
    type wallHeatTransfer;
    Tinf uniform 305.15;
    alphaWall uniform 0.36;
    value nonuniform List<scalar> 6
(
  304.568
  304.585
  304.607
  304.941
  304.918
  305.045
)
;
  }
  sideWalls
  {
    type empty;
  }
  glass1
  {
    type wallHeatTransfer;
    Tinf uniform 306.167;
    alphaWall uniform 4.3;
    value nonuniform List<scalar> 9
(
  305.021
  304.877
  304.771
  304.686
  304.621
  304.58
  304.578
  304.628
  304.706
)
;
  }
  glass2
  {
    type wallHeatTransfer;
    Tinf uniform 305.15;
    alphaWall uniform 4.3;
    value nonuniform List<scalar> 2
(
  305.007
  305.072
)
;
  }
  sun
  {
    type wallHeatTransfer;
    Tinf uniform 300.35;
    alphaWall uniform 0.24;
    value nonuniform List<scalar> 14
(
  302.444
  302.401
  302.408
  302.426
  302.5
  302.609
  302.675
  302.714
  302.735
  302.744
  302.751
  302.756
  302.758
  302.755
)
;
  }
  heatsource1
  {
    type fixedGradient;
    gradient uniform 0;
  }
  heatsource2
  {
    type fixedGradient;
    gradient uniform 0;
  }
  Table_master
  {
    type zeroGradient;
  }
  Table_slave
  {
    type zeroGradient;
  }
  inlet
  {
    type fixedValue;
    value uniform 300.15;
  }
  outlet
  {
    type zeroGradient;
  }
} 	// ************************************************************************* //

