/*--------------------------------*- C++ -*----------------------------------*\
  =========                 |
  \\      /  F ield         | OpenFOAM: The Open Source CFD Toolbox
   \\    /   O peration     | Website:  https://openfoam.org
    \\  /    A nd           | Version:  6
     \\/     M anipulation  |
\*---------------------------------------------------------------------------*/
FoamFile
{
    version     2.0;
    format      ascii;
    class       volScalarField;
    location    "1900";
    object      alphat;
}
// * * * * * * * * * * * * * * * * * * * * * * * * * * * * * * * * * * * * * //

dimensions      [1 -1 -1 0 0 0 0];

internalField   nonuniform List<scalar> 
459
(
0.000837032
0.000876121
0.000859677
0.000890325
0.000917672
0.000941505
0.000962645
0.000982014
0.00100062
0.00101922
0.00103353
0.00104224
0.0010449
0.00104303
0.00103708
0.000461073
0.000576122
0.000619415
0.00063176
0.000631381
0.000617672
0.000584757
0.00055023
0.000518991
0.000491141
0.000465815
0.0004425
0.000420823
0.000400448
0.000380932
0.00036166
0.000341631
0.000327633
0.000299455
0.00128522
0.00215679
0.00182544
0.00215452
0.00232666
0.00250571
0.00268298
0.00284474
0.00297048
0.00304129
0.0030647
0.00300631
0.00281616
0.00242451
0.00177071
0.0010759
0.000965001
0.000586661
0.00171108
0.00231617
0.00266924
0.0026465
0.0023629
0.00167643
0.00144818
0.00130894
0.00118827
0.00107881
0.00098015
0.000890632
0.000805976
0.000721664
0.000648758
0.000590531
0.000711553
0.000383568
0.00169501
0.00326525
0.0020083
0.00306292
0.00334202
0.00352966
0.00367534
0.00378671
0.00386901
0.0039183
0.00394128
0.0039042
0.0037603
0.00344452
0.00288787
0.00210856
0.00120705
0.000872376
0.00316358
0.00351311
0.00339703
0.00304798
0.00242131
0.000663992
0.00056707
0.00049495
0.000445229
0.000410405
0.000384472
0.000364097
0.000348093
0.000337587
0.00040907
0.00048664
0.000835086
0.000452439
0.00211495
0.00491223
0.00201183
0.0034054
0.0038919
0.00405836
0.00414838
0.0042013
0.00423923
0.00427065
0.00430428
0.0043244
0.0043016
0.00418672
0.003882
0.00323107
0.00217507
0.00125557
0.00360997
0.00388554
0.00370278
0.00327789
0.00282263
0.00224759
0.000610128
0.000599175
0.000604199
0.00061236
0.000617275
0.000613771
0.000597701
0.000576599
0.000551282
0.000535247
0.000537092
0.000983063
0.000519919
0.00254267
0.00706687
0.00258506
0.00319016
0.00409693
0.0043081
0.00436932
0.00437665
0.00437031
0.00437871
0.00441518
0.00448026
0.00455012
0.00461022
0.00464906
0.00464853
0.00456531
0.00429039
0.00415963
0.00382001
0.00339199
0.00297142
0.00265032
0.00245222
0.00225448
0.00228386
0.00233676
0.00237758
0.00238608
0.00234818
0.00225008
0.00200656
0.00166516
0.00130701
0.00100757
0.000989376
0.000735558
0.000664114
0.000797953
0.000894238
0.00298034
0.00937511
0.00455014
0.00295164
0.00371221
0.00418807
0.00439057
0.00445461
0.00442906
0.00437082
0.00439872
0.00448256
0.00457
0.00464475
0.00470176
0.00472935
0.00466765
0.00441388
0.00401183
0.00356847
0.00317026
0.00283865
0.00260623
0.00248547
0.00246714
0.00253366
0.00261411
0.00267865
0.00271119
0.00270629
0.00265921
0.00253128
0.00227028
0.0019011
0.00151173
0.00115709
0.000950475
0.000825328
0.00118356
0.000930369
0.00340705
0.0112632
0.00809608
0.00466903
0.00348547
0.00338288
0.00375224
0.00415454
0.004435
0.00434162
0.004386
0.00446204
0.00452846
0.00457228
0.00458553
0.00455931
0.00445204
0.00420675
0.00384766
0.00346835
0.00314258
0.00285267
0.00263975
0.00252159
0.00249113
0.00252882
0.0025909
0.00265092
0.00269713
0.00272592
0.00274274
0.00274562
0.00260175
0.00229241
0.00193107
0.00157097
0.00131842
0.00124357
0.00129781
0.00103698
0.00350693
0.0110387
0.00939881
0.00797592
0.00621137
0.00489858
0.00431124
0.00423606
0.00441122
0.00444069
0.00443726
0.00444573
0.00445638
0.00444805
0.00440254
0.00431013
0.00416338
0.00395732
0.00370427
0.00343958
0.00319334
0.00291955
0.00270917
0.0025857
0.00253326
0.00252942
0.00254643
0.00257008
0.00260074
0.00264534
0.00271844
0.00283499
0.0029546
0.00278415
0.00255467
0.00246559
0.00263299
0.0030857
0.0038556
0.0016396
0.00342534
0.00412047
0.00481876
0.00514422
0.0052129
0.00498328
0.00469017
0.004478
0.00437483
0.00432372
0.00432041
0.00432984
0.00432072
0.00427016
0.00416739
0.00401766
0.00384353
0.00367484
0.00352073
0.00336553
0.00320231
0.002971
0.00278087
0.00265747
0.00258061
0.00253256
0.00249582
0.00246131
0.00242937
0.0024039
0.00238631
0.00237313
0.00236006
0.00234981
0.00236264
0.00240475
0.0024131
0.00232982
0.00218745
0.00155321
0.00299818
0.00583745
0.00557372
0.00536098
0.00514348
0.00495477
0.00481
0.00468366
0.00455624
0.00441948
0.0042624
0.00407721
0.00386496
0.00364276
0.0034515
0.00334041
0.0032984
0.00324529
0.00315767
0.00301013
0.00288292
0.00277274
0.00266944
0.00257559
0.00249245
0.00241988
0.00235913
0.00231498
0.00229467
0.0023041
0.00234045
0.00238254
0.00242292
0.0024424
0.00240027
0.00228303
0.00209556
0.00131851
0.00284506
0.00637747
0.00602406
0.00569616
0.00542074
0.00517858
0.00493927
0.00470795
0.00443776
0.00412917
0.0038148
0.00351219
0.00323654
0.00301613
0.00291573
0.00301411
0.00322093
0.00327854
0.00325298
0.00325724
0.00325833
0.00321204
0.00311353
0.0029815
0.002839
0.00270683
0.00259963
0.00252472
0.00248233
0.00246274
0.0024701
0.00251639
0.00257524
0.0026227
0.00259731
0.00264511
0.00274843
0.00134776
0.00225614
0.0024544
0.00262381
0.00279112
0.00263032
0.00248854
0.0022774
0.00209732
0.0019244
0.00175687
0.00160921
0.00148161
0.00136301
0.00124759
0.00113258
0.00101921
0.000918198
0.000855009
0.000841517
0.000830086
0.000818641
0.000820787
0.000820054
0.000812805
0.000802459
0.000794258
0.000792746
0.000800863
0.000819855
0.000850093
0.000892385
0.000949684
0.00101948
0.00109432
0.00117295
0.00126451
0.00128998
0.00125662
0.00118648
0.00110986
)
;

boundaryField
{
    floor
    {
        type            compressible::alphatWallFunction;
        Prt             0.85;
        value           nonuniform List<scalar> 
29
(
0.000147546
6.3274e-05
8.0818e-05
8.7302e-05
8.914e-05
8.90833e-05
8.70408e-05
8.21141e-05
7.6909e-05
7.21647e-05
6.79048e-05
6.40045e-05
6.039e-05
5.70078e-05
5.38083e-05
5.07239e-05
4.7658e-05
4.4449e-05
4.21917e-05
3.76088e-05
3.76083e-05
5.11409e-05
6.19323e-05
7.23041e-05
0.000147545
6.32732e-05
8.24024e-05
0.000124212
0.000177836
)
;
    }
    ceiling
    {
        type            compressible::alphatWallFunction;
        Prt             0.85;
        value           nonuniform List<scalar> 
43
(
0.000310352
0.000335642
0.00035713
0.000378345
0.000358097
0.000340127
0.000313143
0.000289911
0.000267397
0.000245371
0.000225767
0.000208664
0.000192619
0.000176854
0.000160977
0.000145142
0.000130861
0.000121832
0.000119891
0.000118244
0.000116594
0.000116904
0.000116799
0.000115754
0.00011426
0.000113075
0.000112858
0.000114034
0.000116778
0.00012113
0.000127185
0.000135335
0.000145185
0.000155659
0.000166575
0.000179181
0.00018267
0.000178101
0.000168446
0.000157828
0.000457431
0.000542156
0.000384885
)
;
    }
    sWall
    {
        type            compressible::alphatWallFunction;
        Prt             0.85;
        value           uniform 0.000309222;
    }
    nWall
    {
        type            compressible::alphatWallFunction;
        Prt             0.85;
        value           nonuniform List<scalar> 6(0.000127139 0.000132278 0.000147315 0.000186243 0.000190227 0.000157509);
    }
    sideWalls
    {
        type            empty;
    }
    glass1
    {
        type            compressible::alphatWallFunction;
        Prt             0.85;
        value           nonuniform List<scalar> 9(0.000116006 0.000177807 0.000232321 0.000286808 0.000341203 0.000395933 0.000448536 0.000460872 0.000451093);
    }
    glass2
    {
        type            compressible::alphatWallFunction;
        Prt             0.85;
        value           nonuniform List<scalar> 2(0.000228222 0.000216784);
    }
    sun
    {
        type            compressible::alphatWallFunction;
        Prt             0.85;
        value           nonuniform List<scalar> 
14
(
0.000119169
0.00012476
0.000122404
0.000126789
0.000130686
0.000134071
0.000137066
0.000139802
0.000142425
0.000145041
0.00014705
0.000148272
0.000148644
0.000148381
)
;
    }
    heatsource1
    {
        type            compressible::alphatWallFunction;
        Prt             0.85;
        value           nonuniform List<scalar> 3(9.40278e-05 0.000113596 0.000127428);
    }
    heatsource2
    {
        type            compressible::alphatWallFunction;
        Prt             0.85;
        value           nonuniform List<scalar> 4(0.000153064 0.000137479 0.000137477 0.000171255);
    }
    Table_master
    {
        type            compressible::alphatWallFunction;
        Prt             0.85;
        value           nonuniform List<scalar> 9(9.40052e-05 7.95359e-05 6.85708e-05 6.08946e-05 5.54534e-05 5.1363e-05 4.8124e-05 4.55633e-05 4.38737e-05);
    }
    Table_slave
    {
        type            compressible::alphatWallFunction;
        Prt             0.85;
        value           nonuniform List<scalar> 9(8.60004e-05 8.43624e-05 8.51147e-05 8.63349e-05 8.70687e-05 8.65457e-05 8.41421e-05 8.09737e-05 7.71533e-05);
    }
    inlet
    {
        type            fixedValue;
        value           uniform 1.94e-05;
    }
    outlet
    {
        type            zeroGradient;
    }
}


// ************************************************************************* //
