// -*- C++ -*-
// File generated by PyFoam - sorry for the ugliness

FoamFile
{
 version 2.0;
 format ascii;
 class volScalarField;
 location "1400";
 object T;
}

dimensions [ 0 0 0 1 0 0 0 ];

internalField nonuniform List<scalar> 459
(
  307.7
  307.568
  307.517
  307.49
  307.472
  307.459
  307.451
  307.444
  307.437
  307.43
  307.424
  307.417
  307.409
  307.401
  307.388
  304.124
  304.126
  304.132
  304.115
  304.104
  304.108
  304.123
  304.141
  304.13
  304.12
  304.113
  304.109
  304.109
  304.113
  304.117
  304.128
  304.138
  304.137
  304.128
  307.628
  307.437
  307.357
  307.315
  307.291
  307.276
  307.27
  307.27
  307.272
  307.279
  307.288
  307.301
  307.317
  307.337
  307.357
  307.348
  307.33
  304.276
  304.278
  304.277
  304.265
  304.237
  304.194
  304.186
  304.197
  304.2
  304.195
  304.195
  304.198
  304.206
  304.226
  304.271
  304.318
  304.32
  304.253
  304.159
  307.57
  307.297
  307.195
  307.146
  307.118
  307.103
  307.097
  307.103
  307.117
  307.138
  307.166
  307.199
  307.237
  307.276
  307.313
  307.324
  307.314
  304.593
  304.504
  304.462
  304.449
  304.432
  304.399
  304.262
  304.254
  304.297
  304.332
  304.365
  304.401
  304.441
  304.486
  304.542
  304.619
  304.59
  304.547
  304.53
  307.515
  307.175
  307.073
  307.03
  307.007
  306.994
  306.988
  306.994
  307.013
  307.043
  307.083
  307.13
  307.182
  307.234
  307.284
  307.303
  307.203
  305.113
  304.839
  304.81
  304.837
  304.9
  304.983
  305.068
  305.133
  305.145
  305.153
  305.159
  305.161
  305.161
  305.157
  305.146
  305.123
  305.076
  305.075
  305.089
  305.097
  307.459
  307.085
  307.005
  306.976
  306.966
  306.959
  306.953
  306.952
  306.968
  306.999
  307.044
  307.097
  307.156
  307.216
  307.267
  307.241
  306.886
  305.211
  305.033
  305.033
  305.063
  305.105
  305.148
  305.185
  305.21
  305.226
  305.238
  305.247
  305.256
  305.266
  305.275
  305.285
  305.294
  305.301
  305.322
  305.349
  305.383
  305.409
  305.392
  305.384
  307.396
  307.034
  306.982
  306.966
  306.968
  306.966
  306.959
  306.953
  306.967
  306.998
  307.044
  307.098
  307.156
  307.208
  307.223
  307.087
  306.531
  305.281
  305.153
  305.163
  305.189
  305.216
  305.242
  305.264
  305.28
  305.293
  305.303
  305.311
  305.321
  305.332
  305.346
  305.363
  305.383
  305.404
  305.426
  305.446
  305.461
  305.466
  305.43
  305.394
  307.322
  307.02
  306.985
  306.975
  306.983
  306.989
  306.991
  306.993
  307.005
  307.03
  307.068
  307.112
  307.154
  307.175
  307.124
  306.87
  306.228
  305.347
  305.258
  305.272
  305.297
  305.32
  305.338
  305.353
  305.363
  305.368
  305.371
  305.374
  305.377
  305.383
  305.394
  305.409
  305.429
  305.45
  305.469
  305.485
  305.494
  305.492
  305.471
  305.402
  307.249
  307.016
  306.994
  306.978
  306.992
  307.009
  307.023
  307.034
  307.044
  307.061
  307.085
  307.11
  307.124
  307.1
  306.98
  306.648
  306.021
  305.427
  305.37
  305.393
  305.423
  305.448
  305.463
  305.469
  305.468
  305.465
  305.458
  305.451
  305.444
  305.438
  305.437
  305.443
  305.454
  305.47
  305.489
  305.508
  305.526
  305.541
  305.556
  305.578
  307.186
  307.024
  307.021
  306.942
  306.967
  306.997
  307.021
  307.039
  307.051
  307.06
  307.07
  307.073
  307.056
  306.992
  306.829
  306.481
  305.934
  305.537
  305.505
  305.537
  305.578
  305.6
  305.606
  305.604
  305.596
  305.585
  305.571
  305.554
  305.537
  305.519
  305.504
  305.493
  305.488
  305.489
  305.494
  305.502
  305.511
  305.52
  305.531
  305.576
  307.123
  306.898
  306.916
  306.948
  306.974
  306.994
  307.007
  307.012
  307.01
  306.996
  306.96
  306.88
  306.717
  306.413
  305.96
  305.724
  305.693
  305.717
  305.739
  305.75
  305.75
  305.743
  305.731
  305.715
  305.696
  305.675
  305.652
  305.627
  305.602
  305.577
  305.557
  305.543
  305.536
  305.535
  305.536
  305.536
  305.536
  305.541
  307.02
  306.862
  306.863
  306.884
  306.901
  306.914
  306.922
  306.923
  306.916
  306.896
  306.858
  306.788
  306.662
  306.404
  306.12
  305.999
  305.952
  305.931
  305.919
  305.907
  305.895
  305.879
  305.861
  305.84
  305.817
  305.792
  305.765
  305.737
  305.707
  305.677
  305.649
  305.625
  305.607
  305.593
  305.582
  305.571
  305.554
  305.546
  310.12
  309.826
  307.379
  306.849
  306.804
  306.806
  306.809
  306.81
  306.812
  306.812
  306.806
  306.792
  306.767
  306.724
  306.64
  306.467
  306.348
  306.282
  306.238
  306.201
  306.163
  306.126
  306.09
  306.055
  306.021
  305.988
  305.955
  305.922
  305.889
  305.855
  305.821
  305.787
  305.753
  305.72
  305.689
  305.66
  305.631
  305.599
  305.553
  305.488
)
;

boundaryField
{
  floor
  {
    type wallHeatTransfer;
    Tinf uniform 305.2;
    alphaWall uniform 0.24;
    value nonuniform List<scalar> 29
(
  307.209
  304.45
  304.443
  304.442
  304.442
  304.449
  304.467
  304.497
  304.526
  304.524
  304.513
  304.498
  304.479
  304.458
  304.439
  304.431
  304.425
  304.423
  304.41
  304.425
  304.425
  304.411
  304.655
  305.111
  307.209
  304.45
  304.495
  304.702
  305.125
)
;
  }
  ceiling
  {
    type wallHeatTransfer;
    Tinf uniform 303.2;
    alphaWall uniform 0.24;
    value nonuniform List<scalar> 43
(
  309.496
  309.236
  307.108
  306.5
  306.449
  306.447
  306.449
  306.451
  306.455
  306.458
  306.454
  306.444
  306.424
  306.387
  306.311
  306.152
  306.041
  305.982
  305.946
  305.92
  305.896
  305.872
  305.845
  305.816
  305.787
  305.756
  305.725
  305.693
  305.662
  305.63
  305.598
  305.567
  305.535
  305.503
  305.473
  305.443
  305.412
  305.376
  305.328
  305.273
  307.044
  306.901
  306.851
)
;
  }
  sWall
  {
    type wallHeatTransfer;
    Tinf uniform 315.2;
    alphaWall uniform 0.36;
    value uniform 310.779;
  }
  nWall
  {
    type wallHeatTransfer;
    Tinf uniform 307.2;
    alphaWall uniform 0.36;
    value nonuniform List<scalar> 6
(
  305.728
  305.725
  305.725
  305.731
  305.729
  305.719
)
;
  }
  sideWalls
  {
    type empty;
  }
  glass1
  {
    type wallHeatTransfer;
    Tinf uniform 315.2;
    alphaWall uniform 4.3;
    value nonuniform List<scalar> 9
(
  311.583
  311.338
  311.191
  311.079
  310.978
  310.873
  310.752
  310.605
  310.402
)
;
  }
  glass2
  {
    type wallHeatTransfer;
    Tinf uniform 307.2;
    alphaWall uniform 4.3;
    value nonuniform List<scalar> 2
(
  306.598
  306.567
)
;
  }
  sun
  {
    type wallHeatTransfer;
    Tinf uniform 305.2;
    alphaWall uniform 0.24;
    value nonuniform List<scalar> 14
(
  307.56
  307.432
  307.379
  307.35
  307.33
  307.315
  307.304
  307.295
  307.286
  307.276
  307.267
  307.256
  307.245
  307.231
)
;
  }
  heatsource1
  {
    type fixedGradient;
    gradient uniform 0;
  }
  heatsource2
  {
    type fixedGradient;
    gradient uniform 0;
  }
  Table_master
  {
    type zeroGradient;
  }
  Table_slave
  {
    type zeroGradient;
  }
  inlet
  {
    type fixedValue;
    value uniform 290.15;
  }
  outlet
  {
    type zeroGradient;
  }
} 	// ************************************************************************* //

