/*--------------------------------*- C++ -*----------------------------------*\
  =========                 |
  \\      /  F ield         | OpenFOAM: The Open Source CFD Toolbox
   \\    /   O peration     | Website:  https://openfoam.org
    \\  /    A nd           | Version:  6
     \\/     M anipulation  |
\*---------------------------------------------------------------------------*/
FoamFile
{
    version     2.0;
    format      ascii;
    class       surfaceScalarField;
    location    "100";
    object      phi;
}
// * * * * * * * * * * * * * * * * * * * * * * * * * * * * * * * * * * * * * //

dimensions      [1 0 -1 0 0 0 0];

internalField   nonuniform List<scalar> 
852
(
-0.00367182
0.00373766
-0.00527339
0.00160148
-0.00616
0.000886518
-0.00640992
0.000249837
-0.00592267
-0.00048734
-0.00458277
-0.00133998
-0.00242309
-0.00215978
0.000207195
-0.00263043
0.00229076
-0.00208369
0.00371526
-0.00142465
0.00450034
-0.000785242
0.00468208
-0.000181914
0.0042409
0.000441006
0.00296857
0.00127214
0.00297155
-0.00131804
0.00132141
-0.00135865
4.02627e-05
-0.00048922
-0.000869775
0.000566244
-0.0010558
0.00144918
-0.000883276
0.00208671
-0.00063788
0.00245273
-0.000366368
0.00263077
-0.000178393
0.0027359
-0.000105478
0.00280938
-7.38479e-05
0.00286143
-5.24102e-05
0.00289599
-3.4939e-05
0.00290907
-1.3459e-05
0.00288175
2.6933e-05
0.00276955
0.00011181
0.00249673
0.000272417
0.00201484
0.000481475
0.00128427
0.00073016
0.00128787
-0.00261806
0.0065356
-0.00402844
0.00301178
-0.00492105
0.00177906
-0.00521876
0.000547485
-0.00481537
-0.000890777
-0.00365713
-0.00249826
-0.00190883
-0.00390814
-2.54297e-05
-0.00451395
0.00165473
-0.00376404
0.00286276
-0.00263288
0.0035909
-0.0015136
0.0038886
-0.000479831
0.00383316
0.000496236
0.00364174
0.00146334
0.00423744
0.00237563
0.00205721
0.00217995
0.00205693
-0.000221886
0.00155429
0.000347768
-0.000529748
0.0010438
-0.00156614
0.00161584
-0.00162818
0.00209689
-0.00136467
0.00244077
-0.000982109
0.00252337
-0.000449316
0.00254233
-0.000197702
0.00256099
-0.000124492
0.00257617
-8.93748e-05
0.0025865
-6.31092e-05
0.00259336
-4.21629e-05
0.0025951
-1.5576e-05
0.00258243
3.92174e-05
0.00250581
0.00018803
0.00219214
0.00058568
0.00167896
0.000994241
0.00100701
0.00140169
0.00230576
-0.00181737
0.00863098
-0.00295936
0.00415369
-0.00376056
0.0025802
-0.00405916
0.000846042
-0.00371058
-0.00123939
-0.00268459
-0.00352426
-0.00124523
-0.00534751
0.000150216
-0.00590952
0.00141281
-0.00502686
0.00236802
-0.00358835
0.00296206
-0.00210791
0.00325733
-0.000775365
0.00335689
0.000396414
0.0033771
0.00144289
0.00333843
0.00241406
0.00245962
0.00305853
0.00451631
0.00153591
3.66747e-05
0.00226851
-0.00126267
0.00246334
-0.0017613
0.00261534
-0.00178052
0.00276484
-0.00151452
0.00297251
-0.00119013
0.00252299
0.0023251
0.00220041
0.00211084
0.00204752
0.00200515
0.00198935
0.00202833
0.00221612
0.00174583
0.00105557
0.00128036
0.00145929
0.00073127
0.00195035
0.00305478
-0.00122596
0.0102201
-0.00206121
0.00498887
-0.00262008
0.003139
-0.0028165
0.00104242
-0.00241138
-0.00164453
-0.00147634
-0.00445926
-0.000364475
-0.00645934
0.000595197
-0.00686932
0.001451
-0.00588293
0.002088
-0.00422568
0.00246223
-0.00248247
0.00264524
-0.000958682
0.00274308
0.000298273
0.00285182
0.00133387
0.0030722
0.00219342
0.00346531
0.00266516
0.00519578
0.0027856
0.00409273
0.00112022
0.00419549
-6.6363e-05
0.00389789
-0.000965364
0.00355872
-0.00142244
0.00326012
-0.00148227
0.00302136
-0.00127613
0.00272591
-0.000895059
0.00303129
-0.000305913
0.00307722
-4.64711e-05
0.00300994
6.67268e-05
0.00287148
0.000137907
0.00267243
0.000198487
0.00241101
0.000260846
0.00207174
0.000338683
0.00161808
0.000453074
0.000963581
0.000653892
0.000920926
0.00109778
0.00072232
0.00165746
0.000437318
0.00223492
0.00351639
-0.000799967
0.0114569
-0.00135885
0.00554767
-0.00150458
0.00328465
-0.00139694
0.000934727
-0.000762243
-0.00227924
6.0148e-05
-0.00528156
0.000748377
-0.0071475
0.00125496
-0.007376
0.00165794
-0.00628621
0.00189356
-0.00446171
0.00195711
-0.00254642
0.00194632
-0.00094826
0.0019787
0.000265567
0.00215532
0.00115694
0.00255984
0.00178862
0.00315962
0.0020651
0.00395625
0.00198871
0.00405936
0.00101683
0.0040293
-3.65954e-05
0.00375533
-0.000691722
0.00334336
-0.00101082
0.00291255
-0.00105183
0.00252307
-0.000887045
0.00220635
-0.000578746
0.00208838
-0.000188351
0.00195551
8.59659e-05
0.001792
0.000229807
0.00162042
0.000309054
0.00144449
0.000373974
0.00125601
0.000448878
0.00104169
0.000552539
0.000788601
0.000705702
0.00053565
0.000906373
0.000452085
0.00118088
0.000510199
0.00159889
0.000489377
0.0022553
0.00100738
0.00299797
-0.000814636
0.00182162
-0.00139467
0.000578897
-0.00134389
-0.000601908
0.012559
-0.000868362
0.00581403
-0.000365817
0.002782
0.000396111
0.000172708
0.00126243
-0.00314556
0.00184364
-0.00586266
0.00207091
-0.00737468
0.00207219
-0.00737738
0.00192634
-0.0061407
0.00165818
-0.00419402
0.00132243
-0.00221114
0.0010656
-0.000691834
0.00100369
0.000327123
0.00118614
0.000974164
0.00158844
0.00138602
0.0021234
0.00152985
0.00274521
0.00136659
0.00305394
0.000707776
0.00297798
3.90162e-05
0.00269067
-0.000404782
0.00229308
-0.000613632
0.0018659
-0.000625064
0.00146573
-0.000487312
0.0011303
-0.000243756
0.000896762
4.47415e-05
0.000729813
0.000252461
0.000597128
0.000362033
0.000482236
0.000423483
0.000382036
0.000473707
0.000296701
0.000533741
0.000229614
0.000619146
0.000190371
0.000744459
0.00019207
0.000904185
0.000329606
0.00104285
0.000660364
0.00126765
0.00112308
0.00179212
0.00185895
0.00226165
0.00224602
0.00143429
0.00191146
0.000912999
0.000631162
-0.000379322
0.013499
3.24401e-05
0.00540217
0.00164319
0.00117113
0.00290864
-0.00109285
0.00364485
-0.00388173
0.00386004
-0.00607768
0.00355917
-0.0070737
0.00289725
-0.00671561
0.00206825
-0.00531211
0.00119516
-0.00332148
0.000427193
-0.00144371
-1.48302e-05
-0.000250257
-0.000103242
0.000415161
8.7347e-05
0.000783224
0.00046636
0.00100666
0.00093575
0.00106011
0.00139635
0.000905636
0.00159497
0.000508777
0.00151543
0.000118147
0.00125862
-0.000148399
0.000905747
-0.000261206
0.000521271
-0.000241049
0.000154005
-0.000120516
-0.000150639
6.0413e-05
-0.000346272
0.000239894
-0.000452377
0.000358083
-0.000514915
0.000424087
-0.000549563
0.000457645
-0.000553436
0.000477092
-0.000515957
0.000495769
-0.000422316
0.000525006
-0.000253593
0.000575232
4.29353e-06
0.000645791
0.000339193
0.000707437
0.000789191
0.000817133
0.00140977
0.00117103
0.0023029
0.00136804
0.00298959
0.000747205
0.00308214
0.000820032
0.00378216
0.0037125
0.0104156
0.00484951
0.00426508
0.00549101
0.000529532
0.00641063
-0.00201249
0.0066909
-0.00416185
0.0061522
-0.00553874
0.00496196
-0.00588337
0.00337065
-0.00512453
0.00171856
-0.00366055
0.000193978
-0.00179755
-0.000785826
-0.000464492
-0.00118647
0.000149913
-0.00121363
0.000441911
-0.00103638
0.000605579
-0.000732494
0.000702385
-0.000385441
0.000712658
-9.53641e-05
0.000615139
3.93872e-07
0.000412576
-9.33455e-05
0.000211427
-0.000317601
7.53774e-05
-0.000609418
3.01172e-05
-0.000913601
6.26304e-05
-0.00117867
0.000144043
-0.00136368
0.000244913
-0.00146126
0.000336957
-0.00150143
0.000397743
-0.00150283
0.000424982
-0.0014696
0.000423903
-0.00139433
0.000401308
-0.00126405
0.000364976
-0.00106421
0.000324637
-0.000781015
0.000291513
-0.000412812
0.000277055
-1.05409e-06
0.000295138
0.000418666
0.000396863
0.000947408
0.000641745
0.00156277
0.000752152
0.00174082
0.000568686
0.000762234
0.00179818
0.00483452
0.0111271
0.0153996
0.0136022
0.00232686
0.012151
-0.000561059
0.0102891
-0.00229966
0.00794201
-0.00319137
0.00533175
-0.00327316
0.002617
-0.00241022
0.000159026
-0.00120325
-0.00149138
-0.000147888
-0.00219117
0.000234744
-0.00239375
0.000352018
-0.00235892
0.000406621
-0.00220622
0.000452431
-0.00199337
0.00048908
-0.00177798
0.000496801
-0.00162307
0.00045974
-0.00158953
0.000378539
-0.00167117
0.000292553
-0.00182886
0.000232539
-0.0020123
0.000213021
-0.00218059
0.000230368
-0.00230889
0.0002718
-0.00238736
0.000322836
-0.00242075
0.000369799
-0.00242566
0.000402115
-0.00241757
0.000416353
-0.00240816
0.000413945
-0.00240824
0.000400838
-0.00243222
0.00038839
-0.00250135
0.000393204
-0.00264525
0.000434856
-0.00290325
0.000534511
-0.00332991
0.000721253
-0.00398051
0.00104694
-0.00488258
0.00154332
-0.00620581
0.0020749
-0.00796783
0.00233024
-0.00773744
0.00156732
-0.00260719
0.00978363
0.00436218
0.00761746
0.00160528
0.00576541
-0.000447675
0.00351022
-0.000936501
0.000927562
-0.0006911
-0.00142772
-5.58688e-05
-0.00294426
0.000312606
-0.00350342
0.000410669
-0.00364446
0.000375248
-0.00362451
0.000331543
-0.00353045
0.000312045
-0.00339708
0.000318552
-0.0032479
0.000339375
-0.00310943
0.000357807
-0.00301043
0.000360199
-0.0029745
0.000342058
-0.00299728
0.000314765
-0.00305675
0.000291437
-0.00312505
0.000280743
-0.00317956
0.000284299
-0.00320748
0.000299136
-0.00320542
0.00032019
-0.00317773
0.000341519
-0.00313405
0.000357853
-0.00308484
0.000366549
-0.00303941
0.000367916
-0.00300522
0.000366049
-0.00298725
0.000369815
-0.00298749
0.000392849
-0.00300584
0.000452627
-0.00304364
0.000571739
-0.00310429
0.000781353
-0.00316688
0.001109
-0.00315585
0.00153178
-0.00300782
0.00192636
-0.00239851
0.00172043
-0.000760041
-7.16857e-05
-0.00330047
-0.00121019
0.00564653
-0.00149027
0.00188465
-0.0027024
0.000763827
-0.00385986
0.000220313
-0.004751
0.000199375
-0.00512026
0.000312725
-0.00515588
0.000347607
-0.00505797
0.000312169
-0.00492971
0.000246413
-0.00479741
0.000198663
-0.00466441
0.000178471
-0.00452758
0.000181155
-0.00438652
0.000197734
-0.00424746
0.000218156
-0.00412161
0.00023375
-0.00402004
0.00023989
-0.00394433
0.000238446
-0.00388742
0.000233915
-0.00383788
0.000230577
-0.00378483
0.000230636
-0.00372069
0.000234377
-0.00364178
0.000240647
-0.00354811
0.000247225
-0.00344256
0.000251665
-0.00332915
0.0002525
-0.00321173
0.000249848
-0.00309219
0.00024586
-0.00296806
0.000245031
-0.0028301
0.000254252
-0.0026613
0.000283206
-0.00243826
0.000348088
-0.00213515
0.000477654
-0.00171593
0.000689203
-0.00109232
0.00090762
-3.30114e-05
0.000866516
0.00155124
0.000135658
0.00269021
-0.00121126
-0.000536672
-0.0122316
-0.0162046
-0.0105186
-0.00861764
-0.00784734
-0.00762595
-0.00742845
-0.00711966
-0.00677755
-0.00647211
-0.00623342
-0.0060433
-0.00587411
-0.00570296
-0.00551601
-0.00530948
-0.00508832
-0.00486203
-0.00463822
-0.00441993
-0.00420586
-0.00399247
-0.00377592
-0.0035535
-0.00332473
-0.00309155
-0.00285738
-0.00262548
-0.00239699
-0.00216851
-0.00192979
-0.00166092
-0.00132578
-0.000859582
-0.000180376
0.000718593
0.00157636
0.00170102
0.000475463
)
;

boundaryField
{
    floor
    {
        type            calculated;
        value           nonuniform List<scalar> 
29
(
0
0
0
0
0
0
0
0
0
0
0
0
0
0
0
0
0
0
0
0
-4.02593e-06
-1.13122e-05
-1.8171e-05
-2.47269e-05
-3.17383e-06
-3.72603e-06
-1.13638e-05
-1.86427e-05
-1.74319e-05
)
;
    }
    ceiling
    {
        type            calculated;
        value           nonuniform List<scalar> 
43
(
-4.25298e-05
-4.12698e-05
-4.02075e-05
-1.71263e-05
-7.15965e-06
-1.74052e-06
1.23404e-06
3.28475e-06
4.8588e-06
6.08961e-06
7.07766e-06
7.9003e-06
8.63689e-06
9.36051e-06
1.01299e-05
1.09824e-05
1.19278e-05
1.29436e-05
1.39776e-05
1.49659e-05
1.58502e-05
1.65896e-05
1.7163e-05
1.75626e-05
1.7784e-05
1.78182e-05
1.76512e-05
1.72719e-05
1.66765e-05
1.58681e-05
1.48531e-05
1.36439e-05
1.22685e-05
1.07899e-05
9.34099e-06
8.01031e-06
8.12425e-06
1.03507e-05
1.35983e-05
2.06284e-05
-6.6047e-06
-7.48554e-06
-7.44018e-05
)
;
    }
    sWall
    {
        type            calculated;
        value           uniform -0.000211974;
    }
    nWall
    {
        type            calculated;
        value           nonuniform List<scalar> 6(-5.17465e-05 -6.40463e-05 -6.93e-05 -6.74817e-05 -7.43279e-05 -8.24907e-05);
    }
    sideWalls
    {
        type            empty;
        value           nonuniform 0();
    }
    glass1
    {
        type            calculated;
        value           nonuniform List<scalar> 9(-6.59276e-05 -0.000179971 -0.000278075 -0.00036322 -0.000436888 -0.000500254 -0.000560731 -0.000629144 -0.000704935);
    }
    glass2
    {
        type            calculated;
        value           nonuniform List<scalar> 2(-0.000290554 -0.000296196);
    }
    sun
    {
        type            calculated;
        value           uniform 0;
    }
    heatsource1
    {
        type            calculated;
        value           nonuniform List<scalar> 3(2.0481e-07 2.04328e-07 2.04531e-07);
    }
    heatsource2
    {
        type            calculated;
        value           nonuniform List<scalar> 4(5.169e-08 5.19564e-08 0 0);
    }
    Table_master
    {
        type            calculated;
        value           nonuniform List<scalar> 9(-1.54245e-07 -1.5446e-07 -1.54503e-07 -1.54514e-07 -1.54507e-07 -1.54486e-07 -1.54454e-07 -1.54397e-07 -1.54285e-07);
    }
    Table_slave
    {
        type            calculated;
        value           nonuniform List<scalar> 9(1.53825e-07 1.53844e-07 1.53782e-07 1.53744e-07 1.53731e-07 1.53739e-07 1.53767e-07 1.53818e-07 1.53907e-07);
    }
    inlet
    {
        type            calculated;
        value           uniform -0.0118187;
    }
    outlet
    {
        type            calculated;
        value           nonuniform List<scalar> 2(0.0124853 0.00401354);
    }
}


// ************************************************************************* //
