// -*- C++ -*-
// File generated by PyFoam - sorry for the ugliness

FoamFile
{
 version 2.0;
 format ascii;
 class volScalarField;
 location "600";
 object T;
}

dimensions [ 0 0 0 1 0 0 0 ];

internalField nonuniform List<scalar> 459
(
  303.572
  303.313
  303.3
  303.297
  303.293
  303.289
  303.284
  303.279
  303.27
  303.259
  303.247
  303.236
  303.227
  303.223
  303.224
  303.312
  303.291
  303.283
  303.285
  303.288
  303.292
  303.296
  303.299
  303.303
  303.307
  303.31
  303.314
  303.318
  303.321
  303.325
  303.328
  303.332
  303.337
  303.355
  303.746
  303.356
  303.333
  303.336
  303.339
  303.339
  303.337
  303.331
  303.317
  303.294
  303.268
  303.244
  303.225
  303.213
  303.207
  303.204
  303.203
  303.312
  303.275
  303.269
  303.271
  303.275
  303.279
  303.281
  303.283
  303.284
  303.286
  303.287
  303.288
  303.289
  303.291
  303.293
  303.297
  303.303
  303.311
  303.34
  303.929
  303.407
  303.368
  303.379
  303.392
  303.403
  303.408
  303.404
  303.382
  303.344
  303.299
  303.258
  303.227
  303.209
  303.203
  303.203
  303.204
  303.255
  303.254
  303.26
  303.27
  303.279
  303.286
  303.286
  303.286
  303.286
  303.286
  303.287
  303.287
  303.287
  303.288
  303.288
  303.291
  303.295
  303.302
  303.333
  304.112
  303.47
  303.404
  303.42
  303.448
  303.475
  303.494
  303.493
  303.46
  303.4
  303.33
  303.27
  303.227
  303.204
  303.198
  303.2
  303.206
  303.217
  303.23
  303.247
  303.266
  303.283
  303.298
  303.31
  303.319
  303.327
  303.335
  303.341
  303.347
  303.351
  303.355
  303.357
  303.358
  303.336
  303.317
  303.309
  303.332
  304.291
  303.549
  303.446
  303.457
  303.495
  303.539
  303.578
  303.579
  303.53
  303.442
  303.348
  303.271
  303.22
  303.195
  303.191
  303.199
  303.212
  303.229
  303.249
  303.272
  303.295
  303.316
  303.333
  303.347
  303.36
  303.37
  303.379
  303.386
  303.39
  303.392
  303.391
  303.388
  303.381
  303.364
  303.34
  303.321
  303.33
  303.4
  303.446
  303.452
  304.452
  303.651
  303.519
  303.507
  303.543
  303.598
  303.65
  303.635
  303.56
  303.452
  303.343
  303.255
  303.2
  303.178
  303.181
  303.199
  303.224
  303.252
  303.28
  303.309
  303.335
  303.358
  303.376
  303.39
  303.401
  303.411
  303.418
  303.423
  303.426
  303.425
  303.42
  303.413
  303.402
  303.385
  303.361
  303.337
  303.333
  303.362
  303.379
  303.413
  304.599
  303.814
  303.682
  303.652
  303.667
  303.713
  303.721
  303.658
  303.542
  303.407
  303.287
  303.201
  303.158
  303.152
  303.173
  303.209
  303.25
  303.29
  303.327
  303.358
  303.384
  303.405
  303.42
  303.432
  303.441
  303.448
  303.453
  303.456
  303.456
  303.453
  303.445
  303.434
  303.421
  303.403
  303.381
  303.358
  303.347
  303.355
  303.364
  303.393
  304.814
  304.226
  304.081
  303.993
  303.949
  303.895
  303.775
  303.606
  303.423
  303.266
  303.156
  303.101
  303.097
  303.128
  303.18
  303.242
  303.3
  303.348
  303.386
  303.414
  303.434
  303.45
  303.461
  303.469
  303.475
  303.479
  303.481
  303.481
  303.479
  303.475
  303.467
  303.456
  303.442
  303.427
  303.41
  303.394
  303.387
  303.399
  303.417
  303.54
  305.12
  304.843
  304.586
  304.352
  304.127
  303.842
  303.518
  303.236
  303.043
  302.945
  302.929
  302.972
  303.053
  303.144
  303.232
  303.319
  303.377
  303.416
  303.443
  303.462
  303.476
  303.487
  303.494
  303.499
  303.502
  303.504
  303.504
  303.502
  303.5
  303.497
  303.495
  303.495
  303.497
  303.503
  303.517
  303.539
  303.57
  303.602
  303.623
  303.675
  296.375
  298.286
  299.498
  300.305
  300.996
  301.587
  302.074
  302.454
  302.744
  302.973
  303.166
  303.283
  303.36
  303.414
  303.449
  303.473
  303.489
  303.501
  303.51
  303.516
  303.52
  303.522
  303.524
  303.525
  303.526
  303.526
  303.527
  303.528
  303.529
  303.531
  303.536
  303.544
  303.556
  303.575
  303.597
  303.62
  303.638
  303.659
  297.03
  298.879
  300.305
  301.255
  301.857
  302.304
  302.647
  302.905
  303.094
  303.229
  303.331
  303.4
  303.445
  303.476
  303.496
  303.51
  303.52
  303.527
  303.532
  303.535
  303.538
  303.54
  303.542
  303.543
  303.544
  303.545
  303.546
  303.547
  303.549
  303.551
  303.554
  303.56
  303.569
  303.581
  303.596
  303.614
  303.612
  303.641
  299.717
  299.639
  299.634
  301.461
  302.27
  302.66
  302.89
  303.058
  303.188
  303.286
  303.36
  303.414
  303.454
  303.481
  303.499
  303.51
  303.518
  303.523
  303.527
  303.53
  303.532
  303.535
  303.537
  303.539
  303.541
  303.543
  303.546
  303.548
  303.55
  303.552
  303.554
  303.556
  303.559
  303.563
  303.568
  303.577
  303.586
  303.592
  303.594
  303.633
)
;

boundaryField
{
  floor
  {
    type wallHeatTransfer;
    Tinf uniform 305.2;
    alphaWall uniform 0.24;
    value nonuniform List<scalar> 29
(
  303.415
  303.67
  303.607
  303.576
  303.579
  303.59
  303.603
  303.62
  303.639
  303.657
  303.674
  303.691
  303.707
  303.723
  303.738
  303.753
  303.768
  303.785
  303.8
  303.839
  303.839
  303.755
  303.713
  303.688
  303.415
  303.67
  303.651
  303.468
  303.382
)
;
  }
  ceiling
  {
    type wallHeatTransfer;
    Tinf uniform 303.2;
    alphaWall uniform 0.24;
    value nonuniform List<scalar> 43
(
  299.964
  299.88
  299.868
  301.569
  302.33
  302.696
  302.911
  303.068
  303.189
  303.279
  303.346
  303.394
  303.427
  303.449
  303.461
  303.469
  303.474
  303.476
  303.478
  303.48
  303.481
  303.483
  303.485
  303.487
  303.489
  303.492
  303.494
  303.497
  303.501
  303.504
  303.508
  303.512
  303.516
  303.521
  303.528
  303.538
  303.547
  303.551
  303.551
  303.583
  305.031
  304.777
  297.428
)
;
  }
  sWall
  {
    type wallHeatTransfer;
    Tinf uniform 315.2;
    alphaWall uniform 0.36;
    value uniform 301.314;
  }
  nWall
  {
    type wallHeatTransfer;
    Tinf uniform 307.2;
    alphaWall uniform 0.36;
    value nonuniform List<scalar> 6
(
  304.157
  304.105
  304.029
  304.172
  304.149
  304.213
)
;
  }
  sideWalls
  {
    type empty;
  }
  glass1
  {
    type wallHeatTransfer;
    Tinf uniform 315.2;
    alphaWall uniform 4.3;
    value nonuniform List<scalar> 9
(
  311.529
  310.898
  310.5
  310.196
  309.943
  309.714
  309.545
  309.616
  309.841
)
;
  }
  glass2
  {
    type wallHeatTransfer;
    Tinf uniform 307.2;
    alphaWall uniform 4.3;
    value nonuniform List<scalar> 2
(
  305.818
  305.912
)
;
  }
  sun
  {
    type wallHeatTransfer;
    Tinf uniform 305.2;
    alphaWall uniform 0.24;
    value nonuniform List<scalar> 14
(
  303.744
  303.5
  303.486
  303.476
  303.467
  303.458
  303.449
  303.44
  303.429
  303.418
  303.408
  303.4
  303.399
  303.403
)
;
  }
  heatsource1
  {
    type fixedGradient;
    gradient uniform 0;
  }
  heatsource2
  {
    type fixedGradient;
    gradient uniform 0;
  }
  Table_master
  {
    type zeroGradient;
  }
  Table_slave
  {
    type zeroGradient;
  }
  inlet
  {
    type fixedValue;
    value uniform 293.15;
  }
  outlet
  {
    type zeroGradient;
  }
} 	// ************************************************************************* //

