/*--------------------------------*- C++ -*----------------------------------*\
  =========                 |
  \\      /  F ield         | OpenFOAM: The Open Source CFD Toolbox
   \\    /   O peration     | Website:  https://openfoam.org
    \\  /    A nd           | Version:  6
     \\/     M anipulation  |
\*---------------------------------------------------------------------------*/
FoamFile
{
    version     2.0;
    format      ascii;
    class       volScalarField;
    location    "1600";
    object      alphat;
}
// * * * * * * * * * * * * * * * * * * * * * * * * * * * * * * * * * * * * * //

dimensions      [1 -1 -1 0 0 0 0];

internalField   nonuniform List<scalar> 
459
(
0.00256844
0.00239523
0.00224486
0.00212133
0.00201696
0.00192502
0.00183925
0.00175485
0.00166696
0.00156956
0.00145393
0.00127061
0.0010108
0.000902935
0.000901942
0.000206547
0.000224905
0.000208185
0.000198217
0.000193725
0.000184323
0.000171829
0.000172283
0.000185827
0.000205175
0.000226466
0.000245378
0.000251162
0.000245827
0.000253922
0.00027226
0.000267
0.00027498
0.00027926
0.00302603
0.0031673
0.00308532
0.00296209
0.00287801
0.00278969
0.00268126
0.00255889
0.00243918
0.00233476
0.00225578
0.00194445
0.00159876
0.00160777
0.001503
0.000890482
0.000749205
0.000348301
0.00097157
0.00082033
0.000639388
0.000455
0.00035188
0.000351973
0.000425995
0.000535153
0.000656453
0.000763757
0.000835228
0.000870022
0.000930514
0.00108326
0.00133479
0.00125525
0.00124849
0.000465159
0.00339725
0.00357558
0.00327586
0.00299644
0.00285838
0.00278631
0.0027338
0.00268489
0.00264301
0.00262106
0.00258042
0.00228652
0.00215661
0.00247118
0.00248946
0.00179876
0.000918255
0.000645981
0.0015924
0.00131462
0.000985321
0.000688963
0.000463815
0.000332486
0.00036256
0.000398472
0.000437977
0.00048242
0.000533786
0.000595339
0.000673808
0.00077798
0.00203705
0.00204234
0.00216352
0.000670692
0.00374273
0.00393834
0.00325805
0.00273821
0.00253388
0.00251158
0.00255073
0.00260242
0.00266532
0.0027505
0.00273246
0.00258357
0.00284221
0.00343716
0.00353693
0.00276178
0.00162757
0.00090811
0.00175276
0.00198623
0.00166204
0.00138889
0.00117163
0.000985877
0.00079655
0.000795622
0.000794633
0.000795075
0.000798871
0.000807691
0.000823574
0.000850091
0.000893757
0.00239296
0.00220225
0.00171613
0.000800597
0.00410168
0.0042246
0.00308198
0.0024383
0.0024932
0.00263885
0.00258176
0.00257191
0.00267147
0.0028087
0.00280737
0.00287054
0.00355742
0.00471501
0.00539799
0.00542889
0.00513471
0.00473529
0.00437095
0.00424789
0.00426064
0.00434842
0.00443544
0.00441351
0.0043345
0.00424817
0.00414025
0.00401886
0.00389125
0.00376271
0.00363697
0.00351653
0.00339477
0.00323355
0.00278243
0.00216657
0.00146363
0.000890852
0.00087199
0.000869045
0.00450522
0.00446244
0.00283616
0.00291836
0.0036045
0.00329236
0.00278248
0.00261515
0.00269943
0.00282386
0.00284478
0.00307096
0.00401219
0.00540569
0.00639193
0.00680529
0.00694564
0.00686945
0.00669031
0.00651699
0.00643411
0.00639995
0.00635434
0.00629036
0.00619569
0.00606603
0.0059087
0.00573162
0.00554068
0.00533938
0.00512887
0.00490965
0.00468164
0.00443256
0.0041246
0.0037268
0.00321771
0.00260007
0.00188995
0.00104069
0.00499153
0.00479961
0.00266353
0.00327233
0.00382643
0.00347322
0.00300656
0.00277681
0.00280043
0.00287246
0.00286717
0.00311981
0.00407812
0.00547357
0.00670181
0.0074864
0.00798077
0.00817352
0.00815889
0.00806017
0.00794989
0.0078409
0.00772701
0.00760009
0.00744936
0.00727021
0.00706713
0.00684658
0.00661388
0.00637256
0.00612503
0.00587471
0.00562672
0.00537884
0.00510753
0.00477211
0.00431763
0.00366637
0.00270584
0.00119924
0.00564041
0.00571186
0.00405682
0.00259439
0.00360567
0.00359441
0.00349598
0.00325807
0.00313733
0.00307331
0.00294893
0.00306161
0.00378141
0.00494224
0.00645301
0.0076964
0.00849686
0.00892985
0.00908163
0.00908735
0.00902693
0.00892567
0.00878907
0.00861883
0.00841643
0.00818638
0.00793671
0.00767529
0.00740783
0.00713767
0.00686684
0.00659826
0.00633619
0.00607981
0.00581409
0.00550934
0.00511695
0.00454617
0.0035662
0.00136103
0.00665047
0.00818105
0.0127763
0.00443521
0.00378532
0.00454489
0.00463336
0.00442128
0.00403714
0.00367856
0.00327606
0.00318116
0.00354017
0.00411256
0.00525376
0.00688123
0.00820445
0.00894105
0.00930341
0.00948352
0.00956106
0.00955241
0.00946191
0.00929945
0.0090805
0.00882294
0.00854396
0.00825723
0.00797156
0.00769119
0.0074172
0.00714956
0.00688806
0.0066299
0.00636537
0.00607514
0.00572232
0.00522184
0.00427995
0.00155302
0.0247571
0.0146302
0.00641849
0.00614251
0.00640584
0.00648918
0.00605954
0.00519427
0.00421265
0.00384581
0.00387209
0.00406029
0.00462274
0.00562084
0.00682701
0.0078168
0.00858173
0.00915372
0.00953993
0.00974265
0.00977829
0.00967862
0.00948251
0.00922774
0.00894596
0.00866024
0.0083846
0.00812489
0.00788061
0.0076473
0.00741875
0.00718769
0.00694432
0.00667266
0.00634129
0.00587189
0.00495986
0.00178679
0.00923024
0.00996569
0.00927709
0.00750843
0.0071976
0.00700772
0.00699674
0.00593348
0.00461302
0.00407335
0.00393256
0.00404083
0.00443974
0.00511361
0.00601203
0.0070738
0.00810101
0.00895292
0.00953597
0.00983055
0.00987758
0.00974667
0.00950944
0.00922563
0.0089389
0.00867723
0.0084549
0.00827474
0.00813068
0.00801039
0.00789778
0.0077744
0.00761951
0.0074087
0.00710973
0.00665838
0.00584208
0.00204111
0.00172481
0.00233033
0.00525637
0.00459718
0.00393569
0.00327225
0.00269485
0.00217535
0.00187033
0.00184366
0.00175009
0.00166899
0.00161604
0.00158609
0.00157648
0.00158433
0.00160763
0.00165258
0.00173129
0.00183343
0.00194078
0.00203575
0.00210729
0.00215183
0.00217114
0.00216983
0.00215349
0.00212759
0.00209688
0.00206513
0.00203501
0.00200795
0.00198422
0.001963
0.00194234
0.00191911
0.00188865
0.00184336
0.00177015
0.00153589
)
;

boundaryField
{
    floor
    {
        type            compressible::alphatWallFunction;
        Prt             0.85;
        value           nonuniform List<scalar> 
29
(
0.000128651
2.2085e-05
2.52221e-05
2.23712e-05
2.06548e-05
1.9881e-05
1.82419e-05
1.60383e-05
1.61083e-05
1.84819e-05
2.18372e-05
2.54825e-05
2.86858e-05
2.96659e-05
2.87657e-05
3.01107e-05
3.31583e-05
3.22807e-05
3.35949e-05
3.43208e-05
3.43203e-05
6.39574e-05
9.50297e-05
0.000114032
0.000128649
2.20846e-05
4.55458e-05
9.13062e-05
0.000129368
)
;
    }
    ceiling
    {
        type            compressible::alphatWallFunction;
        Prt             0.85;
        value           nonuniform List<scalar> 
43
(
0.000242002
0.000320752
0.000678227
0.000599945
0.000520253
0.000438898
0.000366583
0.000299969
0.000260364
0.00025701
0.000244743
0.000234005
0.000226955
0.000222956
0.000221673
0.000222726
0.000225843
0.00023183
0.000242276
0.000255756
0.000269835
0.000282215
0.000291496
0.000297251
0.000299735
0.000299556
0.000297437
0.00029408
0.000290099
0.00028598
0.000282066
0.000278546
0.000275456
0.000272688
0.000269988
0.000266948
0.000262954
0.000257005
0.000247357
0.000216176
0.00084047
0.001015
0.00113288
)
;
    }
    sWall
    {
        type            compressible::alphatWallFunction;
        Prt             0.85;
        value           uniform 0.000241401;
    }
    nWall
    {
        type            compressible::alphatWallFunction;
        Prt             0.85;
        value           nonuniform List<scalar> 6(0.000123807 0.000148124 0.00017017 0.000249303 0.000282619 0.000215937);
    }
    sideWalls
    {
        type            empty;
    }
    glass1
    {
        type            compressible::alphatWallFunction;
        Prt             0.85;
        value           nonuniform List<scalar> 9(0.000348652 0.000406087 0.000452011 0.00049429 0.000537805 0.000586274 0.000644121 0.000720481 0.000837776);
    }
    glass2
    {
        type            compressible::alphatWallFunction;
        Prt             0.85;
        value           nonuniform List<scalar> 2(0.000192322 0.000218239);
    }
    sun
    {
        type            compressible::alphatWallFunction;
        Prt             0.85;
        value           nonuniform List<scalar> 
14
(
0.000350793
0.000328734
0.000309451
0.000293507
0.000279959
0.000267963
0.00025672
0.000245604
0.000233971
0.000221006
0.000205512
0.000180875
0.000144655
0.000128975
)
;
    }
    heatsource1
    {
        type            compressible::alphatWallFunction;
        Prt             0.85;
        value           nonuniform List<scalar> 3(0.000126913 0.00012423 0.00012382);
    }
    heatsource2
    {
        type            compressible::alphatWallFunction;
        Prt             0.85;
        value           nonuniform List<scalar> 4(0.000126853 0.000106551 0.00010655 0.000130769);
    }
    Table_master
    {
        type            compressible::alphatWallFunction;
        Prt             0.85;
        value           nonuniform List<scalar> 9(4.30113e-05 4.78354e-05 5.35303e-05 5.97189e-05 6.65964e-05 7.44468e-05 8.37316e-05 9.53992e-05 0.000110641);
    }
    Table_slave
    {
        type            compressible::alphatWallFunction;
        Prt             0.85;
        value           nonuniform List<scalar> 9(0.000113342 0.000113212 0.000113073 0.000113139 0.00011369 0.000114966 0.000117257 0.00012107 0.000127319);
    }
    inlet
    {
        type            fixedValue;
        value           uniform 1.94e-05;
    }
    outlet
    {
        type            zeroGradient;
    }
}


// ************************************************************************* //
