// -*- C++ -*-
// File generated by PyFoam - sorry for the ugliness

FoamFile
{
 version 2.0;
 format ascii;
 class volVectorField;
 location "100";
 object U;
}

dimensions [ 0 1 -1 0 0 0 0 ];

internalField nonuniform List<vector> 459
(
  (-0.0153274 0.0935234 0)
  (-0.179881 0.00755796 0)
  (-0.158296 -0.0188319 0)
  (-0.140226 -0.0120094 0)
  (-0.135594 -0.00176906 0)
  (-0.137663 -0.000498788 0)
  (-0.142288 -0.00360847 0)
  (-0.141434 -0.00728873 0)
  (-0.134424 -0.01062 0)
  (-0.122069 -0.0134487 0)
  (-0.105435 -0.0158543 0)
  (-0.0851637 -0.0176201 0)
  (-0.0622368 -0.0194917 0)
  (-0.043064 -0.0228342 0)
  (-0.0539603 -0.0265266 0)
  (0.0357325 0.00854076 0)
  (-0.0256153 -0.00789955 0)
  (-0.00676353 -0.0118228 0)
  (0.00674956 -0.00965877 0)
  (0.0122418 -0.00658364 0)
  (0.0139349 -0.00194842 0)
  (0.0086216 0.00132817 0)
  (0.000452897 0.000843282 0)
  (-0.00334374 8.91056e-05 0)
  (-0.00429057 -0.000360111 0)
  (-0.00369675 -0.000815538 0)
  (-0.00212634 -0.00120492 0)
  (-0.000168235 -0.00120776 0)
  (0.000757934 7.07167e-05 0)
  (-0.00145235 0.0023779 0)
  (0.000128643 -0.0038239 0)
  (0.0137877 -0.0206258 0)
  (0.0371476 -0.0145321 0)
  (-0.0175619 0.0125386 0)
  (0.172546 0.177372 0)
  (-0.115851 -0.021047 0)
  (0.0175952 -0.0703797 0)
  (0.0144298 -0.0218554 0)
  (0.00528661 0.0128549 0)
  (-0.0238392 0.0214465 0)
  (-0.0625494 0.0125239 0)
  (-0.0939809 -0.00100859 0)
  (-0.108707 -0.0123012 0)
  (-0.107978 -0.0204098 0)
  (-0.0997967 -0.0265213 0)
  (-0.0868037 -0.030373 0)
  (-0.0704611 -0.0335977 0)
  (-0.0523828 -0.0377676 0)
  (-0.0356835 -0.0424037 0)
  (-0.0170588 -0.0436653 0)
  (0.0222569 -0.000926767 0)
  (0.124918 0.01552 0)
  (-0.00266034 0.00100207 0)
  (-0.0111061 -0.00668825 0)
  (-0.0111513 -0.00742846 0)
  (-0.0108872 -0.00502632 0)
  (-0.0022635 0.0052994 0)
  (-0.000157159 0.0101932 0)
  (-0.00556771 0.00504041 0)
  (-0.00537547 0.00293065 0)
  (-0.00462073 0.0014703 0)
  (-0.0040509 6.85446e-05 0)
  (-0.00355199 -0.000988389 0)
  (-0.00286976 -0.00108756 0)
  (-0.00336857 0.00110176 0)
  (-0.00927642 0.00193805 0)
  (-4.26175e-05 -0.0138653 0)
  (0.0071229 -0.025995 0)
  (0.0218897 -0.0135162 0)
  (-0.0915859 0.0374985 0)
  (0.438255 0.301674 0)
  (0.233164 0.0194995 0)
  (0.244363 -0.0334018 0)
  (0.237198 0.0115033 0)
  (0.201363 0.0581971 0)
  (0.142402 0.0763722 0)
  (0.0788835 0.0711357 0)
  (0.0129711 0.0467171 0)
  (-0.0468692 0.00844138 0)
  (-0.0786893 -0.0186406 0)
  (-0.0859604 -0.0322597 0)
  (-0.0845478 -0.039916 0)
  (-0.0794523 -0.0457353 0)
  (-0.0723601 -0.0512055 0)
  (-0.0645765 -0.0543878 0)
  (-0.0575347 -0.0504552 0)
  (-0.0541343 -0.0383618 0)
  (0.0793725 0.0227363 0)
  (-0.0480858 0.0104036 0)
  (-0.0440622 0.00310334 0)
  (-0.0471581 -0.00578981 0)
  (-0.0475239 -0.0107443 0)
  (-0.0407083 -0.0103123 0)
  (-0.00125431 0.00595964 0)
  (-0.00761115 -0.00174433 0)
  (-0.00592582 -0.00404776 0)
  (-0.00527466 -0.00564543 0)
  (-0.00607722 -0.00689772 0)
  (-0.0077494 -0.00740492 0)
  (-0.0094766 -0.00631154 0)
  (-0.0137097 -0.00185792 0)
  (-0.0264273 0.00540501 0)
  (0.0316329 -0.00917651 0)
  (-0.00706174 -0.00173519 0)
  (-0.0558853 0.00511938 0)
  (-0.155399 0.013007 0)
  (0.715783 -0.0902868 0)
  (0.410613 -0.155544 0)
  (0.42802 -0.0852752 0)
  (0.4462 0.0163543 0)
  (0.387491 0.0979736 0)
  (0.300456 0.139988 0)
  (0.212566 0.146018 0)
  (0.130101 0.125033 0)
  (0.0564297 0.0856335 0)
  (-0.0128876 0.0291981 0)
  (-0.0588932 -0.0171973 0)
  (-0.0751538 -0.0345886 0)
  (-0.0840938 -0.0435957 0)
  (-0.0910302 -0.0489278 0)
  (-0.0986782 -0.04889 0)
  (-0.109316 -0.0373324 0)
  (-0.12247 -0.0049648 0)
  (-0.120223 0.0524064 0)
  (-0.0859435 0.024583 0)
  (-0.100416 0.0162377 0)
  (-0.0965882 0.004693 0)
  (-0.101137 -0.00562394 0)
  (-0.106841 -0.0128158 0)
  (-0.112314 -0.0161429 0)
  (-0.110332 -0.0123706 0)
  (-0.0990081 -0.0135045 0)
  (-0.0842478 -0.0173643 0)
  (-0.0643207 -0.0229449 0)
  (-0.0386154 -0.0299679 0)
  (-0.000546633 -0.0369598 0)
  (0.0410926 -0.0365913 0)
  (0.078902 -0.031157 0)
  (0.111765 -0.0233313 0)
  (0.125779 -0.0121046 0)
  (0.116204 0.0116864 0)
  (0.0951268 0.0265583 0)
  (-0.0130275 0.0269221 0)
  (0.739251 -0.47773 0)
  (0.224384 -0.306752 0)
  (0.298795 -0.112367 0)
  (0.343595 0.0453826 0)
  (0.315851 0.152777 0)
  (0.260655 0.207518 0)
  (0.201446 0.217206 0)
  (0.141804 0.19346 0)
  (0.0842286 0.148583 0)
  (0.0297177 0.0912517 0)
  (-0.0219658 0.026557 0)
  (-0.0557482 -0.0143728 0)
  (-0.0737267 -0.0310274 0)
  (-0.0871377 -0.0392521 0)
  (-0.099326 -0.0426824 0)
  (-0.11043 -0.0409993 0)
  (-0.117677 -0.0315814 0)
  (-0.119168 -0.0110109 0)
  (-0.112094 0.00923256 0)
  (-0.10421 0.0137767 0)
  (-0.0975912 0.00731392 0)
  (-0.0957725 -0.000473212 0)
  (-0.0962611 -0.00724944 0)
  (-0.0968892 -0.0111311 0)
  (-0.094242 -0.0121999 0)
  (-0.0872376 -0.0163865 0)
  (-0.0763839 -0.0234016 0)
  (-0.0610371 -0.0333919 0)
  (-0.0407654 -0.0457558 0)
  (-0.0155998 -0.0576434 0)
  (0.0181596 -0.0623066 0)
  (0.0506283 -0.0552802 0)
  (0.0805083 -0.0389828 0)
  (0.10317 -0.0127428 0)
  (0.113626 0.0211297 0)
  (0.114604 0.048129 0)
  (0.0831315 0.0638542 0)
  (0.101493 0.0662745 0)
  (0.0327735 0.0218026 0)
  (-0.350516 -0.0354514 0)
  (0.689177 -0.592357 0)
  (-0.0607209 -0.316378 0)
  (0.120831 -0.060565 0)
  (0.183901 0.0959603 0)
  (0.173021 0.191938 0)
  (0.149936 0.247801 0)
  (0.126062 0.260693 0)
  (0.0984844 0.237811 0)
  (0.0679536 0.191722 0)
  (0.0362698 0.13282 0)
  (0.00263516 0.0680557 0)
  (-0.0282189 0.0153727 0)
  (-0.05094 -0.0129567 0)
  (-0.0653654 -0.0252208 0)
  (-0.0767497 -0.0293157 0)
  (-0.085942 -0.027226 0)
  (-0.0915594 -0.0198642 0)
  (-0.0923834 -0.00972673 0)
  (-0.0887448 0.000284251 0)
  (-0.0825269 0.00455892 0)
  (-0.0771057 0.00215655 0)
  (-0.0745232 -0.00298319 0)
  (-0.0744385 -0.0084993 0)
  (-0.0749182 -0.0131761 0)
  (-0.0741743 -0.0176226 0)
  (-0.071299 -0.0243646 0)
  (-0.0658782 -0.0344071 0)
  (-0.0572956 -0.0480907 0)
  (-0.0451706 -0.0645558 0)
  (-0.0294324 -0.0810267 0)
  (-0.00941639 -0.0913138 0)
  (0.0156444 -0.087423 0)
  (0.0400589 -0.0697913 0)
  (0.0652227 -0.0356732 0)
  (0.0908779 0.0109604 0)
  (0.104127 0.0485504 0)
  (0.103322 0.0677538 0)
  (0.115822 0.072465 0)
  (0.126772 0.0669799 0)
  (-0.0922337 0.0490657 0)
  (0.582287 -0.586909 0)
  (-0.230348 -0.325674 0)
  (0.0211359 -0.0920382 0)
  (0.0558505 0.104013 0)
  (0.0244991 0.19565 0)
  (0.0327425 0.254175 0)
  (0.0406633 0.27144 0)
  (0.0418796 0.253095 0)
  (0.0370919 0.210639 0)
  (0.0281018 0.154394 0)
  (0.0145491 0.0936733 0)
  (-0.00291451 0.0401052 0)
  (-0.0209448 0.00526838 0)
  (-0.0356687 -0.0131155 0)
  (-0.0455363 -0.0206334 0)
  (-0.0527516 -0.0211642 0)
  (-0.0568903 -0.01678 0)
  (-0.0573097 -0.0100202 0)
  (-0.0543961 -0.00371564 0)
  (-0.0500677 -0.000600972 0)
  (-0.0459522 -0.00109874 0)
  (-0.0440494 -0.0037395 0)
  (-0.0441762 -0.00745679 0)
  (-0.0455416 -0.0117296 0)
  (-0.047347 -0.0171709 0)
  (-0.0491004 -0.0252804 0)
  (-0.0503721 -0.0372981 0)
  (-0.0505576 -0.0537756 0)
  (-0.049088 -0.0736613 0)
  (-0.0449889 -0.0940212 0)
  (-0.0372974 -0.108518 0)
  (-0.0268844 -0.109484 0)
  (-0.015465 -0.0967335 0)
  (0.00204122 -0.0655434 0)
  (0.0321125 -0.0161866 0)
  (0.0634497 0.031399 0)
  (0.0793305 0.0531968 0)
  (0.10347 0.0570912 0)
  (0.152842 0.0670233 0)
  (-0.0565657 0.129121 0)
  (0.38069 -0.468002 0)
  (-0.300807 -0.279228 0)
  (-0.224021 -0.130193 0)
  (-0.0860851 0.110536 0)
  (-0.116964 0.16573 0)
  (-0.07085 0.224738 0)
  (-0.0341233 0.251675 0)
  (-0.00828732 0.242887 0)
  (0.00839898 0.206825 0)
  (0.0181378 0.156221 0)
  (0.0218902 0.101929 0)
  (0.0190095 0.0544724 0)
  (0.0110108 0.0204646 0)
  (9.71684e-05 -0.00151818 0)
  (-0.00900204 -0.0128703 0)
  (-0.015234 -0.0163036 0)
  (-0.0189402 -0.0149088 0)
  (-0.0197784 -0.0109922 0)
  (-0.0180682 -0.0068373 0)
  (-0.0149899 -0.00428948 0)
  (-0.0119937 -0.00374876 0)
  (-0.0102141 -0.00465153 0)
  (-0.00994541 -0.00655519 0)
  (-0.0111888 -0.00930646 0)
  (-0.0140261 -0.0134587 0)
  (-0.0188673 -0.0203208 0)
  (-0.0261065 -0.0315424 0)
  (-0.0358549 -0.0483405 0)
  (-0.0471718 -0.0695872 0)
  (-0.0573294 -0.0921076 0)
  (-0.0641793 -0.108489 0)
  (-0.0718164 -0.110246 0)
  (-0.0820205 -0.0998642 0)
  (-0.0877969 -0.0821332 0)
  (-0.0774283 -0.0558949 0)
  (-0.0382488 -0.0225491 0)
  (-0.0159599 0.00449586 0)
  (0.0104543 0.0109623 0)
  (0.118909 0.0871395 0)
  (-0.564046 0.263708 0)
  (0.098788 -0.335438 0)
  (-0.590612 -0.270161 0)
  (-0.7385 -0.233421 0)
  (-0.203591 -0.00971434 0)
  (-0.23434 0.0975744 0)
  (-0.149036 0.168747 0)
  (-0.0906153 0.207247 0)
  (-0.0458231 0.210422 0)
  (-0.0125091 0.185798 0)
  (0.0133763 0.140989 0)
  (0.0305506 0.0951784 0)
  (0.0396546 0.0556283 0)
  (0.0413085 0.0265305 0)
  (0.0379656 0.00699439 0)
  (0.0315003 -0.00521506 0)
  (0.0258296 -0.0111847 0)
  (0.0216777 -0.012585 0)
  (0.0196111 -0.011288 0)
  (0.0195627 -0.00908999 0)
  (0.0208292 -0.00734031 0)
  (0.022443 -0.00652587 0)
  (0.023644 -0.00654393 0)
  (0.0240434 -0.00721914 0)
  (0.023394 -0.00845681 0)
  (0.0212999 -0.0104221 0)
  (0.0168547 -0.0137311 0)
  (0.00857599 -0.0199406 0)
  (-0.00775177 -0.0333019 0)
  (-0.0306367 -0.0523979 0)
  (-0.0544276 -0.0739664 0)
  (-0.0739857 -0.0875372 0)
  (-0.103045 -0.0805597 0)
  (-0.151026 -0.0589788 0)
  (-0.20956 -0.0329099 0)
  (-0.265713 -0.000597612 0)
  (-0.313644 0.0331461 0)
  (-0.354455 0.0581086 0)
  (-0.397474 0.0691917 0)
  (-0.452575 0.0660929 0)
  (-0.715278 0.0458303 0)
  (-1.56924 -0.25211 0)
  (-0.11989 -0.155522 0)
  (-0.255032 -0.0016411 0)
  (-0.184445 0.0983647 0)
  (-0.122676 0.147808 0)
  (-0.0678182 0.161683 0)
  (-0.022565 0.148603 0)
  (0.0172888 0.111939 0)
  (0.0442548 0.0764298 0)
  (0.0622272 0.0466059 0)
  (0.0712806 0.0244611 0)
  (0.0737202 0.00928695 0)
  (0.0716306 -0.000623748 0)
  (0.0675605 -0.00637299 0)
  (0.063423 -0.00889094 0)
  (0.0602818 -0.00929372 0)
  (0.0584804 -0.00868873 0)
  (0.0577849 -0.00792776 0)
  (0.0576641 -0.00743685 0)
  (0.0576134 -0.00730698 0)
  (0.0572893 -0.00749812 0)
  (0.0564476 -0.00793092 0)
  (0.0547872 -0.00854006 0)
  (0.0516767 -0.00933337 0)
  (0.0457635 -0.0106576 0)
  (0.0341063 -0.0142407 0)
  (0.0123305 -0.0230675 0)
  (-0.0147968 -0.0427483 0)
  (-0.025413 -0.060811 0)
  (-0.0388026 -0.0497402 0)
  (-0.0586494 -0.0202787 0)
  (-0.0860257 -0.00156352 0)
  (-0.113274 0.0188483 0)
  (-0.139759 0.0435245 0)
  (-0.152706 0.0628198 0)
  (-0.133847 0.0519494 0)
  (-0.0402015 -0.0402203 0)
  (-0.283204 -0.262824 0)
  (-0.32041 0.0532501 0)
  (-0.0649263 -0.137388 0)
  (-0.201559 -0.0333526 0)
  (-0.18391 0.0442942 0)
  (-0.134025 0.0889241 0)
  (-0.0761329 0.106674 0)
  (-0.020719 0.102586 0)
  (0.0322532 0.075598 0)
  (0.0658095 0.0523091 0)
  (0.0894423 0.0341003 0)
  (0.103051 0.0216406 0)
  (0.10892 0.0142877 0)
  (0.109776 0.0107249 0)
  (0.107594 0.0090607 0)
  (0.104342 0.00881542 0)
  (0.100976 0.00968809 0)
  (0.0980148 0.0112689 0)
  (0.0956046 0.0131771 0)
  (0.0936259 0.0151664 0)
  (0.0918653 0.0171259 0)
  (0.0901359 0.0190269 0)
  (0.0883066 0.0209313 0)
  (0.0862737 0.0230979 0)
  (0.0838536 0.0261058 0)
  (0.0804806 0.0304171 0)
  (0.0747967 0.0342594 0)
  (0.0638006 0.0331652 0)
  (0.0493051 0.00961325 0)
  (0.0369017 -0.0426495 0)
  (0.0071712 -0.0526198 0)
  (0.00635415 0.0231405 0)
  (-0.000803064 0.0391564 0)
  (-0.005062 0.0479406 0)
  (-0.00143084 0.0609686 0)
  (0.0112819 0.0727812 0)
  (0.0398229 0.0629724 0)
  (0.138206 -0.00818368 0)
  (-0.189602 -0.165998 0)
  (0.260337 -0.144027 0)
  (-0.233874 -0.0918444 0)
  (-0.193644 0.0680895 0)
  (-0.143702 -0.0520528 0)
  (-0.207238 -0.0143343 0)
  (-0.190521 0.0178519 0)
  (-0.141372 0.0398608 0)
  (-0.07712 0.0511186 0)
  (-0.00435431 0.0493204 0)
  (0.0614989 0.0255662 0)
  (0.101128 0.00758791 0)
  (0.1289 -0.00790539 0)
  (0.145702 -0.0212601 0)
  (0.153892 -0.0329046 0)
  (0.156555 -0.0432411 0)
  (0.155715 -0.0519832 0)
  (0.152892 -0.0593609 0)
  (0.149091 -0.0657283 0)
  (0.144959 -0.0713833 0)
  (0.140879 -0.0765857 0)
  (0.137007 -0.0815479 0)
  (0.133349 -0.0864243 0)
  (0.129857 -0.0913044 0)
  (0.126481 -0.0961922 0)
  (0.123266 -0.100966 0)
  (0.120513 -0.105367 0)
  (0.118979 -0.109247 0)
  (0.119145 -0.112691 0)
  (0.120789 -0.119514 0)
  (0.11855 -0.131207 0)
  (0.0997855 -0.152327 0)
  (0.0322221 -0.187736 0)
  (0.000473101 -0.157089 0)
  (0.0281762 -0.102531 0)
  (0.0555176 -0.0710017 0)
  (0.0894446 -0.0503617 0)
  (0.125727 -0.0423398 0)
  (0.160306 -0.059081 0)
  (0.192907 -0.0976185 0)
  (-0.129208 -0.165704 0)
)
;

boundaryField
{
  floor
  {
    type noSlip;
  }
  ceiling
  {
    type noSlip;
  }
  sWall
  {
    type noSlip;
  }
  nWall
  {
    type noSlip;
  }
  sideWalls
  {
    type empty;
  }
  glass1
  {
    type noSlip;
  }
  glass2
  {
    type noSlip;
  }
  sun
  {
    type noSlip;
  }
  heatsource1
  {
    type noSlip;
  }
  heatsource2
  {
    type noSlip;
  }
  Table_master
  {
    type noSlip;
  }
  Table_slave
  {
    type noSlip;
  }
  inlet
  {
    type fixedValue;
    value uniform (0.1 0 0);
  }
  outlet
  {
    type zeroGradient;
  }
} 	// ************************************************************************* //

