/*--------------------------------*- C++ -*----------------------------------*\
  =========                 |
  \\      /  F ield         | OpenFOAM: The Open Source CFD Toolbox
   \\    /   O peration     | Website:  https://openfoam.org
    \\  /    A nd           | Version:  6
     \\/     M anipulation  |
\*---------------------------------------------------------------------------*/
FoamFile
{
    version     2.0;
    format      ascii;
    class       volScalarField;
    location    "800";
    object      nut;
}
// * * * * * * * * * * * * * * * * * * * * * * * * * * * * * * * * * * * * * //

dimensions      [0 2 -1 0 0 0 0];

internalField   nonuniform List<scalar> 
459
(
0.00107501
0.00117415
0.00119564
0.00125292
0.00130587
0.00135531
0.0014036
0.00145156
0.00148596
0.00150143
0.00149287
0.00145701
0.00139374
0.00130883
0.00121617
0.000473194
0.000580759
0.000651638
0.000645161
0.000621692
0.000591748
0.000555217
0.000519312
0.000486754
0.000457822
0.000432173
0.000409352
0.00038904
0.000370774
0.000353904
0.000337584
0.000320552
0.000308161
0.000280419
0.00146618
0.00357618
0.00342303
0.00398535
0.00453611
0.00508788
0.00557845
0.00594291
0.00627315
0.00654275
0.00671337
0.00674005
0.00655438
0.00598729
0.00444544
0.0012373
0.000741941
0.000514655
0.00107267
0.00147241
0.00175388
0.00189919
0.00188994
0.0015302
0.00132426
0.00117613
0.00106196
0.000970857
0.000896501
0.000831963
0.000771562
0.000712821
0.000660624
0.000615063
0.000716696
0.000366217
0.001792
0.00488593
0.00424905
0.00534805
0.00589605
0.00630077
0.00661271
0.00685412
0.00711522
0.0073888
0.00764329
0.00783063
0.00789768
0.00777065
0.00725257
0.00561287
0.00121963
0.0010339
0.00147245
0.00187234
0.00222179
0.00245333
0.00238064
0.000794616
0.000702214
0.000628
0.000568097
0.000519268
0.000479039
0.000445637
0.000417925
0.000395426
0.000426258
0.000493165
0.000802555
0.000422973
0.00210499
0.00625099
0.00425908
0.00567214
0.00616896
0.00633629
0.00643481
0.00654733
0.00674697
0.00702154
0.00734009
0.00764192
0.00787234
0.00797527
0.00787231
0.0073231
0.00545822
0.00146877
0.0018225
0.00234522
0.00283696
0.00321561
0.00343946
0.0032147
0.000895605
0.000815559
0.000758123
0.000714289
0.000677076
0.000643087
0.000610504
0.000576401
0.000536932
0.000504195
0.000515611
0.000911171
0.00046689
0.00242434
0.00800507
0.00468365
0.00545262
0.00612039
0.00617387
0.00611104
0.00615342
0.00632741
0.00660381
0.00696176
0.00731725
0.00759607
0.00773467
0.0077078
0.00747245
0.00686704
0.00566569
0.00525033
0.00510391
0.00504389
0.00500275
0.004941
0.00474872
0.00401272
0.00366011
0.00345488
0.00329595
0.00312834
0.00288662
0.00256091
0.00216509
0.0017241
0.00127679
0.000940439
0.000938807
0.0006242
0.000575803
0.000698031
0.000783105
0.00276285
0.00991468
0.00645475
0.00540788
0.00590534
0.0061338
0.00599596
0.00603924
0.00617159
0.00641988
0.00677731
0.00716598
0.00747427
0.00761099
0.00754871
0.00732759
0.00702315
0.00669971
0.00651238
0.00637443
0.00622488
0.00606025
0.00587979
0.0056559
0.00532517
0.00502836
0.00476405
0.00451044
0.00425275
0.00397294
0.00362108
0.00318273
0.00265678
0.00207192
0.00155248
0.00115921
0.000870323
0.000738454
0.0010532
0.000816322
0.00307115
0.0112538
0.00905546
0.00696988
0.0065825
0.00652543
0.00632016
0.00617761
0.00620835
0.00644509
0.00683959
0.00727352
0.00760095
0.0077132
0.00758991
0.00731781
0.00706405
0.006955
0.00694663
0.0068788
0.00669844
0.0064347
0.00611723
0.00576481
0.00539662
0.00505702
0.00474669
0.00445801
0.00419114
0.00395235
0.00374137
0.00344764
0.00303486
0.00253135
0.00204636
0.00161062
0.00128926
0.00118659
0.00120723
0.000925742
0.00313109
0.0100273
0.00890425
0.00821691
0.00763668
0.00695251
0.00639331
0.0061502
0.00625473
0.00664003
0.0071709
0.00767181
0.00797294
0.00798312
0.00772949
0.00736639
0.00712039
0.00708774
0.00709033
0.00687753
0.00649638
0.00602448
0.0055282
0.00506262
0.00466046
0.00432511
0.00404128
0.00380123
0.00360796
0.00346947
0.00339366
0.00335506
0.00313763
0.00281032
0.00252085
0.00236803
0.00244737
0.00281212
0.00346584
0.00145061
0.00304803
0.00361509
0.00401624
0.00412353
0.00420035
0.00441152
0.00485011
0.00553269
0.00638555
0.00726196
0.00799942
0.00844643
0.00849516
0.00817271
0.00765019
0.00724268
0.00702454
0.00684434
0.00654774
0.00607302
0.00549006
0.00489665
0.00436891
0.0039396
0.00360268
0.00333403
0.00311179
0.00292356
0.00276168
0.00261846
0.00248558
0.00236278
0.00226485
0.00219227
0.00216446
0.00217481
0.00216579
0.00208356
0.00195031
0.00136704
0.00149105
0.00306285
0.00489498
0.0064454
0.0076773
0.00864066
0.00927098
0.00954402
0.00948738
0.00910167
0.00844386
0.00762475
0.0068955
0.00642349
0.00605563
0.00561358
0.00507513
0.00450159
0.00396307
0.00350906
0.00315423
0.00288067
0.00266544
0.00249233
0.0023525
0.00224213
0.00215976
0.00210501
0.00208005
0.00208238
0.00209848
0.00212482
0.00215412
0.00216277
0.00211213
0.00198845
0.00180215
0.00113889
0.00198587
0.00508705
0.00759989
0.0085621
0.00906487
0.00924972
0.00908092
0.00860794
0.00792721
0.00714021
0.00637601
0.00570136
0.00515056
0.00467998
0.00421139
0.00375654
0.00336065
0.00304379
0.00280053
0.00261067
0.00245314
0.00231709
0.00219872
0.00210373
0.00203265
0.00198515
0.00196019
0.00195623
0.00197848
0.00202414
0.00208979
0.00216834
0.00224392
0.00229623
0.00228038
0.00230812
0.0023524
0.00116161
0.00177548
0.00188161
0.0019568
0.00210736
0.00203898
0.00195408
0.00189973
0.00182472
0.00171706
0.00158229
0.00142945
0.00126955
0.00111382
0.00097846
0.000875086
0.000801663
0.000750102
0.000713364
0.000686961
0.000668267
0.000655687
0.00064821
0.000645413
0.000647546
0.000655059
0.000667243
0.000684255
0.000706447
0.000734386
0.000768832
0.000808849
0.000854517
0.000906365
0.000964872
0.00102964
0.00110611
0.00113256
0.00110437
0.0010377
0.000967756
)
;

boundaryField
{
    floor
    {
        type            nutkWallFunction;
        Cmu             0.09;
        kappa           0.41;
        E               9.8;
        value           nonuniform List<scalar> 
29
(
0.000145872
5.62695e-05
6.99339e-05
7.87656e-05
7.79633e-05
7.50489e-05
7.1311e-05
6.67194e-05
6.21703e-05
5.80116e-05
5.42869e-05
5.09601e-05
4.79792e-05
4.53082e-05
4.28909e-05
4.06449e-05
3.84589e-05
3.61626e-05
3.44821e-05
3.06866e-05
3.06865e-05
4.22851e-05
4.97605e-05
5.54569e-05
0.000145872
5.62695e-05
6.15776e-05
0.000124708
0.000174629
)
;
    }
    ceiling
    {
        type            nutkWallFunction;
        Cmu             0.09;
        kappa           0.41;
        E               9.8;
        value           nonuniform List<scalar> 
43
(
0.000208682
0.000220342
0.000228562
0.000245018
0.000237639
0.000228406
0.00022247
0.000214241
0.00020236
0.000187367
0.000170191
0.000152001
0.000134036
0.000118188
0.000105915
9.70954e-05
9.08458e-05
8.63619e-05
8.31225e-05
8.082e-05
7.92663e-05
7.8341e-05
7.79947e-05
7.82589e-05
7.91888e-05
8.06941e-05
8.27901e-05
8.55152e-05
8.89315e-05
9.31223e-05
9.79632e-05
0.000103454
0.000109646
0.000116584
0.000124209
0.000133141
0.000136215
0.000132939
0.000125154
0.000116925
0.000345147
0.000403764
0.000231605
)
;
    }
    sWall
    {
        type            nutkWallFunction;
        Cmu             0.09;
        kappa           0.41;
        E               9.8;
        value           uniform 0.00020874;
    }
    nWall
    {
        type            nutkWallFunction;
        Cmu             0.09;
        kappa           0.41;
        E               9.8;
        value           nonuniform List<scalar> 6(9.48523e-05 9.88651e-05 0.000111952 0.000136959 0.00013959 0.000116931);
    }
    sideWalls
    {
        type            empty;
    }
    glass1
    {
        type            nutkWallFunction;
        Cmu             0.09;
        kappa           0.41;
        E               9.8;
        value           nonuniform List<scalar> 9(0.000129618 0.000174555 0.000210947 0.000245228 0.000279643 0.000315605 0.000347957 0.000354218 0.000345569);
    }
    glass2
    {
        type            nutkWallFunction;
        Cmu             0.09;
        kappa           0.41;
        E               9.8;
        value           nonuniform List<scalar> 2(0.000172652 0.000163184);
    }
    sun
    {
        type            nutkWallFunction;
        Cmu             0.09;
        kappa           0.41;
        E               9.8;
        value           nonuniform List<scalar> 
14
(
0.000129519
0.000141027
0.000143508
0.000150095
0.000156154
0.000161787
0.000167267
0.000172689
0.000176564
0.000178304
0.000177342
0.000173303
0.000166149
0.000156491
)
;
    }
    heatsource1
    {
        type            nutkWallFunction;
        Cmu             0.09;
        kappa           0.41;
        E               9.8;
        value           nonuniform List<scalar> 3(6.93135e-05 8.44834e-05 9.48522e-05);
    }
    heatsource2
    {
        type            nutkWallFunction;
        Cmu             0.09;
        kappa           0.41;
        E               9.8;
        value           nonuniform List<scalar> 4(0.000148297 8.98544e-05 8.98544e-05 0.000146265);
    }
    Table_master
    {
        type            nutkWallFunction;
        Cmu             0.09;
        kappa           0.41;
        E               9.8;
        value           nonuniform List<scalar> 9(9.6244e-05 8.49967e-05 7.58355e-05 6.83456e-05 6.21691e-05 5.70265e-05 5.27157e-05 4.91086e-05 4.61578e-05);
    }
    Table_slave
    {
        type            nutkWallFunction;
        Cmu             0.09;
        kappa           0.41;
        E               9.8;
        value           nonuniform List<scalar> 9(0.000108362 9.87712e-05 9.18216e-05 8.64758e-05 8.1907e-05 7.77076e-05 7.36568e-05 6.93888e-05 6.44105e-05);
    }
    inlet
    {
        type            calculated;
        value           uniform 0.000100623;
    }
    outlet
    {
        type            calculated;
        value           nonuniform List<scalar> 2(0.00177548 0.00188161);
    }
}


// ************************************************************************* //
