/*--------------------------------*- C++ -*----------------------------------*\
  =========                 |
  \\      /  F ield         | OpenFOAM: The Open Source CFD Toolbox
   \\    /   O peration     | Website:  https://openfoam.org
    \\  /    A nd           | Version:  6
     \\/     M anipulation  |
\*---------------------------------------------------------------------------*/
FoamFile
{
    version     2.0;
    format      ascii;
    class       volScalarField;
    location    "700";
    object      epsilon;
}
// * * * * * * * * * * * * * * * * * * * * * * * * * * * * * * * * * * * * * //

dimensions      [0 2 -3 0 0 0 0];

internalField   nonuniform List<scalar> 
459
(
0.000154446
0.000206798
0.000229728
0.000268466
0.000308649
0.000351927
0.000402158
0.000451066
0.000490927
0.000511549
0.000502584
0.000456
0.000325305
0.000196835
0.000117176
2.62773e-05
8.19939e-05
8.8799e-05
9.15899e-05
9.00853e-05
8.4201e-05
7.24341e-05
6.06444e-05
5.07929e-05
4.28415e-05
3.64506e-05
3.12969e-05
2.70621e-05
2.35001e-05
2.04016e-05
1.75621e-05
1.47415e-05
1.09972e-05
7.56041e-06
0.000341399
0.000450464
0.000189155
0.000188645
0.000199031
0.000218621
0.000250905
0.000290859
0.000328527
0.000351029
0.000348103
0.000318003
0.000257861
0.000197254
0.000138904
0.000223999
0.000104838
8.9794e-05
0.000172703
0.000102693
8.35382e-05
7.28758e-05
6.61025e-05
6.68711e-05
5.63626e-05
4.60768e-05
3.75396e-05
3.06887e-05
2.53045e-05
2.10463e-05
1.76802e-05
1.52292e-05
1.40849e-05
1.5112e-05
1.21187e-05
1.3317e-05
0.000582538
0.000968893
0.000203147
0.000169176
0.000178283
0.000202709
0.000241597
0.000289788
0.000333931
0.000362746
0.000367407
0.000344333
0.000293755
0.000238212
0.000184756
0.000167645
0.000211558
0.000148131
0.0001293
0.000105834
9.01117e-05
7.86641e-05
7.59827e-05
0.000177026
0.00012144
8.62769e-05
6.36281e-05
4.85865e-05
3.83347e-05
3.11691e-05
2.61254e-05
2.27518e-05
1.80955e-05
1.71891e-05
1.46305e-05
1.71238e-05
0.000899445
0.00189762
0.000270077
0.000159534
0.000164985
0.000194955
0.000245968
0.000305823
0.000354401
0.000387987
0.000398467
0.000375695
0.000325186
0.000268794
0.0002213
0.000189877
0.00018135
0.000331215
0.000215615
0.000154992
0.000122359
0.000102079
8.84708e-05
8.61836e-05
0.000231559
0.000180122
0.000151757
0.000134349
0.000121788
0.000110365
9.82725e-05
8.65925e-05
7.38306e-05
4.52868e-05
3.05858e-05
2.5485e-05
2.46572e-05
0.00132738
0.00335957
0.000463542
0.000164462
0.000154855
0.00019466
0.000280758
0.000356064
0.000405155
0.000440324
0.000450562
0.000419755
0.000355733
0.000282079
0.000221439
0.000182932
0.000167027
0.000164937
0.000153473
0.00014052
0.000126862
0.00011305
0.000100163
9.0311e-05
9.2207e-05
8.98435e-05
8.76533e-05
8.52622e-05
8.19703e-05
7.70677e-05
7.02483e-05
6.29358e-05
5.58865e-05
4.61018e-05
3.60972e-05
3.37253e-05
2.81755e-05
3.9458e-05
4.1996e-05
5.3111e-05
0.0019249
0.00513231
0.00100332
0.000247714
0.000176985
0.000217424
0.000387079
0.000458941
0.000498265
0.000527839
0.000531524
0.000486724
0.000398578
0.000297928
0.000216675
0.000168198
0.000150786
0.000150716
0.000152699
0.000149248
0.000140523
0.000128666
0.000116159
0.000105585
0.000100712
0.000100276
0.000101167
0.000101188
9.94995e-05
9.54616e-05
8.82725e-05
7.72879e-05
6.58502e-05
5.50952e-05
4.51071e-05
4.01551e-05
3.63746e-05
3.98033e-05
0.000161048
0.000124615
0.00268047
0.00636696
0.00227653
0.000774525
0.000488249
0.000543409
0.000621127
0.000636446
0.000645717
0.000661177
0.000651103
0.000580855
0.000458368
0.000324568
0.00022221
0.00016688
0.000151981
0.000158106
0.000165631
0.000165649
0.000158784
0.000148513
0.000138221
0.000130646
0.000128004
0.000129255
0.00013095
0.000131403
0.00013073
0.000129251
0.000126267
0.000118915
0.000105669
9.33193e-05
8.42212e-05
7.95972e-05
7.88335e-05
8.75388e-05
0.000246453
0.000206632
0.00292927
0.00817195
0.00421313
0.00248913
0.00167105
0.00129907
0.00105272
0.000912463
0.00086105
0.00085363
0.00081776
0.000702613
0.000529769
0.00035618
0.000237925
0.000183624
0.000174456
0.000183562
0.000191501
0.000191991
0.000187245
0.000181357
0.000177038
0.000175282
0.000175733
0.000176609
0.000175888
0.000173575
0.000171894
0.000174008
0.000182116
0.000196147
0.000210307
0.000224107
0.000255877
0.00031242
0.000410999
0.000511495
0.00175197
0.000513909
0.00278969
0.00484087
0.00366158
0.0027182
0.0020579
0.0015979
0.00129248
0.00114375
0.00111452
0.00111452
0.00103564
0.000834958
0.000589508
0.000378953
0.000278097
0.000243899
0.000240714
0.000246984
0.000253376
0.000256778
0.000258212
0.00026025
0.000263646
0.000267183
0.000268577
0.000265288
0.000255825
0.000241577
0.000227497
0.000220745
0.000227271
0.000249088
0.000286343
0.000340464
0.000418609
0.000529151
0.000671602
0.000835918
0.0010103
0.00055559
0.00089664
0.00115937
0.00123605
0.00125084
0.00133009
0.00145219
0.00155227
0.00152076
0.00128762
0.000898377
0.000603365
0.00047818
0.000443072
0.000440824
0.000448387
0.000457816
0.000465502
0.000474783
0.000482642
0.00049143
0.000501028
0.000508344
0.00050853
0.000495835
0.000465473
0.000416703
0.000355811
0.000296613
0.000256651
0.000247165
0.000261924
0.000300376
0.000363974
0.000453344
0.000557522
0.000647027
0.000706266
0.000560529
0.000565062
0.00206446
0.00243334
0.00272388
0.0028751
0.00284573
0.00278116
0.00249334
0.00202381
0.00154955
0.00124433
0.00110131
0.00105248
0.00105342
0.00107817
0.00111306
0.00114815
0.00117469
0.0011941
0.0012142
0.00123865
0.00126458
0.00128386
0.00128291
0.00124511
0.00115784
0.00102251
0.000860095
0.000705845
0.000578904
0.000492912
0.000449334
0.000445744
0.000473802
0.000516715
0.000562093
0.000965317
0.000681764
0.000733611
0.000831991
0.000925817
0.00137593
0.00137817
0.00125715
0.00116605
0.00121515
0.00123547
0.00118222
0.00106736
0.000951625
0.000853719
0.000795376
0.000767685
0.000755587
0.000749447
0.000743649
0.00073582
0.000727678
0.000722864
0.000719504
0.000714805
0.00070542
0.000687059
0.000656042
0.000611509
0.000557421
0.000502741
0.000458892
0.000427673
0.000410132
0.000404704
0.000410913
0.000428291
0.000454286
0.000480111
0.000469263
0.000421196
0.000377281
)
;

boundaryField
{
    floor
    {
        Cmu             0.09;
        kappa           0.41;
        E               9.8;
        type            epsilonWallFunction;
        value           nonuniform List<scalar> 
29
(
0.000117176
2.62773e-05
8.19939e-05
8.8799e-05
9.15899e-05
9.00853e-05
8.4201e-05
7.24341e-05
6.06444e-05
5.07929e-05
4.28415e-05
3.64506e-05
3.12969e-05
2.70621e-05
2.35001e-05
2.04016e-05
1.75621e-05
1.47415e-05
1.09972e-05
7.56041e-06
7.56041e-06
1.3317e-05
1.71238e-05
2.46572e-05
0.000117176
2.62773e-05
8.9794e-05
0.000148131
0.000331215
)
;
    }
    ceiling
    {
        Cmu             0.09;
        kappa           0.41;
        E               9.8;
        type            epsilonWallFunction;
        value           nonuniform List<scalar> 
43
(
0.000733611
0.000831991
0.000925817
0.00137593
0.00137817
0.00125715
0.00116605
0.00121515
0.00123547
0.00118222
0.00106736
0.000951625
0.000853719
0.000795376
0.000767685
0.000755587
0.000749447
0.000743649
0.00073582
0.000727678
0.000722864
0.000719504
0.000714805
0.00070542
0.000687059
0.000656042
0.000611509
0.000557421
0.000502741
0.000458892
0.000427673
0.000410132
0.000404704
0.000410913
0.000428291
0.000454286
0.000480111
0.000469263
0.000421196
0.000377281
0.00278969
0.00484087
0.000565062
)
;
    }
    sWall
    {
        Cmu             0.09;
        kappa           0.41;
        E               9.8;
        type            epsilonWallFunction;
        value           uniform 0.000733611;
    }
    nWall
    {
        Cmu             0.09;
        kappa           0.41;
        E               9.8;
        type            epsilonWallFunction;
        value           nonuniform List<scalar> 6(5.3111e-05 0.000124615 0.000206632 0.000560529 0.000681764 0.000377281);
    }
    sideWalls
    {
        type            empty;
    }
    glass1
    {
        Cmu             0.09;
        kappa           0.41;
        E               9.8;
        type            epsilonWallFunction;
        value           nonuniform List<scalar> 9(0.000154446 0.000341399 0.000582538 0.000899445 0.00132738 0.0019249 0.00268047 0.00292927 0.00278969);
    }
    glass2
    {
        Cmu             0.09;
        kappa           0.41;
        E               9.8;
        type            epsilonWallFunction;
        value           nonuniform List<scalar> 2(0.000513909 0.00055559);
    }
    sun
    {
        Cmu             0.09;
        kappa           0.41;
        E               9.8;
        type            epsilonWallFunction;
        value           nonuniform List<scalar> 
14
(
0.000154446
0.000206798
0.000229728
0.000268466
0.000308649
0.000351927
0.000402158
0.000451066
0.000490927
0.000511549
0.000502584
0.000456
0.000325305
0.000196835
)
;
    }
    heatsource1
    {
        Cmu             0.09;
        kappa           0.41;
        E               9.8;
        type            epsilonWallFunction;
        value           nonuniform List<scalar> 3(3.9458e-05 4.1996e-05 5.3111e-05);
    }
    heatsource2
    {
        Cmu             0.09;
        kappa           0.41;
        E               9.8;
        type            epsilonWallFunction;
        value           nonuniform List<scalar> 4(0.000223999 0.000104838 0.000104838 0.000211558);
    }
    Table_master
    {
        Cmu             0.09;
        kappa           0.41;
        E               9.8;
        type            epsilonWallFunction;
        value           nonuniform List<scalar> 9(0.000177026 0.00012144 8.62769e-05 6.36281e-05 4.85865e-05 3.83347e-05 3.11691e-05 2.61254e-05 2.27518e-05);
    }
    Table_slave
    {
        Cmu             0.09;
        kappa           0.41;
        E               9.8;
        type            epsilonWallFunction;
        value           nonuniform List<scalar> 9(0.000231559 0.000180122 0.000151757 0.000134349 0.000121788 0.000110365 9.82725e-05 8.65925e-05 7.38306e-05);
    }
    inlet
    {
        type            turbulentMixingLengthDissipationRateInlet;
        mixingLength    0.01;
        phi             phi;
        k               k;
        value           uniform 0.000101881;
    }
    outlet
    {
        type            zeroGradient;
    }
}


// ************************************************************************* //
