/*--------------------------------*- C++ -*----------------------------------*\
  =========                 |
  \\      /  F ield         | OpenFOAM: The Open Source CFD Toolbox
   \\    /   O peration     | Website:  https://openfoam.org
    \\  /    A nd           | Version:  6
     \\/     M anipulation  |
\*---------------------------------------------------------------------------*/
FoamFile
{
    version     2.0;
    format      ascii;
    class       surfaceScalarField;
    location    "700";
    object      phi;
}
// * * * * * * * * * * * * * * * * * * * * * * * * * * * * * * * * * * * * * //

dimensions      [1 0 -1 0 0 0 0];

internalField   nonuniform List<scalar> 
852
(
-0.001966
0.00198869
-0.00275917
0.000793163
-0.00335142
0.000592248
-0.00378232
0.000430894
-0.00402537
0.000243048
-0.00405211
2.67345e-05
-0.00383092
-0.000221195
-0.00334652
-0.000484398
-0.0026311
-0.000715429
-0.00176763
-0.000863471
-0.000871878
-0.000895758
-7.74071e-05
-0.000794475
0.000387191
-0.000464603
0.000455347
-6.81614e-05
0.000453586
-1.57848e-05
1.33191e-05
0.000137579
-0.00015337
0.000495114
-0.000357541
0.000883988
-0.00038888
0.00122371
-0.000339726
0.00148257
-0.000258872
0.0016221
-0.000139535
0.00167493
-5.2829e-05
0.00169517
-2.02528e-05
0.00170185
-6.68839e-06
0.00169823
3.61391e-06
0.00168467
1.35574e-05
0.00165725
2.74103e-05
0.00160273
5.45191e-05
0.00148857
0.000114151
0.00125817
0.000230386
0.000861095
0.000397072
0.000241293
0.000619795
0.000237952
-0.0014741
0.00352581
-0.0022232
0.00154226
-0.00282751
0.00119655
-0.00326282
0.000866206
-0.00351635
0.000496572
-0.00356235
7.27274e-05
-0.00337109
-0.000412456
-0.00293483
-0.000920659
-0.00230098
-0.00134929
-0.00156347
-0.00160098
-0.000835028
-0.00162421
-0.000220065
-0.00140944
0.000252764
-0.000937436
0.000591727
-0.000407129
0.000935537
0.000109771
0.000558491
0.00037699
0.000558434
-8.01337e-05
8.76254e-05
0.000476627
-0.000710137
0.000841451
-0.00072237
0.00113953
-0.00068696
0.00139162
-0.000591827
0.00158014
-0.000447399
0.00162233
-0.000181734
0.00163019
-6.06962e-05
0.00163838
-2.84431e-05
0.00164516
-1.34771e-05
0.00164911
-3.43564e-07
0.00165027
1.2394e-05
0.00164786
2.98127e-05
0.00163747
6.49051e-05
0.0015851
0.000166514
0.00138138
0.000434094
0.00103171
0.000746741
0.000598708
0.00105279
0.000827554
-0.00108563
0.0047101
-0.00172061
0.00217723
-0.00226984
0.00174578
-0.00266529
0.00126165
-0.00291008
0.000741358
-0.0029725
0.000135142
-0.0028018
-0.00058316
-0.00239381
-0.00132865
-0.00182126
-0.00192184
-0.00118603
-0.00223621
-0.000585151
-0.00222509
-8.40379e-05
-0.00191056
0.000322055
-0.00134353
0.000626401
-0.00071148
0.000828826
-9.26588e-05
0.000730313
0.000475498
0.00128874
0.000756062
-0.000677115
0.000962744
-0.000916823
0.00119795
-0.000957582
0.00136795
-0.00085697
0.00150963
-0.000733509
0.00170628
-0.000644054
0.00152469
0.00146414
0.00143585
0.00142252
0.00142232
0.00143486
0.00146482
0.00152988
0.00169654
0.00148285
0.000647778
0.00121727
0.00101231
0.000808522
0.00146153
0.00162156
-0.000794854
0.00563533
-0.0012802
0.00266256
-0.00167558
0.00214116
-0.00196912
0.00155519
-0.00216589
0.00093813
-0.00222354
0.00019278
-0.00204777
-0.000758926
-0.00165587
-0.00172056
-0.00115699
-0.00242073
-0.000644101
-0.0027491
-0.000184102
-0.0026851
0.000195723
-0.00229039
0.000523585
-0.0016714
0.000802465
-0.000990366
0.00105113
-0.000341332
0.00132881
0.000197813
0.00211002
0.000507527
0.00207722
2.42233e-05
0.00193021
-0.000530112
0.00173847
-0.000725093
0.00158019
-0.000799301
0.00149197
-0.000768759
0.00143862
-0.000680167
0.00132701
-0.000532452
0.00159052
-0.000263667
0.00175641
-0.000166051
0.00189352
-0.000137272
0.00201328
-0.000119924
0.00210843
-9.53106e-05
0.00216067
-5.24007e-05
0.00213844
2.20634e-05
0.00199756
0.000140719
0.00166763
0.000329772
0.00159224
0.000723153
0.00142531
0.00117923
0.0011595
0.00172734
0.00276204
-0.000577734
0.00637147
-0.000913727
0.00299855
-0.00105108
0.00227851
-0.00117507
0.00167917
-0.00126689
0.00102994
-0.00127167
0.000197559
-0.00104533
-0.000985277
-0.000682906
-0.00208298
-0.000302519
-0.00280112
3.87338e-05
-0.00309035
0.000316337
-0.0029627
0.000538548
-0.00251261
0.000737561
-0.00187042
0.000926487
-0.0011793
0.00113959
-0.000554444
0.00141876
-8.1354e-05
0.00177889
0.000147387
0.00187401
-7.08972e-05
0.00171779
-0.000373899
0.00154745
-0.00055476
0.0013823
-0.000634158
0.00125092
-0.000637385
0.0011565
-0.00058575
0.00111047
-0.000486432
0.00119869
-0.000351896
0.00130546
-0.000272824
0.00141084
-0.000242665
0.00151509
-0.000224179
0.00161338
-0.000193607
0.00169443
-0.000133465
0.00173876
-2.22691e-05
0.00172649
0.000152976
0.00166217
0.000394082
0.00165033
0.000734988
0.00172172
0.00110783
0.00206958
0.00137947
0.00307985
0.00175176
0.00186565
0.00121398
0.000866208
0.000999233
0.000914563
-0.000495591
0.00704997
-0.000679629
0.00318259
-0.00044583
0.00204471
-0.00032653
0.00155987
-0.000271501
0.00097491
-9.82216e-05
2.42753e-05
0.000213753
-0.00129726
0.000494194
-0.00236342
0.000695895
-0.00300282
0.000811598
-0.00320606
0.000865421
-0.00301653
0.000883458
-0.00253065
0.000893219
-0.00188019
0.000918019
-0.0012041
0.000987401
-0.000623831
0.00112164
-0.000215598
0.00129357
-2.45486e-05
0.00132379
-0.000101127
0.00122043
-0.000270541
0.00107424
-0.000408572
0.00092443
-0.000484359
0.000794505
-0.000507467
0.00069985
-0.000491103
0.000658257
-0.000444846
0.000690249
-0.000383896
0.000764511
-0.000347094
0.000855668
-0.00033383
0.000954687
-0.000323207
0.00105838
-0.000297307
0.00116465
-0.000239746
0.0012703
-0.000127931
0.00136166
6.1612e-05
0.001437
0.000318733
0.00154846
0.000623514
0.00173
0.00092628
0.00196431
0.00114515
0.00225545
0.00146062
0.00200382
0.0014656
0.00131851
0.00168453
0.00228243
-0.000570882
0.0078257
-0.000416306
0.00302801
0.000293626
0.00133477
0.000666898
0.00118659
0.000988928
0.000652875
0.00138145
-0.000368252
0.00167251
-0.00158832
0.00179742
-0.00248834
0.00176727
-0.00297267
0.00161464
-0.00305343
0.00139107
-0.00279296
0.00114477
-0.00228436
0.000916898
-0.00165232
0.000738361
-0.00102557
0.000640812
-0.000526289
0.00062941
-0.000204202
0.000668496
-6.3641e-05
0.00065808
-9.07173e-05
0.00057892
-0.000191387
0.000458915
-0.000288575
0.000328377
-0.000353828
0.000209776
-0.000388874
0.000120868
-0.000402202
7.72021e-05
-0.000401189
8.74529e-05
-0.000394156
0.000135362
-0.000395012
0.000201771
-0.000400249
0.000277913
-0.000399358
0.000363919
-0.000383323
0.000467177
-0.000343014
0.000600785
-0.000261548
0.0007674
-0.000105013
0.000948805
0.000137318
0.00115
0.000422306
0.00138804
0.000688236
0.00162334
0.000909838
0.00190986
0.0011741
0.00208718
0.00128826
0.00188651
0.0018852
0.00422069
0.00143774
0.0066175
0.00191005
0.00255569
0.00208083
0.00116399
0.00233824
0.000929179
0.00277817
0.000212939
0.00323222
-0.000822298
0.0033671
-0.0017232
0.00320166
-0.0023229
0.00281267
-0.00258368
0.00229059
-0.00253135
0.00172311
-0.0022255
0.00117534
-0.00173659
0.000701828
-0.00117881
0.00033729
-0.000661043
0.000116405
-0.000305412
2.09408e-05
-0.000108746
-7.0682e-06
-3.56392e-05
-4.28715e-05
-5.49213e-05
-0.000116936
-0.00011733
-0.000220851
-0.000184668
-0.000334545
-0.000240143
-0.000439527
-0.000283901
-0.000521905
-0.000319833
-0.000572804
-0.000350299
-0.000590133
-0.000376837
-0.000584092
-0.000401062
-0.000565766
-0.000418584
-0.000541678
-0.000423456
-0.000513156
-0.000411854
-0.00047375
-0.000382429
-0.000402271
-0.000333037
-0.000256264
-0.000251029
-2.77128e-05
-9.12423e-05
0.000244551
0.000150032
0.000530732
0.000402046
0.000798497
0.000642064
0.0011028
0.000869789
0.0013732
0.00101785
0.000945483
0.00231291
0.0053792
0.00685566
0.00939659
0.00806165
0.00249893
0.00740383
0.001587
0.00690711
0.000709657
0.00625946
-0.000174648
0.00542682
-0.000890562
0.00447043
-0.00136651
0.00345913
-0.00157239
0.00246147
-0.00153368
0.00154657
-0.00131061
0.000749167
-0.000939193
0.000114082
-0.000543738
-0.000308164
-0.000238805
-0.000534864
-7.87202e-05
-0.000639406
-4.21211e-06
-0.000689047
1.39933e-05
-0.000736804
-7.17229e-06
-0.000806196
-4.79463e-05
-0.000893461
-9.74125e-05
-0.00099011
-0.000143503
-0.00108644
-0.000187579
-0.00117522
-0.00023106
-0.00125253
-0.000273002
-0.00131769
-0.000311684
-0.0013745
-0.000344268
-0.00142835
-0.000364737
-0.00148665
-0.000365165
-0.00156094
-0.000337578
-0.00166746
-0.00027591
-0.00182031
-0.000180196
-0.00202396
-4.73972e-05
-0.00227262
0.000157409
-0.00257462
0.000452028
-0.00302029
0.000847712
-0.00374154
0.0013633
-0.00487823
0.00200648
-0.00645665
0.00259625
-0.00655827
0.00241453
-0.000947593
0.00594557
0.00296377
0.00525178
0.00228079
0.00492861
0.00103283
0.00453274
0.00022123
0.00392295
-0.000280763
0.00310375
-0.000547315
0.00217004
-0.000638676
0.00122292
-0.000586569
0.000352351
-0.000440055
-0.000356225
-0.000230628
-0.000826084
-7.38876e-05
-0.00107828
1.33839e-05
-0.00120686
4.98502e-05
-0.00126897
5.78862e-05
-0.00130332
4.83335e-05
-0.00133851
2.8011e-05
-0.00138642
-5.21674e-08
-0.00145016
-3.36793e-05
-0.00153002
-6.36525e-05
-0.00162423
-9.33757e-05
-0.00173129
-0.000124013
-0.00185002
-0.000154278
-0.00197877
-0.000182939
-0.00211523
-0.000207823
-0.00225599
-0.000223988
-0.00239791
-0.000223253
-0.00254072
-0.00019477
-0.00269033
-0.000126311
-0.00284894
-2.15918e-05
-0.00300803
0.000111678
-0.00314605
0.000295426
-0.00325884
0.000564806
-0.00334805
0.000936907
-0.0034041
0.00141935
-0.00340095
0.00200332
-0.00323602
0.00243131
-0.00166994
0.000848439
-0.00256146
0.000314321
0.00264184
0.00107858
0.00151654
0.00124435
0.000867062
0.00114518
0.000320395
0.000853621
1.07917e-05
0.000410382
-0.000104086
-0.000116895
-0.000111412
-0.000645834
-5.76412e-05
-0.00109676
1.0857e-05
-0.00139516
6.7766e-05
-0.00156065
9.15938e-05
-0.00163799
9.0714e-05
-0.00167039
8.22418e-05
-0.00168168
6.91651e-05
-0.00168793
5.45672e-05
-0.00169866
3.87349e-05
-0.00171944
2.07191e-05
-0.00175763
4.50438e-06
-0.00181002
-1.12711e-05
-0.00187809
-2.5324e-05
-0.00196531
-3.6799e-05
-0.00207512
-4.44753e-05
-0.00221071
-4.73603e-05
-0.00237354
-4.49973e-05
-0.00256029
-3.72502e-05
-0.00275953
-2.40272e-05
-0.00294905
-5.25432e-06
-0.00309752
2.2147e-05
-0.00317996
6.08397e-05
-0.00319814
0.000129848
-0.00313477
0.000232047
-0.00295358
0.000383613
-0.00262095
0.000604269
-0.00208554
0.00088393
-0.00117488
0.00109264
0.000337952
0.000918472
0.00139424
-0.000207862
-0.00110778
-0.00596674
-0.00725724
-0.00462823
-0.00312637
-0.00227648
-0.00197626
-0.00198816
-0.00211605
-0.00225228
-0.00233594
-0.00235248
-0.00231342
-0.00225168
-0.00219157
-0.00214034
-0.0021024
-0.00207919
-0.00207192
-0.00208279
-0.00210999
-0.00215304
-0.00221019
-0.00227889
-0.00235538
-0.002435
-0.00251265
-0.00258319
-0.00264133
-0.00268166
-0.00269546
-0.00267126
-0.00257849
-0.00238371
-0.00203727
-0.00146985
-0.000622325
0.000434323
0.00131651
0.00107134
)
;

boundaryField
{
    floor
    {
        type            calculated;
        value           nonuniform List<scalar> 
29
(
0
0
0
0
0
0
0
0
0
0
0
0
0
0
0
0
0
0
0
0
3.33294e-06
9.09838e-06
1.45141e-05
1.90125e-05
1.7566e-06
2.45866e-06
5.82135e-06
8.6731e-06
8.57886e-06
)
;
    }
    ceiling
    {
        type            calculated;
        value           nonuniform List<scalar> 
43
(
1.4024e-05
1.32164e-05
1.2825e-05
1.4661e-05
1.71634e-05
2.01591e-05
2.26803e-05
2.37897e-05
2.48101e-05
2.60098e-05
2.73869e-05
2.86938e-05
2.98403e-05
3.05955e-05
3.10043e-05
3.12181e-05
3.13463e-05
3.14558e-05
3.15768e-05
3.16939e-05
3.17677e-05
3.1821e-05
3.18881e-05
3.20104e-05
3.22448e-05
3.26516e-05
3.32746e-05
3.41095e-05
3.50641e-05
3.59353e-05
3.66327e-05
3.70735e-05
3.72511e-05
3.71657e-05
3.68473e-05
3.63926e-05
3.59873e-05
3.62762e-05
3.73038e-05
3.91243e-05
1.80988e-05
1.4754e-05
7.61422e-06
)
;
    }
    sWall
    {
        type            calculated;
        value           uniform -0.000112795;
    }
    nWall
    {
        type            calculated;
        value           nonuniform List<scalar> 6(-4.85659e-05 -4.93655e-05 -5.17523e-05 -5.60818e-05 -5.94414e-05 -7.55799e-05);
    }
    sideWalls
    {
        type            empty;
        value           nonuniform 0();
    }
    glass1
    {
        type            calculated;
        value           nonuniform List<scalar> 9(-2.26916e-05 -6.30292e-05 -9.86625e-05 -0.00013037 -0.000158412 -0.000182915 -0.000204853 -0.000229541 -0.000256263);
    }
    glass2
    {
        type            calculated;
        value           nonuniform List<scalar> 2(-0.000213039 -0.000231483);
    }
    sun
    {
        type            calculated;
        value           uniform 0;
    }
    heatsource1
    {
        type            calculated;
        value           nonuniform List<scalar> 3(2.05012e-07 2.05542e-07 2.05912e-07);
    }
    heatsource2
    {
        type            calculated;
        value           nonuniform List<scalar> 4(5.15112e-08 5.15909e-08 0 0);
    }
    Table_master
    {
        type            calculated;
        value           nonuniform List<scalar> 9(-1.54141e-07 -1.54257e-07 -1.54289e-07 -1.54307e-07 -1.54318e-07 -1.5432e-07 -1.54315e-07 -1.54298e-07 -1.54248e-07);
    }
    Table_slave
    {
        type            calculated;
        value           nonuniform List<scalar> 9(1.54066e-07 1.54064e-07 1.54016e-07 1.53972e-07 1.53937e-07 1.53918e-07 1.5392e-07 1.53933e-07 1.53989e-07);
    }
    inlet
    {
        type            calculated;
        value           uniform -0.00641041;
    }
    outlet
    {
        type            calculated;
        value           nonuniform List<scalar> 2(0.00606551 0.00127728);
    }
}


// ************************************************************************* //
