/*--------------------------------*- C++ -*----------------------------------*\
  =========                 |
  \\      /  F ield         | OpenFOAM: The Open Source CFD Toolbox
   \\    /   O peration     | Website:  https://openfoam.org
    \\  /    A nd           | Version:  6
     \\/     M anipulation  |
\*---------------------------------------------------------------------------*/
FoamFile
{
    version     2.0;
    format      ascii;
    class       volScalarField;
    location    "1200";
    object      nut;
}
// * * * * * * * * * * * * * * * * * * * * * * * * * * * * * * * * * * * * * //

dimensions      [0 2 -1 0 0 0 0];

internalField   nonuniform List<scalar> 
459
(
0.00171946
0.00245631
0.00234308
0.00222462
0.00211567
0.00201671
0.00191899
0.00181505
0.00169627
0.00154737
0.00132348
0.000685342
0.000461473
0.000374275
0.000350026
0.000428029
0.000539871
0.000510501
0.000480691
0.000453356
0.000418454
0.00038395
0.000350352
0.0003161
0.000280848
0.000246374
0.000217303
0.000197339
0.000187826
0.000185751
0.000212846
0.000309008
0.000392653
0.000342204
0.00277689
0.00326863
0.003341
0.00325475
0.00315634
0.00305558
0.00294667
0.00282348
0.00266127
0.0023958
0.00194253
0.00123019
0.00132642
0.0012111
0.00104404
0.000395802
0.000332534
0.000495418
0.00160359
0.00163225
0.00144323
0.00117275
0.000994446
0.000755674
0.000641965
0.000543409
0.000468306
0.000424824
0.000407175
0.000406872
0.000413725
0.000398157
0.000358213
0.00064733
0.000943957
0.000442598
0.00309827
0.00391227
0.00369951
0.00344008
0.00333569
0.0032716
0.00322232
0.00315658
0.00301784
0.00271518
0.0021992
0.00170731
0.00181022
0.00138622
0.00103297
0.000785214
0.000351974
0.000681114
0.00208569
0.00177947
0.00135812
0.00100339
0.000729206
0.00033405
0.000292486
0.000270247
0.000246677
0.000231663
0.000221772
0.000214329
0.000208322
0.000222561
0.000556177
0.00104742
0.00108095
0.000494348
0.00327228
0.00446559
0.0036695
0.00316198
0.00310275
0.0031764
0.00324816
0.00324875
0.00311333
0.00275899
0.00232053
0.00229972
0.00215383
0.00139772
0.00090108
0.000685838
0.000632251
0.000743483
0.00161556
0.00167855
0.00139507
0.00113549
0.00095853
0.000789409
0.000648059
0.000673457
0.000705776
0.000743459
0.00078562
0.000836146
0.000868629
0.000873328
0.00084562
0.000899865
0.00101463
0.00128218
0.000729547
0.00341357
0.00467486
0.00310059
0.00279428
0.00295552
0.00309646
0.00321165
0.00319355
0.00301884
0.00271129
0.00249277
0.00266557
0.00246367
0.002067
0.00170194
0.0014914
0.00140018
0.00152036
0.00189738
0.0021167
0.00217538
0.00223506
0.0022826
0.00232834
0.00238693
0.00249427
0.00263364
0.00279347
0.00295409
0.00309951
0.00317654
0.00313408
0.00298856
0.00272215
0.00221694
0.00183248
0.00132569
0.000725572
0.000682047
0.000819168
0.00355557
0.00446642
0.00230448
0.00326106
0.00308641
0.00305866
0.00310142
0.0030513
0.00289572
0.00270843
0.0026598
0.0028609
0.00299348
0.00309647
0.00300005
0.00285622
0.00272784
0.00273129
0.00288176
0.00296933
0.0030109
0.00304872
0.00305628
0.00304993
0.00303974
0.00305864
0.0031231
0.00322635
0.00334316
0.00344164
0.00349684
0.00347883
0.0033988
0.00325195
0.00286421
0.00239769
0.00191576
0.00137442
0.00147522
0.000882566
0.0037266
0.00396785
0.00182603
0.00294458
0.00303692
0.00299323
0.00299361
0.00294111
0.00284299
0.00277738
0.00283628
0.00320576
0.00376035
0.00407952
0.00418814
0.0042085
0.00415594
0.00409148
0.00405518
0.00401597
0.00397989
0.00394191
0.00386136
0.00374486
0.00360962
0.00349987
0.0034556
0.00348629
0.00356275
0.00363113
0.00365186
0.00362647
0.0035908
0.00357969
0.00350727
0.00312403
0.00273048
0.00239817
0.00210211
0.00112624
0.00396869
0.00393467
0.0022967
0.00216256
0.00300871
0.00301197
0.00299316
0.0029514
0.00291266
0.00294822
0.00313037
0.00382214
0.00450193
0.00482385
0.00501759
0.00512778
0.00514335
0.00509178
0.00501305
0.0049307
0.00485948
0.00479349
0.00469911
0.00453192
0.00432071
0.0041052
0.00394205
0.00388243
0.00391488
0.0039556
0.00393369
0.00384718
0.00376938
0.00380268
0.00402615
0.00430801
0.00451701
0.00445075
0.00413945
0.00131209
0.0043963
0.00505397
0.00536658
0.00185662
0.00276913
0.0033377
0.00324622
0.00317816
0.00317266
0.00329916
0.00367036
0.00446073
0.00490459
0.00513735
0.00532453
0.00546301
0.00552165
0.00550796
0.00544585
0.00536354
0.00528331
0.00521321
0.00514116
0.00504129
0.00488971
0.00470258
0.00450165
0.0043705
0.00437951
0.00442702
0.00438016
0.00416086
0.00379882
0.00337476
0.00298511
0.00269011
0.00243605
0.0021934
0.00196685
0.00136375
0.00945149
0.00414074
0.00256454
0.00392489
0.00383552
0.00369582
0.00368749
0.00388011
0.00434062
0.00477903
0.00498364
0.00508835
0.00519437
0.00529236
0.00536263
0.0053892
0.00536507
0.005308
0.00523501
0.00515938
0.00508465
0.00500422
0.00490936
0.00479285
0.00467615
0.00461417
0.00467431
0.00487708
0.00513755
0.00531551
0.00540637
0.0054153
0.0052544
0.00488201
0.00453602
0.00438763
0.00418353
0.00140765
0.00471877
0.00261526
0.00405542
0.00405129
0.00391085
0.00375987
0.00369372
0.00370074
0.00380808
0.00404643
0.00429728
0.00448154
0.00459844
0.00466821
0.00470679
0.00472323
0.00472203
0.00470049
0.00466129
0.00461538
0.00457401
0.00454103
0.00451839
0.00451136
0.00452965
0.00459071
0.00471119
0.00489893
0.00511745
0.00533061
0.00549749
0.00552509
0.00533203
0.00496745
0.00453127
0.00400828
0.00378952
0.00133622
0.00186308
0.00252662
0.0035628
0.0015406
0.0012366
0.00122529
0.00124006
0.00123552
0.00119763
0.00113282
0.00106979
0.0010229
0.000994955
0.000985986
0.000986032
0.000988863
0.000991312
0.000992107
0.000990859
0.000987794
0.000983873
0.000980027
0.000976816
0.000975113
0.000975727
0.000979812
0.000988655
0.0010041
0.00102774
0.00105809
0.00109001
0.00112037
0.00115358
0.00120151
0.00126391
0.00130355
0.00127039
0.00119678
0.00115164
0.00103807
)
;

boundaryField
{
    floor
    {
        type            nutkWallFunction;
        Cmu             0.09;
        kappa           0.41;
        E               9.8;
        value           nonuniform List<scalar> 
29
(
4.01095e-05
5.04245e-05
6.47909e-05
6.10571e-05
5.72488e-05
5.37278e-05
4.91887e-05
4.46527e-05
4.01853e-05
3.5573e-05
3.07573e-05
2.59705e-05
2.18643e-05
1.90011e-05
1.76216e-05
1.73166e-05
2.1206e-05
3.45727e-05
4.5804e-05
3.90774e-05
3.90773e-05
5.23193e-05
5.9e-05
8.83439e-05
4.01095e-05
5.04245e-05
5.91269e-05
8.24079e-05
9.00449e-05
)
;
    }
    ceiling
    {
        type            nutkWallFunction;
        Cmu             0.09;
        kappa           0.41;
        E               9.8;
        value           nonuniform List<scalar> 
43
(
0.000218587
0.000290286
0.000398456
0.000182835
0.000148259
0.000146957
0.000148643
0.000148108
0.000143732
0.000136223
0.000128889
0.000123404
0.000120124
0.000119072
0.000119079
0.000119415
0.000119705
0.000119801
0.000119655
0.000119295
0.000118834
0.000118381
0.000118003
0.000117802
0.000117874
0.000118356
0.000119398
0.000121216
0.000123988
0.000127535
0.000131245
0.000134758
0.000138587
0.000144107
0.000151275
0.000155815
0.000152029
0.000143574
0.000138363
0.000125152
0.000483127
0.000548783
0.000515453
)
;
    }
    sWall
    {
        type            nutkWallFunction;
        Cmu             0.09;
        kappa           0.41;
        E               9.8;
        value           uniform 0.000218638;
    }
    nWall
    {
        type            nutkWallFunction;
        Cmu             0.09;
        kappa           0.41;
        E               9.8;
        value           nonuniform List<scalar> 6(9.9208e-05 0.000106814 0.0001355 0.000167685 0.000159585 0.000125159);
    }
    sideWalls
    {
        type            empty;
    }
    glass1
    {
        type            nutkWallFunction;
        Cmu             0.09;
        kappa           0.41;
        E               9.8;
        value           nonuniform List<scalar> 9(0.000202957 0.000317134 0.000350844 0.00036894 0.000383559 0.000398188 0.000415729 0.000440419 0.000483667);
    }
    glass2
    {
        type            nutkWallFunction;
        Cmu             0.09;
        kappa           0.41;
        E               9.8;
        value           nonuniform List<scalar> 2(0.000156972 0.000162798);
    }
    sun
    {
        type            nutkWallFunction;
        Cmu             0.09;
        kappa           0.41;
        E               9.8;
        value           nonuniform List<scalar> 
14
(
0.000202746
0.000282763
0.000270645
0.000257901
0.000246116
0.000235356
0.000224674
0.000213246
0.000200098
0.000183469
0.000158098
8.26021e-05
5.47496e-05
4.33494e-05
)
;
    }
    heatsource1
    {
        type            nutkWallFunction;
        Cmu             0.09;
        kappa           0.41;
        E               9.8;
        value           nonuniform List<scalar> 3(8.784e-05 8.25239e-05 9.92069e-05);
    }
    heatsource2
    {
        type            nutkWallFunction;
        Cmu             0.09;
        kappa           0.41;
        E               9.8;
        value           nonuniform List<scalar> 4(4.62131e-05 3.78011e-05 3.7801e-05 4.04055e-05);
    }
    Table_master
    {
        type            nutkWallFunction;
        Cmu             0.09;
        kappa           0.41;
        E               9.8;
        value           nonuniform List<scalar> 9(3.80038e-05 3.2368e-05 2.93081e-05 2.60271e-05 2.39148e-05 2.2514e-05 2.14545e-05 2.05953e-05 2.26184e-05);
    }
    Table_slave
    {
        type            nutkWallFunction;
        Cmu             0.09;
        kappa           0.41;
        E               9.8;
        value           nonuniform List<scalar> 9(7.83158e-05 8.14491e-05 8.54164e-05 9.00151e-05 9.51279e-05 0.000101216 0.000105101 0.00010566 0.000102341);
    }
    inlet
    {
        type            calculated;
        value           uniform 3.3541e-05;
    }
    outlet
    {
        type            calculated;
        value           nonuniform List<scalar> 2(0.00186308 0.00252662);
    }
}


// ************************************************************************* //
