/*--------------------------------*- C++ -*----------------------------------*\
  =========                 |
  \\      /  F ield         | OpenFOAM: The Open Source CFD Toolbox
   \\    /   O peration     | Website:  https://openfoam.org
    \\  /    A nd           | Version:  6
     \\/     M anipulation  |
\*---------------------------------------------------------------------------*/
FoamFile
{
    version     2.0;
    format      ascii;
    class       volScalarField;
    location    "1300";
    object      nut;
}
// * * * * * * * * * * * * * * * * * * * * * * * * * * * * * * * * * * * * * //

dimensions      [0 2 -1 0 0 0 0];

internalField   nonuniform List<scalar> 
459
(
0.00238474
0.00232554
0.00226236
0.00220573
0.00215743
0.00211489
0.00207632
0.00203969
0.00200296
0.0019644
0.00192208
0.00187336
0.00181381
0.00173383
0.00162636
0.000288995
0.000336762
0.000288111
0.000234512
0.00020923
0.00019261
0.000185177
0.000180549
0.000166309
0.000164692
0.000166362
0.00017055
0.000183533
0.000210542
0.000248261
0.000285433
0.000303205
0.000302499
0.000270603
0.0026369
0.00292878
0.00297781
0.0029155
0.00288716
0.0028959
0.00292415
0.00294334
0.00293177
0.0028878
0.0028105
0.00269676
0.00253516
0.0022895
0.00195028
0.0015517
0.00137445
0.000346914
0.00113189
0.00100529
0.00102039
0.000950726
0.000804778
0.000589541
0.000339692
0.000227227
0.000204667
0.00022836
0.000281597
0.000399115
0.000611124
0.000894301
0.00130207
0.00125492
0.00111157
0.000357126
0.00278508
0.00321097
0.00296171
0.00270754
0.00266161
0.00273075
0.00284662
0.00296096
0.00304982
0.00309415
0.00308058
0.00300023
0.00284464
0.00259209
0.00226644
0.00196134
0.00138305
0.00055848
0.000975095
0.00111272
0.00127535
0.00123483
0.000948635
0.000354345
0.000292249
0.000243389
0.00022476
0.000265566
0.000308026
0.000357463
0.000419263
0.000500591
0.00138498
0.00121603
0.000891765
0.000444156
0.00289665
0.00341964
0.00259462
0.00222303
0.0024175
0.00278634
0.00314972
0.00337063
0.0034502
0.00342739
0.0033407
0.00320696
0.00302239
0.00276124
0.00244475
0.00215058
0.00167983
0.00107948
0.00194429
0.00175533
0.00171248
0.00144931
0.00109264
0.000759378
0.000527583
0.000545323
0.00056101
0.000575561
0.000591623
0.000612144
0.000640512
0.000681632
0.00074893
0.00228465
0.00246958
0.00220518
0.000760585
0.00299867
0.00346299
0.00199929
0.00205605
0.00322724
0.00413524
0.00467075
0.00483164
0.00444919
0.00399034
0.00362043
0.00334005
0.0030926
0.00280923
0.00249532
0.00221343
0.00184546
0.00154243
0.00214498
0.00268971
0.00277491
0.00274152
0.00273284
0.00276021
0.00280549
0.00284167
0.00285089
0.00284015
0.00282204
0.00281493
0.00283693
0.00289902
0.00300587
0.00317669
0.00321801
0.00312116
0.00265869
0.00113789
0.00100147
0.000870478
0.00310763
0.00334384
0.00152653
0.00274746
0.00445071
0.0049869
0.00519145
0.00515498
0.00463754
0.0040537
0.00361025
0.00329212
0.0030249
0.00273978
0.00245064
0.00220291
0.00197849
0.00196431
0.00276513
0.00347249
0.00366087
0.00374388
0.00383709
0.00392783
0.00399238
0.00401801
0.00400176
0.00393876
0.00383478
0.00371332
0.00360852
0.00354305
0.00351342
0.00349491
0.00345476
0.00336027
0.0031126
0.00256429
0.00193895
0.000929228
0.00324098
0.00313627
0.00152887
0.00246223
0.00416425
0.00445185
0.00443708
0.00432126
0.00406419
0.00371133
0.00338559
0.00311549
0.00287211
0.00262208
0.00238453
0.00220757
0.0021349
0.00241303
0.0033488
0.00398032
0.00418356
0.00433073
0.00446875
0.00458645
0.00468258
0.00475927
0.00480675
0.00480232
0.00471915
0.00454923
0.00432525
0.00409859
0.00389574
0.00370923
0.00350809
0.00324646
0.00286823
0.00236873
0.00182253
0.000925606
0.00343209
0.00327733
0.00197553
0.00169416
0.00322406
0.00357223
0.0035535
0.00351054
0.0034323
0.00327981
0.00309438
0.00290778
0.00272176
0.00253121
0.00235942
0.00226684
0.00233569
0.00290236
0.00385812
0.0043428
0.00457197
0.00475362
0.00489753
0.00501175
0.00511523
0.0052273
0.00535844
0.00550024
0.00561401
0.00563471
0.00552033
0.00529094
0.00497377
0.00459691
0.00417564
0.00372793
0.00326715
0.00281675
0.00246018
0.00136106
0.00375635
0.00425222
0.00352947
0.00181991
0.00244763
0.00301896
0.00306329
0.00305611
0.00303063
0.00297998
0.00289579
0.0027923
0.00267556
0.00254911
0.00243553
0.00240519
0.00257956
0.00338325
0.0042567
0.00473241
0.00501623
0.0052015
0.00531141
0.00536982
0.00540887
0.00546158
0.0055594
0.0057282
0.00597598
0.0062667
0.00648263
0.00659689
0.00661399
0.00659836
0.00661868
0.00655773
0.00608063
0.00512373
0.00491698
0.00157997
0.0056237
0.00251826
0.0026537
0.00292489
0.00299097
0.00302403
0.00302799
0.0030057
0.00297412
0.00293138
0.00287306
0.00279579
0.00271362
0.00270353
0.00293538
0.00382029
0.00457929
0.0051633
0.00548365
0.00567676
0.0057638
0.00577387
0.00574462
0.00571317
0.00571288
0.00577345
0.00591824
0.00614994
0.00641256
0.00666821
0.00688537
0.00703736
0.00709848
0.00695571
0.00647988
0.00569078
0.00475775
0.00159402
0.00260876
0.00257657
0.00314388
0.00297154
0.00291858
0.00289619
0.00287932
0.00283664
0.00283682
0.00285691
0.00287628
0.00287347
0.0028359
0.00282287
0.00293895
0.00334126
0.00403285
0.00477608
0.00535304
0.00570785
0.00586571
0.00588924
0.00584354
0.00577973
0.00573135
0.00571705
0.00574462
0.00581187
0.00589113
0.00594737
0.00599631
0.00604651
0.00604535
0.00586015
0.00547542
0.00484196
0.00445703
0.00155895
0.00148064
0.00144373
0.00156218
0.00115608
0.0011815
0.00118979
0.00120371
0.00121664
0.00122938
0.00124322
0.0012559
0.00126852
0.00128056
0.00129028
0.00129398
0.00128074
0.00123976
0.00120103
0.00118497
0.00118837
0.00121866
0.00125947
0.00129644
0.00132215
0.00133551
0.00133898
0.00133617
0.0013304
0.00132404
0.00131842
0.00131579
0.00131632
0.00131367
0.00130294
0.00128324
0.00126349
0.00123744
0.00119963
0.00120974
0.00111453
)
;

boundaryField
{
    floor
    {
        type            nutkWallFunction;
        Cmu             0.09;
        kappa           0.41;
        E               9.8;
        value           nonuniform List<scalar> 
29
(
0.000192404
3.18534e-05
3.83408e-05
3.17391e-05
2.42877e-05
2.06925e-05
1.82972e-05
1.72164e-05
1.6543e-05
1.44474e-05
1.42072e-05
1.44572e-05
1.50756e-05
1.69779e-05
2.08778e-05
2.62132e-05
3.13652e-05
3.3796e-05
3.37011e-05
2.9323e-05
2.93229e-05
4.10671e-05
5.25001e-05
9.21172e-05
0.000192405
3.18533e-05
3.96995e-05
6.71317e-05
0.000130068
)
;
    }
    ceiling
    {
        type            nutkWallFunction;
        Cmu             0.09;
        kappa           0.41;
        E               9.8;
        value           nonuniform List<scalar> 
43
(
0.000176116
0.000171979
0.000185365
0.00013898
0.000141919
0.000142878
0.000144485
0.000145975
0.000147442
0.000149034
0.00015049
0.000151937
0.000153316
0.000154428
0.000154851
0.000153332
0.000148626
0.000144165
0.000142309
0.0001427
0.000146192
0.00015088
0.000155113
0.000158048
0.000159571
0.000159966
0.000159645
0.000158986
0.000158261
0.000157618
0.000157318
0.000157379
0.000157075
0.000155849
0.000153595
0.000151331
0.000148341
0.000143986
0.000145152
0.000134134
0.000418038
0.000468371
0.000298826
)
;
    }
    sWall
    {
        type            nutkWallFunction;
        Cmu             0.09;
        kappa           0.41;
        E               9.8;
        value           uniform 0.000176153;
    }
    nWall
    {
        type            nutkWallFunction;
        Cmu             0.09;
        kappa           0.41;
        E               9.8;
        value           nonuniform List<scalar> 6(0.000105372 0.000112377 0.000111945 0.000188737 0.000184813 0.000134141);
    }
    sideWalls
    {
        type            empty;
    }
    glass1
    {
        type            nutkWallFunction;
        Cmu             0.09;
        kappa           0.41;
        E               9.8;
        value           nonuniform List<scalar> 9(0.000275647 0.000302455 0.000318021 0.000329662 0.000340272 0.000351586 0.000365413 0.000385169 0.000418468);
    }
    glass2
    {
        type            nutkWallFunction;
        Cmu             0.09;
        kappa           0.41;
        E               9.8;
        value           nonuniform List<scalar> 2(0.000162506 0.000187205);
    }
    sun
    {
        type            nutkWallFunction;
        Cmu             0.09;
        kappa           0.41;
        E               9.8;
        value           nonuniform List<scalar> 
14
(
0.000275365
0.000268991
0.000262187
0.000256067
0.000250828
0.000246201
0.000241995
0.000237995
0.000233978
0.000229755
0.000225113
0.00021976
0.0002132
0.000204355
)
;
    }
    heatsource1
    {
        type            nutkWallFunction;
        Cmu             0.09;
        kappa           0.41;
        E               9.8;
        value           nonuniform List<scalar> 3(0.000136849 0.000120911 0.00010537);
    }
    heatsource2
    {
        type            nutkWallFunction;
        Cmu             0.09;
        kappa           0.41;
        E               9.8;
        value           nonuniform List<scalar> 4(0.000184055 0.000164044 0.000164044 0.000165021);
    }
    Table_master
    {
        type            nutkWallFunction;
        Cmu             0.09;
        kappa           0.41;
        E               9.8;
        value           nonuniform List<scalar> 9(4.07049e-05 3.23143e-05 2.5547e-05 2.29109e-05 2.8629e-05 3.44569e-05 4.11116e-05 4.92674e-05 5.97745e-05);
    }
    Table_slave
    {
        type            nutkWallFunction;
        Cmu             0.09;
        kappa           0.41;
        E               9.8;
        value           nonuniform List<scalar> 9(6.32134e-05 6.54615e-05 6.74416e-05 6.92724e-05 7.12868e-05 7.38509e-05 7.73789e-05 8.24599e-05 9.06984e-05);
    }
    inlet
    {
        type            calculated;
        value           uniform 0.0056237;
    }
    outlet
    {
        type            calculated;
        value           nonuniform List<scalar> 2(0.00148064 0.00144373);
    }
}


// ************************************************************************* //
