/*--------------------------------*- C++ -*----------------------------------*\
  =========                 |
  \\      /  F ield         | OpenFOAM: The Open Source CFD Toolbox
   \\    /   O peration     | Website:  https://openfoam.org
    \\  /    A nd           | Version:  6
     \\/     M anipulation  |
\*---------------------------------------------------------------------------*/
FoamFile
{
    version     2.0;
    format      ascii;
    class       volScalarField;
    location    "100";
    object      nut;
}
// * * * * * * * * * * * * * * * * * * * * * * * * * * * * * * * * * * * * * //

dimensions      [0 2 -1 0 0 0 0];

internalField   nonuniform List<scalar> 
459
(
0.00144668
0.00162663
0.00176566
0.0017729
0.00152166
0.0012912
0.00111842
0.00101023
0.00094228
0.000893534
0.00085174
0.000812056
0.000773765
0.000735956
0.000695449
0.000543938
0.000678098
0.00057695
0.000508861
0.000465404
0.000422034
0.000379173
0.000342095
0.000315973
0.000298172
0.000284964
0.000274354
0.000263856
0.000253195
0.000252031
0.000310993
0.000526565
0.000594742
0.000499536
0.00169424
0.00389056
0.00502595
0.00698144
0.00763063
0.00687724
0.00580009
0.0048057
0.00418708
0.00392804
0.00381912
0.00364573
0.00326745
0.00265229
0.00177386
0.000701079
0.000525423
0.000629658
0.00204126
0.00175457
0.00146299
0.00118722
0.00096584
0.00068846
0.000671141
0.000657719
0.000647112
0.00062784
0.000600752
0.000577769
0.000550221
0.000535801
0.000751815
0.00126332
0.00146712
0.000591629
0.00172691
0.00246763
0.0031484
0.00457777
0.00616953
0.00708865
0.00727976
0.00692332
0.00610085
0.00523061
0.00488505
0.00474331
0.00430215
0.00347225
0.00242863
0.00144452
0.000715947
0.000838095
0.00231748
0.00181961
0.00136562
0.00103485
0.00078619
0.000360666
0.000308528
0.000286803
0.000269121
0.000254906
0.000245126
0.000244415
0.000270767
0.000376487
0.00110018
0.00165049
0.00142237
0.000691448
0.0028968
0.00339351
0.00346047
0.00356823
0.00418921
0.00521397
0.00622135
0.00687418
0.00701242
0.00658212
0.00587822
0.00565326
0.00534619
0.00450872
0.00330437
0.00207864
0.00122615
0.00090911
0.00165926
0.00174943
0.00144004
0.00118706
0.00103105
0.000875022
0.000743144
0.000770744
0.00080653
0.000850413
0.000903408
0.000972962
0.0010282
0.00104083
0.00101939
0.0011798
0.00139441
0.00174962
0.000945913
0.0035187
0.00430697
0.00415589
0.00391917
0.00398294
0.0045651
0.00549673
0.00642256
0.00704192
0.00718593
0.00683948
0.00661412
0.00665158
0.00633435
0.00566761
0.00482708
0.00395719
0.00320149
0.00265711
0.0026431
0.00261402
0.00261201
0.00258373
0.00255811
0.00255992
0.0026264
0.00274614
0.00291489
0.0031273
0.0033845
0.00363499
0.00369801
0.00360279
0.00338447
0.00293103
0.00248238
0.00180706
0.000941863
0.000826889
0.000964317
0.00373833
0.0050765
0.0046549
0.00414885
0.00403234
0.00441408
0.00523193
0.00619042
0.0069572
0.0073064
0.00721136
0.00725637
0.00752619
0.00762828
0.0074208
0.00701551
0.00645486
0.00577951
0.00507402
0.00453248
0.00415579
0.00388367
0.00363914
0.003422
0.00323957
0.00312103
0.0030849
0.00313145
0.00325898
0.00347408
0.00374685
0.00392397
0.00393403
0.00386008
0.00361574
0.00317672
0.0025857
0.00180629
0.00180711
0.00104245
0.00394044
0.00524836
0.00449383
0.00393307
0.00404111
0.00445302
0.00524165
0.00617192
0.0069388
0.00731434
0.00728794
0.00731184
0.00775123
0.00815015
0.0082628
0.00815362
0.00786353
0.00741052
0.00684363
0.00624359
0.00570097
0.00520747
0.00474978
0.0043115
0.00389333
0.00353334
0.00327596
0.00314012
0.00313943
0.00330417
0.00360424
0.00386332
0.00394739
0.00403869
0.00414355
0.0038816
0.0034131
0.00288953
0.00247213
0.00128889
0.00419383
0.00499942
0.00449962
0.00402548
0.00442727
0.00481515
0.00547865
0.00631813
0.00703613
0.007349
0.00729331
0.00719589
0.00741607
0.00793773
0.00830585
0.00841511
0.00833143
0.00807369
0.00767215
0.00718552
0.00668004
0.00618683
0.00570655
0.00522427
0.0047274
0.00422808
0.00376681
0.00338546
0.00315654
0.00319182
0.00353434
0.00390081
0.00401344
0.00413986
0.00453328
0.00501138
0.00506694
0.00484661
0.00492212
0.00153229
0.00458644
0.00532152
0.0068243
0.00445824
0.00503423
0.00565979
0.00605549
0.00667153
0.00724364
0.00749223
0.00735905
0.00713938
0.00708953
0.007294
0.00762111
0.00783606
0.00789322
0.00779208
0.00755093
0.00720997
0.00682106
0.00642397
0.00603553
0.00565692
0.00528384
0.00490647
0.00448831
0.00393357
0.0033752
0.00305937
0.00338721
0.00394328
0.00394333
0.00352334
0.00315543
0.00290614
0.0026996
0.00243703
0.00220449
0.00147247
0.010029
0.00541836
0.00523988
0.00659919
0.00683835
0.00719713
0.00755025
0.00765576
0.007375
0.00699975
0.0066993
0.00655295
0.00655725
0.00660092
0.00662561
0.00658974
0.00647419
0.00628542
0.00604797
0.00579
0.00553386
0.00529691
0.00509586
0.00494116
0.00480231
0.0045535
0.00391335
0.00284135
0.00282411
0.00387668
0.00478077
0.00467695
0.00435397
0.00389072
0.00338541
0.00290876
0.00246637
0.001335
0.00393415
0.00359522
0.0058498
0.00648163
0.00676874
0.00699085
0.00710389
0.00693618
0.00645618
0.0059385
0.00547846
0.00512214
0.00487325
0.00469385
0.00457574
0.00450689
0.00445924
0.00440753
0.00433948
0.00425556
0.00416429
0.00408047
0.00402602
0.00402351
0.00405651
0.00397755
0.00352789
0.00249103
0.00178052
0.00261918
0.00428686
0.00432388
0.0043321
0.00431392
0.00408525
0.00379686
0.00302022
0.00136736
0.00197136
0.00228299
0.00258498
0.00165609
0.00172309
0.00182928
0.00188852
0.00189521
0.00184677
0.00171273
0.00159399
0.00148468
0.00138653
0.00129983
0.00122398
0.00116076
0.00110856
0.00106548
0.00102994
0.00100038
0.00097531
0.000953575
0.000934481
0.000917901
0.000904373
0.000894857
0.000889133
0.000883697
0.00086169
0.000822555
0.000794351
0.000900102
0.00113262
0.00128019
0.00138977
0.00148281
0.00151779
0.00146571
0.00136809
0.00125245
)
;

boundaryField
{
    floor
    {
        type            nutkWallFunction;
        Cmu             0.09;
        kappa           0.41;
        E               9.8;
        value           nonuniform List<scalar> 
29
(
8.41872e-05
6.53168e-05
8.20601e-05
6.94829e-05
6.08832e-05
5.53196e-05
4.96945e-05
4.40646e-05
3.9129e-05
3.56047e-05
3.31805e-05
3.13688e-05
2.9906e-05
2.84521e-05
2.69683e-05
2.67967e-05
3.48585e-05
6.30669e-05
7.17192e-05
5.96652e-05
5.96652e-05
7.13285e-05
8.37021e-05
0.000114332
8.41872e-05
6.53167e-05
7.60663e-05
0.000101488
0.000109981
)
;
    }
    ceiling
    {
        type            nutkWallFunction;
        Cmu             0.09;
        kappa           0.41;
        E               9.8;
        value           nonuniform List<scalar> 
43
(
0.000230276
0.000263998
0.000296215
0.000195594
0.000203035
0.000214755
0.000221264
0.000221998
0.000216688
0.000201888
0.000188676
0.000176417
0.000165326
0.000155457
0.000146764
0.000139472
0.000133418
0.000128398
0.00012424
0.000120769
0.000117816
0.000115248
0.000112986
0.000111018
0.00010941
0.000108276
0.000107593
0.000106936
0.00010429
9.95854e-05
9.62103e-05
0.000109034
0.000136293
0.000153179
0.00016566
0.000176166
0.0001801
0.000174245
0.000163203
0.000150012
0.000501926
0.000574902
0.000436034
)
;
    }
    sWall
    {
        type            nutkWallFunction;
        Cmu             0.09;
        kappa           0.41;
        E               9.8;
        value           uniform 0.000230334;
    }
    nWall
    {
        type            nutkWallFunction;
        Cmu             0.09;
        kappa           0.41;
        E               9.8;
        value           nonuniform List<scalar> 6(0.000116521 0.000125721 0.000154211 0.000159448 0.000163126 0.000150024);
    }
    sideWalls
    {
        type            empty;
    }
    glass1
    {
        type            nutkWallFunction;
        Cmu             0.09;
        kappa           0.41;
        E               9.8;
        value           nonuniform List<scalar> 9(0.000172349 0.000200179 0.000203774 0.00032951 0.000394272 0.000416802 0.000437406 0.000463085 0.000502567);
    }
    glass2
    {
        type            nutkWallFunction;
        Cmu             0.09;
        kappa           0.41;
        E               9.8;
        value           nonuniform List<scalar> 2(0.000181906 0.000175144);
    }
    sun
    {
        type            nutkWallFunction;
        Cmu             0.09;
        kappa           0.41;
        E               9.8;
        value           nonuniform List<scalar> 
14
(
0.000172131
0.000192299
0.000207695
0.000208467
0.000180507
0.000154446
0.000134565
0.000121948
0.000113935
0.000108143
0.000103145
9.83725e-05
9.3742e-05
8.9144e-05
)
;
    }
    heatsource1
    {
        type            nutkWallFunction;
        Cmu             0.09;
        kappa           0.41;
        E               9.8;
        value           nonuniform List<scalar> 3(0.000113839 0.000100122 0.000116513);
    }
    heatsource2
    {
        type            nutkWallFunction;
        Cmu             0.09;
        kappa           0.41;
        E               9.8;
        value           nonuniform List<scalar> 4(8.4879e-05 6.29824e-05 6.29824e-05 8.66976e-05);
    }
    Table_master
    {
        type            nutkWallFunction;
        Cmu             0.09;
        kappa           0.41;
        E               9.8;
        value           nonuniform List<scalar> 9(4.16113e-05 3.46073e-05 3.16439e-05 2.92087e-05 2.72338e-05 2.58656e-05 2.57593e-05 2.94059e-05 4.36373e-05);
    }
    Table_slave
    {
        type            nutkWallFunction;
        Cmu             0.09;
        kappa           0.41;
        E               9.8;
        value           nonuniform List<scalar> 9(9.00083e-05 9.33599e-05 9.76849e-05 0.000102958 0.000109284 0.000117527 0.000123992 0.000125456 0.000122933);
    }
    inlet
    {
        type            calculated;
        value           uniform 3.3541e-05;
    }
    outlet
    {
        type            calculated;
        value           nonuniform List<scalar> 2(0.00197136 0.00228299);
    }
}


// ************************************************************************* //
