// -*- C++ -*-
// File generated by PyFoam - sorry for the ugliness

FoamFile
{
 version 2.0;
 format ascii;
 class volScalarField;
 location "400";
 object T;
}

dimensions [ 0 0 0 1 0 0 0 ];

internalField nonuniform List<scalar> 459
(
  306.498
  306.284
  306.279
  306.281
  306.283
  306.285
  306.285
  306.285
  306.285
  306.283
  306.279
  306.271
  306.26
  306.246
  306.228
  305.409
  305.377
  305.351
  305.344
  305.359
  305.383
  305.408
  305.423
  305.433
  305.44
  305.444
  305.444
  305.453
  305.48
  305.541
  305.634
  305.692
  305.728
  305.756
  306.666
  306.349
  306.333
  306.342
  306.351
  306.358
  306.364
  306.367
  306.368
  306.365
  306.357
  306.342
  306.317
  306.283
  306.238
  306.196
  306.113
  305.505
  305.527
  305.537
  305.552
  305.565
  305.574
  305.578
  305.587
  305.602
  305.625
  305.656
  305.691
  305.729
  305.776
  305.836
  305.898
  305.905
  305.898
  305.905
  306.823
  306.409
  306.378
  306.392
  306.409
  306.425
  306.438
  306.448
  306.453
  306.454
  306.446
  306.427
  306.394
  306.344
  306.278
  306.201
  306.136
  305.732
  305.749
  305.777
  305.799
  305.807
  305.794
  305.751
  305.776
  305.803
  305.833
  305.863
  305.898
  305.938
  305.984
  306.039
  306.085
  306.084
  306.076
  306.046
  306.968
  306.475
  306.419
  306.435
  306.46
  306.484
  306.507
  306.527
  306.541
  306.548
  306.545
  306.528
  306.493
  306.438
  306.36
  306.259
  306.137
  306.024
  305.951
  306.015
  306.067
  306.106
  306.129
  306.143
  306.153
  306.154
  306.155
  306.156
  306.159
  306.162
  306.166
  306.17
  306.172
  306.17
  306.175
  306.176
  306.169
  307.101
  306.549
  306.464
  306.471
  306.5
  306.531
  306.563
  306.592
  306.617
  306.634
  306.638
  306.628
  306.602
  306.556
  306.494
  306.418
  306.338
  306.267
  306.213
  306.199
  306.202
  306.206
  306.206
  306.203
  306.198
  306.194
  306.191
  306.189
  306.19
  306.192
  306.195
  306.2
  306.206
  306.212
  306.22
  306.227
  306.234
  306.243
  306.236
  306.228
  307.216
  306.637
  306.534
  306.514
  306.533
  306.565
  306.6
  306.635
  306.669
  306.694
  306.708
  306.706
  306.689
  306.656
  306.606
  306.544
  306.478
  306.415
  306.364
  306.329
  306.305
  306.288
  306.274
  306.261
  306.249
  306.239
  306.231
  306.225
  306.221
  306.219
  306.219
  306.222
  306.227
  306.234
  306.242
  306.25
  306.257
  306.26
  306.255
  306.226
  307.315
  306.769
  306.676
  306.621
  306.599
  306.609
  306.635
  306.668
  306.704
  306.733
  306.75
  306.754
  306.745
  306.724
  306.689
  306.642
  306.589
  306.535
  306.484
  306.441
  306.406
  306.377
  306.353
  306.332
  306.314
  306.298
  306.284
  306.272
  306.262
  306.255
  306.249
  306.246
  306.247
  306.25
  306.256
  306.264
  306.271
  306.277
  306.28
  306.277
  307.471
  307.054
  306.96
  306.869
  306.789
  306.748
  306.737
  306.742
  306.758
  306.774
  306.782
  306.781
  306.772
  306.755
  306.732
  306.702
  306.665
  306.624
  306.581
  306.54
  306.502
  306.469
  306.439
  306.413
  306.39
  306.369
  306.351
  306.333
  306.318
  306.304
  306.291
  306.281
  306.274
  306.27
  306.27
  306.274
  306.281
  306.29
  306.3
  306.316
  307.684
  307.502
  307.272
  307.147
  307.037
  306.96
  306.909
  306.877
  306.855
  306.836
  306.817
  306.797
  306.778
  306.76
  306.74
  306.72
  306.697
  306.67
  306.641
  306.609
  306.578
  306.547
  306.518
  306.492
  306.467
  306.444
  306.422
  306.402
  306.383
  306.365
  306.347
  306.331
  306.317
  306.306
  306.297
  306.292
  306.289
  306.287
  306.288
  306.304
  304.705
  306.493
  306.716
  306.775
  306.792
  306.792
  306.786
  306.777
  306.766
  306.753
  306.74
  306.728
  306.715
  306.703
  306.69
  306.675
  306.658
  306.639
  306.618
  306.595
  306.572
  306.55
  306.527
  306.505
  306.484
  306.463
  306.443
  306.423
  306.403
  306.384
  306.366
  306.35
  306.335
  306.323
  306.312
  306.302
  306.293
  306.289
  304.981
  306.11
  306.398
  306.546
  306.618
  306.652
  306.667
  306.673
  306.676
  306.677
  306.676
  306.674
  306.671
  306.667
  306.662
  306.656
  306.647
  306.636
  306.624
  306.609
  306.593
  306.576
  306.558
  306.54
  306.521
  306.502
  306.482
  306.462
  306.442
  306.422
  306.403
  306.384
  306.366
  306.348
  306.331
  306.314
  306.295
  306.287
  307.041
  306.36
  305.177
  305.861
  306.306
  306.47
  306.528
  306.557
  306.572
  306.581
  306.586
  306.592
  306.596
  306.601
  306.604
  306.606
  306.608
  306.607
  306.606
  306.603
  306.597
  306.59
  306.581
  306.57
  306.558
  306.544
  306.529
  306.513
  306.496
  306.479
  306.46
  306.44
  306.42
  306.4
  306.378
  306.357
  306.334
  306.307
  306.27
  306.214
)
;

boundaryField
{
  floor
  {
    type wallHeatTransfer;
    Tinf uniform 305.2;
    alphaWall uniform 0.24;
    value nonuniform List<scalar> 29
(
  306.102
  305.346
  305.322
  305.301
  305.293
  305.301
  305.317
  305.336
  305.35
  305.36
  305.368
  305.372
  305.372
  305.38
  305.403
  305.454
  305.532
  305.581
  305.615
  305.628
  305.628
  305.776
  305.912
  306.034
  306.102
  305.346
  305.431
  305.636
  305.924
)
;
  }
  ceiling
  {
    type wallHeatTransfer;
    Tinf uniform 303.2;
    alphaWall uniform 0.24;
    value nonuniform List<scalar> 43
(
  306.756
  306.169
  305.09
  305.726
  306.14
  306.286
  306.325
  306.335
  306.333
  306.326
  306.32
  306.317
  306.318
  306.322
  306.327
  306.331
  306.335
  306.336
  306.336
  306.334
  306.329
  306.322
  306.313
  306.302
  306.29
  306.277
  306.263
  306.248
  306.232
  306.216
  306.198
  306.18
  306.161
  306.14
  306.119
  306.097
  306.071
  306.041
  306.001
  305.938
  307.463
  307.317
  304.92
)
;
  }
  sWall
  {
    type wallHeatTransfer;
    Tinf uniform 315.2;
    alphaWall uniform 0.36;
    value uniform 307.918;
  }
  nWall
  {
    type wallHeatTransfer;
    Tinf uniform 307.2;
    alphaWall uniform 0.36;
    value nonuniform List<scalar> 6
(
  306.439
  306.435
  306.42
  306.392
  306.381
  306.343
)
;
  }
  sideWalls
  {
    type empty;
  }
  glass1
  {
    type wallHeatTransfer;
    Tinf uniform 315.2;
    alphaWall uniform 4.3;
    value nonuniform List<scalar> 9
(
  313.121
  312.477
  312.05
  311.721
  311.467
  311.262
  311.107
  311.155
  311.322
)
;
  }
  glass2
  {
    type wallHeatTransfer;
    Tinf uniform 307.2;
    alphaWall uniform 4.3;
    value nonuniform List<scalar> 2
(
  306.877
  306.858
)
;
  }
  sun
  {
    type wallHeatTransfer;
    Tinf uniform 305.2;
    alphaWall uniform 0.24;
    value nonuniform List<scalar> 14
(
  306.305
  306.128
  306.118
  306.124
  306.13
  306.135
  306.139
  306.142
  306.144
  306.146
  306.144
  306.139
  306.131
  306.119
)
;
  }
  heatsource1
  {
    type fixedGradient;
    gradient uniform 0;
  }
  heatsource2
  {
    type fixedGradient;
    gradient uniform 0;
  }
  Table_master
  {
    type zeroGradient;
  }
  Table_slave
  {
    type zeroGradient;
  }
  inlet
  {
    type fixedValue;
    value uniform 290.15;
  }
  outlet
  {
    type zeroGradient;
  }
} 	// ************************************************************************* //

