/*--------------------------------*- C++ -*----------------------------------*\
  =========                 |
  \\      /  F ield         | OpenFOAM: The Open Source CFD Toolbox
   \\    /   O peration     | Website:  https://openfoam.org
    \\  /    A nd           | Version:  6
     \\/     M anipulation  |
\*---------------------------------------------------------------------------*/
FoamFile
{
    version     2.0;
    format      ascii;
    class       volScalarField;
    location    "560";
    object      nut;
}
// * * * * * * * * * * * * * * * * * * * * * * * * * * * * * * * * * * * * * //

dimensions      [0 2 -1 0 0 0 0];

internalField   nonuniform List<scalar> 
459
(
0.000400119
0.000544933
0.000666326
0.000816134
0.000838702
0.000831854
0.000810661
0.000783852
0.000755354
0.00072684
0.000699959
0.000672436
0.000641861
0.000604111
0.000561053
0.000514981
0.000620395
0.000625905
0.000607373
0.000578555
0.000546996
0.000511429
0.000477828
0.000448141
0.000422263
0.000399658
0.000379739
0.000361954
0.000345934
0.00033081
0.000315543
0.000300151
0.000279737
0.000300737
0.000557536
0.00155238
0.00217024
0.00218204
0.00225839
0.00237996
0.0023779
0.0023006
0.00220167
0.00208347
0.00190829
0.00169164
0.0014397
0.00115033
0.000848175
0.000558068
0.000499362
0.000747817
0.00227921
0.00181786
0.00180189
0.001847
0.00179127
0.00140387
0.00119445
0.00104959
0.000941353
0.000857484
0.000791419
0.000738162
0.000682379
0.0006204
0.000562935
0.000573348
0.000570944
0.000391952
0.000678341
0.00232608
0.0027778
0.0021502
0.00220302
0.00250049
0.00261943
0.0026065
0.00256276
0.00250967
0.00240187
0.00221235
0.001936
0.00158942
0.00121455
0.000864358
0.000510102
0.00071467
0.00209653
0.00186697
0.00203868
0.00224063
0.00215423
0.00067506
0.000595114
0.000530104
0.000477294
0.000434111
0.000398524
0.000369168
0.000346001
0.000329374
0.000371623
0.000514764
0.000714647
0.000456037
0.000769757
0.00277462
0.00290542
0.00190581
0.00207301
0.00256219
0.00277257
0.00276603
0.00272876
0.00270851
0.00264272
0.00248631
0.0022311
0.00189654
0.00151832
0.00113832
0.000752956
0.000530209
0.00110092
0.00147108
0.00202754
0.00255719
0.00289966
0.002748
0.00073619
0.000675203
0.000627028
0.000585112
0.000545775
0.000506768
0.000466468
0.000423366
0.000373803
0.00036335
0.000484633
0.000853524
0.000532077
0.00082802
0.00296489
0.00266243
0.00165953
0.00203112
0.00272713
0.00302496
0.00299319
0.00293952
0.00293102
0.00286672
0.00271621
0.00248577
0.00219516
0.00187403
0.00156038
0.00129952
0.0013952
0.00191225
0.00261862
0.00324358
0.00368188
0.00391631
0.00390409
0.00335423
0.00302179
0.00268862
0.00236368
0.00204017
0.00171461
0.00138423
0.00105356
0.000722682
0.000520479
0.000532321
0.000825793
0.000742477
0.000574587
0.000602935
0.000835825
0.000860862
0.0030815
0.0021714
0.00147628
0.00204785
0.00294847
0.00334476
0.00330508
0.00330707
0.00329095
0.0031809
0.00303659
0.00285914
0.00265804
0.00246782
0.00235013
0.00239324
0.00289291
0.00354503
0.00409554
0.00447959
0.00468596
0.00474159
0.00466479
0.00441965
0.00405864
0.00362575
0.00315941
0.00268052
0.00220008
0.00172117
0.00128585
0.00096862
0.00082914
0.00081708
0.000872601
0.000853184
0.000903685
0.00130797
0.00111976
0.000906928
0.00332613
0.00167114
0.00135634
0.00209964
0.00319182
0.00369291
0.00368697
0.00364754
0.00354742
0.00345315
0.0033802
0.00331723
0.00326732
0.00328121
0.00342459
0.00376887
0.00435284
0.00484529
0.0051461
0.00527036
0.00523935
0.0051046
0.00487797
0.00455341
0.00415909
0.00371425
0.00324083
0.00276418
0.00231264
0.00191967
0.00163
0.0014748
0.00143552
0.00141196
0.00129542
0.00105774
0.00129052
0.00240432
0.00152419
0.000933295
0.00308253
0.00121946
0.00129796
0.00219937
0.00347181
0.0040763
0.00400506
0.00379453
0.00364178
0.00360012
0.00362238
0.00368561
0.00379799
0.00399051
0.00430854
0.00473521
0.00517609
0.00544913
0.00550406
0.00538208
0.00510353
0.00474796
0.00438038
0.00401641
0.00365866
0.00330207
0.00295683
0.00264826
0.00240817
0.00226451
0.00222926
0.00227979
0.00234433
0.00231661
0.00213435
0.00170703
0.00188273
0.00436298
0.00209597
0.000944505
0.00118869
0.0007249
0.0013222
0.00242228
0.00390453
0.00465102
0.0043987
0.004134
0.00406127
0.00409713
0.00417721
0.00428751
0.00443583
0.00463479
0.00488693
0.00514915
0.00533077
0.00534266
0.00517849
0.00488509
0.00453746
0.00419301
0.00388624
0.00362826
0.00341798
0.0032526
0.00313814
0.0030867
0.00310901
0.00320681
0.00336483
0.00354207
0.00366857
0.00366366
0.00349048
0.00306088
0.00299708
0.00572942
0.00234888
0.000504097
0.00177004
0.00308601
0.00476369
0.00500646
0.0049357
0.00496693
0.00507428
0.00518612
0.00528116
0.00536239
0.00543773
0.00551137
0.00557763
0.00561516
0.00559412
0.00549988
0.00534704
0.0051651
0.00498084
0.00481181
0.00466703
0.00455094
0.00446799
0.00442416
0.00442749
0.00448568
0.00460239
0.00477227
0.00497494
0.00516949
0.00529405
0.0052736
0.00512564
0.00478743
0.0045816
0.00592997
0.0019816
0.00203803
0.00592143
0.00608957
0.00563193
0.00549944
0.0056039
0.00580137
0.00598693
0.00612409
0.00621351
0.00626717
0.00629723
0.00631288
0.00631929
0.00631662
0.00630012
0.00626307
0.00620455
0.00613093
0.00605135
0.00597274
0.00590034
0.00583949
0.00579724
0.00578174
0.00580165
0.00586477
0.00597578
0.0061328
0.00632184
0.00650927
0.00663423
0.00660808
0.00643137
0.0060415
0.00557889
0.00484638
0.00166741
0.00130568
0.00138641
0.00152947
0.00160988
0.00160001
0.0015613
0.00154367
0.00154282
0.00154761
0.00155269
0.00155673
0.00155994
0.00156288
0.00156605
0.00156963
0.00157327
0.00157605
0.00157686
0.00157519
0.00157142
0.00156645
0.00156115
0.00155622
0.00155218
0.00154955
0.00154881
0.00155046
0.00155493
0.00156247
0.00157291
0.00158535
0.00159772
0.00160639
0.00160661
0.00159931
0.00158417
0.0015849
0.00161339
0.0016149
0.00142101
)
;

boundaryField
{
    floor
    {
        type            nutkWallFunction;
        Cmu             0.09;
        kappa           0.41;
        E               9.8;
        value           nonuniform List<scalar> 
29
(
6.74944e-05
6.16634e-05
7.49134e-05
7.55987e-05
7.3293e-05
6.96907e-05
6.57206e-05
6.12123e-05
5.69177e-05
5.30921e-05
4.97316e-05
4.67748e-05
4.41517e-05
4.17949e-05
3.96593e-05
3.76314e-05
3.55722e-05
3.3483e-05
3.069e-05
3.35609e-05
3.35608e-05
4.57584e-05
5.41085e-05
6.38299e-05
6.74944e-05
6.16634e-05
9.05733e-05
8.65298e-05
6.35981e-05
)
;
    }
    ceiling
    {
        type            nutkWallFunction;
        Cmu             0.09;
        kappa           0.41;
        E               9.8;
        value           nonuniform List<scalar> 
43
(
0.000156074
0.000165253
0.000181375
0.000190365
0.000189265
0.000184943
0.000182972
0.000182878
0.000183416
0.000183985
0.000184437
0.000184796
0.000185126
0.00018548
0.00018588
0.000186287
0.000186599
0.000186689
0.000186502
0.000186081
0.000185525
0.000184932
0.00018438
0.000183929
0.000183633
0.00018355
0.000183735
0.000184235
0.000185078
0.000186245
0.000187634
0.000189015
0.000189982
0.000190005
0.000189191
0.0001875
0.000187581
0.000190759
0.000190929
0.000169173
0.000114154
0.00014265
0.000237456
)
;
    }
    sWall
    {
        type            nutkWallFunction;
        Cmu             0.09;
        kappa           0.41;
        E               9.8;
        value           uniform 0.000156078;
    }
    nWall
    {
        type            nutkWallFunction;
        Cmu             0.09;
        kappa           0.41;
        E               9.8;
        value           nonuniform List<scalar> 6(0.000101205 0.000134689 0.000180787 0.000231331 0.000196771 0.000169174);
    }
    sideWalls
    {
        type            empty;
    }
    glass1
    {
        type            nutkWallFunction;
        Cmu             0.09;
        kappa           0.41;
        E               9.8;
        value           nonuniform List<scalar> 9(4.68348e-05 6.70643e-05 8.20972e-05 9.32535e-05 0.000100278 0.000104211 0.000109701 0.000112829 0.000114154);
    }
    glass2
    {
        type            nutkWallFunction;
        Cmu             0.09;
        kappa           0.41;
        E               9.8;
        value           nonuniform List<scalar> 2(0.000243706 0.000270937);
    }
    sun
    {
        type            nutkWallFunction;
        Cmu             0.09;
        kappa           0.41;
        E               9.8;
        value           nonuniform List<scalar> 
14
(
4.68401e-05
6.54621e-05
8.0602e-05
9.88459e-05
0.000101552
0.000100728
9.81791e-05
9.49438e-05
9.14907e-05
8.80207e-05
8.47343e-05
8.13539e-05
7.7579e-05
7.28883e-05
)
;
    }
    heatsource1
    {
        type            nutkWallFunction;
        Cmu             0.09;
        kappa           0.41;
        E               9.8;
        value           nonuniform List<scalar> 3(6.91846e-05 7.27325e-05 0.000101206);
    }
    heatsource2
    {
        type            nutkWallFunction;
        Cmu             0.09;
        kappa           0.41;
        E               9.8;
        value           nonuniform List<scalar> 4(6.71129e-05 5.96689e-05 5.96688e-05 6.1038e-05);
    }
    Table_master
    {
        type            nutkWallFunction;
        Cmu             0.09;
        kappa           0.41;
        E               9.8;
        value           nonuniform List<scalar> 9(8.16738e-05 7.17589e-05 6.35771e-05 5.68399e-05 5.12617e-05 4.66121e-05 4.2737e-05 3.96509e-05 3.74196e-05);
    }
    Table_slave
    {
        type            nutkWallFunction;
        Cmu             0.09;
        kappa           0.41;
        E               9.8;
        value           nonuniform List<scalar> 9(8.91598e-05 8.16912e-05 7.57345e-05 7.05066e-05 6.55587e-05 6.06089e-05 5.54451e-05 4.98602e-05 4.33479e-05);
    }
    inlet
    {
        type            calculated;
        value           uniform 0.000100623;
    }
    outlet
    {
        type            calculated;
        value           nonuniform List<scalar> 2(0.00130568 0.00138641);
    }
}


// ************************************************************************* //
