// -*- C++ -*-
// File generated by PyFoam - sorry for the ugliness

FoamFile
{
 version 2.0;
 format ascii;
 class volVectorField;
 location "560";
 object U;
}

dimensions [ 0 1 -1 0 0 0 0 ];

internalField nonuniform List<vector> 459
(
  (-0.0495452 0.0019324 0)
  (-0.0112699 0.00752077 0)
  (-0.0302847 -0.0121403 0)
  (-0.00529825 -0.0391882 0)
  (0.0411782 -0.0411946 0)
  (0.0786489 -0.0320308 0)
  (0.109065 -0.0226484 0)
  (0.128888 -0.0149926 0)
  (0.138694 -0.00912262 0)
  (0.140641 -0.00454254 0)
  (0.136214 -0.000438624 0)
  (0.126426 0.00379725 0)
  (0.11068 0.00925063 0)
  (0.0841667 0.0194895 0)
  (0.0813149 0.0464106 0)
  (-0.106142 0.00113381 0)
  (0.0313529 0.0060001 0)
  (0.00378102 -0.00919989 0)
  (0.0189934 -0.0136636 0)
  (0.0327735 -0.0111297 0)
  (0.0436823 -0.00765641 0)
  (0.050606 -0.0047615 0)
  (0.054386 -0.00323343 0)
  (0.0563792 -0.00259958 0)
  (0.0576668 -0.0022998 0)
  (0.0586623 -0.00208494 0)
  (0.0593618 -0.00185986 0)
  (0.0595877 -0.00152285 0)
  (0.058936 -0.000841229 0)
  (0.0566442 0.000613271 0)
  (0.0512665 0.00356789 0)
  (0.0430403 0.00790725 0)
  (-0.00842266 0.0182569 0)
  (0.10494 -0.000733199 0)
  (-0.0831139 0.0124655 0)
  (0.00118922 0.0237093 0)
  (-0.0168339 -0.000185568 0)
  (0.00586845 -0.0576227 0)
  (0.0371695 -0.0655984 0)
  (0.0676476 -0.0512207 0)
  (0.0918906 -0.0335879 0)
  (0.107284 -0.0183172 0)
  (0.114591 -0.00627488 0)
  (0.115593 0.00322767 0)
  (0.111686 0.0110855 0)
  (0.104342 0.0184283 0)
  (0.0947187 0.0266395 0)
  (0.0829762 0.0379118 0)
  (0.0835083 0.0586195 0)
  (0.0755209 0.0527461 0)
  (0.0465236 0.0461375 0)
  (-0.136755 0.000626906 0)
  (0.0372277 -0.00716176 0)
  (0.0257287 -0.0195519 0)
  (0.0349196 -0.0221352 0)
  (0.0449035 -0.0173462 0)
  (0.0517196 -0.0107691 0)
  (0.054507 -0.00482618 0)
  (0.0551118 -0.00152161 0)
  (0.0551908 -0.00013848 0)
  (0.0554066 0.000503848 0)
  (0.0557018 0.000954682 0)
  (0.0559465 0.00146117 0)
  (0.056101 0.00231197 0)
  (0.0559974 0.00385053 0)
  (0.0551229 0.00699017 0)
  (0.051044 0.0144301 0)
  (0.0449967 0.0218309 0)
  (-0.0074138 0.0327197 0)
  (0.154641 0.0188732 0)
  (-0.106058 0.0192717 0)
  (0.00987388 0.0282667 0)
  (-0.0115761 -0.00750268 0)
  (0.00827465 -0.0826064 0)
  (0.0310755 -0.0950806 0)
  (0.0544146 -0.0765643 0)
  (0.0724002 -0.0512603 0)
  (0.0828345 -0.0288608 0)
  (0.0869541 -0.0113817 0)
  (0.0864653 0.0023071 0)
  (0.0832022 0.013655 0)
  (0.0786992 0.0236895 0)
  (0.074014 0.0336172 0)
  (0.0689068 0.044467 0)
  (0.0677355 0.0580706 0)
  (0.05973 0.056905 0)
  (0.0448227 0.0709549 0)
  (-0.148415 -0.00065564 0)
  (0.0531547 -0.0349576 0)
  (0.047468 -0.0375834 0)
  (0.0518111 -0.0326602 0)
  (0.0571058 -0.0242584 0)
  (0.0601069 -0.0159207 0)
  (0.0582509 -0.0130397 0)
  (0.0536282 -0.00953016 0)
  (0.0501495 -0.00765926 0)
  (0.0482522 -0.00662248 0)
  (0.0470986 -0.00596827 0)
  (0.0462724 -0.00546727 0)
  (0.0459033 -0.00485498 0)
  (0.0468354 -0.00353817 0)
  (0.0507291 0.000419054 0)
  (0.049928 0.017814 0)
  (0.046031 0.0302602 0)
  (-0.00926286 0.0432747 0)
  (0.183623 0.0416394 0)
  (-0.124252 0.0264592 0)
  (0.0154538 0.0311105 0)
  (-0.0113224 -0.0164828 0)
  (0.00827036 -0.102629 0)
  (0.0243483 -0.117244 0)
  (0.040441 -0.0943815 0)
  (0.0521174 -0.0615511 0)
  (0.0570905 -0.0326802 0)
  (0.0573108 -0.0109175 0)
  (0.0548378 0.00522246 0)
  (0.052463 0.0173526 0)
  (0.0509689 0.027151 0)
  (0.0506778 0.0361565 0)
  (0.05123 0.0453472 0)
  (0.0554217 0.0563369 0)
  (0.0621407 0.0629542 0)
  (0.0712304 0.0772552 0)
  (0.0917035 -0.0298272 0)
  (0.0841007 -0.0274342 0)
  (0.082618 -0.0390212 0)
  (0.0731987 -0.0398049 0)
  (0.0674542 -0.0336021 0)
  (0.0648857 -0.0246971 0)
  (0.0635338 -0.0144726 0)
  (0.0647031 -0.0084455 0)
  (0.0667422 -0.00550599 0)
  (0.0661997 -0.00357781 0)
  (0.0632876 -0.00224374 0)
  (0.0589499 -0.00122051 0)
  (0.0536291 -0.000352399 0)
  (0.0472862 0.000506628 0)
  (0.0394717 0.00159383 0)
  (0.0253389 0.00360673 0)
  (0.0256637 0.0247971 0)
  (0.0351308 0.035962 0)
  (-0.0135697 0.0470144 0)
  (0.202338 0.0716122 0)
  (-0.141134 0.0337006 0)
  (0.0208879 0.0357717 0)
  (-0.0120636 -0.026454 0)
  (0.00942246 -0.118333 0)
  (0.0192189 -0.132315 0)
  (0.0275015 -0.10523 0)
  (0.0327422 -0.0653716 0)
  (0.0320907 -0.0312842 0)
  (0.0280995 -0.00732904 0)
  (0.0242214 0.00845609 0)
  (0.0235664 0.0187734 0)
  (0.0251984 0.0266676 0)
  (0.0287956 0.0338778 0)
  (0.034165 0.0411163 0)
  (0.0432159 0.0491886 0)
  (0.0559366 0.0541399 0)
  (0.0724548 0.054937 0)
  (0.088212 0.0134152 0)
  (0.0892321 -0.0076263 0)
  (0.0811384 -0.0242417 0)
  (0.0714707 -0.0293103 0)
  (0.0630706 -0.0262553 0)
  (0.0565205 -0.0194905 0)
  (0.0516218 -0.0113204 0)
  (0.048365 -0.00319515 0)
  (0.0453863 0.00210191 0)
  (0.0417693 0.00507107 0)
  (0.0373977 0.0068624 0)
  (0.0326484 0.00819903 0)
  (0.0276571 0.00944406 0)
  (0.0224106 0.0108577 0)
  (0.0171274 0.012687 0)
  (0.0101266 0.0150059 0)
  (0.010217 0.0237676 0)
  (0.027414 0.0309309 0)
  (0.000514306 0.0348925 0)
  (0.10767 0.0684081 0)
  (0.0820127 0.0614854 0)
  (-0.0796743 0.0536152 0)
  (0.280472 -0.0081239 0)
  (-0.160641 0.0395506 0)
  (0.030694 0.0425181 0)
  (-0.00670963 -0.0431031 0)
  (0.0146328 -0.130108 0)
  (0.0188098 -0.141006 0)
  (0.018347 -0.109409 0)
  (0.0165222 -0.0629132 0)
  (0.0103854 -0.0250194 0)
  (0.00291183 -0.0015837 0)
  (-0.000282646 0.0105207 0)
  (0.000862444 0.0172436 0)
  (0.00455432 0.0226324 0)
  (0.0103714 0.0277699 0)
  (0.0181761 0.0326085 0)
  (0.0288779 0.036891 0)
  (0.0423896 0.0374199 0)
  (0.0591265 0.0310858 0)
  (0.0700043 0.00786747 0)
  (0.0702767 -0.0106935 0)
  (0.063684 -0.0202822 0)
  (0.0545532 -0.0220703 0)
  (0.0451573 -0.0186322 0)
  (0.0367599 -0.0126136 0)
  (0.029849 -0.00558099 0)
  (0.0239881 0.00137606 0)
  (0.0197066 0.00596913 0)
  (0.0159515 0.00858357 0)
  (0.012161 0.010316 0)
  (0.00827105 0.0118149 0)
  (0.00432165 0.0133642 0)
  (0.000493628 0.0150885 0)
  (-0.00244325 0.0167223 0)
  (-0.0048291 0.0172536 0)
  (-0.00297178 0.0171664 0)
  (0.0120855 0.0177 0)
  (-0.00575219 0.00923572 0)
  (0.038698 0.0410319 0)
  (0.0399636 0.0529584 0)
  (-0.100048 0.0557958 0)
  (0.265671 -0.0222285 0)
  (-0.17483 0.0444089 0)
  (0.0424081 0.05142 0)
  (0.0125182 -0.0706005 0)
  (0.0282592 -0.139619 0)
  (0.026541 -0.142244 0)
  (0.0154578 -0.105428 0)
  (0.00461375 -0.053578 0)
  (-0.00686392 -0.014368 0)
  (-0.0147834 0.00290957 0)
  (-0.0165596 0.00998204 0)
  (-0.0150441 0.0137319 0)
  (-0.0111007 0.0168182 0)
  (-0.00515178 0.0197966 0)
  (0.00316601 0.0224588 0)
  (0.0133279 0.0239565 0)
  (0.0251011 0.0223029 0)
  (0.0375402 0.0158988 0)
  (0.0437974 0.00293959 0)
  (0.0428736 -0.00738756 0)
  (0.0366238 -0.0124555 0)
  (0.0277497 -0.0127178 0)
  (0.0184319 -0.00954091 0)
  (0.00999001 -0.00450352 0)
  (0.00250957 0.00130234 0)
  (-0.00255917 0.00638909 0)
  (-0.0056614 0.00958933 0)
  (-0.00828906 0.0117308 0)
  (-0.0108158 0.0134378 0)
  (-0.0132769 0.0149575 0)
  (-0.0154522 0.0162636 0)
  (-0.0168744 0.0170879 0)
  (-0.016962 0.016824 0)
  (-0.0157991 0.0145809 0)
  (-0.0126407 0.0106586 0)
  (-0.00671679 0.00819778 0)
  (-0.0149892 0.00588316 0)
  (0.00548919 0.0327612 0)
  (0.0218054 0.0653501 0)
  (-0.129406 0.0677857 0)
  (0.312044 -0.0293118 0)
  (-0.192125 -0.0533986 0)
  (0.0469206 0.00685622 0)
  (0.0517246 -0.101809 0)
  (0.0569556 -0.141977 0)
  (0.0452333 -0.130881 0)
  (0.0185314 -0.0891028 0)
  (-0.00520388 -0.0350126 0)
  (-0.0201937 -0.00391418 0)
  (-0.0279325 0.00687296 0)
  (-0.0297149 0.00978227 0)
  (-0.0284251 0.0108574 0)
  (-0.0250479 0.011828 0)
  (-0.0200561 0.0128703 0)
  (-0.0135944 0.013736 0)
  (-0.00597499 0.013989 0)
  (0.00248662 0.0125024 0)
  (0.00960869 0.00869476 0)
  (0.0118353 0.00239707 0)
  (0.00969248 -0.00264208 0)
  (0.0038038 -0.00472754 0)
  (-0.00433602 -0.00367063 0)
  (-0.0123573 -0.000622132 0)
  (-0.0190403 0.00306244 0)
  (-0.0233152 0.00647983 0)
  (-0.0258839 0.00941839 0)
  (-0.0274273 0.0117399 0)
  (-0.0285365 0.013656 0)
  (-0.0293554 0.0152404 0)
  (-0.0297938 0.0164238 0)
  (-0.0295869 0.0169968 0)
  (-0.0283854 0.016618 0)
  (-0.0259801 0.0148765 0)
  (-0.0226245 0.0116039 0)
  (-0.0186067 0.00782998 0)
  (-0.0144521 0.00601595 0)
  (-0.0132713 0.00784548 0)
  (-0.0011343 0.0267988 0)
  (0.0314602 0.0656931 0)
  (-0.114239 0.0595491 0)
  (0.525097 0.00606061 0)
  (-0.212681 0.304412 0)
  (0.0565459 0.217412 0)
  (0.114209 -0.0944534 0)
  (0.103987 -0.121988 0)
  (0.0712137 -0.0984796 0)
  (0.0180585 -0.0543254 0)
  (-0.0221603 -0.00502754 0)
  (-0.0375957 0.0110907 0)
  (-0.0438298 0.013091 0)
  (-0.0451455 0.011933 0)
  (-0.0440709 0.0108252 0)
  (-0.0416508 0.0103192 0)
  (-0.0383114 0.0102454 0)
  (-0.0343197 0.0103274 0)
  (-0.0300069 0.0102764 0)
  (-0.0259111 0.00973033 0)
  (-0.0231472 0.00841803 0)
  (-0.02322 0.00625674 0)
  (-0.0260195 0.00460446 0)
  (-0.0303451 0.00430499 0)
  (-0.0351973 0.00531572 0)
  (-0.0390983 0.00689413 0)
  (-0.0418425 0.00871622 0)
  (-0.0433395 0.0106143 0)
  (-0.0438202 0.0125146 0)
  (-0.0435618 0.0142702 0)
  (-0.0427825 0.0158111 0)
  (-0.0415375 0.0169993 0)
  (-0.0397858 0.0176388 0)
  (-0.0374394 0.0174839 0)
  (-0.0344327 0.0162753 0)
  (-0.0308362 0.013851 0)
  (-0.0269347 0.0104014 0)
  (-0.0230009 0.00682256 0)
  (-0.0190509 0.00448938 0)
  (-0.014411 0.00540177 0)
  (-0.00349455 0.0164855 0)
  (0.0282767 0.0470528 0)
  (-0.0881572 0.0358663 0)
  (0.515152 0.0328142 0)
  (0.178359 -0.123546 0)
  (0.137401 -0.0967437 0)
  (0.0725372 -0.0474764 0)
  (-0.0281774 0.01422 0)
  (-0.0554216 0.0291187 0)
  (-0.0619867 0.02671 0)
  (-0.0635675 0.0223348 0)
  (-0.0629071 0.0186808 0)
  (-0.0615636 0.0162345 0)
  (-0.0599294 0.0147812 0)
  (-0.0581019 0.0140025 0)
  (-0.0561718 0.0136548 0)
  (-0.0542821 0.0135601 0)
  (-0.0526687 0.0135444 0)
  (-0.0517191 0.0134207 0)
  (-0.0518756 0.0130662 0)
  (-0.0530323 0.0128259 0)
  (-0.054595 0.0130382 0)
  (-0.0559524 0.0136951 0)
  (-0.0566686 0.0145358 0)
  (-0.0566506 0.0154244 0)
  (-0.0558978 0.0162868 0)
  (-0.0544693 0.0170799 0)
  (-0.052443 0.0176962 0)
  (-0.0499002 0.0180245 0)
  (-0.0469083 0.0179294 0)
  (-0.043546 0.0172586 0)
  (-0.0399283 0.0158529 0)
  (-0.0362371 0.0135823 0)
  (-0.0327543 0.0104278 0)
  (-0.0298566 0.00660585 0)
  (-0.0279098 0.00259564 0)
  (-0.026993 -0.00112873 0)
  (-0.0255889 -0.00079901 0)
  (-0.0199768 0.0083019 0)
  (-0.0120244 0.0263859 0)
  (-0.108133 0.0196771 0)
  (0.307374 0.0523089 0)
  (-0.170914 -0.0838757 0)
  (-0.0751855 -0.0652807 0)
  (-0.101515 -0.0481612 0)
  (-0.101888 -0.0394527 0)
  (-0.0951888 -0.0472657 0)
  (-0.0876284 -0.059131 0)
  (-0.0828438 -0.0676941 0)
  (-0.0797636 -0.0729833 0)
  (-0.0777066 -0.0758913 0)
  (-0.0761936 -0.0771892 0)
  (-0.0749072 -0.0774175 0)
  (-0.0736518 -0.0769545 0)
  (-0.0723247 -0.0761314 0)
  (-0.070922 -0.0753228 0)
  (-0.0695661 -0.0749332 0)
  (-0.0684583 -0.0752166 0)
  (-0.0676632 -0.0759714 0)
  (-0.0670366 -0.0767889 0)
  (-0.0663477 -0.0773814 0)
  (-0.0654027 -0.0776399 0)
  (-0.0640871 -0.0774865 0)
  (-0.0623197 -0.0768941 0)
  (-0.0600428 -0.0758942 0)
  (-0.0572282 -0.0746065 0)
  (-0.0538902 -0.0732031 0)
  (-0.0500952 -0.0719104 0)
  (-0.0459782 -0.0710082 0)
  (-0.0417603 -0.0708181 0)
  (-0.0377671 -0.0716531 0)
  (-0.0344453 -0.0737011 0)
  (-0.0323469 -0.0768192 0)
  (-0.0319954 -0.0802183 0)
  (-0.0336033 -0.0819019 0)
  (-0.0353311 -0.0822849 0)
  (-0.0348465 -0.0739936 0)
  (-0.0405536 -0.0561321 0)
  (-0.0866992 -0.0528298 0)
  (0.250431 -0.0453129 0)
  (-0.232832 -0.17257 0)
  (-0.171314 0.0241121 0)
  (-0.159252 0.27223 0)
  (-0.155896 0.243856 0)
  (-0.153852 0.235154 0)
  (-0.140544 0.238767 0)
  (-0.124328 0.248753 0)
  (-0.111105 0.258409 0)
  (-0.102335 0.264929 0)
  (-0.0967603 0.268827 0)
  (-0.09321 0.270976 0)
  (-0.0908151 0.272029 0)
  (-0.0889886 0.272411 0)
  (-0.0873323 0.272427 0)
  (-0.0855753 0.272373 0)
  (-0.0835668 0.272584 0)
  (-0.0813007 0.273378 0)
  (-0.0788973 0.274892 0)
  (-0.0764736 0.27694 0)
  (-0.0740442 0.279196 0)
  (-0.0715466 0.281397 0)
  (-0.0689034 0.283384 0)
  (-0.0660426 0.285046 0)
  (-0.0628927 0.286327 0)
  (-0.0593995 0.287214 0)
  (-0.0555513 0.287726 0)
  (-0.0514035 0.287891 0)
  (-0.0470917 0.287751 0)
  (-0.0428407 0.287378 0)
  (-0.0389593 0.286895 0)
  (-0.0358239 0.286494 0)
  (-0.0338723 0.286431 0)
  (-0.0335796 0.286937 0)
  (-0.0350598 0.287818 0)
  (-0.0368172 0.287085 0)
  (-0.0365376 0.28765 0)
  (-0.0373619 0.282246 0)
  (-0.0579741 0.274032 0)
  (-0.112894 0.284476 0)
  (0.332824 0.330607 0)
)
;

boundaryField
{
  floor
  {
    type noSlip;
  }
  ceiling
  {
    type noSlip;
  }
  sWall
  {
    type noSlip;
  }
  nWall
  {
    type noSlip;
  }
  sideWalls
  {
    type empty;
  }
  glass1
  {
    type noSlip;
  }
  glass2
  {
    type noSlip;
  }
  sun
  {
    type noSlip;
  }
  heatsource1
  {
    type noSlip;
  }
  heatsource2
  {
    type noSlip;
  }
  Table_master
  {
    type noSlip;
  }
  Table_slave
  {
    type noSlip;
  }
  inlet
  {
    type fixedValue;
    value uniform (0.277164 -0.114805 0);
  }
  outlet
  {
    type zeroGradient;
  }
} 	// ************************************************************************* //

