/*--------------------------------*- C++ -*----------------------------------*\
  =========                 |
  \\      /  F ield         | OpenFOAM: The Open Source CFD Toolbox
   \\    /   O peration     | Website:  https://openfoam.org
    \\  /    A nd           | Version:  6
     \\/     M anipulation  |
\*---------------------------------------------------------------------------*/
FoamFile
{
    version     2.0;
    format      ascii;
    class       volScalarField;
    location    "100";
    object      epsilon;
}
// * * * * * * * * * * * * * * * * * * * * * * * * * * * * * * * * * * * * * //

dimensions      [0 2 -3 0 0 0 0];

internalField   nonuniform List<scalar> 
459
(
0.000137271
0.000148361
0.000110059
0.000121725
0.000136056
0.000150854
0.000166003
0.000181811
0.000198986
0.000216588
0.000231328
0.000241275
0.000244638
0.000240054
0.000224304
3.59008e-05
6.26941e-05
5.04997e-05
3.31425e-05
2.29964e-05
1.54774e-05
1.03307e-05
7.60162e-06
6.10214e-06
5.06596e-06
4.22017e-06
3.48858e-06
2.85589e-06
2.46935e-06
4.53376e-06
2.45483e-05
4.76719e-05
4.44359e-05
2.70305e-05
0.000698169
0.0015724
0.000153812
9.3833e-05
9.59552e-05
0.000102106
0.000109421
0.000118473
0.000130158
0.000144492
0.000160039
0.000175628
0.000189209
0.000197736
0.0002047
0.00026585
8.64159e-05
5.73555e-05
0.000121219
6.21651e-05
4.15223e-05
3.43777e-05
2.05052e-05
8.46159e-06
6.72888e-06
5.28463e-06
4.31952e-06
3.577e-06
3.00589e-06
2.70431e-06
3.63056e-06
1.33275e-05
5.12455e-05
7.11607e-05
8.11657e-05
4.55997e-05
0.00177913
0.00524144
0.000394719
0.000112266
9.95598e-05
0.000105357
0.000114406
0.000125849
0.000139822
0.000156203
0.000172847
0.000188025
0.000200309
0.000208668
0.000214718
0.000230631
0.000291679
0.000177406
0.000150933
8.35356e-05
6.95947e-05
6.5426e-05
6.12182e-05
9.19346e-06
5.01713e-06
4.02679e-06
3.39441e-06
3.01346e-06
3.22208e-06
5.09768e-06
1.21797e-05
4.22223e-05
0.000121369
0.00013399
0.000124359
6.31145e-05
0.00349311
0.0114508
0.000968838
0.000158294
0.000112503
0.000118042
0.000130557
0.000146253
0.000164633
0.000185428
0.000204813
0.000219896
0.000230106
0.000236013
0.000238823
0.000243243
0.000263459
0.000323475
0.000142226
8.84463e-05
7.63345e-05
8.34398e-05
0.000100514
0.00013113
0.000186172
0.000204497
0.000230337
0.000261541
0.000296273
0.00033226
0.000370056
0.000384923
0.000384008
0.000253365
0.000201283
0.000226599
0.000248988
0.00583492
0.0194612
0.00212465
0.000259074
0.000135982
0.000137637
0.000155546
0.00017984
0.000209049
0.000241676
0.000268944
0.00028683
0.000297332
0.00030264
0.000300995
0.000287357
0.000257509
0.000203501
0.000127229
9.25236e-05
8.25643e-05
8.46243e-05
9.25845e-05
0.000104102
0.000117953
0.000134356
0.000157078
0.000185677
0.000218521
0.000253184
0.000288989
0.000319873
0.000338594
0.000328966
0.000296112
0.000252415
0.000248756
0.000380135
0.000263574
0.000307775
0.00881862
0.0265662
0.00428614
0.000581259
0.000220298
0.000189575
0.000207548
0.000241846
0.000287928
0.0003416
0.00037412
0.000386461
0.000389165
0.000390358
0.000389494
0.000376794
0.000339138
0.000274368
0.000202484
0.000149826
0.000121699
0.000111135
0.000110253
0.000114993
0.000124723
0.000141792
0.00016853
0.000204467
0.000246718
0.000291319
0.000336466
0.000384818
0.000442547
0.000515441
0.000620847
0.000706278
0.000677831
0.000577303
0.000403951
0.000478216
0.0122905
0.0296608
0.00866871
0.00224386
0.000816734
0.000484535
0.000421809
0.000434606
0.000491597
0.000548655
0.000554778
0.000530588
0.000498674
0.000473477
0.000457774
0.000441272
0.000406528
0.000346402
0.000274775
0.000213582
0.000172881
0.000150328
0.000139882
0.00013744
0.000142825
0.000159692
0.000191802
0.000239175
0.000296538
0.000356138
0.000415145
0.000482647
0.000582568
0.000746422
0.000995652
0.00130121
0.00149163
0.00146991
0.000793077
0.000708496
0.0130085
0.0356571
0.017666
0.0102734
0.00514792
0.00260584
0.00161569
0.00123653
0.00109495
0.000982102
0.000860024
0.000741983
0.000639797
0.000560112
0.000504733
0.000467566
0.000432359
0.000383275
0.000321754
0.000264221
0.000220018
0.00019058
0.000173034
0.000164464
0.000165177
0.000180432
0.000218147
0.00028277
0.000366757
0.000451838
0.000520993
0.000564604
0.000587739
0.000610052
0.000650528
0.000712463
0.000800932
0.000908374
0.0010212
0.000890094
0.0117355
0.0192389
0.0213086
0.0158644
0.0105722
0.00680338
0.00445695
0.00306363
0.00220207
0.00163213
0.00124711
0.000976532
0.000780982
0.000638335
0.0005358
0.0004641
0.00041249
0.000368608
0.000325116
0.000283282
0.000247253
0.000219451
0.00020003
0.00018823
0.000184414
0.000192377
0.000221689
0.000291164
0.000407508
0.000548388
0.0007002
0.000851142
0.000994635
0.00111417
0.00119124
0.00124365
0.00131168
0.00149527
0.00184559
0.00128219
0.0325619
0.0422426
0.0173298
0.00951754
0.00585161
0.00385175
0.00267031
0.00192213
0.00142188
0.00107792
0.000835618
0.000661532
0.000534995
0.000443046
0.00037682
0.00032904
0.000293431
0.000265659
0.000243486
0.000226005
0.000212854
0.000203823
0.000199158
0.000200621
0.000213169
0.000247087
0.000314237
0.00042124
0.000571169
0.00076042
0.000969912
0.00117203
0.00134734
0.0014801
0.00148882
0.0012219
0.00145725
0.00131415
0.0274898
0.030392
0.013828
0.00798427
0.00512495
0.00348562
0.00247381
0.00181901
0.00137961
0.00107371
0.000854482
0.000693637
0.000573721
0.000483809
0.000416879
0.000368111
0.00033381
0.00031082
0.000295966
0.000286542
0.000280534
0.000276455
0.000273441
0.00027161
0.00027271
0.000281252
0.000304076
0.000348977
0.000423002
0.000530269
0.000666459
0.000812634
0.000936012
0.000994619
0.000940943
0.000822658
0.00122729
0.00100467
0.00539916
0.00868237
0.0142105
0.0102118
0.0072972
0.0053488
0.00388639
0.00286567
0.00214859
0.00163283
0.0012644
0.000999987
0.000802191
0.000650869
0.000534103
0.000444203
0.000375759
0.000324638
0.000287464
0.000261375
0.000244443
0.000234196
0.000228311
0.000225297
0.000224368
0.00022548
0.000229485
0.000238384
0.000255625
0.000285502
0.000332829
0.000402117
0.000494835
0.000603545
0.000704362
0.000755185
0.000736255
0.000685035
0.00065042
0.000509853
)
;

boundaryField
{
    floor
    {
        Cmu             0.09;
        kappa           0.41;
        E               9.8;
        type            epsilonWallFunction;
        value           nonuniform List<scalar> 
29
(
0.000224304
3.59008e-05
6.26941e-05
5.04997e-05
3.31425e-05
2.29964e-05
1.54774e-05
1.03307e-05
7.60162e-06
6.10214e-06
5.06596e-06
4.22017e-06
3.48858e-06
2.85589e-06
2.46935e-06
4.53376e-06
2.45483e-05
4.76719e-05
4.44359e-05
2.70305e-05
2.70305e-05
4.55997e-05
6.31145e-05
0.000248988
0.000224304
3.59008e-05
5.73555e-05
0.000177406
0.000323475
)
;
    }
    ceiling
    {
        Cmu             0.09;
        kappa           0.41;
        E               9.8;
        type            epsilonWallFunction;
        value           nonuniform List<scalar> 
43
(
0.00539916
0.00868237
0.0142105
0.0102118
0.0072972
0.0053488
0.00388639
0.00286567
0.00214859
0.00163283
0.0012644
0.000999987
0.000802191
0.000650869
0.000534103
0.000444203
0.000375759
0.000324638
0.000287464
0.000261375
0.000244443
0.000234196
0.000228311
0.000225297
0.000224368
0.00022548
0.000229485
0.000238384
0.000255625
0.000285502
0.000332829
0.000402117
0.000494835
0.000603545
0.000704362
0.000755185
0.000736255
0.000685035
0.00065042
0.000509853
0.0117355
0.0192389
0.0274898
)
;
    }
    sWall
    {
        Cmu             0.09;
        kappa           0.41;
        E               9.8;
        type            epsilonWallFunction;
        value           uniform 0.00539916;
    }
    nWall
    {
        Cmu             0.09;
        kappa           0.41;
        E               9.8;
        type            epsilonWallFunction;
        value           nonuniform List<scalar> 6(0.000307775 0.000478216 0.000708496 0.00131415 0.00100467 0.000509853);
    }
    sideWalls
    {
        type            empty;
    }
    glass1
    {
        Cmu             0.09;
        kappa           0.41;
        E               9.8;
        type            epsilonWallFunction;
        value           nonuniform List<scalar> 9(0.000137271 0.000698169 0.00177913 0.00349311 0.00583492 0.00881862 0.0122905 0.0130085 0.0117355);
    }
    glass2
    {
        Cmu             0.09;
        kappa           0.41;
        E               9.8;
        type            epsilonWallFunction;
        value           nonuniform List<scalar> 2(0.000890094 0.00128219);
    }
    sun
    {
        Cmu             0.09;
        kappa           0.41;
        E               9.8;
        type            epsilonWallFunction;
        value           nonuniform List<scalar> 
14
(
0.000137271
0.000148361
0.000110059
0.000121725
0.000136056
0.000150854
0.000166003
0.000181811
0.000198986
0.000216588
0.000231328
0.000241275
0.000244638
0.000240054
)
;
    }
    heatsource1
    {
        Cmu             0.09;
        kappa           0.41;
        E               9.8;
        type            epsilonWallFunction;
        value           nonuniform List<scalar> 3(0.000380135 0.000263574 0.000307775);
    }
    heatsource2
    {
        Cmu             0.09;
        kappa           0.41;
        E               9.8;
        type            epsilonWallFunction;
        value           nonuniform List<scalar> 4(0.00026585 8.64159e-05 8.64159e-05 0.000291679);
    }
    Table_master
    {
        Cmu             0.09;
        kappa           0.41;
        E               9.8;
        type            epsilonWallFunction;
        value           nonuniform List<scalar> 9(9.19346e-06 5.01713e-06 4.02679e-06 3.39441e-06 3.01346e-06 3.22208e-06 5.09768e-06 1.21797e-05 4.22223e-05);
    }
    Table_slave
    {
        Cmu             0.09;
        kappa           0.41;
        E               9.8;
        type            epsilonWallFunction;
        value           nonuniform List<scalar> 9(0.000186172 0.000204497 0.000230337 0.000261541 0.000296273 0.00033226 0.000370056 0.000384923 0.000384008);
    }
    inlet
    {
        type            turbulentMixingLengthDissipationRateInlet;
        mixingLength    0.01;
        phi             phi;
        k               k;
        value           uniform 3.77336e-06;
    }
    outlet
    {
        type            zeroGradient;
    }
}


// ************************************************************************* //
