/*--------------------------------*- C++ -*----------------------------------*\
  =========                 |
  \\      /  F ield         | OpenFOAM: The Open Source CFD Toolbox
   \\    /   O peration     | Website:  https://openfoam.org
    \\  /    A nd           | Version:  6
     \\/     M anipulation  |
\*---------------------------------------------------------------------------*/
FoamFile
{
    version     2.0;
    format      ascii;
    class       volScalarField;
    location    "310";
    object      epsilon;
}
// * * * * * * * * * * * * * * * * * * * * * * * * * * * * * * * * * * * * * //

dimensions      [0 2 -3 0 0 0 0];

internalField   nonuniform List<scalar> 
459
(
0.000160459
0.00023345
0.000282579
0.000349809
0.000436921
0.000522023
0.000596804
0.000591229
0.00052711
0.000450898
0.000375411
0.00030698
0.000250795
0.00019812
0.000147876
3.37818e-05
7.06493e-05
9.98885e-05
0.000116593
0.000112671
0.000102603
8.59545e-05
7.05383e-05
5.82867e-05
4.87638e-05
4.13077e-05
3.53901e-05
3.06118e-05
2.66944e-05
2.33307e-05
2.02599e-05
1.72248e-05
1.33097e-05
9.9101e-06
0.000288297
0.000318468
0.000216891
0.000242856
0.000302831
0.000365363
0.000413328
0.000416387
0.000359042
0.000293875
0.000237524
0.000196013
0.000168527
0.000147653
0.000124832
0.000164397
0.000109091
9.05148e-05
0.000227215
0.000126668
0.000102692
9.04785e-05
8.14125e-05
8.14123e-05
6.70179e-05
5.35253e-05
4.27831e-05
3.44829e-05
2.80997e-05
2.31446e-05
1.92846e-05
1.63179e-05
1.46778e-05
1.56361e-05
1.35177e-05
1.48042e-05
0.000440612
0.000530592
0.00024338
0.000258633
0.000319823
0.000363502
0.000399035
0.000414461
0.000365032
0.000291508
0.00022633
0.000178959
0.000146933
0.000125035
0.000107386
0.000108702
0.000125364
0.000110893
0.00028119
0.000152023
0.00011248
9.48834e-05
8.89487e-05
0.000195304
0.000132726
9.25085e-05
6.65484e-05
4.94181e-05
3.78153e-05
2.9796e-05
2.4391e-05
2.10115e-05
1.57881e-05
1.52945e-05
1.61216e-05
1.91603e-05
0.000635484
0.000913334
0.000333283
0.000315436
0.000368863
0.000384348
0.000420585
0.000445814
0.00039594
0.000305286
0.000224025
0.000167893
0.000132197
0.000109765
9.51087e-05
9.02813e-05
9.73898e-05
0.000132525
0.000132972
0.000113195
0.000104745
0.000101112
9.63529e-05
9.69217e-05
0.000259502
0.000196721
0.000155052
0.000125296
0.000101856
8.22085e-05
6.51562e-05
5.00853e-05
3.6339e-05
2.00117e-05
1.52688e-05
2.63933e-05
2.69444e-05
0.000887224
0.00149535
0.000543361
0.000452052
0.000457525
0.000439267
0.000484075
0.000516896
0.00045556
0.000333522
0.000224858
0.000154968
0.00011611
9.62903e-05
8.69422e-05
8.50445e-05
9.60118e-05
0.000108877
0.000108042
0.000115355
0.000122807
0.000124106
0.000117545
0.000106937
0.000105859
9.99059e-05
9.38576e-05
8.63765e-05
7.64991e-05
6.47644e-05
5.20771e-05
3.94441e-05
2.7486e-05
1.78831e-05
1.38634e-05
2.80514e-05
3.21765e-05
3.84131e-05
3.5207e-05
2.98339e-05
0.00119911
0.00219194
0.00101845
0.000722813
0.000578971
0.000534405
0.000588846
0.000628198
0.000542525
0.00037076
0.000222975
0.000136609
9.95e-05
8.73241e-05
8.67163e-05
9.45393e-05
0.000114612
0.000136192
0.000154299
0.000167657
0.000171437
0.000163173
0.000145264
0.000123268
0.000105521
9.35589e-05
8.45698e-05
7.49751e-05
6.37638e-05
5.16296e-05
3.96671e-05
2.90661e-05
2.05646e-05
1.57575e-05
1.40751e-05
2.31721e-05
3.50911e-05
3.61594e-05
5.75521e-05
4.6149e-05
0.00143184
0.00261804
0.00171129
0.00103649
0.000734569
0.000669971
0.000743841
0.000786179
0.000654257
0.000406955
0.00021301
0.000119576
9.57644e-05
9.40375e-05
0.000103449
0.000122246
0.000152487
0.000185483
0.000210486
0.000219145
0.000210408
0.000187101
0.000155733
0.000122984
9.77635e-05
8.27461e-05
7.17283e-05
6.10459e-05
5.03082e-05
4.03185e-05
3.19506e-05
2.57753e-05
2.18753e-05
2.08243e-05
2.22305e-05
2.68708e-05
3.98004e-05
4.30712e-05
8.88553e-05
6.87401e-05
0.00144229
0.00252829
0.00163452
0.00109996
0.000852813
0.000844843
0.000968815
0.000999866
0.000777871
0.000417681
0.000205189
0.000140805
0.000127989
0.000133341
0.000149264
0.000175234
0.000212556
0.000245815
0.000262261
0.000253468
0.000223208
0.000183304
0.000144168
0.000112525
9.08774e-05
7.68756e-05
6.62665e-05
5.71579e-05
4.94074e-05
4.34426e-05
3.96637e-05
3.83258e-05
3.9606e-05
4.40789e-05
5.3012e-05
6.67984e-05
9.49571e-05
0.000153849
0.000295096
8.45281e-05
0.00132707
0.00187838
0.00133968
0.000976544
0.000923485
0.00109278
0.00130601
0.00125939
0.000845681
0.000416315
0.000269682
0.00023077
0.000226998
0.000236277
0.000253576
0.000277044
0.00030239
0.000317162
0.000311651
0.000285941
0.000247806
0.000208527
0.00017528
0.000150707
0.000134155
0.000123209
0.000115514
0.000109598
0.000104386
9.88761e-05
9.24608e-05
8.57659e-05
8.12552e-05
8.26451e-05
9.32614e-05
0.000115331
0.000150661
0.000199607
0.00025353
0.000244581
0.000213195
0.000796566
0.00143032
0.00183487
0.00186033
0.00117486
0.000684357
0.000528743
0.000495683
0.000497722
0.000506946
0.00051697
0.000526881
0.000535268
0.000538563
0.000531918
0.000514452
0.000489932
0.000463871
0.00044089
0.000423353
0.000411935
0.000406304
0.000405619
0.00040859
0.000412993
0.000415167
0.000410039
0.000392181
0.00035823
0.000310301
0.00025848
0.000218806
0.000204759
0.000217763
0.000254826
0.000318308
0.000517244
0.00448615
0.0070496
0.00567989
0.00375758
0.00233222
0.00148445
0.00117977
0.00111468
0.00113127
0.00116064
0.00118204
0.00119527
0.00120667
0.00122166
0.00124147
0.00126257
0.00127854
0.00128538
0.00128359
0.0012774
0.00127174
0.00127104
0.00127891
0.00129787
0.00132859
0.00136881
0.00141186
0.00144556
0.00145215
0.00141048
0.00130241
0.00112505
0.000903712
0.000687734
0.000514055
0.000458898
0.000980674
0.000819566
0.0014466
0.00179759
0.00228305
0.00257719
0.00217654
0.00178055
0.00145939
0.0012258
0.00108084
0.00101159
0.000984121
0.000976196
0.00097789
0.000984681
0.000993353
0.00100052
0.00100271
0.000997586
0.000985592
0.000969575
0.000953097
0.000938951
0.000928723
0.000922984
0.000921552
0.000923607
0.000927623
0.000931217
0.000931068
0.000923109
0.000903106
0.000867683
0.000815784
0.000749893
0.000675316
0.000596479
0.000513268
0.000461667
0.000501048
0.000455339
)
;

boundaryField
{
    floor
    {
        Cmu             0.09;
        kappa           0.41;
        E               9.8;
        type            epsilonWallFunction;
        value           nonuniform List<scalar> 
29
(
0.000147876
3.37818e-05
7.06493e-05
9.98885e-05
0.000116593
0.000112671
0.000102603
8.59545e-05
7.05383e-05
5.82867e-05
4.87638e-05
4.13077e-05
3.53901e-05
3.06118e-05
2.66944e-05
2.33307e-05
2.02599e-05
1.72248e-05
1.33097e-05
9.9101e-06
9.9101e-06
1.48042e-05
1.91603e-05
2.69444e-05
0.000147876
3.37818e-05
9.05148e-05
0.000110893
0.000132525
)
;
    }
    ceiling
    {
        Cmu             0.09;
        kappa           0.41;
        E               9.8;
        type            epsilonWallFunction;
        value           nonuniform List<scalar> 
43
(
0.0014466
0.00179759
0.00228305
0.00257719
0.00217654
0.00178055
0.00145939
0.0012258
0.00108084
0.00101159
0.000984121
0.000976196
0.00097789
0.000984681
0.000993353
0.00100052
0.00100271
0.000997586
0.000985592
0.000969575
0.000953097
0.000938951
0.000928723
0.000922984
0.000921552
0.000923607
0.000927623
0.000931217
0.000931068
0.000923109
0.000903106
0.000867683
0.000815784
0.000749893
0.000675316
0.000596479
0.000513268
0.000461667
0.000501048
0.000455339
0.00132707
0.00187838
0.00448615
)
;
    }
    sWall
    {
        Cmu             0.09;
        kappa           0.41;
        E               9.8;
        type            epsilonWallFunction;
        value           uniform 0.0014466;
    }
    nWall
    {
        Cmu             0.09;
        kappa           0.41;
        E               9.8;
        type            epsilonWallFunction;
        value           nonuniform List<scalar> 6(2.98339e-05 4.6149e-05 6.87401e-05 0.000517244 0.000819566 0.000455339);
    }
    sideWalls
    {
        type            empty;
    }
    glass1
    {
        Cmu             0.09;
        kappa           0.41;
        E               9.8;
        type            epsilonWallFunction;
        value           nonuniform List<scalar> 9(0.000160459 0.000288297 0.000440612 0.000635484 0.000887224 0.00119911 0.00143184 0.00144229 0.00132707);
    }
    glass2
    {
        Cmu             0.09;
        kappa           0.41;
        E               9.8;
        type            epsilonWallFunction;
        value           nonuniform List<scalar> 2(8.45281e-05 0.000244581);
    }
    sun
    {
        Cmu             0.09;
        kappa           0.41;
        E               9.8;
        type            epsilonWallFunction;
        value           nonuniform List<scalar> 
14
(
0.000160459
0.00023345
0.000282579
0.000349809
0.000436921
0.000522023
0.000596804
0.000591229
0.00052711
0.000450898
0.000375411
0.00030698
0.000250795
0.00019812
)
;
    }
    heatsource1
    {
        Cmu             0.09;
        kappa           0.41;
        E               9.8;
        type            epsilonWallFunction;
        value           nonuniform List<scalar> 3(3.84131e-05 3.5207e-05 2.98339e-05);
    }
    heatsource2
    {
        Cmu             0.09;
        kappa           0.41;
        E               9.8;
        type            epsilonWallFunction;
        value           nonuniform List<scalar> 4(0.000164397 0.000109091 0.000109091 0.000125364);
    }
    Table_master
    {
        Cmu             0.09;
        kappa           0.41;
        E               9.8;
        type            epsilonWallFunction;
        value           nonuniform List<scalar> 9(0.000195304 0.000132726 9.25085e-05 6.65484e-05 4.94181e-05 3.78153e-05 2.9796e-05 2.4391e-05 2.10115e-05);
    }
    Table_slave
    {
        Cmu             0.09;
        kappa           0.41;
        E               9.8;
        type            epsilonWallFunction;
        value           nonuniform List<scalar> 9(0.000259502 0.000196721 0.000155052 0.000125296 0.000101856 8.22085e-05 6.51562e-05 5.00853e-05 3.6339e-05);
    }
    inlet
    {
        type            turbulentMixingLengthDissipationRateInlet;
        mixingLength    0.01;
        phi             phi;
        k               k;
        value           uniform 0.000101881;
    }
    outlet
    {
        type            zeroGradient;
    }
}


// ************************************************************************* //
