/*--------------------------------*- C++ -*----------------------------------*\
  =========                 |
  \\      /  F ield         | OpenFOAM: The Open Source CFD Toolbox
   \\    /   O peration     | Website:  https://openfoam.org
    \\  /    A nd           | Version:  6
     \\/     M anipulation  |
\*---------------------------------------------------------------------------*/
FoamFile
{
    version     2.0;
    format      ascii;
    class       volScalarField;
    location    "310";
    object      nut;
}
// * * * * * * * * * * * * * * * * * * * * * * * * * * * * * * * * * * * * * //

dimensions      [0 2 -1 0 0 0 0];

internalField   nonuniform List<scalar> 
459
(
0.000768211
0.00087047
0.000927684
0.000996075
0.00107271
0.00113828
0.00119024
0.0011866
0.00114206
0.00108413
0.00101989
0.000953709
0.000891554
0.000824164
0.000747595
0.000457009
0.000584435
0.000655955
0.000690655
0.000682823
0.000661849
0.000623918
0.000584134
0.000548142
0.000516499
0.000488705
0.000464155
0.000442247
0.000422514
0.000403965
0.000385401
0.000365105
0.000335034
0.000303662
0.000933902
0.0026002
0.00282119
0.00325596
0.00354071
0.00376299
0.00401806
0.00432632
0.00430004
0.00408498
0.00376722
0.00334129
0.00274684
0.00207947
0.00140046
0.000774486
0.000675525
0.000634756
0.00203733
0.00202348
0.00228074
0.0025027
0.00246096
0.00178229
0.00149065
0.00130049
0.0011628
0.00105835
0.000976839
0.000910629
0.000841777
0.000764181
0.000689298
0.000643493
0.000534874
0.00034713
0.00107573
0.00370217
0.00365883
0.00381244
0.00382613
0.00379743
0.00403915
0.00456049
0.00479538
0.00474952
0.00453908
0.00422642
0.00372451
0.00303769
0.00223621
0.00144425
0.000707584
0.000679209
0.00215476
0.00217746
0.00263532
0.00306351
0.00294606
0.000820245
0.000721148
0.00063939
0.000572906
0.000518799
0.000474525
0.000438284
0.000409996
0.000390111
0.000441198
0.000547844
0.000600142
0.000378294
0.00121538
0.0045743
0.00419177
0.00407639
0.00375142
0.00347698
0.0037563
0.00439386
0.00480145
0.00486088
0.00470605
0.00446432
0.004104
0.00356674
0.00285638
0.00204856
0.00117062
0.00072082
0.00105186
0.00161694
0.0024918
0.00334347
0.00389708
0.00367198
0.000901751
0.000822224
0.000759507
0.000707433
0.000660243
0.000614727
0.000568894
0.000521138
0.000468286
0.000435675
0.000504705
0.000701146
0.000423821
0.00135838
0.00547805
0.00488291
0.00447512
0.00372205
0.00327267
0.0036181
0.00435085
0.00487629
0.00498003
0.00481247
0.00457124
0.00430127
0.00391766
0.00338986
0.00276671
0.00214715
0.00204169
0.00254018
0.00336291
0.00420077
0.00483562
0.00517334
0.00511415
0.00426401
0.00375932
0.0033788
0.00299389
0.00260255
0.00220518
0.00180173
0.00139586
0.000998536
0.000696237
0.000598013
0.000768483
0.000615299
0.000476995
0.000463342
0.000438468
0.00150187
0.0063691
0.0058995
0.00482541
0.00363141
0.00318576
0.00360109
0.00445205
0.00507667
0.00519412
0.00500467
0.00480798
0.0046474
0.00441274
0.00410517
0.00379991
0.00363552
0.00402631
0.00477327
0.0054571
0.00595185
0.00620522
0.00622065
0.00601014
0.00555286
0.00503341
0.00446576
0.00389012
0.0033187
0.00275895
0.00221721
0.00170691
0.00125935
0.000950605
0.000814349
0.000873899
0.000848613
0.000764621
0.000863723
0.000507108
0.00159337
0.00670053
0.00647609
0.00462714
0.00338293
0.00308391
0.00367462
0.00468644
0.00539255
0.00550145
0.00535825
0.0053535
0.0052529
0.00512756
0.00504218
0.00506755
0.00531073
0.00589018
0.00648792
0.00685126
0.00698128
0.00688868
0.00661513
0.00620031
0.00565129
0.00505021
0.00443899
0.00383546
0.00325582
0.00271827
0.00224058
0.00183798
0.00152092
0.00129545
0.00118595
0.00115248
0.00111938
0.00102832
0.00115161
0.000579128
0.00159726
0.00514659
0.00443564
0.00332215
0.00273359
0.00292819
0.00386906
0.00508611
0.00582103
0.00589721
0.00583046
0.00572596
0.00563283
0.00564343
0.00577232
0.00602652
0.00642193
0.00687602
0.0071828
0.00723168
0.00703707
0.00663319
0.00608808
0.00547754
0.00487076
0.00429232
0.00374163
0.00322322
0.00275362
0.00235188
0.00202886
0.00178221
0.00159848
0.00146534
0.00137117
0.00127036
0.0011972
0.00115975
0.00131747
0.000620471
0.00155356
0.00174438
0.00170555
0.00164032
0.0020032
0.00295059
0.00437273
0.00574386
0.00632835
0.00630826
0.00599424
0.00573894
0.00568385
0.0057892
0.00599908
0.00627255
0.00655522
0.00673228
0.00669868
0.0064263
0.0059594
0.00538096
0.00477828
0.00422054
0.0037429
0.00334143
0.00299843
0.00270411
0.00245257
0.00223247
0.00202656
0.00182007
0.00161112
0.00141773
0.00126964
0.00117881
0.00113717
0.0011226
0.00109995
0.000883976
0.000243678
0.0012771
0.00275652
0.00433899
0.00573792
0.00665429
0.00651896
0.00613956
0.00586203
0.00576872
0.0057969
0.00588051
0.00597967
0.00605894
0.00607329
0.00597244
0.00574323
0.00541915
0.00505735
0.00471088
0.00441262
0.00417442
0.00399241
0.00385466
0.00374767
0.00365663
0.00356197
0.00343875
0.00326179
0.00301596
0.00270778
0.00237098
0.00205482
0.00179946
0.00162164
0.00153525
0.00152469
0.00113478
0.00233175
0.00734763
0.00786291
0.00755231
0.00707044
0.00655975
0.00608199
0.00580101
0.00572463
0.0057415
0.00577831
0.00580736
0.00582115
0.00581479
0.00578028
0.00571013
0.00560581
0.00547979
0.00534898
0.00522826
0.00512692
0.00504935
0.00499668
0.00496768
0.00495826
0.0049596
0.00495626
0.00492563
0.00483952
0.00466805
0.00438726
0.00399291
0.00351752
0.00303099
0.00260084
0.00234605
0.00279328
0.00132291
0.001599
0.00171908
0.00186168
0.00193843
0.00183227
0.00171363
0.00160369
0.00151308
0.00145089
0.00141918
0.0014062
0.00140241
0.00140322
0.00140646
0.00141057
0.00141396
0.00141499
0.00141258
0.00140689
0.00139923
0.00139126
0.00138435
0.00137931
0.00137646
0.00137575
0.00137677
0.00137876
0.00138054
0.00138046
0.0013765
0.00136648
0.00134836
0.00132091
0.00128433
0.00124026
0.00118999
0.00113186
0.00109257
0.00112279
0.00108757
)
;

boundaryField
{
    floor
    {
        type            nutkWallFunction;
        Cmu             0.09;
        kappa           0.41;
        E               9.8;
        value           nonuniform List<scalar> 
29
(
9.05465e-05
5.42211e-05
7.04177e-05
7.9314e-05
8.35874e-05
8.2625e-05
8.00412e-05
7.53436e-05
7.03793e-05
6.58527e-05
6.18428e-05
5.82958e-05
5.51419e-05
5.23099e-05
4.9744e-05
4.73182e-05
4.48762e-05
4.21893e-05
3.81724e-05
3.39317e-05
3.39316e-05
3.97926e-05
4.39361e-05
4.99129e-05
9.05465e-05
5.42211e-05
7.66898e-05
8.21808e-05
8.72787e-05
)
;
    }
    ceiling
    {
        type            nutkWallFunction;
        Cmu             0.09;
        kappa           0.41;
        E               9.8;
        value           nonuniform List<scalar> 
43
(
0.000189174
0.000202519
0.000218237
0.000226647
0.000215014
0.000201925
0.000189707
0.000179571
0.000172575
0.000168998
0.000167531
0.000167103
0.000167195
0.000167562
0.000168028
0.000168412
0.000168528
0.000168256
0.000167612
0.000166745
0.000165842
0.000165057
0.000164485
0.000164162
0.000164081
0.000164197
0.000164422
0.000164624
0.000164615
0.000164167
0.000163029
0.000160971
0.000157847
0.000153672
0.000148623
0.000142838
0.000136116
0.000131551
0.000135066
0.000130969
0.000184087
0.0002053
0.000269172
)
;
    }
    sWall
    {
        type            nutkWallFunction;
        Cmu             0.09;
        kappa           0.41;
        E               9.8;
        value           uniform 0.000189185;
    }
    nWall
    {
        type            nutkWallFunction;
        Cmu             0.09;
        kappa           0.41;
        E               9.8;
        value           nonuniform List<scalar> 6(5.18034e-05 6.06334e-05 6.97428e-05 0.000136461 0.000158086 0.000130974);
    }
    sideWalls
    {
        type            empty;
    }
    glass1
    {
        type            nutkWallFunction;
        Cmu             0.09;
        kappa           0.41;
        E               9.8;
        value           nonuniform List<scalar> 9(9.30507e-05 0.000112915 0.000129593 0.000145771 0.000162121 0.000178334 0.000188581 0.000189014 0.000184128);
    }
    glass2
    {
        type            nutkWallFunction;
        Cmu             0.09;
        kappa           0.41;
        E               9.8;
        value           nonuniform List<scalar> 2(7.49012e-05 0.000106988);
    }
    sun
    {
        type            nutkWallFunction;
        Cmu             0.09;
        kappa           0.41;
        E               9.8;
        value           nonuniform List<scalar> 
14
(
9.30513e-05
0.000105356
0.000112166
0.000120244
0.00012922
0.000136841
0.000142844
0.000142419
0.000137272
0.000130544
0.000123036
0.000115244
0.000107869
9.98043e-05
)
;
    }
    heatsource1
    {
        type            nutkWallFunction;
        Cmu             0.09;
        kappa           0.41;
        E               9.8;
        value           nonuniform List<scalar> 3(5.67867e-05 5.50286e-05 5.18087e-05);
    }
    heatsource2
    {
        type            nutkWallFunction;
        Cmu             0.09;
        kappa           0.41;
        E               9.8;
        value           nonuniform List<scalar> 4(9.38079e-05 8.17262e-05 8.17262e-05 8.56605e-05);
    }
    Table_master
    {
        type            nutkWallFunction;
        Cmu             0.09;
        kappa           0.41;
        E               9.8;
        value           nonuniform List<scalar> 9(9.9334e-05 8.73207e-05 7.72613e-05 6.89669e-05 6.21299e-05 5.64698e-05 5.17876e-05 4.8099e-05 4.54869e-05);
    }
    Table_slave
    {
        type            nutkWallFunction;
        Cmu             0.09;
        kappa           0.41;
        E               9.8;
        value           nonuniform List<scalar> 9(0.000109087 9.95724e-05 9.19925e-05 8.56425e-05 7.98396e-05 7.4195e-05 6.84596e-05 6.24231e-05 5.56619e-05);
    }
    inlet
    {
        type            calculated;
        value           uniform 0.000100623;
    }
    outlet
    {
        type            calculated;
        value           nonuniform List<scalar> 2(0.001599 0.00171908);
    }
}


// ************************************************************************* //
