/*--------------------------------*- C++ -*----------------------------------*\
  =========                 |
  \\      /  F ield         | OpenFOAM: The Open Source CFD Toolbox
   \\    /   O peration     | Website:  https://openfoam.org
    \\  /    A nd           | Version:  6
     \\/     M anipulation  |
\*---------------------------------------------------------------------------*/
FoamFile
{
    version     2.0;
    format      ascii;
    class       surfaceScalarField;
    location    "310";
    object      phi;
}
// * * * * * * * * * * * * * * * * * * * * * * * * * * * * * * * * * * * * * //

dimensions      [1 0 -1 0 0 0 0];

internalField   nonuniform List<scalar> 
852
(
-0.00162404
0.00163484
-0.00238952
0.000765446
-0.00273345
0.000343892
-0.00268002
-5.34574e-05
-0.00215928
-0.000520786
-0.00114569
-0.00101363
0.000221873
-0.00136763
0.00137903
-0.0011572
0.00221278
-0.000833804
0.00272365
-0.00051092
0.0029409
-0.000217299
0.00287961
6.12467e-05
0.00252024
0.000359314
0.00172818
0.000792004
0.00172647
-0.000203414
0.000200423
-0.000422847
0.000219359
-6.40784e-05
-0.000358841
0.000507986
-0.000572136
0.000992094
-0.00048418
0.00134172
-0.000349695
0.00154054
-0.000198898
0.0016361
-9.5638e-05
0.00169182
-5.57964e-05
0.00172991
-3.81697e-05
0.00175498
-2.5149e-05
0.00176765
-1.27429e-05
0.00176322
4.34868e-06
0.00172747
3.56689e-05
0.00162805
9.93394e-05
0.001409
0.000218965
0.00101784
0.000391076
0.000361403
0.000656352
0.000357278
-0.00122119
0.00288677
-0.00187001
0.00141424
-0.00220367
0.00067752
-0.00216917
-8.79914e-05
-0.00171764
-0.000972346
-0.000885759
-0.00184554
0.000103327
-0.00235678
0.00102824
-0.00208218
0.00172722
-0.00153285
0.00217691
-0.000960678
0.00239572
-0.000436169
0.00241792
3.89915e-05
0.00228667
0.000490496
0.00213233
0.000946288
0.00245253
0.00140622
0.00118707
0.00126535
0.00118696
-7.33507e-05
0.000266713
0.000264321
-0.000118386
0.000687011
-0.000781601
0.00102333
-0.000908522
0.00131535
-0.000776273
0.001524
-0.00055842
0.00157178
-0.000246744
0.00158298
-0.000106911
0.00159414
-6.70349e-05
0.00160364
-4.77506e-05
0.00161051
-3.20927e-05
0.00161513
-1.7444e-05
0.00161564
3.76121e-06
0.001606
4.52224e-05
0.00155403
0.000151223
0.00135129
0.000421621
0.00101138
0.000730906
0.000572472
0.00109517
0.000918417
-0.000913572
0.00384931
-0.00143652
0.00193716
-0.00173159
0.000972566
-0.00170832
-0.000111289
-0.00130506
-0.00137563
-0.000611894
-0.00253874
0.000129017
-0.00309775
0.000831615
-0.00278486
0.00138548
-0.0020868
0.00174447
-0.00131975
0.00192835
-0.000620124
0.0019828
-1.55224e-05
0.00196197
0.000511262
0.0019219
0.000986289
0.00186722
0.00146084
0.00135142
0.00178109
0.00253832
0.000175875
7.99751e-05
0.00101906
-0.000961641
0.00134894
-0.00111154
0.00150631
-0.00106596
0.0016295
-0.000899527
0.00178257
-0.000711563
0.00153591
0.00142908
0.00136212
0.00131445
0.00128243
0.00126506
0.0012689
0.00131419
0.00146549
0.00123846
0.000648565
0.00100275
0.000966532
0.000692326
0.00140551
0.00159282
-0.000682347
0.0045973
-0.00106684
0.00232162
-0.00127355
0.00117926
-0.00119799
-0.000186878
-0.000798812
-0.00177482
-0.000241152
-0.00309642
0.000278323
-0.00361729
0.000767208
-0.00327384
0.001149
-0.00246869
0.00138017
-0.00155102
0.00148562
-0.000725668
0.00151969
-4.96669e-05
0.00153554
0.000495341
0.00157306
0.000948699
0.00168023
0.00135362
0.00188035
0.00158091
0.0027708
0.00164782
0.00211017
0.000649625
0.00238302
-0.000192933
0.00211859
-0.000697276
0.00196315
-0.00095617
0.00184154
-0.000944421
0.00173618
-0.000794242
0.00157917
-0.000554621
0.00177587
-0.000196929
0.00182086
-4.52265e-05
0.00180299
1.76447e-05
0.00174727
5.54808e-05
0.00166124
8.57995e-05
0.00154545
0.000115554
0.00139206
0.000153145
0.00118048
0.000211338
0.000862908
0.000317332
0.000899792
0.000611595
0.000893805
0.000972433
0.000877707
0.00142152
0.00244709
-0.000506415
0.00518455
-0.000748424
0.00256361
-0.000785002
0.00121581
-0.000533262
-0.000438638
-0.000111335
-0.00219676
0.000263359
-0.00347113
0.000556104
-0.00391009
0.000811878
-0.00352972
0.00098273
-0.00263967
0.0010438
-0.0016122
0.00103414
-0.000716114
0.00101613
-3.17345e-05
0.00104989
0.0004615
0.00117131
0.00082721
0.00141996
0.00110491
0.00177765
0.00122315
0.00225765
0.00116776
0.00240905
0.000498169
0.00235692
-0.000140866
0.00218007
-0.000520489
0.00193026
-0.000706433
0.00169011
-0.000704338
0.00147594
-0.00058015
0.00130144
-0.000380198
0.00124617
-0.000141743
0.00117804
2.28222e-05
0.00109008
0.000105525
0.0010012
0.000144285
0.000916549
0.000170362
0.000833974
0.000198044
0.000749428
0.000237602
0.000660923
0.000299753
0.000592206
0.000385958
0.000658197
0.000545514
0.000894136
0.000736408
0.00151148
0.000804093
0.00269838
0.0012601
0.00183083
0.000867251
0.00114729
0.000683247
0.00116784
-0.000401245
0.0056805
-0.000452157
0.00261449
-0.000122649
0.000886279
0.000370636
-0.000931937
0.000744156
-0.00257028
0.000911996
-0.00363898
0.000961655
-0.00395981
0.000941368
-0.00350955
0.000850519
-0.00254896
0.000695547
-0.00145736
0.000541273
-0.000561948
0.000462243
4.72051e-05
0.00050926
0.000414411
0.000673248
0.000663156
0.000946101
0.000831991
0.00129018
0.000879009
0.00169703
0.000760848
0.00187317
0.000321958
0.00181679
-8.45514e-05
0.00164231
-0.000346075
0.00139398
-0.000458184
0.00113088
-0.000441321
0.000886626
-0.000335973
0.00068207
-0.000175725
0.000536314
3.92834e-06
0.000431172
0.000127881
0.000351428
0.000185184
0.000286756
0.000208871
0.000236441
0.000220591
0.000203061
0.000231335
0.000192071
0.000248502
0.000213237
0.000278494
0.000278818
0.000320284
0.000446342
0.0003779
0.000726432
0.00045623
0.00106724
0.0004632
0.00150248
0.000824773
0.00145627
0.000913374
0.000952492
0.00118693
0.00214322
-0.000211557
0.00600049
8.10511e-05
0.00232186
0.000920661
4.66459e-05
0.00153795
-0.00154923
0.00178427
-0.0028166
0.00172739
-0.00358211
0.00146577
-0.00369827
0.00109605
-0.00313996
0.000683507
-0.00213659
0.000279725
-0.00105373
-1.59931e-06
-0.000280735
-9.81312e-05
0.000143656
-3.50659e-05
0.000351274
0.000140925
0.000487096
0.000399867
0.000572981
0.000699892
0.000578917
0.000993028
0.000467642
0.0011023
0.000212609
0.00103572
-1.80443e-05
0.000857779
-0.000168218
0.000618136
-0.000218627
0.000359873
-0.000183144
0.000114445
-9.06328e-05
-9.13376e-05
2.99692e-05
-0.00022633
0.000138833
-0.000300327
0.00020179
-0.000346067
0.000230837
-0.000373771
0.000236487
-0.000380674
0.000227404
-0.000359292
0.000209863
-0.00030076
0.00018988
-0.000195807
0.00017345
-3.89611e-05
0.000163349
0.000169453
0.000169394
0.0004003
0.000225297
0.000585518
0.000277895
0.000933163
0.000477041
0.0012483
0.000598147
0.00106224
0.0013729
0.00322993
0.00150622
0.00461738
0.00220388
0.00162417
0.00283534
-0.000584836
0.00321016
-0.00192404
0.0031445
-0.00275093
0.0026779
-0.00311552
0.00195567
-0.00297612
0.00112466
-0.0023091
0.000330215
-0.00134233
-0.000269145
-0.000454525
-0.000567823
1.78343e-05
-0.000631866
0.000207617
-0.000567985
0.000287316
-0.000421025
0.00034006
-0.000220301
0.000372179
-5.32134e-06
0.000363858
0.000163867
0.000298372
0.000198652
0.000177738
0.000113394
6.71232e-05
-5.82031e-05
3.28768e-06
-0.000277339
4.15339e-07
-0.000500234
3.96569e-05
-0.000690565
9.96045e-05
-0.000822859
0.000162171
-0.000896987
0.00021287
-0.000937049
0.000241761
-0.000955074
0.00024877
-0.000954089
0.000235412
-0.000930821
0.000204045
-0.000880145
0.000159097
-0.000798797
0.000108444
-0.000689231
6.37998e-05
-0.000566926
4.09644e-05
-0.000462892
6.52866e-05
-0.00040871
0.000171043
-0.000484174
0.000353286
-0.000634513
0.000627299
-0.000996709
0.000960255
-0.00123251
0.00160861
0.00208896
0.00473871
0.00634792
0.00605537
-0.000292266
0.00551326
-0.0013819
0.0046112
-0.00184886
0.00338973
-0.0018941
0.00203227
-0.00161877
0.000649622
-0.000926649
-0.00042532
-0.000267603
-0.000997117
0.000117133
-0.0011985
0.000219116
-0.00122037
0.000229393
-0.00116285
0.000229708
-0.00106151
0.000238628
-0.000939648
0.000250224
-0.000827062
0.000251178
-0.000760543
0.000231756
-0.000774581
0.000191678
-0.000861121
0.000153563
-0.000992256
0.000134323
-0.00113154
0.000139597
-0.00125368
0.000161699
-0.00134519
0.000191022
-0.0014027
0.000219585
-0.00143126
0.000241325
-0.00144132
0.000251725
-0.00144131
0.000248669
-0.00143779
0.000231792
-0.00143748
0.000203639
-0.00144899
0.000170505
-0.0014831
0.000142457
-0.0015522
0.000132802
-0.00166986
0.000158528
-0.001848
0.00024332
-0.00209729
0.000420241
-0.00247837
0.00073426
-0.00307713
0.00122596
-0.00384486
0.00172787
-0.00383452
0.00159814
-0.00166169
0.00627723
-7.62458e-05
0.00517246
-0.000277193
0.0036774
-0.000353894
0.00199472
-0.000211556
0.000282763
9.29771e-05
-0.00103354
0.000389375
-0.00167405
0.000372738
-0.00186813
0.000311092
-0.00189668
0.000247564
-0.00186928
0.000201887
-0.00181918
0.000179502
-0.00175824
0.000177592
-0.00169557
0.000187446
-0.00164348
0.000198985
-0.00161555
0.00020372
-0.00162174
0.00019776
-0.00165526
0.00018698
-0.00170024
0.000179193
-0.00173953
0.000178785
-0.00176288
0.000184944
-0.00176686
0.000194898
-0.00175279
0.00020541
-0.00172486
0.000213288
-0.00168882
0.00021558
-0.00165046
0.000210212
-0.00161542
0.000196646
-0.00158874
0.000176849
-0.00157408
0.000155734
-0.00157294
0.000141209
-0.00158472
0.000144472
-0.00160742
0.000181126
-0.00163658
0.000272364
-0.00166193
0.000445487
-0.0016645
0.000736719
-0.00160883
0.00117018
-0.00126215
0.00138107
-0.000221804
0.00055768
-0.00186652
-0.00105674
0.000964574
-0.00156519
0.000231121
-0.00205988
0.000140658
-0.00247241
0.000200815
-0.00267608
0.00029649
-0.00266584
0.000378981
-0.00262966
0.000336425
-0.00257564
0.000256944
-0.00251794
0.00018975
-0.00246333
0.000147168
-0.0024105
0.000126558
-0.00235537
0.000122352
-0.00229643
0.000128393
-0.00223615
0.000138598
-0.0021799
0.000147357
-0.00213307
0.000150817
-0.00209571
0.00014951
-0.00206291
0.000146284
-0.00202795
0.00014372
-0.00198579
0.000142671
-0.00193388
0.000142876
-0.00187198
0.000143402
-0.00180176
0.000142956
-0.00172648
0.000140193
-0.00165062
0.000134236
-0.00157927
0.000125187
-0.00151709
0.000114553
-0.0014668
0.000105335
-0.00142752
0.00010182
-0.00139255
0.000109389
-0.00134632
0.000134774
-0.00126097
0.000186908
-0.00109134
0.000275736
-0.000749805
0.000395072
-5.98345e-05
0.000480098
0.000904009
0.000417111
0.00146898
-7.41413e-06
-0.000380549
-0.00511387
-0.00580049
-0.0048623
-0.00465789
-0.00454619
-0.00437684
-0.00411439
-0.00377186
-0.00347375
-0.0032562
-0.0031064
-0.0029995
-0.00291339
-0.0028316
-0.00274384
-0.00264596
-0.00253943
-0.0024296
-0.00232127
-0.00221634
-0.00211414
-0.00201308
-0.00191183
-0.00181002
-0.00170852
-0.00160961
-0.00151644
-0.00143208
-0.00135816
-0.00129333
-0.00123204
-0.00116339
-0.00106982
-0.000924836
-0.000692005
-0.000341091
9.31963e-05
0.000463054
0.000408821
)
;

boundaryField
{
    floor
    {
        type            calculated;
        value           nonuniform List<scalar> 
29
(
0
0
0
0
0
0
0
0
0
0
0
0
0
0
0
0
0
0
0
0
4.03845e-06
1.12443e-05
1.78319e-05
2.33466e-05
1.66037e-06
2.91265e-06
6.98377e-06
1.07881e-05
1.09439e-05
)
;
    }
    ceiling
    {
        type            calculated;
        value           nonuniform List<scalar> 
43
(
3.00235e-05
2.81117e-05
2.62329e-05
2.65734e-05
2.882e-05
3.13322e-05
3.39125e-05
3.6323e-05
3.81868e-05
3.92712e-05
3.98421e-05
4.01523e-05
4.03308e-05
4.04396e-05
4.05183e-05
4.06007e-05
4.07142e-05
4.08714e-05
4.10588e-05
4.12457e-05
4.13989e-05
4.1494e-05
4.15181e-05
4.14678e-05
4.1347e-05
4.11667e-05
4.0946e-05
4.07144e-05
4.0513e-05
4.03931e-05
4.04124e-05
4.06281e-05
4.10864e-05
4.18084e-05
4.27883e-05
4.40405e-05
4.56918e-05
4.71292e-05
4.66935e-05
4.86735e-05
1.68614e-05
1.49363e-05
1.57939e-05
)
;
    }
    sWall
    {
        type            calculated;
        value           uniform -2.33522e-05;
    }
    nWall
    {
        type            calculated;
        value           nonuniform List<scalar> 6(-2.08495e-05 -2.29723e-05 -2.4562e-05 -1.70937e-05 -1.71078e-05 -2.05252e-05);
    }
    sideWalls
    {
        type            empty;
        value           nonuniform 0();
    }
    glass1
    {
        type            calculated;
        value           nonuniform List<scalar> 9(-1.08303e-05 -3.07648e-05 -4.8997e-05 -6.56727e-05 -8.08584e-05 -9.47272e-05 -0.000108463 -0.000123126 -0.000138212);
    }
    glass2
    {
        type            calculated;
        value           nonuniform List<scalar> 2(-9.16344e-05 -8.3998e-05);
    }
    sun
    {
        type            calculated;
        value           uniform 0;
    }
    heatsource1
    {
        type            calculated;
        value           nonuniform List<scalar> 3(2.05403e-07 2.05766e-07 2.06042e-07);
    }
    heatsource2
    {
        type            calculated;
        value           nonuniform List<scalar> 4(5.15671e-08 5.17194e-08 0 0);
    }
    Table_master
    {
        type            calculated;
        value           nonuniform List<scalar> 9(-1.54497e-07 -1.54618e-07 -1.5465e-07 -1.54665e-07 -1.54671e-07 -1.5467e-07 -1.54661e-07 -1.54633e-07 -1.5457e-07);
    }
    Table_slave
    {
        type            calculated;
        value           nonuniform List<scalar> 9(1.54342e-07 1.54363e-07 1.54348e-07 1.54339e-07 1.54343e-07 1.54357e-07 1.54382e-07 1.54419e-07 1.54476e-07);
    }
    inlet
    {
        type            calculated;
        value           uniform -0.00649327;
    }
    outlet
    {
        type            calculated;
        value           nonuniform List<scalar> 2(0.00510705 0.000658366);
    }
}


// ************************************************************************* //
