/*--------------------------------*- C++ -*----------------------------------*\
  =========                 |
  \\      /  F ield         | OpenFOAM: The Open Source CFD Toolbox
   \\    /   O peration     | Website:  https://openfoam.org
    \\  /    A nd           | Version:  6
     \\/     M anipulation  |
\*---------------------------------------------------------------------------*/
FoamFile
{
    version     2.0;
    format      ascii;
    class       volScalarField;
    location    "600";
    object      alphat;
}
// * * * * * * * * * * * * * * * * * * * * * * * * * * * * * * * * * * * * * //

dimensions      [1 -1 -1 0 0 0 0];

internalField   nonuniform List<scalar> 
459
(
0.00135863
0.00149907
0.0015456
0.00162587
0.00170178
0.00177644
0.0018529
0.00190995
0.00193937
0.00193456
0.00189156
0.00180709
0.00167144
0.00142006
0.00114249
0.000481552
0.000557859
0.000626169
0.000666585
0.000651203
0.000596647
0.000503287
0.000421755
0.000371703
0.000344713
0.000327316
0.000314954
0.00030651
0.000301331
0.00030359
0.000325455
0.000427405
0.000588543
0.000490318
0.00178814
0.00456439
0.00449158
0.0052516
0.00602518
0.00673991
0.00725907
0.00773784
0.00814342
0.00843876
0.0085921
0.00856682
0.0083181
0.00766057
0.00585741
0.00146971
0.0010687
0.000518033
0.00114323
0.00173444
0.00220704
0.00249967
0.00249559
0.00185459
0.00155482
0.00138089
0.00127824
0.00122126
0.00118948
0.00116147
0.00112605
0.00108214
0.000987732
0.000927205
0.0011283
0.00057306
0.00213931
0.00620677
0.00563236
0.0067369
0.00733178
0.00778258
0.0081296
0.00851653
0.00893986
0.0093675
0.00975415
0.0100216
0.0101002
0.0098207
0.00890099
0.00631012
0.00149997
0.000667328
0.00108988
0.0015793
0.00215274
0.00263014
0.00269692
0.00092735
0.000797936
0.000698338
0.000622177
0.000563977
0.000519126
0.000483869
0.000455524
0.000435143
0.000548666
0.000677886
0.00120054
0.000720593
0.00247178
0.00771887
0.00571802
0.00699998
0.0073266
0.00747889
0.00766817
0.00797775
0.00840259
0.00891413
0.00945741
0.00989978
0.0101676
0.0102163
0.0099013
0.00864636
0.00494696
0.00169786
0.00176475
0.00206019
0.00252091
0.00305606
0.00352783
0.00356212
0.00114516
0.00105941
0.000992044
0.000937029
0.000889781
0.000845786
0.000803314
0.000759712
0.000711343
0.000687956
0.000723447
0.00114066
0.00076429
0.00281174
0.00964911
0.0062009
0.00691395
0.00722056
0.00718893
0.00729218
0.00753921
0.00795729
0.00850569
0.00908559
0.00957095
0.00987762
0.00998558
0.0098854
0.00942111
0.00804882
0.00653376
0.00619768
0.00612028
0.00618196
0.00627545
0.00632414
0.00622048
0.00554584
0.00511702
0.00480888
0.00456124
0.00433351
0.00408282
0.00372556
0.00325365
0.00268716
0.00213028
0.00169641
0.00140261
0.00129635
0.000829678
0.000844637
0.000878058
0.00317664
0.0118063
0.00826743
0.00724381
0.00754502
0.00736504
0.00732664
0.0074452
0.00781498
0.00838842
0.00901382
0.00951773
0.00979345
0.0098442
0.00975552
0.0095977
0.00930984
0.00899935
0.00893279
0.00890207
0.00882595
0.00868891
0.00849057
0.0082228
0.00783199
0.00741754
0.00701165
0.00661486
0.00620562
0.00575466
0.00524801
0.00468787
0.00408467
0.00347414
0.00292139
0.00245411
0.00219673
0.00205995
0.00230416
0.00113275
0.00350212
0.0132702
0.0112362
0.00919787
0.00858464
0.00790679
0.00750945
0.00752531
0.00793849
0.00860881
0.00931147
0.00983075
0.010059
0.0100445
0.00996058
0.00999832
0.0102042
0.0104112
0.0105366
0.0105142
0.0103384
0.0100403
0.00965783
0.00921805
0.00872648
0.00820657
0.00766559
0.00709503
0.00647766
0.0058531
0.00529915
0.00487936
0.00457431
0.00429503
0.00399186
0.00374985
0.00357178
0.00327946
0.00318668
0.0013463
0.00356044
0.0114433
0.0104172
0.00929814
0.00820977
0.00745345
0.00723906
0.00757476
0.00832485
0.00924263
0.0100395
0.0105079
0.0106127
0.0105199
0.0105012
0.0107816
0.0111357
0.0113296
0.0113233
0.0111274
0.0107749
0.0103068
0.00976001
0.00915636
0.00849856
0.00778236
0.00701096
0.00623996
0.00558714
0.0051225
0.00487593
0.00480294
0.00484851
0.00495524
0.00503008
0.00503344
0.00478321
0.0039649
0.00394748
0.00143987
0.00346465
0.00409155
0.00445114
0.00455433
0.00484614
0.00556684
0.00670264
0.00810262
0.0095121
0.010637
0.0112475
0.0113183
0.0110782
0.0110712
0.0111771
0.0112833
0.0113482
0.0112737
0.0110346
0.0106397
0.0101164
0.00949908
0.00881605
0.0080796
0.00728512
0.00643329
0.00557966
0.00485608
0.00437249
0.0041127
0.0039656
0.00384689
0.00371127
0.00354113
0.00333568
0.00308088
0.00274726
0.00241826
0.00215431
0.00139575
0.00144137
0.00355188
0.0071019
0.00961002
0.0112781
0.0122783
0.0126748
0.0125502
0.0121016
0.0114129
0.0108572
0.0106319
0.0105477
0.0104132
0.0101978
0.00988086
0.00944871
0.00891026
0.00829551
0.00764212
0.00698246
0.00633804
0.00572305
0.00515536
0.00466647
0.00429486
0.00405902
0.00393891
0.00388991
0.0038691
0.00384277
0.00378745
0.00368715
0.00352791
0.00329233
0.00296404
0.00248804
0.00128965
0.00221484
0.0076266
0.010479
0.0116265
0.0119236
0.0116867
0.0110827
0.0103168
0.00960053
0.0089746
0.0084896
0.00812838
0.00782008
0.00753597
0.00726168
0.00697027
0.00664487
0.00629004
0.00592386
0.00556588
0.00523059
0.00492737
0.00466364
0.00444752
0.00428785
0.00419088
0.00415479
0.00416567
0.00419846
0.00422195
0.00420589
0.00412975
0.00398551
0.00377275
0.00345111
0.00301513
0.0024015
0.00134177
0.00206171
0.00219631
0.00229138
0.00252044
0.0024467
0.00238151
0.00230571
0.00218471
0.00202974
0.00186148
0.00169851
0.00156067
0.00145863
0.00138789
0.00133872
0.00130269
0.00127352
0.00124709
0.00122153
0.00119675
0.00117344
0.00115243
0.00113448
0.00112023
0.0011103
0.00110533
0.0011059
0.00111239
0.00112488
0.00114308
0.00116656
0.00119481
0.00122686
0.00126171
0.00129465
0.00130336
0.00125903
0.00113907
0.00109286
0.00133395
)
;

boundaryField
{
    floor
    {
        type            compressible::alphatWallFunction;
        Prt             0.85;
        value           nonuniform List<scalar> 
29
(
0.00016224
6.64317e-05
7.80593e-05
8.83004e-05
9.42929e-05
9.20105e-05
8.38776e-05
6.97484e-05
5.71425e-05
4.9251e-05
4.49357e-05
4.21301e-05
4.01231e-05
3.87424e-05
3.78902e-05
3.82529e-05
4.18017e-05
5.79733e-05
8.27232e-05
6.77668e-05
6.7766e-05
8.03304e-05
0.000102263
0.000108683
0.000162238
6.64309e-05
7.20232e-05
9.44174e-05
0.000237448
)
;
    }
    ceiling
    {
        type            compressible::alphatWallFunction;
        Prt             0.85;
        value           nonuniform List<scalar> 
43
(
0.00028508
0.000302492
0.000314726
0.00034412
0.000334786
0.00032649
0.000316797
0.00030124
0.000281171
0.000259188
0.000237687
0.000219321
0.00020561
0.00019604
0.000189358
0.000184441
0.000180451
0.000176826
0.000173312
0.000169897
0.000166677
0.000163769
0.000161278
0.000159297
0.000157914
0.00015722
0.000157296
0.000158197
0.00015993
0.000162456
0.00016571
0.000169616
0.000174037
0.000178833
0.000183343
0.000184524
0.000178438
0.000161903
0.000155486
0.000188714
0.000462238
0.000538632
0.000304636
)
;
    }
    sWall
    {
        type            compressible::alphatWallFunction;
        Prt             0.85;
        value           uniform 0.00028389;
    }
    nWall
    {
        type            compressible::alphatWallFunction;
        Prt             0.85;
        value           nonuniform List<scalar> 6(0.000124841 0.000160742 0.000190092 0.000182374 0.000189469 0.000188406);
    }
    sideWalls
    {
        type            empty;
    }
    glass1
    {
        type            compressible::alphatWallFunction;
        Prt             0.85;
        value           nonuniform List<scalar> 9(0.000187447 0.000244201 0.000289596 0.000331914 0.00037462 0.000419899 0.000459879 0.000467132 0.000455655);
    }
    glass2
    {
        type            compressible::alphatWallFunction;
        Prt             0.85;
        value           nonuniform List<scalar> 2(0.000201648 0.000195809);
    }
    sun
    {
        type            compressible::alphatWallFunction;
        Prt             0.85;
        value           nonuniform List<scalar> 
14
(
0.000191915
0.00021089
0.000217136
0.000227863
0.000237954
0.000247829
0.000257897
0.000265379
0.000269228
0.000268598
0.00026297
0.000251871
0.000233926
0.000200247
)
;
    }
    heatsource1
    {
        type            compressible::alphatWallFunction;
        Prt             0.85;
        value           nonuniform List<scalar> 3(0.000118259 0.000120398 0.000125131);
    }
    heatsource2
    {
        type            compressible::alphatWallFunction;
        Prt             0.85;
        value           nonuniform List<scalar> 4(0.000207055 0.000152062 0.00015206 0.000211128);
    }
    Table_master
    {
        type            compressible::alphatWallFunction;
        Prt             0.85;
        value           nonuniform List<scalar> 9(0.000132142 0.000113591 9.90698e-05 8.7797e-05 7.90687e-05 7.22664e-05 6.68671e-05 6.24896e-05 5.93177e-05);
    }
    Table_slave
    {
        type            compressible::alphatWallFunction;
        Prt             0.85;
        value           nonuniform List<scalar> 9(0.000162704 0.000150759 0.000141295 0.000133509 0.000126778 0.000120473 0.00011435 0.000108025 0.000100957);
    }
    inlet
    {
        type            fixedValue;
        value           uniform 1.94e-05;
    }
    outlet
    {
        type            zeroGradient;
    }
}


// ************************************************************************* //
