// -*- C++ -*-
// File generated by PyFoam - sorry for the ugliness

FoamFile
{
 version 2.0;
 format ascii;
 class volScalarField;
 location "620";
 object T;
}

dimensions [ 0 0 0 1 0 0 0 ];

internalField nonuniform List<scalar> 459
(
  300.399
  300.416
  300.421
  300.424
  300.428
  300.461
  300.481
  300.496
  300.506
  300.512
  300.514
  300.516
  300.517
  300.518
  300.51
  300.63
  300.664
  300.682
  300.696
  300.706
  300.713
  300.719
  300.723
  300.728
  300.732
  300.736
  300.74
  300.744
  300.748
  300.752
  300.756
  300.761
  300.766
  300.764
  300.412
  300.423
  300.424
  300.422
  300.424
  300.462
  300.5
  300.531
  300.552
  300.564
  300.57
  300.57
  300.567
  300.557
  300.54
  300.544
  300.551
  300.664
  300.672
  300.682
  300.699
  300.716
  300.731
  300.741
  300.751
  300.76
  300.769
  300.777
  300.786
  300.794
  300.801
  300.806
  300.807
  300.804
  300.797
  300.81
  300.416
  300.422
  300.417
  300.408
  300.412
  300.456
  300.512
  300.561
  300.594
  300.612
  300.618
  300.617
  300.609
  300.595
  300.576
  300.566
  300.562
  300.646
  300.65
  300.671
  300.698
  300.724
  300.745
  300.753
  300.762
  300.772
  300.782
  300.793
  300.804
  300.815
  300.826
  300.833
  300.835
  300.831
  300.821
  300.827
  300.418
  300.418
  300.409
  300.394
  300.401
  300.45
  300.524
  300.592
  300.64
  300.664
  300.67
  300.665
  300.651
  300.632
  300.608
  300.59
  300.577
  300.584
  300.604
  300.632
  300.673
  300.716
  300.753
  300.781
  300.803
  300.822
  300.84
  300.857
  300.874
  300.891
  300.909
  300.928
  300.946
  300.899
  300.869
  300.848
  300.843
  300.418
  300.415
  300.403
  300.381
  300.391
  300.445
  300.535
  300.626
  300.688
  300.718
  300.723
  300.711
  300.69
  300.666
  300.64
  300.618
  300.604
  300.61
  300.634
  300.674
  300.724
  300.772
  300.813
  300.844
  300.871
  300.893
  300.911
  300.927
  300.941
  300.954
  300.966
  300.977
  300.983
  300.947
  300.907
  300.881
  300.862
  300.87
  300.907
  301.03
  300.417
  300.412
  300.397
  300.371
  300.382
  300.442
  300.548
  300.661
  300.739
  300.772
  300.773
  300.752
  300.726
  300.699
  300.674
  300.655
  300.647
  300.665
  300.703
  300.754
  300.806
  300.853
  300.891
  300.92
  300.943
  300.96
  300.973
  300.984
  300.995
  301.005
  301.013
  301.018
  301.015
  300.986
  300.95
  300.933
  300.895
  300.889
  300.935
  301.015
  300.416
  300.409
  300.383
  300.359
  300.376
  300.443
  300.567
  300.703
  300.794
  300.825
  300.817
  300.794
  300.768
  300.743
  300.724
  300.715
  300.723
  300.758
  300.807
  300.859
  300.907
  300.947
  300.976
  300.998
  301.012
  301.02
  301.028
  301.035
  301.042
  301.048
  301.051
  301.05
  301.042
  301.023
  300.999
  300.973
  300.922
  300.91
  300.952
  301.011
  300.416
  300.404
  300.353
  300.344
  300.373
  300.452
  300.599
  300.76
  300.859
  300.88
  300.868
  300.85
  300.832
  300.818
  300.81
  300.816
  300.841
  300.885
  300.933
  300.975
  301.012
  301.039
  301.057
  301.065
  301.07
  301.073
  301.077
  301.08
  301.083
  301.085
  301.084
  301.08
  301.071
  301.056
  301.035
  301.005
  300.958
  300.933
  300.964
  301.014
  300.4
  300.394
  300.31
  300.331
  300.381
  300.484
  300.666
  300.854
  300.931
  300.945
  300.941
  300.934
  300.928
  300.927
  300.933
  300.95
  300.979
  301.016
  301.052
  301.079
  301.098
  301.11
  301.116
  301.118
  301.118
  301.118
  301.118
  301.117
  301.116
  301.114
  301.109
  301.103
  301.092
  301.078
  301.06
  301.035
  300.999
  300.968
  300.985
  301.024
  300.247
  300.35
  300.439
  300.586
  300.853
  300.965
  301.003
  301.016
  301.021
  301.024
  301.029
  301.036
  301.048
  301.065
  301.086
  301.109
  301.128
  301.142
  301.15
  301.154
  301.154
  301.153
  301.151
  301.148
  301.145
  301.142
  301.137
  301.132
  301.124
  301.115
  301.103
  301.088
  301.071
  301.051
  301.028
  301.008
  301.013
  301.026
  300.789
  300.805
  300.845
  300.894
  300.979
  301.035
  301.061
  301.074
  301.083
  301.091
  301.099
  301.109
  301.12
  301.133
  301.146
  301.158
  301.167
  301.173
  301.175
  301.175
  301.174
  301.171
  301.167
  301.163
  301.158
  301.153
  301.146
  301.138
  301.128
  301.117
  301.104
  301.089
  301.074
  301.059
  301.045
  301.034
  301.034
  301.036
  300.974
  300.969
  300.964
  300.984
  301.006
  301.033
  301.064
  301.088
  301.102
  301.112
  301.121
  301.129
  301.137
  301.145
  301.154
  301.161
  301.167
  301.172
  301.175
  301.176
  301.175
  301.173
  301.169
  301.166
  301.161
  301.156
  301.15
  301.143
  301.135
  301.125
  301.113
  301.1
  301.086
  301.071
  301.059
  301.048
  301.04
  301.036
  301.035
  301.035
)
;

boundaryField
{
  floor
  {
    type wallHeatTransfer;
    Tinf uniform 297.948;
    alphaWall uniform 0.24;
    value nonuniform List<scalar> 29
(
  300.059
  300.146
  300.228
  300.244
  300.247
  300.237
  300.223
  300.203
  300.181
  300.16
  300.14
  300.122
  300.104
  300.088
  300.072
  300.056
  300.039
  300.022
  300.003
  300.065
  300.065
  300.205
  300.274
  300.34
  300.059
  300.146
  300.288
  300.285
  300.115
)
;
  }
  ceiling
  {
    type wallHeatTransfer;
    Tinf uniform 297.948;
    alphaWall uniform 0.24;
    value nonuniform List<scalar> 43
(
  300.704
  300.712
  300.726
  300.755
  300.774
  300.792
  300.815
  300.834
  300.846
  300.855
  300.863
  300.871
  300.879
  300.887
  300.895
  300.903
  300.909
  300.914
  300.917
  300.917
  300.916
  300.913
  300.91
  300.906
  300.901
  300.896
  300.891
  300.885
  300.879
  300.871
  300.862
  300.851
  300.839
  300.826
  300.813
  300.802
  300.795
  300.794
  300.792
  300.765
  300.098
  300.145
  300.609
)
;
  }
  sWall
  {
    type wallHeatTransfer;
    Tinf uniform 300.167;
    alphaWall uniform 0.36;
    value uniform 300.871;
  }
  nWall
  {
    type wallHeatTransfer;
    Tinf uniform 299.15;
    alphaWall uniform 0.36;
    value nonuniform List<scalar> 6
(
  300.685
  300.737
  300.79
  300.843
  300.826
  300.798
)
;
  }
  sideWalls
  {
    type empty;
  }
  glass1
  {
    type wallHeatTransfer;
    Tinf uniform 300.167;
    alphaWall uniform 4.3;
    value nonuniform List<scalar> 9
(
  300.207
  300.213
  300.217
  300.22
  300.224
  300.227
  300.232
  300.235
  300.233
)
;
  }
  glass2
  {
    type wallHeatTransfer;
    Tinf uniform 299.15;
    alphaWall uniform 4.3;
    value nonuniform List<scalar> 2
(
  299.987
  300.037
)
;
  }
  sun
  {
    type wallHeatTransfer;
    Tinf uniform 297.948;
    alphaWall uniform 0.24;
    value nonuniform List<scalar> 14
(
  299.883
  299.969
  300.015
  300.049
  300.078
  300.122
  300.139
  300.146
  300.146
  300.14
  300.13
  300.119
  300.105
  300.087
)
;
  }
  heatsource1
  {
    type fixedGradient;
    gradient uniform 0;
  }
  heatsource2
  {
    type fixedGradient;
    gradient uniform 0;
  }
  Table_master
  {
    type zeroGradient;
  }
  Table_slave
  {
    type zeroGradient;
  }
  inlet
  {
    type fixedValue;
    value uniform 300.15;
  }
  outlet
  {
    type zeroGradient;
  }
} 	// ************************************************************************* //

