/*--------------------------------*- C++ -*----------------------------------*\
  =========                 |
  \\      /  F ield         | OpenFOAM: The Open Source CFD Toolbox
   \\    /   O peration     | Website:  https://openfoam.org
    \\  /    A nd           | Version:  6
     \\/     M anipulation  |
\*---------------------------------------------------------------------------*/
FoamFile
{
    version     2.0;
    format      ascii;
    class       volScalarField;
    location    "270";
    object      alphat;
}
// * * * * * * * * * * * * * * * * * * * * * * * * * * * * * * * * * * * * * //

dimensions      [1 -1 -1 0 0 0 0];

internalField   nonuniform List<scalar> 
459
(
0.00109484
0.00123237
0.00130283
0.00139121
0.00148871
0.00157928
0.00164917
0.00168788
0.00163258
0.00155079
0.00145484
0.00134796
0.00124549
0.00114084
0.00102479
0.000601483
0.000772196
0.000879387
0.00093836
0.000934981
0.000909979
0.000857453
0.00080126
0.000750213
0.000705255
0.000665709
0.000630747
0.000599641
0.000571623
0.000545384
0.000519332
0.00049104
0.000450348
0.000403939
0.00135492
0.00370715
0.00390345
0.00455039
0.00506579
0.00548429
0.00586523
0.00626615
0.00648158
0.00629381
0.00589178
0.0053483
0.00447148
0.00339239
0.00222746
0.00110218
0.000950099
0.000804023
0.002707
0.00284536
0.0032736
0.00360742
0.00353009
0.00250358
0.00208217
0.00181033
0.00161433
0.00146585
0.00134968
0.00125213
0.00115307
0.00104456
0.000941429
0.000871324
0.000712166
0.000453333
0.00157296
0.00518513
0.00500434
0.00539785
0.00559745
0.00573159
0.00598905
0.00657114
0.00711232
0.00725847
0.00709071
0.00671735
0.00607244
0.00507786
0.0037896
0.00237106
0.00102163
0.00087481
0.00289079
0.00311538
0.00384094
0.00445933
0.00423788
0.0011344
0.000993227
0.000877458
0.000783904
0.000708201
0.00064656
0.00059642
0.000557177
0.000529342
0.000598907
0.000733798
0.0007698
0.000486506
0.00178358
0.0063461
0.0055334
0.00568062
0.00553198
0.00534651
0.00550917
0.00623411
0.00695532
0.00731783
0.00730814
0.00706643
0.00663945
0.00593454
0.00489289
0.00354266
0.00190691
0.00106516
0.00146421
0.00230154
0.00359112
0.00483147
0.00562176
0.00525294
0.00125185
0.00114047
0.00105433
0.000983957
0.000922543
0.000864546
0.000806488
0.000745738
0.000678035
0.000620034
0.000680382
0.000866576
0.00053548
0.00199948
0.00763836
0.00631629
0.00619561
0.00561985
0.00509762
0.00525547
0.00605039
0.00690649
0.00738351
0.00742106
0.00720071
0.00686593
0.00639563
0.00569346
0.00473745
0.00363761
0.00333519
0.00399406
0.00507595
0.00618293
0.00702061
0.00745334
0.00732713
0.00606691
0.00536423
0.00490564
0.00447988
0.00400551
0.00348515
0.00292186
0.0023256
0.00172221
0.00120175
0.000930363
0.0010062
0.000765476
0.000590981
0.000581351
0.000566788
0.00222275
0.00903734
0.00785488
0.00702078
0.0057328
0.0049965
0.00518832
0.00609537
0.00707907
0.0076249
0.00765499
0.00742981
0.00719969
0.00696676
0.00662757
0.00619991
0.00586714
0.00627467
0.007204
0.00804985
0.00865155
0.00894065
0.00891994
0.00860656
0.00798627
0.00735769
0.00673681
0.00609336
0.00542257
0.00471924
0.00398103
0.00321576
0.00246925
0.00182028
0.00137495
0.00123989
0.00106409
0.000924722
0.00113769
0.000698812
0.00239219
0.00978168
0.00931938
0.00729318
0.00557485
0.00484115
0.00522422
0.00634353
0.00747025
0.008053
0.00806947
0.00794562
0.00797086
0.00793622
0.00786316
0.00786448
0.00810033
0.00877016
0.0094994
0.00991963
0.0100372
0.00987359
0.00948372
0.0089358
0.00827453
0.00759539
0.00692726
0.006264
0.00559691
0.00492492
0.00424948
0.0035661
0.00294701
0.00240607
0.0019663
0.00170969
0.00146618
0.00126989
0.0013528
0.000812691
0.00241333
0.00791652
0.00723915
0.00564633
0.00454806
0.00445297
0.00537441
0.00684567
0.00809336
0.00864837
0.00869131
0.00873802
0.00870123
0.00867692
0.00877607
0.00903601
0.00946927
0.00999823
0.0103569
0.0103815
0.0100895
0.00955366
0.00884387
0.00805149
0.00728058
0.00659219
0.00595937
0.00535628
0.00477714
0.00422762
0.00375139
0.00336945
0.00307062
0.00278533
0.00250504
0.00232612
0.00214443
0.00181889
0.00229647
0.0010046
0.00234839
0.002702
0.00274857
0.00265034
0.00299262
0.00416791
0.00597297
0.0077979
0.0089256
0.00932065
0.00919738
0.0088894
0.00866901
0.00866978
0.00885842
0.00916074
0.00948581
0.00968502
0.00961873
0.00924648
0.0086213
0.00783613
0.00701765
0.00626553
0.00562828
0.0050969
0.00462889
0.00419247
0.00377196
0.00336084
0.00295484
0.00257041
0.00224485
0.00201009
0.00185901
0.00176106
0.0016984
0.00165421
0.00162648
0.00114667
0.000474776
0.00166372
0.00390033
0.00634218
0.00826344
0.00936907
0.00955203
0.00912786
0.0086407
0.00832474
0.00822271
0.00826602
0.00837248
0.00846767
0.00847389
0.00831591
0.00797525
0.00750177
0.00697969
0.00648725
0.00607329
0.0057503
0.00550212
0.00529687
0.00509904
0.00487512
0.00459542
0.00424061
0.00381369
0.00334638
0.00289032
0.00249756
0.00221013
0.00204193
0.00195744
0.00190879
0.00188773
0.00141313
0.00253853
0.0093302
0.0104175
0.0104573
0.0100805
0.00943927
0.00869796
0.00808629
0.00774131
0.00760792
0.0075795
0.00758683
0.00759532
0.00758286
0.00752945
0.00742169
0.00726498
0.00708355
0.00690673
0.00675747
0.00664694
0.00657524
0.00653486
0.00651215
0.00648699
0.0064324
0.00631491
0.00609907
0.0057578
0.00528644
0.00471456
0.00410547
0.00353516
0.00305846
0.00268929
0.0024505
0.0031772
0.00160018
0.00200703
0.00217014
0.00234907
0.00255368
0.00240041
0.00225263
0.00211616
0.00198618
0.00188285
0.00181839
0.00178606
0.00177324
0.00177117
0.00177466
0.00178019
0.00178481
0.00178598
0.00178231
0.00177438
0.0017643
0.00175455
0.00174686
0.00174191
0.00173944
0.00173836
0.00173692
0.00173284
0.00172343
0.001706
0.00167856
0.00164053
0.00159341
0.00154073
0.00148737
0.00143804
0.00139493
0.00135447
0.00131939
0.00135249
0.00132328
)
;

boundaryField
{
    floor
    {
        type            compressible::alphatWallFunction;
        Prt             0.85;
        value           nonuniform List<scalar> 
29
(
0.00014603
8.48417e-05
0.000109998
0.000125442
0.000133843
0.000133365
0.000129811
0.000122304
0.000114212
0.000106802
0.000100225
9.43985e-05
8.92119e-05
8.45675e-05
8.03588e-05
7.6394e-05
7.24337e-05
6.81047e-05
6.18218e-05
5.4567e-05
5.45663e-05
6.22874e-05
6.74124e-05
7.48989e-05
0.000146028
8.48407e-05
0.000114612
0.000124787
0.000151683
)
;
    }
    ceiling
    {
        type            compressible::alphatWallFunction;
        Prt             0.85;
        value           nonuniform List<scalar> 
43
(
0.000278314
0.000299467
0.000322478
0.000348575
0.00032907
0.000310135
0.000292526
0.000275641
0.000262134
0.000253668
0.000249411
0.000247721
0.000247449
0.000247911
0.000248643
0.000249253
0.000249408
0.000248924
0.000247877
0.000246546
0.000245256
0.000244238
0.000243583
0.000243255
0.000243111
0.000242921
0.000242381
0.000241136
0.00023883
0.000235189
0.000230134
0.000223849
0.000216798
0.000209626
0.000202971
0.000197132
0.000191633
0.000186852
0.000191365
0.000187388
0.000322387
0.000367317
0.000346608
)
;
    }
    sWall
    {
        type            compressible::alphatWallFunction;
        Prt             0.85;
        value           uniform 0.000277854;
    }
    nWall
    {
        type            compressible::alphatWallFunction;
        Prt             0.85;
        value           nonuniform List<scalar> 6(7.93527e-05 9.8989e-05 0.000115566 0.000199261 0.000224405 0.00018706);
    }
    sideWalls
    {
        type            empty;
    }
    glass1
    {
        type            compressible::alphatWallFunction;
        Prt             0.85;
        value           nonuniform List<scalar> 9(0.000154331 0.000189943 0.000219221 0.000247092 0.000275299 0.000304136 0.000325822 0.000328548 0.00032032);
    }
    glass2
    {
        type            compressible::alphatWallFunction;
        Prt             0.85;
        value           nonuniform List<scalar> 2(0.000142431 0.000162267);
    }
    sun
    {
        type            compressible::alphatWallFunction;
        Prt             0.85;
        value           nonuniform List<scalar> 
14
(
0.000155825
0.000174859
0.000184517
0.000196549
0.000209724
0.000221875
0.000231198
0.00023634
0.000228988
0.000218061
0.000205161
0.000190677
0.00017667
0.000162227
)
;
    }
    heatsource1
    {
        type            compressible::alphatWallFunction;
        Prt             0.85;
        value           nonuniform List<scalar> 3(8.31367e-05 8.16899e-05 7.94961e-05);
    }
    heatsource2
    {
        type            compressible::alphatWallFunction;
        Prt             0.85;
        value           nonuniform List<scalar> 4(0.000156732 0.000135374 0.000135372 0.000145462);
    }
    Table_master
    {
        type            compressible::alphatWallFunction;
        Prt             0.85;
        value           nonuniform List<scalar> 9(0.000161204 0.000141461 0.000125027 0.000111558 0.000100519 9.14242e-05 8.39483e-05 7.8043e-05 7.38233e-05);
    }
    Table_slave
    {
        type            compressible::alphatWallFunction;
        Prt             0.85;
        value           nonuniform List<scalar> 9(0.000177417 0.000162049 0.000150046 0.000140156 0.000131457 0.000123179 0.000114826 0.000106009 9.60792e-05);
    }
    inlet
    {
        type            fixedValue;
        value           uniform 1.94e-05;
    }
    outlet
    {
        type            zeroGradient;
    }
}


// ************************************************************************* //
