// -*- C++ -*-
// File generated by PyFoam - sorry for the ugliness

FoamFile
{
 version 2.0;
 format ascii;
 class volScalarField;
 location "270";
 object T;
}

dimensions [ 0 0 0 1 0 0 0 ];

internalField nonuniform List<scalar> 459
(
  302.256
  302.184
  302.181
  302.181
  302.181
  302.183
  302.191
  302.215
  302.271
  302.301
  302.321
  302.333
  302.341
  302.348
  302.35
  302.82
  302.78
  302.75
  302.753
  302.772
  302.791
  302.806
  302.819
  302.832
  302.844
  302.857
  302.869
  302.882
  302.895
  302.908
  302.922
  302.938
  302.96
  302.999
  302.291
  302.187
  302.174
  302.169
  302.165
  302.162
  302.168
  302.206
  302.279
  302.332
  302.368
  302.388
  302.394
  302.391
  302.381
  302.389
  302.403
  302.821
  302.747
  302.71
  302.727
  302.761
  302.794
  302.813
  302.831
  302.848
  302.864
  302.881
  302.898
  302.915
  302.931
  302.946
  302.959
  302.971
  302.985
  303.017
  302.329
  302.193
  302.173
  302.165
  302.158
  302.146
  302.142
  302.19
  302.282
  302.362
  302.416
  302.444
  302.45
  302.443
  302.427
  302.42
  302.418
  302.757
  302.639
  302.657
  302.707
  302.767
  302.818
  302.83
  302.846
  302.863
  302.881
  302.901
  302.921
  302.941
  302.96
  302.977
  302.991
  303
  303.007
  303.03
  302.369
  302.206
  302.182
  302.176
  302.168
  302.139
  302.118
  302.174
  302.284
  302.395
  302.474
  302.512
  302.518
  302.505
  302.481
  302.46
  302.443
  302.453
  302.495
  302.552
  302.634
  302.728
  302.816
  302.888
  302.946
  302.989
  303.025
  303.058
  303.09
  303.12
  303.149
  303.176
  303.201
  303.138
  303.086
  303.052
  303.051
  302.412
  302.227
  302.202
  302.201
  302.193
  302.137
  302.101
  302.157
  302.29
  302.436
  302.543
  302.595
  302.602
  302.581
  302.549
  302.519
  302.499
  302.512
  302.556
  302.634
  302.733
  302.838
  302.935
  303.015
  303.083
  303.133
  303.176
  303.212
  303.241
  303.265
  303.282
  303.292
  303.291
  303.245
  303.176
  303.116
  303.084
  303.096
  303.117
  303.168
  302.454
  302.257
  302.234
  302.243
  302.214
  302.132
  302.083
  302.145
  302.306
  302.492
  302.631
  302.696
  302.703
  302.673
  302.634
  302.604
  302.594
  302.626
  302.697
  302.794
  302.901
  303.005
  303.096
  303.17
  303.23
  303.276
  303.313
  303.342
  303.364
  303.38
  303.389
  303.388
  303.375
  303.334
  303.269
  303.207
  303.155
  303.146
  303.154
  303.188
  302.501
  302.304
  302.286
  302.292
  302.221
  302.108
  302.055
  302.139
  302.343
  302.576
  302.744
  302.817
  302.82
  302.785
  302.749
  302.731
  302.745
  302.806
  302.898
  303
  303.102
  303.193
  303.269
  303.329
  303.376
  303.409
  303.432
  303.451
  303.465
  303.473
  303.473
  303.465
  303.446
  303.409
  303.355
  303.301
  303.24
  303.209
  303.198
  303.209
  302.563
  302.415
  302.395
  302.336
  302.185
  302.037
  302.006
  302.152
  302.423
  302.709
  302.897
  302.959
  302.954
  302.928
  302.91
  302.915
  302.957
  303.038
  303.135
  303.225
  303.31
  303.378
  303.43
  303.469
  303.494
  303.511
  303.521
  303.528
  303.529
  303.525
  303.516
  303.501
  303.481
  303.452
  303.406
  303.362
  303.307
  303.271
  303.249
  303.281
  302.653
  302.579
  302.526
  302.275
  301.991
  301.859
  301.942
  302.228
  302.6
  302.934
  303.08
  303.121
  303.12
  303.116
  303.123
  303.152
  303.207
  303.284
  303.365
  303.434
  303.488
  303.528
  303.553
  303.568
  303.574
  303.574
  303.568
  303.556
  303.539
  303.517
  303.492
  303.464
  303.437
  303.41
  303.385
  303.365
  303.352
  303.351
  303.358
  303.392
  300.403
  300.604
  300.996
  301.486
  302.008
  302.576
  303.015
  303.202
  303.274
  303.299
  303.312
  303.327
  303.352
  303.388
  303.437
  303.491
  303.541
  303.58
  303.606
  303.62
  303.625
  303.622
  303.614
  303.602
  303.585
  303.564
  303.541
  303.517
  303.492
  303.468
  303.444
  303.423
  303.405
  303.392
  303.387
  303.394
  303.42
  303.53
  301.634
  302.113
  302.395
  302.679
  302.949
  303.173
  303.319
  303.4
  303.442
  303.467
  303.487
  303.509
  303.534
  303.563
  303.594
  303.623
  303.646
  303.661
  303.667
  303.666
  303.66
  303.649
  303.635
  303.618
  303.599
  303.579
  303.558
  303.536
  303.515
  303.494
  303.474
  303.455
  303.438
  303.425
  303.417
  303.421
  303.457
  303.516
  302.778
  302.757
  302.746
  303.011
  303.191
  303.315
  303.409
  303.482
  303.534
  303.57
  303.595
  303.614
  303.631
  303.646
  303.661
  303.675
  303.686
  303.694
  303.697
  303.696
  303.69
  303.68
  303.668
  303.653
  303.636
  303.618
  303.599
  303.58
  303.562
  303.543
  303.527
  303.511
  303.497
  303.483
  303.471
  303.461
  303.455
  303.465
  303.5
  303.562
)
;

boundaryField
{
  floor
  {
    type wallHeatTransfer;
    Tinf uniform 300.35;
    alphaWall uniform 0.24;
    value nonuniform List<scalar> 29
(
  302.105
  302.379
  302.415
  302.421
  302.438
  302.455
  302.465
  302.463
  302.458
  302.451
  302.445
  302.439
  302.434
  302.429
  302.425
  302.421
  302.417
  302.411
  302.399
  302.389
  302.389
  302.446
  302.481
  302.531
  302.105
  302.379
  302.46
  302.426
  302.202
)
;
  }
  ceiling
  {
    type wallHeatTransfer;
    Tinf uniform 300.35;
    alphaWall uniform 0.24;
    value nonuniform List<scalar> 43
(
  302.601
  302.592
  302.592
  302.851
  303.011
  303.118
  303.195
  303.251
  303.289
  303.315
  303.335
  303.351
  303.366
  303.381
  303.395
  303.408
  303.419
  303.425
  303.428
  303.425
  303.418
  303.409
  303.396
  303.382
  303.367
  303.35
  303.333
  303.314
  303.294
  303.275
  303.254
  303.234
  303.213
  303.193
  303.175
  303.159
  303.146
  303.149
  303.187
  303.237
  302.505
  302.451
  301.557
)
;
  }
  sWall
  {
    type wallHeatTransfer;
    Tinf uniform 306.167;
    alphaWall uniform 0.36;
    value uniform 303.138;
  }
  nWall
  {
    type wallHeatTransfer;
    Tinf uniform 305.15;
    alphaWall uniform 0.36;
    value nonuniform List<scalar> 6
(
  303.674
  303.628
  303.603
  303.753
  303.722
  303.792
)
;
  }
  sideWalls
  {
    type empty;
  }
  glass1
  {
    type wallHeatTransfer;
    Tinf uniform 306.167;
    alphaWall uniform 4.3;
    value nonuniform List<scalar> 9
(
  305.013
  304.872
  304.774
  304.693
  304.621
  304.555
  304.518
  304.539
  304.6
)
;
  }
  glass2
  {
    type wallHeatTransfer;
    Tinf uniform 305.15;
    alphaWall uniform 4.3;
    value nonuniform List<scalar> 2
(
  304.625
  304.615
)
;
  }
  sun
  {
    type wallHeatTransfer;
    Tinf uniform 300.35;
    alphaWall uniform 0.24;
    value nonuniform List<scalar> 14
(
  302.034
  301.988
  301.993
  302.002
  302.011
  302.021
  302.033
  302.058
  302.105
  302.126
  302.136
  302.135
  302.13
  302.122
)
;
  }
  heatsource1
  {
    type fixedGradient;
    gradient uniform 0;
  }
  heatsource2
  {
    type fixedGradient;
    gradient uniform 0;
  }
  Table_master
  {
    type zeroGradient;
  }
  Table_slave
  {
    type zeroGradient;
  }
  inlet
  {
    type fixedValue;
    value uniform 300.15;
  }
  outlet
  {
    type zeroGradient;
  }
} 	// ************************************************************************* //

