/*--------------------------------*- C++ -*----------------------------------*\
  =========                 |
  \\      /  F ield         | OpenFOAM: The Open Source CFD Toolbox
   \\    /   O peration     | Website:  https://openfoam.org
    \\  /    A nd           | Version:  6
     \\/     M anipulation  |
\*---------------------------------------------------------------------------*/
FoamFile
{
    version     2.0;
    format      ascii;
    class       volScalarField;
    location    "100";
    object      alphat;
}
// * * * * * * * * * * * * * * * * * * * * * * * * * * * * * * * * * * * * * //

dimensions      [1 -1 -1 0 0 0 0];

internalField   nonuniform List<scalar> 
459
(
0.000878042
0.000901592
0.000809554
0.000838374
0.000871682
0.000903762
0.000934487
0.0009646
0.000995398
0.00102538
0.00104925
0.00106477
0.00106978
0.00106228
0.00103631
0.000541927
0.000623019
0.000619054
0.000508661
0.00040114
0.000334611
0.000283548
0.000268447
0.000254731
0.000241447
0.000230322
0.000221564
0.000220109
0.000258347
0.000359472
0.000543096
0.000663535
0.000661976
0.000571411
0.00151947
0.002766
0.00198954
0.00270122
0.00295277
0.00319841
0.00345309
0.00369323
0.00388537
0.00401792
0.00408235
0.00403412
0.00380052
0.00326547
0.0023076
0.00110013
0.000776081
0.000636658
0.00153594
0.00161333
0.00139767
0.0010847
0.000749078
0.000587104
0.000564454
0.000517927
0.000483256
0.000449484
0.000420825
0.000440137
0.000606813
0.000997905
0.00150205
0.00178644
0.00183077
0.000663749
0.00206322
0.00451174
0.00211159
0.00379057
0.00439854
0.00466777
0.00489289
0.00508379
0.00522888
0.00532634
0.00535971
0.00527956
0.00500589
0.00442889
0.00346786
0.00224987
0.00114322
0.00100541
0.00243896
0.00206975
0.001672
0.00133096
0.000981361
0.000331206
0.000251272
0.000241954
0.000247557
0.000275506
0.000334522
0.000425301
0.000550616
0.000740905
0.00183396
0.00196036
0.00155112
0.000783528
0.00256437
0.00660056
0.00237842
0.0039532
0.00511486
0.00540308
0.0055781
0.00572941
0.0058627
0.00597298
0.00607809
0.00614308
0.00608587
0.0057688
0.00501579
0.00373635
0.0022139
0.00122973
0.00241291
0.0026841
0.00238523
0.00207194
0.00174496
0.00136979
0.00103034
0.00105331
0.00108151
0.00111018
0.00113684
0.0011605
0.00118212
0.00120011
0.00121831
0.00229061
0.00290854
0.00316256
0.00115854
0.00301957
0.00878291
0.00305605
0.00360886
0.00526873
0.00562236
0.00575106
0.00585869
0.0059749
0.0061074
0.00632137
0.00662901
0.00698791
0.00731788
0.00750736
0.00744627
0.00708471
0.0064524
0.00582917
0.00538007
0.00513091
0.00494075
0.00478646
0.00466878
0.00459928
0.0046351
0.00470093
0.00476563
0.00480777
0.00482595
0.00484006
0.00487136
0.00492299
0.00500717
0.00494846
0.00460962
0.00368668
0.00152282
0.00134816
0.00124938
0.00343817
0.0106684
0.00432839
0.00324228
0.00485968
0.00539297
0.00554265
0.00560729
0.00564835
0.00570329
0.00592206
0.00632022
0.0068781
0.0075382
0.00818861
0.00867699
0.00885251
0.0086557
0.00820534
0.00769639
0.00725726
0.00692302
0.0066676
0.00645408
0.00627029
0.00613659
0.00605227
0.00598601
0.00590234
0.00579227
0.00568
0.00559909
0.00556003
0.0055441
0.0055388
0.0054788
0.00514325
0.00454155
0.00296694
0.00156313
0.00382677
0.0119917
0.0066115
0.00357895
0.00371392
0.00451259
0.00501615
0.00523965
0.00523271
0.00514465
0.00524823
0.005535
0.00602598
0.006719
0.00753419
0.00830507
0.0088345
0.00899547
0.00885539
0.00857286
0.00828517
0.00804312
0.00782838
0.0076025
0.00735297
0.00711861
0.00693911
0.00679671
0.00663118
0.00639795
0.00610516
0.00580019
0.00552756
0.00529863
0.00508138
0.00479404
0.00433643
0.00375755
0.00310347
0.00148062
0.00391763
0.0122918
0.00896583
0.00617229
0.00445955
0.0041553
0.00462709
0.00505008
0.00495016
0.00477801
0.0047211
0.00479502
0.00502079
0.00544324
0.00609019
0.00688882
0.00765022
0.00811051
0.00829751
0.00830795
0.008259
0.00822124
0.00820366
0.00817405
0.00809331
0.00796332
0.0078385
0.00775586
0.00767496
0.00751364
0.00721914
0.00678232
0.0062176
0.00557733
0.00492564
0.00432772
0.00377984
0.0032876
0.00282918
0.00171847
0.0037955
0.00455904
0.00517784
0.00514922
0.00472157
0.00428023
0.00402872
0.00394796
0.00393817
0.0039725
0.00402975
0.00410458
0.00420954
0.00438012
0.00467304
0.00513137
0.005713
0.00627227
0.00670397
0.00699242
0.00718992
0.00735898
0.00753921
0.00774302
0.00796191
0.00817268
0.00834858
0.00848036
0.00859767
0.00873408
0.00881422
0.00879057
0.00868795
0.00854291
0.00832778
0.00776816
0.00665583
0.00552583
0.00519048
0.00190098
0.00437298
0.00547956
0.0050889
0.00468533
0.00437444
0.00415331
0.00399413
0.00387926
0.00379455
0.00373008
0.00368242
0.00365831
0.00367782
0.00377321
0.0039732
0.00427258
0.00462824
0.00498727
0.0053207
0.00562982
0.00593336
0.00625464
0.00661438
0.0070215
0.0074567
0.00787408
0.0082365
0.00853445
0.00876597
0.00892081
0.00899053
0.00898215
0.00889892
0.00870026
0.00812899
0.00701732
0.0062743
0.00187586
0.00317781
0.00560596
0.00516009
0.00478781
0.00446367
0.00418575
0.00394833
0.00374296
0.00353293
0.00332821
0.00313807
0.00296947
0.00282927
0.0027263
0.00267191
0.0026774
0.00274922
0.00288534
0.00307641
0.00331045
0.00357775
0.00387486
0.00420738
0.00458961
0.00503443
0.00553193
0.00603073
0.00650536
0.00691836
0.00724327
0.00746104
0.00755892
0.00752358
0.00731101
0.00667288
0.00567457
0.00504232
0.00166407
0.00221447
0.00248192
0.00275363
0.00283512
0.00253228
0.00232975
0.00215643
0.00200381
0.00186783
0.00174554
0.00163913
0.00154369
0.00145616
0.00137495
0.00129943
0.00122955
0.00116565
0.00110827
0.00105793
0.00101496
0.000979497
0.000951477
0.000930759
0.000917257
0.000911142
0.000913094
0.000924494
0.000947427
0.000987094
0.00104576
0.00112283
0.00121224
0.00130234
0.00137876
0.00142807
0.00143889
0.00142898
0.00140018
0.00139181
0.00130778
)
;

boundaryField
{
    floor
    {
        type            compressible::alphatWallFunction;
        Prt             0.85;
        value           nonuniform List<scalar> 
29
(
0.000147342
7.55803e-05
8.77688e-05
8.71697e-05
7.05072e-05
5.38616e-05
4.32715e-05
3.4942e-05
3.24368e-05
3.01506e-05
2.79206e-05
2.60388e-05
2.45465e-05
2.42971e-05
3.0754e-05
4.72494e-05
7.57653e-05
9.379e-05
9.35542e-05
8.00303e-05
8.00293e-05
9.38037e-05
0.000111308
0.000164341
0.00014734
7.55793e-05
8.97938e-05
0.000142988
0.000174178
)
;
    }
    ceiling
    {
        type            compressible::alphatWallFunction;
        Prt             0.85;
        value           nonuniform List<scalar> 
43
(
0.00030504
0.000339287
0.000373683
0.000383934
0.000345697
0.000319856
0.000297551
0.000277749
0.000259969
0.000243858
0.000229739
0.000216987
0.000205215
0.000194223
0.000183934
0.000174353
0.000165538
0.000157575
0.000150549
0.000144522
0.000139525
0.000135561
0.000132622
0.000130702
0.00012983
0.000130106
0.000131725
0.000134979
0.000140586
0.000148833
0.000159586
0.000171956
0.000184318
0.000194731
0.000201417
0.000202885
0.000201548
0.000197651
0.000196511
0.000185074
0.000502673
0.000594778
0.000426688
)
;
    }
    sWall
    {
        type            compressible::alphatWallFunction;
        Prt             0.85;
        value           uniform 0.000303938;
    }
    nWall
    {
        type            compressible::alphatWallFunction;
        Prt             0.85;
        value           nonuniform List<scalar> 6(0.000176617 0.00021911 0.000208048 0.000260614 0.000232666 0.000184718);
    }
    sideWalls
    {
        type            empty;
    }
    glass1
    {
        type            compressible::alphatWallFunction;
        Prt             0.85;
        value           nonuniform List<scalar> 9(0.000121318 0.000208469 0.000279331 0.000343014 0.000399827 0.000451351 0.000498641 0.000509772 0.000495239);
    }
    glass2
    {
        type            compressible::alphatWallFunction;
        Prt             0.85;
        value           nonuniform List<scalar> 2(0.000238143 0.000262147);
    }
    sun
    {
        type            compressible::alphatWallFunction;
        Prt             0.85;
        value           nonuniform List<scalar> 
14
(
0.000124966
0.000128307
0.000115104
0.000119256
0.000124034
0.000128615
0.000132984
0.000137251
0.000141598
0.000145815
0.000149161
0.000151331
0.000152031
0.000150981
)
;
    }
    heatsource1
    {
        type            compressible::alphatWallFunction;
        Prt             0.85;
        value           nonuniform List<scalar> 3(0.000214081 0.000190494 0.000177052);
    }
    heatsource2
    {
        type            compressible::alphatWallFunction;
        Prt             0.85;
        value           nonuniform List<scalar> 4(0.000156433 0.00011042 0.000110418 0.000162417);
    }
    Table_master
    {
        type            compressible::alphatWallFunction;
        Prt             0.85;
        value           nonuniform List<scalar> 9(4.28523e-05 2.97186e-05 2.81472e-05 2.90775e-05 3.37177e-05 4.33382e-05 5.77367e-05 7.70027e-05 0.000105276);
    }
    Table_slave
    {
        type            compressible::alphatWallFunction;
        Prt             0.85;
        value           nonuniform List<scalar> 9(0.000146687 0.000149914 0.000153866 0.000157872 0.000161588 0.000164876 0.000167875 0.000170357 0.000172857);
    }
    inlet
    {
        type            fixedValue;
        value           uniform 1.94e-05;
    }
    outlet
    {
        type            zeroGradient;
    }
}


// ************************************************************************* //
