// -*- C++ -*-
// File generated by PyFoam - sorry for the ugliness

FoamFile
{
 version 2.0;
 format ascii;
 class volVectorField;
 location "700";
 object U;
}

dimensions [ 0 1 -1 0 0 0 0 ];

internalField nonuniform List<vector> 459
(
  (0.312688 -0.103153 0)
  (0.213011 -0.139038 0)
  (0.347275 -0.0965115 0)
  (0.450011 -0.0631282 0)
  (0.497549 -0.0430936 0)
  (0.514587 -0.0300651 0)
  (0.519319 -0.0205988 0)
  (0.516194 -0.0129878 0)
  (0.50573 -0.00624899 0)
  (0.487611 0.000433091 0)
  (0.460766 0.00801988 0)
  (0.422728 0.0179679 0)
  (0.368425 0.0334324 0)
  (0.283811 0.0650302 0)
  (0.218646 0.15372 0)
  (-0.0930803 0.0249491 0)
  (-0.0536055 0.0120414 0)
  (-0.0780937 -0.0142335 0)
  (-0.0493667 -0.0355435 0)
  (-0.0111049 -0.0462723 0)
  (0.0428823 -0.0418839 0)
  (0.0748123 -0.0247959 0)
  (0.0987088 -0.0149765 0)
  (0.112516 -0.0100548 0)
  (0.118433 -0.00645142 0)
  (0.118577 -0.00300786 0)
  (0.114423 3.01031e-05 0)
  (0.107508 0.0021985 0)
  (0.0989042 0.00363154 0)
  (0.0887044 0.00529045 0)
  (0.0753899 0.00878097 0)
  (0.060202 0.0134794 0)
  (-0.0143839 0.0238665 0)
  (0.142651 -0.00157282 0)
  (0.456281 -0.2707 0)
  (0.185073 -0.239066 0)
  (0.299212 -0.139198 0)
  (0.377134 -0.0724001 0)
  (0.404535 -0.0356574 0)
  (0.411655 -0.0127075 0)
  (0.412849 0.00400215 0)
  (0.408384 0.0167513 0)
  (0.398693 0.027357 0)
  (0.383699 0.0377638 0)
  (0.363118 0.0499726 0)
  (0.336418 0.0662815 0)
  (0.304145 0.0900416 0)
  (0.269085 0.127341 0)
  (0.255338 0.196719 0)
  (0.237774 0.174263 0)
  (0.14433 0.145513 0)
  (-0.139982 0.0481778 0)
  (-0.00808286 0.0371591 0)
  (-0.0195668 -0.00621799 0)
  (0.0187128 -0.0577525 0)
  (0.0437801 -0.0696484 0)
  (0.0721094 -0.0653094 0)
  (0.0862542 -0.0345926 0)
  (0.0912611 -0.0146248 0)
  (0.0933148 -0.00567148 0)
  (0.0952192 0.000525039 0)
  (0.0963221 0.00606735 0)
  (0.0958988 0.00996492 0)
  (0.0950087 0.0121664 0)
  (0.0940866 0.0137762 0)
  (0.0921238 0.0170292 0)
  (0.0847379 0.0269824 0)
  (0.0726503 0.0362503 0)
  (0.000899198 0.0465576 0)
  (0.194602 0.0268863 0)
  (0.514757 -0.428631 0)
  (0.049896 -0.320565 0)
  (0.201753 -0.18136 0)
  (0.258451 -0.100031 0)
  (0.26535 -0.055494 0)
  (0.263294 -0.0269218 0)
  (0.26147 -0.00583106 0)
  (0.258919 0.0116422 0)
  (0.255677 0.0271894 0)
  (0.25109 0.0429621 0)
  (0.244643 0.0611311 0)
  (0.236044 0.0837653 0)
  (0.225948 0.112974 0)
  (0.21456 0.150332 0)
  (0.209273 0.196816 0)
  (0.184283 0.184328 0)
  (0.136886 0.211928 0)
  (-0.184626 0.0355303 0)
  (0.0404293 0.00251446 0)
  (0.0611694 -0.0479379 0)
  (0.0792156 -0.0798294 0)
  (0.0935735 -0.091322 0)
  (0.109742 -0.0910845 0)
  (0.108258 -0.0674293 0)
  (0.080249 -0.0415646 0)
  (0.0581234 -0.0257221 0)
  (0.0499357 -0.0152 0)
  (0.0509213 -0.0069714 0)
  (0.056181 -0.00136436 0)
  (0.0634285 0.00174152 0)
  (0.0728927 0.00401519 0)
  (0.0860657 0.00934383 0)
  (0.0901583 0.0348848 0)
  (0.0834273 0.052559 0)
  (0.0129322 0.0689638 0)
  (0.226756 0.0649818 0)
  (0.547352 -0.522276 0)
  (-0.0932422 -0.360351 0)
  (0.125493 -0.203186 0)
  (0.146375 -0.106904 0)
  (0.127545 -0.0526624 0)
  (0.115678 -0.0199596 0)
  (0.11172 0.00145505 0)
  (0.116284 0.016859 0)
  (0.122762 0.0305199 0)
  (0.129585 0.0455771 0)
  (0.136024 0.0640252 0)
  (0.141755 0.0872367 0)
  (0.147057 0.116124 0)
  (0.151741 0.150853 0)
  (0.163089 0.19178 0)
  (0.175681 0.207538 0)
  (0.19024 0.244325 0)
  (0.227434 0.162633 0)
  (0.0859926 0.0685718 0)
  (0.11665 -0.00404074 0)
  (0.136398 -0.0574808 0)
  (0.140232 -0.0872752 0)
  (0.135946 -0.0952031 0)
  (0.123305 -0.0875768 0)
  (0.12365 -0.0520267 0)
  (0.148109 -0.0312292 0)
  (0.164891 -0.01983 0)
  (0.169815 -0.012851 0)
  (0.16728 -0.00754231 0)
  (0.160452 -0.00304808 0)
  (0.149867 0.00115079 0)
  (0.134519 0.00586572 0)
  (0.111957 0.0123068 0)
  (0.0898542 0.0413154 0)
  (0.0857331 0.0648202 0)
  (0.0231844 0.085581 0)
  (0.247955 0.117846 0)
  (0.552126 -0.56187 0)
  (-0.191489 -0.37984 0)
  (0.0708085 -0.215759 0)
  (0.0466151 -0.0897109 0)
  (0.00467401 -0.0332231 0)
  (-0.00347537 -0.0109657 0)
  (-0.000806628 -0.000801461 0)
  (0.0112899 0.00825334 0)
  (0.0233151 0.0198792 0)
  (0.0358874 0.0349021 0)
  (0.0489829 0.053839 0)
  (0.0626891 0.077156 0)
  (0.0775031 0.105055 0)
  (0.093886 0.137506 0)
  (0.118085 0.174286 0)
  (0.145896 0.193733 0)
  (0.176022 0.204364 0)
  (0.207316 0.127768 0)
  (0.195639 0.0637477 0)
  (0.206363 0.000652149 0)
  (0.201079 -0.0492627 0)
  (0.18614 -0.0763448 0)
  (0.167474 -0.0812354 0)
  (0.148292 -0.0682653 0)
  (0.1386 -0.037121 0)
  (0.138755 -0.0150213 0)
  (0.138092 -0.00278816 0)
  (0.13187 0.00492663 0)
  (0.122788 0.0107445 0)
  (0.112582 0.0157458 0)
  (0.101564 0.0207776 0)
  (0.0896443 0.0269491 0)
  (0.0766959 0.0360156 0)
  (0.0667117 0.0555649 0)
  (0.0730492 0.0730513 0)
  (0.0426596 0.08355 0)
  (0.15448 0.120399 0)
  (0.135543 0.096361 0)
  (-0.0702911 0.0823975 0)
  (0.389545 0.0234561 0)
  (0.517369 -0.554332 0)
  (-0.218958 -0.375146 0)
  (0.00288138 -0.207236 0)
  (-0.0360735 -0.0536002 0)
  (-0.0722557 -0.0237969 0)
  (-0.0732126 -0.0154052 0)
  (-0.0679697 -0.0114758 0)
  (-0.0595065 -0.00565431 0)
  (-0.0471573 0.005054 0)
  (-0.0341443 0.0194807 0)
  (-0.0198696 0.0373935 0)
  (-0.00335575 0.0595327 0)
  (0.0165599 0.0862189 0)
  (0.0387426 0.115078 0)
  (0.0681294 0.144911 0)
  (0.0998173 0.158917 0)
  (0.136675 0.157386 0)
  (0.171454 0.105284 0)
  (0.189128 0.0486228 0)
  (0.197907 -0.00540433 0)
  (0.190198 -0.042875 0)
  (0.171933 -0.0603398 0)
  (0.148984 -0.0608231 0)
  (0.125957 -0.0485866 0)
  (0.107883 -0.027565 0)
  (0.0961258 -0.00943162 0)
  (0.0855229 0.0031333 0)
  (0.0760129 0.0116408 0)
  (0.0671844 0.0179573 0)
  (0.0589499 0.0233766 0)
  (0.051196 0.0289006 0)
  (0.0439765 0.0355288 0)
  (0.0374279 0.0443819 0)
  (0.033837 0.0580873 0)
  (0.0430121 0.0692485 0)
  (0.0265225 0.0656282 0)
  (0.0704656 0.086869 0)
  (0.0763847 0.0741576 0)
  (-0.149736 0.0850529 0)
  (0.44631 -0.00504283 0)
  (0.442141 -0.491766 0)
  (-0.225968 -0.331621 0)
  (-0.0907349 -0.187248 0)
  (-0.0887448 -0.0276718 0)
  (-0.124954 -0.0196675 0)
  (-0.120151 -0.0201449 0)
  (-0.112962 -0.0195033 0)
  (-0.105305 -0.0154609 0)
  (-0.0966641 -0.00691548 0)
  (-0.0853108 0.0060825 0)
  (-0.0730024 0.022072 0)
  (-0.058048 0.0410136 0)
  (-0.0392415 0.0628845 0)
  (-0.0168244 0.0865642 0)
  (0.0159533 0.111904 0)
  (0.0488701 0.121701 0)
  (0.0880299 0.116099 0)
  (0.121668 0.0776111 0)
  (0.141438 0.0319016 0)
  (0.145917 -0.00646302 0)
  (0.135882 -0.0298658 0)
  (0.116208 -0.0391873 0)
  (0.0924821 -0.0370347 0)
  (0.0688576 -0.0262564 0)
  (0.0490243 -0.0104769 0)
  (0.0328743 0.00440026 0)
  (0.022925 0.0142601 0)
  (0.0161698 0.0204516 0)
  (0.0108139 0.0251769 0)
  (0.00634529 0.0296203 0)
  (0.00259768 0.0344274 0)
  (-0.000270755 0.0401111 0)
  (-0.00198824 0.0469617 0)
  (-0.000979945 0.0556029 0)
  (0.0101121 0.061803 0)
  (0.000508965 0.0554527 0)
  (0.0245963 0.0748548 0)
  (0.0505183 0.0932365 0)
  (-0.163968 0.107017 0)
  (0.420422 -0.0269374 0)
  (0.326388 -0.372864 0)
  (-0.2943 -0.263648 0)
  (-0.252246 -0.201668 0)
  (-0.146354 -0.0314128 0)
  (-0.179336 -0.0307775 0)
  (-0.158479 -0.0311956 0)
  (-0.146561 -0.0288306 0)
  (-0.138733 -0.0238899 0)
  (-0.132214 -0.0159907 0)
  (-0.124942 -0.00495338 0)
  (-0.115111 0.00900417 0)
  (-0.103171 0.0249106 0)
  (-0.0873548 0.0423496 0)
  (-0.0669255 0.0602982 0)
  (-0.0389014 0.077416 0)
  (-0.0067227 0.0852712 0)
  (0.0311951 0.078018 0)
  (0.057231 0.0502232 0)
  (0.0694205 0.0206035 0)
  (0.0675205 -0.0013809 0)
  (0.0566896 -0.0140215 0)
  (0.0379002 -0.0178041 0)
  (0.0164822 -0.0140589 0)
  (-0.00510171 -0.00432615 0)
  (-0.0219191 0.00678543 0)
  (-0.0307355 0.0149268 0)
  (-0.035438 0.0203886 0)
  (-0.0380927 0.0244924 0)
  (-0.039657 0.0282151 0)
  (-0.0404112 0.0319885 0)
  (-0.0402983 0.0360012 0)
  (-0.0389988 0.0403116 0)
  (-0.0360163 0.0448143 0)
  (-0.0299841 0.0493942 0)
  (-0.0179902 0.052727 0)
  (-0.0154754 0.0501993 0)
  (0.0083664 0.0663356 0)
  (0.0603608 0.099663 0)
  (-0.16942 0.110941 0)
  (0.797345 0.0429589 0)
  (0.163366 -0.274278 0)
  (-0.48527 -0.281491 0)
  (-0.575301 -0.303245 0)
  (-0.156567 -0.125973 0)
  (-0.215797 -0.0626196 0)
  (-0.18379 -0.0436437 0)
  (-0.171172 -0.034038 0)
  (-0.165528 -0.0263146 0)
  (-0.161925 -0.0184809 0)
  (-0.158064 -0.00954586 0)
  (-0.152246 0.001016 0)
  (-0.143736 0.0133207 0)
  (-0.131681 0.0264696 0)
  (-0.115094 0.0392952 0)
  (-0.0930926 0.0501015 0)
  (-0.0675599 0.0546904 0)
  (-0.041274 0.0505501 0)
  (-0.0241336 0.0367867 0)
  (-0.0187657 0.0219331 0)
  (-0.0239247 0.0107519 0)
  (-0.034829 0.00451886 0)
  (-0.0491481 0.00366392 0)
  (-0.0637095 0.00685553 0)
  (-0.0749078 0.0116737 0)
  (-0.0814502 0.0161915 0)
  (-0.0844038 0.0199059 0)
  (-0.0851074 0.0231098 0)
  (-0.084399 0.0260954 0)
  (-0.0826715 0.0290655 0)
  (-0.0799769 0.0320688 0)
  (-0.0761475 0.0350501 0)
  (-0.0708568 0.0378647 0)
  (-0.0636259 0.040288 0)
  (-0.0535899 0.0421105 0)
  (-0.0400644 0.0427784 0)
  (-0.0277536 0.040412 0)
  (-0.00369755 0.0464375 0)
  (0.0512024 0.0785966 0)
  (-0.152689 0.0746909 0)
  (0.786936 0.0734978 0)
  (-1.0322 -0.262238 0)
  (-0.0506525 -0.169926 0)
  (-0.181326 -0.0913988 0)
  (-0.188658 -0.0553329 0)
  (-0.189865 -0.0346991 0)
  (-0.191941 -0.0197486 0)
  (-0.193735 -0.00722697 0)
  (-0.193973 0.00421146 0)
  (-0.191798 0.0149171 0)
  (-0.186341 0.024132 0)
  (-0.178145 0.0315136 0)
  (-0.166643 0.0382285 0)
  (-0.151785 0.0435967 0)
  (-0.135094 0.0460034 0)
  (-0.119549 0.0446866 0)
  (-0.109694 0.0399059 0)
  (-0.106746 0.0344003 0)
  (-0.109393 0.0300261 0)
  (-0.115116 0.0277853 0)
  (-0.121489 0.0280613 0)
  (-0.126543 0.0300604 0)
  (-0.129239 0.0326777 0)
  (-0.129563 0.0351446 0)
  (-0.128054 0.0372609 0)
  (-0.125196 0.0391203 0)
  (-0.121251 0.0407401 0)
  (-0.116315 0.0420693 0)
  (-0.110383 0.0430058 0)
  (-0.103395 0.0434132 0)
  (-0.0952752 0.0431223 0)
  (-0.0859373 0.0419114 0)
  (-0.0752855 0.039459 0)
  (-0.0635555 0.0353451 0)
  (-0.0516536 0.0302607 0)
  (-0.035583 0.0330142 0)
  (-0.0226595 0.0534325 0)
  (-0.184981 0.0446735 0)
  (0.479309 0.098664 0)
  (-0.253634 -0.112932 0)
  (-0.0533575 -0.154614 0)
  (-0.147906 -0.14282 0)
  (-0.179058 -0.138221 0)
  (-0.198062 -0.13642 0)
  (-0.212448 -0.135115 0)
  (-0.223673 -0.133349 0)
  (-0.231735 -0.130303 0)
  (-0.236205 -0.124942 0)
  (-0.236583 -0.11591 0)
  (-0.232972 -0.102605 0)
  (-0.225829 -0.0907565 0)
  (-0.215519 -0.0813614 0)
  (-0.203244 -0.0753932 0)
  (-0.190921 -0.0735383 0)
  (-0.180756 -0.0759295 0)
  (-0.173765 -0.0813791 0)
  (-0.169775 -0.0885179 0)
  (-0.167884 -0.0958511 0)
  (-0.166894 -0.102046 0)
  (-0.165744 -0.106649 0)
  (-0.163812 -0.109829 0)
  (-0.160908 -0.11189 0)
  (-0.157065 -0.113057 0)
  (-0.15234 -0.113473 0)
  (-0.146751 -0.113286 0)
  (-0.140296 -0.112648 0)
  (-0.132984 -0.111734 0)
  (-0.124872 -0.11077 0)
  (-0.116131 -0.11007 0)
  (-0.107142 -0.110041 0)
  (-0.0984732 -0.111052 0)
  (-0.0903657 -0.112605 0)
  (-0.0817346 -0.110735 0)
  (-0.0723439 -0.0960753 0)
  (-0.0781311 -0.0686038 0)
  (-0.143071 -0.0642773 0)
  (0.360752 -0.0233179 0)
  (-0.402062 0.196912 0)
  (0.108867 -0.211209 0)
  (-0.0233715 0.481354 0)
  (-0.0967297 0.336326 0)
  (-0.154653 0.327598 0)
  (-0.190207 0.339087 0)
  (-0.218657 0.34449 0)
  (-0.241138 0.347552 0)
  (-0.25879 0.349336 0)
  (-0.272375 0.34953 0)
  (-0.282315 0.347314 0)
  (-0.288471 0.341623 0)
  (-0.289976 0.332279 0)
  (-0.28699 0.32572 0)
  (-0.279898 0.322389 0)
  (-0.269547 0.322511 0)
  (-0.257235 0.326147 0)
  (-0.244472 0.333058 0)
  (-0.232442 0.342532 0)
  (-0.221803 0.353551 0)
  (-0.21269 0.364849 0)
  (-0.204793 0.375294 0)
  (-0.197612 0.384342 0)
  (-0.190709 0.391968 0)
  (-0.183783 0.398376 0)
  (-0.176631 0.403794 0)
  (-0.169108 0.408406 0)
  (-0.161122 0.412336 0)
  (-0.152647 0.415652 0)
  (-0.143722 0.418395 0)
  (-0.134462 0.42065 0)
  (-0.125104 0.422603 0)
  (-0.116037 0.424572 0)
  (-0.107514 0.426766 0)
  (-0.0988048 0.42828 0)
  (-0.0888077 0.42533 0)
  (-0.0840028 0.41322 0)
  (-0.108726 0.399194 0)
  (-0.15556 0.410364 0)
  (0.442469 0.45519 0)
)
;

boundaryField
{
  floor
  {
    type noSlip;
  }
  ceiling
  {
    type noSlip;
  }
  sWall
  {
    type noSlip;
  }
  nWall
  {
    type noSlip;
  }
  sideWalls
  {
    type empty;
  }
  glass1
  {
    type noSlip;
  }
  glass2
  {
    type noSlip;
  }
  sun
  {
    type noSlip;
  }
  heatsource1
  {
    type noSlip;
  }
  heatsource2
  {
    type noSlip;
  }
  Table_master
  {
    type noSlip;
  }
  Table_slave
  {
    type noSlip;
  }
  inlet
  {
    type fixedValue;
    value uniform (0.277164 -0.114805 0);
  }
  outlet
  {
    type zeroGradient;
  }
} 	// ************************************************************************* //

