/*--------------------------------*- C++ -*----------------------------------*\
  =========                 |
  \\      /  F ield         | OpenFOAM: The Open Source CFD Toolbox
   \\    /   O peration     | Website:  https://openfoam.org
    \\  /    A nd           | Version:  6
     \\/     M anipulation  |
\*---------------------------------------------------------------------------*/
FoamFile
{
    version     2.0;
    format      ascii;
    class       volScalarField;
    location    "300";
    object      epsilon;
}
// * * * * * * * * * * * * * * * * * * * * * * * * * * * * * * * * * * * * * //

dimensions      [0 2 -3 0 0 0 0];

internalField   nonuniform List<scalar> 
459
(
0.000445566
0.000577825
0.000604562
0.000694148
0.000784853
0.000876449
0.00097263
0.00107257
0.00114537
0.00117368
0.00114334
0.00105022
0.000905106
0.000735535
0.000579273
3.43754e-05
6.10114e-05
8.4831e-05
8.2545e-05
7.41045e-05
6.41381e-05
5.29443e-05
4.32065e-05
3.54573e-05
2.93985e-05
2.46451e-05
2.08981e-05
1.79113e-05
1.54824e-05
1.34536e-05
1.16816e-05
1.00437e-05
9.53814e-06
7.59664e-06
0.00115301
0.00167207
0.000546726
0.000526051
0.000550612
0.000590871
0.000649528
0.000726875
0.000799631
0.000844686
0.00084329
0.000788868
0.000688776
0.000566033
0.000481208
0.000596419
0.000130496
4.41925e-05
0.000101453
0.000104665
9.40442e-05
7.96264e-05
6.66221e-05
5.97284e-05
4.85837e-05
3.87332e-05
3.08976e-05
2.48306e-05
2.01654e-05
1.65812e-05
1.38268e-05
1.18233e-05
1.05783e-05
1.00748e-05
3.07411e-05
2.00848e-05
0.00212153
0.00413633
0.00069725
0.000510808
0.000533859
0.000598544
0.000693162
0.000811242
0.000919722
0.000985791
0.000991626
0.000936058
0.000831082
0.000696854
0.000581199
0.000512173
0.000582414
0.000340579
0.000234844
0.000172582
0.000131147
0.000102585
8.63963e-05
0.000156954
0.000108093
7.74322e-05
5.75486e-05
4.41897e-05
3.49122e-05
2.8287e-05
2.34684e-05
1.99886e-05
1.54233e-05
1.33696e-05
6.18223e-05
3.346e-05
0.00344891
0.00856747
0.0011313
0.000531773
0.000534513
0.000628186
0.000775658
0.000957267
0.00110171
0.00117422
0.00116987
0.00109714
0.00097254
0.000810421
0.000664556
0.000557324
0.000524204
0.000987145
0.000543828
0.000319556
0.000211085
0.000151134
0.000115185
9.97613e-05
0.000230592
0.000176559
0.000145186
0.000124886
0.000109316
9.48376e-05
8.20788e-05
6.97081e-05
5.66756e-05
3.3438e-05
2.26486e-05
0.000112427
4.58369e-05
0.00526589
0.0151722
0.00225503
0.000659141
0.000569585
0.000694195
0.000955755
0.00122981
0.0013879
0.00143762
0.00139933
0.00129118
0.0011275
0.000929871
0.00073164
0.00055923
0.00043201
0.000372225
0.000294452
0.000227041
0.000175186
0.000137252
0.000110359
9.38524e-05
9.29509e-05
8.81462e-05
8.31545e-05
7.81145e-05
7.23559e-05
6.53229e-05
5.79853e-05
5.11332e-05
4.49572e-05
3.60678e-05
2.83061e-05
7.42891e-05
5.6062e-05
8.40819e-05
0.000143376
0.000204998
0.00777273
0.0223826
0.00503409
0.00130752
0.000887146
0.00101709
0.00150347
0.00176901
0.00184615
0.0018162
0.0017167
0.00155577
0.00133704
0.00108
0.000819158
0.000589995
0.000418926
0.000312377
0.0002453
0.000195541
0.000155746
0.000125492
0.000104119
9.1137e-05
8.62459e-05
8.51747e-05
8.51732e-05
8.47129e-05
8.25673e-05
7.73419e-05
6.79751e-05
5.78524e-05
4.87319e-05
4.05755e-05
3.57189e-05
5.22906e-05
5.71251e-05
6.72926e-05
0.000266214
0.000239447
0.01065
0.0266644
0.0102688
0.00420949
0.00286752
0.00276006
0.00284266
0.00274233
0.00256437
0.00236764
0.00215453
0.00190256
0.0015978
0.00125683
0.00091938
0.00062847
0.000418053
0.000289394
0.000215985
0.000168997
0.000134977
0.000111048
9.5992e-05
8.88444e-05
8.83382e-05
9.18978e-05
9.72093e-05
0.00010312
0.000108503
0.000111254
0.000107647
9.49699e-05
8.26641e-05
7.29778e-05
7.05815e-05
8.35261e-05
0.000113345
0.000187358
0.000410668
0.000397981
0.011273
0.0289545
0.0161182
0.0109384
0.00818321
0.00636996
0.0050267
0.00411404
0.00350724
0.00307695
0.00271083
0.00232714
0.00189089
0.00142776
0.000989749
0.000624136
0.000379434
0.000241544
0.000171503
0.000133838
0.000109761
9.50468e-05
8.79311e-05
8.71839e-05
9.16586e-05
0.000100149
0.000111942
0.000127087
0.000145857
0.000168164
0.000192827
0.000213531
0.000226218
0.000256723
0.000322459
0.00050938
0.00096913
0.00178689
0.00478768
0.00134481
0.0103874
0.0173172
0.0137769
0.0104436
0.00803665
0.00642656
0.00538304
0.00471244
0.00424253
0.00382365
0.00335363
0.00278209
0.00211965
0.00146967
0.000911147
0.000465219
0.000258205
0.000166527
0.000122278
9.83826e-05
8.45918e-05
7.79795e-05
7.7072e-05
8.09535e-05
8.90573e-05
0.000101212
0.000117833
0.000140021
0.000169565
0.000209037
0.0002619
0.000332569
0.000428577
0.000565442
0.000762324
0.00101762
0.00129256
0.00151567
0.00169523
0.00106076
0.00395918
0.00604659
0.00686415
0.00688737
0.00658934
0.00610174
0.00541645
0.00455912
0.00359811
0.00255557
0.00148156
0.000808652
0.000431272
0.000231334
0.000138749
9.55018e-05
7.4011e-05
6.29998e-05
5.81758e-05
5.75212e-05
6.01937e-05
6.58885e-05
7.4518e-05
8.63124e-05
0.000101863
0.000122187
0.000148856
0.000184242
0.000231908
0.000297892
0.000388315
0.000509866
0.00066451
0.000834078
0.000970577
0.00101911
0.000923576
0.000580305
0.00308438
0.00664937
0.00726019
0.00585463
0.00512873
0.00437012
0.0034263
0.00248138
0.00168052
0.00107175
0.000613654
0.00033299
0.00018213
0.000106722
7.06905e-05
5.32828e-05
4.4971e-05
4.17049e-05
4.17368e-05
4.42362e-05
4.88347e-05
5.54059e-05
6.41227e-05
7.53768e-05
8.98064e-05
0.000108388
0.000132603
0.000164702
0.000208075
0.000266931
0.000346737
0.000452149
0.000581784
0.000729396
0.000826216
0.000907358
0.000827121
0.000607497
0.00214773
0.00254391
0.00285897
0.00349825
0.00307365
0.00258054
0.00227828
0.00195526
0.00158046
0.0011966
0.000847995
0.000563645
0.000353568
0.000217928
0.000140582
9.79829e-05
7.38345e-05
5.98405e-05
5.21274e-05
4.87534e-05
4.85817e-05
5.09366e-05
5.55283e-05
6.23203e-05
7.11334e-05
8.22765e-05
9.62241e-05
0.000113678
0.000135739
0.000164281
0.000201543
0.000248679
0.000308374
0.000383938
0.000477952
0.000621226
0.000648268
0.000588559
0.000483334
0.000379742
)
;

boundaryField
{
    floor
    {
        Cmu             0.09;
        kappa           0.41;
        E               9.8;
        type            epsilonWallFunction;
        value           nonuniform List<scalar> 
29
(
0.000579273
3.43754e-05
6.10114e-05
8.4831e-05
8.2545e-05
7.41045e-05
6.41381e-05
5.29443e-05
4.32065e-05
3.54573e-05
2.93985e-05
2.46451e-05
2.08981e-05
1.79113e-05
1.54824e-05
1.34536e-05
1.16816e-05
1.00437e-05
9.53814e-06
7.59664e-06
7.59664e-06
2.00848e-05
3.346e-05
4.58369e-05
0.000579273
3.43754e-05
4.41925e-05
0.000340579
0.000987145
)
;
    }
    ceiling
    {
        Cmu             0.09;
        kappa           0.41;
        E               9.8;
        type            epsilonWallFunction;
        value           nonuniform List<scalar> 
43
(
0.00214773
0.00254391
0.00285897
0.00349825
0.00307365
0.00258054
0.00227828
0.00195526
0.00158046
0.0011966
0.000847995
0.000563645
0.000353568
0.000217928
0.000140582
9.79829e-05
7.38345e-05
5.98405e-05
5.21274e-05
4.87534e-05
4.85817e-05
5.09366e-05
5.55283e-05
6.23203e-05
7.11334e-05
8.22765e-05
9.62241e-05
0.000113678
0.000135739
0.000164281
0.000201543
0.000248679
0.000308374
0.000383938
0.000477952
0.000621226
0.000648268
0.000588559
0.000483334
0.000379742
0.0103874
0.0173172
0.00308438
)
;
    }
    sWall
    {
        Cmu             0.09;
        kappa           0.41;
        E               9.8;
        type            epsilonWallFunction;
        value           uniform 0.00214773;
    }
    nWall
    {
        Cmu             0.09;
        kappa           0.41;
        E               9.8;
        type            epsilonWallFunction;
        value           nonuniform List<scalar> 6(0.000204998 0.000239447 0.000397981 0.000580305 0.000607497 0.000379742);
    }
    sideWalls
    {
        type            empty;
    }
    glass1
    {
        Cmu             0.09;
        kappa           0.41;
        E               9.8;
        type            epsilonWallFunction;
        value           nonuniform List<scalar> 9(0.000445566 0.00115301 0.00212153 0.00344891 0.00526589 0.00777273 0.01065 0.011273 0.0103874);
    }
    glass2
    {
        Cmu             0.09;
        kappa           0.41;
        E               9.8;
        type            epsilonWallFunction;
        value           nonuniform List<scalar> 2(0.00134481 0.00106076);
    }
    sun
    {
        Cmu             0.09;
        kappa           0.41;
        E               9.8;
        type            epsilonWallFunction;
        value           nonuniform List<scalar> 
14
(
0.000445566
0.000577825
0.000604562
0.000694148
0.000784853
0.000876449
0.00097263
0.00107257
0.00114537
0.00117368
0.00114334
0.00105022
0.000905106
0.000735535
)
;
    }
    heatsource1
    {
        Cmu             0.09;
        kappa           0.41;
        E               9.8;
        type            epsilonWallFunction;
        value           nonuniform List<scalar> 3(8.40819e-05 0.000143376 0.000204998);
    }
    heatsource2
    {
        Cmu             0.09;
        kappa           0.41;
        E               9.8;
        type            epsilonWallFunction;
        value           nonuniform List<scalar> 4(0.000596419 0.000130496 0.000130496 0.000582414);
    }
    Table_master
    {
        Cmu             0.09;
        kappa           0.41;
        E               9.8;
        type            epsilonWallFunction;
        value           nonuniform List<scalar> 9(0.000156954 0.000108093 7.74322e-05 5.75486e-05 4.41897e-05 3.49122e-05 2.8287e-05 2.34684e-05 1.99886e-05);
    }
    Table_slave
    {
        Cmu             0.09;
        kappa           0.41;
        E               9.8;
        type            epsilonWallFunction;
        value           nonuniform List<scalar> 9(0.000230592 0.000176559 0.000145186 0.000124886 0.000109316 9.48376e-05 8.20788e-05 6.97081e-05 5.66756e-05);
    }
    inlet
    {
        type            turbulentMixingLengthDissipationRateInlet;
        mixingLength    0.01;
        phi             phi;
        k               k;
        value           uniform 0.000101881;
    }
    outlet
    {
        type            zeroGradient;
    }
}


// ************************************************************************* //
