/*--------------------------------*- C++ -*----------------------------------*\
  =========                 |
  \\      /  F ield         | OpenFOAM: The Open Source CFD Toolbox
   \\    /   O peration     | Website:  https://openfoam.org
    \\  /    A nd           | Version:  6
     \\/     M anipulation  |
\*---------------------------------------------------------------------------*/
FoamFile
{
    version     2.0;
    format      ascii;
    class       volScalarField;
    location    "700";
    object      alphat;
}
// * * * * * * * * * * * * * * * * * * * * * * * * * * * * * * * * * * * * * //

dimensions      [1 -1 -1 0 0 0 0];

internalField   nonuniform List<scalar> 
459
(
0.00122554
0.00133755
0.00136029
0.00142469
0.00148397
0.00153895
0.00159212
0.00164687
0.00168768
0.00170849
0.00170325
0.0016677
0.00160185
0.00151312
0.00141722
0.000537711
0.000663784
0.000739054
0.000725711
0.000696203
0.000660828
0.000620057
0.00058065
0.000545006
0.000513297
0.000485136
0.000460029
0.000437698
0.000417548
0.000398885
0.000380769
0.000361782
0.000348661
0.000318077
0.0016773
0.00404074
0.00384837
0.00447857
0.00509029
0.00570771
0.00626938
0.00667755
0.00705128
0.00736193
0.00756254
0.00759356
0.00736684
0.00667347
0.00484561
0.00143952
0.000903833
0.000593566
0.00120184
0.00162344
0.00190881
0.00204604
0.00202934
0.00167175
0.00145695
0.00129992
0.00117767
0.00107935
0.000998618
0.0009271
0.000860331
0.000796005
0.000739543
0.000689769
0.00081139
0.000420247
0.0020546
0.00552449
0.00475553
0.00602551
0.00665117
0.00711269
0.00746826
0.00773531
0.00802228
0.0083268
0.00861498
0.00882776
0.00890218
0.00875749
0.00818351
0.00646286
0.00139707
0.00120964
0.00168138
0.0020922
0.00243565
0.0026522
0.00256493
0.000885689
0.000785108
0.000704261
0.000638891
0.000585497
0.000541416
0.000504735
0.000474208
0.000449269
0.000482443
0.000555079
0.000907888
0.000487432
0.00241815
0.00710742
0.00475235
0.00639922
0.00699419
0.00719514
0.00729929
0.00740746
0.00761491
0.00791071
0.00826785
0.00860993
0.00887525
0.0090075
0.00891081
0.00834438
0.00644463
0.00168271
0.00209282
0.0026642
0.00316451
0.00352425
0.00372319
0.00347511
0.000994965
0.000908733
0.000847365
0.000800901
0.000761501
0.000724965
0.000689939
0.000653114
0.000610156
0.00057298
0.000583134
0.00103286
0.000539097
0.00278934
0.00914951
0.00524207
0.006123
0.0069468
0.0070338
0.00695344
0.00695635
0.00713727
0.00742897
0.00783164
0.00823819
0.00856854
0.00874485
0.00872634
0.00846243
0.00778382
0.0063734
0.00585098
0.00562051
0.00548577
0.00538647
0.00529068
0.00508939
0.0043441
0.00399415
0.00379519
0.00364067
0.00347221
0.00322152
0.00287065
0.00243698
0.00194938
0.00144896
0.00106684
0.00106108
0.000717638
0.000669068
0.000810604
0.000908433
0.00318258
0.0113683
0.00728953
0.00602472
0.00662343
0.00692946
0.00678847
0.00681552
0.00696247
0.00722822
0.00761673
0.00805681
0.0084253
0.00860879
0.00855479
0.00828748
0.00788415
0.00742494
0.00711588
0.00687639
0.00664741
0.00643237
0.00623133
0.00601097
0.00569779
0.00542097
0.0051728
0.00492996
0.00467761
0.0043995
0.00403403
0.00356446
0.00298954
0.00234013
0.00175564
0.00130468
0.000988774
0.000844717
0.00121046
0.000946114
0.00354242
0.0129334
0.0103181
0.00781164
0.00731417
0.00733954
0.00716617
0.00701651
0.00702829
0.00725881
0.00767566
0.00816267
0.00855812
0.00872203
0.00860168
0.00826106
0.00787012
0.00759728
0.00745736
0.00729953
0.00705679
0.00675285
0.00641506
0.00606426
0.00571887
0.0054111
0.00513065
0.00486592
0.00461618
0.00438813
0.00418132
0.00387086
0.00341644
0.00285423
0.00230868
0.00181357
0.00145403
0.00134031
0.00136913
0.00106665
0.00361149
0.0115767
0.0102468
0.0094126
0.00882252
0.00809331
0.00741408
0.00705622
0.00708743
0.0074537
0.00801626
0.00858752
0.00897059
0.00902921
0.00875452
0.00827555
0.00783753
0.00761595
0.00750536
0.00721429
0.00676242
0.00624266
0.00573509
0.00529506
0.00493893
0.004651
0.0044068
0.00419711
0.00402621
0.00390471
0.00384377
0.00381581
0.00356518
0.00319107
0.0028575
0.00268104
0.00277364
0.00320178
0.0039753
0.00167947
0.00351307
0.00417594
0.00465577
0.00481499
0.00488505
0.00506871
0.00548508
0.00617284
0.00707482
0.00804002
0.00888679
0.00945202
0.00959723
0.00928553
0.00866114
0.00801057
0.00759866
0.00727226
0.00686705
0.00629731
0.00564535
0.00503455
0.00453645
0.00415882
0.00387276
0.00364392
0.00344899
0.00327687
0.00312157
0.00297697
0.00283612
0.00270004
0.00258922
0.002507
0.00247762
0.00249407
0.00248937
0.00239968
0.00224869
0.00158275
0.00182486
0.00366742
0.00554748
0.00716014
0.0084717
0.00954745
0.010303
0.0106813
0.010691
0.0103605
0.00965551
0.00870041
0.00772045
0.00698588
0.00645683
0.00590149
0.00527169
0.00463904
0.00408313
0.0036543
0.00333784
0.0031001
0.00291342
0.00276082
0.00263454
0.00253229
0.00245419
0.00240148
0.00237788
0.0023838
0.00240381
0.00243516
0.00247044
0.00248273
0.00242701
0.00228625
0.00207347
0.00131822
0.00237069
0.00581196
0.00855856
0.00962451
0.0102422
0.0105177
0.0104038
0.00992912
0.00918024
0.00826996
0.0073156
0.00644894
0.00571005
0.00508525
0.0045014
0.00396795
0.00353694
0.00321726
0.00298527
0.00280275
0.00264905
0.00251663
0.00240976
0.00232689
0.00226768
0.00223204
0.002219
0.0022256
0.00225887
0.002317
0.00239646
0.0024897
0.00257916
0.00264174
0.00262694
0.00266299
0.00270963
0.00134381
0.00208883
0.00221396
0.00230263
0.00245713
0.00236529
0.00225627
0.00218453
0.00209687
0.00197675
0.00182578
0.00165157
0.00146584
0.00128278
0.00111701
0.000985142
0.000891385
0.000828091
0.000785949
0.000758189
0.000740537
0.000730518
0.00072654
0.000728372
0.000735963
0.000748179
0.000765201
0.000787302
0.000814871
0.000848547
0.000889482
0.000936749
0.000990202
0.00105052
0.00111836
0.00119344
0.00128213
0.00131372
0.0012819
0.00120422
0.00112277
)
;

boundaryField
{
    floor
    {
        type            compressible::alphatWallFunction;
        Prt             0.85;
        value           nonuniform List<scalar> 
29
(
0.000199836
7.50002e-05
9.38759e-05
0.000104932
0.000102982
9.86549e-05
9.3438e-05
8.73829e-05
8.14839e-05
7.61053e-05
7.12838e-05
6.69705e-05
6.30983e-05
5.96317e-05
5.64844e-05
5.35518e-05
5.06883e-05
4.76682e-05
4.55691e-05
4.06356e-05
4.0635e-05
5.69075e-05
6.7324e-05
7.52106e-05
0.000199834
7.49993e-05
8.34232e-05
0.000171498
0.000235409
)
;
    }
    ceiling
    {
        type            compressible::alphatWallFunction;
        Prt             0.85;
        value           nonuniform List<scalar> 
43
(
0.000288568
0.000304737
0.000316138
0.00033601
0.000324334
0.000310375
0.000301148
0.000289822
0.000274211
0.000254439
0.000231396
0.000206527
0.000181667
0.000158803
0.000140337
0.000127032
0.000117957
0.00011187
0.000107839
0.000105267
0.000103804
0.000103222
0.000103491
0.000104601
0.000106384
0.000108862
0.00011207
0.000116056
0.000120904
0.000126766
0.000133495
0.000141056
0.000149533
0.000158999
0.000169399
0.000181588
0.000185906
0.000181557
0.000170886
0.000159616
0.000468187
0.000548822
0.000324699
)
;
    }
    sWall
    {
        type            compressible::alphatWallFunction;
        Prt             0.85;
        value           uniform 0.000287358;
    }
    nWall
    {
        type            compressible::alphatWallFunction;
        Prt             0.85;
        value           nonuniform List<scalar> 6(0.00012915 0.000134499 0.000151455 0.000186194 0.00018968 0.000159294);
    }
    sideWalls
    {
        type            empty;
    }
    glass1
    {
        type            compressible::alphatWallFunction;
        Prt             0.85;
        value           nonuniform List<scalar> 9(0.000169483 0.000229677 0.000278698 0.000325103 0.000371789 0.000420587 0.000464739 0.000473291 0.00046151);
    }
    glass2
    {
        type            compressible::alphatWallFunction;
        Prt             0.85;
        value           nonuniform List<scalar> 2(0.000233436 0.000220664);
    }
    sun
    {
        type            compressible::alphatWallFunction;
        Prt             0.85;
        value           nonuniform List<scalar> 
14
(
0.000173707
0.000189024
0.000192117
0.000200849
0.000208848
0.000216234
0.00022335
0.000230649
0.000236073
0.000238832
0.000238138
0.000233417
0.000224647
0.000212766
)
;
    }
    heatsource1
    {
        type            compressible::alphatWallFunction;
        Prt             0.85;
        value           nonuniform List<scalar> 3(9.47596e-05 0.000115424 0.000129452);
    }
    heatsource2
    {
        type            compressible::alphatWallFunction;
        Prt             0.85;
        value           nonuniform List<scalar> 4(0.000202969 0.000128798 0.000128797 0.000197222);
    }
    Table_master
    {
        type            compressible::alphatWallFunction;
        Prt             0.85;
        value           nonuniform List<scalar> 9(0.000126202 0.000111732 9.99395e-05 9.02848e-05 8.23091e-05 7.56566e-05 7.00695e-05 6.53806e-05 6.15217e-05);
    }
    Table_slave
    {
        type            compressible::alphatWallFunction;
        Prt             0.85;
        value           nonuniform List<scalar> 9(0.000141708 0.000129492 0.000120716 0.000114021 0.000108307 0.000102977 9.78366e-05 9.23979e-05 8.60056e-05);
    }
    inlet
    {
        type            fixedValue;
        value           uniform 1.94e-05;
    }
    outlet
    {
        type            zeroGradient;
    }
}


// ************************************************************************* //
