/*--------------------------------*- C++ -*----------------------------------*\
  =========                 |
  \\      /  F ield         | OpenFOAM: The Open Source CFD Toolbox
   \\    /   O peration     | Website:  https://openfoam.org
    \\  /    A nd           | Version:  6
     \\/     M anipulation  |
\*---------------------------------------------------------------------------*/
FoamFile
{
    version     2.0;
    format      ascii;
    class       volScalarField;
    location    "400";
    object      alphat;
}
// * * * * * * * * * * * * * * * * * * * * * * * * * * * * * * * * * * * * * //

dimensions      [1 -1 -1 0 0 0 0];

internalField   nonuniform List<scalar> 
459
(
0.00104176
0.00111782
0.00112585
0.00117163
0.00121217
0.00124838
0.0012819
0.00131459
0.00134406
0.00136167
0.00136209
0.00134086
0.00129733
0.00123817
0.00117609
0.000454407
0.00054324
0.000580364
0.000561036
0.000536224
0.000510299
0.000483943
0.000459377
0.000437246
0.000417459
0.000399755
0.000383914
0.000369646
0.000356575
0.000344239
0.000331949
0.000318588
0.000312098
0.000290898
0.00147153
0.00298474
0.00270569
0.00312349
0.0034778
0.00384512
0.00419643
0.00448581
0.00470504
0.00489175
0.00500515
0.00499479
0.00479483
0.00427599
0.00309399
0.00116939
0.000784069
0.000532264
0.000854065
0.00104798
0.00117267
0.00122383
0.0012138
0.00107963
0.000983684
0.000907371
0.000844541
0.000791821
0.000745608
0.00070283
0.00066167
0.000621873
0.000588977
0.000555217
0.000679863
0.000396248
0.00184202
0.00409376
0.00312149
0.0040942
0.00443599
0.00467657
0.0048586
0.00500924
0.0051565
0.00531784
0.00545635
0.00553407
0.00552102
0.00539228
0.00509384
0.00430262
0.00111479
0.000959158
0.00116941
0.0013141
0.00143484
0.00151846
0.00149699
0.000644033
0.000589398
0.000543508
0.000504979
0.000472477
0.000444868
0.000421275
0.00040111
0.000383999
0.000409044
0.000458699
0.000766936
0.000467898
0.00221286
0.00555739
0.00298383
0.00429434
0.00461903
0.00468925
0.00470597
0.00475613
0.00487378
0.00504026
0.00520419
0.00532849
0.0053925
0.00538432
0.00530667
0.00505846
0.004134
0.00123283
0.0014419
0.00165733
0.00183888
0.00199173
0.0021194
0.00208746
0.000717043
0.000683642
0.000663027
0.000648204
0.00063323
0.000615082
0.000596013
0.000573685
0.000544681
0.000508973
0.000498617
0.000904642
0.000523864
0.00259794
0.0075603
0.00332466
0.0039974
0.00454709
0.00453981
0.00444592
0.00445002
0.00459803
0.0048085
0.00499982
0.00514477
0.00522481
0.0052086
0.00507674
0.00481092
0.00434661
0.00358546
0.00318061
0.00298175
0.00291109
0.00293266
0.00300856
0.00307409
0.00291216
0.00288382
0.00288753
0.00287458
0.00281772
0.00267843
0.00242678
0.00208907
0.00169379
0.00127343
0.000924775
0.00090595
0.000671443
0.000690403
0.000830001
0.000923492
0.00300745
0.00978641
0.00510876
0.00364559
0.00417943
0.00437057
0.00435202
0.00428829
0.00451284
0.00475435
0.0049477
0.00508888
0.00515919
0.00512293
0.00494008
0.00459111
0.0041175
0.00366418
0.00342523
0.00335665
0.0033651
0.00340812
0.00346404
0.00352877
0.00358291
0.00363766
0.00366804
0.00365925
0.00360552
0.00350263
0.00329334
0.00296759
0.00252639
0.00199711
0.00149524
0.00106446
0.000862999
0.000784817
0.00116784
0.000958174
0.00341312
0.0115384
0.00832118
0.00509562
0.00418057
0.00408943
0.00437903
0.00452411
0.00470714
0.00487153
0.00501972
0.00513537
0.00518676
0.0051259
0.0048983
0.00448378
0.00394723
0.00351672
0.0034072
0.00346268
0.00347754
0.00345479
0.00345956
0.00351158
0.00358801
0.00365793
0.00369776
0.0037015
0.00367214
0.0036179
0.00353865
0.00330198
0.00291228
0.00242218
0.00194927
0.00149364
0.00121385
0.00114596
0.0012122
0.00104591
0.00351014
0.0109964
0.00931857
0.00789963
0.0066134
0.00579396
0.00551951
0.00525298
0.00511386
0.00511387
0.00518495
0.00525513
0.0052665
0.00515554
0.00485577
0.00435531
0.00374791
0.00338285
0.00339308
0.00331508
0.00321038
0.00316269
0.00317713
0.00322917
0.00329267
0.00334646
0.00338021
0.00339595
0.00340378
0.00341868
0.00345448
0.00346207
0.00317501
0.00280526
0.00247994
0.00231594
0.00243356
0.00295559
0.00388126
0.00169878
0.00343657
0.00414836
0.00467373
0.00490112
0.00496335
0.00489647
0.004839
0.00488147
0.00503122
0.00520872
0.00534253
0.00539492
0.00534161
0.00512322
0.00466806
0.00401464
0.00341559
0.00316712
0.00297846
0.00280764
0.00272276
0.00270762
0.00272905
0.00276287
0.00279339
0.00281023
0.00280784
0.00278425
0.00273874
0.00267063
0.00258005
0.00247396
0.00237902
0.00231743
0.00231667
0.00236831
0.00240132
0.00234253
0.00220592
0.00159352
0.00224836
0.00407023
0.00484078
0.00524688
0.00558617
0.00585347
0.00594811
0.00589104
0.00574159
0.00554263
0.00525717
0.00475544
0.00394641
0.00317009
0.00274665
0.00246506
0.0022485
0.00214797
0.00212197
0.00213147
0.00215469
0.00218005
0.00220115
0.00221477
0.00222016
0.00221874
0.00221381
0.00221057
0.00221602
0.00223997
0.00227143
0.00231473
0.00236583
0.00239756
0.00236258
0.00223939
0.00203799
0.00131659
0.00253932
0.00495417
0.0058319
0.0060466
0.00623415
0.00631848
0.00592737
0.00547121
0.00508021
0.0047472
0.00415876
0.00311942
0.00231932
0.00191636
0.00167165
0.00152017
0.00145373
0.00144458
0.00146465
0.00150004
0.00154466
0.00159592
0.00165293
0.00171566
0.00178435
0.00185892
0.00193822
0.00201904
0.00210382
0.00219871
0.0023037
0.00241557
0.0025214
0.00260282
0.00261134
0.00267688
0.00263755
0.00133583
0.00219225
0.00231758
0.00241357
0.00253923
0.00238574
0.00219356
0.00192504
0.00155346
0.00135523
0.00118723
0.00104327
0.000906181
0.000767576
0.000648909
0.000558012
0.000519258
0.000514015
0.000524463
0.000542768
0.000564431
0.000588312
0.000614025
0.00064142
0.000670485
0.000701308
0.000734068
0.000769062
0.000806763
0.000847946
0.000893923
0.000945545
0.00100214
0.00106466
0.00113425
0.00121162
0.00130703
0.00134158
0.0013129
0.00123142
0.00114473
)
;

boundaryField
{
    floor
    {
        type            compressible::alphatWallFunction;
        Prt             0.85;
        value           nonuniform List<scalar> 
29
(
0.000166854
6.22198e-05
7.58291e-05
8.14305e-05
7.85187e-05
7.47627e-05
7.0815e-05
6.67761e-05
6.29867e-05
5.95509e-05
5.64601e-05
5.36788e-05
5.11766e-05
4.89117e-05
4.68266e-05
4.48497e-05
4.28708e-05
4.07085e-05
3.96536e-05
3.61884e-05
3.61878e-05
5.31245e-05
6.43025e-05
7.28822e-05
0.000166852
6.2219e-05
7.41649e-05
0.000136528
0.000174675
)
;
    }
    ceiling
    {
        type            compressible::alphatWallFunction;
        Prt             0.85;
        value           nonuniform List<scalar> 
43
(
0.000301956
0.000318072
0.000330355
0.000346459
0.000326953
0.000302316
0.000267479
0.000218267
0.000191481
0.000168445
0.000148428
0.000129074
0.000109149
9.17558e-05
7.81627e-05
7.22854e-05
7.14879e-05
7.3082e-05
7.58641e-05
7.91411e-05
8.27354e-05
8.65853e-05
9.06652e-05
9.49706e-05
9.95114e-05
0.000104311
0.00010941
0.000114872
0.000120803
0.000127385
0.000134728
0.000142724
0.000151497
0.000161192
0.00017189
0.000184977
0.00018969
0.00018578
0.000174617
0.000162649
0.000458774
0.000545484
0.000346257
)
;
    }
    sWall
    {
        type            compressible::alphatWallFunction;
        Prt             0.85;
        value           uniform 0.00030074;
    }
    nWall
    {
        type            compressible::alphatWallFunction;
        Prt             0.85;
        value           nonuniform List<scalar> 6(0.000131271 0.000136186 0.000148531 0.000185951 0.000188571 0.00016232);
    }
    sideWalls
    {
        type            empty;
    }
    glass1
    {
        type            compressible::alphatWallFunction;
        Prt             0.85;
        value           nonuniform List<scalar> 9(0.000144342 0.000202475 0.000251194 0.000298991 0.000347796 0.000398919 0.000448898 0.000460888 0.000452109);
    }
    glass2
    {
        type            compressible::alphatWallFunction;
        Prt             0.85;
        value           nonuniform List<scalar> 2(0.000235877 0.000221992);
    }
    sun
    {
        type            compressible::alphatWallFunction;
        Prt             0.85;
        value           nonuniform List<scalar> 
14
(
0.000148182
0.000158782
0.000159898
0.000166241
0.000171837
0.000176815
0.000181409
0.000185876
0.000189892
0.000192287
0.000192344
0.000189456
0.000183516
0.000175408
)
;
    }
    heatsource1
    {
        type            compressible::alphatWallFunction;
        Prt             0.85;
        value           nonuniform List<scalar> 3(9.79063e-05 0.000118221 0.000131595);
    }
    heatsource2
    {
        type            compressible::alphatWallFunction;
        Prt             0.85;
        value           nonuniform List<scalar> 4(0.00016605 0.000111574 0.000111573 0.000158469);
    }
    Table_master
    {
        type            compressible::alphatWallFunction;
        Prt             0.85;
        value           nonuniform List<scalar> 9(9.10452e-05 8.28919e-05 7.59714e-05 7.01047e-05 6.51118e-05 6.08364e-05 5.7156e-05 5.39893e-05 5.12862e-05);
    }
    Table_slave
    {
        type            compressible::alphatWallFunction;
        Prt             0.85;
        value           nonuniform List<scalar> 9(0.000101813 9.69059e-05 9.38629e-05 9.16677e-05 8.94437e-05 8.67396e-05 8.38875e-05 8.05337e-05 7.61525e-05);
    }
    inlet
    {
        type            fixedValue;
        value           uniform 1.94e-05;
    }
    outlet
    {
        type            zeroGradient;
    }
}


// ************************************************************************* //
