/*--------------------------------*- C++ -*----------------------------------*\
  =========                 |
  \\      /  F ield         | OpenFOAM: The Open Source CFD Toolbox
   \\    /   O peration     | Website:  https://openfoam.org
    \\  /    A nd           | Version:  6
     \\/     M anipulation  |
\*---------------------------------------------------------------------------*/
FoamFile
{
    version     2.0;
    format      ascii;
    class       volScalarField;
    location    "670";
    object      alphat;
}
// * * * * * * * * * * * * * * * * * * * * * * * * * * * * * * * * * * * * * //

dimensions      [1 -1 -1 0 0 0 0];

internalField   nonuniform List<scalar> 
459
(
0.000975506
0.00106495
0.00109091
0.00114456
0.00119389
0.00124041
0.00128662
0.00133446
0.00137453
0.0014019
0.00141008
0.00139214
0.00133983
0.00123638
0.00100173
0.000586277
0.000815373
0.000789223
0.000763969
0.000739391
0.000711386
0.000673078
0.000633319
0.000596468
0.000563226
0.000533528
0.000506932
0.000482805
0.000460487
0.000439165
0.000417614
0.000394475
0.000357748
0.000341363
0.00131176
0.00299975
0.00277846
0.00318796
0.00360816
0.00404795
0.00445514
0.00476794
0.00509736
0.00542434
0.00571415
0.00592417
0.0059948
0.00581364
0.00489464
0.00110927
0.000752404
0.00083662
0.00236828
0.00227789
0.00245955
0.00259423
0.00254486
0.00198038
0.00170288
0.00151104
0.00136527
0.0012477
0.0011448
0.00105165
0.000962877
0.000876521
0.000803245
0.000780159
0.000666872
0.000434569
0.001595
0.00402474
0.00339008
0.00412779
0.00446235
0.00470764
0.00490014
0.00506782
0.00531423
0.00564141
0.00603291
0.0064516
0.00682527
0.00703983
0.00672122
0.00510438
0.00113592
0.00103189
0.00189559
0.00257024
0.00307578
0.00338235
0.00318468
0.000917466
0.000811143
0.000725996
0.000657776
0.000602642
0.000557796
0.000521142
0.000491511
0.000469008
0.0005278
0.000660534
0.000735275
0.000476814
0.00186784
0.00506355
0.003305
0.00428493
0.00445846
0.0044407
0.00441335
0.00447067
0.0046574
0.00498002
0.00543642
0.00599461
0.00656128
0.00703852
0.00718179
0.00666376
0.00428738
0.00136316
0.00191292
0.00264219
0.00340118
0.00400688
0.00434803
0.00398636
0.00101214
0.000929736
0.000876632
0.000840698
0.000813307
0.00078748
0.000757952
0.00072721
0.000690264
0.000658266
0.000685265
0.000834957
0.000539494
0.00214699
0.00644247
0.00338096
0.00406407
0.0042713
0.0040953
0.00393583
0.00396257
0.00414128
0.00446585
0.00495631
0.00558437
0.00620301
0.00667326
0.00692869
0.00689221
0.00640822
0.00556188
0.00544586
0.00555193
0.00567937
0.00574545
0.00570906
0.00545883
0.00460761
0.00425968
0.00409963
0.00400626
0.00392139
0.0038049
0.00359924
0.00320635
0.00266677
0.00205866
0.00155048
0.00133896
0.000925775
0.000625907
0.000625805
0.000617379
0.00244509
0.00802555
0.00443041
0.00370979
0.00405249
0.00397181
0.00377418
0.00376461
0.00393907
0.00426077
0.00476912
0.0054089
0.00602939
0.00647724
0.00669684
0.00674938
0.00674007
0.00674986
0.00682625
0.00684179
0.00675395
0.00657316
0.00632771
0.00603884
0.00571564
0.00549981
0.00536304
0.0052644
0.00517336
0.00505769
0.00487831
0.00456114
0.00407477
0.00343757
0.00275467
0.00223377
0.00172314
0.00133628
0.00147012
0.00080933
0.00274489
0.00929422
0.00660354
0.00425609
0.00379508
0.00388958
0.00388899
0.00388188
0.00397681
0.00426909
0.00479293
0.00547135
0.00612412
0.0065728
0.00676702
0.0068295
0.00694293
0.00713279
0.00723622
0.00715344
0.00691721
0.00659444
0.00625109
0.00594346
0.0057106
0.00556469
0.00547263
0.0054077
0.00535012
0.00527048
0.0051359
0.0049359
0.00464093
0.00419415
0.00364014
0.0030927
0.00253942
0.00204736
0.00191921
0.000967199
0.00282928
0.0090231
0.00741133
0.00601137
0.00507061
0.00471135
0.0043684
0.00411171
0.00411255
0.00442626
0.00502294
0.00577473
0.00646553
0.00690778
0.00707522
0.00712056
0.00716993
0.00719396
0.0070798
0.00682953
0.00650813
0.00617684
0.0058838
0.00565408
0.00548876
0.00536885
0.00527143
0.00518741
0.00511152
0.00502081
0.00488231
0.0047127
0.00458186
0.00441828
0.00411282
0.00378128
0.00342388
0.00287079
0.00305189
0.00125444
0.00277896
0.00336433
0.00372488
0.00386401
0.00383382
0.00374127
0.00368891
0.00377566
0.00410651
0.00470617
0.00550214
0.00634797
0.00702145
0.00736842
0.00742048
0.00732583
0.0071066
0.00686927
0.00662486
0.00637499
0.00613643
0.00592496
0.00574791
0.00559818
0.0054592
0.00531217
0.00514502
0.00495862
0.00475956
0.00453364
0.00422887
0.00383263
0.00343094
0.00310484
0.00283708
0.00259292
0.00237829
0.00219441
0.00206773
0.00131358
0.00146858
0.00234777
0.00293149
0.00331253
0.00368696
0.00425371
0.00495349
0.00572725
0.00652167
0.00724621
0.00767108
0.00769229
0.00744671
0.00717899
0.00697214
0.00681644
0.0066826
0.00655386
0.00642821
0.00631145
0.00620273
0.00609147
0.00596009
0.00578678
0.00555028
0.00523703
0.00485035
0.00441572
0.00396574
0.00350966
0.0031042
0.00279198
0.00257514
0.00243074
0.00231522
0.00218658
0.00206674
0.00144546
0.00172997
0.00292223
0.00369568
0.00441327
0.00531233
0.00604123
0.00658857
0.00716147
0.00778484
0.0083828
0.00859852
0.00839545
0.00798898
0.00768005
0.00751422
0.00743847
0.0073939
0.00733926
0.00725684
0.00718031
0.00711825
0.0070704
0.00702744
0.00696757
0.00685515
0.00664598
0.00630243
0.00581562
0.0052468
0.00464923
0.00407993
0.00358192
0.00318142
0.0028811
0.00265131
0.00248405
0.00323077
0.00159684
0.00160143
0.00168659
0.00175874
0.0019238
0.00189617
0.00180785
0.00173176
0.00173057
0.00179813
0.00186663
0.00191584
0.00192701
0.00189315
0.00183976
0.00179984
0.00177178
0.00175466
0.00174336
0.00173396
0.00172569
0.00172115
0.0017181
0.0017162
0.00171382
0.00170797
0.00169456
0.00166944
0.00163043
0.00157999
0.00152743
0.0014764
0.00143178
0.00139632
0.00137201
0.00136003
0.00135886
0.0013608
0.00134828
0.00134895
0.00131174
)
;

boundaryField
{
    floor
    {
        type            compressible::alphatWallFunction;
        Prt             0.85;
        value           nonuniform List<scalar> 
29
(
0.000142815
8.25673e-05
0.000116263
0.000112484
0.000108819
0.000105238
0.000101139
9.55008e-05
8.96068e-05
8.41032e-05
7.91022e-05
7.46033e-05
7.05475e-05
6.68451e-05
6.33992e-05
6.00871e-05
5.67184e-05
5.30763e-05
4.72372e-05
4.46045e-05
4.46039e-05
5.93697e-05
6.59222e-05
7.55104e-05
0.000142813
8.25663e-05
0.000119324
0.000147061
0.000192786
)
;
    }
    ceiling
    {
        type            compressible::alphatWallFunction;
        Prt             0.85;
        value           nonuniform List<scalar> 
43
(
0.000224798
0.000236131
0.000245686
0.000267408
0.000263801
0.000252206
0.000242167
0.000242022
0.000250954
0.000259972
0.000266428
0.000267895
0.000263463
0.000256455
0.000251201
0.000247501
0.000245239
0.000243745
0.000242502
0.000241407
0.000240806
0.000240403
0.000240151
0.000239835
0.00023906
0.000237281
0.000233946
0.000228755
0.000222023
0.000214982
0.00020812
0.000202097
0.000197297
0.000193998
0.000192369
0.000192211
0.000192475
0.000190772
0.000190863
0.000185792
0.000377106
0.000449985
0.000241856
)
;
    }
    sWall
    {
        type            compressible::alphatWallFunction;
        Prt             0.85;
        value           uniform 0.000223993;
    }
    nWall
    {
        type            compressible::alphatWallFunction;
        Prt             0.85;
        value           nonuniform List<scalar> 6(8.6887e-05 0.000115029 0.000137573 0.00020355 0.000223873 0.000185397);
    }
    sideWalls
    {
        type            empty;
    }
    glass1
    {
        type            compressible::alphatWallFunction;
        Prt             0.85;
        value           nonuniform List<scalar> 9(0.000136791 0.000183034 0.000220989 0.000256886 0.000293055 0.000331146 0.000368979 0.000379609 0.00037341);
    }
    glass2
    {
        type            compressible::alphatWallFunction;
        Prt             0.85;
        value           nonuniform List<scalar> 2(0.00017678 0.000184877);
    }
    sun
    {
        type            compressible::alphatWallFunction;
        Prt             0.85;
        value           nonuniform List<scalar> 
14
(
0.000139129
0.000151692
0.000155318
0.000162778
0.000169604
0.00017601
0.000182346
0.000188879
0.000194331
0.000198043
0.000199151
0.000196719
0.00018961
0.000175454
)
;
    }
    heatsource1
    {
        type            compressible::alphatWallFunction;
        Prt             0.85;
        value           nonuniform List<scalar> 3(8.83566e-05 8.83414e-05 8.70849e-05);
    }
    heatsource2
    {
        type            compressible::alphatWallFunction;
        Prt             0.85;
        value           nonuniform List<scalar> 4(0.000157716 0.000106985 0.000106984 0.000161419);
    }
    Table_master
    {
        type            compressible::alphatWallFunction;
        Prt             0.85;
        value           nonuniform List<scalar> 9(0.000130735 0.000115499 0.000103127 9.30872e-05 8.48806e-05 7.8137e-05 7.25753e-05 6.80434e-05 6.45787e-05);
    }
    Table_slave
    {
        type            compressible::alphatWallFunction;
        Prt             0.85;
        value           nonuniform List<scalar> 9(0.000144129 0.000132482 0.000124912 0.00011976 0.000115814 0.00011208 0.000107792 0.000103307 9.78854e-05);
    }
    inlet
    {
        type            fixedValue;
        value           uniform 1.94e-05;
    }
    outlet
    {
        type            zeroGradient;
    }
}


// ************************************************************************* //
