/*--------------------------------*- C++ -*----------------------------------*\
  =========                 |
  \\      /  F ield         | OpenFOAM: The Open Source CFD Toolbox
   \\    /   O peration     | Website:  https://openfoam.org
    \\  /    A nd           | Version:  6
     \\/     M anipulation  |
\*---------------------------------------------------------------------------*/
FoamFile
{
    version     2.0;
    format      ascii;
    class       volScalarField;
    location    "800";
    object      alphat;
}
// * * * * * * * * * * * * * * * * * * * * * * * * * * * * * * * * * * * * * //

dimensions      [1 -1 -1 0 0 0 0];

internalField   nonuniform List<scalar> 
459
(
0.000890843
0.000939269
0.000936358
0.000966715
0.000991934
0.00101288
0.00103067
0.00104637
0.00106106
0.00107438
0.00108242
0.00108357
0.00107761
0.00106745
0.00105607
0.00064608
0.000606199
0.00057557
0.00055227
0.000532803
0.000515162
0.00049836
0.000482732
0.000468422
0.000455159
0.000442761
0.000431071
0.000419913
0.000409043
0.000398065
0.000386375
0.000372841
0.000361505
0.000334204
0.00130189
0.00220008
0.00191688
0.0021911
0.00236321
0.00254442
0.00272303
0.00288303
0.00300074
0.00306612
0.00308883
0.00303372
0.00285102
0.00247274
0.00181894
0.00106962
0.000960421
0.000766909
0.000972391
0.00109191
0.00117293
0.00121899
0.00122553
0.00112747
0.00106423
0.00100813
0.000956647
0.00090833
0.000861771
0.000814629
0.000762959
0.000703619
0.000649717
0.000605517
0.000717802
0.00041487
0.00167305
0.00313558
0.00213422
0.00297089
0.00319045
0.00334614
0.00346007
0.00354438
0.00360829
0.00365486
0.00368915
0.00368237
0.00360076
0.00341429
0.00308011
0.002449
0.00114295
0.000855392
0.00129095
0.0014889
0.00163088
0.0017278
0.00166039
0.000570597
0.000525027
0.000487982
0.000457861
0.000433187
0.00041281
0.000395988
0.000382484
0.000372894
0.000421068
0.000498184
0.000816328
0.000477597
0.00205903
0.00456529
0.0020218
0.00325202
0.00353836
0.00362239
0.00364142
0.00363839
0.00364511
0.00367213
0.00371398
0.00373899
0.00371376
0.00362125
0.00346404
0.00323639
0.00278444
0.0010077
0.00153773
0.00177645
0.00191474
0.00204968
0.00216697
0.0020496
0.000627055
0.000610938
0.000605308
0.000601826
0.000594659
0.000580081
0.000564172
0.000544968
0.000519075
0.000491607
0.000507512
0.000949374
0.000530242
0.00246347
0.00656224
0.00232541
0.0030791
0.00363498
0.00369345
0.00364697
0.00357952
0.00355153
0.00358171
0.00365672
0.00372399
0.00373193
0.00364506
0.00345601
0.00323363
0.00313175
0.00292971
0.00251045
0.00231107
0.00225985
0.00232228
0.00242608
0.00250728
0.00241157
0.00243671
0.00247528
0.00248929
0.00246
0.00237423
0.00216406
0.00187159
0.00152583
0.00114977
0.000853642
0.000926501
0.000655773
0.000709923
0.00085025
0.000942423
0.00288908
0.00879377
0.00387549
0.00266211
0.00339336
0.00362067
0.00362056
0.00353052
0.00345271
0.00348178
0.0036138
0.00372908
0.0037709
0.00368818
0.0034474
0.00312809
0.00296069
0.00284692
0.00258152
0.00240019
0.0023432
0.00237364
0.00247889
0.00262184
0.00275891
0.00288469
0.00297704
0.00302569
0.00302651
0.00297796
0.00283381
0.00257672
0.00220741
0.00174797
0.00131987
0.00100716
0.000823053
0.000770565
0.00117262
0.000976979
0.00332922
0.0106508
0.00710956
0.00364962
0.0028131
0.00287008
0.00315027
0.00337884
0.00338466
0.00348649
0.00364549
0.00376699
0.00381272
0.00372236
0.0034382
0.00304688
0.00283036
0.00277005
0.0025678
0.00240784
0.00232434
0.00235091
0.00246839
0.00262105
0.00277757
0.00291804
0.00302189
0.0030877
0.0031189
0.00312155
0.00309302
0.00290116
0.00255831
0.00211722
0.00170778
0.00133613
0.00110785
0.00106396
0.00114783
0.00104499
0.00344856
0.0106591
0.00872203
0.00681765
0.0050735
0.00395755
0.00351969
0.00354739
0.00365867
0.00372095
0.00379129
0.00385615
0.00386635
0.00373599
0.00338059
0.0029084
0.00268922
0.00272038
0.00254498
0.00235675
0.00225899
0.00229621
0.00240114
0.00252464
0.0026453
0.00275141
0.00283632
0.00290335
0.00296244
0.00302761
0.00310971
0.0031457
0.00286469
0.0024923
0.00218801
0.00206424
0.00220054
0.00279581
0.00385387
0.00172151
0.00339239
0.00414648
0.00467842
0.00486807
0.00475587
0.00443407
0.00413009
0.0039636
0.00387592
0.00386756
0.00390398
0.00393608
0.00389598
0.0036818
0.00320108
0.00263122
0.00246825
0.00264646
0.00248089
0.00223012
0.00213019
0.00215467
0.00222518
0.00230375
0.00237456
0.00242912
0.00246271
0.00247358
0.00246123
0.00242534
0.00236634
0.00228753
0.00221158
0.00217185
0.0021993
0.00228344
0.00234904
0.00231666
0.00218853
0.00160764
0.00248828
0.00420885
0.00459802
0.00459982
0.00449871
0.00440511
0.00433716
0.00426254
0.00417283
0.00404122
0.00381991
0.003419
0.00276695
0.00212903
0.00212055
0.0025211
0.00228831
0.00200852
0.00190129
0.00190256
0.00194092
0.00198785
0.00203191
0.00206742
0.00209188
0.00210555
0.00211144
0.0021154
0.0021259
0.0021532
0.00218933
0.00224043
0.00230404
0.00235183
0.00233366
0.00222378
0.00202678
0.00132288
0.00264688
0.00484925
0.00513095
0.00501001
0.00484935
0.00467191
0.00447604
0.00424452
0.00391278
0.00352796
0.00309724
0.00257931
0.00193905
0.00137814
0.00151576
0.0017723
0.00160532
0.00141758
0.0013571
0.00136747
0.0014094
0.00146877
0.00154031
0.00162157
0.00171085
0.00180618
0.0019044
0.00200019
0.00208837
0.00218509
0.00229063
0.00240337
0.00251263
0.00260255
0.00262584
0.00271097
0.00259809
0.00133911
0.00229596
0.0024243
0.00253079
0.00268631
0.00254112
0.00235427
0.00217239
0.00200388
0.00183711
0.0016765
0.00154237
0.00141765
0.00129287
0.00115795
0.000922152
0.000582396
0.000555782
0.000562285
0.000566852
0.000581067
0.000602373
0.000627836
0.000656058
0.000686464
0.000718805
0.000753017
0.00078921
0.000827729
0.00086927
0.000915125
0.000967111
0.001024
0.00108666
0.00115625
0.00123391
0.00133314
0.00137003
0.00134364
0.00125966
0.00116957
)
;

boundaryField
{
    floor
    {
        type            compressible::alphatWallFunction;
        Prt             0.85;
        value           nonuniform List<scalar> 
29
(
0.000150155
9.12411e-05
8.52995e-05
8.07045e-05
7.71891e-05
7.42381e-05
7.15525e-05
6.89839e-05
6.65849e-05
6.43796e-05
6.2328e-05
6.04035e-05
5.85823e-05
5.68382e-05
5.51334e-05
5.34057e-05
5.15594e-05
4.94125e-05
4.76065e-05
4.32271e-05
4.32265e-05
5.60456e-05
6.57907e-05
7.38449e-05
0.000150153
9.124e-05
0.000108971
0.000121742
0.000143374
)
;
    }
    ceiling
    {
        type            compressible::alphatWallFunction;
        Prt             0.85;
        value           nonuniform List<scalar> 
43
(
0.000315305
0.000331726
0.000345285
0.000365075
0.000346729
0.00032293
0.000299559
0.00027771
0.00025589
0.000234667
0.000216771
0.000199976
0.000183005
0.000164447
0.000131415
8.18441e-05
7.78285e-05
7.88124e-05
7.95006e-05
8.16399e-05
8.48351e-05
8.86362e-05
9.28271e-05
9.73179e-05
0.000102068
0.000107065
0.000112322
0.000117885
0.00012385
0.000130396
0.00013777
0.000145787
0.000154558
0.000164231
0.000174947
0.000188529
0.000193549
0.00018996
0.000178484
0.000166079
0.00045333
0.000545252
0.000359908
)
;
    }
    sWall
    {
        type            compressible::alphatWallFunction;
        Prt             0.85;
        value           uniform 0.000314089;
    }
    nWall
    {
        type            compressible::alphatWallFunction;
        Prt             0.85;
        value           nonuniform List<scalar> 6(0.000133942 0.000138827 0.000148388 0.000186791 0.000189001 0.000165743);
    }
    sideWalls
    {
        type            empty;
    }
    glass1
    {
        type            compressible::alphatWallFunction;
        Prt             0.85;
        value           nonuniform List<scalar> 9(0.000123329 0.000179739 0.000229084 0.000279241 0.000330804 0.000384171 0.000438545 0.00045329 0.000446625);
    }
    glass2
    {
        type            compressible::alphatWallFunction;
        Prt             0.85;
        value           nonuniform List<scalar> 2(0.000238785 0.000223784);
    }
    sun
    {
        type            compressible::alphatWallFunction;
        Prt             0.85;
        value           nonuniform List<scalar> 
14
(
0.000126831
0.000133705
0.000133291
0.000137591
0.000141151
0.000144099
0.000146598
0.000148799
0.000150855
0.000152716
0.000153838
0.000153999
0.000153167
0.000151747
)
;
    }
    heatsource1
    {
        type            compressible::alphatWallFunction;
        Prt             0.85;
        value           nonuniform List<scalar> 3(0.000100775 0.000121133 0.000134284);
    }
    heatsource2
    {
        type            compressible::alphatWallFunction;
        Prt             0.85;
        value           nonuniform List<scalar> 4(0.000152182 0.00013683 0.000136828 0.000162387);
    }
    Table_master
    {
        type            compressible::alphatWallFunction;
        Prt             0.85;
        value           nonuniform List<scalar> 9(8.00709e-05 7.31688e-05 6.7503e-05 6.28561e-05 5.90207e-05 5.58321e-05 5.31847e-05 5.10488e-05 4.95262e-05);
    }
    Table_slave
    {
        type            compressible::alphatWallFunction;
        Prt             0.85;
        value           nonuniform List<scalar> 9(8.85285e-05 8.61241e-05 8.52823e-05 8.47613e-05 8.36878e-05 8.14991e-05 7.91025e-05 7.61986e-05 7.22627e-05);
    }
    inlet
    {
        type            fixedValue;
        value           uniform 1.94e-05;
    }
    outlet
    {
        type            zeroGradient;
    }
}


// ************************************************************************* //
