// -*- C++ -*-
// File generated by PyFoam - sorry for the ugliness

FoamFile
{
 version 2.0;
 format ascii;
 class volScalarField;
 location "1400";
 object T;
}

dimensions [ 0 0 0 1 0 0 0 ];

internalField nonuniform List<scalar> 459
(
  307.696
  307.564
  307.513
  307.486
  307.468
  307.456
  307.448
  307.441
  307.434
  307.427
  307.42
  307.413
  307.406
  307.398
  307.385
  304.122
  304.124
  304.13
  304.113
  304.103
  304.107
  304.121
  304.139
  304.127
  304.117
  304.11
  304.106
  304.106
  304.11
  304.114
  304.126
  304.136
  304.135
  304.126
  307.624
  307.434
  307.353
  307.312
  307.287
  307.273
  307.267
  307.266
  307.269
  307.275
  307.285
  307.298
  307.314
  307.334
  307.353
  307.345
  307.327
  304.274
  304.276
  304.276
  304.265
  304.237
  304.193
  304.184
  304.195
  304.197
  304.192
  304.192
  304.195
  304.203
  304.224
  304.269
  304.316
  304.318
  304.252
  304.157
  307.566
  307.294
  307.191
  307.142
  307.114
  307.099
  307.094
  307.099
  307.113
  307.135
  307.163
  307.196
  307.233
  307.273
  307.31
  307.321
  307.311
  304.592
  304.503
  304.461
  304.448
  304.432
  304.4
  304.258
  304.254
  304.296
  304.33
  304.363
  304.398
  304.438
  304.484
  304.54
  304.617
  304.586
  304.543
  304.524
  307.512
  307.171
  307.069
  307.026
  307.003
  306.991
  306.985
  306.99
  307.009
  307.04
  307.08
  307.127
  307.178
  307.231
  307.28
  307.299
  307.2
  305.111
  304.838
  304.808
  304.836
  304.898
  304.981
  305.066
  305.131
  305.143
  305.151
  305.156
  305.159
  305.159
  305.154
  305.144
  305.12
  305.073
  305.072
  305.086
  305.093
  307.456
  307.081
  307.002
  306.973
  306.962
  306.956
  306.949
  306.948
  306.964
  306.996
  307.04
  307.094
  307.152
  307.212
  307.264
  307.238
  306.883
  305.209
  305.031
  305.031
  305.061
  305.103
  305.146
  305.183
  305.208
  305.224
  305.235
  305.245
  305.254
  305.263
  305.273
  305.282
  305.291
  305.298
  305.319
  305.346
  305.38
  305.406
  305.389
  305.381
  307.392
  307.03
  306.978
  306.962
  306.965
  306.963
  306.956
  306.949
  306.964
  306.995
  307.04
  307.095
  307.153
  307.204
  307.22
  307.084
  306.529
  305.279
  305.151
  305.16
  305.186
  305.214
  305.24
  305.261
  305.278
  305.291
  305.3
  305.309
  305.318
  305.329
  305.344
  305.36
  305.38
  305.401
  305.423
  305.443
  305.458
  305.463
  305.427
  305.391
  307.318
  307.017
  306.981
  306.971
  306.98
  306.986
  306.987
  306.99
  307.001
  307.027
  307.064
  307.108
  307.151
  307.171
  307.12
  306.867
  306.225
  305.344
  305.255
  305.269
  305.295
  305.317
  305.336
  305.35
  305.36
  305.366
  305.369
  305.371
  305.374
  305.381
  305.391
  305.407
  305.426
  305.447
  305.467
  305.482
  305.491
  305.489
  305.468
  305.4
  307.245
  307.012
  306.991
  306.975
  306.988
  307.006
  307.019
  307.03
  307.04
  307.058
  307.082
  307.107
  307.121
  307.096
  306.976
  306.645
  306.019
  305.424
  305.367
  305.39
  305.42
  305.445
  305.459
  305.466
  305.466
  305.462
  305.455
  305.448
  305.441
  305.436
  305.435
  305.44
  305.451
  305.468
  305.487
  305.505
  305.523
  305.539
  305.553
  305.575
  307.182
  307.019
  307.017
  306.938
  306.964
  306.993
  307.017
  307.035
  307.047
  307.057
  307.066
  307.069
  307.052
  306.989
  306.826
  306.478
  305.931
  305.534
  305.501
  305.534
  305.574
  305.596
  305.603
  305.601
  305.593
  305.581
  305.567
  305.551
  305.534
  305.516
  305.501
  305.49
  305.485
  305.486
  305.491
  305.499
  305.508
  305.517
  305.528
  305.573
  307.118
  306.894
  306.913
  306.945
  306.971
  306.99
  307.003
  307.008
  307.006
  306.993
  306.957
  306.877
  306.714
  306.41
  305.957
  305.721
  305.69
  305.713
  305.736
  305.746
  305.747
  305.74
  305.727
  305.712
  305.693
  305.672
  305.649
  305.624
  305.599
  305.574
  305.554
  305.54
  305.533
  305.532
  305.533
  305.533
  305.533
  305.538
  307.015
  306.858
  306.859
  306.881
  306.898
  306.911
  306.919
  306.92
  306.913
  306.893
  306.855
  306.785
  306.658
  306.401
  306.117
  305.996
  305.949
  305.928
  305.915
  305.904
  305.891
  305.876
  305.857
  305.837
  305.814
  305.789
  305.762
  305.734
  305.704
  305.674
  305.646
  305.622
  305.604
  305.59
  305.579
  305.568
  305.551
  305.543
  310.111
  309.816
  307.373
  306.845
  306.8
  306.803
  306.805
  306.807
  306.808
  306.809
  306.803
  306.789
  306.763
  306.721
  306.637
  306.464
  306.345
  306.279
  306.235
  306.198
  306.16
  306.123
  306.086
  306.051
  306.017
  305.984
  305.951
  305.918
  305.885
  305.852
  305.818
  305.784
  305.75
  305.717
  305.686
  305.656
  305.627
  305.596
  305.55
  305.486
)
;

boundaryField
{
  floor
  {
    type wallHeatTransfer;
    Tinf uniform 305.2;
    alphaWall uniform 0.24;
    value nonuniform List<scalar> 29
(
  307.206
  304.449
  304.442
  304.441
  304.441
  304.447
  304.464
  304.494
  304.524
  304.521
  304.511
  304.495
  304.476
  304.455
  304.437
  304.429
  304.423
  304.421
  304.409
  304.424
  304.424
  304.41
  304.65
  305.107
  307.206
  304.449
  304.493
  304.701
  305.124
)
;
  }
  ceiling
  {
    type wallHeatTransfer;
    Tinf uniform 303.2;
    alphaWall uniform 0.24;
    value nonuniform List<scalar> 43
(
  309.488
  309.227
  307.103
  306.496
  306.446
  306.443
  306.446
  306.448
  306.452
  306.455
  306.451
  306.441
  306.421
  306.384
  306.308
  306.149
  306.038
  305.979
  305.943
  305.917
  305.893
  305.869
  305.842
  305.813
  305.783
  305.753
  305.721
  305.69
  305.659
  305.627
  305.595
  305.563
  305.531
  305.5
  305.47
  305.44
  305.409
  305.373
  305.325
  305.271
  307.04
  306.897
  306.846
)
;
  }
  sWall
  {
    type wallHeatTransfer;
    Tinf uniform 315.2;
    alphaWall uniform 0.36;
    value uniform 310.771;
  }
  nWall
  {
    type wallHeatTransfer;
    Tinf uniform 307.2;
    alphaWall uniform 0.36;
    value nonuniform List<scalar> 6
(
  305.725
  305.722
  305.723
  305.728
  305.727
  305.717
)
;
  }
  sideWalls
  {
    type empty;
  }
  glass1
  {
    type wallHeatTransfer;
    Tinf uniform 315.2;
    alphaWall uniform 4.3;
    value nonuniform List<scalar> 9
(
  311.581
  311.336
  311.189
  311.077
  310.976
  310.871
  310.751
  310.603
  310.4
)
;
  }
  glass2
  {
    type wallHeatTransfer;
    Tinf uniform 307.2;
    alphaWall uniform 4.3;
    value nonuniform List<scalar> 2
(
  306.597
  306.566
)
;
  }
  sun
  {
    type wallHeatTransfer;
    Tinf uniform 305.2;
    alphaWall uniform 0.24;
    value nonuniform List<scalar> 14
(
  307.557
  307.428
  307.376
  307.347
  307.326
  307.312
  307.301
  307.292
  307.282
  307.273
  307.263
  307.253
  307.241
  307.227
)
;
  }
  heatsource1
  {
    type fixedGradient;
    gradient uniform 0;
  }
  heatsource2
  {
    type fixedGradient;
    gradient uniform 0;
  }
  Table_master
  {
    type zeroGradient;
  }
  Table_slave
  {
    type zeroGradient;
  }
  inlet
  {
    type fixedValue;
    value uniform 290.15;
  }
  outlet
  {
    type zeroGradient;
  }
} 	// ************************************************************************* //

