// -*- C++ -*-
// File generated by PyFoam - sorry for the ugliness

FoamFile
{
 version 2.0;
 format ascii;
 class volVectorField;
 location "180";
 object U;
}

dimensions [ 0 1 -1 0 0 0 0 ];

internalField nonuniform List<vector> 459
(
  (-0.00739236 0.0262202 0)
  (-0.0662754 -0.0118737 0)
  (-0.0457888 -0.0389908 0)
  (0.027649 -0.0860179 0)
  (0.0991451 -0.065231 0)
  (0.155248 -0.044361 0)
  (0.191407 -0.028964 0)
  (0.209117 -0.0183952 0)
  (0.214146 -0.0110251 0)
  (0.210191 -0.00510258 0)
  (0.199974 0.000256648 0)
  (0.183771 0.00592613 0)
  (0.159992 0.0135041 0)
  (0.122527 0.0278869 0)
  (0.100435 0.0660718 0)
  (-0.0853895 0.00863372 0)
  (0.00245748 0.00188199 0)
  (-0.00112206 -0.0171578 0)
  (0.0225845 -0.0222697 0)
  (0.042602 -0.0179445 0)
  (0.0597148 -0.0125715 0)
  (0.0711909 -0.00778981 0)
  (0.077654 -0.00521096 0)
  (0.0810081 -0.00411347 0)
  (0.083078 -0.00354472 0)
  (0.0846293 -0.00309779 0)
  (0.0856964 -0.00264725 0)
  (0.0860542 -0.0020636 0)
  (0.0851704 -0.00105296 0)
  (0.0820655 0.000923753 0)
  (0.0748011 0.004782 0)
  (0.061443 0.0103204 0)
  (0.0225488 0.0211186 0)
  (0.0784586 0.0117437 0)
  (0.0580076 0.0699459 0)
  (-0.046493 0.00696831 0)
  (-0.0231349 -0.0483775 0)
  (0.0267295 -0.122896 0)
  (0.0774692 -0.0983516 0)
  (0.120812 -0.0609096 0)
  (0.147516 -0.0317267 0)
  (0.159605 -0.0117204 0)
  (0.162082 0.00220475 0)
  (0.157824 0.0123391 0)
  (0.149735 0.0206324 0)
  (0.138763 0.0288957 0)
  (0.125735 0.039302 0)
  (0.111655 0.0550714 0)
  (0.110037 0.0845731 0)
  (0.102212 0.0746347 0)
  (0.0627705 0.0631655 0)
  (-0.123689 0.0113444 0)
  (0.0315102 -0.0130488 0)
  (0.0329922 -0.0313367 0)
  (0.0462024 -0.034321 0)
  (0.0597471 -0.0276182 0)
  (0.0701328 -0.0182334 0)
  (0.0749564 -0.00842531 0)
  (0.0761429 -0.00294278 0)
  (0.0762489 -0.000791493 0)
  (0.0765246 0.000131148 0)
  (0.0769363 0.00076464 0)
  (0.07726 0.00145047 0)
  (0.077423 0.00255695 0)
  (0.0772041 0.00457653 0)
  (0.0759285 0.00873757 0)
  (0.0703756 0.018597 0)
  (0.0590552 0.0285087 0)
  (0.0153703 0.0423675 0)
  (0.132348 0.0317752 0)
  (0.114664 0.10112 0)
  (-0.0480268 0.00599 0)
  (-0.0164861 -0.0722855 0)
  (0.0170691 -0.167446 0)
  (0.0520052 -0.142507 0)
  (0.0840709 -0.090081 0)
  (0.101087 -0.0483825 0)
  (0.10688 -0.0202741 0)
  (0.106112 -0.00116462 0)
  (0.102613 0.0130641 0)
  (0.0982891 0.024481 0)
  (0.0938382 0.0352342 0)
  (0.0898713 0.0473779 0)
  (0.0863488 0.0624558 0)
  (0.0874978 0.0817011 0)
  (0.0794225 0.0772289 0)
  (0.0609486 0.0945692 0)
  (-0.114021 -0.0137601 0)
  (0.0566205 -0.0453741 0)
  (0.0647695 -0.052815 0)
  (0.0708607 -0.0481958 0)
  (0.0770432 -0.0375927 0)
  (0.0815051 -0.0266159 0)
  (0.0798316 -0.0203295 0)
  (0.0722805 -0.0137425 0)
  (0.0664154 -0.0101611 0)
  (0.0633353 -0.00809226 0)
  (0.0615873 -0.00671029 0)
  (0.060396 -0.00564526 0)
  (0.0598878 -0.00451427 0)
  (0.0612119 -0.00257205 0)
  (0.066522 0.00259097 0)
  (0.0652948 0.0242763 0)
  (0.0559463 0.0404609 0)
  (0.00598147 0.0590045 0)
  (0.168155 0.0598622 0)
  (0.15984 0.125566 0)
  (-0.0611977 0.00739866 0)
  (-0.0194002 -0.0912818 0)
  (0.00486552 -0.197516 0)
  (0.0257297 -0.173319 0)
  (0.0479847 -0.106032 0)
  (0.0562024 -0.0528203 0)
  (0.0556418 -0.0185405 0)
  (0.0521749 0.00299136 0)
  (0.0507088 0.0169807 0)
  (0.0508142 0.027383 0)
  (0.0523074 0.0369986 0)
  (0.0552263 0.0475758 0)
  (0.0594618 0.0600589 0)
  (0.0688113 0.0754874 0)
  (0.0815348 0.0826238 0)
  (0.0981905 0.10153 0)
  (0.128323 0.0246705 0)
  (0.119577 -0.00815088 0)
  (0.113796 -0.0387079 0)
  (0.102855 -0.0502285 0)
  (0.0938903 -0.0469807 0)
  (0.0880124 -0.0368163 0)
  (0.0838036 -0.0237376 0)
  (0.0839962 -0.0132265 0)
  (0.0870697 -0.00781761 0)
  (0.0864234 -0.00443409 0)
  (0.0821079 -0.00218689 0)
  (0.0757085 -0.000508644 0)
  (0.0679894 0.000903515 0)
  (0.0589128 0.00227132 0)
  (0.0479351 0.00394824 0)
  (0.0265654 0.00707253 0)
  (0.0297964 0.0346055 0)
  (0.0383668 0.0488402 0)
  (-0.00523812 0.0666541 0)
  (0.193652 0.0943404 0)
  (0.196236 0.148987 0)
  (-0.0783926 0.0132973 0)
  (-0.0230912 -0.107366 0)
  (-0.00352773 -0.216819 0)
  (0.00347772 -0.193077 0)
  (0.0165525 -0.112919 0)
  (0.0189228 -0.0504472 0)
  (0.0138523 -0.0136086 0)
  (0.00990459 0.00601048 0)
  (0.0107383 0.0168275 0)
  (0.0139154 0.0248501 0)
  (0.0191692 0.0326399 0)
  (0.0265504 0.0411622 0)
  (0.0362687 0.0508976 0)
  (0.0513068 0.0621958 0)
  (0.070765 0.067612 0)
  (0.0948422 0.0665252 0)
  (0.11524 0.0167154 0)
  (0.117975 -0.0150175 0)
  (0.110327 -0.0346004 0)
  (0.0985373 -0.0407557 0)
  (0.0861451 -0.0371884 0)
  (0.075375 -0.028447 0)
  (0.0668982 -0.0171957 0)
  (0.061341 -0.00468596 0)
  (0.0569043 0.00333412 0)
  (0.0518435 0.00755152 0)
  (0.0456444 0.00993688 0)
  (0.0388319 0.0116805 0)
  (0.0315327 0.0133766 0)
  (0.0236145 0.0153622 0)
  (0.0156719 0.0179255 0)
  (0.00386753 0.0208637 0)
  (0.00668698 0.0321039 0)
  (0.0280344 0.0426274 0)
  (0.00557719 0.0536926 0)
  (0.116699 0.0897245 0)
  (0.0913928 0.0736199 0)
  (0.0456767 0.0545341 0)
  (0.0139489 0.0336646 0)
  (0.230931 0.172999 0)
  (-0.0942052 0.0174542 0)
  (-0.0174989 -0.129775 0)
  (-0.00100627 -0.230614 0)
  (-0.00739001 -0.203992 0)
  (-0.00502525 -0.114498 0)
  (-0.0052695 -0.0449994 0)
  (-0.0117699 -0.0095037 0)
  (-0.0151323 0.00607978 0)
  (-0.0142036 0.0136374 0)
  (-0.0105821 0.0191421 0)
  (-0.00446903 0.0245857 0)
  (0.00475171 0.0307751 0)
  (0.0163705 0.0371514 0)
  (0.032249 0.043076 0)
  (0.0512449 0.0432028 0)
  (0.0733872 0.034465 0)
  (0.0880133 0.00736357 0)
  (0.0897351 -0.0135078 0)
  (0.08237 -0.0249118 0)
  (0.0706709 -0.0280299 0)
  (0.0578384 -0.0247165 0)
  (0.0459411 -0.0174904 0)
  (0.0359054 -0.0081194 0)
  (0.0275006 0.00193208 0)
  (0.0216323 0.00867124 0)
  (0.0165364 0.0124315 0)
  (0.0111548 0.0149273 0)
  (0.00536869 0.017235 0)
  (-0.00105005 0.0198781 0)
  (-0.00715942 0.0224527 0)
  (-0.0114042 0.0241445 0)
  (-0.0147586 0.0235299 0)
  (-0.0104483 0.0213829 0)
  (0.00915329 0.024505 0)
  (-0.00491999 0.0221845 0)
  (0.0502383 0.0520242 0)
  (0.0419792 0.0456529 0)
  (0.0190482 0.043605 0)
  (0.0186028 0.0301605 0)
  (0.272318 0.193835 0)
  (-0.101919 0.00418671 0)
  (0.00656953 -0.164025 0)
  (0.020898 -0.238631 0)
  (0.00081505 -0.204836 0)
  (-0.0125224 -0.109955 0)
  (-0.0162956 -0.0385057 0)
  (-0.0243737 -0.00554156 0)
  (-0.0287668 0.00665539 0)
  (-0.0288073 0.011139 0)
  (-0.0258707 0.013888 0)
  (-0.0203882 0.0166053 0)
  (-0.0123756 0.0196522 0)
  (-0.00171716 0.0228374 0)
  (0.0123492 0.0251078 0)
  (0.0277238 0.0234095 0)
  (0.0432463 0.016435 0)
  (0.0513102 0.00264264 0)
  (0.0506453 -0.00899821 0)
  (0.0432637 -0.0153402 0)
  (0.0322525 -0.0162444 0)
  (0.020223 -0.0127733 0)
  (0.00897955 -0.00646522 0)
  (-0.00132461 0.00155853 0)
  (-0.00816547 0.00872969 0)
  (-0.0124376 0.0135672 0)
  (-0.0161582 0.0169317 0)
  (-0.0199817 0.0197429 0)
  (-0.0239336 0.0223861 0)
  (-0.0276106 0.0246415 0)
  (-0.0300432 0.0256082 0)
  (-0.0303494 0.0241173 0)
  (-0.0289572 0.0190807 0)
  (-0.0247977 0.0121513 0)
  (-0.0178471 0.00959252 0)
  (-0.0224356 0.00829994 0)
  (0.00674411 0.0324327 0)
  (0.00896274 0.0474332 0)
  (-0.00850589 0.058457 0)
  (0.0343519 0.0316386 0)
  (0.342322 0.190417 0)
  (0.00204066 -0.0106071 0)
  (0.0544506 -0.162542 0)
  (0.068098 -0.221921 0)
  (0.0320363 -0.187424 0)
  (-0.00739787 -0.0945757 0)
  (-0.0227945 -0.0240844 0)
  (-0.0349922 0.00253667 0)
  (-0.0406378 0.00918317 0)
  (-0.0414434 0.009986 0)
  (-0.0393414 0.00997757 0)
  (-0.0351384 0.0103338 0)
  (-0.0291409 0.0111042 0)
  (-0.0214883 0.0120207 0)
  (-0.0122045 0.0126058 0)
  (-0.00235291 0.0115972 0)
  (0.00622681 0.00807198 0)
  (0.0089539 0.00173991 0)
  (0.00660498 -0.00381714 0)
  (-0.000614617 -0.00632031 0)
  (-0.0103177 -0.00524828 0)
  (-0.0204181 -0.00155766 0)
  (-0.0292453 0.0033714 0)
  (-0.0352073 0.00831263 0)
  (-0.0388574 0.012759 0)
  (-0.0411811 0.0164996 0)
  (-0.0429772 0.0197221 0)
  (-0.044483 0.0225279 0)
  (-0.0455344 0.0247602 0)
  (-0.0457175 0.0258925 0)
  (-0.0445923 0.0250896 0)
  (-0.0421449 0.0216502 0)
  (-0.0391574 0.0156829 0)
  (-0.0362722 0.00953732 0)
  (-0.034004 0.00684453 0)
  (-0.0331673 0.00905778 0)
  (-0.0203829 0.0251406 0)
  (-0.0108336 0.047811 0)
  (-0.0356158 0.0654913 0)
  (0.122572 0.0319726 0)
  (0.421798 0.210202 0)
  (0.181932 0.160988 0)
  (0.137272 -0.074681 0)
  (0.127595 -0.161 0)
  (0.0676742 -0.137191 0)
  (-0.00596245 -0.0552144 0)
  (-0.0399044 0.00167227 0)
  (-0.0533711 0.0143292 0)
  (-0.0581684 0.0137846 0)
  (-0.0588008 0.0110966 0)
  (-0.0574034 0.00904818 0)
  (-0.0548071 0.00794821 0)
  (-0.0513456 0.0075736 0)
  (-0.0472386 0.00764952 0)
  (-0.0427354 0.00788461 0)
  (-0.0384976 0.00778954 0)
  (-0.0356464 0.00695263 0)
  (-0.0358867 0.00513361 0)
  (-0.0391623 0.00358848 0)
  (-0.0444488 0.00341186 0)
  (-0.0505978 0.00473004 0)
  (-0.0558654 0.00693653 0)
  (-0.0597065 0.00962737 0)
  (-0.0619529 0.0125819 0)
  (-0.0628316 0.015647 0)
  (-0.0627037 0.018643 0)
  (-0.0618436 0.0214311 0)
  (-0.0603206 0.0237891 0)
  (-0.058075 0.02537 0)
  (-0.0550458 0.0256764 0)
  (-0.0513357 0.0241729 0)
  (-0.047386 0.0206252 0)
  (-0.0439709 0.0155643 0)
  (-0.0416873 0.0106886 0)
  (-0.0405567 0.00816617 0)
  (-0.039268 0.0102818 0)
  (-0.0326743 0.0215616 0)
  (-0.0245403 0.0397683 0)
  (-0.049521 0.0518783 0)
  (0.158488 0.035909 0)
  (0.149619 -0.13238 0)
  (0.123998 -0.120681 0)
  (0.0392969 -0.0640589 0)
  (-0.0589191 0.017484 0)
  (-0.0770606 0.0319469 0)
  (-0.0819042 0.0292531 0)
  (-0.0820672 0.0238595 0)
  (-0.0810068 0.0194143 0)
  (-0.0797695 0.0164581 0)
  (-0.0785077 0.0147241 0)
  (-0.0772222 0.0138987 0)
  (-0.0759294 0.0137648 0)
  (-0.0746884 0.0141509 0)
  (-0.0736916 0.0148181 0)
  (-0.0733058 0.0154853 0)
  (-0.0740114 0.0159345 0)
  (-0.0757391 0.0164444 0)
  (-0.0778897 0.0173859 0)
  (-0.079762 0.0187747 0)
  (-0.0808191 0.0203874 0)
  (-0.0808745 0.0220872 0)
  (-0.0798874 0.0237855 0)
  (-0.0779071 0.0254028 0)
  (-0.0750253 0.0267966 0)
  (-0.0713407 0.0278018 0)
  (-0.0669458 0.0282251 0)
  (-0.0619652 0.027841 0)
  (-0.0566207 0.0263926 0)
  (-0.0513008 0.0236727 0)
  (-0.0465849 0.0197271 0)
  (-0.0431165 0.0151093 0)
  (-0.0412615 0.0109926 0)
  (-0.040722 0.00890252 0)
  (-0.0399821 0.0107343 0)
  (-0.0363848 0.018615 0)
  (-0.0322417 0.0302744 0)
  (-0.0449163 0.0357753 0)
  (0.0932339 0.0579967 0)
  (-0.162138 -0.0658778 0)
  (-0.0800832 -0.067423 0)
  (-0.11671 -0.05476 0)
  (-0.124577 -0.0432678 0)
  (-0.117535 -0.0501368 0)
  (-0.110377 -0.0609355 0)
  (-0.105465 -0.0697442 0)
  (-0.102501 -0.07559 0)
  (-0.100862 -0.0789639 0)
  (-0.0999963 -0.0805483 0)
  (-0.0994989 -0.0808769 0)
  (-0.0990815 -0.0803628 0)
  (-0.0985468 -0.0794194 0)
  (-0.0978199 -0.0785512 0)
  (-0.0969882 -0.0782888 0)
  (-0.096255 -0.0789587 0)
  (-0.0957038 -0.0803425 0)
  (-0.0952003 -0.0819074 0)
  (-0.094501 -0.0832063 0)
  (-0.0933808 -0.0839682 0)
  (-0.0916728 -0.0840113 0)
  (-0.0892388 -0.0832705 0)
  (-0.0859694 -0.0817964 0)
  (-0.0818002 -0.0797515 0)
  (-0.0767289 -0.0773693 0)
  (-0.0708326 -0.0749561 0)
  (-0.0642935 -0.0729094 0)
  (-0.0574322 -0.071715 0)
  (-0.050731 -0.0718621 0)
  (-0.0448072 -0.0736528 0)
  (-0.0402852 -0.0769518 0)
  (-0.0375095 -0.0809932 0)
  (-0.036073 -0.0843425 0)
  (-0.0343746 -0.0849694 0)
  (-0.0305533 -0.0816502 0)
  (-0.026093 -0.0789625 0)
  (-0.0244508 -0.0933828 0)
  (0.0773866 -0.154093 0)
  (-0.21753 -0.198369 0)
  (-0.204101 0.0127857 0)
  (-0.189728 0.259915 0)
  (-0.182251 0.241718 0)
  (-0.180627 0.23596 0)
  (-0.167622 0.240902 0)
  (-0.15146 0.250793 0)
  (-0.138596 0.259803 0)
  (-0.130096 0.266236 0)
  (-0.125003 0.270218 0)
  (-0.122135 0.272382 0)
  (-0.12056 0.27334 0)
  (-0.119604 0.27358 0)
  (-0.118755 0.273534 0)
  (-0.117623 0.27366 0)
  (-0.115965 0.274439 0)
  (-0.113739 0.276256 0)
  (-0.111086 0.2792 0)
  (-0.108182 0.282955 0)
  (-0.105104 0.287022 0)
  (-0.101821 0.290974 0)
  (-0.098244 0.294531 0)
  (-0.0942498 0.297526 0)
  (-0.0897008 0.299896 0)
  (-0.0844796 0.301651 0)
  (-0.0785277 0.302833 0)
  (-0.0718759 0.303497 0)
  (-0.0646645 0.30371 0)
  (-0.0571604 0.303589 0)
  (-0.0497656 0.303327 0)
  (-0.0430049 0.303206 0)
  (-0.0374694 0.303573 0)
  (-0.0336804 0.304768 0)
  (-0.0317947 0.306973 0)
  (-0.0311901 0.309974 0)
  (-0.0306088 0.313129 0)
  (-0.0300946 0.316922 0)
  (-0.0327944 0.327427 0)
  (-0.0316236 0.365063 0)
  (0.0995508 0.482643 0)
)
;

boundaryField
{
  floor
  {
    type noSlip;
  }
  ceiling
  {
    type noSlip;
  }
  sWall
  {
    type noSlip;
  }
  nWall
  {
    type noSlip;
  }
  sideWalls
  {
    type empty;
  }
  glass1
  {
    type noSlip;
  }
  glass2
  {
    type noSlip;
  }
  sun
  {
    type noSlip;
  }
  heatsource1
  {
    type noSlip;
  }
  heatsource2
  {
    type noSlip;
  }
  Table_master
  {
    type noSlip;
  }
  Table_slave
  {
    type noSlip;
  }
  inlet
  {
    type fixedValue;
    value uniform (0.277164 -0.114805 0);
  }
  outlet
  {
    type zeroGradient;
  }
} 	// ************************************************************************* //

