/*--------------------------------*- C++ -*----------------------------------*\
  =========                 |
  \\      /  F ield         | OpenFOAM: The Open Source CFD Toolbox
   \\    /   O peration     | Website:  https://openfoam.org
    \\  /    A nd           | Version:  6
     \\/     M anipulation  |
\*---------------------------------------------------------------------------*/
FoamFile
{
    version     2.0;
    format      ascii;
    class       volScalarField;
    location    "600";
    object      alphat;
}
// * * * * * * * * * * * * * * * * * * * * * * * * * * * * * * * * * * * * * //

dimensions      [1 -1 -1 0 0 0 0];

internalField   nonuniform List<scalar> 
459
(
0.000986596
0.00107108
0.00109228
0.00114222
0.00118694
0.00122761
0.00126607
0.00130438
0.00134194
0.00137181
0.00138977
0.00139041
0.00136776
0.00131683
0.00124185
0.000701656
0.000848564
0.000774457
0.000691193
0.000612676
0.000546333
0.000488482
0.000440296
0.000401727
0.000369383
0.000341722
0.000317532
0.000296643
0.000278059
0.000260916
0.000244963
0.000251531
0.000400307
0.000551659
0.00133866
0.0029398
0.00266338
0.00302628
0.00338515
0.00376647
0.00414204
0.00446601
0.00472213
0.00497598
0.00519915
0.00534147
0.00531614
0.00492651
0.00365294
0.00128662
0.000869469
0.000950509
0.00257758
0.00218055
0.00207175
0.00196839
0.0018152
0.00147952
0.00124776
0.00107783
0.000948972
0.000848036
0.000768995
0.000701616
0.000641536
0.000591213
0.000550836
0.000631684
0.000927693
0.000670617
0.001639
0.00397791
0.00326049
0.0040204
0.00436085
0.00461347
0.00480052
0.00494723
0.00508985
0.0052902
0.00553996
0.00581766
0.00608846
0.00627763
0.00616992
0.00516569
0.00128215
0.00115922
0.00200712
0.00236423
0.00252429
0.00253116
0.00231883
0.000780567
0.0006668
0.000582094
0.000516609
0.000464634
0.000422622
0.000388339
0.000360512
0.000338862
0.000376718
0.000554732
0.00102349
0.000738635
0.00193124
0.0050983
0.00319646
0.00428604
0.00454677
0.00458187
0.00453574
0.00450291
0.00454866
0.00470063
0.00495436
0.00530109
0.00572912
0.00620812
0.00659715
0.00655052
0.00526166
0.00150858
0.00218474
0.00264608
0.00298221
0.00315669
0.00316992
0.002876
0.000925507
0.000833788
0.000759237
0.000697636
0.000645648
0.0006004
0.000559208
0.000519302
0.000476519
0.000443823
0.00054361
0.00107371
0.00078737
0.00223085
0.00658527
0.00330321
0.00411077
0.00448252
0.00439477
0.00419074
0.00404126
0.00404135
0.0041803
0.00443619
0.00480749
0.00528691
0.00584891
0.0063176
0.00655749
0.00635232
0.00553244
0.00523229
0.00507303
0.00492923
0.00476551
0.00458383
0.00428393
0.00349027
0.00312317
0.0028709
0.00267265
0.00250014
0.00232641
0.00212625
0.00187783
0.00156544
0.00121912
0.000953395
0.000952369
0.000951046
0.000759908
0.00093489
0.00136884
0.00254944
0.00826691
0.00439274
0.00370314
0.00423057
0.00426712
0.00407577
0.00382727
0.00379337
0.00393238
0.00419107
0.0045796
0.00508405
0.00563849
0.00612245
0.00641407
0.00645764
0.0063229
0.00619145
0.00606255
0.00591413
0.00574919
0.00557561
0.0053348
0.00496255
0.00463404
0.00434259
0.00407588
0.00382016
0.00355613
0.00326387
0.00292785
0.00254346
0.00213495
0.00177576
0.00138779
0.00105574
0.00124199
0.00203966
0.00183004
0.00287086
0.00961545
0.00667771
0.00415936
0.00369348
0.00377018
0.00393425
0.00382765
0.00382499
0.00391857
0.00415647
0.00455745
0.00509414
0.00568836
0.0062127
0.00654179
0.00664668
0.00662762
0.00657688
0.00649513
0.0063731
0.00621561
0.00600517
0.00575944
0.00547675
0.00518948
0.00490562
0.00462752
0.00435221
0.00407123
0.00377476
0.00345579
0.00311394
0.00276396
0.00243804
0.00203544
0.00132714
0.00198148
0.00384663
0.00242898
0.00296389
0.00941546
0.00765111
0.00608225
0.00498358
0.00443133
0.00431644
0.00412698
0.00398368
0.00401756
0.00427067
0.00472214
0.00531788
0.00597069
0.0065461
0.00690532
0.00701094
0.00696559
0.00684385
0.00665162
0.0063902
0.0060685
0.00576991
0.00551418
0.00528445
0.00506839
0.00486266
0.00466936
0.00448853
0.0043159
0.00414443
0.00396522
0.00376654
0.00353048
0.00324464
0.00284227
0.00205517
0.00272346
0.00655422
0.00326328
0.00291325
0.00354786
0.0039435
0.00408716
0.00404002
0.00391325
0.00380646
0.0037396
0.00379386
0.00404986
0.00450012
0.00508919
0.00577125
0.00647583
0.00707257
0.00740754
0.00743338
0.00724927
0.00694576
0.00658293
0.00621173
0.00590241
0.00567013
0.00550333
0.00538411
0.00529748
0.00523543
0.00519475
0.00517246
0.00516334
0.00515888
0.00514585
0.00510335
0.00499872
0.00479544
0.00442817
0.00372068
0.00405833
0.0082855
0.00360867
0.00164594
0.00256119
0.00307794
0.00332038
0.0034687
0.0036716
0.00408452
0.00464021
0.00525301
0.00589784
0.00658809
0.0072688
0.00780709
0.00801655
0.00791599
0.00769715
0.00746897
0.00724006
0.00704468
0.00689329
0.00678509
0.00671488
0.00667747
0.00666842
0.00668439
0.00672302
0.00678181
0.00685689
0.00694124
0.00702173
0.00707431
0.00705452
0.00690978
0.00658873
0.00606396
0.00615081
0.00855952
0.00303006
0.00183653
0.00271293
0.00329618
0.00372582
0.00426106
0.00502585
0.00578931
0.00641847
0.00689502
0.00737955
0.0080244
0.00870034
0.00924882
0.00939209
0.00927484
0.0090172
0.00875587
0.00855474
0.00841295
0.00831452
0.00824771
0.00820792
0.00819397
0.00820436
0.00823653
0.00828784
0.00835601
0.00843852
0.00853112
0.00862443
0.00869606
0.00869284
0.00852529
0.00811496
0.00751799
0.00708825
0.00664668
0.00252373
0.00154348
0.00165411
0.00176447
0.001917
0.00192124
0.00186685
0.00181516
0.00177075
0.00177784
0.00183437
0.00190381
0.00200006
0.00211476
0.00218191
0.00219933
0.00217565
0.00214033
0.0021123
0.0020926
0.00207878
0.00206935
0.00206332
0.00206009
0.00205926
0.0020605
0.00206345
0.00206776
0.00207319
0.00207955
0.00208664
0.00209403
0.00210049
0.00210295
0.00209673
0.00208041
0.00207035
0.00210874
0.00221655
0.00231134
0.00208912
)
;

boundaryField
{
    floor
    {
        type            compressible::alphatWallFunction;
        Prt             0.85;
        value           nonuniform List<scalar> 
29
(
0.000176312
9.98009e-05
0.000121137
0.000110436
9.82624e-05
8.6618e-05
7.66341e-05
6.78038e-05
6.03476e-05
5.43036e-05
4.91766e-05
4.47449e-05
4.08303e-05
3.74175e-05
3.43539e-05
3.15031e-05
2.88269e-05
2.9931e-05
5.40767e-05
7.74376e-05
7.74366e-05
9.52285e-05
0.000105224
0.000112317
0.00017631
9.97998e-05
0.000135688
0.000164914
0.000212552
)
;
    }
    ceiling
    {
        type            compressible::alphatWallFunction;
        Prt             0.85;
        value           nonuniform List<scalar> 
43
(
0.000217159
0.00023193
0.000246558
0.000266631
0.000267199
0.000260078
0.000253284
0.000247431
0.000248371
0.000255822
0.000264941
0.000277533
0.000292443
0.000301129
0.000303377
0.000300322
0.000295759
0.000292132
0.000289579
0.000287787
0.000286564
0.000285781
0.000285362
0.000285255
0.000285416
0.000285798
0.000286359
0.000287063
0.000287889
0.000288809
0.000289767
0.000290604
0.000290923
0.000290117
0.000288002
0.000286697
0.000291675
0.000305606
0.000317795
0.000289136
0.000394087
0.000472686
0.000256037
)
;
    }
    sWall
    {
        type            compressible::alphatWallFunction;
        Prt             0.85;
        value           uniform 0.000216165;
    }
    nWall
    {
        type            compressible::alphatWallFunction;
        Prt             0.85;
        value           nonuniform List<scalar> 6(0.000193778 0.000255406 0.000332963 0.000408751 0.000345031 0.000289249);
    }
    sideWalls
    {
        type            empty;
    }
    glass1
    {
        type            compressible::alphatWallFunction;
        Prt             0.85;
        value           nonuniform List<scalar> 9(0.00013804 0.000186313 0.000226419 0.000264714 0.000303362 0.00034388 0.00038424 0.000395903 0.000389716);
    }
    glass2
    {
        type            compressible::alphatWallFunction;
        Prt             0.85;
        value           nonuniform List<scalar> 2(0.00044021 0.000482847);
    }
    sun
    {
        type            compressible::alphatWallFunction;
        Prt             0.85;
        value           nonuniform List<scalar> 
14
(
0.000140803
0.000152658
0.000155618
0.000162564
0.000168755
0.000174361
0.000179644
0.000184888
0.000190011
0.000194075
0.000196513
0.000196599
0.000193521
0.000186583
)
;
    }
    heatsource1
    {
        type            compressible::alphatWallFunction;
        Prt             0.85;
        value           nonuniform List<scalar> 3(0.000108077 0.000133215 0.000193394);
    }
    heatsource2
    {
        type            compressible::alphatWallFunction;
        Prt             0.85;
        value           nonuniform List<scalar> 4(0.000182183 0.000123872 0.000123871 0.00018156);
    }
    Table_master
    {
        type            compressible::alphatWallFunction;
        Prt             0.85;
        value           nonuniform List<scalar> 9(0.000111077 9.4424e-05 8.18001e-05 7.18851e-05 6.39034e-05 5.73688e-05 5.19747e-05 4.75508e-05 4.40783e-05);
    }
    Table_slave
    {
        type            compressible::alphatWallFunction;
        Prt             0.85;
        value           nonuniform List<scalar> 9(0.000131883 0.000118768 0.000107981 9.89724e-05 9.12939e-05 8.45493e-05 7.83545e-05 7.22987e-05 6.5741e-05);
    }
    inlet
    {
        type            fixedValue;
        value           uniform 1.94e-05;
    }
    outlet
    {
        type            zeroGradient;
    }
}


// ************************************************************************* //
