/*--------------------------------*- C++ -*----------------------------------*\
  =========                 |
  \\      /  F ield         | OpenFOAM: The Open Source CFD Toolbox
   \\    /   O peration     | Website:  https://openfoam.org
    \\  /    A nd           | Version:  6
     \\/     M anipulation  |
\*---------------------------------------------------------------------------*/
FoamFile
{
    version     2.0;
    format      ascii;
    class       volScalarField;
    location    "660";
    object      nut;
}
// * * * * * * * * * * * * * * * * * * * * * * * * * * * * * * * * * * * * * //

dimensions      [0 2 -1 0 0 0 0];

internalField   nonuniform List<scalar> 
459
(
0.000820052
0.000886036
0.000900327
0.000939608
0.000974323
0.00100534
0.00103405
0.00106185
0.00109052
0.00111444
0.00113092
0.00113672
0.00112899
0.00110744
0.00107672
0.000610513
0.000747545
0.000692176
0.000623576
0.000555903
0.00050023
0.000449583
0.000404848
0.000367048
0.00033534
0.000308544
0.000285699
0.000265972
0.000248555
0.000232692
0.000217917
0.000219829
0.000334701
0.000464983
0.00112442
0.00238746
0.00213643
0.00241808
0.00268522
0.00296931
0.00325215
0.00350552
0.00368379
0.00385097
0.00398878
0.00405295
0.00396856
0.00358812
0.00260794
0.00111926
0.000887327
0.000812201
0.00203498
0.00182489
0.00174548
0.00163985
0.00149039
0.00122399
0.00104578
0.000916367
0.000815693
0.00073512
0.000668803
0.000612246
0.000562716
0.000522495
0.000491051
0.000558998
0.000768772
0.000560911
0.00138643
0.00324213
0.00260084
0.0032467
0.00352135
0.00372708
0.00387919
0.00399503
0.00408836
0.00421353
0.00437128
0.00454319
0.00470149
0.00479594
0.00468213
0.00386914
0.00119288
0.00102665
0.00171008
0.00203638
0.00215785
0.00213944
0.00193608
0.000651068
0.000556635
0.000487985
0.000435759
0.00039476
0.000361834
0.000335058
0.000313358
0.00029657
0.000329044
0.000485668
0.000850098
0.000616154
0.00164369
0.00421143
0.00254429
0.00349994
0.00374048
0.0037926
0.00376647
0.00372828
0.00373339
0.00381136
0.00396488
0.00418517
0.00446435
0.00479081
0.00511293
0.00517728
0.00429688
0.00128456
0.00200419
0.00246459
0.00272416
0.00280334
0.00273735
0.00240926
0.000768607
0.000688888
0.000623481
0.000569599
0.000524648
0.000486181
0.00045178
0.000418895
0.000383613
0.00036745
0.00046032
0.000905491
0.000663149
0.0019082
0.0055061
0.00264263
0.00337007
0.00373168
0.00369851
0.00354848
0.00339663
0.00334752
0.00340326
0.00355613
0.00379412
0.00411319
0.00450417
0.0049329
0.00522057
0.00518233
0.0046194
0.00442612
0.00429092
0.00413676
0.00395238
0.00373521
0.0034248
0.0026937
0.00240205
0.00221145
0.0020688
0.00195121
0.00183382
0.00169266
0.00150757
0.00126264
0.000975688
0.000756169
0.000795292
0.000804603
0.000647067
0.000796398
0.00117008
0.00218863
0.00696757
0.00356394
0.00301095
0.00352873
0.00360344
0.00348003
0.00328448
0.00313579
0.00318559
0.00334068
0.00359133
0.00393464
0.00435224
0.00478536
0.00512868
0.00528122
0.00522526
0.00510477
0.00495406
0.00478155
0.00460756
0.00443487
0.00421039
0.0038698
0.00360938
0.00339543
0.00320695
0.0030286
0.0028412
0.00262608
0.00236931
0.00206559
0.0017293
0.00142675
0.00112053
0.000883019
0.00104859
0.0017329
0.00156457
0.00247422
0.00815688
0.00555019
0.00334395
0.00297744
0.00308153
0.00322679
0.00319733
0.00312922
0.00317066
0.00330393
0.00355324
0.00391655
0.0043653
0.00483568
0.00522835
0.00545006
0.00548306
0.00539641
0.00525006
0.00508504
0.00493154
0.00475853
0.004555
0.00432538
0.00410885
0.00390272
0.00370342
0.00350619
0.0033023
0.00308223
0.00283899
0.00257051
0.00228712
0.00201868
0.00170084
0.00111538
0.00167567
0.00327413
0.00207772
0.00255985
0.00809805
0.00650494
0.00506258
0.00405098
0.00353715
0.00342722
0.0033748
0.00327262
0.00325171
0.00337468
0.00365101
0.00405486
0.0045465
0.00506191
0.0055013
0.00575765
0.00578784
0.00564903
0.00542194
0.00515745
0.00488607
0.004623
0.00441978
0.00425455
0.00410812
0.00397201
0.00384581
0.0037284
0.00361509
0.00349872
0.0033705
0.0032186
0.00302595
0.00277745
0.00244016
0.00175473
0.00231752
0.00559962
0.00279309
0.00251964
0.00307474
0.0034099
0.00351865
0.00345034
0.00331138
0.00320273
0.00312912
0.00311208
0.00322094
0.00348726
0.00388184
0.00436265
0.00490038
0.00544674
0.00590686
0.00615383
0.006116
0.00587016
0.00555746
0.0052433
0.00495627
0.00474213
0.0046032
0.00451841
0.00446733
0.00443827
0.00442634
0.00442817
0.00443884
0.00445047
0.00445085
0.00442053
0.00432906
0.00414522
0.00382213
0.00319245
0.00346717
0.0070918
0.00309032
0.00144013
0.0022324
0.00266009
0.00283804
0.00291733
0.00299274
0.0031884
0.00353293
0.00398067
0.00447902
0.00498874
0.00551914
0.00605103
0.00649066
0.00667754
0.00661004
0.00645104
0.00627728
0.00610585
0.00595322
0.00584176
0.0057723
0.00573848
0.00573357
0.00575246
0.00579172
0.00584845
0.00591874
0.00599588
0.00606763
0.00611145
0.00608455
0.00594568
0.00566273
0.00519707
0.00525832
0.0073276
0.00259486
0.00159739
0.00232823
0.00276829
0.00304568
0.00334265
0.00378572
0.00436174
0.00494302
0.00547041
0.00588051
0.00620464
0.00665018
0.00720844
0.00770826
0.00788504
0.00786201
0.00773344
0.00753065
0.00735916
0.00723482
0.00715127
0.00710024
0.00707786
0.00708098
0.0071059
0.00714923
0.0072082
0.00728006
0.00736055
0.00744096
0.00750084
0.00749134
0.00733743
0.00697294
0.00644711
0.00606786
0.00569209
0.00216126
0.00133691
0.00143339
0.00152949
0.00166033
0.00165787
0.00160324
0.0015475
0.00149415
0.00146441
0.00149001
0.00154687
0.0016112
0.00167282
0.00176402
0.00184044
0.00186802
0.00185679
0.001834
0.00181073
0.00179611
0.0017851
0.00177756
0.00177302
0.00177107
0.00177129
0.00177325
0.00177658
0.00178095
0.00178618
0.00179203
0.0017981
0.00180326
0.00180476
0.00179879
0.00178385
0.00177434
0.00180644
0.00189845
0.00197995
0.00178945
)
;

boundaryField
{
    floor
    {
        type            nutkWallFunction;
        Cmu             0.09;
        kappa           0.41;
        E               9.8;
        value           nonuniform List<scalar> 
29
(
0.000129706
7.36649e-05
9.05382e-05
8.37688e-05
7.52915e-05
6.6818e-05
5.9753e-05
5.32414e-05
4.74136e-05
4.2426e-05
3.8192e-05
3.45736e-05
3.14567e-05
2.87389e-05
2.63172e-05
2.4092e-05
2.20012e-05
2.22736e-05
3.811e-05
5.52342e-05
5.52342e-05
6.74513e-05
7.4369e-05
8.01947e-05
0.000129706
7.36649e-05
9.83657e-05
0.000123848
0.000153708
)
;
    }
    ceiling
    {
        type            nutkWallFunction;
        Cmu             0.09;
        kappa           0.41;
        E               9.8;
        value           nonuniform List<scalar> 
43
(
0.000159656
0.000170593
0.000181408
0.000196024
0.000195757
0.000189676
0.000183447
0.00017746
0.000174115
0.000176999
0.000183382
0.000190574
0.000197435
0.000207547
0.000215971
0.000219002
0.00021777
0.000215265
0.000212704
0.000211094
0.000209879
0.000209048
0.000208547
0.000208331
0.000208355
0.000208573
0.00020894
0.000209423
0.000209999
0.000210645
0.000211314
0.000211882
0.000212048
0.000211391
0.000209743
0.000208694
0.000212234
0.000222346
0.000231258
0.000210364
0.000289422
0.000347839
0.000188992
)
;
    }
    sWall
    {
        type            nutkWallFunction;
        Cmu             0.09;
        kappa           0.41;
        E               9.8;
        value           uniform 0.000159692;
    }
    nWall
    {
        type            nutkWallFunction;
        Cmu             0.09;
        kappa           0.41;
        E               9.8;
        value           nonuniform List<scalar> 6(0.000140547 0.000185377 0.00024189 0.000297349 0.000250941 0.000210358);
    }
    sideWalls
    {
        type            empty;
    }
    glass1
    {
        type            nutkWallFunction;
        Cmu             0.09;
        kappa           0.41;
        E               9.8;
        value           nonuniform List<scalar> 9(9.93236e-05 0.000135347 0.000165452 0.000194395 0.000223638 0.000254165 0.000284828 0.000293951 0.00028968);
    }
    glass2
    {
        type            nutkWallFunction;
        Cmu             0.09;
        kappa           0.41;
        E               9.8;
        value           nonuniform List<scalar> 2(0.00031814 0.000349241);
    }
    sun
    {
        type            nutkWallFunction;
        Cmu             0.09;
        kappa           0.41;
        E               9.8;
        value           nonuniform List<scalar> 
14
(
9.93139e-05
0.000107221
0.000108924
0.000113591
0.000117696
0.00012135
0.000124719
0.000127973
0.000131318
0.000134102
0.000136015
0.000136687
0.000135789
0.000133286
)
;
    }
    heatsource1
    {
        type            nutkWallFunction;
        Cmu             0.09;
        kappa           0.41;
        E               9.8;
        value           nonuniform List<scalar> 3(7.82017e-05 9.64603e-05 0.000140558);
    }
    heatsource2
    {
        type            nutkWallFunction;
        Cmu             0.09;
        kappa           0.41;
        E               9.8;
        value           nonuniform List<scalar> 4(0.000134664 0.000107369 0.000107369 0.000143182);
    }
    Table_master
    {
        type            nutkWallFunction;
        Cmu             0.09;
        kappa           0.41;
        E               9.8;
        value           nonuniform List<scalar> 9(7.86979e-05 6.69029e-05 5.81751e-05 5.14335e-05 4.60699e-05 4.17112e-05 3.8129e-05 3.51986e-05 3.29136e-05);
    }
    Table_slave
    {
        type            nutkWallFunction;
        Cmu             0.09;
        kappa           0.41;
        E               9.8;
        value           nonuniform List<scalar> 9(9.3097e-05 8.33627e-05 7.52755e-05 6.85362e-05 6.28543e-05 5.79443e-05 5.35122e-05 4.92357e-05 4.46e-05);
    }
    inlet
    {
        type            calculated;
        value           uniform 0.000100623;
    }
    outlet
    {
        type            calculated;
        value           nonuniform List<scalar> 2(0.00133691 0.00143339);
    }
}


// ************************************************************************* //
