/*--------------------------------*- C++ -*----------------------------------*\
  =========                 |
  \\      /  F ield         | OpenFOAM: The Open Source CFD Toolbox
   \\    /   O peration     | Website:  https://openfoam.org
    \\  /    A nd           | Version:  6
     \\/     M anipulation  |
\*---------------------------------------------------------------------------*/
FoamFile
{
    version     2.0;
    format      ascii;
    class       volScalarField;
    location    "1600";
    object      alphat;
}
// * * * * * * * * * * * * * * * * * * * * * * * * * * * * * * * * * * * * * //

dimensions      [1 -1 -1 0 0 0 0];

internalField   nonuniform List<scalar> 
459
(
0.00125295
0.00137
0.00139549
0.00146257
0.00152465
0.00158275
0.00163967
0.00169539
0.00173476
0.00175144
0.00173951
0.00169532
0.00161867
0.00151606
0.00140353
0.00055031
0.000673266
0.000756987
0.000751708
0.000725594
0.000691471
0.00064888
0.000606717
0.000568434
0.000534419
0.000504286
0.000477495
0.000453654
0.000432233
0.000412469
0.000393371
0.000373478
0.000359218
0.000327135
0.00170633
0.00417373
0.00399438
0.00464926
0.00529289
0.00593662
0.00650519
0.00693281
0.00731985
0.0076349
0.00783371
0.00786586
0.00765482
0.00700911
0.005238
0.00143066
0.000843609
0.00059558
0.00124895
0.00172235
0.0020591
0.00223565
0.0022256
0.00179182
0.00154655
0.00137061
0.00123528
0.00112753
0.00103984
0.000964247
0.000893897
0.000825795
0.000765361
0.00071284
0.000834416
0.000427299
0.00208303
0.0057014
0.00495791
0.00621892
0.00684914
0.00731711
0.00768071
0.0079703
0.00828458
0.00861258
0.00891533
0.00913736
0.00921748
0.00906619
0.00844698
0.00651505
0.0014215
0.00118971
0.00170673
0.00218208
0.00260206
0.00288313
0.00279912
0.000928761
0.000820322
0.000733211
0.000662911
0.000605622
0.000558438
0.00051927
0.000486788
0.000460439
0.00049615
0.000573461
0.000937216
0.000494008
0.00244405
0.0072861
0.0049738
0.0065843
0.00713967
0.00732981
0.0074531
0.0076024
0.00785322
0.00818904
0.00856989
0.00892635
0.00919499
0.00930525
0.00917291
0.00850856
0.00624241
0.00170233
0.0021114
0.0027228
0.0033064
0.00376122
0.00403207
0.00376827
0.00104773
0.000953926
0.000886785
0.000835668
0.000792307
0.000752523
0.000714371
0.000674366
0.000627976
0.000589033
0.00060173
0.00106916
0.000545698
0.0028118
0.0093191
0.00546903
0.00634012
0.00707512
0.00712663
0.00706753
0.00714838
0.00737079
0.00771192
0.00813908
0.00855681
0.00887762
0.00902999
0.00898892
0.00870597
0.00798759
0.00660337
0.00612717
0.00596553
0.00590377
0.0058603
0.00578744
0.00555689
0.00469056
0.00427602
0.00403653
0.00385266
0.00365877
0.00337832
0.00299718
0.00253258
0.00201491
0.00149221
0.00109933
0.00109932
0.000731311
0.000672594
0.000814262
0.000913789
0.0032014
0.0115309
0.00752626
0.00631286
0.00686494
0.00711321
0.00695962
0.00702799
0.00719641
0.00750193
0.00793153
0.00838848
0.00874151
0.00888828
0.00880476
0.00854518
0.00819896
0.00783825
0.00763236
0.00747669
0.00730061
0.00710208
0.00688382
0.00661691
0.00622885
0.00588446
0.00557994
0.00528735
0.00498781
0.00466076
0.00424649
0.00373006
0.00311143
0.00242562
0.00181785
0.00135666
0.00102116
0.00086748
0.00123685
0.000953486
0.00355545
0.013075
0.0105398
0.00813703
0.00769478
0.00760071
0.0073485
0.00718884
0.00724248
0.00753891
0.00801359
0.00852232
0.00889399
0.00900803
0.00885143
0.00853659
0.00826194
0.00816161
0.00816259
0.00807769
0.00785621
0.00754108
0.0071714
0.00676648
0.0063428
0.0059495
0.00558699
0.00524639
0.00492856
0.0046419
0.00438737
0.00404156
0.00355732
0.00296581
0.00239637
0.00188599
0.00151203
0.00139498
0.00142132
0.0010842
0.00362163
0.011621
0.0103301
0.00954209
0.0088451
0.00803808
0.00740571
0.00715454
0.0073098
0.00778499
0.00841681
0.00899665
0.00932871
0.0093179
0.00900982
0.00859831
0.00834444
0.00833146
0.0083267
0.00806542
0.0076205
0.00708003
0.00651351
0.00597682
0.0055058
0.00510696
0.00476503
0.00447286
0.00423532
0.00406301
0.00396594
0.00391614
0.0036733
0.00329163
0.00295459
0.00277871
0.00287859
0.00331355
0.00407601
0.00169222
0.00352173
0.00417958
0.00464362
0.00476255
0.00486202
0.00513266
0.00567779
0.00650774
0.00752605
0.00855586
0.00940702
0.00990133
0.00992018
0.00951684
0.00890828
0.00848335
0.00823753
0.00802203
0.00767113
0.00712409
0.00646104
0.00578267
0.00517026
0.00466259
0.0042575
0.00393069
0.00365848
0.00342735
0.00322928
0.00305605
0.00289858
0.00275578
0.00264472
0.00256335
0.00253232
0.00254321
0.00252935
0.00242955
0.00227236
0.00159117
0.00176422
0.00361347
0.00584392
0.00770019
0.00914667
0.010249
0.0109427
0.0112145
0.011106
0.0106112
0.00983378
0.00885632
0.00802033
0.00749581
0.00707168
0.00656027
0.00594297
0.00528933
0.00467231
0.00414037
0.0037182
0.00338982
0.00313053
0.00292178
0.00275343
0.00262102
0.0025228
0.00245792
0.00242857
0.00243237
0.00245287
0.00248527
0.00252036
0.00253021
0.00247007
0.00232554
0.00210697
0.0013236
0.00235504
0.00603954
0.00898988
0.0100995
0.010658
0.0108315
0.0105878
0.00999656
0.00917841
0.00825218
0.00737534
0.00659087
0.00595645
0.0054177
0.00487906
0.0043537
0.0038919
0.00351889
0.00323127
0.00301062
0.00283003
0.00267563
0.00254197
0.00243401
0.00235428
0.00230249
0.0022772
0.00227588
0.00230485
0.00236075
0.00243964
0.0025331
0.00262252
0.00268511
0.00266613
0.00269828
0.00273708
0.00134925
0.00208803
0.0022132
0.00230154
0.00246387
0.00237707
0.00227638
0.00221126
0.00212061
0.00199139
0.00183112
0.00165088
0.00146347
0.0012815
0.00112505
0.00100671
0.000922715
0.000863381
0.000820823
0.00079018
0.000768625
0.000754363
0.000746278
0.000743674
0.000746766
0.000756069
0.000771049
0.000791629
0.000818213
0.000851453
0.00089233
0.00093971
0.000993657
0.00105477
0.00112358
0.0011996
0.00129006
0.00131934
0.00128567
0.00120814
0.00112595
)
;

boundaryField
{
    floor
    {
        type            compressible::alphatWallFunction;
        Prt             0.85;
        value           nonuniform List<scalar> 
29
(
0.000197979
7.69083e-05
9.52757e-05
0.000107545
0.000106776
0.000102965
9.79587e-05
9.16681e-05
8.5391e-05
7.96448e-05
7.44991e-05
6.99065e-05
6.57943e-05
6.21104e-05
5.87795e-05
5.56875e-05
5.26816e-05
4.95305e-05
4.72584e-05
4.21027e-05
4.21021e-05
5.80095e-05
6.83326e-05
7.62103e-05
0.000197977
7.69074e-05
8.37236e-05
0.000168747
0.000238012
)
;
    }
    ceiling
    {
        type            compressible::alphatWallFunction;
        Prt             0.85;
        value           nonuniform List<scalar> 
43
(
0.000288466
0.00030464
0.000316
0.000336873
0.000325846
0.000312965
0.0003046
0.000292902
0.000276123
0.000255145
0.000231307
0.000206211
0.000181495
0.000159923
0.000143378
0.000131499
0.00012303
0.000116914
0.000112487
0.00010936
0.000107285
0.000106107
0.000105728
0.000106179
0.000107534
0.000109713
0.000112697
0.000116539
0.000121321
0.000127172
0.000133915
0.000141544
0.000150127
0.000159724
0.000170248
0.000182672
0.000186674
0.000182073
0.000171427
0.000160058
0.000469247
0.000549258
0.000322687
)
;
    }
    sWall
    {
        type            compressible::alphatWallFunction;
        Prt             0.85;
        value           uniform 0.000287256;
    }
    nWall
    {
        type            compressible::alphatWallFunction;
        Prt             0.85;
        value           nonuniform List<scalar> 6(0.000129911 0.000135542 0.000153905 0.000186928 0.00019042 0.000159736);
    }
    sideWalls
    {
        type            empty;
    }
    glass1
    {
        type            compressible::alphatWallFunction;
        Prt             0.85;
        value           nonuniform List<scalar> 9(0.000173168 0.000233452 0.000282316 0.000328341 0.000374551 0.000422864 0.000466288 0.000474486 0.000462531);
    }
    glass2
    {
        type            compressible::alphatWallFunction;
        Prt             0.85;
        value           nonuniform List<scalar> 2(0.000235119 0.000221783);
    }
    sun
    {
        type            compressible::alphatWallFunction;
        Prt             0.85;
        value           nonuniform List<scalar> 
14
(
0.000177471
0.000193436
0.000196895
0.000205963
0.000214316
0.000222097
0.00022969
0.000237095
0.000242311
0.000244516
0.000242938
0.000237084
0.000226889
0.000213158
)
;
    }
    heatsource1
    {
        type            compressible::alphatWallFunction;
        Prt             0.85;
        value           nonuniform List<scalar> 3(9.52803e-05 0.000115952 0.000130214);
    }
    heatsource2
    {
        type            compressible::alphatWallFunction;
        Prt             0.85;
        value           nonuniform List<scalar> 4(0.000201771 0.000120178 0.000120176 0.00020053);
    }
    Table_master
    {
        type            compressible::alphatWallFunction;
        Prt             0.85;
        value           nonuniform List<scalar> 9(0.00013234 0.000116823 0.000104181 9.3847e-05 8.53264e-05 7.8234e-05 7.229e-05 6.7318e-05 6.32539e-05);
    }
    Table_slave
    {
        type            compressible::alphatWallFunction;
        Prt             0.85;
        value           nonuniform List<scalar> 9(0.000149125 0.000135913 0.000126363 0.000119036 0.000112779 0.000107001 0.000101427 9.5542e-05 8.86645e-05);
    }
    inlet
    {
        type            fixedValue;
        value           uniform 1.94e-05;
    }
    outlet
    {
        type            zeroGradient;
    }
}


// ************************************************************************* //
