/*--------------------------------*- C++ -*----------------------------------*\
  =========                 |
  \\      /  F ield         | OpenFOAM: The Open Source CFD Toolbox
   \\    /   O peration     | Website:  https://openfoam.org
    \\  /    A nd           | Version:  6
     \\/     M anipulation  |
\*---------------------------------------------------------------------------*/
FoamFile
{
    version     2.0;
    format      ascii;
    class       volScalarField;
    location    "1000";
    object      nut;
}
// * * * * * * * * * * * * * * * * * * * * * * * * * * * * * * * * * * * * * //

dimensions      [0 2 -1 0 0 0 0];

internalField   nonuniform List<scalar> 
459
(
0.00174557
0.00243387
0.00231531
0.00217981
0.00205201
0.00193463
0.00181399
0.00167771
0.0015042
0.00117967
0.000545985
0.000497694
0.000444735
0.000378982
0.00034968
0.000435611
0.000545529
0.000495551
0.000447548
0.000411494
0.000374596
0.000338835
0.000303134
0.000266275
0.000227986
0.000199869
0.00018733
0.000180859
0.000179731
0.000191029
0.00025703
0.000396788
0.00044746
0.000388234
0.00276303
0.00332135
0.00343203
0.00334861
0.00322304
0.00308223
0.00292828
0.00272304
0.00240501
0.0018533
0.00131044
0.00158439
0.00149648
0.00124238
0.000921365
0.000400185
0.000343163
0.000506591
0.00151481
0.00149363
0.00129329
0.00104622
0.000889239
0.000610647
0.000511204
0.000435851
0.000392946
0.000382627
0.000389073
0.000400263
0.000397237
0.000350821
0.000466643
0.000842631
0.00104806
0.000468802
0.00314629
0.00404138
0.00390201
0.0036688
0.00351037
0.00339397
0.00328201
0.00309907
0.00275464
0.00218495
0.00204389
0.00212913
0.00175566
0.00136011
0.00107038
0.00082069
0.000359578
0.000684551
0.00195909
0.00160132
0.00119969
0.000885409
0.000652525
0.000304545
0.000264276
0.000241497
0.000222028
0.000209274
0.000201482
0.000195773
0.000192499
0.000237452
0.000740003
0.00119026
0.00106963
0.000522508
0.00334332
0.00471003
0.00406858
0.00360254
0.00347307
0.00343455
0.00337382
0.00319734
0.00282753
0.00241362
0.00271889
0.00251275
0.00192468
0.00136012
0.000969082
0.000738278
0.000671894
0.000742336
0.00151874
0.00148142
0.00121472
0.00100527
0.000880846
0.000759196
0.000648929
0.000679191
0.000716141
0.000758452
0.000804844
0.000853885
0.000905336
0.000919451
0.000904278
0.00108042
0.00121943
0.00144575
0.000754801
0.00350269
0.00499984
0.00367139
0.00327969
0.00332758
0.00334875
0.00330042
0.00311157
0.00282084
0.00267727
0.00308162
0.00297517
0.00273209
0.00234727
0.00203735
0.00178588
0.00162486
0.00168433
0.00194585
0.00213339
0.00220761
0.00228822
0.00234192
0.00239438
0.00245794
0.00256905
0.00271675
0.00289115
0.0030704
0.00322392
0.00332549
0.00331964
0.0032035
0.0029845
0.00251995
0.00210316
0.00149923
0.000771167
0.000700116
0.000831889
0.00366354
0.00479077
0.00290082
0.00358342
0.00325925
0.00321821
0.00315818
0.00301102
0.00286305
0.00291109
0.0032998
0.00357871
0.00382529
0.00382432
0.00372953
0.00356589
0.00336001
0.00326141
0.00328746
0.0033117
0.00333129
0.00335586
0.00335072
0.00332722
0.00329868
0.00329966
0.00335377
0.00345931
0.00358901
0.00369817
0.00374918
0.00372665
0.00363541
0.0034924
0.00325023
0.00279396
0.0023051
0.00172215
0.00161141
0.000892987
0.00385864
0.00423352
0.00216824
0.003262
0.00316355
0.00310997
0.00306287
0.00298675
0.00297049
0.00312397
0.0036165
0.00425004
0.0046635
0.00485836
0.00496699
0.00497085
0.00488172
0.00476167
0.00465922
0.00457589
0.0045162
0.00446658
0.00438544
0.00425451
0.00409492
0.0039457
0.00385836
0.00386057
0.00393068
0.00399669
0.0039911
0.00390433
0.00378569
0.0037005
0.00368105
0.0035867
0.00323831
0.00272298
0.00242859
0.0011072
0.00413306
0.00416972
0.00255631
0.00245438
0.00311249
0.00312693
0.00309916
0.00308013
0.00315208
0.00339049
0.00408296
0.00481645
0.00521507
0.00547656
0.00567171
0.00577723
0.00578654
0.00572343
0.00562625
0.00552612
0.00544145
0.00536999
0.00528593
0.00514968
0.00496316
0.00474612
0.00454338
0.00442065
0.00441582
0.00443587
0.00436111
0.00415802
0.00388846
0.00364632
0.00348364
0.00335502
0.00306504
0.00260745
0.00220795
0.00115784
0.00461121
0.00535763
0.00622221
0.00205638
0.00288613
0.00345129
0.00337664
0.00335031
0.00346299
0.00380875
0.00452607
0.00504496
0.00533356
0.00554964
0.00573142
0.00587189
0.00595297
0.00596755
0.00592466
0.00585377
0.00577951
0.00571389
0.00565241
0.00558093
0.00548816
0.00537821
0.00525535
0.00508083
0.00502418
0.00506239
0.00501008
0.00474145
0.00426089
0.00366403
0.00305932
0.00254142
0.00214692
0.00189742
0.00176483
0.00131104
0.0112213
0.00525618
0.00234497
0.00394052
0.00395313
0.00386178
0.0039671
0.00432426
0.00467183
0.00493753
0.00508444
0.00519106
0.00529455
0.00539346
0.00547598
0.00552946
0.00554859
0.0055354
0.00549975
0.00545473
0.00540853
0.0053616
0.00531209
0.00526719
0.00524297
0.00526439
0.00536859
0.00557626
0.00583724
0.00604853
0.0061705
0.0061831
0.00603583
0.00559194
0.00486898
0.00398955
0.00321571
0.0013741
0.00525715
0.00306878
0.00407179
0.00407174
0.00401807
0.00387805
0.00378313
0.00375415
0.00387434
0.00410328
0.00427614
0.00440659
0.00450322
0.00457482
0.00462614
0.00465882
0.00467333
0.00467188
0.00465993
0.00464477
0.00463272
0.00462645
0.00461437
0.0045997
0.00459537
0.00462506
0.00471835
0.00489583
0.00514734
0.00542011
0.00564206
0.00574869
0.00564858
0.00520641
0.0043072
0.0031673
0.0024031
0.00124072
0.00191776
0.00273328
0.00392552
0.00187755
0.00133771
0.00133085
0.00130758
0.00125822
0.00118692
0.00111576
0.00106025
0.00101988
0.000998149
0.000988036
0.000984332
0.000983443
0.000983132
0.000982188
0.000980104
0.000976882
0.000972893
0.000968714
0.000964955
0.00096218
0.000962221
0.000965541
0.000972775
0.000985404
0.00100599
0.00103731
0.00108002
0.00113006
0.00117994
0.0012219
0.00124206
0.00122225
0.00116886
0.00107926
0.00100243
0.00115419
)
;

boundaryField
{
    floor
    {
        type            nutkWallFunction;
        Cmu             0.09;
        kappa           0.41;
        E               9.8;
        value           nonuniform List<scalar> 
29
(
4.00899e-05
5.14143e-05
6.55145e-05
5.91466e-05
5.29716e-05
4.82778e-05
4.34157e-05
3.86443e-05
3.38148e-05
2.87485e-05
2.33859e-05
1.93696e-05
1.75523e-05
1.66074e-05
1.64398e-05
1.80817e-05
2.74269e-05
4.63184e-05
5.29678e-05
4.52094e-05
4.52093e-05
5.57129e-05
6.25984e-05
9.14197e-05
4.00898e-05
5.14142e-05
6.05515e-05
8.28349e-05
8.9905e-05
)
;
    }
    ceiling
    {
        type            nutkWallFunction;
        Cmu             0.09;
        kappa           0.41;
        E               9.8;
        value           nonuniform List<scalar> 
43
(
0.000224579
0.000312177
0.000435516
0.000220219
0.000159832
0.00015904
0.000156365
0.0001507
0.00014249
0.000134249
0.000127784
0.000123059
0.000120506
0.000119316
0.00011888
0.000118775
0.000118737
0.000118626
0.000118381
0.000118001
0.000117531
0.000117039
0.000116596
0.00011627
0.000116276
0.00011667
0.000117525
0.000119015
0.000121439
0.000125117
0.000130109
0.000135927
0.000141697
0.000146528
0.000148842
0.000146558
0.000140392
0.000129979
0.000120979
0.000138702
0.000504671
0.0005788
0.000568922
)
;
    }
    sWall
    {
        type            nutkWallFunction;
        Cmu             0.09;
        kappa           0.41;
        E               9.8;
        value           uniform 0.000224631;
    }
    nWall
    {
        type            nutkWallFunction;
        Cmu             0.09;
        kappa           0.41;
        E               9.8;
        value           nonuniform List<scalar> 6(0.00010074 0.000108059 0.000133279 0.000163924 0.000148685 0.000138711);
    }
    sideWalls
    {
        type            empty;
    }
    glass1
    {
        type            nutkWallFunction;
        Cmu             0.09;
        kappa           0.41;
        E               9.8;
        value           nonuniform List<scalar> 9(0.000205852 0.000315657 0.000355838 0.000376287 0.000392736 0.00040926 0.000429202 0.000457082 0.000505228);
    }
    glass2
    {
        type            nutkWallFunction;
        Cmu             0.09;
        kappa           0.41;
        E               9.8;
        value           nonuniform List<scalar> 2(0.000139223 0.000156789);
    }
    sun
    {
        type            nutkWallFunction;
        Cmu             0.09;
        kappa           0.41;
        E               9.8;
        value           nonuniform List<scalar> 
14
(
0.000205633
0.000280357
0.000267657
0.000253055
0.000239196
0.000226386
0.000213131
0.000198041
0.000178625
0.000141547
6.55178e-05
5.94014e-05
5.25872e-05
4.39859e-05
)
;
    }
    heatsource1
    {
        type            nutkWallFunction;
        Cmu             0.09;
        kappa           0.41;
        E               9.8;
        value           nonuniform List<scalar> 3(9.33838e-05 8.47265e-05 0.000100738);
    }
    heatsource2
    {
        type            nutkWallFunction;
        Cmu             0.09;
        kappa           0.41;
        E               9.8;
        value           nonuniform List<scalar> 4(4.68007e-05 3.92351e-05 3.9235e-05 4.14232e-05);
    }
    Table_master
    {
        type            nutkWallFunction;
        Cmu             0.09;
        kappa           0.41;
        E               9.8;
        value           nonuniform List<scalar> 9(3.40135e-05 2.84849e-05 2.53063e-05 2.25553e-05 2.07353e-05 1.96168e-05 1.87938e-05 1.83196e-05 2.4719e-05);
    }
    Table_slave
    {
        type            nutkWallFunction;
        Cmu             0.09;
        kappa           0.41;
        E               9.8;
        value           nonuniform List<scalar> 9(7.84172e-05 8.21494e-05 8.66809e-05 9.18368e-05 9.74524e-05 0.00010335 0.000109495 0.000111175 0.00010937);
    }
    inlet
    {
        type            calculated;
        value           uniform 3.3541e-05;
    }
    outlet
    {
        type            calculated;
        value           nonuniform List<scalar> 2(0.00191776 0.00273328);
    }
}


// ************************************************************************* //
