// -*- C++ -*-
// File generated by PyFoam - sorry for the ugliness

FoamFile
{
 version 2.0;
 format ascii;
 class volVectorField;
 location "1000";
 object U;
}

dimensions [ 0 1 -1 0 0 0 0 ];

internalField nonuniform List<vector> 459
(
  (0.0328191 0.085477 0)
  (-0.166162 0.0257141 0)
  (-0.190808 0.017843 0)
  (-0.221404 0.0123009 0)
  (-0.243674 0.00624734 0)
  (-0.256773 -9.85297e-05 0)
  (-0.259361 -0.00678923 0)
  (-0.250261 -0.0138259 0)
  (-0.230157 -0.0207159 0)
  (-0.200546 -0.0264026 0)
  (-0.164451 -0.0300463 0)
  (-0.125319 -0.0313873 0)
  (-0.0864123 -0.0309453 0)
  (-0.0524606 -0.0303536 0)
  (-0.0370193 -0.0313549 0)
  (-0.00290499 0.00746685 0)
  (-0.0225174 -0.0174414 0)
  (0.00112289 -0.026229 0)
  (0.0220975 -0.0194962 0)
  (0.0378267 -0.0131216 0)
  (0.0494976 -0.00839045 0)
  (0.0564173 -0.00502699 0)
  (0.0598831 -0.00326912 0)
  (0.0614649 -0.00251133 0)
  (0.0622969 -0.0021465 0)
  (0.0628249 -0.00191068 0)
  (0.0631063 -0.0017177 0)
  (0.0630751 -0.00147998 0)
  (0.0625214 -0.00102459 0)
  (0.0608753 3.17478e-05 0)
  (0.0569305 0.00223239 0)
  (0.0493606 0.00463275 0)
  (0.041454 0.00674887 0)
  (-0.0101661 0.0204151 0)
  (0.204945 0.174614 0)
  (-0.154263 0.0672722 0)
  (-0.152703 0.0521739 0)
  (-0.183934 0.0406312 0)
  (-0.205685 0.027717 0)
  (-0.218757 0.013427 0)
  (-0.221788 -0.00248616 0)
  (-0.213414 -0.0195494 0)
  (-0.194846 -0.0356162 0)
  (-0.167956 -0.0481823 0)
  (-0.135982 -0.0554812 0)
  (-0.102344 -0.0570842 0)
  (-0.0702503 -0.0536808 0)
  (-0.0434124 -0.0468554 0)
  (-0.0263682 -0.0378144 0)
  (-0.0128782 -0.0184362 0)
  (-0.00704701 0.0137458 0)
  (0.0595389 0.0314608 0)
  (0.0312977 -0.0198835 0)
  (0.0384242 -0.0306535 0)
  (0.0492169 -0.0260275 0)
  (0.0576842 -0.0179545 0)
  (0.0633094 -0.0105617 0)
  (0.0655381 -0.00437051 0)
  (0.065862 -0.000935894 0)
  (0.0657757 0.000531339 0)
  (0.0658574 0.00121145 0)
  (0.066022 0.00163946 0)
  (0.0661396 0.00201135 0)
  (0.0661685 0.00249699 0)
  (0.0660548 0.0034343 0)
  (0.0652657 0.00573086 0)
  (0.0613788 0.0120576 0)
  (0.0516086 0.017474 0)
  (0.0451741 0.0214001 0)
  (-0.0435469 0.0440709 0)
  (0.362646 0.260892 0)
  (-0.169831 0.106632 0)
  (-0.114066 0.0839366 0)
  (-0.143825 0.0634364 0)
  (-0.162746 0.0422599 0)
  (-0.174453 0.019151 0)
  (-0.17674 -0.0066426 0)
  (-0.167456 -0.0338812 0)
  (-0.148899 -0.0587346 0)
  (-0.123692 -0.0771693 0)
  (-0.0953482 -0.0868338 0)
  (-0.0668026 -0.0876899 0)
  (-0.040322 -0.0809096 0)
  (-0.018102 -0.0680876 0)
  (-0.00187644 -0.0502006 0)
  (0.0104097 -0.0246565 0)
  (0.0170432 0.00977475 0)
  (0.105454 -0.0387294 0)
  (0.072997 -0.0430007 0)
  (0.0690765 -0.0394593 0)
  (0.0712433 -0.0317091 0)
  (0.0727865 -0.0226023 0)
  (0.0736383 -0.0149592 0)
  (0.0719344 -0.0121725 0)
  (0.0678895 -0.00869891 0)
  (0.065088 -0.00681637 0)
  (0.0638173 -0.00574434 0)
  (0.0632583 -0.00506505 0)
  (0.0629824 -0.0045914 0)
  (0.0630222 -0.0041323 0)
  (0.063851 -0.00332329 0)
  (0.0666807 -0.000185993 0)
  (0.0646437 0.0170413 0)
  (0.051393 0.0292775 0)
  (0.0507237 0.0380201 0)
  (-0.0729736 0.0691866 0)
  (0.504558 0.330075 0)
  (-0.203032 0.141303 0)
  (-0.0738399 0.110499 0)
  (-0.101307 0.0823078 0)
  (-0.114409 0.0551394 0)
  (-0.122145 0.0248975 0)
  (-0.120676 -0.0104598 0)
  (-0.108059 -0.0482369 0)
  (-0.0887449 -0.0810539 0)
  (-0.066 -0.103772 0)
  (-0.043072 -0.114258 0)
  (-0.0216667 -0.11365 0)
  (-0.00252629 -0.103712 0)
  (0.0137265 -0.0863109 0)
  (0.0271026 -0.0642545 0)
  (0.0414217 -0.0382294 0)
  (0.0634556 -0.0114372 0)
  (0.0940322 0.000560139 0)
  (0.101559 -0.0326412 0)
  (0.0879995 -0.0381665 0)
  (0.0793936 -0.0341136 0)
  (0.0751532 -0.0279114 0)
  (0.0723574 -0.0205567 0)
  (0.0709842 -0.0120108 0)
  (0.0726755 -0.00704319 0)
  (0.0768007 -0.0055359 0)
  (0.0802052 -0.00469207 0)
  (0.0824895 -0.00404137 0)
  (0.0838644 -0.00321098 0)
  (0.0837745 -0.00194397 0)
  (0.0811752 -2.28568e-05 0)
  (0.0748294 0.00284038 0)
  (0.0619435 0.00717931 0)
  (0.0510092 0.0274362 0)
  (0.0403827 0.0442522 0)
  (0.0535841 0.0578519 0)
  (-0.103293 0.0920117 0)
  (0.626484 0.383555 0)
  (-0.243677 0.169516 0)
  (-0.0348013 0.125171 0)
  (-0.0571697 0.0924785 0)
  (-0.061916 0.0619472 0)
  (-0.0625176 0.0266868 0)
  (-0.0511026 -0.0174641 0)
  (-0.0329886 -0.0644291 0)
  (-0.0140174 -0.101671 0)
  (0.00366865 -0.125047 0)
  (0.0180078 -0.133288 0)
  (0.0292726 -0.129656 0)
  (0.0379438 -0.11712 0)
  (0.0447547 -0.0982349 0)
  (0.0508569 -0.0756545 0)
  (0.0582165 -0.0520406 0)
  (0.0694327 -0.0328557 0)
  (0.0798825 -0.0284997 0)
  (0.0814082 -0.0344395 0)
  (0.0748421 -0.033344 0)
  (0.0667919 -0.0284983 0)
  (0.0606167 -0.0230036 0)
  (0.0562425 -0.017301 0)
  (0.0538881 -0.0114184 0)
  (0.0539404 -0.00623012 0)
  (0.0560509 -0.00384361 0)
  (0.0584112 -0.00298396 0)
  (0.060701 -0.00226838 0)
  (0.0628234 -0.000757648 0)
  (0.0644003 0.00209313 0)
  (0.0642721 0.00640534 0)
  (0.0618554 0.0123473 0)
  (0.0564552 0.0205724 0)
  (0.0499122 0.0359804 0)
  (0.0409501 0.0544962 0)
  (0.06185 0.0749938 0)
  (-0.0168994 0.104241 0)
  (0.0454522 0.0341475 0)
  (-0.0611636 -0.0343307 0)
  (-0.268829 -0.0566125 0)
  (0.714208 0.428052 0)
  (-0.282934 0.188283 0)
  (-0.00569569 0.120013 0)
  (-0.0116412 0.0915643 0)
  (-0.00479003 0.0618713 0)
  (0.00574609 0.0196503 0)
  (0.0350046 -0.0351682 0)
  (0.0560582 -0.0831114 0)
  (0.070764 -0.117028 0)
  (0.0791375 -0.135716 0)
  (0.0819944 -0.140437 0)
  (0.0808613 -0.133958 0)
  (0.077108 -0.119308 0)
  (0.0721544 -0.0994762 0)
  (0.0674813 -0.0773405 0)
  (0.0644415 -0.0555803 0)
  (0.0639114 -0.0379261 0)
  (0.0634716 -0.0289756 0)
  (0.0594385 -0.0267795 0)
  (0.051823 -0.0247353 0)
  (0.0435764 -0.0212148 0)
  (0.0369556 -0.017299 0)
  (0.0323907 -0.0134614 0)
  (0.0300562 -0.00977659 0)
  (0.0299397 -0.00690548 0)
  (0.031576 -0.00594243 0)
  (0.034033 -0.00591466 0)
  (0.0369666 -0.0056285 0)
  (0.0402146 -0.00411818 0)
  (0.0435678 -0.000532431 0)
  (0.0465153 0.00539999 0)
  (0.0480638 0.0133801 0)
  (0.048416 0.0236263 0)
  (0.048975 0.0379117 0)
  (0.0483222 0.0558383 0)
  (0.0702602 0.0786631 0)
  (0.0522868 0.097229 0)
  (0.0914464 0.0683003 0)
  (0.114435 0.0445993 0)
  (-0.12807 -0.00727085 0)
  (0.767323 0.468623 0)
  (-0.301499 0.173615 0)
  (0.0221689 0.0677715 0)
  (0.0498425 0.0626435 0)
  (0.0707903 0.0431708 0)
  (0.104746 -0.0053394 0)
  (0.136224 -0.0588611 0)
  (0.15425 -0.0994409 0)
  (0.159963 -0.124694 0)
  (0.155472 -0.135708 0)
  (0.143443 -0.134665 0)
  (0.126749 -0.124424 0)
  (0.107934 -0.107894 0)
  (0.0891512 -0.0879841 0)
  (0.0721474 -0.0672511 0)
  (0.058009 -0.0477373 0)
  (0.0472321 -0.0321062 0)
  (0.038667 -0.0227291 0)
  (0.0303174 -0.0185779 0)
  (0.0218207 -0.016316 0)
  (0.0141792 -0.0141029 0)
  (0.00835658 -0.0120003 0)
  (0.00455484 -0.0101776 0)
  (0.0027786 -0.0086649 0)
  (0.0028748 -0.00783728 0)
  (0.00434895 -0.00809477 0)
  (0.0065853 -0.00880812 0)
  (0.00936485 -0.00911914 0)
  (0.0127372 -0.00817382 0)
  (0.0168332 -0.00497354 0)
  (0.022585 0.00144928 0)
  (0.0282756 0.0101786 0)
  (0.0337148 0.0205129 0)
  (0.0407094 0.0331179 0)
  (0.0485431 0.0477493 0)
  (0.0703015 0.0661282 0)
  (0.0839445 0.0744901 0)
  (0.115806 0.0525039 0)
  (0.155317 0.0440031 0)
  (-0.0361875 0.0925398 0)
  (0.872189 0.46984 0)
  (-0.0638914 0.152175 0)
  (0.110267 -0.0140619 0)
  (0.182255 -0.0420771 0)
  (0.21418 -0.0541419 0)
  (0.2455 -0.0765762 0)
  (0.262801 -0.0985525 0)
  (0.263076 -0.114013 0)
  (0.247999 -0.121076 0)
  (0.221685 -0.119865 0)
  (0.188649 -0.111636 0)
  (0.152919 -0.0981934 0)
  (0.117643 -0.0813174 0)
  (0.0851942 -0.0631835 0)
  (0.0571705 -0.0456756 0)
  (0.0341576 -0.0299685 0)
  (0.0169673 -0.0182402 0)
  (0.00460893 -0.0117686 0)
  (-0.00484012 -0.00931506 0)
  (-0.0120897 -0.00861762 0)
  (-0.0178654 -0.00824156 0)
  (-0.0220946 -0.00803088 0)
  (-0.0248715 -0.00801527 0)
  (-0.0263298 -0.00824093 0)
  (-0.0266894 -0.00886634 0)
  (-0.026355 -0.00996046 0)
  (-0.0257159 -0.0112118 0)
  (-0.0248817 -0.0121677 0)
  (-0.0236955 -0.0123313 0)
  (-0.0217626 -0.0111154 0)
  (-0.0181104 -0.00777606 0)
  (-0.00950087 -0.00162954 0)
  (-0.00125831 0.0063252 0)
  (0.00925413 0.0144557 0)
  (0.0209301 0.0214949 0)
  (0.0406716 0.0288064 0)
  (0.0596955 0.0223871 0)
  (0.079711 -0.00467907 0)
  (0.138408 0.0391181 0)
  (-0.404809 0.202425 0)
  (1.01926 0.422856 0)
  (0.484834 0.279435 0)
  (0.499746 0.182686 0)
  (0.526667 0.111036 0)
  (0.507674 0.0592495 0)
  (0.465344 0.0119647 0)
  (0.416239 -0.0270642 0)
  (0.362346 -0.0535045 0)
  (0.303993 -0.066753 0)
  (0.244118 -0.0689455 0)
  (0.186191 -0.0634891 0)
  (0.132793 -0.0534918 0)
  (0.0855473 -0.0408609 0)
  (0.0459344 -0.0277862 0)
  (0.0140316 -0.0160437 0)
  (-0.0112545 -0.00669467 0)
  (-0.0258699 -0.00265127 0)
  (-0.0349087 -0.00172248 0)
  (-0.0409788 -0.00228206 0)
  (-0.0457167 -0.00329467 0)
  (-0.0496162 -0.00430827 0)
  (-0.052805 -0.00529898 0)
  (-0.0553795 -0.00629448 0)
  (-0.0574877 -0.00733226 0)
  (-0.0593638 -0.00846243 0)
  (-0.0613592 -0.00966544 0)
  (-0.0638309 -0.0107374 0)
  (-0.0670769 -0.0113115 0)
  (-0.0714139 -0.0108591 0)
  (-0.0772679 -0.00867715 0)
  (-0.0851831 -0.00394287 0)
  (-0.0951015 0.00389007 0)
  (-0.105226 0.0143153 0)
  (-0.120011 0.0275675 0)
  (-0.14319 0.0437823 0)
  (-0.177273 0.0619026 0)
  (-0.225605 0.0780797 0)
  (-0.281233 0.0897546 0)
  (-0.349201 0.0968635 0)
  (-0.608785 0.0999418 0)
  (-0.149497 0.00128872 0)
  (0.120643 0.000137578 0)
  (0.198748 -0.0334452 0)
  (0.186008 -0.042783 0)
  (0.169846 -0.0402831 0)
  (0.147642 -0.035009 0)
  (0.118113 -0.0285231 0)
  (0.0843761 -0.0209632 0)
  (0.0497808 -0.01279 0)
  (0.0148569 -0.00462439 0)
  (-0.0180567 0.00272364 0)
  (-0.0400745 0.00687613 0)
  (-0.0551851 0.00910382 0)
  (-0.0641258 0.00949559 0)
  (-0.069102 0.00860971 0)
  (-0.0725801 0.00766396 0)
  (-0.0753519 0.0069116 0)
  (-0.0778178 0.00635478 0)
  (-0.0802941 0.00590603 0)
  (-0.0829066 0.00529134 0)
  (-0.0856284 0.0045684 0)
  (-0.0885343 0.00375276 0)
  (-0.0917462 0.00289777 0)
  (-0.0954104 0.00212921 0)
  (-0.0996135 0.00168295 0)
  (-0.104352 0.00187426 0)
  (-0.109557 0.00303417 0)
  (-0.11505 0.0054633 0)
  (-0.120209 0.00970076 0)
  (-0.124324 0.0166483 0)
  (-0.12774 0.0274201 0)
  (-0.130666 0.0424037 0)
  (-0.133758 0.0607994 0)
  (-0.137449 0.0792086 0)
  (-0.1387 0.0881368 0)
  (-0.121261 0.0671176 0)
  (-0.0783743 -0.0229249 0)
  (-0.273783 -0.198116 0)
  (0.0172512 0.194116 0)
  (0.0409447 0.0696586 0)
  (0.000376885 0.00538962 0)
  (-0.0133569 -0.00265921 0)
  (-0.0273251 -0.000450286 0)
  (-0.0425831 9.88736e-05 0)
  (-0.0589113 0.00137023 0)
  (-0.0742097 0.00369165 0)
  (-0.0859858 0.00574192 0)
  (-0.092461 0.00595884 0)
  (-0.0965748 0.00390414 0)
  (-0.0982052 -0.000137388 0)
  (-0.0983756 -0.00467351 0)
  (-0.0977381 -0.00954531 0)
  (-0.097202 -0.0147534 0)
  (-0.0972795 -0.0198305 0)
  (-0.0979913 -0.0245002 0)
  (-0.0992353 -0.0285109 0)
  (-0.100881 -0.0316765 0)
  (-0.102847 -0.0338867 0)
  (-0.105197 -0.0352903 0)
  (-0.107847 -0.0358471 0)
  (-0.1107 -0.0354986 0)
  (-0.113657 -0.034348 0)
  (-0.116595 -0.0324807 0)
  (-0.119278 -0.029672 0)
  (-0.121334 -0.025503 0)
  (-0.122302 -0.0193981 0)
  (-0.121755 -0.0114263 0)
  (-0.118813 -0.00128152 0)
  (-0.112115 0.0117518 0)
  (-0.100382 0.028314 0)
  (-0.0831663 0.0479176 0)
  (-0.0612149 0.0666515 0)
  (-0.0373985 0.0775919 0)
  (0.00243056 0.0616849 0)
  (0.142886 -0.00846801 0)
  (-0.204776 -0.108209 0)
  (-0.0425565 -0.319487 0)
  (-0.41293 -0.123312 0)
  (-0.301045 0.0639168 0)
  (-0.250548 -0.0170636 0)
  (-0.210938 -0.0220771 0)
  (-0.200002 -0.0109963 0)
  (-0.195634 -0.00132649 0)
  (-0.192108 0.00667092 0)
  (-0.187433 0.0141792 0)
  (-0.180752 0.0216545 0)
  (-0.17193 0.0291643 0)
  (-0.161354 0.0365965 0)
  (-0.150191 0.0437949 0)
  (-0.139581 0.0507726 0)
  (-0.130287 0.0577919 0)
  (-0.122561 0.0648147 0)
  (-0.116429 0.0717973 0)
  (-0.111715 0.0785176 0)
  (-0.108176 0.0845712 0)
  (-0.105606 0.0895796 0)
  (-0.103825 0.0932911 0)
  (-0.102676 0.0955827 0)
  (-0.102073 0.0965194 0)
  (-0.101979 0.0960484 0)
  (-0.102354 0.0941218 0)
  (-0.103127 0.0910072 0)
  (-0.104169 0.0870761 0)
  (-0.105268 0.0824247 0)
  (-0.106046 0.0771009 0)
  (-0.105825 0.0712586 0)
  (-0.103355 0.0661299 0)
  (-0.0968098 0.0626317 0)
  (-0.0838265 0.0616596 0)
  (-0.0626098 0.0641862 0)
  (-0.0336017 0.0707496 0)
  (0.0119601 0.0804019 0)
  (0.0548799 0.0813472 0)
  (0.0955798 0.0686999 0)
  (0.160848 0.0432056 0)
  (-0.232882 -0.00659287 0)
)
;

boundaryField
{
  floor
  {
    type noSlip;
  }
  ceiling
  {
    type noSlip;
  }
  sWall
  {
    type noSlip;
  }
  nWall
  {
    type noSlip;
  }
  sideWalls
  {
    type empty;
  }
  glass1
  {
    type noSlip;
  }
  glass2
  {
    type noSlip;
  }
  sun
  {
    type noSlip;
  }
  heatsource1
  {
    type noSlip;
  }
  heatsource2
  {
    type noSlip;
  }
  Table_master
  {
    type noSlip;
  }
  Table_slave
  {
    type noSlip;
  }
  inlet
  {
    type fixedValue;
    value uniform (0.277164 -0.114805 0);
  }
  outlet
  {
    type zeroGradient;
  }
} 	// ************************************************************************* //

