// -*- C++ -*-
// File generated by PyFoam - sorry for the ugliness

FoamFile
{
 version 2.0;
 format ascii;
 class volVectorField;
 location "1500";
 object U;
}

dimensions [ 0 1 -1 0 0 0 0 ];

internalField nonuniform List<vector> 459
(
  (0.0326411 0.0855284 0)
  (-0.166275 0.0257644 0)
  (-0.191016 0.0178456 0)
  (-0.22162 0.0122675 0)
  (-0.243844 0.00617915 0)
  (-0.256827 -0.00020384 0)
  (-0.259212 -0.00693143 0)
  (-0.249858 -0.0140009 0)
  (-0.229475 -0.0208928 0)
  (-0.199619 -0.026542 0)
  (-0.163364 -0.0301101 0)
  (-0.124194 -0.0313456 0)
  (-0.0853893 -0.0307626 0)
  (-0.0516494 -0.0299755 0)
  (-0.03641 -0.0307293 0)
  (-0.00320949 0.00755129 0)
  (-0.0228273 -0.0173605 0)
  (0.000682922 -0.0262307 0)
  (0.0217794 -0.019551 0)
  (0.0375244 -0.0131832 0)
  (0.049269 -0.0084419 0)
  (0.0562649 -0.00505362 0)
  (0.0597838 -0.0032812 0)
  (0.0613938 -0.00251944 0)
  (0.0622413 -0.00215403 0)
  (0.0627812 -0.0019178 0)
  (0.0630733 -0.00172436 0)
  (0.0630514 -0.00148692 0)
  (0.0625066 -0.00103237 0)
  (0.0608705 2.1873e-05 0)
  (0.0569382 0.00221823 0)
  (0.0493845 0.00461831 0)
  (0.0414673 0.00675385 0)
  (-0.010037 0.0204252 0)
  (0.204678 0.174714 0)
  (-0.154304 0.0674104 0)
  (-0.152866 0.0522276 0)
  (-0.184107 0.0406064 0)
  (-0.205819 0.0276039 0)
  (-0.218784 0.0132091 0)
  (-0.221613 -0.00281656 0)
  (-0.21299 -0.01996 0)
  (-0.19416 -0.0360298 0)
  (-0.167054 -0.048514 0)
  (-0.134952 -0.0556646 0)
  (-0.10128 -0.0570927 0)
  (-0.0692385 -0.053501 0)
  (-0.0424984 -0.0464766 0)
  (-0.0255272 -0.03726 0)
  (-0.0121233 -0.0180606 0)
  (-0.00694056 0.0142271 0)
  (0.0591532 0.0317091 0)
  (0.0309517 -0.0198202 0)
  (0.0381672 -0.0307051 0)
  (0.0489775 -0.0261502 0)
  (0.0574765 -0.018097 0)
  (0.063159 -0.0106969 0)
  (0.0654272 -0.00444537 0)
  (0.065768 -0.000969595 0)
  (0.0656859 0.000512618 0)
  (0.0657704 0.0011976 0)
  (0.0659379 0.00162806 0)
  (0.0660579 0.00200118 0)
  (0.0660889 0.00248784 0)
  (0.0659769 0.00342426 0)
  (0.0651908 0.00571633 0)
  (0.0613133 0.0120286 0)
  (0.0515638 0.0174429 0)
  (0.04512 0.0214011 0)
  (-0.0434091 0.0440776 0)
  (0.362313 0.261035 0)
  (-0.169775 0.106826 0)
  (-0.11418 0.0840136 0)
  (-0.143943 0.0633946 0)
  (-0.162842 0.0420745 0)
  (-0.17445 0.0187931 0)
  (-0.176512 -0.00718127 0)
  (-0.166965 -0.0345394 0)
  (-0.148165 -0.0593683 0)
  (-0.122786 -0.0776458 0)
  (-0.0943735 -0.0870633 0)
  (-0.0658343 -0.0876605 0)
  (-0.0394118 -0.0806294 0)
  (-0.0172892 -0.0676008 0)
  (-0.00110677 -0.0494969 0)
  (0.0110148 -0.0240354 0)
  (0.017552 0.0104555 0)
  (0.105459 -0.0380524 0)
  (0.0730667 -0.0427207 0)
  (0.0691196 -0.0394219 0)
  (0.0712526 -0.0318001 0)
  (0.072782 -0.0227533 0)
  (0.0736539 -0.0151478 0)
  (0.0719631 -0.0123127 0)
  (0.0678688 -0.00878705 0)
  (0.0650221 -0.00687508 0)
  (0.0637268 -0.00578574 0)
  (0.0631534 -0.00509487 0)
  (0.0628658 -0.00461342 0)
  (0.0628944 -0.00415035 0)
  (0.0637117 -0.0033394 0)
  (0.0665263 -0.000201679 0)
  (0.0644932 0.016999 0)
  (0.0512774 0.0292238 0)
  (0.0506114 0.0379952 0)
  (-0.0728549 0.0691709 0)
  (0.504199 0.330248 0)
  (-0.20289 0.141523 0)
  (-0.0739092 0.110598 0)
  (-0.101363 0.0822611 0)
  (-0.114456 0.0548926 0)
  (-0.12209 0.0243916 0)
  (-0.120317 -0.0112444 0)
  (-0.107421 -0.0491714 0)
  (-0.0879221 -0.0818939 0)
  (-0.0650816 -0.104357 0)
  (-0.0421745 -0.114498 0)
  (-0.0208223 -0.113573 0)
  (-0.00173128 -0.103322 0)
  (0.014404 -0.0857369 0)
  (0.0277437 -0.0635451 0)
  (0.0420345 -0.0374859 0)
  (0.0639899 -0.0105268 0)
  (0.0945685 0.00118218 0)
  (0.10196 -0.0322012 0)
  (0.0883986 -0.0379607 0)
  (0.0797443 -0.03408 0)
  (0.075421 -0.0279761 0)
  (0.0725343 -0.020674 0)
  (0.0710578 -0.0121581 0)
  (0.0726696 -0.00711682 0)
  (0.0767673 -0.00556108 0)
  (0.0801371 -0.00469252 0)
  (0.0823715 -0.00403163 0)
  (0.0836998 -0.00320056 0)
  (0.0835773 -0.00193864 0)
  (0.0809715 -2.65086e-05 0)
  (0.0746412 0.0028279 0)
  (0.06179 0.00715882 0)
  (0.050883 0.0273732 0)
  (0.0402864 0.0441641 0)
  (0.0534703 0.057775 0)
  (-0.103089 0.0919602 0)
  (0.626136 0.38374 0)
  (-0.243486 0.169734 0)
  (-0.0348365 0.125283 0)
  (-0.0571596 0.0924333 0)
  (-0.0619061 0.0616563 0)
  (-0.0623781 0.0260167 0)
  (-0.0504705 -0.0185731 0)
  (-0.0321458 -0.0656282 0)
  (-0.0131236 -0.102629 0)
  (0.00455474 -0.12564 0)
  (0.0187592 -0.133439 0)
  (0.0299329 -0.12948 0)
  (0.0385199 -0.116676 0)
  (0.0452697 -0.0976041 0)
  (0.0513476 -0.0749144 0)
  (0.0587106 -0.0512815 0)
  (0.0699597 -0.0321763 0)
  (0.080387 -0.0280614 0)
  (0.0818624 -0.0340979 0)
  (0.0752776 -0.0331228 0)
  (0.0671878 -0.0283921 0)
  (0.0609389 -0.0229755 0)
  (0.0564702 -0.0173118 0)
  (0.0540079 -0.0114303 0)
  (0.0539644 -0.00618116 0)
  (0.0559968 -0.00375461 0)
  (0.0582834 -0.00288427 0)
  (0.0605022 -0.00217818 0)
  (0.0625676 -0.000691844 0)
  (0.0641095 0.00212113 0)
  (0.0639813 0.00639397 0)
  (0.0615951 0.0123059 0)
  (0.0562475 0.0205119 0)
  (0.0497633 0.0358876 0)
  (0.0408722 0.0543612 0)
  (0.0617748 0.0748296 0)
  (-0.0166984 0.104051 0)
  (0.0457858 0.034589 0)
  (-0.0606922 -0.0340105 0)
  (-0.268652 -0.056319 0)
  (0.713913 0.42823 0)
  (-0.282732 0.188473 0)
  (-0.00568792 0.120116 0)
  (-0.0115384 0.0915115 0)
  (-0.00466087 0.0615143 0)
  (0.00616266 0.0186739 0)
  (0.0360129 -0.0366588 0)
  (0.0570495 -0.0843996 0)
  (0.0716355 -0.11791 0)
  (0.0798474 -0.136163 0)
  (0.0825409 -0.140481 0)
  (0.0812752 -0.133677 0)
  (0.0774208 -0.118787 0)
  (0.07241 -0.0988052 0)
  (0.0677272 -0.0765981 0)
  (0.0647155 -0.0548383 0)
  (0.0642367 -0.0372594 0)
  (0.0638259 -0.0284677 0)
  (0.0598002 -0.0263988 0)
  (0.0521847 -0.0244721 0)
  (0.0439126 -0.0210488 0)
  (0.0372309 -0.0171911 0)
  (0.0325772 -0.0133738 0)
  (0.0301375 -0.0096789 0)
  (0.0299194 -0.0067702 0)
  (0.0314679 -0.00577977 0)
  (0.0338487 -0.00574871 0)
  (0.0367163 -0.00548244 0)
  (0.0399122 -0.00401435 0)
  (0.043238 -0.000492594 0)
  (0.0461833 0.00536778 0)
  (0.0477695 0.0132923 0)
  (0.0481831 0.0235042 0)
  (0.0488076 0.0377603 0)
  (0.0482342 0.0556418 0)
  (0.0701538 0.0784099 0)
  (0.0523722 0.0968993 0)
  (0.0915202 0.0681865 0)
  (0.114341 0.0446008 0)
  (-0.127444 -0.00685722 0)
  (0.767189 0.468788 0)
  (-0.301296 0.173756 0)
  (0.0222939 0.0677776 0)
  (0.0501336 0.062378 0)
  (0.0713274 0.0424414 0)
  (0.106302 -0.00695072 0)
  (0.137548 -0.0603913 0)
  (0.155293 -0.100576 0)
  (0.160701 -0.125362 0)
  (0.155923 -0.13594 0)
  (0.143654 -0.134529 0)
  (0.126784 -0.124002 0)
  (0.107859 -0.107285 0)
  (0.0890322 -0.0872831 0)
  (0.0720476 -0.0665291 0)
  (0.0579736 -0.0470458 0)
  (0.0472889 -0.031503 0)
  (0.0388095 -0.0222604 0)
  (0.0305259 -0.0182301 0)
  (0.0220612 -0.016059 0)
  (0.0144103 -0.0139032 0)
  (0.00853807 -0.011824 0)
  (0.00466077 -0.00999999 0)
  (0.00279959 -0.00847027 0)
  (0.00281721 -0.00761623 0)
  (0.0042269 -0.00785718 0)
  (0.00641026 -0.00857553 0)
  (0.00914412 -0.00891536 0)
  (0.012476 -0.0080252 0)
  (0.016539 -0.00491159 0)
  (0.0222529 0.00139484 0)
  (0.0279633 0.0100375 0)
  (0.0334511 0.0203227 0)
  (0.0404974 0.0328949 0)
  (0.0483889 0.0474838 0)
  (0.0701262 0.0657985 0)
  (0.083859 0.0740982 0)
  (0.115723 0.0522587 0)
  (0.155133 0.0440107 0)
  (-0.0358524 0.092583 0)
  (0.872103 0.469911 0)
  (-0.06356 0.152265 0)
  (0.110525 -0.0142818 0)
  (0.182734 -0.0430506 0)
  (0.215893 -0.0554857 0)
  (0.247099 -0.0778524 0)
  (0.26397 -0.0995532 0)
  (0.263764 -0.114645 0)
  (0.248247 -0.121322 0)
  (0.221575 -0.119773 0)
  (0.188279 -0.111277 0)
  (0.152384 -0.0976255 0)
  (0.117037 -0.0806377 0)
  (0.0845984 -0.062482 0)
  (0.0566577 -0.0450111 0)
  (0.0337698 -0.0293738 0)
  (0.0167552 -0.0177627 0)
  (0.00455382 -0.0114121 0)
  (-0.0047798 -0.00903963 0)
  (-0.0119863 -0.00838147 0)
  (-0.0177602 -0.00801772 0)
  (-0.0220157 -0.00780096 0)
  (-0.0248321 -0.00777122 0)
  (-0.0263295 -0.00797928 0)
  (-0.0267193 -0.00858868 0)
  (-0.0264043 -0.00967663 0)
  (-0.0257782 -0.0109384 0)
  (-0.024956 -0.0119228 0)
  (-0.0237861 -0.0121343 0)
  (-0.0218778 -0.0109883 0)
  (-0.0182707 -0.007743 0)
  (-0.00982929 -0.00172217 0)
  (-0.00159723 0.00611991 0)
  (0.00891919 0.0142348 0)
  (0.0205843 0.0212454 0)
  (0.0402592 0.0285009 0)
  (0.0592218 0.0220437 0)
  (0.079167 -0.00479882 0)
  (0.137699 0.0393114 0)
  (-0.404436 0.202377 0)
  (1.01926 0.422829 0)
  (0.48481 0.2794 0)
  (0.499779 0.182444 0)
  (0.527124 0.110434 0)
  (0.508108 0.0581888 0)
  (0.465366 0.010762 0)
  (0.415916 -0.0280431 0)
  (0.361693 -0.0540753 0)
  (0.303063 -0.0668906 0)
  (0.242992 -0.0687391 0)
  (0.184946 -0.0630515 0)
  (0.131507 -0.0528854 0)
  (0.0843493 -0.040195 0)
  (0.0448771 -0.0271533 0)
  (0.0131725 -0.0155052 0)
  (-0.0119259 -0.00628243 0)
  (-0.0262209 -0.0023893 0)
  (-0.0350999 -0.00151861 0)
  (-0.0410553 -0.00209406 0)
  (-0.0457398 -0.00309841 0)
  (-0.0496088 -0.00409721 0)
  (-0.0527802 -0.00506966 0)
  (-0.0553438 -0.0060486 0)
  (-0.0574359 -0.00707201 0)
  (-0.0592865 -0.00819278 0)
  (-0.061248 -0.00939322 0)
  (-0.0636837 -0.0104756 0)
  (-0.066894 -0.0110757 0)
  (-0.0711974 -0.0106683 0)
  (-0.0770185 -0.00855491 0)
  (-0.0849053 -0.00391044 0)
  (-0.0948222 0.00382057 0)
  (-0.105043 0.0141711 0)
  (-0.119852 0.0273743 0)
  (-0.143031 0.0435539 0)
  (-0.177095 0.061654 0)
  (-0.225368 0.0778434 0)
  (-0.280879 0.08956 0)
  (-0.348773 0.0967178 0)
  (-0.608173 0.0998524 0)
  (-0.148208 0.000713182 0)
  (0.119984 -0.00132324 0)
  (0.197122 -0.0351725 0)
  (0.184639 -0.043807 0)
  (0.168389 -0.0407298 0)
  (0.146045 -0.035017 0)
  (0.11641 -0.0282005 0)
  (0.0826428 -0.0204119 0)
  (0.0478909 -0.0121115 0)
  (0.0128969 -0.00394351 0)
  (-0.0194229 0.0031724 0)
  (-0.0410981 0.00719664 0)
  (-0.0558856 0.00933173 0)
  (-0.0645559 0.00964686 0)
  (-0.069414 0.00874537 0)
  (-0.0728227 0.0078195 0)
  (-0.0755513 0.00709565 0)
  (-0.0779573 0.00655858 0)
  (-0.0803675 0.00612613 0)
  (-0.0829008 0.0055393 0)
  (-0.0855539 0.00481726 0)
  (-0.0883885 0.00399411 0)
  (-0.0915226 0.00312417 0)
  (-0.0951058 0.00233576 0)
  (-0.0992346 0.00185592 0)
  (-0.103909 0.00200222 0)
  (-0.109065 0.00310945 0)
  (-0.114528 0.00547947 0)
  (-0.119674 0.00966954 0)
  (-0.123817 0.0165635 0)
  (-0.127279 0.0272711 0)
  (-0.130255 0.0421952 0)
  (-0.133393 0.0605407 0)
  (-0.137119 0.0789153 0)
  (-0.138399 0.087862 0)
  (-0.121013 0.0669772 0)
  (-0.0782162 -0.0227709 0)
  (-0.273214 -0.197863 0)
  (0.0187919 0.193734 0)
  (0.0406186 0.0690676 0)
  (0.000330874 0.00492006 0)
  (-0.0140772 -0.00309431 0)
  (-0.0286394 -0.000666051 0)
  (-0.0442376 0.000123647 0)
  (-0.0606375 0.00157098 0)
  (-0.0757543 0.00396595 0)
  (-0.0870801 0.00593857 0)
  (-0.0933783 0.00601914 0)
  (-0.0973035 0.0038152 0)
  (-0.098807 -0.000278683 0)
  (-0.0988806 -0.0048452 0)
  (-0.098182 -0.0097449 0)
  (-0.0976136 -0.0149699 0)
  (-0.0976554 -0.0200443 0)
  (-0.0983196 -0.0246923 0)
  (-0.0995039 -0.0286658 0)
  (-0.101083 -0.0317865 0)
  (-0.102972 -0.0339616 0)
  (-0.105225 -0.0353167 0)
  (-0.107783 -0.03585 0)
  (-0.110553 -0.0355123 0)
  (-0.113428 -0.0343221 0)
  (-0.116285 -0.0324199 0)
  (-0.118895 -0.0295822 0)
  (-0.120891 -0.0253896 0)
  (-0.121825 -0.0193165 0)
  (-0.121269 -0.0113985 0)
  (-0.118338 -0.00131129 0)
  (-0.111675 0.0116596 0)
  (-0.100003 0.0281581 0)
  (-0.0828625 0.0476989 0)
  (-0.0609832 0.066376 0)
  (-0.0372253 0.0772918 0)
  (0.00254646 0.0614643 0)
  (0.142469 -0.00855153 0)
  (-0.204375 -0.108039 0)
  (-0.0421051 -0.319298 0)
  (-0.41282 -0.123423 0)
  (-0.300986 0.063545 0)
  (-0.251287 -0.0169618 0)
  (-0.211854 -0.0216709 0)
  (-0.201218 -0.010528 0)
  (-0.196948 -0.000854642 0)
  (-0.193382 0.00713808 0)
  (-0.188573 0.014645 0)
  (-0.181705 0.022127 0)
  (-0.172676 0.0296395 0)
  (-0.161949 0.0370644 0)
  (-0.150703 0.044263 0)
  (-0.140067 0.0512845 0)
  (-0.130767 0.0583655 0)
  (-0.123035 0.0654567 0)
  (-0.116889 0.0724965 0)
  (-0.112148 0.0792415 0)
  (-0.108572 0.0852814 0)
  (-0.105957 0.0902471 0)
  (-0.104123 0.0939036 0)
  (-0.102918 0.0961464 0)
  (-0.10225 0.0970378 0)
  (-0.10208 0.0965577 0)
  (-0.102373 0.094665 0)
  (-0.103065 0.0915009 0)
  (-0.104024 0.0875169 0)
  (-0.105045 0.0828053 0)
  (-0.105751 0.077412 0)
  (-0.105464 0.0715608 0)
  (-0.102952 0.0664174 0)
  (-0.0963999 0.0628871 0)
  (-0.0834495 0.0618681 0)
  (-0.0623065 0.0643366 0)
  (-0.0334066 0.0708334 0)
  (0.0120142 0.0804012 0)
  (0.0547874 0.0813477 0)
  (0.0953742 0.0688117 0)
  (0.160533 0.0434388 0)
  (-0.232471 -0.00621882 0)
)
;

boundaryField
{
  floor
  {
    type noSlip;
  }
  ceiling
  {
    type noSlip;
  }
  sWall
  {
    type noSlip;
  }
  nWall
  {
    type noSlip;
  }
  sideWalls
  {
    type empty;
  }
  glass1
  {
    type noSlip;
  }
  glass2
  {
    type noSlip;
  }
  sun
  {
    type noSlip;
  }
  heatsource1
  {
    type noSlip;
  }
  heatsource2
  {
    type noSlip;
  }
  Table_master
  {
    type noSlip;
  }
  Table_slave
  {
    type noSlip;
  }
  inlet
  {
    type fixedValue;
    value uniform (0.277164 -0.114805 0);
  }
  outlet
  {
    type zeroGradient;
  }
} 	// ************************************************************************* //

