/*--------------------------------*- C++ -*----------------------------------*\
  =========                 |
  \\      /  F ield         | OpenFOAM: The Open Source CFD Toolbox
   \\    /   O peration     | Website:  https://openfoam.org
    \\  /    A nd           | Version:  6
     \\/     M anipulation  |
\*---------------------------------------------------------------------------*/
FoamFile
{
    version     2.0;
    format      ascii;
    class       volScalarField;
    location    "300";
    object      alphat;
}
// * * * * * * * * * * * * * * * * * * * * * * * * * * * * * * * * * * * * * //

dimensions      [1 -1 -1 0 0 0 0];

internalField   nonuniform List<scalar> 
459
(
0.000839255
0.000862729
0.000793011
0.000822759
0.000854837
0.00088506
0.000913517
0.000940943
0.000968438
0.000996721
0.00102055
0.00103856
0.00104978
0.00105372
0.00104614
0.000421753
0.000464624
0.000480115
0.000387605
0.000291136
0.000263079
0.000252887
0.000254853
0.000273189
0.000301903
0.000335391
0.000369722
0.000401554
0.000426452
0.000461155
0.000501176
0.000526516
0.000522947
0.000465406
0.00143056
0.00248106
0.001796
0.00236004
0.00256902
0.00278243
0.00300343
0.00321321
0.00338516
0.00349647
0.00354972
0.00350786
0.00331028
0.00285994
0.00206335
0.00112518
0.000761553
0.000582936
0.00123725
0.00142195
0.00139007
0.00110792
0.000610538
0.000352059
0.000377626
0.000512109
0.000722869
0.000960899
0.00119953
0.00143147
0.00161334
0.00177998
0.0019347
0.00182007
0.00179006
0.000591127
0.00195398
0.00412829
0.00189276
0.00334077
0.00381928
0.00406041
0.00426752
0.00444412
0.00458193
0.00466972
0.00471074
0.00466163
0.00445446
0.00399119
0.00319181
0.00215688
0.00119706
0.000982479
0.00264925
0.00241534
0.00205936
0.0015807
0.00110921
0.000358661
0.00036828
0.000412805
0.00045785
0.000504848
0.000555706
0.000613389
0.000683358
0.000773247
0.00181964
0.00163378
0.0013105
0.000778082
0.00244843
0.00619199
0.0021346
0.00351233
0.00446889
0.00472168
0.00488552
0.0050249
0.00514686
0.00524739
0.00534754
0.005431
0.00543544
0.00524135
0.00467335
0.00360168
0.00222847
0.00128344
0.00309438
0.00326375
0.00292788
0.00236661
0.00179648
0.00124361
0.000800276
0.000797012
0.000796037
0.000795389
0.000796159
0.000801142
0.000814913
0.00084584
0.000924142
0.00264405
0.00327923
0.0033067
0.001148
0.00290461
0.00840574
0.00283169
0.0031784
0.00462526
0.00493043
0.00504308
0.00512719
0.00521117
0.00530762
0.00546904
0.00572885
0.00606867
0.00643505
0.00673156
0.0068404
0.00668365
0.0062859
0.0060994
0.00571869
0.00527167
0.00486874
0.00454042
0.00426596
0.00404059
0.00390261
0.00376439
0.00363117
0.00352594
0.00347773
0.00350574
0.00361163
0.00378473
0.00401122
0.00414989
0.00409387
0.00353517
0.00156037
0.00139484
0.00122226
0.00332838
0.0103543
0.00419698
0.00285058
0.00425726
0.00474873
0.00488639
0.00493142
0.00494046
0.00495103
0.00508493
0.00536851
0.00580625
0.00638126
0.00701419
0.00755957
0.00784993
0.00780217
0.00751507
0.00712568
0.00674177
0.00641025
0.0061264
0.0058659
0.00559847
0.00530834
0.00499462
0.00467903
0.00440354
0.00421678
0.00414407
0.00417037
0.00424733
0.00431298
0.00433314
0.00426271
0.003954
0.00321331
0.00244591
0.00127838
0.00372521
0.0117412
0.00662832
0.00340079
0.00323149
0.00392045
0.00442884
0.00468407
0.00471941
0.00460281
0.00464262
0.00480569
0.00511845
0.00561717
0.00627953
0.00697847
0.00752146
0.00777641
0.00774673
0.00756447
0.00734506
0.00714468
0.00696834
0.00679309
0.00658246
0.00630873
0.0059632
0.00555967
0.00514231
0.00477658
0.00450785
0.00433548
0.00421923
0.0041096
0.00394473
0.00366773
0.00323244
0.00268523
0.00213062
0.00124953
0.00382088
0.0120363
0.00891129
0.00624226
0.00439165
0.00381124
0.00412581
0.00455028
0.00456702
0.00443641
0.00436956
0.00438564
0.00449431
0.00472874
0.00513539
0.00571039
0.00633233
0.00683316
0.00707627
0.00715135
0.00714709
0.00712826
0.00712434
0.00713297
0.00712736
0.00706917
0.00691895
0.00665288
0.00629103
0.00590514
0.00554634
0.00518368
0.00480349
0.00439893
0.00398634
0.00359225
0.00320626
0.00284034
0.0024995
0.0015427
0.00370568
0.00445428
0.00514988
0.00516321
0.00474912
0.00427884
0.00398392
0.00386727
0.00382897
0.00384
0.00387555
0.0039208
0.00397527
0.004056
0.00420011
0.00445297
0.00482422
0.00524981
0.00562846
0.00591914
0.00613251
0.00630473
0.00647175
0.00665691
0.0068678
0.00709568
0.00730716
0.00743427
0.00743135
0.00727127
0.00699052
0.00670838
0.00650698
0.0064386
0.00645574
0.00619317
0.00531081
0.0044885
0.00452002
0.00173826
0.00460519
0.00602094
0.00534606
0.00484399
0.00448198
0.00422939
0.00404987
0.00391314
0.00380536
0.00371654
0.00364072
0.00357885
0.00354098
0.00354713
0.00362173
0.00377816
0.0040044
0.00427143
0.00454944
0.00482242
0.00509168
0.00537118
0.00568057
0.00603852
0.0064495
0.00688037
0.00724404
0.00741223
0.00737911
0.00721998
0.00703129
0.0068808
0.00677198
0.00664324
0.00619095
0.00530071
0.00496632
0.00170024
0.00326116
0.00622949
0.00547386
0.00498691
0.0046086
0.00430285
0.00405382
0.00384534
0.00363447
0.00343451
0.00325324
0.00309558
0.00296563
0.00286838
0.00281071
0.00280078
0.00284555
0.00294808
0.00310584
0.00331106
0.00355324
0.00382263
0.00411354
0.00442638
0.00476538
0.00512405
0.00547441
0.00579907
0.00602315
0.00611397
0.00609366
0.0059985
0.00584422
0.00560174
0.00502289
0.00418889
0.00402274
0.00149038
0.00219901
0.00248932
0.00280616
0.00290876
0.00257168
0.00235085
0.00216736
0.00200719
0.00186472
0.00173682
0.0016266
0.00152798
0.0014377
0.00135408
0.00127644
0.00120479
0.00113958
0.00108144
0.00103097
0.000988572
0.000954367
0.000928222
0.000909812
0.000898682
0.000894325
0.000896282
0.000904244
0.000919072
0.000944338
0.000983417
0.00103632
0.00109771
0.00115618
0.00119854
0.00121447
0.00119819
0.00117366
0.00113889
0.00115241
0.00110622
)
;

boundaryField
{
    floor
    {
        type            compressible::alphatWallFunction;
        Prt             0.85;
        value           nonuniform List<scalar> 
29
(
0.000148762
5.70505e-05
6.37155e-05
6.61051e-05
5.16802e-05
3.61498e-05
3.15133e-05
2.98136e-05
3.01411e-05
3.31892e-05
3.79101e-05
4.33423e-05
4.88387e-05
5.38766e-05
5.77823e-05
6.31787e-05
6.93395e-05
7.32082e-05
7.26642e-05
6.38405e-05
6.38397e-05
8.29663e-05
0.000110535
0.000162948
0.000148761
5.70498e-05
8.17358e-05
0.000139767
0.000181595
)
;
    }
    ceiling
    {
        type            compressible::alphatWallFunction;
        Prt             0.85;
        value           nonuniform List<scalar> 
43
(
0.000303074
0.000340255
0.000380315
0.000393194
0.000350727
0.00032259
0.000298994
0.000278221
0.000259593
0.000242737
0.0002281
0.000214911
0.000202754
0.000191416
0.000180819
0.000170974
0.000161955
0.000153863
0.000146797
0.00014083
0.000135993
0.000132282
0.00012966
0.000128071
0.000127446
0.000127722
0.000128855
0.000130964
0.000134551
0.000140079
0.000147522
0.000156105
0.000164229
0.000170086
0.000172282
0.000170038
0.000166651
0.000161835
0.000163709
0.000157295
0.000491752
0.000582272
0.000437038
)
;
    }
    sWall
    {
        type            compressible::alphatWallFunction;
        Prt             0.85;
        value           uniform 0.000301988;
    }
    nWall
    {
        type            compressible::alphatWallFunction;
        Prt             0.85;
        value           nonuniform List<scalar> 6(0.000173005 0.000180709 0.000176756 0.000237504 0.000209478 0.000156964);
    }
    sideWalls
    {
        type            empty;
    }
    glass1
    {
        type            compressible::alphatWallFunction;
        Prt             0.85;
        value           nonuniform List<scalar> 9(0.00011604 0.000196913 0.000265565 0.000328739 0.000385929 0.000438282 0.000486721 0.000498455 0.000484706);
    }
    glass2
    {
        type            compressible::alphatWallFunction;
        Prt             0.85;
        value           nonuniform List<scalar> 2(0.000215184 0.000241103);
    }
    sun
    {
        type            compressible::alphatWallFunction;
        Prt             0.85;
        value           nonuniform List<scalar> 
14
(
0.000119437
0.000122787
0.000112747
0.000117044
0.000121656
0.000125983
0.000130041
0.000133938
0.000137831
0.000141823
0.000145176
0.000147702
0.000149274
0.000149825
)
;
    }
    heatsource1
    {
        type            compressible::alphatWallFunction;
        Prt             0.85;
        value           nonuniform List<scalar> 3(0.000219228 0.000196928 0.000173357);
    }
    heatsource2
    {
        type            compressible::alphatWallFunction;
        Prt             0.85;
        value           nonuniform List<scalar> 4(0.000159929 0.000108317 0.000108316 0.000169878);
    }
    Table_master
    {
        type            compressible::alphatWallFunction;
        Prt             0.85;
        value           nonuniform List<scalar> 9(4.72564e-05 4.879e-05 5.58299e-05 6.28533e-05 7.00879e-05 7.78221e-05 8.64886e-05 9.68681e-05 0.000110016);
    }
    Table_slave
    {
        type            compressible::alphatWallFunction;
        Prt             0.85;
        value           nonuniform List<scalar> 9(0.000113935 0.000113463 0.000113322 0.000113228 0.00011334 0.000114061 0.00011605 0.000120502 0.000131691);
    }
    inlet
    {
        type            fixedValue;
        value           uniform 1.94e-05;
    }
    outlet
    {
        type            zeroGradient;
    }
}


// ************************************************************************* //
