// -*- C++ -*-
// File generated by PyFoam - sorry for the ugliness

FoamFile
{
 version 2.0;
 format ascii;
 class volVectorField;
 location "450";
 object U;
}

dimensions [ 0 1 -1 0 0 0 0 ];

internalField nonuniform List<vector> 459
(
  (-0.0662179 -0.0238854 0)
  (0.0392995 -0.00951094 0)
  (0.0597992 -0.0329108 0)
  (0.0973139 -0.0332512 0)
  (0.133293 -0.0249305 0)
  (0.157937 -0.0167445 0)
  (0.170638 -0.0104784 0)
  (0.174614 -0.00592329 0)
  (0.172475 -0.00235719 0)
  (0.166111 0.000714962 0)
  (0.156133 0.00369359 0)
  (0.142226 0.00713904 0)
  (0.123064 0.0121881 0)
  (0.0931647 0.0226688 0)
  (0.0868778 0.051578 0)
  (-0.122909 0.00511163 0)
  (0.0362639 0.00474493 0)
  (0.000931743 -0.0106092 0)
  (0.0211392 -0.0158805 0)
  (0.0373139 -0.01315 0)
  (0.0501196 -0.0091774 0)
  (0.0584125 -0.00573058 0)
  (0.0630335 -0.00388941 0)
  (0.0654795 -0.00312135 0)
  (0.067033 -0.00274812 0)
  (0.0682156 -0.00247254 0)
  (0.0690467 -0.00219092 0)
  (0.0693443 -0.00179151 0)
  (0.0686613 -0.00101013 0)
  (0.0661376 0.000637199 0)
  (0.0601118 0.0039688 0)
  (0.0499325 0.00889506 0)
  (0.000714207 0.0201049 0)
  (0.101952 0.00304713 0)
  (-0.12394 -0.0301833 0)
  (0.0495991 -0.0222781 0)
  (0.0459291 -0.0626828 0)
  (0.0819541 -0.0608907 0)
  (0.113217 -0.0416461 0)
  (0.13234 -0.0233505 0)
  (0.141134 -0.00970063 0)
  (0.143111 8.70086e-05 0)
  (0.139978 0.00726519 0)
  (0.133801 0.0129043 0)
  (0.125369 0.0179546 0)
  (0.115018 0.0234736 0)
  (0.103357 0.0308397 0)
  (0.0903539 0.0423281 0)
  (0.0905261 0.0647151 0)
  (0.082428 0.0579346 0)
  (0.0511292 0.0506971 0)
  (-0.143725 0.00213192 0)
  (0.0394099 -0.0113519 0)
  (0.0295812 -0.0229292 0)
  (0.0404392 -0.0257268 0)
  (0.0518036 -0.0204757 0)
  (0.059733 -0.0130086 0)
  (0.0630697 -0.00590298 0)
  (0.0638151 -0.00192393 0)
  (0.0638989 -0.000287078 0)
  (0.0641378 0.000452033 0)
  (0.0644735 0.000956842 0)
  (0.064746 0.00149937 0)
  (0.0649126 0.00240634 0)
  (0.0647849 0.00408926 0)
  (0.0637814 0.00760875 0)
  (0.0591611 0.0160317 0)
  (0.0512732 0.0245792 0)
  (-0.000855712 0.0372555 0)
  (0.157601 0.0232274 0)
  (-0.166129 -0.0353607 0)
  (0.0546427 -0.0386133 0)
  (0.0231288 -0.0967014 0)
  (0.0597582 -0.0940021 0)
  (0.0856211 -0.0632134 0)
  (0.0981384 -0.0353561 0)
  (0.101961 -0.0153498 0)
  (0.100824 -0.00130013 0)
  (0.0970957 0.00915606 0)
  (0.0925349 0.0171866 0)
  (0.0876587 0.0240458 0)
  (0.0827096 0.0310017 0)
  (0.0781503 0.0392272 0)
  (0.0735 0.0495874 0)
  (0.0731517 0.0637072 0)
  (0.0652255 0.0618301 0)
  (0.049619 0.0778585 0)
  (-0.140169 -0.00610427 0)
  (0.0543523 -0.0394078 0)
  (0.054887 -0.043032 0)
  (0.0601937 -0.0378381 0)
  (0.0660318 -0.0285349 0)
  (0.0695374 -0.0191787 0)
  (0.0675923 -0.0153923 0)
  (0.0620522 -0.0109751 0)
  (0.057825 -0.0085656 0)
  (0.0555374 -0.00718202 0)
  (0.0541796 -0.00627491 0)
  (0.0532212 -0.0055804 0)
  (0.052768 -0.00480478 0)
  (0.053765 -0.00328745 0)
  (0.058086 0.0011321 0)
  (0.0571406 0.0203378 0)
  (0.051593 0.0344355 0)
  (-0.00517837 0.0501046 0)
  (0.190424 0.048967 0)
  (-0.187917 -0.0324692 0)
  (0.0472899 -0.0472636 0)
  (-0.00219695 -0.124192 0)
  (0.0333833 -0.121408 0)
  (0.0526698 -0.0759415 0)
  (0.0585596 -0.038552 0)
  (0.0572797 -0.0135694 0)
  (0.0534713 0.00281548 0)
  (0.0512004 0.0135356 0)
  (0.0501524 0.0210213 0)
  (0.0499874 0.0272457 0)
  (0.0505275 0.0335346 0)
  (0.0519237 0.0407412 0)
  (0.0539869 0.0493113 0)
  (0.0599742 0.0605692 0)
  (0.0688931 0.0673882 0)
  (0.0807412 0.0836732 0)
  (0.105314 -0.020731 0)
  (0.0980854 -0.0263701 0)
  (0.0952358 -0.0417884 0)
  (0.0853417 -0.0446617 0)
  (0.0785895 -0.0385774 0)
  (0.0750909 -0.0287893 0)
  (0.0730149 -0.0173071 0)
  (0.0740539 -0.00994088 0)
  (0.0764565 -0.00626199 0)
  (0.0759089 -0.00386443 0)
  (0.0725824 -0.0022094 0)
  (0.0676019 -0.000935445 0)
  (0.061502 0.000153967 0)
  (0.0542385 0.00123176 0)
  (0.045301 0.00257179 0)
  (0.02922 0.00494053 0)
  (0.0293419 0.0282957 0)
  (0.0387659 0.0411633 0)
  (-0.0117191 0.0552353 0)
  (0.211952 0.0820408 0)
  (-0.203696 -0.023578 0)
  (0.0325637 -0.0498601 0)
  (-0.0214904 -0.140327 0)
  (0.00645555 -0.141491 0)
  (0.0190358 -0.0807037 0)
  (0.0205928 -0.0353128 0)
  (0.0161142 -0.00845533 0)
  (0.0128877 0.00624233 0)
  (0.0135057 0.0143464 0)
  (0.015698 0.0200389 0)
  (0.0190698 0.0251675 0)
  (0.0234868 0.0304764 0)
  (0.0291017 0.0364132 0)
  (0.0362509 0.0431562 0)
  (0.0473296 0.0512756 0)
  (0.0624369 0.0561696 0)
  (0.081748 0.0564756 0)
  (0.0998055 0.012427 0)
  (0.101438 -0.011481 0)
  (0.0929873 -0.0286899 0)
  (0.0823776 -0.0337893 0)
  (0.0726782 -0.0302257 0)
  (0.0648589 -0.0225502 0)
  (0.0589347 -0.0132325 0)
  (0.0550361 -0.00372473 0)
  (0.0516473 0.00242754 0)
  (0.0476011 0.00581003 0)
  (0.0426994 0.0078122 0)
  (0.0373784 0.00930013 0)
  (0.0317939 0.0106982 0)
  (0.0259181 0.012291 0)
  (0.0199687 0.0143716 0)
  (0.0119803 0.0171122 0)
  (0.0117617 0.0273535 0)
  (0.0301092 0.0360381 0)
  (0.00192364 0.042597 0)
  (0.116067 0.078877 0)
  (0.0900686 0.0693885 0)
  (-0.08985 0.0594976 0)
  (0.312101 -0.00837739 0)
  (-0.224193 -0.00755183 0)
  (0.0221274 -0.0410073 0)
  (-0.0333526 -0.152643 0)
  (-0.0154251 -0.154266 0)
  (-0.00856352 -0.0834613 0)
  (-0.00728369 -0.031953 0)
  (-0.0110273 -0.0060992 0)
  (-0.0122775 0.00558215 0)
  (-0.0108037 0.0115304 0)
  (-0.00772896 0.0157882 0)
  (-0.00318745 0.019738 0)
  (0.00307364 0.0239521 0)
  (0.0106354 0.0283378 0)
  (0.0200266 0.0326971 0)
  (0.0324133 0.0366624 0)
  (0.0477457 0.0367174 0)
  (0.0662769 0.0295534 0)
  (0.0783815 0.00558304 0)
  (0.0788366 -0.0134662 0)
  (0.0716255 -0.0232364 0)
  (0.0614479 -0.0249767 0)
  (0.0508769 -0.0211638 0)
  (0.0413626 -0.0144629 0)
  (0.03352 -0.00653293 0)
  (0.0269533 0.00143189 0)
  (0.0222218 0.0067047 0)
  (0.0181261 0.00967048 0)
  (0.0139888 0.011605 0)
  (0.00974034 0.013277 0)
  (0.00541728 0.0150257 0)
  (0.0012236 0.0169989 0)
  (-0.00212815 0.0190269 0)
  (-0.00503671 0.0199791 0)
  (-0.00330242 0.0205406 0)
  (0.0137659 0.02205 0)
  (-0.00516306 0.0152658 0)
  (0.0439994 0.0490993 0)
  (0.0458296 0.0580934 0)
  (-0.110726 0.0608618 0)
  (0.295235 -0.0245282 0)
  (-0.255664 0.0269241 0)
  (0.0279881 -0.0284236 0)
  (-0.0321288 -0.168581 0)
  (-0.0235657 -0.16483 0)
  (-0.0232016 -0.0869766 0)
  (-0.0207276 -0.0318948 0)
  (-0.023918 -0.00580848 0)
  (-0.0255585 0.00451646 0)
  (-0.0249215 0.00882619 0)
  (-0.022407 0.0114905 0)
  (-0.0182004 0.0138659 0)
  (-0.0123583 0.0163055 0)
  (-0.00503263 0.0188139 0)
  (0.00460374 0.0210435 0)
  (0.0157964 0.0221675 0)
  (0.0285397 0.0202253 0)
  (0.0416077 0.0137013 0)
  (0.0480932 0.000958713 0)
  (0.0469124 -0.0094309 0)
  (0.0399906 -0.014558 0)
  (0.0302326 -0.0146565 0)
  (0.0199742 -0.0110829 0)
  (0.01064 -0.00544715 0)
  (0.00242101 0.00109996 0)
  (-0.00318652 0.00693197 0)
  (-0.00652878 0.0106247 0)
  (-0.00932218 0.0130621 0)
  (-0.0120109 0.0149801 0)
  (-0.0146486 0.0167071 0)
  (-0.0170112 0.0182586 0)
  (-0.0185937 0.0193719 0)
  (-0.0187675 0.0194063 0)
  (-0.0176105 0.0173023 0)
  (-0.0141246 0.0132978 0)
  (-0.00670825 0.0109366 0)
  (-0.0164643 0.00817165 0)
  (0.00862966 0.0395625 0)
  (0.0297076 0.070978 0)
  (-0.144449 0.0756307 0)
  (0.347096 -0.0322384 0)
  (-0.305977 -0.110758 0)
  (0.0472158 -0.080148 0)
  (-0.00432017 -0.191351 0)
  (-0.00861162 -0.171668 0)
  (-0.022086 -0.0835428 0)
  (-0.0235465 -0.0259945 0)
  (-0.0304515 -0.0017794 0)
  (-0.0348198 0.00588281 0)
  (-0.0356765 0.00775395 0)
  (-0.0341983 0.00843522 0)
  (-0.0310053 0.00912883 0)
  (-0.026396 0.00999211 0)
  (-0.0205694 0.010876 0)
  (-0.0135124 0.0115508 0)
  (-0.00553668 0.0116822 0)
  (0.00307838 0.010232 0)
  (0.0100491 0.00668819 0)
  (0.0120212 0.000757527 0)
  (0.00956205 -0.00417978 0)
  (0.00298452 -0.00615464 0)
  (-0.00580987 -0.00485303 0)
  (-0.014477 -0.00142204 0)
  (-0.0218555 0.00279538 0)
  (-0.0266587 0.00676125 0)
  (-0.029473 0.0101733 0)
  (-0.0311159 0.0128567 0)
  (-0.0322688 0.0150473 0)
  (-0.0331172 0.0168574 0)
  (-0.0335732 0.0182523 0)
  (-0.0333429 0.0190323 0)
  (-0.032021 0.0188312 0)
  (-0.0293435 0.0171686 0)
  (-0.0255579 0.0137674 0)
  (-0.0208924 0.00970629 0)
  (-0.0157656 0.00781416 0)
  (-0.0145551 0.00967286 0)
  (0.000280866 0.0316796 0)
  (0.0392276 0.0723562 0)
  (-0.127614 0.0679632 0)
  (0.586203 0.00906869 0)
  (-0.363641 0.354433 0)
  (0.089645 0.294284 0)
  (0.0615853 -0.177288 0)
  (0.0372811 -0.15379 0)
  (-0.00756729 -0.0637072 0)
  (-0.0274121 -0.00716346 0)
  (-0.0410272 0.00974129 0)
  (-0.0473175 0.0115242 0)
  (-0.0490488 0.0101582 0)
  (-0.0484532 0.00888884 0)
  (-0.0465298 0.00822536 0)
  (-0.0436936 0.00803579 0)
  (-0.0402049 0.00809777 0)
  (-0.0362771 0.00823353 0)
  (-0.0322089 0.00826456 0)
  (-0.0284823 0.00790095 0)
  (-0.0261492 0.00686433 0)
  (-0.0266117 0.00499848 0)
  (-0.0296899 0.00352921 0)
  (-0.0345545 0.00346546 0)
  (-0.0400141 0.00476508 0)
  (-0.0445027 0.00669437 0)
  (-0.0476132 0.00886151 0)
  (-0.0493328 0.0110973 0)
  (-0.0498903 0.013313 0)
  (-0.0496119 0.0153519 0)
  (-0.0487506 0.0171398 0)
  (-0.047375 0.01854 0)
  (-0.0454355 0.0193588 0)
  (-0.0428194 0.0193397 0)
  (-0.0394295 0.0181938 0)
  (-0.0353165 0.0157112 0)
  (-0.0307719 0.0120482 0)
  (-0.0260635 0.00816976 0)
  (-0.0211857 0.00560066 0)
  (-0.0157068 0.00637924 0)
  (-0.00283585 0.0187601 0)
  (0.0346777 0.0524692 0)
  (-0.0999092 0.0415834 0)
  (0.574989 0.0382085 0)
  (0.125316 -0.140798 0)
  (0.0818617 -0.105693 0)
  (-0.0099028 -0.0074831 0)
  (-0.053313 0.0280057 0)
  (-0.0624285 0.0267534 0)
  (-0.0654178 0.0218121 0)
  (-0.0657058 0.0177605 0)
  (-0.0651049 0.0151147 0)
  (-0.0641216 0.0135556 0)
  (-0.0629046 0.0127174 0)
  (-0.061553 0.0123495 0)
  (-0.0601722 0.0123134 0)
  (-0.05889 0.0125166 0)
  (-0.0578971 0.0128307 0)
  (-0.0575309 0.0130684 0)
  (-0.0582036 0.0130841 0)
  (-0.0598145 0.0132044 0)
  (-0.0617917 0.0137827 0)
  (-0.0634811 0.0147632 0)
  (-0.0644381 0.015886 0)
  (-0.0645477 0.0170273 0)
  (-0.0638178 0.0181247 0)
  (-0.0623097 0.0191251 0)
  (-0.0601169 0.0199131 0)
  (-0.0573346 0.0203685 0)
  (-0.0540395 0.020351 0)
  (-0.0503135 0.0197051 0)
  (-0.0462715 0.0182647 0)
  (-0.0420981 0.0158824 0)
  (-0.0380905 0.0125129 0)
  (-0.0346608 0.00835617 0)
  (-0.0322168 0.00390932 0)
  (-0.0308783 -0.000443461 0)
  (-0.028994 -0.000321537 0)
  (-0.0221565 0.00977627 0)
  (-0.012532 0.030268 0)
  (-0.124137 0.0230677 0)
  (0.345191 0.0588948 0)
  (-0.192608 -0.112579 0)
  (-0.0862274 -0.0773127 0)
  (-0.102743 -0.0562865 0)
  (-0.0988323 -0.0523877 0)
  (-0.0904332 -0.0628891 0)
  (-0.0851662 -0.0720792 0)
  (-0.082332 -0.0780374 0)
  (-0.0808272 -0.0814734 0)
  (-0.0800005 -0.0832243 0)
  (-0.0794903 -0.0838563 0)
  (-0.0790857 -0.0837127 0)
  (-0.0786512 -0.0830293 0)
  (-0.0780999 -0.0820505 0)
  (-0.0774161 -0.0811118 0)
  (-0.0767016 -0.0806148 0)
  (-0.0761446 -0.0808185 0)
  (-0.0758053 -0.0815138 0)
  (-0.0755349 -0.0822738 0)
  (-0.0750985 -0.0828214 0)
  (-0.0743096 -0.0830329 0)
  (-0.0730562 -0.0828056 0)
  (-0.0712564 -0.0820984 0)
  (-0.0688503 -0.0809551 0)
  (-0.0658132 -0.0795148 0)
  (-0.0621678 -0.0779687 0)
  (-0.0579922 -0.0765591 0)
  (-0.0534349 -0.0755813 0)
  (-0.0487337 -0.0753802 0)
  (-0.04424 -0.0763072 0)
  (-0.0404478 -0.0785998 0)
  (-0.0379966 -0.0821591 0)
  (-0.0375386 -0.0862026 0)
  (-0.0393533 -0.0885488 0)
  (-0.0413782 -0.0886156 0)
  (-0.040891 -0.0782194 0)
  (-0.0473625 -0.0565189 0)
  (-0.0991508 -0.0507984 0)
  (0.277374 -0.0367182 0)
  (-0.259286 -0.163832 0)
  (-0.156416 0.0377927 0)
  (-0.142551 0.320949 0)
  (-0.142676 0.278172 0)
  (-0.139322 0.263983 0)
  (-0.12676 0.26628 0)
  (-0.114063 0.27468 0)
  (-0.10553 0.28116 0)
  (-0.100396 0.285144 0)
  (-0.0974872 0.287351 0)
  (-0.0958925 0.288437 0)
  (-0.094996 0.28882 0)
  (-0.0943804 0.288757 0)
  (-0.0937422 0.288466 0)
  (-0.0928519 0.288204 0)
  (-0.0915698 0.288299 0)
  (-0.0898915 0.289075 0)
  (-0.0879408 0.290656 0)
  (-0.0858411 0.292832 0)
  (-0.0836146 0.295246 0)
  (-0.0812116 0.29762 0)
  (-0.0785715 0.299772 0)
  (-0.0756301 0.301571 0)
  (-0.0723175 0.302952 0)
  (-0.0685808 0.303907 0)
  (-0.0644154 0.304466 0)
  (-0.0598891 0.304666 0)
  (-0.0551558 0.304554 0)
  (-0.0504625 0.304207 0)
  (-0.0461436 0.303761 0)
  (-0.0426078 0.303436 0)
  (-0.0403378 0.303534 0)
  (-0.0398625 0.304354 0)
  (-0.0413078 0.305781 0)
  (-0.0430602 0.305761 0)
  (-0.042634 0.305768 0)
  (-0.0436992 0.298231 0)
  (-0.0665857 0.286882 0)
  (-0.124412 0.294297 0)
  (0.364216 0.337655 0)
)
;

boundaryField
{
  floor
  {
    type noSlip;
  }
  ceiling
  {
    type noSlip;
  }
  sWall
  {
    type noSlip;
  }
  nWall
  {
    type noSlip;
  }
  sideWalls
  {
    type empty;
  }
  glass1
  {
    type noSlip;
  }
  glass2
  {
    type noSlip;
  }
  sun
  {
    type noSlip;
  }
  heatsource1
  {
    type noSlip;
  }
  heatsource2
  {
    type noSlip;
  }
  Table_master
  {
    type noSlip;
  }
  Table_slave
  {
    type noSlip;
  }
  inlet
  {
    type fixedValue;
    value uniform (0.277164 -0.114805 0);
  }
  outlet
  {
    type zeroGradient;
  }
} 	// ************************************************************************* //

