/*--------------------------------*- C++ -*----------------------------------*\
  =========                 |
  \\      /  F ield         | OpenFOAM: The Open Source CFD Toolbox
   \\    /   O peration     | Website:  https://openfoam.org
    \\  /    A nd           | Version:  6
     \\/     M anipulation  |
\*---------------------------------------------------------------------------*/
FoamFile
{
    version     2.0;
    format      ascii;
    class       volScalarField;
    location    "500";
    object      alphat;
}
// * * * * * * * * * * * * * * * * * * * * * * * * * * * * * * * * * * * * * //

dimensions      [1 -1 -1 0 0 0 0];

internalField   nonuniform List<scalar> 
459
(
0.00117547
0.00127649
0.001293
0.00135183
0.00140565
0.00145512
0.00150237
0.00155008
0.00158977
0.00161317
0.0016142
0.00158797
0.00153354
0.00145818
0.00137592
0.000510047
0.000628198
0.000689433
0.000671157
0.000641684
0.000608636
0.000572609
0.000538279
0.000507197
0.000479409
0.000454591
0.000432463
0.000412639
0.000394603
0.000377773
0.000361316
0.000343958
0.000334258
0.000307529
0.00162614
0.00376055
0.0035243
0.00408911
0.0046194
0.00516066
0.00566723
0.00606532
0.00640346
0.00669275
0.0068867
0.00692225
0.00670052
0.0060148
0.00428398
0.00139363
0.000915341
0.000570771
0.00108692
0.00143417
0.00166411
0.00177013
0.00175809
0.00148991
0.00131873
0.00119027
0.00108844
0.00100525
0.000934079
0.000869905
0.000809923
0.000752702
0.000703333
0.000657486
0.000788511
0.000417895
0.00200607
0.00514905
0.00428691
0.00550839
0.00606465
0.00646779
0.00677443
0.00701277
0.00725194
0.00751431
0.00777015
0.00797109
0.00804464
0.00791511
0.00742244
0.00603736
0.00134617
0.00116416
0.00155559
0.00187566
0.00213667
0.0023005
0.00222975
0.000807263
0.000721346
0.000651889
0.0005954
0.000549007
0.000510511
0.000478313
0.00045137
0.000429199
0.00046152
0.00052922
0.000882871
0.00048981
0.00237526
0.00671817
0.00424003
0.0058502
0.00640679
0.00657352
0.00663271
0.00670425
0.00685313
0.00709222
0.00739146
0.00770945
0.00795991
0.00809104
0.00803721
0.00756236
0.00587391
0.00155396
0.00194139
0.00242817
0.00282026
0.00309084
0.00324525
0.00304736
0.000902061
0.000832588
0.000784901
0.000749752
0.000719662
0.000689661
0.000660523
0.000629156
0.000591508
0.000557076
0.000563531
0.0010168
0.000544687
0.00275248
0.00876115
0.00469124
0.00554512
0.00636988
0.00645089
0.00634271
0.0062794
0.00639713
0.00663336
0.00695739
0.00733911
0.00765434
0.00782964
0.0078136
0.00755768
0.00691603
0.00563876
0.0051125
0.00485027
0.00469326
0.00460046
0.00454477
0.00442636
0.00386299
0.00362048
0.00349177
0.00338755
0.00326101
0.00306576
0.00275263
0.00235159
0.00189379
0.00141924
0.00104557
0.00103183
0.00072413
0.000682006
0.000822967
0.000921159
0.00315091
0.0109786
0.00666006
0.00532074
0.00594899
0.00628132
0.00625857
0.00610353
0.00622249
0.00644114
0.00676502
0.00714967
0.00749096
0.00767307
0.00762121
0.00733374
0.00687752
0.00636085
0.00600451
0.0057511
0.00554737
0.00539178
0.00526869
0.00513817
0.0049401
0.00476893
0.00461212
0.0044502
0.00427204
0.00406836
0.00378066
0.00338023
0.00286605
0.00226588
0.00170956
0.00125282
0.000975044
0.000846202
0.00122172
0.000959532
0.00352279
0.0125896
0.00972839
0.00696064
0.00629102
0.00635112
0.00639959
0.00632011
0.0063165
0.00647036
0.00679061
0.00719867
0.007557
0.00772303
0.00761041
0.007239
0.00674936
0.00634584
0.00612638
0.00596889
0.00577671
0.00554338
0.00529015
0.00505185
0.00484644
0.00467837
0.00452414
0.00437059
0.00421647
0.00406757
0.00392473
0.0036739
0.00326847
0.00274705
0.00223099
0.00174777
0.00141393
0.00131747
0.00136158
0.00107841
0.00359873
0.0114686
0.0100188
0.00899885
0.00817257
0.00762046
0.00702353
0.00657635
0.00643747
0.00661542
0.00701742
0.00748543
0.00783947
0.00792615
0.00767622
0.00715539
0.00657484
0.00619628
0.00604066
0.00577434
0.0053859
0.00497545
0.00462717
0.00437325
0.00419715
0.004065
0.00395138
0.00384981
0.00376587
0.00371119
0.00369888
0.00370568
0.00347938
0.00312208
0.00279992
0.00263714
0.00275719
0.00322891
0.00404214
0.00170394
0.00350521
0.00418255
0.00469865
0.00492109
0.00504331
0.00508588
0.00523028
0.00558613
0.00615786
0.00686652
0.00756619
0.00809275
0.00830765
0.00812051
0.00754376
0.00677337
0.00618371
0.00578288
0.00539066
0.00488321
0.00436627
0.00395619
0.00367692
0.00349548
0.00337003
0.00326986
0.0031783
0.00308831
0.00299622
0.00289839
0.00279102
0.00267465
0.00257616
0.00250371
0.00248369
0.00250887
0.00250989
0.00242053
0.00226733
0.00159997
0.00201094
0.00385328
0.00511323
0.00604532
0.00692428
0.00771837
0.00839595
0.00888576
0.00909588
0.00897005
0.00849612
0.00767339
0.0066166
0.00569395
0.00509404
0.00457811
0.00402197
0.00350897
0.0031345
0.00289364
0.00274257
0.0026427
0.00257014
0.0025124
0.00246411
0.00242385
0.00239238
0.00237214
0.00236728
0.00238671
0.00241493
0.0024514
0.00249
0.00250347
0.00244549
0.00229851
0.00207739
0.00132215
0.00243283
0.00531499
0.00717542
0.00792006
0.0085723
0.0090495
0.00917613
0.00905495
0.00852561
0.00765504
0.00659274
0.00554345
0.00467453
0.00400214
0.00343852
0.00295138
0.00259676
0.00237027
0.00222046
0.0021213
0.00205972
0.00202369
0.00200728
0.00200786
0.00202428
0.0020557
0.0021006
0.00215561
0.00222408
0.0023087
0.0024074
0.00251395
0.0026123
0.00268153
0.0026706
0.00270684
0.00270258
0.00134465
0.00210778
0.00223138
0.00232045
0.00244469
0.00231507
0.00217135
0.00204655
0.00192349
0.00180698
0.00167413
0.00151908
0.00133649
0.00114587
0.000969464
0.000828864
0.000732163
0.000674181
0.000643811
0.000631564
0.000631091
0.000638652
0.00065172
0.000668491
0.000688686
0.000712255
0.000739283
0.000769979
0.000804723
0.000844198
0.000889638
0.000941423
0.000998705
0.00106229
0.00113301
0.00121091
0.00130433
0.00133658
0.00130478
0.00122369
0.00113781
)
;

boundaryField
{
    floor
    {
        type            compressible::alphatWallFunction;
        Prt             0.85;
        value           nonuniform List<scalar> 
29
(
0.000194234
7.07842e-05
8.85918e-05
9.76549e-05
9.49605e-05
9.05963e-05
8.56738e-05
8.02697e-05
7.5081e-05
7.03475e-05
6.60849e-05
6.22514e-05
5.8811e-05
5.57098e-05
5.28716e-05
5.0208e-05
4.75887e-05
4.4809e-05
4.32478e-05
3.89146e-05
3.89141e-05
5.65337e-05
6.76836e-05
7.60523e-05
0.000194231
7.07833e-05
7.99934e-05
0.000165214
0.000218238
)
;
    }
    ceiling
    {
        type            compressible::alphatWallFunction;
        Prt             0.85;
        value           nonuniform List<scalar> 
43
(
0.000291025
0.000306981
0.000318425
0.000334417
0.000317888
0.000299419
0.000283268
0.000267234
0.000251948
0.000234381
0.000213679
0.00018899
0.000162801
0.000138113
0.00011806
0.000104034
9.55185e-05
9.10232e-05
8.92034e-05
8.91336e-05
9.02586e-05
9.21987e-05
9.46813e-05
9.76605e-05
0.000101124
0.000105079
0.000109549
0.000114584
0.000120272
0.000126781
0.000134151
0.000142248
0.000151173
0.000161027
0.0001718
0.000184616
0.000189016
0.000184678
0.000173561
0.000161697
0.000467219
0.000549616
0.00033266
)
;
    }
    sWall
    {
        type            compressible::alphatWallFunction;
        Prt             0.85;
        value           uniform 0.000289813;
    }
    nWall
    {
        type            compressible::alphatWallFunction;
        Prt             0.85;
        value           nonuniform List<scalar> 6(0.00013095 0.000136389 0.000153088 0.00018672 0.000189784 0.000161372);
    }
    sideWalls
    {
        type            empty;
    }
    glass1
    {
        type            compressible::alphatWallFunction;
        Prt             0.85;
        value           nonuniform List<scalar> 9(0.000162669 0.000222938 0.000272435 0.000319653 0.000367166 0.000416661 0.000462318 0.00047171 0.000460522);
    }
    glass2
    {
        type            compressible::alphatWallFunction;
        Prt             0.85;
        value           nonuniform List<scalar> 2(0.000236615 0.000222903);
    }
    sun
    {
        type            compressible::alphatWallFunction;
        Prt             0.85;
        value           nonuniform List<scalar> 
14
(
0.0001668
0.000180682
0.00018294
0.000190964
0.00019827
0.000204958
0.00021132
0.000217724
0.000223033
0.000226156
0.000226293
0.000222791
0.000215504
0.000205365
)
;
    }
    heatsource1
    {
        type            compressible::alphatWallFunction;
        Prt             0.85;
        value           nonuniform List<scalar> 3(9.66693e-05 0.000117208 0.000131263);
    }
    heatsource2
    {
        type            compressible::alphatWallFunction;
        Prt             0.85;
        value           nonuniform List<scalar> 4(0.000196757 0.000130435 0.000130434 0.000190307);
    }
    Table_master
    {
        type            compressible::alphatWallFunction;
        Prt             0.85;
        value           nonuniform List<scalar> 9(0.000114938 0.000102445 9.22142e-05 8.37953e-05 7.68072e-05 7.09528e-05 6.60136e-05 6.1848e-05 5.83967e-05);
    }
    Table_slave
    {
        type            compressible::alphatWallFunction;
        Prt             0.85;
        value           nonuniform List<scalar> 9(0.000128542 0.000118592 0.000111705 0.000106597 0.000102201 9.77963e-05 9.34956e-05 8.884e-05 8.32141e-05);
    }
    inlet
    {
        type            fixedValue;
        value           uniform 1.94e-05;
    }
    outlet
    {
        type            zeroGradient;
    }
}


// ************************************************************************* //
