/*--------------------------------*- C++ -*----------------------------------*\
  =========                 |
  \\      /  F ield         | OpenFOAM: The Open Source CFD Toolbox
   \\    /   O peration     | Website:  https://openfoam.org
    \\  /    A nd           | Version:  6
     \\/     M anipulation  |
\*---------------------------------------------------------------------------*/
FoamFile
{
    version     2.0;
    format      ascii;
    class       surfaceScalarField;
    location    "610";
    object      phi;
}
// * * * * * * * * * * * * * * * * * * * * * * * * * * * * * * * * * * * * * //

dimensions      [1 0 -1 0 0 0 0];

internalField   nonuniform List<scalar> 
852
(
-0.00249035
0.00253358
-0.00331488
0.000824532
-0.00397976
0.000664868
-0.00452502
0.000545262
-0.00491971
0.000394691
-0.00514161
0.000221888
-0.0051673
2.56889e-05
-0.00497223
-0.000195075
-0.00454685
-0.000425378
-0.00391589
-0.000630961
-0.00313585
-0.000780046
-0.00228094
-0.000854915
-0.00143252
-0.00084842
-0.000672501
-0.000760023
-0.000675877
0.000155787
-0.000160696
0.000446853
-0.000291069
0.000850739
-0.000403889
0.00118578
-0.000335045
0.00143112
-0.000245347
0.00159582
-0.0001647
0.00167802
-8.22045e-05
0.00170598
-2.79602e-05
0.00171275
-6.77864e-06
0.00170999
2.75699e-06
0.00169973
1.02615e-05
0.00168094
1.8781e-05
0.00164812
3.28201e-05
0.00158613
6.19868e-05
0.00145953
0.000126594
0.00120702
0.000252507
0.000772987
0.00043403
4.88847e-05
0.000724099
4.21236e-05
-0.00180636
0.00445697
-0.00264345
0.00166162
-0.00334482
0.00136623
-0.00388863
0.00108907
-0.0042793
0.00078535
-0.00450609
0.000448678
-0.00454556
6.51552e-05
-0.00437306
-0.000367575
-0.00398546
-0.00081298
-0.0034194
-0.00119703
-0.00274194
-0.00145751
-0.00203401
-0.00156285
-0.00137742
-0.00150501
-0.000841078
-0.00129636
-0.000573221
-0.000943737
-0.000107734
-0.000465541
-0.000107788
-3.30692e-06
-0.000169551
0.000720875
-0.00101525
0.00107774
-0.000760758
0.00133057
-0.000587883
0.00152143
-0.000436204
0.0016476
-0.000290881
0.00167562
-0.000110224
0.00168362
-3.59632e-05
0.0016911
-1.42617e-05
0.00169705
-3.19891e-06
0.00170072
6.59354e-06
0.00170201
1.74851e-05
0.00169975
3.50746e-05
0.00168888
7.28483e-05
0.00163346
0.000182011
0.00141758
0.000468383
0.00104601
0.000805594
0.000649099
0.00112101
0.000672949
-0.00129659
0.00593316
-0.00204165
0.00240667
-0.00268029
0.00200487
-0.00315721
0.00156599
-0.00350832
0.00113646
-0.00372303
0.000663384
-0.0037682
0.00011032
-0.00360191
-0.000533866
-0.00322575
-0.00118915
-0.00269607
-0.00172671
-0.00208758
-0.00206601
-0.00147158
-0.00217884
-0.000910323
-0.00206628
-0.000454327
-0.00175236
-0.000135899
-0.00126217
6.71046e-05
-0.000668547
-4.06865e-05
0.00102325
-0.00121005
0.00109764
-0.00108964
0.00130557
-0.0009687
0.0014624
-0.000744711
0.0015735
-0.000547311
0.00168263
-0.000400017
0.00157256
0.00153674
0.00152263
0.00151957
0.00152631
0.00154395
0.00157917
0.00165216
0.00183432
0.00162218
0.000680521
0.00136248
0.00106529
0.000973565
0.00150993
0.00161761
-0.000936654
0.00710296
-0.00155102
0.00302103
-0.00199865
0.0024525
-0.00233688
0.00190421
-0.00259845
0.00139803
-0.00276637
0.000831305
-0.00279314
0.000137083
-0.00260507
-0.000721935
-0.00222556
-0.00156866
-0.00174088
-0.00221139
-0.00122364
-0.00258325
-0.000724168
-0.00267832
-0.000275139
-0.00251531
0.000116931
-0.00214444
0.000473135
-0.00161838
0.000857223
-0.00105264
0.00143982
-0.000623286
0.00207172
-0.000648983
0.0018543
-0.000992632
0.00169799
-0.000933336
0.00155557
-0.000826287
0.00148639
-0.000675536
0.00146127
-0.000522189
0.00142554
-0.000364294
0.0016031
-0.000177718
0.0017286
-0.00012565
0.00184174
-0.000113298
0.00194783
-0.000106248
0.00203925
-9.15714e-05
0.00209917
-6.00761e-05
0.0020969
2.11404e-06
0.00198773
0.000109014
0.00170177
0.00028581
0.00169412
0.000688168
0.00159242
0.00116698
0.00138908
0.00171326
0.00296912
-0.00067865
0.00806056
-0.00116524
0.00350762
-0.00130855
0.0025958
-0.00144315
0.00203881
-0.0015612
0.00151608
-0.00163172
0.000901821
-0.00158848
9.38427e-05
-0.00133443
-0.000975987
-0.000962639
-0.00194046
-0.000567635
-0.00260639
-0.000195963
-0.00295492
0.000129908
-0.00300419
0.000405337
-0.00279074
0.00064651
-0.00238561
0.000893216
-0.00186509
0.00117855
-0.00133798
0.00149468
-0.000939426
0.00167705
-0.000831354
0.00152142
-0.000837004
0.00137479
-0.000786707
0.00124288
-0.000694381
0.00115156
-0.000584216
0.00110212
-0.000472757
0.00109966
-0.000361833
0.00118622
-0.000264287
0.00128315
-0.000222585
0.00138312
-0.000213273
0.00148464
-0.000207769
0.00158232
-0.000189256
0.00166632
-0.000144086
0.001722
-5.35641e-05
0.00173241
9.86008e-05
0.00169874
0.000319467
0.00173768
0.000649222
0.00188837
0.00101629
0.00239617
0.00120546
0.00368182
0.00168346
0.00244534
0.00123628
0.00148564
0.000959495
0.00152638
-0.000599971
0.0089785
-0.000949043
0.00385669
-0.000660181
0.00230693
-0.000505949
0.00188457
-0.000432413
0.00144254
-0.000342477
0.00081188
-0.000118155
-0.000130484
0.000214556
-0.0013087
0.000521578
-0.00224748
0.000758359
-0.00284317
0.000917247
-0.00311381
0.00100887
-0.00309581
0.00105862
-0.00284049
0.00109002
-0.00241702
0.0011292
-0.00190428
0.00119133
-0.0014001
0.00125638
-0.00100448
0.00122186
-0.000796836
0.00108387
-0.000699027
0.000926357
-0.000629194
0.000787619
-0.000555646
0.000686747
-0.000483349
0.000631908
-0.000417922
0.000630177
-0.000360107
0.000683216
-0.000317331
0.000763976
-0.000303349
0.000856588
-0.00030589
0.000954843
-0.000306028
0.00105566
-0.000290076
0.00115782
-0.000246254
0.00126218
-0.000157928
0.00135994
8.37208e-07
0.00144745
0.000231947
0.00157918
0.000517492
0.00178675
0.000808713
0.00201157
0.000980636
0.00231687
0.00137816
0.00203149
0.00152165
0.0012381
0.00175288
0.00280768
-0.000720222
0.0100514
-0.00065033
0.00378679
0.000179152
0.00147745
0.000609093
0.00145463
0.000881858
0.00116977
0.00123425
0.000459485
0.00166077
-0.000557006
0.00197225
-0.00162019
0.00212395
-0.00239918
0.00213094
-0.00285016
0.00202188
-0.00300475
0.00183552
-0.00290945
0.00161268
-0.00261765
0.00138758
-0.00219192
0.00118445
-0.00170115
0.00101659
-0.00123224
0.000873551
-0.000861452
0.000715635
-0.000638924
0.000542009
-0.000525404
0.000374062
-0.000461251
0.000234513
-0.000416102
0.00013471
-0.00038355
7.91366e-05
-0.000362353
6.98383e-05
-0.000350813
0.00010231
-0.000349808
0.000160378
-0.000361422
0.000230885
-0.000376402
0.000307833
-0.000382981
0.000390029
-0.000372277
0.000481517
-0.000337747
0.000593869
-0.000270285
0.000743065
-0.000148364
0.000916104
5.89031e-05
0.00110651
0.000327081
0.00132128
0.000593936
0.00149292
0.000808996
0.00171504
0.00115604
0.00182623
0.00141045
0.00154632
0.00203279
0.00439937
0.00199565
0.00844957
0.00253658
0.00324586
0.00256474
0.00144929
0.00274942
0.00126993
0.00299414
0.00092505
0.00342133
3.22863e-05
0.00382968
-0.000965359
0.00394545
-0.00173596
0.00378626
-0.00223998
0.00343136
-0.00249527
0.00295755
-0.00253093
0.00243013
-0.00238203
0.00190274
-0.00209027
0.00141517
-0.00170435
0.000987204
-0.00127319
0.000635164
-0.000880205
0.000352394
-0.000578687
0.000122559
-0.000409094
-7.15118e-05
-0.000331338
-0.000232464
-0.000300303
-0.000358373
-0.000290198
-0.000449786
-0.000292142
-0.000508674
-0.000303469
-0.000537347
-0.000322145
-0.000540319
-0.000346841
-0.000526429
-0.000375318
-0.000502557
-0.000400279
-0.000472841
-0.000412703
-0.000440129
-0.000404994
-0.000403887
-0.000373995
-0.000350847
-0.000323331
-0.000246443
-0.000252773
-6.02193e-05
-0.000127326
0.000173573
9.32835e-05
0.000410256
0.000357247
0.000598636
0.000620611
0.000822566
0.000932102
0.0010261
0.00120691
0.000605106
0.00245378
0.00519585
0.00885323
0.0120694
0.0103061
0.00321263
0.00915978
0.00241625
0.00840991
0.00167491
0.00779531
0.00064689
0.00703282
-0.000202872
0.00614319
-0.000846327
0.00519889
-0.00129568
0.00424941
-0.00154578
0.0033272
-0.00160872
0.00245892
-0.00151375
0.00167413
-0.00130548
0.00100139
-0.00103162
0.000441763
-0.00071357
9.81469e-06
-0.000448262
-0.000299972
-0.000268906
-0.000518542
-0.000190529
-0.000683158
-0.000166727
-0.000813899
-0.000169566
-0.000922224
-0.000181877
-0.00101278
-0.000201596
-0.00108942
-0.000226826
-0.00115527
-0.000256305
-0.00121304
-0.000289073
-0.00126559
-0.000322771
-0.00131443
-0.000351443
-0.00136159
-0.000365551
-0.00141435
-0.000352237
-0.00149034
-0.000298016
-0.00161168
-0.000201989
-0.0017903
-7.41603e-05
-0.00202494
0.000107305
-0.00231172
0.000380064
-0.00271689
0.000762406
-0.00338125
0.00128497
-0.00444214
0.00199299
-0.00597703
0.00274179
-0.00629804
0.00277479
-0.000896169
0.00388871
0.00354846
0.00381342
0.00249155
0.00456997
0.000918367
0.00484169
0.000375187
0.00468883
-5.00035e-05
0.00429381
-0.0004513
0.00370824
-0.000710098
0.00298986
-0.0008274
0.00220474
-0.000823607
0.00141145
-0.000720461
0.000672668
-0.000566712
4.1879e-05
-0.000400839
-0.000436207
-0.000235491
-0.000750311
-0.000134164
-0.000948916
-7.03067e-05
-0.00108872
-5.07281e-05
-0.00119837
-5.7082e-05
-0.00129331
-7.46368e-05
-0.0013854
-8.97914e-05
-0.00147898
-0.000108016
-0.00157807
-0.000127748
-0.00168612
-0.000148252
-0.00180571
-0.000169489
-0.00193754
-0.00019095
-0.00207893
-0.000210055
-0.00222382
-0.000220664
-0.00236541
-0.000210655
-0.00250434
-0.000159095
-0.0026462
-6.01339e-05
-0.00279331
7.29469e-05
-0.00293337
0.000247357
-0.00305337
0.000500064
-0.00315235
0.000861375
-0.00321828
0.0013509
-0.00320503
0.00197974
-0.00299507
0.00253182
-0.00132498
0.0011047
-0.00217654
0.000517895
0.00301662
0.00199894
0.00101052
0.00248731
0.000430013
0.00261343
0.000249074
0.00249355
6.98835e-05
0.00215903
-0.000116777
0.00168477
-0.000235841
0.00111355
-0.000256192
0.000515664
-0.00022573
-2.98335e-05
-0.000174976
-0.000490651
-0.000105903
-0.000854894
-3.66036e-05
-0.00109993
9.54172e-06
-0.00126416
3.00559e-05
-0.00136912
3.46507e-05
-0.00144732
2.74617e-05
-0.00151925
1.48411e-05
-0.00159393
3.63249e-08
-0.00166927
-1.44497e-05
-0.00174965
-2.76469e-05
-0.00183774
-3.96592e-05
-0.00193662
-4.93754e-05
-0.00205083
-5.5286e-05
-0.00218601
-5.5773e-05
-0.00234667
-4.94037e-05
-0.00253221
-3.51241e-05
-0.00273041
-1.2467e-05
-0.00291049
2.09803e-05
-0.00303781
6.71825e-05
-0.00310177
0.000136901
-0.00309281
0.000238397
-0.00297106
0.000378304
-0.00268611
0.000576424
-0.00217266
0.000837443
-0.00123661
0.00104368
0.000331506
0.0009637
0.00141557
2.0634e-05
-0.000715919
-0.00362316
-0.00492902
-0.00193582
-0.000957967
-0.000566623
-0.000359357
-0.000333803
-0.000496885
-0.000780208
-0.00108464
-0.00135917
-0.00158361
-0.00173991
-0.00182812
-0.00187137
-0.001895
-0.00191467
-0.00194197
-0.00198224
-0.0020376
-0.00210764
-0.00219102
-0.0022865
-0.00239177
-0.00250302
-0.00261497
-0.00272098
-0.00281354
-0.00288468
-0.00292392
-0.0029187
-0.00284563
-0.00267287
-0.00236186
-0.00185405
-0.00108619
-0.000112879
0.000779599
0.000730703
)
;

boundaryField
{
    floor
    {
        type            calculated;
        value           nonuniform List<scalar> 
29
(
0
0
0
0
0
0
0
0
0
0
0
0
0
0
0
0
0
0
0
0
6.76032e-06
1.82694e-05
2.88991e-05
3.75615e-05
3.373e-06
4.90708e-06
1.21585e-05
1.7244e-05
1.70803e-05
)
;
    }
    ceiling
    {
        type            calculated;
        value           nonuniform List<scalar> 
43
(
2.83886e-05
2.51454e-05
2.34235e-05
3.26647e-05
3.86668e-05
4.17997e-05
4.43145e-05
4.62879e-05
4.74654e-05
4.82269e-05
4.87932e-05
4.9448e-05
5.03925e-05
5.15967e-05
5.27853e-05
5.36765e-05
5.43162e-05
5.47599e-05
5.51019e-05
5.5395e-05
5.55844e-05
5.57274e-05
5.58206e-05
5.58825e-05
5.5966e-05
5.61654e-05
5.66084e-05
5.74229e-05
5.86675e-05
6.02157e-05
6.19656e-05
6.38212e-05
6.56371e-05
6.72812e-05
6.86125e-05
6.95798e-05
7.0362e-05
7.12185e-05
6.95248e-05
7.17299e-05
3.6269e-05
2.96517e-05
1.39485e-05
)
;
    }
    sWall
    {
        type            calculated;
        value           uniform -0.000219096;
    }
    nWall
    {
        type            calculated;
        value           nonuniform List<scalar> 6(-4.09477e-05 -4.32007e-05 -4.53746e-05 -4.46139e-05 -4.50633e-05 -5.69503e-05);
    }
    sideWalls
    {
        type            empty;
        value           nonuniform 0();
    }
    glass1
    {
        type            calculated;
        value           nonuniform List<scalar> 9(-4.32367e-05 -0.000117031 -0.000179595 -0.000233151 -0.000278952 -0.000317972 -0.000352649 -0.000393862 -0.000439925);
    }
    glass2
    {
        type            calculated;
        value           nonuniform List<scalar> 2(-0.000191373 -0.000206029);
    }
    sun
    {
        type            calculated;
        value           uniform 0;
    }
    heatsource1
    {
        type            calculated;
        value           nonuniform List<scalar> 3(2.00276e-07 2.00814e-07 2.0122e-07);
    }
    heatsource2
    {
        type            calculated;
        value           nonuniform List<scalar> 4(5.03741e-08 5.04803e-08 0 0);
    }
    Table_master
    {
        type            calculated;
        value           nonuniform List<scalar> 9(-1.50773e-07 -1.5086e-07 -1.50884e-07 -1.50898e-07 -1.50905e-07 -1.50906e-07 -1.50901e-07 -1.50883e-07 -1.5083e-07);
    }
    Table_slave
    {
        type            calculated;
        value           nonuniform List<scalar> 9(1.50705e-07 1.50718e-07 1.50682e-07 1.50648e-07 1.50617e-07 1.50598e-07 1.50601e-07 1.50608e-07 1.50655e-07);
    }
    inlet
    {
        type            calculated;
        value           uniform -0.00422453;
    }
    outlet
    {
        type            calculated;
        value           nonuniform List<scalar> 2(0.00381387 0.00128072);
    }
}


// ************************************************************************* //
