/*--------------------------------*- C++ -*----------------------------------*\
  =========                 |
  \\      /  F ield         | OpenFOAM: The Open Source CFD Toolbox
   \\    /   O peration     | Website:  https://openfoam.org
    \\  /    A nd           | Version:  6
     \\/     M anipulation  |
\*---------------------------------------------------------------------------*/
FoamFile
{
    version     2.0;
    format      ascii;
    class       volScalarField;
    location    "1200";
    object      alphat;
}
// * * * * * * * * * * * * * * * * * * * * * * * * * * * * * * * * * * * * * //

dimensions      [1 -1 -1 0 0 0 0];

internalField   nonuniform List<scalar> 
459
(
0.0012355
0.00137584
0.00140544
0.00133521
0.00111781
0.000952182
0.000845796
0.000784276
0.000749706
0.000738545
0.000741397
0.000750745
0.00076072
0.000765562
0.000758482
0.000437535
0.00038902
0.000293962
0.000244592
0.00023892
0.00024528
0.000254327
0.000266267
0.000277997
0.00028798
0.000297849
0.000309159
0.000337657
0.000392133
0.000469796
0.000543373
0.00059946
0.000693469
0.000616395
0.00158003
0.00436355
0.0056801
0.00645069
0.00554292
0.00420883
0.00326741
0.00299975
0.00314845
0.00310956
0.0029824
0.00285415
0.00266816
0.0023278
0.0017219
0.000845253
0.000576668
0.000571637
0.00133028
0.00116291
0.0010394
0.000994975
0.000980339
0.000982727
0.00101093
0.00104812
0.00108906
0.00114099
0.00120919
0.00130604
0.00148648
0.0018134
0.00229257
0.00239856
0.00278915
0.000851944
0.0016933
0.00232381
0.00282943
0.00379148
0.00472653
0.00521906
0.00507083
0.00411827
0.00406988
0.00435036
0.00425508
0.00405668
0.00379136
0.00335966
0.00266808
0.00175193
0.000877789
0.000660209
0.00135704
0.000980152
0.00072406
0.000581973
0.000489478
0.000418165
0.000442846
0.000472504
0.000507801
0.000550705
0.000604313
0.000673618
0.000767945
0.00090416
0.00263705
0.0028062
0.00316696
0.000975501
0.00315703
0.00334488
0.00323834
0.00326217
0.00371573
0.00445594
0.00504126
0.0048564
0.0046494
0.00515094
0.00532644
0.00522081
0.00504391
0.00471983
0.00411743
0.00312827
0.00183448
0.000851111
0.00164085
0.00190867
0.00155704
0.00128988
0.00107513
0.000885181
0.000728826
0.000743566
0.000759294
0.000777726
0.000801143
0.000831748
0.000872566
0.0009292
0.00101328
0.0029473
0.00285571
0.00240659
0.00102946
0.00355238
0.00399123
0.00370159
0.00344576
0.00359404
0.0041871
0.00488485
0.00508456
0.00503419
0.00563999
0.00612601
0.00623968
0.00630808
0.00634857
0.00630185
0.0061097
0.00573119
0.00519286
0.00472125
0.00441202
0.00423445
0.00418205
0.00418783
0.00419851
0.00415018
0.0041103
0.0040563
0.00399319
0.00392862
0.0038701
0.003825
0.00380145
0.00380087
0.00379387
0.00335527
0.00271263
0.00200134
0.00128569
0.00129875
0.00119859
0.00386721
0.00458019
0.00422867
0.00361962
0.00358301
0.00408864
0.00479926
0.0051285
0.00514109
0.00572638
0.00643141
0.0067616
0.00698511
0.00719553
0.00736569
0.00744286
0.00736473
0.00710075
0.00674587
0.00643711
0.0062502
0.00616489
0.00613536
0.00611395
0.00608025
0.00603109
0.00596408
0.00588029
0.005782
0.00567198
0.00555304
0.0054295
0.00530637
0.0051728
0.00498527
0.00476175
0.00455042
0.00440423
0.00429717
0.0015012
0.00420239
0.00486568
0.00469724
0.00372988
0.00358667
0.00410264
0.00480455
0.00514599
0.00516122
0.00557008
0.00633271
0.0068593
0.00721723
0.00751272
0.00779281
0.00801603
0.00810928
0.0080262
0.0078138
0.00757625
0.00738333
0.0072436
0.00714852
0.00708142
0.00702606
0.00696925
0.00690266
0.00682149
0.00672318
0.00660729
0.00647589
0.00633589
0.00620088
0.00608218
0.00597231
0.00585747
0.00574133
0.00573057
0.00608913
0.00174581
0.00463781
0.00520656
0.00517258
0.00362519
0.00378761
0.00430663
0.00491931
0.00525235
0.00524639
0.00541772
0.00595905
0.00655393
0.00706709
0.00744382
0.00780461
0.00813361
0.00836249
0.00843262
0.00835754
0.00820371
0.00803108
0.00786909
0.00773184
0.0076219
0.00753369
0.00745731
0.00738349
0.00730437
0.00721378
0.00710769
0.00698501
0.00684922
0.00670894
0.00657273
0.00644281
0.00632861
0.00626915
0.00633258
0.00687012
0.00197989
0.00531641
0.00644134
0.01043
0.00443939
0.0040554
0.0050087
0.00547111
0.00574894
0.00569
0.00573227
0.0060006
0.00642408
0.00691906
0.00735581
0.00776417
0.00813108
0.00841433
0.00857558
0.00861219
0.0085553
0.00844465
0.00831183
0.00817888
0.00805847
0.00795443
0.00786468
0.00778414
0.00770653
0.00762539
0.00753498
0.00743105
0.00731174
0.0071778
0.00703041
0.00686927
0.00670074
0.00656378
0.00655517
0.0067295
0.0019468
0.0175743
0.010793
0.00504532
0.00636281
0.00687296
0.00694481
0.00685349
0.00690629
0.00713386
0.00748366
0.00788149
0.00822022
0.0085159
0.00876022
0.00894227
0.0090544
0.00909604
0.00907735
0.00901595
0.00893042
0.0088365
0.00874515
0.0086619
0.0085877
0.00852031
0.00845561
0.00838846
0.00831335
0.00822487
0.00811822
0.00798972
0.00783668
0.00765649
0.00744463
0.0071908
0.006854
0.00606166
0.00177113
0.00653297
0.00805566
0.00868327
0.00730209
0.00686677
0.00685127
0.0070485
0.00741496
0.0078901
0.0084004
0.00888272
0.00928467
0.00957078
0.00973101
0.0097899
0.00977719
0.00972014
0.00964097
0.00955609
0.00947623
0.00940702
0.00935004
0.00930404
0.00926627
0.00923345
0.00920233
0.00916977
0.00913256
0.00908721
0.00902974
0.00895533
0.00885755
0.00872725
0.00855103
0.00830437
0.00790851
0.00686896
0.00218642
0.00168055
0.00186164
0.00395827
0.00343443
0.00303164
0.00270179
0.00245935
0.00230241
0.00220542
0.0021495
0.0021234
0.00212008
0.00213357
0.00215825
0.00218738
0.00221477
0.00223451
0.00224455
0.00224545
0.00223916
0.00222815
0.00221474
0.0022008
0.00218759
0.00217577
0.00216555
0.00215681
0.00214928
0.00214269
0.00213677
0.0021313
0.00212606
0.0021208
0.00211511
0.00210817
0.00209853
0.00208386
0.0020578
0.00197114
0.00171197
)
;

boundaryField
{
    floor
    {
        type            compressible::alphatWallFunction;
        Prt             0.85;
        value           nonuniform List<scalar> 
29
(
0.000108011
5.978e-05
5.21594e-05
3.68416e-05
2.8641e-05
2.76869e-05
2.87613e-05
3.02825e-05
3.22779e-05
3.42255e-05
3.58729e-05
3.74937e-05
3.93449e-05
4.39721e-05
5.26804e-05
6.48207e-05
7.60862e-05
8.45383e-05
9.84875e-05
8.70619e-05
8.70609e-05
0.000121513
0.000139107
0.000146715
0.00010801
5.97793e-05
8.03156e-05
9.3548e-05
0.000121389
)
;
    }
    ceiling
    {
        type            compressible::alphatWallFunction;
        Prt             0.85;
        value           nonuniform List<scalar> 
43
(
0.000236238
0.000260098
0.000523108
0.000459079
0.000409154
0.000367731
0.000336939
0.000316835
0.000304335
0.000297096
0.000293703
0.000293259
0.000294992
0.000298172
0.000301929
0.000305457
0.000307996
0.000309285
0.000309396
0.000308582
0.000307159
0.000305426
0.000303625
0.000301917
0.00030039
0.000299068
0.000297937
0.000296964
0.000296111
0.000295345
0.000294636
0.000293957
0.000293276
0.000292537
0.000291635
0.000290382
0.000288475
0.000285084
0.00027379
0.0002397
0.000685029
0.000816236
0.00082689
)
;
    }
    sWall
    {
        type            compressible::alphatWallFunction;
        Prt             0.85;
        value           uniform 0.000235667;
    }
    nWall
    {
        type            compressible::alphatWallFunction;
        Prt             0.85;
        value           nonuniform List<scalar> 6(0.000170133 0.000211325 0.000243931 0.000247326 0.000301513 0.000239485);
    }
    sideWalls
    {
        type            empty;
    }
    glass1
    {
        type            compressible::alphatWallFunction;
        Prt             0.85;
        value           nonuniform List<scalar> 9(0.000172548 0.000218899 0.00023418 0.000421019 0.000469603 0.000507881 0.0005483 0.000600347 0.000680563);
    }
    glass2
    {
        type            compressible::alphatWallFunction;
        Prt             0.85;
        value           nonuniform List<scalar> 2(0.000275069 0.000270758);
    }
    sun
    {
        type            compressible::alphatWallFunction;
        Prt             0.85;
        value           nonuniform List<scalar> 
14
(
0.000175349
0.000194519
0.000198541
0.000189
0.000159062
0.000135807
0.000120624
0.000111745
0.000106722
0.000105096
0.000105514
0.000106879
0.000108333
0.000109039
)
;
    }
    heatsource1
    {
        type            compressible::alphatWallFunction;
        Prt             0.85;
        value           nonuniform List<scalar> 3(0.00018204 0.000183822 0.000170062);
    }
    heatsource2
    {
        type            compressible::alphatWallFunction;
        Prt             0.85;
        value           nonuniform List<scalar> 4(0.000120419 8.09737e-05 8.09727e-05 0.000125082);
    }
    Table_master
    {
        type            compressible::alphatWallFunction;
        Prt             0.85;
        value           nonuniform List<scalar> 9(5.66648e-05 6.05186e-05 6.51134e-05 7.05346e-05 7.70608e-05 8.51271e-05 9.54263e-05 0.000109241 0.000128839);
    }
    Table_slave
    {
        type            compressible::alphatWallFunction;
        Prt             0.85;
        value           nonuniform List<scalar> 9(0.000103521 0.000105677 0.000107971 0.000110652 0.000114046 0.000118463 0.000124324 0.000132401 0.000144286);
    }
    inlet
    {
        type            fixedValue;
        value           uniform 1.94e-05;
    }
    outlet
    {
        type            zeroGradient;
    }
}


// ************************************************************************* //
