/*--------------------------------*- C++ -*----------------------------------*\
  =========                 |
  \\      /  F ield         | OpenFOAM: The Open Source CFD Toolbox
   \\    /   O peration     | Website:  https://openfoam.org
    \\  /    A nd           | Version:  6
     \\/     M anipulation  |
\*---------------------------------------------------------------------------*/
FoamFile
{
    version     2.0;
    format      ascii;
    class       surfaceScalarField;
    location    "1200";
    object      phi;
}
// * * * * * * * * * * * * * * * * * * * * * * * * * * * * * * * * * * * * * //

dimensions      [1 0 -1 0 0 0 0];

internalField   nonuniform List<scalar> 
852
(
-0.00262089
0.00265483
-0.0032883
0.000667448
-0.003362
7.3738e-05
-0.00333604
-2.59029e-05
-0.00332508
-1.08886e-05
-0.00323022
-9.4781e-05
-0.00302379
-0.000206344
-0.00272752
-0.000296181
-0.00243255
-0.000294891
-0.00216936
-0.000263115
-0.00190546
-0.00026383
-0.0015984
-0.000306982
-0.00120562
-0.000392705
-0.000683919
-0.000521633
-0.00068669
0.00015408
-0.000156929
0.000110146
4.39679e-05
9.42584e-05
1.59324e-05
9.36298e-05
6.69524e-07
0.00010266
-8.98871e-06
0.000116685
-1.39862e-05
0.000131849
-1.5124e-05
0.000147463
-1.55707e-05
0.000162592
-1.50798e-05
0.000176211
-1.35589e-05
0.000186518
-1.02376e-05
0.000182591
3.9983e-06
0.000137005
4.56457e-05
3.08879e-05
0.000106154
-4.89985e-05
7.99596e-05
-4.4455e-05
-4.45324e-06
-6.72169e-05
2.28551e-05
-0.000198226
0.000131104
-0.000201121
-0.00111269
0.00385876
-0.000800819
0.000355525
-0.000369069
-0.000358184
-0.00074945
0.000354395
-0.0015197
0.000759363
-0.00221762
0.000603194
-0.00251483
9.09546e-05
-0.00242057
-0.000390338
-0.00228353
-0.000431836
-0.00215494
-0.000391629
-0.0020165
-0.000402185
-0.00184378
-0.000479617
-0.00161417
-0.000622248
-0.00131236
-0.000823367
-0.000947962
-0.00105101
0.000172787
-0.00112072
0.000172804
-0.000277641
0.000113026
-0.0003975
0.000163894
-0.000518563
0.000137059
-0.000592575
7.47424e-05
-0.000629404
2.79057e-05
-0.000641981
-1.33851e-06
-0.000651424
-5.60459e-06
-0.00066191
-5.00234e-06
-0.000680535
3.63402e-06
-0.000704454
1.0452e-05
-0.000731375
1.67782e-05
-0.000755438
2.81568e-05
-0.000762839
5.31391e-05
-0.000737475
8.08775e-05
-0.000678577
2.11471e-05
-0.000482617
-0.000200323
-0.000247346
-0.000212336
2.74366e-05
-0.000143601
-0.000181235
0.00402066
-2.1091e-05
0.00550108
-0.00112526
0.00514526
-2.6905e-06
0.00406634
0.00143308
0.00261513
0.00221045
0.000960371
0.00225793
-0.00061896
0.00167035
-0.00160108
0.000591884
-0.00186004
-0.000172771
-0.00193988
-0.000311705
-0.0019677
-0.000374279
-0.00196102
-0.000486215
-0.00192579
-0.000657402
-0.00187256
-0.000876523
-0.00181656
-0.00110694
-0.00164279
-0.00129441
-0.0014699
-0.00100166
0.00110177
-0.00121506
0.000377403
-0.00128982
0.000211919
-0.00133393
0.000118966
-0.00135291
4.69924e-05
-0.00133194
-2.22024e-05
-0.0013373
-0.00134205
-0.00133817
-0.00132746
-0.00131044
-0.00128203
-0.00122864
-0.00114752
-0.00112612
-0.000766543
-0.00055978
-0.000402374
-0.000576388
0.000112104
-0.000657966
-8.12253e-05
0.00572709
-0.00562718
0.00739692
-0.00279504
0.00694348
0.000450792
0.00578549
0.00259111
0.00428921
0.00370678
0.00266021
0.00388702
0.0010373
0.00329342
-0.000421253
0.00205063
-0.00119754
0.000603612
-0.00156176
5.25999e-05
-0.0017555
-0.000180452
-0.00189687
-0.00034477
-0.00203842
-0.00051578
-0.00221454
-0.000700329
-0.00244741
-0.000873989
-0.00275257
-0.000989174
-0.00331859
-0.000903795
-0.00313313
-0.000200467
-0.00226228
0.000231032
-0.00207398
0.000189236
-0.00204939
0.000187453
-0.00206469
0.000134377
-0.00208865
7.10609e-05
-0.00211801
7.25728e-06
-0.00210052
-1.75284e-05
-0.00206801
-3.25604e-05
-0.00201994
-4.81112e-05
-0.00195879
-6.11937e-05
-0.00188187
-7.69633e-05
-0.00178275
-9.91516e-05
-0.00165072
-0.000132066
-0.00145993
-0.000190806
-0.00113506
-0.000324894
-0.00108028
-0.000614413
-0.000827814
-0.000828714
-0.000586282
-0.000899349
-0.000684689
0.00342005
-0.00890013
0.00464532
-0.00402024
0.00456883
0.000527366
0.00402532
0.00313468
0.00318876
0.00454343
0.00216889
0.004907
0.0011024
0.00436008
9.25592e-05
0.00306065
-0.00066236
0.00135865
-0.00108858
0.000478906
-0.0013456
7.6641e-05
-0.00152827
-0.000162023
-0.00169899
-0.00034498
-0.00188798
-0.000511265
-0.002107
-0.000654894
-0.00236823
-0.000727858
-0.00265066
-0.000621277
-0.00254935
-0.000301684
-0.00227355
-4.46665e-05
-0.00210938
2.51861e-05
-0.00197985
5.8046e-05
-0.00189088
4.55298e-05
-0.00183066
1.09616e-05
-0.00179571
-2.75707e-05
-0.00175974
-5.33832e-05
-0.00172196
-7.0225e-05
-0.00168533
-8.46204e-05
-0.00164796
-9.84422e-05
-0.0016093
-0.000115503
-0.00156828
-0.000140039
-0.00152174
-0.000178476
-0.0014663
-0.000246101
-0.00142325
-0.000367796
-0.00150186
-0.000535642
-0.0016634
-0.000667011
-0.00186552
-0.000697043
-0.0019446
-0.00060542
-0.00151512
-0.000429482
-0.00112487
-0.000390228
-0.0011337
0.00126793
-0.0099938
0.00196028
-0.00471251
0.00223457
0.000253153
0.00196944
0.00339989
0.00155118
0.00496179
0.00108844
0.00536987
0.000617046
0.00483165
0.00017241
0.00350545
-0.000302389
0.00183355
-0.000625423
0.000802009
-0.000844481
0.000295767
-0.00101148
5.04535e-06
-0.00116315
-0.000193231
-0.00133127
-0.000343067
-0.00152462
-0.000461458
-0.00173332
-0.00051907
-0.00189136
-0.000463135
-0.00188436
-0.00030858
-0.00176687
-0.000162046
-0.001653
-8.85777e-05
-0.00154245
-5.23744e-05
-0.00144875
-4.8036e-05
-0.00137631
-6.13372e-05
-0.00132344
-8.03066e-05
-0.00127993
-9.67612e-05
-0.00124032
-0.000109706
-0.00120371
-0.000121097
-0.00116903
-0.000132991
-0.00113602
-0.000148375
-0.00110489
-0.000171029
-0.0010764
-0.000206831
-0.00105594
-0.000266416
-0.00106267
-0.000360902
-0.00111857
-0.000479582
-0.00120524
-0.000580162
-0.00127407
-0.000628024
-0.00124258
-0.000636705
-0.000990716
-0.000681128
-0.000600033
-0.000780683
-0.00174328
-0.000219776
-0.00957401
0.000398755
-0.00533097
0.000670834
-1.88367e-05
6.27667e-05
0.00400805
-1.97325e-05
0.0050444
6.93061e-05
0.00528097
0.000135825
0.00476528
0.000177051
0.00346435
4.35164e-05
0.00196714
-0.000124088
0.000969658
-0.000256209
0.000427943
-0.000370262
0.000119163
-0.000483467
-7.9952e-05
-0.000611174
-0.000215277
-0.000760946
-0.000311595
-0.000916429
-0.000363487
-0.00102963
-0.00034982
-0.00105852
-0.000279572
-0.00101742
-0.00020302
-0.000953088
-0.000152769
-0.000881191
-0.000124122
-0.000814253
-0.000114817
-0.000757434
-0.000117997
-0.000710835
-0.000126747
-0.000671289
-0.000136152
-0.00063601
-0.000144833
-0.000603638
-0.000153322
-0.000573385
-0.0001631
-0.000545068
-0.00017655
-0.000519068
-0.000196888
-0.000497017
-0.000228738
-0.00048442
-0.000278866
-0.00049178
-0.000353389
-0.000523012
-0.000448186
-0.00055952
-0.000543479
-0.000566265
-0.00062109
-0.000511438
-0.000691331
-0.00036341
-0.00082894
-4.35621e-05
-0.0011003
-0.00179742
-0.00204682
-0.00730495
-0.00247756
-0.00490015
-0.00182899
-0.000667317
-0.00197034
0.00414949
-0.00135957
0.00443373
-0.000670789
0.00459231
-0.000121965
0.00421658
0.000314443
0.00302803
0.000477543
0.00180408
0.000481015
0.000966214
0.00044196
0.000467041
0.000388467
0.000172718
0.000321703
-1.31051e-05
0.000240999
-0.000134475
0.000142191
-0.000212677
3.42873e-05
-0.000255462
-5.41351e-05
-0.000261265
-9.80081e-05
-0.000235554
-0.000100641
-0.00020023
-8.11494e-05
-0.000172091
-5.07893e-05
-0.000154301
-1.81114e-05
-0.000147306
1.22454e-05
-0.000148161
3.87884e-05
-0.000153099
6.21254e-05
-0.000159302
8.31247e-05
-0.000165653
0.000102278
-0.000172304
0.000119735
-0.000180395
0.000135267
-0.000191927
0.000148191
-0.000209663
0.000156841
-0.000237243
0.000157431
-0.000279311
0.000144588
-0.000340399
0.000118157
-0.000421602
9.36866e-05
-0.000518846
0.00010363
-0.000630858
0.000189793
-0.000777303
0.00037624
-0.00101518
0.000627281
-0.00135112
-0.00123493
-0.0070945
-0.0120172
-0.00749145
-0.00519295
-0.00425978
0.000917908
-0.00240298
0.00257703
-0.00105686
0.00324629
-3.36903e-05
0.00319351
0.000699855
0.00229456
0.00107038
0.00143359
0.00122549
0.000811158
0.00128074
0.000411859
0.00128674
0.000166812
0.00125904
1.47124e-05
0.0012159
-9.11914e-05
0.00115957
-0.00015618
0.00109139
-0.000187116
0.00102356
-0.000193254
0.000970763
-0.00018256
0.000936585
-0.000165845
0.000916539
-0.000151826
0.00090613
-0.000143663
0.00090092
-0.000141859
0.000897848
-0.000144849
0.000895327
-0.000150341
0.00089273
-0.000156476
0.000889705
-0.00016241
0.000885898
-0.000168294
0.000880839
-0.000175146
0.000873825
-0.000184739
0.000863818
-0.000199494
0.000849194
-0.000222467
0.000827366
-0.000257338
0.000795094
-0.000307985
0.000750955
-0.00037732
0.000699041
-0.000466784
0.000648253
-0.00057991
0.000607989
-0.000736864
0.000596178
-0.00100318
0.000666118
-0.00142085
-0.000644699
-0.00666432
0.00158727
-0.00498037
-0.000765984
-0.00260121
0.000197957
-0.00079126
0.00143643
0.000528428
0.00187391
0.0013856
0.00143747
0.00187429
0.000944995
0.00213152
0.00055405
0.00226148
0.000282046
0.0023205
0.000107983
0.00233224
3.19103e-06
0.00231369
-7.24032e-05
0.00226758
-0.000109818
0.00220186
-0.000121143
0.00212829
-0.000119415
0.00205772
-0.000111708
0.00199584
-0.000103676
0.00194334
-9.90352e-05
0.00189873
-9.87463e-05
0.00185946
-0.000102275
0.00182315
-0.00010824
0.00178821
-0.000115095
0.00175373
-0.000121708
0.00171924
-0.000127651
0.00168441
-0.00013321
0.00164879
-0.000139301
0.00161164
-0.000147379
0.0015717
-0.00015937
0.00152702
-0.00017763
0.00147473
-0.000204892
0.00141087
-0.000243986
0.00133084
-0.000297154
0.00122943
-0.000365237
0.00109682
-0.00044716
0.000900573
-0.000540463
0.000540843
-0.00064327
-0.000143122
-0.000736685
-0.00080437
-0.000339058
0.00189492
-0.00047666
-0.000628298
-0.000228568
-5.00638e-05
0.000668552
0.000539374
0.00179304
0.000749541
0.0026021
0.000628555
0.00309647
0.000450817
0.00336298
0.000287769
0.00347891
0.000166385
0.00350062
8.65852e-05
0.00346748
3.66662e-05
0.00338416
1.12644e-05
0.00328008
-5.36621e-06
0.00317498
-1.5671e-05
0.00307857
-2.26276e-05
0.00299475
-2.75024e-05
0.00292287
-3.13955e-05
0.00285929
-3.50635e-05
0.00279975
-3.87973e-05
0.00274049
-4.26197e-05
0.00267908
-4.64296e-05
0.00261447
-5.01052e-05
0.00254673
-5.36017e-05
0.00247643
-5.70098e-05
0.0024041
-6.05776e-05
0.00232982
-6.47373e-05
0.00225283
-7.01445e-05
0.00217139
-7.77155e-05
0.00208259
-8.86507e-05
0.0019823
-0.000104437
0.00186527
-0.000126813
0.00172592
-0.00015767
0.00155971
-0.000198903
0.00136526
-0.000252575
0.00114925
-0.000324321
0.000933506
-0.000427362
0.000655967
-0.00045896
-0.000164535
0.000999536
0.00167332
0.00348972
0.00277608
0.00263591
0.00308492
0.00374505
0.00428487
0.00464762
0.00484822
0.00492869
0.004931
0.00488534
0.00481643
0.00473302
0.00464128
0.00454425
0.00444365
0.00434017
0.0042338
0.00412431
0.00401152
0.00389539
0.00377606
0.00365369
0.00352838
0.00339995
0.00326779
0.00313062
0.00298625
0.00283128
0.00266081
0.00246823
0.00224504
0.00198082
0.0016631
0.00127378
0.000781471
0.000256459
)
;

boundaryField
{
    floor
    {
        type            calculated;
        value           nonuniform List<scalar> 
29
(
0
0
0
0
0
0
0
0
0
0
0
0
0
0
0
0
0
0
0
0
2.98168e-06
7.62903e-06
1.21855e-05
1.73286e-05
2.83757e-06
2.88387e-06
7.72941e-06
1.30229e-05
1.51222e-05
)
;
    }
    ceiling
    {
        type            calculated;
        value           nonuniform List<scalar> 
43
(
0.00023338
0.000202288
7.87275e-05
8.55243e-05
9.02614e-05
9.04991e-05
8.9592e-05
8.89828e-05
8.83728e-05
8.75324e-05
8.63259e-05
8.47201e-05
8.27939e-05
8.06748e-05
7.85531e-05
7.65959e-05
7.49521e-05
7.36484e-05
7.26442e-05
7.18697e-05
7.12501e-05
7.07193e-05
7.02273e-05
6.97425e-05
6.92516e-05
6.87551e-05
6.82622e-05
6.77855e-05
6.73363e-05
6.69227e-05
6.65488e-05
6.62147e-05
6.59185e-05
6.5658e-05
6.54351e-05
6.52562e-05
6.5126e-05
6.50961e-05
6.62308e-05
7.19883e-05
2.73985e-05
2.2579e-05
3.1461e-05
)
;
    }
    sWall
    {
        type            calculated;
        value           uniform 9.58533e-05;
    }
    nWall
    {
        type            calculated;
        value           nonuniform List<scalar> 6(8.86136e-06 9.78874e-06 1.08277e-05 1.6779e-05 1.63492e-05 2.01555e-05);
    }
    sideWalls
    {
        type            empty;
        value           nonuniform 0();
    }
    glass1
    {
        type            calculated;
        value           nonuniform List<scalar> 9(-3.3902e-05 -9.12419e-05 -0.000141275 -0.000120952 -0.000147031 -0.000174202 -0.000199948 -0.000222176 -0.000237775);
    }
    glass2
    {
        type            calculated;
        value           nonuniform List<scalar> 2(6.50463e-05 7.61325e-05);
    }
    sun
    {
        type            calculated;
        value           uniform 0;
    }
    heatsource1
    {
        type            calculated;
        value           nonuniform List<scalar> 3(1.9749e-07 1.97689e-07 1.97945e-07);
    }
    heatsource2
    {
        type            calculated;
        value           nonuniform List<scalar> 4(4.95873e-08 4.97331e-08 0 0);
    }
    Table_master
    {
        type            calculated;
        value           nonuniform List<scalar> 9(-1.4901e-07 -1.48973e-07 -1.48935e-07 -1.48895e-07 -1.48854e-07 -1.48813e-07 -1.48769e-07 -1.48723e-07 -1.48645e-07);
    }
    Table_slave
    {
        type            calculated;
        value           nonuniform List<scalar> 9(1.48222e-07 1.48225e-07 1.4823e-07 1.4824e-07 1.48254e-07 1.48272e-07 1.48296e-07 1.48328e-07 1.48348e-07);
    }
    inlet
    {
        type            calculated;
        value           uniform -0.000115846;
    }
    outlet
    {
        type            calculated;
        value           nonuniform List<scalar> 2(-0.00132849 -0.000875807);
    }
}


// ************************************************************************* //
