/*--------------------------------*- C++ -*----------------------------------*\
  =========                 |
  \\      /  F ield         | OpenFOAM: The Open Source CFD Toolbox
   \\    /   O peration     | Website:  https://openfoam.org
    \\  /    A nd           | Version:  6
     \\/     M anipulation  |
\*---------------------------------------------------------------------------*/
FoamFile
{
    version     2.0;
    format      ascii;
    class       volScalarField;
    location    "1600";
    object      nut;
}
// * * * * * * * * * * * * * * * * * * * * * * * * * * * * * * * * * * * * * //

dimensions      [0 2 -1 0 0 0 0];

internalField   nonuniform List<scalar> 
459
(
0.00117684
0.00129331
0.00132576
0.00139369
0.0014591
0.00152442
0.00158793
0.00163241
0.00165032
0.00163613
0.00158679
0.00149756
0.00132017
0.00110399
0.000907157
0.000527925
0.000622954
0.000719694
0.000763688
0.000760087
0.000736768
0.000690567
0.000641828
0.000597756
0.000559203
0.000525601
0.000496243
0.000470357
0.000447433
0.000426633
0.000406865
0.000386649
0.000369511
0.00033619
0.00157433
0.00399064
0.00387934
0.00451205
0.00514125
0.0057029
0.00612294
0.00649522
0.00678977
0.00697557
0.00702759
0.00691718
0.00659167
0.00589286
0.00413883
0.0011605
0.000874323
0.000519216
0.00130563
0.00198379
0.0025417
0.00287996
0.00284617
0.00205275
0.00170591
0.00147723
0.00131013
0.0011822
0.00108106
0.000999996
0.000926205
0.000850684
0.000779491
0.000717921
0.000809599
0.000408662
0.00189936
0.00542171
0.00480661
0.0057385
0.00619214
0.00653811
0.00682385
0.00712882
0.00744567
0.00774416
0.00798528
0.00810548
0.00803088
0.00765
0.00670465
0.00458719
0.00117763
0.000810062
0.00145271
0.0022213
0.00303458
0.00362053
0.00348028
0.000957974
0.000833786
0.000734481
0.000655262
0.000591554
0.000539756
0.000497228
0.000462684
0.000436169
0.000485297
0.000580649
0.000943405
0.000461633
0.00220638
0.00679501
0.00489467
0.00596379
0.00620537
0.00634518
0.00652156
0.00676851
0.00709497
0.00746688
0.00782635
0.00806669
0.00814543
0.00803959
0.00764374
0.00652038
0.00371616
0.00135565
0.00167709
0.00238164
0.0033232
0.00423511
0.00483776
0.00448938
0.00109129
0.000987933
0.000910813
0.000848107
0.000794472
0.000744925
0.000695737
0.000643974
0.000585076
0.000539505
0.000584162
0.00111481
0.000501022
0.00251679
0.00853542
0.0053893
0.00597252
0.00620123
0.00620963
0.00630806
0.0064904
0.00681347
0.00721704
0.00759939
0.00785702
0.00794297
0.00787869
0.00769008
0.0072572
0.00627944
0.0055751
0.00563512
0.00597884
0.00639895
0.00672429
0.00684165
0.00656095
0.00532543
0.00469737
0.00429666
0.00396566
0.00358894
0.00315079
0.00265997
0.00213642
0.0016117
0.0011522
0.000886009
0.00106325
0.000653916
0.000606056
0.000727814
0.000819197
0.00284504
0.0104547
0.00724522
0.00639373
0.00664617
0.00644499
0.00637746
0.00645322
0.00673624
0.0071586
0.00756877
0.00782122
0.00785634
0.00773945
0.00761483
0.00758558
0.00761004
0.00780836
0.00813139
0.00838483
0.00848708
0.00842386
0.00819946
0.00779286
0.00714604
0.00655316
0.00603448
0.00554331
0.00501931
0.00445219
0.00383832
0.00317829
0.00249579
0.00185563
0.00140126
0.00116592
0.000910251
0.000802667
0.00115121
0.00086166
0.0031356
0.0117624
0.00988507
0.0081202
0.00755553
0.00690459
0.00653123
0.00652193
0.00683437
0.00732069
0.00777233
0.00801313
0.00799082
0.00783886
0.00783244
0.00818586
0.00875769
0.00927662
0.00958626
0.00963215
0.00945321
0.00910598
0.00863511
0.00806015
0.00740275
0.00676629
0.00617078
0.00560218
0.00505236
0.00455652
0.0040817
0.00355878
0.00298696
0.00239823
0.00193093
0.00159053
0.00134432
0.00132914
0.00139992
0.00102762
0.00318672
0.0101765
0.00921884
0.00820809
0.00721386
0.00652268
0.0063034
0.00654149
0.00709917
0.00774591
0.00823272
0.00840404
0.00828214
0.0081485
0.00843871
0.00916678
0.00969591
0.00996975
0.00999378
0.00975662
0.00931322
0.00872015
0.0080238
0.00726391
0.00649508
0.00577816
0.00513566
0.00457951
0.00413035
0.00380861
0.0036052
0.00345591
0.00319271
0.00285891
0.0026426
0.00261767
0.00288067
0.00346511
0.00416535
0.00153999
0.00310091
0.00365303
0.0039607
0.0040502
0.00428994
0.0048737
0.00577541
0.00685862
0.00790677
0.00866107
0.00893784
0.00876744
0.00847391
0.00867108
0.00908655
0.00945806
0.00960648
0.00952789
0.00923371
0.00873334
0.00806422
0.00727408
0.0064154
0.00555643
0.00477029
0.00409985
0.00356285
0.00315933
0.00287408
0.00268009
0.00254704
0.002461
0.00241109
0.00238716
0.00239004
0.00240162
0.00236468
0.00223653
0.00206817
0.00142146
0.00130964
0.00311652
0.00610645
0.00812047
0.00937449
0.0100397
0.0101802
0.00985396
0.00919969
0.00852076
0.00817602
0.00831548
0.00849269
0.00849694
0.00830958
0.00794275
0.00739943
0.00670067
0.00589912
0.00506875
0.00429037
0.00363106
0.00312302
0.00276334
0.00252269
0.0023733
0.00229384
0.00226749
0.00228182
0.0023204
0.00237373
0.00243365
0.00248605
0.00250372
0.00245411
0.00234035
0.00213146
0.00118019
0.00203254
0.00653246
0.00900848
0.00955387
0.00948659
0.00902077
0.00831735
0.00757902
0.00697688
0.00656216
0.006352
0.00624042
0.00608535
0.00586302
0.00556479
0.00517307
0.00468899
0.00414974
0.00361873
0.00315617
0.00279395
0.00253224
0.00235292
0.00223473
0.00216114
0.00212299
0.00211673
0.00214131
0.00219567
0.0022771
0.00238013
0.00249289
0.00259485
0.00266569
0.00264467
0.00267047
0.00258416
0.00119945
0.00194338
0.00197761
0.00202692
0.00218254
0.00205175
0.00192776
0.00182599
0.00170011
0.00155355
0.00140091
0.00125797
0.00114329
0.00106032
0.00100041
0.000953657
0.000912897
0.000873414
0.000833183
0.00079294
0.000755208
0.0007227
0.0006971
0.000678814
0.00066751
0.000662908
0.000665286
0.000675493
0.000694546
0.000723116
0.000761275
0.000808651
0.000864864
0.000929761
0.00100331
0.00108672
0.00117354
0.00119329
0.00115037
0.00108161
0.000999975
)
;

boundaryField
{
    floor
    {
        type            nutkWallFunction;
        Cmu             0.09;
        kappa           0.41;
        E               9.8;
        value           nonuniform List<scalar> 
29
(
0.000109739
6.32731e-05
7.52121e-05
8.71424e-05
9.25047e-05
9.20687e-05
8.92311e-05
8.35758e-05
7.75604e-05
7.20735e-05
6.72332e-05
6.29812e-05
5.92386e-05
5.59157e-05
5.29541e-05
5.02501e-05
4.76649e-05
4.50044e-05
4.27346e-05
3.82822e-05
3.82821e-05
4.78965e-05
5.47845e-05
5.9842e-05
0.000109739
6.32731e-05
6.21649e-05
9.80981e-05
0.000161805
)
;
    }
    ceiling
    {
        type            nutkWallFunction;
        Cmu             0.09;
        kappa           0.41;
        E               9.8;
        value           nonuniform List<scalar> 
43
(
0.000227203
0.000230854
0.00023621
0.000253164
0.000239038
0.000225533
0.000214372
0.000200471
0.000184141
0.000166954
0.00015067
0.000137459
0.000127807
0.000120785
0.000115271
0.000110438
0.000105732
0.00010091
9.60595e-05
9.14845e-05
8.75208e-05
8.43843e-05
8.21349e-05
8.07402e-05
8.01706e-05
8.04624e-05
8.17192e-05
8.40606e-05
8.75585e-05
9.2206e-05
9.79388e-05
0.000104691
0.000112423
0.000121112
0.000130877
0.000140952
0.000143232
0.000138272
0.000130282
0.00012072
0.00035061
0.000407589
0.000236658
)
;
    }
    sWall
    {
        type            nutkWallFunction;
        Cmu             0.09;
        kappa           0.41;
        E               9.8;
        value           uniform 0.000227262;
    }
    nWall
    {
        type            nutkWallFunction;
        Cmu             0.09;
        kappa           0.41;
        E               9.8;
        value           nonuniform List<scalar> 6(9.92088e-05 0.000104308 0.000123969 0.000141735 0.000143958 0.000120726);
    }
    sideWalls
    {
        type            empty;
    }
    glass1
    {
        type            nutkWallFunction;
        Cmu             0.09;
        kappa           0.41;
        E               9.8;
        value           nonuniform List<scalar> 9(0.000141475 0.000186721 0.000222764 0.000256195 0.000289494 0.000324239 0.000354647 0.000359977 0.00035106);
    }
    glass2
    {
        type            nutkWallFunction;
        Cmu             0.09;
        kappa           0.41;
        E               9.8;
        value           nonuniform List<scalar> 2(0.000182705 0.000169352);
    }
    sun
    {
        type            nutkWallFunction;
        Cmu             0.09;
        kappa           0.41;
        E               9.8;
        value           nonuniform List<scalar> 
14
(
0.000141338
0.000154713
0.000158416
0.000166137
0.000173532
0.00018088
0.000187989
0.000192951
0.000194943
0.000193362
0.000187856
0.000177855
0.000157759
0.000132877
)
;
    }
    heatsource1
    {
        type            nutkWallFunction;
        Cmu             0.09;
        kappa           0.41;
        E               9.8;
        value           nonuniform List<scalar> 3(7.31022e-05 8.81283e-05 9.92074e-05);
    }
    heatsource2
    {
        type            nutkWallFunction;
        Cmu             0.09;
        kappa           0.41;
        E               9.8;
        value           nonuniform List<scalar> 4(0.000139436 0.000105829 0.000105829 0.000141409);
    }
    Table_master
    {
        type            nutkWallFunction;
        Cmu             0.09;
        kappa           0.41;
        E               9.8;
        value           nonuniform List<scalar> 9(0.000115771 0.000100971 8.8951e-05 7.92238e-05 7.12987e-05 6.47789e-05 5.93682e-05 5.49313e-05 5.14977e-05);
    }
    Table_slave
    {
        type            nutkWallFunction;
        Cmu             0.09;
        kappa           0.41;
        E               9.8;
        value           nonuniform List<scalar> 9(0.000131416 0.000119308 0.000110179 0.00010269 9.62327e-05 9.02218e-05 8.42072e-05 7.78227e-05 7.04822e-05);
    }
    inlet
    {
        type            calculated;
        value           uniform 0.000100623;
    }
    outlet
    {
        type            calculated;
        value           nonuniform List<scalar> 2(0.00194338 0.00197761);
    }
}


// ************************************************************************* //
