/*--------------------------------*- C++ -*----------------------------------*\
  =========                 |
  \\      /  F ield         | OpenFOAM: The Open Source CFD Toolbox
   \\    /   O peration     | Website:  https://openfoam.org
    \\  /    A nd           | Version:  6
     \\/     M anipulation  |
\*---------------------------------------------------------------------------*/
FoamFile
{
    version     2.0;
    format      ascii;
    class       surfaceScalarField;
    location    "1200";
    object      phi;
}
// * * * * * * * * * * * * * * * * * * * * * * * * * * * * * * * * * * * * * //

dimensions      [1 0 -1 0 0 0 0];

internalField   nonuniform List<scalar> 
852
(
-0.00293892
0.00299513
-0.00398135
0.00104242
-0.00477177
0.000790419
-0.00538815
0.000616379
-0.00580114
0.000412992
-0.00598783
0.000186691
-0.00592628
-6.15516e-05
-0.0055997
-0.00032658
-0.00502239
-0.000577312
-0.00424844
-0.000773953
-0.00336028
-0.000888158
-0.00244751
-0.000912775
-0.00158564
-0.000861873
-0.000798582
-0.000787056
-0.000797141
-0.000681752
0.000684426
-0.000358011
-0.000323742
0.00024882
-0.000606833
0.000725188
-0.000476369
0.00104301
-0.000317823
0.00124163
-0.000198627
0.00134994
-0.000108307
0.00140364
-5.36999e-05
0.00143395
-3.03101e-05
0.00145256
-1.86107e-05
0.00146301
-1.04545e-05
0.00146642
-3.416e-06
0.00146085
5.56779e-06
0.00143789
2.29597e-05
0.00137504
6.28537e-05
0.00123443
0.000140603
0.00100119
0.000233238
0.000707952
0.000293237
0.000711541
-0.00209686
0.00524335
-0.0031046
0.00205017
-0.00391141
0.00159723
-0.00451468
0.00121965
-0.00491812
0.000816427
-0.00510763
0.000376205
-0.00505784
-0.00011134
-0.00475538
-0.000629046
-0.0042259
-0.00110679
-0.00353272
-0.00146713
-0.00275924
-0.00166164
-0.00198586
-0.00168615
-0.0012844
-0.00156334
-0.000740705
-0.00133075
-0.000536472
-0.00100137
-6.11558e-05
-0.000475369
-6.12083e-05
0.000366379
0.000325675
0.000791404
-0.000748769
0.00104293
-0.000858365
0.0012538
-0.000687233
0.00141158
-0.000475606
0.00150484
-0.00029189
0.00151957
-0.000123036
0.00152349
-5.76269e-05
0.00152822
-3.50352e-05
0.00153217
-2.25656e-05
0.00153481
-1.30995e-05
0.00153614
-4.73932e-06
0.00153528
6.42349e-06
0.00152868
2.95603e-05
0.00148752
0.000104011
0.00131264
0.000315482
0.00101024
0.00053563
0.000628503
0.000674975
0.0013493
-0.00146738
0.00694224
-0.00233197
0.00291476
-0.00304125
0.00230651
-0.003552
0.0017304
-0.00389903
0.00116345
-0.00406353
0.000540705
-0.00400018
-0.00017469
-0.00368927
-0.00093996
-0.00317898
-0.00161708
-0.00254646
-0.00209965
-0.00187408
-0.00233403
-0.00122476
-0.00233548
-0.000648523
-0.00213958
-0.00019424
-0.00178503
0.00010744
-0.00130306
0.000299423
-0.000667353
0.000238213
0.00148486
-0.00115116
0.00169955
-0.000963468
0.00167877
-0.000837586
0.00167931
-0.000687775
0.00170168
-0.00049797
0.00171637
-0.000306584
0.00159348
0.00153601
0.00150112
0.00147871
0.00146576
0.00146117
0.00146775
0.00149746
0.00160162
0.00132171
0.000595396
0.00098138
0.000875956
0.000548542
0.00110781
0.00191197
-0.00102444
0.00826647
-0.00170647
0.00359678
-0.00216824
0.00276827
-0.002495
0.00205717
-0.00271583
0.00138428
-0.00279697
0.000621847
-0.0026629
-0.000308766
-0.00230684
-0.00129602
-0.00181576
-0.00210815
-0.00127247
-0.00264294
-0.000743785
-0.00286271
-0.000263119
-0.00281614
0.000152337
-0.00255503
0.000498269
-0.00213096
0.000803427
-0.00160821
0.00116887
-0.0010328
0.00193559
-0.000528505
0.00245455
-0.000511699
0.00205821
-0.000754819
0.00192992
-0.000835185
0.00181763
-0.000725291
0.0017216
-0.000591746
0.00166807
-0.000444446
0.0016428
-0.000281316
0.00175793
-0.000115284
0.0018298
-7.2026e-05
0.00188765
-5.80046e-05
0.0019323
-4.47976e-05
0.00195007
-1.79256e-05
0.00192001
2.99003e-05
0.00181725
0.000102604
0.00160908
0.000208024
0.00124105
0.000367867
0.00110991
0.000726536
0.000823848
0.00116202
0.000387992
0.00154367
0.00231848
-0.000717979
0.00934224
-0.00123355
0.00411235
-0.0013201
0.00285482
-0.00137084
0.0021079
-0.00138871
0.00140215
-0.00128918
0.000522319
-0.000995394
-0.000602551
-0.000578781
-0.00171263
-0.000145315
-0.00254162
0.000240467
-0.00302872
0.000554408
-0.00317665
0.00079542
-0.00305716
0.000978082
-0.00273769
0.00113014
-0.00228302
0.00128277
-0.00176084
0.0014867
-0.00123674
0.00177326
-0.000815069
0.00190731
-0.000645752
0.00181002
-0.000657529
0.00163467
-0.000659832
0.00148596
-0.000576582
0.00136365
-0.000469442
0.00127869
-0.000359482
0.00124435
-0.000246981
0.00128361
-0.000154542
0.00132943
-0.000117846
0.00138025
-0.000108831
0.00143302
-9.75706e-05
0.00147756
-6.2466e-05
0.00149449
1.2967e-05
0.00146309
0.000134006
0.00137089
0.000300227
0.00121821
0.000520539
0.00108472
0.00086003
0.000941313
0.00130542
0.000623818
0.00186116
0.000554391
0.00238791
-0.00096698
0.00152117
-0.00142971
0.000462522
-0.00138282
-0.000626207
0.0103752
-0.000977767
0.00446391
-0.000548986
0.00242604
-0.000179481
0.0017384
0.000106836
0.00111583
0.000512806
0.000116347
0.00102341
-0.00111316
0.00144424
-0.00213346
0.0017245
-0.00282189
0.00186402
-0.00316824
0.00189533
-0.00320797
0.00184627
-0.00300809
0.00174816
-0.00263958
0.00163726
-0.00217212
0.0015466
-0.00167018
0.00150111
-0.00119125
0.00149444
-0.000808395
0.00144075
-0.000592063
0.00129723
-0.000514008
0.00110699
-0.000469597
0.000938546
-0.000408138
0.000808883
-0.000339781
0.000724257
-0.000274857
0.000692621
-0.000215347
0.000711891
-0.000173813
0.000757842
-0.000163798
0.00081949
-0.000170481
0.000892284
-0.000170366
0.000970921
-0.000141105
0.00104389
-5.99992e-05
0.00109344
8.44536e-05
0.00111433
0.000279336
0.00111414
0.000520721
0.00113982
0.000834353
0.00123883
0.0012064
0.00142475
0.00167524
0.00186656
0.00194611
0.00212673
0.00126099
0.00173902
0.000850232
0.000412645
-0.000678653
0.0115048
-0.00055444
0.0043397
0.000587746
0.00128385
0.00139478
0.00093136
0.00210176
0.000408847
0.00281848
-0.000600373
0.00335491
-0.00164958
0.00362949
-0.00240804
0.00365105
-0.00284345
0.00346685
-0.00298404
0.00314043
-0.00288155
0.00273288
-0.00260054
0.00229775
-0.00220446
0.00188171
-0.00175608
0.00151972
-0.00130819
0.00122688
-0.000898411
0.00100118
-0.000582702
0.000806089
-0.000396969
0.00060853
-0.000316451
0.000419354
-0.000280422
0.000263354
-0.00025214
0.000150588
-0.000227016
8.27158e-05
-0.000206987
6.06167e-05
-0.000193249
7.8315e-05
-0.000191513
0.000120962
-0.000206447
0.000179057
-0.000228577
0.000251477
-0.000242787
0.000342367
-0.000231997
0.000456815
-0.000174449
0.000583497
-4.223e-05
0.000711102
0.00015173
0.000849324
0.000382498
0.00103568
0.000647997
0.00131834
0.000923732
0.00175855
0.00123503
0.0024232
0.00128145
0.00296312
0.000721064
0.00298765
0.000825707
0.0034614
0.00260137
0.00940812
0.00331034
0.00363073
0.00372383
0.000870358
0.00444232
0.000212875
0.00528058
-0.000429414
0.00589932
-0.00121911
0.006101
-0.00185126
0.00592256
-0.0022296
0.00544406
-0.00236495
0.00475932
-0.0022993
0.00396419
-0.00208642
0.00314198
-0.00177832
0.00235439
-0.00141687
0.00164979
-0.00105148
0.00106016
-0.000718563
0.000590645
-0.000428898
0.000246403
-0.000238461
-3.04544e-06
-0.000147522
-0.000195551
-0.000123946
-0.000347972
-0.000128003
-0.000464451
-0.000135662
-0.000546622
-0.000144847
-0.000597372
-0.000156238
-0.000619797
-0.000170826
-0.000620233
-0.000191079
-0.000608805
-0.000217877
-0.000591478
-0.000245906
-0.000567541
-0.000266725
-0.000528901
-0.000270638
-0.000457155
-0.000246196
-0.000323491
-0.000175896
-0.000141092
-3.06705e-05
7.4663e-05
0.00016674
0.000345276
0.000377382
0.000682829
0.000586178
0.00112804
0.000789819
0.00161855
0.000790939
0.00182862
0.000510994
0.00108689
0.00156743
0.00479735
0.00996168
0.0135844
0.0124648
0.00198997
0.0117678
0.000909878
0.0111067
0.000231627
0.0102084
-0.000320797
0.00904657
-0.000689439
0.00772737
-0.000910398
0.00634507
-0.000982653
0.00497426
-0.000928481
0.0036823
-0.000794464
0.00252012
-0.000616145
0.00151061
-0.000407359
0.000676142
-0.000217015
2.2086e-05
-6.45088e-05
-0.000434426
2.76119e-05
-0.000713056
4.01676e-05
-0.000885286
2.47056e-05
-0.00100816
-1.06921e-06
-0.00110788
-2.82864e-05
-0.00118999
-5.35544e-05
-0.00125671
-7.81309e-05
-0.00131109
-0.000101855
-0.00135709
-0.000124828
-0.00140112
-0.000147052
-0.00145188
-0.000167121
-0.00151711
-0.000180676
-0.00160421
-0.000179627
-0.00172202
-0.000152829
-0.00188095
-8.72729e-05
-0.00208703
3.01841e-05
-0.00232753
0.000209831
-0.00262689
0.000466098
-0.00306528
0.000815764
-0.00373576
0.00125666
-0.00470558
0.00175963
-0.00609088
0.00217624
-0.0077743
0.00219441
-0.00730206
0.0010952
-0.00222926
0.00467005
0.0035014
0.00375259
0.00182735
0.00411303
-0.000128802
0.00411544
-0.000323206
0.00370716
-0.000281159
0.00307188
-0.000275114
0.00231754
-0.000228315
0.00151081
-0.000121755
0.000696811
1.95357e-05
-6.52098e-05
0.000145873
-0.00068714
0.000214568
-0.00112277
0.000218617
-0.00139637
0.000209084
-0.00155079
0.00018203
-0.00164921
0.000138585
-0.00172032
9.58149e-05
-0.00177992
5.85354e-05
-0.00183595
2.77386e-05
-0.00189313
3.62479e-06
-0.00195344
-1.78269e-05
-0.00201772
-3.7577e-05
-0.00208764
-5.49049e-05
-0.00216621
-6.84803e-05
-0.00225668
-7.66599e-05
-0.00236002
-7.73304e-05
-0.0024753
-6.43533e-05
-0.00259871
-2.94186e-05
-0.00272216
3.61684e-05
-0.0028335
0.000141528
-0.00292917
0.000305502
-0.00301654
0.000553463
-0.00310064
0.000899859
-0.00317697
0.00133299
-0.00320025
0.00178291
-0.00311804
0.00209403
-0.00275009
0.00182646
-0.00148812
-0.000166774
-0.00364556
-0.000529006
0.00409565
0.000302723
0.000995628
-9.96951e-05
0.000273619
-0.000501328
7.8427e-05
-0.00085097
6.84814e-05
-0.00121976
9.36761e-05
-0.00158358
0.000135505
-0.00189107
0.000185732
-0.00210184
0.000230301
-0.00221671
0.000260744
-0.00226779
0.000265641
-0.00228771
0.000238535
-0.00228188
0.000203252
-0.0022673
0.000167452
-0.0022619
0.000133183
-0.00227001
0.000103924
-0.00229111
7.96287e-05
-0.00232302
5.96482e-05
-0.00236257
4.31742e-05
-0.00241057
3.01733e-05
-0.00246665
1.85018e-05
-0.00252909
7.52845e-06
-0.00259522
-2.34845e-06
-0.00266216
-9.71989e-06
-0.00272633
-1.31618e-05
-0.00278093
-9.75942e-06
-0.00281531
4.95637e-06
-0.00281981
4.06756e-05
-0.00278379
0.000105501
-0.00268557
0.000207282
-0.00249375
0.000361636
-0.00218139
0.000587499
-0.00172911
0.000880706
-0.00110847
0.00116226
-0.000148732
0.00113429
0.0011455
0.000532222
0.00158246
-0.000603733
-0.00198442
-0.00722117
-0.010127
-0.00598854
-0.00497311
-0.0046885
-0.00460334
-0.00453074
-0.00443491
-0.00429885
-0.00411394
-0.00388568
-0.00362813
-0.00336683
-0.00313367
-0.00293669
-0.00277623
-0.00265059
-0.00255464
-0.00248332
-0.00243223
-0.0023978
-0.00237651
-0.00236697
-0.00236844
-0.00237977
-0.0023984
-0.00242036
-0.00243874
-0.00244221
-0.0024097
-0.0023121
-0.00211243
-0.00175812
-0.00117765
-0.000303722
0.000851986
0.0019797
0.00250509
0.00189413
)
;

boundaryField
{
    floor
    {
        type            calculated;
        value           nonuniform List<scalar> 
29
(
0
0
0
0
0
0
0
0
0
0
0
0
0
0
0
0
0
0
0
0
-3.5907e-06
-9.25961e-06
-1.41253e-05
-1.85274e-05
-1.44148e-06
-2.67497e-06
-7.6295e-06
-8.02229e-06
-7.25762e-06
)
;
    }
    ceiling
    {
        type            calculated;
        value           nonuniform List<scalar> 
43
(
-4.54246e-05
-4.41089e-05
-4.28032e-05
-1.98057e-05
-1.09909e-05
-6.73239e-06
-4.12491e-06
-2.15517e-06
-5.53255e-07
8.12712e-07
2.04021e-06
3.20014e-06
4.3303e-06
5.37644e-06
6.26919e-06
6.98539e-06
7.54359e-06
7.97482e-06
8.3063e-06
8.55816e-06
8.74535e-06
8.87788e-06
8.96226e-06
8.9974e-06
8.97907e-06
8.90727e-06
8.78935e-06
8.62634e-06
8.41899e-06
8.17031e-06
7.89748e-06
7.61096e-06
7.31917e-06
7.0332e-06
6.77325e-06
6.55309e-06
6.58323e-06
6.82468e-06
7.22139e-06
8.45598e-06
1.10916e-05
8.04516e-06
-6.52317e-05
)
;
    }
    sWall
    {
        type            calculated;
        value           uniform -0.000275161;
    }
    nWall
    {
        type            calculated;
        value           nonuniform List<scalar> 6(-4.70895e-05 -5.64491e-05 -6.11066e-05 -7.1824e-05 -7.86865e-05 -9.87387e-05);
    }
    sideWalls
    {
        type            empty;
        value           nonuniform 0();
    }
    glass1
    {
        type            calculated;
        value           nonuniform List<scalar> 9(-5.62047e-05 -0.000151359 -0.000231516 -0.000299794 -0.000357787 -0.000406711 -0.000451018 -0.000504665 -0.000564659);
    }
    glass2
    {
        type            calculated;
        value           nonuniform List<scalar> 2(-0.000249071 -0.000275452);
    }
    sun
    {
        type            calculated;
        value           uniform 0;
    }
    heatsource1
    {
        type            calculated;
        value           nonuniform List<scalar> 3(2.03951e-07 2.03907e-07 2.03925e-07);
    }
    heatsource2
    {
        type            calculated;
        value           nonuniform List<scalar> 4(5.11021e-08 5.12222e-08 0 0);
    }
    Table_master
    {
        type            calculated;
        value           nonuniform List<scalar> 9(-1.52963e-07 -1.53046e-07 -1.53075e-07 -1.53095e-07 -1.53109e-07 -1.53118e-07 -1.53122e-07 -1.53115e-07 -1.53083e-07);
    }
    Table_slave
    {
        type            calculated;
        value           nonuniform List<scalar> 9(1.52841e-07 1.52867e-07 1.5285e-07 1.52836e-07 1.52831e-07 1.52834e-07 1.5285e-07 1.52892e-07 1.52971e-07);
    }
    inlet
    {
        type            calculated;
        value           uniform -0.00618148;
    }
    outlet
    {
        type            calculated;
        value           nonuniform List<scalar> 2(0.00754176 0.00294992);
    }
}


// ************************************************************************* //
