/*--------------------------------*- C++ -*----------------------------------*\
  =========                 |
  \\      /  F ield         | OpenFOAM: The Open Source CFD Toolbox
   \\    /   O peration     | Website:  https://openfoam.org
    \\  /    A nd           | Version:  6
     \\/     M anipulation  |
\*---------------------------------------------------------------------------*/
FoamFile
{
    version     2.0;
    format      ascii;
    class       surfaceScalarField;
    location    "90";
    object      phi;
}
// * * * * * * * * * * * * * * * * * * * * * * * * * * * * * * * * * * * * * //

dimensions      [1 0 -1 0 0 0 0];

internalField   nonuniform List<scalar> 
852
(
-0.00254001
0.00257041
-0.00359402
0.00105393
-0.00390629
0.000312189
-0.00351
-0.000396371
-0.00228408
-0.00122599
-0.000351684
-0.00193246
0.00150883
-0.00186057
0.00291952
-0.00141074
0.00387131
-0.000951843
0.00441221
-0.000540962
0.00458251
-0.000170359
0.00439612
0.000186319
0.00380779
0.000588258
0.00260282
0.00120489
0.00259819
-0.000558763
0.000551351
-0.00108603
0.000526978
-0.000684961
-0.000401321
0.000175108
-0.000860301
0.00101489
-0.000840012
0.00167374
-0.000659083
0.00206875
-0.000395247
0.00226353
-0.000195016
0.00238053
-0.000117248
0.00246359
-8.3313e-05
0.00252125
-5.79091e-05
0.00255608
-3.50822e-05
0.00256329
-7.46989e-06
0.00252355
3.94864e-05
0.00239038
0.00013291
0.00208266
0.000307464
0.00152261
0.00055978
0.000583346
0.000938995
0.000573758
-0.00181633
0.00447075
-0.0026941
0.00193161
-0.00299344
0.000611441
-0.00263218
-0.000757705
-0.00156872
-0.00228953
-9.62655e-05
-0.00340498
0.0013288
-0.00328569
0.00247604
-0.00255803
0.00328115
-0.00175701
0.00375422
-0.00101408
0.00393731
-0.000353516
0.00387377
0.000249799
0.00361759
0.000844365
0.00335004
0.00147236
0.00381028
0.00213787
0.00186234
0.00194781
0.00186218
-0.000203283
0.000736062
0.00013195
0.000191445
0.000789818
-0.00105941
0.001332
-0.00140269
0.001802
-0.00131022
0.00216812
-0.00102542
0.00225801
-0.00048537
0.00227994
-0.00021717
0.00230277
-0.000140321
0.00232266
-0.000103437
0.00233738
-7.28768e-05
0.00234807
-4.60167e-05
0.00235271
-1.23544e-05
0.00234232
4.96326e-05
0.0022683
0.00020668
0.00197781
0.0005977
0.00148916
0.00104817
0.000825341
0.00160253
0.0013726
-0.00129505
0.00589644
-0.00199594
0.00263241
-0.00225498
0.000870395
-0.00189611
-0.00111667
-0.000909282
-0.00327643
0.000248368
-0.0045627
0.00132207
-0.00435945
0.00221186
-0.00344786
0.00283693
-0.00238214
0.00320288
-0.00138009
0.00335761
-0.000508315
0.00335874
0.0002486
0.0032738
0.000929231
0.0031709
0.00157517
0.00304975
0.00225893
0.00221227
0.00278519
0.00407436
0.000258352
0.000449272
0.00160181
-0.00115223
0.00212117
-0.00157896
0.002388
-0.00166971
0.00259589
-0.00151831
0.00286658
-0.00129633
0.00238113
0.00216388
0.00202347
0.00191994
0.00184697
0.00180085
0.00178839
0.00183792
0.00204449
0.00174109
0.000900833
0.00142478
0.0013642
0.000975296
0.00205173
0.00230581
-0.000930521
0.00699836
-0.00145699
0.00315878
-0.00159733
0.00101064
-0.00111623
-0.00159787
-0.000180868
-0.00421187
0.000683579
-0.00542722
0.0014487
-0.00512463
0.00206009
-0.00405931
0.00246224
-0.00278434
0.00267376
-0.00159169
0.00275253
-0.000587154
0.0027599
0.000241138
0.00275423
0.000934823
0.00278321
0.00154609
0.00291609
0.00212596
0.0032005
0.00250069
0.00459881
0.00267594
0.00332487
0.00124634
0.0037694
4.61684e-06
0.00351813
-0.000901093
0.00337046
-0.00143145
0.00322786
-0.0015273
0.00307983
-0.00137049
0.00281204
-0.00102877
0.00323843
-0.000426796
0.00338199
-0.000143988
0.00339219
-1.0624e-05
0.00330874
8.30124e-05
0.00314442
0.00016388
0.00290511
0.000238867
0.00258535
0.000319309
0.00215969
0.000425217
0.00156174
0.000597512
0.00144899
0.00101329
0.00132657
0.00148632
0.00124986
0.00212814
0.00350046
-0.000674429
0.00788003
-0.00102802
0.00351227
-0.000895904
0.000878421
-0.000122007
-0.00237186
0.000650973
-0.00498493
0.00121281
-0.00598913
0.00165506
-0.00556695
0.00194431
-0.00434863
0.00207165
-0.00291175
0.00208161
-0.00160173
0.00204792
-0.000553557
0.00203508
0.000253881
0.00209511
0.000874685
0.00227231
0.00136878
0.00263263
0.00176553
0.00316905
0.00196415
0.00391964
0.00192523
0.00420158
0.00096428
0.00422312
-1.706e-05
0.00400478
-0.000682911
0.00365387
-0.00108072
0.00330252
-0.00117616
0.00297989
-0.00104811
0.00271563
-0.000764787
0.00266442
-0.000375889
0.00258934
-6.92262e-05
0.00245231
0.00012609
0.0022797
0.000255291
0.00208659
0.000356654
0.00187503
0.000450086
0.00164367
0.00055032
0.0013955
0.000673061
0.0011637
0.000828989
0.00110001
0.00107665
0.00125967
0.00132635
0.00194845
0.00143905
0.00324497
0.00220361
0.00151816
0.00172625
3.80362e-05
0.00147951
-3.91997e-05
-0.000551321
0.00867095
-0.00061837
0.00357922
0.000125129
0.000134819
0.0010709
-0.00331773
0.00160094
-0.00551504
0.00184842
-0.00623669
0.00190013
-0.00561874
0.0017986
-0.00424719
0.00159612
-0.00270938
0.00136804
-0.00137376
0.00120866
-0.000394295
0.00117493
0.000287487
0.0012882
0.00076129
0.00154728
0.00110958
0.00195602
0.00135666
0.00248065
0.0014394
0.00312342
0.00128233
0.00345586
0.0006317
0.0034633
-2.46529e-05
0.00327712
-0.000496922
0.00295474
-0.00075856
0.00258881
-0.00081049
0.00223303
-0.000692627
0.00192653
-0.000458624
0.0017105
-0.000160214
0.00153718
0.000103728
0.00137723
0.000285662
0.00122442
0.000407716
0.00107717
0.000503515
0.000935387
0.000591483
0.000802751
0.000682573
0.000691478
0.000783961
0.000625947
0.000894159
0.000677261
0.00102498
0.000867053
0.00113621
0.00114154
0.00116423
0.00137627
0.00196854
0.000792272
0.00230987
-0.000284355
0.00255577
-0.000399509
-0.000208831
0.00915355
0.00033019
0.00304009
0.00173141
-0.0012665
0.00252427
-0.00411066
0.00275797
-0.00574882
0.00256332
-0.00604213
0.00210134
-0.00515687
0.00152075
-0.00366671
0.000950298
-0.00213905
0.00049641
-0.000919999
0.00026372
-0.000161744
0.00024971
0.000301348
0.0004116
0.00059925
0.000706854
0.000814173
0.00111017
0.000953192
0.00158549
0.000963924
0.00207416
0.000793497
0.00231602
0.00038966
0.00230395
-1.27938e-05
0.00211336
-0.000306568
0.0018101
-0.00045558
0.00145993
-0.000460647
0.00111259
-0.000345656
0.000803829
-0.00015026
0.000567272
7.59303e-05
0.000404643
0.000265925
0.000290671
0.000399194
0.000200703
0.000497242
0.000126138
0.000577638
6.69702e-05
0.000650213
2.90438e-05
0.00072007
2.38523e-05
0.000788737
6.54369e-05
0.000852177
0.000179376
0.000910661
0.000346612
0.000968609
0.000487761
0.00102273
0.000635905
0.00182003
0.000369467
0.00257591
-0.000232805
0.00315763
-0.000700652
0.00255434
0.00691047
0.00358336
0.00201097
0.00428591
-0.00196913
0.00454343
-0.00436824
0.00411996
-0.00532542
0.00319754
-0.00511981
0.00203745
-0.00399692
0.000915701
-0.0025451
1.57676e-05
-0.00123927
-0.000505245
-0.000399145
-0.000693558
2.64103e-05
-0.000661709
0.000269327
-0.000489286
0.000426648
-0.000215617
0.000540319
0.000130941
0.000606445
0.000499713
0.000594951
0.000813041
0.000479951
0.000943553
0.000258908
0.000891422
3.90735e-05
0.000701073
-0.000116526
0.000423223
-0.000178081
0.000108762
-0.000146581
-0.000195678
-4.1651e-05
-0.000443861
9.74633e-05
-0.000602358
0.000233943
-0.000684659
0.000347731
-0.000724661
0.000438697
-0.000739869
0.000511952
-0.000735583
0.000572857
-0.000710169
0.000624315
-0.000657701
0.000667132
-0.000569514
0.000700098
-0.00043752
0.000719752
-0.000255613
0.000728349
-3.46708e-05
0.000747288
0.000201817
0.000785891
0.000648271
0.0013732
0.00102495
0.00219881
0.0020734
0.00210874
0.000962649
0.00721659
0.00918672
0.00828578
-0.00106824
0.00681575
-0.00289825
0.0049916
-0.00350134
0.00304033
-0.00316868
0.00112945
-0.00208621
-0.000335252
-0.0010806
-0.00120355
-0.00037115
-0.00156792
-3.49637e-05
-0.00166671
0.000125007
-0.0016108
0.000213199
-0.00146603
0.000281659
-0.00126437
0.000338419
-0.00103211
0.000373937
-0.000808904
0.00037148
-0.000648274
0.000319029
-0.000609471
0.000219782
-0.000688904
0.000118156
-0.000858371
5.25639e-05
-0.00108009
4.32189e-05
-0.00130826
8.11383e-05
-0.0014962
0.000145798
-0.00161782
0.000218562
-0.00167479
0.000290371
-0.0016831
0.000355495
-0.00165721
0.00041226
-0.00160573
0.00045992
-0.001531
0.000497594
-0.00143108
0.000523872
-0.00130127
0.00053682
-0.00113574
0.000534102
-0.000930627
0.000514196
-0.000685322
0.000482645
-0.000395634
0.000457241
-5.1586e-05
0.000441519
0.000599707
0.000721546
0.00134367
0.00145441
0.00214892
0.001303
0.00267795
0.0059152
-0.000578892
0.004057
-0.00104016
0.00209634
-0.00154086
0.000135353
-0.00120789
-0.00138202
-0.000569048
-0.002221
-0.000241813
-0.00258431
-8.04035e-06
-0.00271154
9.20565e-05
-0.00271366
0.000126898
-0.00265386
0.000153141
-0.00255761
0.000185137
-0.0024399
0.000220421
-0.00231731
0.000251039
-0.00221327
0.000267098
-0.00215498
0.000260369
-0.00216568
0.000230094
-0.00224026
0.000192309
-0.00235379
0.000165641
-0.00247225
0.000161188
-0.00256824
0.000176621
-0.00262685
0.000203872
-0.00264484
0.000236001
-0.00262499
0.000269948
-0.00257341
0.000303342
-0.00249548
0.00033375
-0.00239463
0.000358509
-0.00227249
0.000374887
-0.00212925
0.000380098
-0.00196431
0.000371356
-0.00177713
0.000346433
-0.00156845
0.000305058
-0.0013377
0.000251485
-0.00108353
0.000202678
-0.000866832
0.000224447
-0.000683183
0.000537489
-0.00046028
0.00123101
-9.38165e-05
0.000935951
0.00251036
-0.000631957
-3.50158e-06
-0.00105064
-0.000621612
-0.00198615
-0.000605495
-0.0028747
-0.000319496
-0.00337458
-6.93459e-05
-0.00366027
4.36781e-05
-0.00376013
9.16088e-05
-0.00377964
0.000111336
-0.0037657
0.000112696
-0.00372912
0.000116274
-0.00367225
0.000127969
-0.00359841
0.000146248
-0.00351486
0.000167143
-0.00343368
0.00018554
-0.00336981
0.000196095
-0.00333602
0.000195878
-0.00333279
0.000188621
-0.00334864
0.000181012
-0.00336617
0.000178221
-0.00337093
0.000180853
-0.00335493
0.000187336
-0.00331577
0.000196276
-0.00325349
0.000207096
-0.00316956
0.000218836
-0.00306646
0.000230078
-0.00294782
0.000239289
-0.00281867
0.000245169
-0.00268588
0.000246747
-0.00255848
0.000243414
-0.00244749
0.000234909
-0.00236337
0.000220418
-0.0023086
0.000196205
-0.00226629
0.000159858
-0.00219137
0.000149006
-0.0019577
0.000303266
-0.00137858
0.000651286
-0.00109077
0.000647451
0.00132599
-0.00356564
-0.00288222
-0.00297496
-0.00367833
-0.00436429
-0.00476671
-0.00492236
-0.00496741
-0.00496595
-0.00494558
-0.00492428
-0.00489957
-0.00486314
-0.0048083
-0.00473245
-0.00463819
-0.00453355
-0.00442957
-0.00433352
-0.00424587
-0.00416182
-0.00407587
-0.00398403
-0.00388371
-0.00377288
-0.00365052
-0.00351701
-0.00337433
-0.00322576
-0.0030756
-0.00292885
-0.00279082
-0.00266771
-0.00256941
-0.00250768
-0.00245533
-0.00224452
-0.0016798
-0.00111552
)
;

boundaryField
{
    floor
    {
        type            calculated;
        value           nonuniform List<scalar> 
29
(
0
0
0
0
0
0
0
0
0
0
0
0
0
0
0
0
0
0
0
0
9.28852e-06
2.61907e-05
4.17746e-05
5.48911e-05
4.54602e-06
7.06206e-06
1.81922e-05
2.80695e-05
2.74955e-05
)
;
    }
    ceiling
    {
        type            calculated;
        value           nonuniform List<scalar> 
43
(
0.000112273
0.000101913
8.91901e-05
8.16611e-05
8.03267e-05
8.27657e-05
8.61212e-05
8.85141e-05
8.99142e-05
9.0709e-05
9.11211e-05
9.12601e-05
9.12137e-05
9.10698e-05
9.09249e-05
9.08845e-05
9.10463e-05
9.14644e-05
9.21101e-05
9.28851e-05
9.3672e-05
9.4381e-05
9.49632e-05
9.54034e-05
9.57089e-05
9.5899e-05
9.5996e-05
9.60231e-05
9.60097e-05
9.60002e-05
9.60592e-05
9.62688e-05
9.66962e-05
9.72728e-05
9.74698e-05
9.5991e-05
9.17623e-05
8.58334e-05
8.23835e-05
8.88904e-05
4.49847e-05
4.0743e-05
5.6467e-05
)
;
    }
    sWall
    {
        type            calculated;
        value           uniform -8.55666e-05;
    }
    nWall
    {
        type            calculated;
        value           nonuniform List<scalar> 6(7.63446e-05 7.51654e-05 6.75665e-05 7.30717e-05 9.28501e-05 0.000120771);
    }
    sideWalls
    {
        type            empty;
        value           nonuniform 0();
    }
    glass1
    {
        type            calculated;
        value           nonuniform List<scalar> 9(-3.0488e-05 -8.41007e-05 -0.000130727 -0.000171487 -0.000207338 -0.000239695 -0.00027386 -0.000311352 -0.000351204);
    }
    glass2
    {
        type            calculated;
        value           nonuniform List<scalar> 2(0.000409457 0.000432954);
    }
    sun
    {
        type            calculated;
        value           uniform 0;
    }
    heatsource1
    {
        type            calculated;
        value           nonuniform List<scalar> 3(1.99418e-07 1.99889e-07 1.98884e-07);
    }
    heatsource2
    {
        type            calculated;
        value           nonuniform List<scalar> 4(5.0203e-08 5.04357e-08 0 0);
    }
    Table_master
    {
        type            calculated;
        value           nonuniform List<scalar> 9(-1.50074e-07 -1.50295e-07 -1.50354e-07 -1.5038e-07 -1.50389e-07 -1.50384e-07 -1.50368e-07 -1.50324e-07 -1.50227e-07);
    }
    Table_slave
    {
        type            calculated;
        value           nonuniform List<scalar> 9(1.49643e-07 1.49634e-07 1.49588e-07 1.49549e-07 1.49538e-07 1.49557e-07 1.49602e-07 1.49675e-07 1.49789e-07);
    }
    inlet
    {
        type            calculated;
        value           uniform -0.00640459;
    }
    outlet
    {
        type            calculated;
        value           nonuniform List<scalar> 2(0.00353895 -0.000785342);
    }
}


// ************************************************************************* //
