/*--------------------------------*- C++ -*----------------------------------*\
  =========                 |
  \\      /  F ield         | OpenFOAM: The Open Source CFD Toolbox
   \\    /   O peration     | Website:  https://openfoam.org
    \\  /    A nd           | Version:  6
     \\/     M anipulation  |
\*---------------------------------------------------------------------------*/
FoamFile
{
    version     2.0;
    format      ascii;
    class       surfaceScalarField;
    location    "1100";
    object      phi;
}
// * * * * * * * * * * * * * * * * * * * * * * * * * * * * * * * * * * * * * //

dimensions      [1 0 -1 0 0 0 0];

internalField   nonuniform List<scalar> 
852
(
-0.00299124
0.003046
-0.00412829
0.001137
-0.00495866
0.000830313
-0.00556652
0.000607805
-0.0059211
0.000354527
-0.00599594
7.47839e-05
-0.00576737
-0.000228628
-0.00523478
-0.00053265
-0.00444797
-0.000786861
-0.00350024
-0.000947786
-0.00250005
-0.00100024
-0.00155554
-0.000944568
-0.000769266
-0.000786327
-0.000239269
-0.000530047
-0.000237923
-0.000794003
0.000796149
-0.000580549
-0.000213498
2.29178e-05
-0.00060351
0.000579916
-0.000557041
0.000990544
-0.000410671
0.00127291
-0.000282409
0.00143705
-0.000164187
0.00151993
-8.29151e-05
0.00156909
-4.92093e-05
0.00160239
-3.33461e-05
0.00162446
-2.21088e-05
0.00163685
-1.24369e-05
0.00163745
-6.42493e-07
0.00161692
2.04951e-05
0.0015504
6.64777e-05
0.00139525
0.000155104
0.00112633
0.000268878
0.000751708
0.000374587
0.000754488
-0.00213856
0.00533273
-0.0032038
0.00220218
-0.00403811
0.00166457
-0.00463367
0.00120331
-0.00498327
0.000704065
-0.005065
0.000156459
-0.00485385
-0.000439836
-0.00436122
-0.00102533
-0.00365122
-0.00149692
-0.00282316
-0.0017759
-0.00197394
-0.00184951
-0.00118861
-0.00172996
-0.000532194
-0.00144279
-5.89307e-05
-0.00100336
0.000230782
-0.000527684
0.000299709
-6.9029e-05
0.000299603
0.000150342
0.000652208
0.000615514
-0.000678712
0.000941607
-0.000929647
0.0012085
-0.000823974
0.00142601
-0.000628228
0.00157301
-0.000429449
0.00160376
-0.000194982
0.0016115
-9.06988e-05
0.00161998
-5.77314e-05
0.00162696
-4.03604e-05
0.00163164
-2.68334e-05
0.00163447
-1.53118e-05
0.00163465
-8.61759e-07
0.00162813
2.69736e-05
0.00158485
0.000109717
0.00140299
0.000336918
0.00108284
0.000588986
0.000661407
0.000795985
0.00142341
-0.00149284
0.00705302
-0.00238543
0.00309471
-0.00311389
0.00239297
-0.00361931
0.00170868
-0.00391552
0.00100022
-0.00396934
0.000210219
-0.003735
-0.000674227
-0.00324421
-0.00151618
-0.002585
-0.00215618
-0.00186506
-0.00249591
-0.00116036
-0.00255427
-0.000527691
-0.00236268
3.62032e-06
-0.00197415
0.000416183
-0.00141597
0.00067849
-0.000790039
0.000707573
-9.81604e-05
0.00100713
0.00150405
-0.000844544
0.00176164
-0.000936345
0.00177473
-0.000942772
0.00179451
-0.000843803
0.00183548
-0.000669239
0.0018992
-0.000493204
0.00170433
0.00161374
0.00155612
0.00151587
0.00148915
0.00147395
0.0014732
0.00150028
0.00161011
0.00134322
0.000603771
0.0010112
0.000920963
0.000573023
0.00123413
0.00200816
-0.00103342
0.00838188
-0.0017162
0.00377743
-0.00218963
0.00286634
-0.00251159
0.0020306
-0.00267991
0.00116848
-0.00262585
0.0001561
-0.00229885
-0.00100128
-0.00179154
-0.00202356
-0.00120619
-0.0027416
-0.000635858
-0.0030663
-0.000117867
-0.00307232
0.000325565
-0.00280616
0.000690607
-0.00233925
0.00101463
-0.00174005
0.00131151
-0.00108696
0.00166249
-0.000449195
0.00262191
4.76596e-05
0.00284031
-0.000211977
0.00254819
-0.000552475
0.00236927
-0.000757467
0.00218568
-0.000759227
0.00202578
-0.000683946
0.00191202
-0.00055552
0.00179839
-0.000379612
0.00194119
-0.000142993
0.0020008
-5.97974e-05
0.00203015
-2.95355e-05
0.00203738
-7.41296e-06
0.00201513
2.20578e-05
0.00195046
6.4481e-05
0.00182389
0.000126393
0.00160482
0.000218884
0.00123735
0.000367286
0.00111418
0.000726902
0.000852104
0.001183
0.000462565
0.00162363
0.00248629
-0.000715495
0.00945087
-0.00121011
0.00427199
-0.0012936
0.00294978
-0.00133055
0.00206749
-0.00126879
0.00110668
-0.000974828
-0.000137914
-0.000500172
-0.00147599
-2.40153e-06
-0.00252139
0.000431094
-0.00317515
0.000775578
-0.00341084
0.00103225
-0.00332904
0.00122238
-0.00299635
0.00137284
-0.00248975
0.00151767
-0.00188492
0.00168935
-0.00125868
0.00193714
-0.000697029
0.00230137
-0.000316612
0.00238885
-0.000299505
0.00228172
-0.000445387
0.00207644
-0.000552226
0.00187202
-0.000554852
0.00168641
-0.00049837
0.00153557
-0.000404721
0.00143551
-0.000279588
0.0014374
-0.00014492
0.00144724
-6.96624e-05
0.00145571
-3.80411e-05
0.00146341
-1.51416e-05
0.001464
2.14358e-05
0.00144524
8.32128e-05
0.0013932
0.000178407
0.00129515
0.000316907
0.00114873
0.000513671
0.00103321
0.000842389
0.000920386
0.0012958
0.000676919
0.00186706
0.000708241
0.00245494
-0.000898353
0.00160636
-0.00137159
0.000473005
-0.00132778
-0.000613029
0.0104664
-0.000924706
0.00458361
-0.000466492
0.00249151
-2.82878e-05
0.00162923
0.00046695
0.000611388
0.00108311
-0.00075413
0.00162042
-0.00201335
0.00198834
-0.00288937
0.0021729
-0.00335978
0.0022251
-0.00346311
0.00217359
-0.00327759
0.00205932
-0.00288214
0.00192583
-0.0023563
0.00181305
-0.00177219
0.00175038
-0.00119605
0.00175714
-0.00070382
0.00181441
-0.000373921
0.00178518
-0.000270315
0.00164445
-0.000304701
0.00144199
-0.000349797
0.00124099
-0.000353889
0.00106438
-0.000321795
0.00092447
-0.000264848
0.000835313
-0.000190462
0.000806704
-0.000116341
0.000811838
-7.48257e-05
0.000834784
-6.10143e-05
0.00087091
-5.12955e-05
0.000914536
-2.22165e-05
0.000954673
4.30499e-05
0.000982436
0.000150617
0.000996715
0.000302602
0.00100049
0.000509868
0.00103764
0.000805212
0.00115452
0.00117889
0.00136438
0.00165717
0.00181962
0.00199966
0.00207829
0.00134766
0.0016826
0.00086867
0.00040788
-0.00063383
0.0115474
-0.000450156
0.00439988
0.000785997
0.0012553
0.00176346
0.000651713
0.00268135
-0.000306548
0.00346607
-0.00153891
0.00391599
-0.00246333
0.00403687
-0.00301031
0.0038906
-0.00321358
0.00355961
-0.00313218
0.00311779
-0.00283583
0.00263322
-0.00239762
0.00216588
-0.001889
0.0017607
-0.00136704
0.00144136
-0.000876744
0.00122095
-0.000483439
0.00108043
-0.000233432
0.000950554
-0.000140477
0.000792186
-0.000146366
0.000616895
-0.000174539
0.000450033
-0.000187058
0.000307381
-0.000179174
0.000198819
-0.000156316
0.000133655
-0.000125326
0.000115276
-9.79886e-05
0.000130147
-8.97216e-05
0.000165866
-9.67586e-05
0.000219107
-0.00010456
0.000292566
-9.56987e-05
0.000384767
-4.91741e-05
0.000485906
4.94548e-05
0.000596742
0.000191742
0.00072832
0.000378266
0.000911617
0.000621888
0.00119384
0.000896639
0.00162804
0.00122293
0.00229098
0.00133669
0.00282403
0.000814581
0.00284993
0.00084274
0.00331614
0.00270732
0.00934057
0.00348935
0.0036178
0.00411276
0.000631836
0.00517439
-0.000409972
0.00609928
-0.00123149
0.00649782
-0.00193751
0.00642993
-0.00239551
0.00598832
-0.00256877
0.00528169
-0.00250701
0.00442347
-0.00227402
0.00351248
-0.00192488
0.00262999
-0.00151516
0.00183983
-0.00109887
0.00118339
-0.000710625
0.000674578
-0.000367957
0.000328129
-0.000137015
0.000114724
-2.00538e-05
-3.14864e-05
5.70573e-06
-0.000160292
-1.75897e-05
-0.000284736
-5.01228e-05
-0.000399
-7.28217e-05
-0.000494949
-8.32508e-05
-0.000566096
-8.51941e-05
-0.000607658
-8.37869e-05
-0.000619821
-8.58487e-05
-0.000612054
-9.75105e-05
-0.000592667
-0.000116168
-0.000562937
-0.000134311
-0.000516422
-0.000142235
-0.00043774
-0.000127877
-0.000318469
-6.98376e-05
-0.000167929
4.11796e-05
2.19419e-05
0.000188372
0.000276811
0.000366995
0.000608607
0.000564817
0.0010627
0.000768814
0.00160123
0.000798137
0.00186419
0.000551591
0.00113207
0.00157483
0.00467885
0.0098885
0.0134974
0.0124549
0.00167425
0.0118045
0.0002404
0.0109719
-0.00039899
0.00985136
-0.000817007
0.00848637
-0.0010306
0.00699534
-0.00107781
0.00548387
-0.000995589
0.00404028
-0.000830471
0.00272596
-0.000610589
0.00158665
-0.000375878
0.000649944
-0.000162187
-7.12012e-05
1.05067e-05
-0.000549771
0.000110594
-0.000814667
0.000127859
-0.000951806
0.000117062
-0.00103366
8.75326e-05
-0.00110184
5.05713e-05
-0.0011699
1.79145e-05
-0.00123714
-5.61161e-06
-0.00129854
-2.18678e-05
-0.00134994
-3.38158e-05
-0.00139012
-4.3625e-05
-0.00142237
-5.36226e-05
-0.00145553
-6.43696e-05
-0.00149958
-7.21384e-05
-0.00156301
-7.08948e-05
-0.00165568
-4.95873e-05
-0.00178734
3.75955e-06
-0.00195561
9.8417e-05
-0.00215898
0.00024453
-0.00243236
0.000461725
-0.00283397
0.00076858
-0.00344225
0.00117307
-0.00433246
0.001659
-0.00562918
0.00209484
-0.00725409
0.00217648
-0.00691608
0.00123679
-0.00198374
0.00462425
0.00328203
0.00353121
0.00133335
0.00371618
-0.000583994
0.00355977
-0.000660608
0.00299321
-0.000464049
0.00221838
-0.000302975
0.00135099
-0.000128196
0.000462756
5.77697e-05
-0.000347468
0.00019964
-0.000979025
0.000255671
-0.00140435
0.00026313
-0.00165245
0.000258585
-0.00177724
0.000235367
-0.00184848
0.000199075
-0.00189225
0.000160812
-0.00192879
0.000124053
-0.00196913
9.08892e-05
-0.00201464
6.34071e-05
-0.0020623
4.20247e-05
-0.00210991
2.57296e-05
-0.00215756
1.38107e-05
-0.00220628
5.0782e-06
-0.00225896
-9.55166e-07
-0.00231983
-3.51512e-06
-0.00239255
5.61503e-07
-0.00247784
1.4372e-05
-0.00257142
4.3975e-05
-0.00266561
9.79361e-05
-0.0027534
0.000186184
-0.0028373
0.000328411
-0.00291794
0.000542344
-0.00299529
0.000845902
-0.00306001
0.00123778
-0.00307212
0.00167108
-0.00299806
0.00202075
-0.00266903
0.00184744
-0.00140271
-2.95448e-05
-0.003321
-0.000303982
0.00365768
0.00032956
0.000699793
-0.000374869
0.000120463
-0.00105476
1.93031e-05
-0.00159404
7.52491e-05
-0.0020404
0.00014339
-0.00237606
0.000207465
-0.00257955
0.000261265
-0.00267383
0.000293908
-0.00270833
0.000290168
-0.00270504
0.000259821
-0.00267123
0.000224761
-0.00262638
0.000190501
-0.00258697
0.000159647
-0.00256016
0.000133986
-0.00254894
0.000112812
-0.0025533
9.52361e-05
-0.00257083
8.09138e-05
-0.00259849
6.96715e-05
-0.00263396
6.11866e-05
-0.0026752
5.50359e-05
-0.0027206
5.04621e-05
-0.00276853
4.69588e-05
-0.00281662
4.45575e-05
-0.00285968
4.36013e-05
-0.00289289
4.75679e-05
-0.00290919
6.02562e-05
-0.0028991
8.7831e-05
-0.00285083
0.000137893
-0.00274364
0.000221202
-0.00255205
0.000350737
-0.00225001
0.000543835
-0.00181093
0.000798687
-0.0011931
0.00105323
-0.000233922
0.00106155
0.00110315
0.000510345
0.00167185
-0.000598261
-0.00157791
-0.0069213
-0.00981209
-0.00611436
-0.00539949
-0.00527267
-0.0052511
-0.00517612
-0.00503503
-0.00483163
-0.00457606
-0.0042894
-0.00400799
-0.00375828
-0.00354474
-0.00336636
-0.00321953
-0.00309895
-0.00300002
-0.00291911
-0.0028529
-0.00279828
-0.00275245
-0.00271308
-0.00267854
-0.00264775
-0.00261954
-0.00259241
-0.00256133
-0.00251747
-0.00244584
-0.00232385
-0.00211817
-0.00178251
-0.00125325
-0.000468637
0.000571015
0.00161909
0.00211559
0.00150279
)
;

boundaryField
{
    floor
    {
        type            calculated;
        value           nonuniform List<scalar> 
29
(
0
0
0
0
0
0
0
0
0
0
0
0
0
0
0
0
0
0
0
0
-2.81664e-06
-7.55499e-06
-1.17644e-05
-1.55974e-05
-1.39069e-06
-2.18926e-06
-6.44408e-06
-7.34289e-06
-6.46201e-06
)
;
    }
    ceiling
    {
        type            calculated;
        value           nonuniform List<scalar> 
43
(
-4.2527e-05
-4.13053e-05
-4.00428e-05
-1.50709e-05
-6.35157e-06
-2.26187e-06
2.72927e-07
2.29585e-06
4.05958e-06
5.68402e-06
7.24562e-06
8.74753e-06
1.00944e-05
1.12125e-05
1.21019e-05
1.28086e-05
1.33863e-05
1.38776e-05
1.43084e-05
1.4692e-05
1.50371e-05
1.53523e-05
1.56442e-05
1.59132e-05
1.61504e-05
1.6338e-05
1.64528e-05
1.64716e-05
1.63825e-05
1.61849e-05
1.58882e-05
1.55064e-05
1.50564e-05
1.45593e-05
1.40525e-05
1.35603e-05
1.34565e-05
1.38315e-05
1.45147e-05
1.606e-05
1.19679e-05
8.85375e-06
-7.16744e-05
)
;
    }
    sWall
    {
        type            calculated;
        value           uniform -0.000273471;
    }
    nWall
    {
        type            calculated;
        value           nonuniform List<scalar> 6(-4.40383e-05 -5.30884e-05 -5.8359e-05 -6.5471e-05 -7.12558e-05 -9.11985e-05);
    }
    sideWalls
    {
        type            empty;
        value           nonuniform 0();
    }
    glass1
    {
        type            calculated;
        value           nonuniform List<scalar> 9(-5.48152e-05 -0.000148231 -0.000227502 -0.000295503 -0.000353544 -0.000402586 -0.000447155 -0.000500581 -0.000559943);
    }
    glass2
    {
        type            calculated;
        value           nonuniform List<scalar> 2(-0.000230664 -0.00025351);
    }
    sun
    {
        type            calculated;
        value           uniform 0;
    }
    heatsource1
    {
        type            calculated;
        value           nonuniform List<scalar> 3(2.03442e-07 2.03445e-07 2.03466e-07);
    }
    heatsource2
    {
        type            calculated;
        value           nonuniform List<scalar> 4(5.1059e-08 5.11221e-08 0 0);
    }
    Table_master
    {
        type            calculated;
        value           nonuniform List<scalar> 9(-1.52629e-07 -1.52739e-07 -1.52774e-07 -1.52795e-07 -1.52808e-07 -1.52815e-07 -1.52816e-07 -1.52803e-07 -1.52761e-07);
    }
    Table_slave
    {
        type            calculated;
        value           nonuniform List<scalar> 9(1.52491e-07 1.52528e-07 1.52518e-07 1.52513e-07 1.52511e-07 1.52518e-07 1.52541e-07 1.52586e-07 1.52664e-07);
    }
    inlet
    {
        type            calculated;
        value           uniform -0.00623207;
    }
    outlet
    {
        type            calculated;
        value           nonuniform List<scalar> 2(0.00723731 0.0029321);
    }
}


// ************************************************************************* //
