/*--------------------------------*- C++ -*----------------------------------*\
  =========                 |
  \\      /  F ield         | OpenFOAM: The Open Source CFD Toolbox
   \\    /   O peration     | Website:  https://openfoam.org
    \\  /    A nd           | Version:  6
     \\/     M anipulation  |
\*---------------------------------------------------------------------------*/
FoamFile
{
    version     2.0;
    format      ascii;
    class       volScalarField;
    location    "800";
    object      nut;
}
// * * * * * * * * * * * * * * * * * * * * * * * * * * * * * * * * * * * * * //

dimensions      [0 2 -1 0 0 0 0];

internalField   nonuniform List<scalar> 
459
(
0.00112074
0.00123099
0.00126296
0.00132666
0.00138604
0.00144274
0.00150019
0.00154969
0.00158067
0.00158696
0.00156419
0.00150962
0.0014216
0.0013012
0.00116337
0.000383955
0.000443237
0.00049568
0.000514263
0.00049065
0.000448588
0.000398048
0.000358689
0.000332993
0.000315251
0.000300484
0.000285876
0.000270685
0.000256712
0.000250091
0.000263523
0.000332474
0.000611136
0.000456698
0.00149975
0.00374137
0.00363272
0.00424093
0.00485457
0.00545201
0.00593585
0.00633682
0.00669087
0.00696652
0.00713306
0.0071598
0.00700136
0.00655645
0.00539906
0.00119985
0.000766449
0.000434123
0.000936091
0.00142213
0.00170892
0.00188785
0.00189507
0.00155167
0.00134733
0.00122752
0.00116276
0.0011224
0.00107934
0.00101561
0.000924858
0.000820767
0.000706921
0.000682662
0.00147404
0.000505783
0.00181268
0.00508623
0.00453338
0.00555619
0.00609507
0.006503
0.00682066
0.00712072
0.007449
0.00778378
0.00808766
0.0083165
0.00840641
0.00826449
0.00765418
0.00576549
0.00127035
0.000736594
0.00105945
0.00134386
0.00164728
0.00188901
0.00191287
0.000728803
0.000641684
0.000573438
0.000519562
0.000476557
0.000441444
0.000411646
0.000385152
0.000361732
0.000427048
0.000557176
0.00157371
0.000655212
0.00211145
0.00640058
0.004558
0.00582187
0.00620984
0.00635992
0.00649838
0.0067092
0.00701472
0.00738854
0.00778707
0.00815618
0.00840978
0.00848595
0.00832398
0.0075651
0.0048243
0.00146589
0.00162346
0.00190108
0.00220134
0.00247245
0.0026733
0.00262249
0.000893372
0.000826336
0.000776376
0.000739382
0.000711285
0.000686758
0.000658935
0.000628319
0.000593276
0.000597599
0.000678592
0.00144591
0.00074269
0.00241738
0.00809619
0.00494935
0.00565628
0.00611733
0.00613911
0.00613694
0.00630771
0.00659805
0.00699215
0.00743348
0.00784156
0.0081325
0.00826186
0.00821933
0.00793661
0.0071804
0.00596323
0.0054244
0.0051588
0.00500427
0.00489556
0.00480144
0.00466815
0.00420115
0.00392937
0.00377241
0.00367624
0.00359095
0.00346906
0.00327251
0.0029095
0.00242965
0.00194297
0.00152176
0.00125891
0.00143544
0.00084231
0.000792249
0.000832986
0.00274483
0.00997872
0.00671259
0.00573434
0.00611875
0.00612821
0.00613335
0.00622806
0.00645262
0.00683256
0.00730263
0.00774428
0.00804408
0.00814821
0.00807809
0.00789478
0.00763905
0.00733979
0.0071118
0.00691748
0.00672461
0.00653757
0.00635926
0.0061772
0.00594398
0.00573147
0.00552999
0.00531012
0.00503984
0.0047168
0.00436785
0.00400511
0.00358293
0.00309485
0.00260284
0.00208998
0.00192839
0.00179191
0.00187479
0.00102202
0.00304196
0.0112895
0.00930286
0.00738651
0.00705145
0.00671527
0.00641512
0.00633132
0.00651745
0.00693744
0.00747
0.00795061
0.0082429
0.00829744
0.00817101
0.00800029
0.00791671
0.00793012
0.00794193
0.00786217
0.00768805
0.00745248
0.0071983
0.00693669
0.00665386
0.00634945
0.00599803
0.00558989
0.00517204
0.00481731
0.0045623
0.00438592
0.0042273
0.00400324
0.00369139
0.00340371
0.00322939
0.00306072
0.00280795
0.00124284
0.00309884
0.00991805
0.00890727
0.00814965
0.00737436
0.00665801
0.00627475
0.00630478
0.00670185
0.00733074
0.00799425
0.00849245
0.00870655
0.00864093
0.00842554
0.00826366
0.00829532
0.00841731
0.00841347
0.00824326
0.00796893
0.00763459
0.00726136
0.00684563
0.00637502
0.00586196
0.00536328
0.00495489
0.0046811
0.00455445
0.00453079
0.0045736
0.00467731
0.00484069
0.00500408
0.00507792
0.00516355
0.00482338
0.00464761
0.00149381
0.00301862
0.00357269
0.00392438
0.00398946
0.00414737
0.00457359
0.00530756
0.00629438
0.00738307
0.0083737
0.0090674
0.00933458
0.0092023
0.00884651
0.00860266
0.00851772
0.00846166
0.00837083
0.00817847
0.00787024
0.00747573
0.00701707
0.00649896
0.00591805
0.00529651
0.00471806
0.00429356
0.00406479
0.00397549
0.00393616
0.00388867
0.00380709
0.0036884
0.00354071
0.00337217
0.00318504
0.00289796
0.00256097
0.00229973
0.00142023
0.00133074
0.00296165
0.00555629
0.0075354
0.00896215
0.0099304
0.0104376
0.0105217
0.0102304
0.00971409
0.00902107
0.00842558
0.00807687
0.00788442
0.00767258
0.0073917
0.00703546
0.00661561
0.00615443
0.00567165
0.00518269
0.00470628
0.00427671
0.00394363
0.00374348
0.00366848
0.00367402
0.0037117
0.00374832
0.00376337
0.00374453
0.00368143
0.0035604
0.00336305
0.00307675
0.0027294
0.00231423
0.00124258
0.00190232
0.00567598
0.00825168
0.00941264
0.00987766
0.00989795
0.00954442
0.00894592
0.00824626
0.00758661
0.00699489
0.00652312
0.00616006
0.00584503
0.00554388
0.00525099
0.00496171
0.00467576
0.0043985
0.00413725
0.00390051
0.00369949
0.00354844
0.00346117
0.0034437
0.00348796
0.00357312
0.00367337
0.00376512
0.00383077
0.00386025
0.00385015
0.00379663
0.00367947
0.00345312
0.00319634
0.00302902
0.00128342
0.00175121
0.00185977
0.00193593
0.00211895
0.00207221
0.00202543
0.0019792
0.00189573
0.00177613
0.00163401
0.00148314
0.00133672
0.00121228
0.00111882
0.00105268
0.00100584
0.00097137
0.00094456
0.000922584
0.000904142
0.000888894
0.000877027
0.000869049
0.000865677
0.000867671
0.000875583
0.000889455
0.000908714
0.000932504
0.000960372
0.000992896
0.00103175
0.00107874
0.00113749
0.00120412
0.00125298
0.00125762
0.00119347
0.0011192
0.00102685
)
;

boundaryField
{
    floor
    {
        type            nutkWallFunction;
        Cmu             0.09;
        kappa           0.41;
        E               9.8;
        value           nonuniform List<scalar> 
29
(
0.000139789
4.46361e-05
5.23937e-05
5.91466e-05
6.15188e-05
5.85033e-05
5.30874e-05
4.64947e-05
4.12873e-05
3.78476e-05
3.54516e-05
3.34426e-05
3.14417e-05
2.93459e-05
2.74044e-05
2.64797e-05
2.83519e-05
3.77648e-05
7.37253e-05
5.41246e-05
5.41245e-05
6.04352e-05
7.91979e-05
8.99106e-05
0.00013979
4.4636e-05
5.1215e-05
8.91988e-05
0.000174313
)
;
    }
    ceiling
    {
        type            nutkWallFunction;
        Cmu             0.09;
        kappa           0.41;
        E               9.8;
        value           nonuniform List<scalar> 
43
(
0.00020601
0.000217954
0.000226291
0.00024629
0.000241267
0.000236204
0.000231179
0.00022206
0.000208911
0.000193156
0.000176265
0.000159688
0.000145439
0.00013463
0.000126917
0.000121422
0.000117359
0.000114188
0.00011158
0.000109386
0.000107567
0.000106148
0.000105192
0.000104786
0.000105022
0.000105965
0.00010762
0.000109915
0.000112744
0.00011605
0.000119893
0.000124465
0.000129966
0.000136807
0.000144504
0.000150117
0.000150645
0.00014326
0.000134665
0.000123883
0.00034208
0.000399418
0.000222471
)
;
    }
    sWall
    {
        type            nutkWallFunction;
        Cmu             0.09;
        kappa           0.41;
        E               9.8;
        value           uniform 0.000206066;
    }
    nWall
    {
        type            nutkWallFunction;
        Cmu             0.09;
        kappa           0.41;
        E               9.8;
        value           nonuniform List<scalar> 6(0.000100794 0.000123401 0.000148996 0.000148948 0.000153631 0.00012389);
    }
    sideWalls
    {
        type            empty;
    }
    glass1
    {
        type            nutkWallFunction;
        Cmu             0.09;
        kappa           0.41;
        E               9.8;
        value           nonuniform List<scalar> 9(0.000134953 0.000178339 0.000213226 0.000245925 0.000278895 0.0003137 0.00034491 0.000350857 0.000342496);
    }
    glass2
    {
        type            nutkWallFunction;
        Cmu             0.09;
        kappa           0.41;
        E               9.8;
        value           nonuniform List<scalar> 2(0.000177497 0.000169191);
    }
    sun
    {
        type            nutkWallFunction;
        Cmu             0.09;
        kappa           0.41;
        E               9.8;
        value           nonuniform List<scalar> 
14
(
0.000134841
0.000147576
0.000151245
0.000158525
0.000165276
0.000171693
0.000178166
0.000183721
0.000187189
0.000187892
0.000185345
0.000179227
0.000169305
0.000155625
)
;
    }
    heatsource1
    {
        type            nutkWallFunction;
        Cmu             0.09;
        kappa           0.41;
        E               9.8;
        value           nonuniform List<scalar> 3(0.000102017 9.59909e-05 0.000100792);
    }
    heatsource2
    {
        type            nutkWallFunction;
        Cmu             0.09;
        kappa           0.41;
        E               9.8;
        value           nonuniform List<scalar> 4(0.000143996 9.28271e-05 9.28271e-05 0.000152095);
    }
    Table_master
    {
        type            nutkWallFunction;
        Cmu             0.09;
        kappa           0.41;
        E               9.8;
        value           nonuniform List<scalar> 9(8.82475e-05 7.75308e-05 6.90133e-05 6.2202e-05 5.67028e-05 5.21672e-05 4.82824e-05 4.47982e-05 4.16922e-05);
    }
    Table_slave
    {
        type            nutkWallFunction;
        Cmu             0.09;
        kappa           0.41;
        E               9.8;
        value           nonuniform List<scalar> 9(0.000108091 0.000100063 9.40291e-05 8.95304e-05 8.60943e-05 8.30808e-05 7.96477e-05 7.58518e-05 7.14803e-05);
    }
    inlet
    {
        type            calculated;
        value           uniform 0.000100623;
    }
    outlet
    {
        type            calculated;
        value           nonuniform List<scalar> 2(0.00175121 0.00185977);
    }
}


// ************************************************************************* //
