/*--------------------------------*- C++ -*----------------------------------*\
  =========                 |
  \\      /  F ield         | OpenFOAM: The Open Source CFD Toolbox
   \\    /   O peration     | Website:  https://openfoam.org
    \\  /    A nd           | Version:  6
     \\/     M anipulation  |
\*---------------------------------------------------------------------------*/
FoamFile
{
    version     2.0;
    format      ascii;
    class       volScalarField;
    location    "190";
    object      T;
}
// * * * * * * * * * * * * * * * * * * * * * * * * * * * * * * * * * * * * * //

dimensions      [0 0 0 1 0 0 0];

internalField   nonuniform List<scalar> 
459
(
305.773
305.604
305.599
305.599
305.599
305.599
305.597
305.592
305.584
305.577
305.571
305.568
305.566
305.556
305.527
305.511
305.569
305.624
305.65
305.664
305.673
305.676
305.676
305.675
305.673
305.671
305.669
305.667
305.665
305.663
305.659
305.655
305.644
305.577
305.895
305.65
305.641
305.646
305.649
305.649
305.643
305.629
305.61
305.592
305.581
305.578
305.58
305.58
305.569
305.577
305.584
305.606
305.64
305.663
305.683
305.701
305.714
305.72
305.724
305.727
305.73
305.733
305.735
305.737
305.737
305.734
305.727
305.713
305.69
305.687
306.018
305.692
305.674
305.685
305.695
305.699
305.692
305.666
305.629
305.597
305.578
305.575
305.58
305.586
305.587
305.589
305.59
305.625
305.648
305.672
305.697
305.721
305.74
305.743
305.746
305.75
305.754
305.757
305.761
305.764
305.767
305.767
305.764
305.75
305.727
305.719
306.142
305.738
305.707
305.726
305.748
305.763
305.753
305.709
305.647
305.598
305.571
305.568
305.577
305.588
305.596
305.599
305.599
305.604
305.623
305.649
305.682
305.716
305.748
305.775
305.799
305.819
305.836
305.852
305.867
305.88
305.891
305.901
305.907
305.871
305.828
305.783
305.756
306.264
305.792
305.741
305.764
305.801
305.833
305.815
305.744
305.656
305.593
305.562
305.56
305.574
305.592
305.607
305.615
305.622
305.635
305.658
305.688
305.723
305.76
305.794
305.824
305.852
305.875
305.895
305.912
305.926
305.937
305.945
305.949
305.947
305.928
305.892
305.845
305.8
305.803
305.807
305.831
306.376
305.861
305.79
305.805
305.851
305.893
305.849
305.753
305.651
305.578
305.546
305.549
305.573
305.603
305.628
305.645
305.66
305.681
305.709
305.743
305.779
305.816
305.85
305.88
305.906
305.927
305.945
305.959
305.969
305.977
305.982
305.982
305.977
305.964
305.939
305.906
305.863
305.846
305.837
305.846
306.482
305.968
305.893
305.899
305.945
305.94
305.852
305.724
305.608
305.536
305.517
305.539
305.582
305.628
305.666
305.694
305.718
305.745
305.775
305.81
305.846
305.88
305.91
305.936
305.957
305.973
305.985
305.994
305.999
306.002
306.002
306
305.994
305.984
305.966
305.942
305.909
305.882
305.863
305.861
306.631
306.238
306.147
306.117
306.084
305.965
305.789
305.618
305.504
305.462
305.483
305.542
305.613
305.679
305.728
305.765
305.792
305.821
305.852
305.884
305.916
305.943
305.966
305.983
305.996
306.004
306.009
306.011
306.011
306.009
306.005
306
305.995
305.987
305.973
305.956
305.931
305.908
305.889
305.931
306.841
306.652
306.481
306.326
306.089
305.766
305.497
305.348
305.319
305.375
305.478
305.59
305.688
305.768
305.817
305.847
305.873
305.9
305.928
305.953
305.974
305.991
306.004
306.012
306.016
306.017
306.015
306.012
306.008
306.002
305.996
305.989
305.98
305.972
305.965
305.958
305.956
305.959
305.97
306.003
301.832
302.812
303.382
303.912
304.397
304.821
305.158
305.412
305.608
305.736
305.815
305.865
305.898
305.923
305.944
305.965
305.983
305.998
306.009
306.016
306.019
306.02
306.019
306.016
306.012
306.007
306.002
305.996
305.99
305.984
305.979
305.974
305.97
305.968
305.97
305.977
305.992
306.036
302.001
302.837
303.539
304.227
304.816
305.237
305.493
305.666
305.783
305.856
305.903
305.935
305.957
305.974
305.989
306.001
306.01
306.017
306.02
306.021
306.021
306.018
306.015
306.012
306.008
306.004
306
305.996
305.992
305.989
305.985
305.982
305.979
305.977
305.978
305.982
305.998
306.024
303.405
303.293
303.287
304.446
305.031
305.33
305.547
305.697
305.795
305.859
305.906
305.939
305.961
305.977
305.988
305.997
306.003
306.007
306.009
306.009
306.008
306.005
306.002
305.998
305.995
305.992
305.989
305.986
305.985
305.983
305.982
305.982
305.982
305.981
305.981
305.981
305.982
305.987
305.995
306.029
)
;

boundaryField
{
    floor
    {
        type            wallHeatTransfer;
        Tinf            uniform 301.25;
        alphaWall       uniform 0.24;
        value           nonuniform List<scalar> 
29
(
304.984
304.825
304.957
305.014
305.039
305.045
305.037
305.009
304.974
304.936
304.899
304.862
304.827
304.792
304.759
304.724
304.687
304.647
304.593
304.605
304.605
304.836
304.921
305.014
304.984
304.825
305.072
305.114
305.177
)
;
    }
    ceiling
    {
        type            wallHeatTransfer;
        Tinf            uniform 301.25;
        alphaWall       uniform 0.24;
        value           nonuniform List<scalar> 
43
(
303.221
303.13
303.134
304.216
304.769
305.06
305.27
305.411
305.499
305.554
305.589
305.611
305.627
305.638
305.647
305.654
305.66
305.665
305.667
305.667
305.666
305.663
305.66
305.657
305.653
305.649
305.645
305.64
305.634
305.627
305.618
305.608
305.597
305.586
305.576
305.567
305.561
305.558
305.577
305.597
306.551
306.409
301.95
)
;
    }
    sWall
    {
        type            wallHeatTransfer;
        Tinf            uniform 314.15;
        alphaWall       uniform 0.36;
        value           uniform 304.727;
    }
    nWall
    {
        type            wallHeatTransfer;
        Tinf            uniform 308.15;
        alphaWall       uniform 0.36;
        value           nonuniform List<scalar> 6(306.357 306.311 306.276 306.304 306.266 306.305);
    }
    sideWalls
    {
        type            empty;
    }
    glass1
    {
        type            wallHeatTransfer;
        Tinf            uniform 314.15;
        alphaWall       uniform 4.3;
        value           nonuniform List<scalar> 9(311.589 311.188 310.93 310.731 310.563 310.408 310.291 310.333 310.479);
    }
    glass2
    {
        type            wallHeatTransfer;
        Tinf            uniform 308.15;
        alphaWall       uniform 4.3;
        value           nonuniform List<scalar> 2(307.469 307.455);
    }
    sun
    {
        type            wallHeatTransfer;
        Tinf            uniform 301.25;
        alphaWall       uniform 0.24;
        value           nonuniform List<scalar> 
14
(
305.272
305.156
305.161
305.179
305.194
305.207
305.218
305.222
305.219
305.211
305.198
305.179
305.138
305.074
)
;
    }
    heatsource1
    {
        type            fixedGradient;
        gradient        uniform 0;
    }
    heatsource2
    {
        type            fixedGradient;
        gradient        uniform 0;
    }
    Table_master
    {
        type            zeroGradient;
    }
    Table_slave
    {
        type            zeroGradient;
    }
    inlet
    {
        type            fixedValue;
        value           uniform 299.15;
    }
    outlet
    {
        type            zeroGradient;
    }
}


// ************************************************************************* //
