/*--------------------------------*- C++ -*----------------------------------*\
  =========                 |
  \\      /  F ield         | OpenFOAM: The Open Source CFD Toolbox
   \\    /   O peration     | Website:  https://openfoam.org
    \\  /    A nd           | Version:  6
     \\/     M anipulation  |
\*---------------------------------------------------------------------------*/
FoamFile
{
    version     2.0;
    format      ascii;
    class       volScalarField;
    location    "140";
    object      nut;
}
// * * * * * * * * * * * * * * * * * * * * * * * * * * * * * * * * * * * * * //

dimensions      [0 2 -1 0 0 0 0];

internalField   nonuniform List<scalar> 
459
(
0.00205497
0.00232428
0.00227784
0.00213332
0.00197443
0.00182973
0.0017036
0.00159045
0.00148677
0.00138991
0.00129746
0.00120679
0.00111436
0.00101354
0.000904527
0.000686303
0.000852393
0.000816198
0.000770502
0.000725026
0.000678721
0.000631063
0.000587912
0.000550122
0.000517314
0.000488843
0.000463959
0.000441822
0.000422101
0.000403811
0.000385729
0.000369946
0.000359612
0.000417964
0.00241651
0.00732663
0.00649441
0.00575498
0.0051974
0.00476051
0.00436776
0.00400887
0.00366847
0.00333291
0.00298722
0.00261605
0.00220808
0.00175585
0.00130768
0.000863538
0.000738078
0.000944134
0.00307632
0.00255989
0.00255562
0.0025644
0.00242828
0.00192504
0.00162247
0.00141055
0.00125112
0.00112647
0.00102775
0.000950919
0.000877804
0.000799895
0.000728348
0.000766034
0.000832623
0.000561741
0.00255268
0.00919974
0.00718468
0.00598666
0.00538487
0.00508934
0.00488732
0.00468506
0.00444086
0.004138
0.0037688
0.00333132
0.00283315
0.00229268
0.00175958
0.00126331
0.000745977
0.000903491
0.00264944
0.00283309
0.00314666
0.00331491
0.00299836
0.000857498
0.000747797
0.000663284
0.000596675
0.000543017
0.000498986
0.000462474
0.000433288
0.000412449
0.000477816
0.000701751
0.00107435
0.000663532
0.00253627
0.00910528
0.00661088
0.00517435
0.00482177
0.00489648
0.00494829
0.00489505
0.00473541
0.00447476
0.00412083
0.00368463
0.00318731
0.00265797
0.00212808
0.00162043
0.00112969
0.000780526
0.00174955
0.00246667
0.00324859
0.00383596
0.0041239
0.00370606
0.000950865
0.000866205
0.000799542
0.000742625
0.000690485
0.000639793
0.000587974
0.000532516
0.000467774
0.000482783
0.000673856
0.00131065
0.000777824
0.00248894
0.00774097
0.0056064
0.00458657
0.00479378
0.00497531
0.00503665
0.00501261
0.00489567
0.00468721
0.00439452
0.004022
0.00359268
0.00315105
0.00271852
0.00235244
0.0021271
0.0025504
0.00339291
0.00420919
0.00479334
0.00514894
0.00530735
0.00517869
0.00432941
0.00380391
0.00336682
0.00296342
0.00256777
0.00216659
0.00175459
0.00133748
0.000929778
0.000728134
0.000777826
0.00122432
0.00109388
0.000812366
0.000887354
0.00123648
0.00240119
0.00619378
0.00458608
0.00446313
0.00509566
0.00526673
0.00528375
0.00525739
0.00518116
0.00505009
0.00486817
0.00464507
0.00439602
0.00414159
0.00392059
0.00386606
0.00407407
0.00481731
0.00540399
0.0058023
0.00604045
0.00615087
0.00616592
0.00605737
0.00569582
0.00520805
0.00466858
0.00410439
0.00352457
0.00293331
0.00233935
0.00176615
0.00133758
0.00121099
0.0012939
0.00137175
0.00124792
0.00132005
0.00195513
0.00167726
0.00227552
0.00491396
0.0039505
0.00449115
0.00527286
0.00550334
0.00550391
0.00546808
0.00541283
0.00533991
0.00525871
0.00518705
0.00513707
0.00512515
0.00518134
0.00537229
0.00572481
0.00618913
0.00645212
0.00657582
0.00659309
0.00653352
0.0064181
0.00620752
0.00586935
0.0054312
0.00492183
0.00436563
0.00378456
0.00320507
0.00266788
0.00223734
0.00201175
0.00205485
0.00220604
0.00217646
0.0016602
0.00202121
0.00366
0.00226126
0.00211184
0.00371067
0.00354199
0.0047976
0.00525809
0.00542428
0.00539222
0.00535168
0.00531886
0.00529695
0.00529186
0.00532971
0.00540888
0.00553465
0.00571992
0.00597016
0.00625964
0.00650143
0.00660466
0.00658715
0.00645611
0.00623423
0.00593161
0.00560218
0.00525282
0.00487485
0.00446666
0.00404207
0.00362916
0.00327028
0.00302093
0.00293962
0.00306074
0.00332805
0.00353419
0.00352477
0.00281943
0.00291572
0.0063826
0.00307862
0.00185111
0.00187725
0.00295367
0.0060899
0.00614289
0.00598798
0.00591322
0.00590879
0.005915
0.00591963
0.0059323
0.00596651
0.00603079
0.00612707
0.00625378
0.00639942
0.00653536
0.00660948
0.00658188
0.00645228
0.00622048
0.0059079
0.00557696
0.00526021
0.00496597
0.00469521
0.00445266
0.00425327
0.00412137
0.0040863
0.00417525
0.00440032
0.00473589
0.00508554
0.00529182
0.00528524
0.00474908
0.0044816
0.00814148
0.00341447
0.00172983
0.00704746
0.00768394
0.00758289
0.00753861
0.00751415
0.00745006
0.00734454
0.00725085
0.0071993
0.00721172
0.00728462
0.00738489
0.00747794
0.00753674
0.00753597
0.00746271
0.00732243
0.00712738
0.00690185
0.00667741
0.00646822
0.00628137
0.00612373
0.00600538
0.00594072
0.00594718
0.0060418
0.00623432
0.00651477
0.00683491
0.00708839
0.00714632
0.00710056
0.00691706
0.00667111
0.00839434
0.00285805
0.00277162
0.00894766
0.00958427
0.0094331
0.00927981
0.00917704
0.00907256
0.00892642
0.0087629
0.00863025
0.00858252
0.00865101
0.00876803
0.00887699
0.00895997
0.00900085
0.00897148
0.00883796
0.00866468
0.00848968
0.00832694
0.00817925
0.00804895
0.00794131
0.00786482
0.00783073
0.0078522
0.00794232
0.00810928
0.00834592
0.00861028
0.00879883
0.008787
0.00866782
0.00837268
0.00776117
0.00660985
0.0023765
0.00121313
0.00100728
0.00152849
0.00217094
0.00229907
0.00229019
0.0022646
0.00224551
0.00222751
0.00220236
0.00216972
0.00213663
0.00211469
0.00211265
0.00211738
0.00212184
0.00212417
0.00212224
0.00211434
0.00210551
0.00209557
0.00208512
0.002075
0.00206584
0.00205814
0.0020524
0.00204926
0.00204947
0.00205377
0.00206275
0.00207624
0.00209221
0.00210531
0.00210905
0.00210803
0.00210173
0.00210806
0.00216197
0.00218733
0.00197059
)
;

boundaryField
{
    floor
    {
        type            nutkWallFunction;
        Cmu             0.09;
        kappa           0.41;
        E               9.8;
        value           nonuniform List<scalar> 
29
(
0.000109422
8.3044e-05
0.000103189
9.88508e-05
9.3334e-05
8.78023e-05
8.21256e-05
7.62332e-05
7.08513e-05
6.60986e-05
6.19402e-05
5.83053e-05
5.51069e-05
5.22437e-05
4.96778e-05
4.72847e-05
4.49054e-05
4.28165e-05
4.14402e-05
4.91255e-05
4.91254e-05
6.75476e-05
8.02357e-05
9.4209e-05
0.000109422
8.3044e-05
0.000114135
0.000109306
9.45442e-05
)
;
    }
    ceiling
    {
        type            nutkWallFunction;
        Cmu             0.09;
        kappa           0.41;
        E               9.8;
        value           nonuniform List<scalar> 
43
(
0.000145621
0.000121627
0.000181486
0.000252221
0.000266008
0.000265028
0.000262254
0.00026018
0.000258223
0.000255492
0.000251949
0.000248356
0.000245975
0.000245755
0.000246268
0.00024675
0.000247001
0.000246791
0.000245933
0.000244975
0.000243895
0.00024276
0.00024166
0.000240665
0.000239826
0.000239202
0.00023886
0.000238881
0.000239349
0.000240325
0.000241789
0.000243523
0.000244943
0.000245348
0.000245236
0.000244551
0.000245236
0.000251075
0.000253817
0.000230286
0.000217113
0.000219972
0.000316181
)
;
    }
    sWall
    {
        type            nutkWallFunction;
        Cmu             0.09;
        kappa           0.41;
        E               9.8;
        value           uniform 0.000145612;
    }
    nWall
    {
        type            nutkWallFunction;
        Cmu             0.09;
        kappa           0.41;
        E               9.8;
        value           nonuniform List<scalar> 6(0.000148212 0.000197968 0.000261771 0.000325193 0.000274153 0.000230282);
    }
    sideWalls
    {
        type            empty;
    }
    glass1
    {
        type            nutkWallFunction;
        Cmu             0.09;
        kappa           0.41;
        E               9.8;
        value           nonuniform List<scalar> 9(0.000239277 0.000278195 0.000292691 0.000290948 0.000285914 0.000276557 0.000263091 0.000245437 0.000217011);
    }
    glass2
    {
        type            nutkWallFunction;
        Cmu             0.09;
        kappa           0.41;
        E               9.8;
        value           nonuniform List<scalar> 2(0.000348064 0.000382869);
    }
    sun
    {
        type            nutkWallFunction;
        Cmu             0.09;
        kappa           0.41;
        E               9.8;
        value           nonuniform List<scalar> 
14
(
0.000239409
0.000268479
0.000263495
0.000247909
0.000230642
0.000214789
0.000200859
0.000188267
0.000176643
0.000165702
0.000155181
0.000144781
0.000134089
0.00012231
)
;
    }
    heatsource1
    {
        type            nutkWallFunction;
        Cmu             0.09;
        kappa           0.41;
        E               9.8;
        value           nonuniform List<scalar> 3(9.83864e-05 0.00010738 0.000148227);
    }
    heatsource2
    {
        type            nutkWallFunction;
        Cmu             0.09;
        kappa           0.41;
        E               9.8;
        value           nonuniform List<scalar> 4(0.000104534 8.93833e-05 8.93833e-05 9.03465e-05);
    }
    Table_master
    {
        type            nutkWallFunction;
        Cmu             0.09;
        kappa           0.41;
        E               9.8;
        value           nonuniform List<scalar> 9(0.000103831 9.05828e-05 8.02192e-05 7.19391e-05 6.51872e-05 5.95853e-05 5.48934e-05 5.11097e-05 4.83885e-05);
    }
    Table_slave
    {
        type            nutkWallFunction;
        Cmu             0.09;
        kappa           0.41;
        E               9.8;
        value           nonuniform List<scalar> 9(0.000114952 0.000104875 9.68605e-05 8.99549e-05 8.35734e-05 7.73135e-05 7.08519e-05 6.38589e-05 5.558e-05);
    }
    inlet
    {
        type            calculated;
        value           uniform 6.7082e-05;
    }
    outlet
    {
        type            calculated;
        value           nonuniform List<scalar> 2(0.00121313 0.00100728);
    }
}


// ************************************************************************* //
