/*--------------------------------*- C++ -*----------------------------------*\
  =========                 |
  \\      /  F ield         | OpenFOAM: The Open Source CFD Toolbox
   \\    /   O peration     | Website:  https://openfoam.org
    \\  /    A nd           | Version:  6
     \\/     M anipulation  |
\*---------------------------------------------------------------------------*/
FoamFile
{
    version     2.0;
    format      ascii;
    class       volScalarField;
    location    "310";
    object      alphat;
}
// * * * * * * * * * * * * * * * * * * * * * * * * * * * * * * * * * * * * * //

dimensions      [1 -1 -1 0 0 0 0];

internalField   nonuniform List<scalar> 
459
(
0.00112195
0.00123103
0.00126075
0.00132499
0.00138565
0.00144443
0.00150515
0.00155728
0.00159149
0.00160054
0.00157842
0.00152172
0.00142758
0.0012807
0.000992826
0.00068927
0.00087759
0.000852828
0.000832571
0.000810775
0.000781239
0.000734394
0.000685039
0.000639624
0.000599115
0.000563288
0.000531595
0.000503172
0.000477172
0.000452608
0.00042812
0.00040395
0.000374322
0.000413572
0.0015086
0.00371579
0.00356338
0.0041432
0.00473336
0.00531346
0.00577718
0.00619266
0.00658001
0.0069029
0.00711642
0.00717985
0.00704818
0.00661943
0.00512733
0.00119915
0.000847053
0.000977652
0.00298117
0.00278919
0.00300514
0.00316644
0.00305945
0.00226646
0.00190607
0.0016647
0.00148543
0.00134455
0.00122349
0.00111574
0.00101484
0.000918045
0.000836537
0.000839397
0.000793109
0.000525322
0.00182932
0.00502691
0.00439932
0.0053666
0.00583883
0.00619516
0.00648101
0.00679304
0.00717011
0.0075938
0.00800383
0.00833512
0.00850814
0.0083924
0.0076206
0.00540638
0.00121507
0.00111536
0.00251829
0.00322937
0.00380554
0.00414838
0.00380697
0.00101816
0.000885176
0.000780993
0.000699146
0.000634103
0.000582034
0.000540097
0.000506691
0.000481844
0.000548625
0.000719297
0.000911938
0.000579823
0.00213517
0.00630484
0.00437786
0.00556098
0.00583798
0.00591532
0.00602709
0.00625084
0.00661272
0.00711228
0.00766187
0.00818159
0.00856807
0.00873522
0.00855618
0.00759759
0.00454856
0.00144783
0.00221069
0.00308258
0.00404455
0.00482225
0.00523593
0.00470684
0.00112317
0.00101838
0.000948837
0.000900232
0.000863116
0.000830078
0.000794915
0.000759409
0.000718162
0.000689544
0.000743536
0.00104217
0.000652906
0.00244611
0.00794321
0.00466322
0.0053565
0.00566472
0.00558567
0.00559429
0.00578417
0.00613175
0.0066817
0.00729956
0.00787206
0.00830478
0.0085526
0.00859024
0.00831851
0.00747964
0.0065456
0.00641513
0.00657932
0.00677906
0.00689169
0.00684438
0.0064772
0.00530706
0.00478636
0.00451129
0.00433584
0.0041918
0.00403534
0.00380959
0.00339753
0.00283711
0.00221589
0.00170171
0.00154026
0.00109552
0.000733029
0.000715635
0.000677354
0.00277647
0.00976429
0.00619804
0.00527449
0.00562052
0.00557067
0.00552844
0.00566653
0.00598497
0.00651392
0.00716287
0.00777351
0.00821527
0.00844041
0.0084915
0.00845351
0.00838756
0.00836567
0.00840687
0.00839742
0.00827959
0.0080419
0.00769771
0.00725538
0.00671599
0.00629643
0.00598871
0.00575235
0.00555713
0.00537293
0.0051571
0.00482951
0.00434111
0.00371131
0.00303956
0.00251423
0.00195686
0.00150496
0.00161149
0.000827102
0.00308538
0.0111008
0.0087177
0.00653965
0.00621772
0.00602825
0.005796
0.00577528
0.00605882
0.00662611
0.00733531
0.00798896
0.00843658
0.00863621
0.00867496
0.00872047
0.00888468
0.0090846
0.00914789
0.00900142
0.00867095
0.00821333
0.00769102
0.00716714
0.00670021
0.00633888
0.00606634
0.00585581
0.00569121
0.00555293
0.0054041
0.00520635
0.00493252
0.00451417
0.00398694
0.00344836
0.00286211
0.00228122
0.00210162
0.000972983
0.00315477
0.0101675
0.00880495
0.00786315
0.00716964
0.00638987
0.00590252
0.0058712
0.00628674
0.00702296
0.00785198
0.00854272
0.00896566
0.00911708
0.00912052
0.00912694
0.00917713
0.00917104
0.00900977
0.00866757
0.00819137
0.00765887
0.00713967
0.00668993
0.00633216
0.00605415
0.00582476
0.00562527
0.00545627
0.00531842
0.00518347
0.00501513
0.00484185
0.00470156
0.00440216
0.00406016
0.00365302
0.00298422
0.00314701
0.00120231
0.00307929
0.00367897
0.00425187
0.00438094
0.00442618
0.00461303
0.0050541
0.00580045
0.006815
0.00791272
0.008835
0.00941919
0.00966287
0.00962694
0.00942622
0.00909155
0.00874185
0.0084565
0.0081773
0.00785287
0.00748764
0.00713091
0.00681355
0.00654845
0.00631951
0.00610015
0.00586565
0.00560407
0.00532195
0.0050341
0.00472211
0.00432163
0.00383242
0.00338042
0.00302881
0.00272525
0.00246416
0.00224767
0.00210305
0.00130015
0.00241123
0.00418759
0.00523337
0.00624394
0.00721762
0.0082076
0.00914235
0.00985291
0.0101785
0.0101382
0.00984268
0.00931066
0.00879472
0.00841505
0.00817205
0.00800955
0.00788055
0.00776204
0.0076456
0.00752474
0.00739603
0.00726024
0.00710688
0.00692109
0.00668047
0.00636021
0.00594468
0.0054438
0.00489772
0.0043338
0.00378942
0.00331743
0.00294674
0.00269016
0.00251497
0.00236904
0.00227459
0.00157549
0.00227945
0.00452621
0.00644779
0.00763034
0.0086674
0.00958831
0.010358
0.0107579
0.0106084
0.0100977
0.00949715
0.00901553
0.00869877
0.00853006
0.00846299
0.00845178
0.00846478
0.00848481
0.00850296
0.00850971
0.00849298
0.00844401
0.00837879
0.00830728
0.00820958
0.00804454
0.00775958
0.00731532
0.00674748
0.00608087
0.00536638
0.00467444
0.00405994
0.00355763
0.00316726
0.00288777
0.0037428
0.00180386
0.00169036
0.00183443
0.00198997
0.00204565
0.00202032
0.00212228
0.00221263
0.00227748
0.00230275
0.00228157
0.00223505
0.0021753
0.00211511
0.00207132
0.00204508
0.00203164
0.002026
0.0020242
0.00202359
0.00202272
0.00202076
0.00201758
0.00201376
0.00201098
0.00200799
0.00200124
0.00198659
0.00195969
0.00191909
0.00186977
0.00181134
0.00174912
0.00168835
0.00163344
0.0015885
0.00155484
0.00152788
0.00149976
0.00155172
0.00150213
)
;

boundaryField
{
    floor
    {
        type            compressible::alphatWallFunction;
        Prt             0.85;
        value           nonuniform List<scalar> 
29
(
0.000141649
9.79624e-05
0.000125286
0.00012174
0.00011883
0.000115688
0.000111413
0.000104592
9.7348e-05
9.06258e-05
8.45799e-05
7.91906e-05
7.43872e-05
7.00489e-05
6.60531e-05
6.22524e-05
5.84371e-05
5.46435e-05
4.9952e-05
5.61496e-05
5.61488e-05
7.34303e-05
8.16825e-05
9.25985e-05
0.000141647
9.79613e-05
0.000139511
0.000158812
0.000204347
)
;
    }
    ceiling
    {
        type            compressible::alphatWallFunction;
        Prt             0.85;
        value           nonuniform List<scalar> 
43
(
0.000236664
0.000255689
0.000276056
0.000283364
0.000280109
0.000293363
0.000305048
0.000313404
0.000316655
0.000313939
0.00030796
0.000300259
0.000292478
0.000286802
0.000283394
0.000281648
0.000280915
0.00028068
0.000280602
0.000280488
0.000280233
0.00027982
0.000279322
0.00027896
0.000278571
0.000277692
0.000275781
0.000272271
0.000266964
0.000260499
0.000252817
0.000244607
0.000236555
0.000229253
0.000223257
0.000218753
0.000215138
0.000211359
0.000218335
0.000211681
0.000414803
0.000488727
0.00031346
)
;
    }
    sWall
    {
        type            compressible::alphatWallFunction;
        Prt             0.85;
        value           uniform 0.000235569;
    }
    nWall
    {
        type            compressible::alphatWallFunction;
        Prt             0.85;
        value           nonuniform List<scalar> 6(9.57945e-05 0.000117606 0.000138406 0.00022104 0.000251345 0.000211203);
    }
    sideWalls
    {
        type            empty;
    }
    glass1
    {
        type            compressible::alphatWallFunction;
        Prt             0.85;
        value           nonuniform List<scalar> 9(0.000156507 0.000208765 0.000251046 0.000290666 0.000330362 0.000371983 0.000410462 0.000419132 0.000409934);
    }
    glass2
    {
        type            compressible::alphatWallFunction;
        Prt             0.85;
        value           nonuniform List<scalar> 2(0.000169707 0.000183122);
    }
    sun
    {
        type            compressible::alphatWallFunction;
        Prt             0.85;
        value           nonuniform List<scalar> 
14
(
0.000159742
0.000174815
0.000178897
0.000187683
0.000195936
0.000203894
0.000212076
0.000219072
0.000223647
0.000224855
0.000221897
0.000214298
0.00020161
0.000181619
)
;
    }
    heatsource1
    {
        type            compressible::alphatWallFunction;
        Prt             0.85;
        value           nonuniform List<scalar> 3(0.000104157 0.000101612 9.59829e-05);
    }
    heatsource2
    {
        type            compressible::alphatWallFunction;
        Prt             0.85;
        value           nonuniform List<scalar> 4(0.00017017 0.000120677 0.000120675 0.00017236);
    }
    Table_master
    {
        type            compressible::alphatWallFunction;
        Prt             0.85;
        value           nonuniform List<scalar> 9(0.000144975 0.000126133 0.000111138 9.91905e-05 8.9575e-05 8.17904e-05 7.5458e-05 7.03699e-05 6.6558e-05);
    }
    Table_slave
    {
        type            compressible::alphatWallFunction;
        Prt             0.85;
        value           nonuniform List<scalar> 9(0.000159651 0.000145007 0.000135194 0.000128284 0.000122978 0.000118232 0.000113157 0.000108004 0.000101982);
    }
    inlet
    {
        type            fixedValue;
        value           uniform 1.94e-05;
    }
    outlet
    {
        type            zeroGradient;
    }
}


// ************************************************************************* //
