/*--------------------------------*- C++ -*----------------------------------*\
  =========                 |
  \\      /  F ield         | OpenFOAM: The Open Source CFD Toolbox
   \\    /   O peration     | Website:  https://openfoam.org
    \\  /    A nd           | Version:  6
     \\/     M anipulation  |
\*---------------------------------------------------------------------------*/
FoamFile
{
    version     2.0;
    format      ascii;
    class       surfaceScalarField;
    location    "310";
    object      phi;
}
// * * * * * * * * * * * * * * * * * * * * * * * * * * * * * * * * * * * * * //

dimensions      [1 0 -1 0 0 0 0];

internalField   nonuniform List<scalar> 
852
(
-0.00254741
0.00258937
-0.00347641
0.000928992
-0.00416931
0.000692891
-0.00468484
0.000515519
-0.00498873
0.000303893
-0.00505205
6.33115e-05
-0.00484863
-0.000203427
-0.00437212
-0.000476522
-0.00366352
-0.000708606
-0.00280708
-0.000856442
-0.00190876
-0.000898328
-0.00107022
-0.000838545
-0.000379828
-0.000690401
6.94203e-05
-0.000449255
6.55335e-05
0.000116185
-0.000121181
0.000246961
-0.000130784
0.000550923
-0.000303972
0.000884131
-0.000333218
0.00117381
-0.000289687
0.00139388
-0.000220084
0.00151411
-0.000120247
0.00156024
-4.61406e-05
0.00157773
-1.74961e-05
0.00158297
-5.26133e-06
0.00157883
4.13194e-06
0.00156513
1.3691e-05
0.00153732
2.77942e-05
0.00148157
5.57379e-05
0.00136473
0.000116823
0.00112955
0.000235163
0.000724083
0.000405458
3.82663e-05
0.000685801
3.13148e-05
-0.00184827
0.00455161
-0.00274644
0.00182715
-0.00346097
0.00140742
-0.00397592
0.00103046
-0.00428259
0.000610554
-0.00435714
0.000137855
-0.00417284
-0.000387731
-0.00373261
-0.000916756
-0.0030918
-0.00134942
-0.00234032
-0.00160793
-0.00157679
-0.00166186
-0.000885461
-0.00152988
-0.000329009
-0.00124686
6.61157e-05
-0.000844386
0.000439174
-0.000307531
0.000331777
0.00010734
0.00033172
-0.000106578
-2.65603e-05
0.000492001
-0.000729372
0.000848033
-0.000660013
0.00112577
-0.000610967
0.00135074
-0.000514662
0.00151328
-0.000382639
0.00155171
-0.000158694
0.00156062
-5.50579e-05
0.00156938
-2.62692e-05
0.0015765
-1.23962e-05
0.00158085
-2.21551e-07
0.00158241
1.21111e-05
0.00158031
2.98841e-05
0.00157008
6.59536e-05
0.00151788
0.000169009
0.00131624
0.000436793
0.000967655
0.000754029
0.000599885
0.00105356
0.000612721
-0.00131951
0.00604663
-0.00209329
0.00260092
-0.00273701
0.00205113
-0.00319061
0.00148406
-0.00346824
0.000888179
-0.00353644
0.000206046
-0.00334621
-0.000577963
-0.00291129
-0.00135169
-0.00231392
-0.00194679
-0.00165103
-0.00227082
-0.0010097
-0.00230319
-0.000449019
-0.00209057
-6.05152e-06
-0.00168983
0.000301645
-0.00115209
0.000525371
-0.000531265
0.000540598
9.21063e-05
0.000872311
0.000702305
-0.000747066
0.000928097
-0.000955173
0.00120445
-0.000936379
0.00138025
-0.000786769
0.00150632
-0.000640748
0.00165939
-0.000535719
0.00150084
0.00144592
0.00141979
0.00140753
0.00140745
0.0014197
0.00144972
0.00151581
0.00168496
0.00149529
0.000626447
0.00126327
0.000986034
0.000917976
0.00139884
0.00150167
-0.0009408
0.00721611
-0.00155134
0.00321146
-0.00199582
0.0024956
-0.00231188
0.00180012
-0.00250918
0.00108547
-0.00252447
0.000221335
-0.00227971
-0.000822732
-0.00183079
-0.00180061
-0.00129072
-0.00248687
-0.000746071
-0.00281547
-0.000256205
-0.00279306
0.000154002
-0.00250078
0.00047753
-0.00201337
0.000743409
-0.00141798
0.000995045
-0.000782909
0.00128835
-0.000201208
0.00199031
0.000170344
0.00214455
-0.000172199
0.00204642
-0.000648944
0.00183101
-0.000739772
0.00165355
-0.000758931
0.0015546
-0.000687829
0.00149447
-0.000580621
0.00139501
-0.000436274
0.00160101
-0.000206167
0.0017259
-0.000125051
0.00182815
-0.000102416
0.00191982
-9.18306e-05
0.00199694
-7.72917e-05
0.00204557
-4.87963e-05
0.00203725
8.1565e-06
0.00192799
0.000109097
0.00164838
0.000279443
0.00162484
0.000649963
0.00152498
0.00108588
0.00134501
0.00157879
0.002809
-0.000672035
0.00816264
-0.00112665
0.00366606
-0.0012499
0.00261884
-0.00134436
0.00189457
-0.00140173
0.00114283
-0.00127396
9.3557e-05
-0.000915211
-0.00118149
-0.000471639
-0.00224418
-4.19585e-05
-0.00291654
0.000321249
-0.00317867
0.000602751
-0.00307457
0.000813743
-0.00271177
0.000980533
-0.00218016
0.00113379
-0.00157124
0.00131741
-0.00096654
0.00157471
-0.000458519
0.00191063
-0.000165578
0.0020127
-0.000274277
0.00182814
-0.00046439
0.00164568
-0.000557327
0.00146749
-0.00058075
0.00132736
-0.000547707
0.00122495
-0.000478223
0.00116706
-0.000378403
0.00122032
-0.000259441
0.0012897
-0.000194442
0.0013619
-0.000174633
0.00143865
-0.000168599
0.0015172
-0.000155854
0.00158926
-0.000120878
0.00164085
-4.34538e-05
0.00165513
9.4802e-05
0.00163266
0.000301891
0.00167691
0.000605695
0.00182817
0.000934613
0.0023292
0.00107773
0.00359561
0.00154258
0.00243235
0.00116304
0.00149565
0.000936482
0.00153334
-0.000587829
0.00906411
-0.000884008
0.00396223
-0.000550657
0.00228548
-0.00029024
0.00163414
-6.0819e-05
0.000913397
0.00031147
-0.000278746
0.00075026
-0.00162028
0.00110599
-0.00259991
0.00133655
-0.0031471
0.00144957
-0.00329168
0.00147909
-0.00310409
0.00145107
-0.00268376
0.00139985
-0.00212895
0.00136113
-0.00153254
0.00136829
-0.000973704
0.00143769
-0.000527936
0.00154037
-0.000268265
0.00151525
-0.000249171
0.00137333
-0.00032248
0.00120307
-0.000387077
0.00103469
-0.000412378
0.000890234
-0.000403266
0.000781756
-0.00036976
0.000722202
-0.000318865
0.000726566
-0.000263821
0.000769202
-0.000237095
0.000831155
-0.000236604
0.00090551
-0.000242974
0.000989288
-0.000239651
0.00108126
-0.000212874
0.00118248
-0.00014469
0.00128499
-7.72937e-06
0.00138304
0.000203829
0.00152202
0.000466687
0.00172748
0.000729139
0.00193321
0.000871989
0.00222428
0.00125148
0.00195974
0.00142757
0.00120172
0.00169448
0.00277543
-0.000652518
0.0100655
-0.000529319
0.00383903
0.000400579
0.00135558
0.00103036
0.00100435
0.0016185
0.00032525
0.00221447
-0.000874729
0.00261125
-0.00201706
0.00277819
-0.00276685
0.00273818
-0.00310708
0.00254313
-0.00309662
0.00225529
-0.00281625
0.00192922
-0.00235769
0.00161199
-0.00181173
0.00134358
-0.00126415
0.00114976
-0.000779898
0.00103727
-0.000415451
0.000976228
-0.000207238
0.000884944
-0.000157899
0.000752044
-0.000189592
0.000598193
-0.00023324
0.000445893
-0.000260092
0.000312237
-0.000269626
0.000210178
-0.000267718
0.000151026
-0.00025973
0.000141263
-0.000254077
0.000167899
-0.00026375
0.000215648
-0.000284372
0.000276247
-0.000303593
0.000347251
-0.000310675
0.000431967
-0.000297611
0.000541795
-0.000254537
0.00069367
-0.000159626
0.000873382
2.40973e-05
0.00106854
0.000271506
0.00127985
0.000517815
0.00143574
0.000716084
0.00163603
0.00105117
0.00173903
0.00132456
0.00147459
0.00195891
0.00429242
0.00213303
0.00832294
0.00275279
0.00321926
0.00296367
0.00114469
0.0035025
0.000465509
0.0041763
-0.000348557
0.00464061
-0.00133905
0.00472443
-0.00210087
0.00447351
-0.00251591
0.00398421
-0.00261777
0.00335753
-0.00246993
0.00268341
-0.00214213
0.00203082
-0.00170511
0.00144826
-0.00122919
0.000976537
-0.000792433
0.000630351
-0.000433728
0.000406122
-0.000191237
0.000268003
-6.91346e-05
0.000153959
-4.38711e-05
3.15971e-05
-6.72448e-05
-0.000100375
-0.000101284
-0.000229426
-0.000131058
-0.000342505
-0.000156565
-0.000429693
-0.000180548
-0.000485186
-0.000204256
-0.000507969
-0.000231314
-0.000506756
-0.000264984
-0.000491006
-0.000300143
-0.000466894
-0.000327725
-0.000438253
-0.000339336
-0.000405132
-0.000330752
-0.000355813
-0.000303877
-0.000258829
-0.00025663
-7.43688e-05
-0.000160383
0.00015936
3.77568e-05
0.000384605
0.000292551
0.000549564
0.000551106
0.000737739
0.000862974
0.000910472
0.0011518
0.000501176
0.00236819
0.00497318
0.00872274
0.0119118
0.010522
0.00253449
0.00968832
0.00129914
0.00891924
0.000420525
0.00800073
-0.000420525
0.00689061
-0.000990717
0.00569221
-0.00131749
0.00449117
-0.00141671
0.00335234
-0.0013311
0.00232622
-0.00111603
0.00144335
-0.000822258
0.000717383
-0.000503237
0.00017652
-0.000251591
-0.000186097
-7.11315e-05
-0.00040386
2.65072e-05
-0.000531469
5.84566e-05
-0.000624353
4.89953e-05
-0.000714346
2.27293e-05
-0.000809303
-6.34521e-06
-0.000904292
-3.60891e-05
-0.000991218
-6.96593e-05
-0.00106467
-0.000107113
-0.00112531
-0.000143644
-0.00117525
-0.000181394
-0.00121849
-0.000221758
-0.00125878
-0.000259874
-0.00129972
-0.000286807
-0.00134898
-0.000290101
-0.00142305
-0.000256699
-0.0015407
-0.000186251
-0.00171695
-8.03981e-05
-0.00195859
8.12376e-05
-0.00225424
0.000333396
-0.00265796
0.000696249
-0.00330777
0.0012009
-0.00433625
0.00189144
-0.0058164
0.00263194
-0.00612901
0.00268078
-0.000963213
0.00361572
0.00319748
0.00319943
0.00171551
0.00369283
-7.27897e-05
0.00380768
-0.000535315
0.00347539
-0.0006584
0.00286375
-0.000705853
0.00210133
-0.000654311
0.00130297
-0.000532776
0.000548051
-0.000361132
-0.000107985
-0.000166254
-0.000605574
-5.67267e-06
-0.000926251
6.9063e-05
-0.0011096
0.000112197
-0.00120664
0.000123525
-0.00126222
0.000114015
-0.00130733
9.40877e-05
-0.00135404
6.94214e-05
-0.00140406
4.36475e-05
-0.00145692
1.67531e-05
-0.00151498
-1.16184e-05
-0.0015799
-4.22138e-05
-0.00165499
-6.85756e-05
-0.00174281
-9.35937e-05
-0.00184452
-0.00012007
-0.00195928
-0.000145138
-0.00208305
-0.000163053
-0.00221066
-0.000162514
-0.00234339
-0.00012399
-0.00248109
-4.85648e-05
-0.00262537
6.38588e-05
-0.00276654
0.000222388
-0.00289033
0.000457173
-0.00299466
0.000800561
-0.00306595
0.00127217
-0.00305735
0.00188281
-0.00283499
0.00240957
-0.00121533
0.0010611
-0.00213751
0.000605106
0.00258179
0.00167648
0.000644183
0.00162084
-1.71251e-05
0.00126096
-0.000175429
0.000797558
-0.000195025
0.00026792
-0.000176255
-0.000268075
-0.000118367
-0.00076522
-3.56693e-05
-0.00117315
4.67637e-05
-0.00145035
0.000110918
-0.00160017
0.000144123
-0.00168488
0.000153745
-0.00172075
0.000148052
-0.00173016
0.000132907
-0.00172995
0.000113784
-0.00172981
9.39262e-05
-0.0017349
7.44884e-05
-0.00174715
5.58798e-05
-0.00176801
3.75902e-05
-0.00180025
2.05959e-05
-0.00184829
5.8111e-06
-0.00190947
-7.41798e-06
-0.00198562
-1.74674e-05
-0.00208259
-2.31168e-05
-0.00220489
-2.2862e-05
-0.00235286
-1.50988e-05
-0.0025164
1.0008e-06
-0.00266909
2.86783e-05
-0.00278674
6.90683e-05
-0.00285448
0.000131585
-0.00285712
0.000225009
-0.00275554
0.000355567
-0.00249696
0.000541972
-0.00201094
0.000786122
-0.00110196
0.000973819
0.000409103
0.000898488
0.0014435
2.66897e-05
-0.000652815
-0.00341502
-0.00482361
-0.00226581
-0.00165749
-0.00171801
-0.00193856
-0.00217983
-0.00240329
-0.00256997
-0.00265541
-0.00265999
-0.0026021
-0.00251261
-0.0024147
-0.00232325
-0.00224737
-0.00219083
-0.00215425
-0.00213716
-0.00213871
-0.00215859
-0.00219554
-0.00224735
-0.00231243
-0.0023876
-0.00246857
-0.00254961
-0.00262352
-0.00268233
-0.00271473
-0.00270831
-0.00264117
-0.00248247
-0.00219501
-0.00172272
-0.00100756
-0.00010583
0.0007194
0.000674673
)
;

boundaryField
{
    floor
    {
        type            calculated;
        value           nonuniform List<scalar> 
29
(
0
0
0
0
0
0
0
0
0
0
0
0
0
0
0
0
0
0
0
0
6.92851e-06
1.84634e-05
2.90087e-05
3.76753e-05
3.87736e-06
4.98742e-06
1.19485e-05
1.81937e-05
1.79518e-05
)
;
    }
    ceiling
    {
        type            calculated;
        value           nonuniform List<scalar> 
43
(
2.90447e-05
2.56844e-05
2.39777e-05
3.58349e-05
4.33523e-05
4.50806e-05
4.61979e-05
4.71656e-05
4.82803e-05
4.97349e-05
5.13213e-05
5.30015e-05
5.46109e-05
5.58119e-05
5.65757e-05
5.70062e-05
5.72226e-05
5.73222e-05
5.73711e-05
5.74075e-05
5.74548e-05
5.75201e-05
5.75943e-05
5.76407e-05
5.76909e-05
5.783e-05
5.81593e-05
5.87923e-05
5.97881e-05
6.10539e-05
6.26353e-05
6.44243e-05
6.62888e-05
6.80892e-05
6.96665e-05
7.09443e-05
7.20686e-05
7.32395e-05
7.13985e-05
7.38019e-05
3.66618e-05
3.02215e-05
1.06259e-05
)
;
    }
    sWall
    {
        type            calculated;
        value           uniform -0.000224659;
    }
    nWall
    {
        type            calculated;
        value           nonuniform List<scalar> 6(-3.79031e-05 -4.03834e-05 -4.24174e-05 -4.1058e-05 -4.12152e-05 -5.19625e-05);
    }
    sideWalls
    {
        type            empty;
        value           nonuniform 0();
    }
    glass1
    {
        type            calculated;
        value           nonuniform List<scalar> 9(-4.19635e-05 -0.000113974 -0.000175515 -0.00022869 -0.000274497 -0.000313643 -0.000348916 -0.000390432 -0.000436463);
    }
    glass2
    {
        type            calculated;
        value           nonuniform List<scalar> 2(-0.000179606 -0.000192629);
    }
    sun
    {
        type            calculated;
        value           uniform 0;
    }
    heatsource1
    {
        type            calculated;
        value           nonuniform List<scalar> 3(2.00089e-07 2.00595e-07 2.00994e-07);
    }
    heatsource2
    {
        type            calculated;
        value           nonuniform List<scalar> 4(5.03595e-08 5.04276e-08 0 0);
    }
    Table_master
    {
        type            calculated;
        value           nonuniform List<scalar> 9(-1.50638e-07 -1.5075e-07 -1.5078e-07 -1.50798e-07 -1.5081e-07 -1.50812e-07 -1.50807e-07 -1.50791e-07 -1.50741e-07);
    }
    Table_slave
    {
        type            calculated;
        value           nonuniform List<scalar> 9(1.50541e-07 1.50561e-07 1.50527e-07 1.50494e-07 1.50465e-07 1.50446e-07 1.50446e-07 1.50453e-07 1.50497e-07);
    }
    inlet
    {
        type            calculated;
        value           uniform -0.00427867;
    }
    outlet
    {
        type            calculated;
        value           nonuniform List<scalar> 2(0.00361062 0.0013829);
    }
}


// ************************************************************************* //
