/*--------------------------------*- C++ -*----------------------------------*\
  =========                 |
  \\      /  F ield         | OpenFOAM: The Open Source CFD Toolbox
   \\    /   O peration     | Website:  https://openfoam.org
    \\  /    A nd           | Version:  6
     \\/     M anipulation  |
\*---------------------------------------------------------------------------*/
FoamFile
{
    version     2.0;
    format      ascii;
    class       volScalarField;
    location    "310";
    object      T;
}
// * * * * * * * * * * * * * * * * * * * * * * * * * * * * * * * * * * * * * //

dimensions      [0 0 0 1 0 0 0];

internalField   nonuniform List<scalar> 
459
(
305.7
305.527
305.522
305.523
305.524
305.524
305.523
305.519
305.513
305.503
305.494
305.485
305.478
305.467
305.414
305.376
305.447
305.487
305.506
305.517
305.523
305.524
305.521
305.518
305.514
305.51
305.506
305.502
305.498
305.494
305.488
305.481
305.463
305.35
305.829
305.577
305.568
305.575
305.58
305.583
305.581
305.573
305.557
305.536
305.517
305.503
305.495
305.49
305.481
305.488
305.492
305.481
305.523
305.54
305.554
305.566
305.574
305.576
305.577
305.577
305.577
305.576
305.576
305.575
305.572
305.567
305.557
305.54
305.511
305.5
305.957
305.62
305.603
305.616
305.629
305.637
305.638
305.625
305.597
305.56
305.527
305.506
305.497
305.495
305.495
305.497
305.497
305.519
305.537
305.555
305.573
305.588
305.6
305.6
305.601
305.601
305.602
305.603
305.604
305.604
305.604
305.601
305.594
305.577
305.549
305.536
306.085
305.666
305.634
305.654
305.678
305.698
305.706
305.688
305.641
305.581
305.533
305.503
305.493
305.495
305.499
305.504
305.505
305.51
305.526
305.546
305.568
305.591
305.612
305.629
305.645
305.658
305.67
305.681
305.691
305.699
305.706
305.712
305.715
305.684
305.645
305.601
305.571
306.21
305.72
305.665
305.685
305.72
305.757
305.776
305.747
305.677
305.593
305.531
305.496
305.486
305.491
305.502
305.512
305.522
305.535
305.553
305.575
305.599
305.623
305.646
305.666
305.684
305.7
305.713
305.724
305.733
305.74
305.744
305.746
305.743
305.728
305.697
305.654
305.611
305.612
305.615
305.64
306.324
305.789
305.71
305.716
305.754
305.81
305.828
305.778
305.687
305.591
305.519
305.481
305.475
305.488
305.507
305.527
305.545
305.564
305.587
305.612
305.638
305.663
305.686
305.705
305.722
305.736
305.747
305.756
305.762
305.767
305.769
305.768
305.764
305.753
305.732
305.703
305.665
305.648
305.64
305.652
306.428
305.895
305.809
305.798
305.824
305.872
305.86
305.778
305.663
305.555
305.482
305.454
305.461
305.489
305.522
305.553
305.58
305.605
305.631
305.657
305.683
305.706
305.727
305.744
305.757
305.767
305.774
305.779
305.782
305.783
305.782
305.78
305.775
305.767
305.752
305.731
305.702
305.679
305.662
305.665
306.578
306.169
306.065
306.011
306
305.97
305.869
305.721
305.572
305.464
305.413
305.416
305.453
305.504
305.554
305.596
305.629
305.656
305.682
305.707
305.729
305.748
305.763
305.774
305.782
305.786
305.789
305.789
305.788
305.787
305.784
305.78
305.776
305.769
305.758
305.743
305.722
305.702
305.687
305.739
306.789
306.594
306.42
306.276
306.152
305.955
305.705
305.484
305.345
305.299
305.324
305.392
305.475
305.551
305.613
305.657
305.688
305.712
305.732
305.75
305.765
305.777
305.785
305.79
305.792
305.792
305.791
305.789
305.786
305.783
305.778
305.773
305.768
305.762
305.758
305.755
305.755
305.763
305.777
305.814
302.128
303.417
303.938
304.168
304.404
304.65
304.898
305.122
305.306
305.454
305.568
305.638
305.684
305.715
305.737
305.754
305.767
305.777
305.785
305.79
305.792
305.793
305.793
305.791
305.789
305.786
305.783
305.78
305.776
305.773
305.77
305.767
305.766
305.766
305.77
305.779
305.795
305.834
302.271
303.226
303.637
304.059
304.452
304.802
305.108
305.333
305.483
305.587
305.657
305.701
305.73
305.75
305.764
305.774
305.781
305.786
305.789
305.791
305.791
305.791
305.789
305.788
305.787
305.785
305.784
305.782
305.78
305.778
305.777
305.775
305.774
305.774
305.776
305.782
305.797
305.821
303.227
303.124
303.12
304.087
304.646
304.93
305.157
305.339
305.477
305.574
305.639
305.684
305.715
305.736
305.75
305.759
305.765
305.769
305.772
305.773
305.773
305.773
305.772
305.771
305.77
305.77
305.769
305.769
305.769
305.77
305.771
305.772
305.773
305.773
305.774
305.776
305.778
305.783
305.787
305.821
)
;

boundaryField
{
    floor
    {
        type            wallHeatTransfer;
        Tinf            uniform 301.25;
        alphaWall       uniform 0.24;
        value           nonuniform List<scalar> 
29
(
304.892
304.706
304.871
304.894
304.9
304.898
304.887
304.859
304.824
304.788
304.752
304.717
304.683
304.65
304.617
304.584
304.548
304.508
304.448
304.421
304.421
304.672
304.753
304.843
304.892
304.706
304.945
305.027
305.107
)
;
    }
    ceiling
    {
        type            wallHeatTransfer;
        Tinf            uniform 301.25;
        alphaWall       uniform 0.24;
        value           nonuniform List<scalar> 
43
(
303.062
302.977
302.982
303.882
304.399
304.673
304.893
305.069
305.2
305.289
305.344
305.38
305.402
305.416
305.425
305.432
305.438
305.441
305.443
305.444
305.444
305.443
305.442
305.441
305.44
305.438
305.436
305.432
305.427
305.42
305.412
305.403
305.393
305.384
305.377
305.371
305.367
305.366
305.381
305.401
306.503
306.356
302.203
)
;
    }
    sWall
    {
        type            wallHeatTransfer;
        Tinf            uniform 314.15;
        alphaWall       uniform 0.36;
        value           uniform 304.55;
    }
    nWall
    {
        type            wallHeatTransfer;
        Tinf            uniform 308.15;
        alphaWall       uniform 0.36;
        value           nonuniform List<scalar> 6(306.214 306.154 306.112 306.129 306.089 306.128);
    }
    sideWalls
    {
        type            empty;
    }
    glass1
    {
        type            wallHeatTransfer;
        Tinf            uniform 314.15;
        alphaWall       uniform 4.3;
        value           nonuniform List<scalar> 9(311.635 311.214 310.942 310.731 310.553 310.39 310.262 310.3 310.445);
    }
    glass2
    {
        type            wallHeatTransfer;
        Tinf            uniform 308.15;
        alphaWall       uniform 4.3;
        value           nonuniform List<scalar> 2(307.397 307.386);
    }
    sun
    {
        type            wallHeatTransfer;
        Tinf            uniform 301.25;
        alphaWall       uniform 0.24;
        value           nonuniform List<scalar> 
14
(
305.19
305.069
305.074
305.091
305.106
305.119
305.131
305.138
305.138
305.132
305.119
305.1
305.074
305.029
)
;
    }
    heatsource1
    {
        type            fixedGradient;
        gradient        uniform 0;
    }
    heatsource2
    {
        type            fixedGradient;
        gradient        uniform 0;
    }
    Table_master
    {
        type            zeroGradient;
    }
    Table_slave
    {
        type            zeroGradient;
    }
    inlet
    {
        type            fixedValue;
        value           uniform 299.15;
    }
    outlet
    {
        type            zeroGradient;
    }
}


// ************************************************************************* //
