/*--------------------------------*- C++ -*----------------------------------*\
  =========                 |
  \\      /  F ield         | OpenFOAM: The Open Source CFD Toolbox
   \\    /   O peration     | Website:  https://openfoam.org
    \\  /    A nd           | Version:  6
     \\/     M anipulation  |
\*---------------------------------------------------------------------------*/
FoamFile
{
    version     2.0;
    format      ascii;
    class       volVectorField;
    location    "310";
    object      U;
}
// * * * * * * * * * * * * * * * * * * * * * * * * * * * * * * * * * * * * * //

dimensions      [0 1 -1 0 0 0 0];

internalField   nonuniform List<vector> 
459
(
(0.0259192 0.0744955 0)
(-0.145559 0.0227697 0)
(-0.168455 0.0151195 0)
(-0.195022 0.00942156 0)
(-0.212929 0.00311406 0)
(-0.220852 -0.00363873 0)
(-0.216984 -0.0108225 0)
(-0.20118 -0.0183183 0)
(-0.174554 -0.0249795 0)
(-0.140035 -0.0295371 0)
(-0.101846 -0.03117 0)
(-0.0645624 -0.0296911 0)
(-0.0328528 -0.0250744 0)
(-0.0114413 -0.016106 0)
(0.0602339 0.0050526 0)
(-0.114763 0.0030204 0)
(0.0365945 -0.0051769 0)
(0.0219716 -0.00897551 0)
(0.0304244 -0.0106218 0)
(0.0441202 -0.00972474 0)
(0.0559978 -0.00752202 0)
(0.0636548 -0.00433746 0)
(0.0673699 -0.00247177 0)
(0.0685688 -0.00180461 0)
(0.0687666 -0.00157748 0)
(0.0686473 -0.00141123 0)
(0.0682538 -0.00119366 0)
(0.0674041 -0.000825056 0)
(0.0657098 -6.74519e-05 0)
(0.0623095 0.00164042 0)
(0.0555001 0.00526001 0)
(0.0463913 0.0106709 0)
(-0.0206664 0.0214695 0)
(0.12798 -0.010797 0)
(0.173289 0.152634 0)
(-0.13557 0.0605646 0)
(-0.136615 0.0463544 0)
(-0.164151 0.034568 0)
(-0.182118 0.0209476 0)
(-0.190492 0.0054256 0)
(-0.187353 -0.0119782 0)
(-0.172752 -0.0297034 0)
(-0.148397 -0.04464 0)
(-0.117564 -0.0540934 0)
(-0.0843924 -0.0567612 0)
(-0.0526926 -0.0529566 0)
(-0.0257873 -0.0436369 0)
(-0.00589357 -0.0299367 0)
(0.0148013 -0.00721488 0)
(0.0178932 0.00820726 0)
(0.0137318 0.0187283 0)
(-0.142863 0.000864186 0)
(0.036115 -0.0245078 0)
(0.0327954 -0.023546 0)
(0.042345 -0.0218975 0)
(0.0536079 -0.0184626 0)
(0.0625847 -0.0135267 0)
(0.0671585 -0.00544745 0)
(0.0681761 -0.000596236 0)
(0.0680891 0.00129563 0)
(0.0681915 0.00204464 0)
(0.0684656 0.00252848 0)
(0.0686445 0.0029853 0)
(0.0686621 0.00367215 0)
(0.0684645 0.00508406 0)
(0.067448 0.00839648 0)
(0.0628644 0.0169686 0)
(0.0560668 0.0263763 0)
(-0.00324978 0.0375153 0)
(0.17163 0.0205531 0)
(0.308961 0.228498 0)
(-0.148473 0.0959069 0)
(-0.103942 0.0748131 0)
(-0.130813 0.0541665 0)
(-0.147295 0.0317452 0)
(-0.155291 0.00645161 0)
(-0.151595 -0.0216671 0)
(-0.136572 -0.0496808 0)
(-0.113203 -0.0720633 0)
(-0.0853305 -0.084908 0)
(-0.056992 -0.0869448 0)
(-0.0308951 -0.0794498 0)
(-0.00930163 -0.0643666 0)
(0.00716338 -0.0427185 0)
(0.0190114 -0.0176183 0)
(0.0252496 0.00573111 0)
(0.0232343 0.0348702 0)
(-0.0603914 -0.0220292 0)
(0.0384591 -0.0371394 0)
(0.0513405 -0.0375247 0)
(0.0564497 -0.0326866 0)
(0.0624838 -0.0269947 0)
(0.0679692 -0.0224137 0)
(0.0701038 -0.0167431 0)
(0.0655676 -0.0108926 0)
(0.061937 -0.00784204 0)
(0.0607749 -0.0061877 0)
(0.0607883 -0.00512665 0)
(0.061227 -0.00428831 0)
(0.0621344 -0.00341186 0)
(0.0642583 -0.00199846 0)
(0.0693452 0.002423 0)
(0.0703519 0.0223476 0)
(0.0663589 0.0380291 0)
(0.00938463 0.0538579 0)
(0.198346 0.051855 0)
(0.432443 0.289746 0)
(-0.176531 0.1271 0)
(-0.0692172 0.0995157 0)
(-0.0947841 0.0714999 0)
(-0.107516 0.0423617 0)
(-0.113156 0.00824325 0)
(-0.105909 -0.0311057 0)
(-0.0888283 -0.0694714 0)
(-0.0666119 -0.0979757 0)
(-0.0428643 -0.1126 0)
(-0.0209639 -0.112962 0)
(-0.0016152 -0.101612 0)
(0.0140716 -0.0815256 0)
(0.0263939 -0.0566262 0)
(0.0375969 -0.0289941 0)
(0.0501874 -0.00256437 0)
(0.0657538 0.0201501 0)
(0.0931258 -0.0464884 0)
(0.0934259 -0.038723 0)
(0.0857585 -0.0401968 0)
(0.0755706 -0.0388095 0)
(0.0688059 -0.03375 0)
(0.0653694 -0.0278075 0)
(0.0627958 -0.0212345 0)
(0.0638344 -0.0128816 0)
(0.0710328 -0.00914163 0)
(0.0772656 -0.00719132 0)
(0.0816571 -0.00607209 0)
(0.0851422 -0.00518546 0)
(0.0878635 -0.00415824 0)
(0.089078 -0.00257642 0)
(0.0868691 0.000171251 0)
(0.0789881 0.00466335 0)
(0.0710837 0.0261247 0)
(0.0729108 0.0456073 0)
(0.026065 0.0663392 0)
(0.213312 0.101329 0)
(0.540704 0.337243 0)
(-0.211967 0.152272 0)
(-0.0342199 0.114344 0)
(-0.0562162 0.0820006 0)
(-0.0630635 0.0488304 0)
(-0.0632635 0.00751044 0)
(-0.046891 -0.043237 0)
(-0.0277472 -0.089329 0)
(-0.00894238 -0.120103 0)
(0.00804226 -0.133343 0)
(0.0209247 -0.130102 0)
(0.0310033 -0.115509 0)
(0.0387598 -0.0932315 0)
(0.0452961 -0.0668905 0)
(0.0523202 -0.0398134 0)
(0.0620567 -0.0161477 0)
(0.0757268 -0.00210561 0)
(0.0862677 -0.0107669 0)
(0.0854241 -0.0194341 0)
(0.0763817 -0.0260858 0)
(0.0672837 -0.0281433 0)
(0.0600785 -0.0264739 0)
(0.0548343 -0.0228812 0)
(0.0513596 -0.017732 0)
(0.0511007 -0.0104516 0)
(0.0540454 -0.00666331 0)
(0.0574904 -0.00537051 0)
(0.0607846 -0.00489472 0)
(0.0641168 -0.00425463 0)
(0.0673838 -0.00276494 0)
(0.0702004 0.000400454 0)
(0.0719457 0.00588311 0)
(0.071821 0.0144017 0)
(0.0717727 0.0292258 0)
(0.0801145 0.0455408 0)
(0.0652828 0.0603989 0)
(0.149213 0.0985572 0)
(0.138509 0.0803678 0)
(0.115002 0.0606956 0)
(-0.112657 0.064326 0)
(0.621076 0.376688 0)
(-0.247766 0.16881 0)
(-0.0065774 0.112351 0)
(-0.0155781 0.0840297 0)
(-0.0136378 0.0512895 0)
(0.0013199 -0.000418887 0)
(0.026739 -0.0621106 0)
(0.0441273 -0.107818 0)
(0.0558006 -0.134549 0)
(0.0621871 -0.143326 0)
(0.064271 -0.13705 0)
(0.0635579 -0.11996 0)
(0.0613247 -0.0962357 0)
(0.0590283 -0.0698942 0)
(0.0582031 -0.0444537 0)
(0.0601885 -0.0235638 0)
(0.0649095 -0.0114798 0)
(0.0672881 -0.0122844 0)
(0.063728 -0.0174512 0)
(0.0562937 -0.020777 0)
(0.0484008 -0.0216346 0)
(0.0414017 -0.0205972 0)
(0.0358231 -0.0183276 0)
(0.0320875 -0.0150434 0)
(0.0308932 -0.0111783 0)
(0.0321358 -0.00924698 0)
(0.0345689 -0.00886367 0)
(0.0375749 -0.00889106 0)
(0.0410019 -0.00852734 0)
(0.0447707 -0.0071213 0)
(0.0488162 -0.00380531 0)
(0.0536018 0.00250582 0)
(0.0579452 0.0119263 0)
(0.0627194 0.0243704 0)
(0.0718123 0.0370184 0)
(0.0714466 0.0429052 0)
(0.0972608 0.0612569 0)
(0.095002 0.0522827 0)
(0.105224 0.0536652 0)
(-0.124956 0.0944661 0)
(0.669714 0.411984 0)
(-0.266868 0.15595 0)
(0.0179413 0.0707363 0)
(0.0367485 0.0629662 0)
(0.0513133 0.0345933 0)
(0.0850038 -0.0256946 0)
(0.109613 -0.0823966 0)
(0.121414 -0.120521 0)
(0.122721 -0.139604 0)
(0.116161 -0.142238 0)
(0.104492 -0.131842 0)
(0.0903524 -0.11251 0)
(0.0758892 -0.0883329 0)
(0.0629259 -0.063182 0)
(0.0529016 -0.0401886 0)
(0.0466173 -0.0222178 0)
(0.0435856 -0.0116949 0)
(0.0408237 -0.00965937 0)
(0.0359841 -0.0116555 0)
(0.0294516 -0.0136496 0)
(0.0225467 -0.0146022 0)
(0.0161742 -0.0145588 0)
(0.0109383 -0.0137953 0)
(0.00736086 -0.0125561 0)
(0.00591317 -0.0113267 0)
(0.00643737 -0.0111376 0)
(0.00815409 -0.0117358 0)
(0.0105388 -0.012389 0)
(0.0133873 -0.0125113 0)
(0.0166936 -0.0116246 0)
(0.0206814 -0.00910354 0)
(0.0258906 -0.00384434 0)
(0.0339526 0.00529948 0)
(0.0421146 0.016389 0)
(0.0517196 0.0271263 0)
(0.05674 0.033578 0)
(0.0684232 0.0473843 0)
(0.0729824 0.0566249 0)
(0.113498 0.0769507 0)
(-0.107876 0.149117 0)
(0.766379 0.413447 0)
(-0.0665957 0.128789 0)
(0.0909495 -0.00787404 0)
(0.146854 -0.029578 0)
(0.17068 -0.0501456 0)
(0.197545 -0.080204 0)
(0.208707 -0.107298 0)
(0.203671 -0.124442 0)
(0.1859 -0.129933 0)
(0.160034 -0.124582 0)
(0.130601 -0.110486 0)
(0.101129 -0.0905304 0)
(0.0739884 -0.0678951 0)
(0.0509813 -0.0459478 0)
(0.0333153 -0.0271392 0)
(0.0213666 -0.0135278 0)
(0.0141544 -0.00609315 0)
(0.00920551 -0.00434383 0)
(0.00423926 -0.00545147 0)
(-0.00144879 -0.00704925 0)
(-0.00727505 -0.0082493 0)
(-0.0126453 -0.00904711 0)
(-0.0170768 -0.00963725 0)
(-0.0201921 -0.0101858 0)
(-0.0218266 -0.0109471 0)
(-0.022202 -0.012183 0)
(-0.0217783 -0.0136645 0)
(-0.0208918 -0.0149604 0)
(-0.0197361 -0.0156902 0)
(-0.0184089 -0.0156083 0)
(-0.01678 -0.0145889 0)
(-0.0142537 -0.0122856 0)
(-0.00922672 -0.00771927 0)
(0.00285654 0.000334426 0)
(0.0126935 0.00835856 0)
(0.0191617 0.0129661 0)
(0.0281145 0.0207817 0)
(0.0359793 0.0276871 0)
(0.110725 0.0826274 0)
(-0.363963 0.214448 0)
(0.899267 0.405192 0)
(0.428757 0.28053 0)
(0.431837 0.179173 0)
(0.443358 0.108702 0)
(0.418531 0.0561002 0)
(0.37259 0.00242836 0)
(0.323102 -0.0423912 0)
(0.272759 -0.0706771 0)
(0.220638 -0.0821491 0)
(0.169084 -0.0802932 0)
(0.121469 -0.0695209 0)
(0.0797984 -0.0537134 0)
(0.0448261 -0.0361243 0)
(0.0174776 -0.0201828 0)
(-0.00209941 -0.00759282 0)
(-0.0139835 -0.00017061 0)
(-0.0208268 0.00277168 0)
(-0.0251847 0.00281444 0)
(-0.0289856 0.00164374 0)
(-0.0330203 0.0002796 0)
(-0.0372541 -0.00100418 0)
(-0.0412694 -0.00228099 0)
(-0.0447778 -0.00361176 0)
(-0.0476644 -0.00500577 0)
(-0.0500134 -0.00655316 0)
(-0.0519927 -0.00829649 0)
(-0.0537833 -0.0100559 0)
(-0.055523 -0.0115572 0)
(-0.0574164 -0.0125441 0)
(-0.0599456 -0.0128209 0)
(-0.0638915 -0.0121638 0)
(-0.0700907 -0.00969615 0)
(-0.0793697 -0.00345091 0)
(-0.0910474 0.00800956 0)
(-0.104749 0.0241518 0)
(-0.127709 0.0463143 0)
(-0.159289 0.0764037 0)
(-0.200326 0.111357 0)
(-0.268273 0.143377 0)
(-0.530166 0.16061 0)
(-0.219372 0.0571922 0)
(0.107907 0.032884 0)
(0.183594 -0.0135367 0)
(0.17029 -0.0401121 0)
(0.157903 -0.0496628 0)
(0.138554 -0.0516669 0)
(0.108965 -0.0482228 0)
(0.0740221 -0.0405264 0)
(0.039495 -0.0299297 0)
(0.00829235 -0.0173309 0)
(-0.0177066 -0.00445577 0)
(-0.0348739 0.00355269 0)
(-0.0454026 0.00832537 0)
(-0.0509101 0.0104977 0)
(-0.0537746 0.0110045 0)
(-0.0557906 0.0106224 0)
(-0.0577488 0.00992246 0)
(-0.0598597 0.00917931 0)
(-0.0620624 0.00835468 0)
(-0.0644582 0.00725779 0)
(-0.0671168 0.00589454 0)
(-0.0701228 0.00472804 0)
(-0.0736272 0.00383924 0)
(-0.0777315 0.00335731 0)
(-0.082456 0.00364716 0)
(-0.0876851 0.00519654 0)
(-0.0931838 0.00855163 0)
(-0.0988215 0.0140612 0)
(-0.104699 0.0209372 0)
(-0.111107 0.0273454 0)
(-0.117528 0.0329958 0)
(-0.123063 0.0402648 0)
(-0.127617 0.0517435 0)
(-0.130765 0.069287 0)
(-0.130048 0.0923089 0)
(-0.122596 0.108086 0)
(-0.111803 0.074125 0)
(-0.157665 -0.169033 0)
(-0.151817 0.111386 0)
(0.0967655 0.0132406 0)
(0.0863035 -0.061239 0)
(0.0636893 -0.0737296 0)
(0.0443167 -0.0714276 0)
(0.0237264 -0.068486 0)
(-0.000111381 -0.0659575 0)
(-0.0231945 -0.0648711 0)
(-0.0429804 -0.0640283 0)
(-0.0580746 -0.0641193 0)
(-0.0673807 -0.065979 0)
(-0.0719822 -0.0685211 0)
(-0.0743301 -0.0713398 0)
(-0.0751079 -0.0742722 0)
(-0.0751553 -0.0771273 0)
(-0.0750701 -0.0799077 0)
(-0.0751485 -0.0826549 0)
(-0.0755105 -0.0853677 0)
(-0.0762132 -0.0880251 0)
(-0.0773511 -0.090478 0)
(-0.0790555 -0.0926478 0)
(-0.0813868 -0.0945635 0)
(-0.0843427 -0.096818 0)
(-0.0880954 -0.100104 0)
(-0.0929108 -0.104678 0)
(-0.0989204 -0.110428 0)
(-0.105844 -0.116449 0)
(-0.112872 -0.120608 0)
(-0.118935 -0.121995 0)
(-0.123227 -0.117878 0)
(-0.125105 -0.10661 0)
(-0.123099 -0.0880946 0)
(-0.114568 -0.062494 0)
(-0.0964915 -0.0316261 0)
(-0.0675836 -0.000820603 0)
(-0.0317001 0.0136457 0)
(0.0758089 -0.0962162 0)
(-0.110296 -0.163071 0)
(0.277075 -0.153321 0)
(-0.246626 -0.0557727 0)
(-0.162107 0.190836 0)
(-0.0613874 0.207476 0)
(-0.0772756 0.240275 0)
(-0.0794973 0.236341 0)
(-0.0894532 0.232645 0)
(-0.0997671 0.23178 0)
(-0.108546 0.234903 0)
(-0.114209 0.240816 0)
(-0.115893 0.247232 0)
(-0.114513 0.255371 0)
(-0.111221 0.264879 0)
(-0.107006 0.27301 0)
(-0.102816 0.279593 0)
(-0.0991209 0.28473 0)
(-0.0962092 0.288698 0)
(-0.0941694 0.291876 0)
(-0.0929947 0.294577 0)
(-0.0926524 0.296975 0)
(-0.0931218 0.299126 0)
(-0.0943707 0.300892 0)
(-0.0963336 0.302173 0)
(-0.0989062 0.302935 0)
(-0.101976 0.304214 0)
(-0.105399 0.307259 0)
(-0.108966 0.312724 0)
(-0.11242 0.32078 0)
(-0.11545 0.330434 0)
(-0.117616 0.339018 0)
(-0.118463 0.346231 0)
(-0.117193 0.349734 0)
(-0.11246 0.348618 0)
(-0.102389 0.343736 0)
(-0.0851259 0.336697 0)
(-0.0605918 0.331057 0)
(-0.0316653 0.332376 0)
(0.0100414 0.343131 0)
(0.119865 0.418492 0)
(-0.278051 0.437188 0)
)
;

boundaryField
{
    floor
    {
        type            noSlip;
    }
    ceiling
    {
        type            noSlip;
    }
    sWall
    {
        type            noSlip;
    }
    nWall
    {
        type            noSlip;
    }
    sideWalls
    {
        type            empty;
    }
    glass1
    {
        type            noSlip;
    }
    glass2
    {
        type            noSlip;
    }
    sun
    {
        type            noSlip;
    }
    heatsource1
    {
        type            noSlip;
    }
    heatsource2
    {
        type            noSlip;
    }
    Table_master
    {
        type            noSlip;
    }
    Table_slave
    {
        type            noSlip;
    }
    inlet
    {
        type            fixedValue;
        value           uniform (0.2 0 0);
    }
    outlet
    {
        type            zeroGradient;
    }
}


// ************************************************************************* //
