/*--------------------------------*- C++ -*----------------------------------*\
  =========                 |
  \\      /  F ield         | OpenFOAM: The Open Source CFD Toolbox
   \\    /   O peration     | Website:  https://openfoam.org
    \\  /    A nd           | Version:  6
     \\/     M anipulation  |
\*---------------------------------------------------------------------------*/
FoamFile
{
    version     2.0;
    format      ascii;
    class       volScalarField;
    location    "400";
    object      epsilon;
}
// * * * * * * * * * * * * * * * * * * * * * * * * * * * * * * * * * * * * * //

dimensions      [0 2 -3 0 0 0 0];

internalField   nonuniform List<scalar> 
459
(
0.000367495
0.000467843
0.000483554
0.000551565
0.000619129
0.000685775
0.000753561
0.000826231
0.000889556
0.000927176
0.000926276
0.000878995
0.000789212
0.000677057
0.000568655
2.93857e-05
5.39056e-05
7.0127e-05
6.45403e-05
5.65382e-05
4.84375e-05
4.04527e-05
3.36595e-05
2.81798e-05
2.37982e-05
2.02801e-05
1.74539e-05
1.51439e-05
1.32183e-05
1.15692e-05
1.0091e-05
8.67558e-06
8.10364e-06
6.41673e-06
0.000985249
0.00150576
0.000442038
0.000420093
0.000434271
0.000458012
0.00049297
0.000543641
0.000601611
0.000649744
0.000669903
0.000649374
0.000587568
0.000504186
0.000456505
0.000585856
0.000171419
4.60921e-05
9.21977e-05
8.86305e-05
7.62014e-05
6.24679e-05
5.09163e-05
4.42374e-05
3.6191e-05
2.92623e-05
2.3707e-05
1.93364e-05
1.5937e-05
1.32797e-05
1.12116e-05
9.72218e-06
8.88845e-06
8.63839e-06
2.70106e-05
1.73118e-05
0.00186202
0.00390232
0.000575777
0.000403661
0.000412228
0.000449682
0.000506402
0.00058403
0.000672186
0.000745133
0.000779666
0.000764574
0.000702201
0.000611525
0.0005247
0.000477965
0.000533705
0.000340351
0.000211236
0.000145353
0.00010531
7.96411e-05
6.49623e-05
0.000113217
8.08564e-05
5.97702e-05
4.56313e-05
3.58557e-05
2.88994e-05
2.38273e-05
2.00717e-05
1.7301e-05
1.34516e-05
1.15898e-05
5.1821e-05
2.85885e-05
0.00310369
0.00828339
0.000967376
0.0004143
0.00040048
0.00045125
0.00053312
0.000651282
0.000779757
0.000872519
0.000908645
0.000885415
0.000810376
0.000703986
0.000584713
0.000490983
0.000451092
0.00079199
0.000427523
0.000242894
0.000155993
0.000109233
8.20045e-05
6.99943e-05
0.000158551
0.00012567
0.000106561
9.41386e-05
8.43292e-05
7.46861e-05
6.60146e-05
5.73612e-05
4.78941e-05
2.91651e-05
1.96037e-05
8.71215e-05
3.96813e-05
0.00483977
0.0148578
0.00199026
0.000504961
0.00040574
0.000457879
0.00057651
0.000786627
0.000968205
0.00106555
0.00108492
0.00103712
0.000934276
0.000795479
0.000640413
0.000492981
0.000371799
0.000302191
0.000226445
0.000165819
0.000122068
9.25856e-05
7.37128e-05
6.34628e-05
6.3925e-05
6.26785e-05
6.12443e-05
5.93765e-05
5.641e-05
5.18906e-05
4.69125e-05
4.21887e-05
3.7928e-05
3.12595e-05
2.46218e-05
6.02683e-05
4.65533e-05
7.73955e-05
0.000134079
0.000188537
0.00726425
0.0220072
0.00455388
0.00100133
0.000597357
0.000589198
0.000757797
0.0011339
0.00131511
0.00136531
0.00133433
0.00124383
0.00110238
0.000920748
0.000719214
0.000525359
0.000365352
0.000255581
0.000185501
0.000137323
0.000103116
8.08491e-05
6.80743e-05
6.26313e-05
6.29863e-05
6.58014e-05
6.88397e-05
7.07751e-05
7.04188e-05
6.65246e-05
5.85555e-05
4.98525e-05
4.19372e-05
3.50042e-05
3.0679e-05
4.3775e-05
4.68726e-05
5.82536e-05
0.000247993
0.00021476
0.010157
0.0262378
0.00958138
0.00344065
0.00202711
0.00162006
0.00179751
0.00193348
0.00192019
0.00182587
0.00169155
0.00152295
0.00131467
0.00107018
0.000810159
0.000566577
0.000369889
0.000237654
0.000159182
0.000113625
8.6306e-05
7.15473e-05
6.57406e-05
6.62855e-05
7.1269e-05
7.84955e-05
8.62477e-05
9.35427e-05
9.91732e-05
0.00010106
9.55831e-05
8.30516e-05
7.08629e-05
6.09784e-05
5.71887e-05
6.54552e-05
8.53442e-05
0.000140481
0.000331058
0.000317048
0.0108491
0.0293122
0.0159829
0.0104818
0.00718791
0.00528184
0.00416292
0.00337924
0.00283987
0.00245689
0.00215149
0.0018621
0.00155288
0.00121778
0.000880716
0.00057872
0.000343706
0.000198551
0.000120418
8.72612e-05
7.18761e-05
6.63065e-05
6.71548e-05
7.25129e-05
8.11955e-05
9.23051e-05
0.00010537
0.000120394
0.000137462
0.000156299
0.000175539
0.000187017
0.000193664
0.000213048
0.000256579
0.000392068
0.000742092
0.00143071
0.00419196
0.00121221
0.0100518
0.0170333
0.0136824
0.0103366
0.00784608
0.00608992
0.00486443
0.00403392
0.00345806
0.00301488
0.00261209
0.00219557
0.00174878
0.00128445
0.000849753
0.000491399
0.000234476
0.000129102
8.48305e-05
6.70142e-05
6.096e-05
6.1411e-05
6.60597e-05
7.38406e-05
8.43478e-05
9.75801e-05
0.00011395
0.000134364
0.00016027
0.000193775
0.000237758
0.000295904
0.000374934
0.000493742
0.000669901
0.000908349
0.00117817
0.00140838
0.00158347
0.000985166
0.00446797
0.00668639
0.00647085
0.00593113
0.00538728
0.00479001
0.00416246
0.00351743
0.00285895
0.00220197
0.0015688
0.0009572
0.00047645
0.000229553
0.000114281
7.00301e-05
5.33372e-05
4.78879e-05
4.78958e-05
5.10662e-05
5.64488e-05
6.37259e-05
7.29243e-05
8.43188e-05
9.84524e-05
0.000116218
0.000138996
0.000168884
0.00020907
0.000264988
0.000342123
0.000447855
0.0005857
0.000741926
0.000873426
0.000924048
0.00085717
0.000542706
0.0032193
0.00644686
0.0064565
0.00534214
0.0046323
0.00409648
0.00343827
0.00265109
0.00182799
0.00115336
0.00065879
0.000338058
0.000164664
8.43366e-05
5.05457e-05
3.85316e-05
3.5519e-05
3.64734e-05
3.94376e-05
4.38189e-05
4.94743e-05
5.64865e-05
6.50882e-05
7.56584e-05
8.87722e-05
0.000105301
0.000126572
0.000154598
0.000192328
0.000243388
0.000312791
0.000405505
0.000521931
0.000653826
0.00075045
0.000847146
0.000769404
0.000568106
0.00212377
0.00251276
0.00282605
0.00333489
0.00281141
0.00227854
0.001851
0.00148768
0.00120714
0.000934543
0.000672947
0.000444479
0.000267513
0.000153303
9.06953e-05
6.04332e-05
4.71786e-05
4.23577e-05
4.19316e-05
4.40615e-05
4.79662e-05
5.3203e-05
5.96977e-05
6.75832e-05
7.70785e-05
8.84887e-05
0.000102232
0.000118906
0.000139423
0.000165295
0.000198204
0.000239098
0.000290258
0.00035465
0.00043534
0.000550527
0.00058779
0.000544216
0.000447137
0.000355925
)
;

boundaryField
{
    floor
    {
        Cmu             0.09;
        kappa           0.41;
        E               9.8;
        type            epsilonWallFunction;
        value           nonuniform List<scalar> 
29
(
0.000568655
2.93857e-05
5.39056e-05
7.0127e-05
6.45403e-05
5.65382e-05
4.84375e-05
4.04527e-05
3.36595e-05
2.81798e-05
2.37982e-05
2.02801e-05
1.74539e-05
1.51439e-05
1.32183e-05
1.15692e-05
1.0091e-05
8.67558e-06
8.10364e-06
6.41673e-06
6.41673e-06
1.73118e-05
2.85885e-05
3.96813e-05
0.000568655
2.93857e-05
4.60921e-05
0.000340351
0.00079199
)
;
    }
    ceiling
    {
        Cmu             0.09;
        kappa           0.41;
        E               9.8;
        type            epsilonWallFunction;
        value           nonuniform List<scalar> 
43
(
0.00212377
0.00251276
0.00282605
0.00333489
0.00281141
0.00227854
0.001851
0.00148768
0.00120714
0.000934543
0.000672947
0.000444479
0.000267513
0.000153303
9.06953e-05
6.04332e-05
4.71786e-05
4.23577e-05
4.19316e-05
4.40615e-05
4.79662e-05
5.3203e-05
5.96977e-05
6.75832e-05
7.70785e-05
8.84887e-05
0.000102232
0.000118906
0.000139423
0.000165295
0.000198204
0.000239098
0.000290258
0.00035465
0.00043534
0.000550527
0.00058779
0.000544216
0.000447137
0.000355925
0.0100518
0.0170333
0.0032193
)
;
    }
    sWall
    {
        Cmu             0.09;
        kappa           0.41;
        E               9.8;
        type            epsilonWallFunction;
        value           uniform 0.00212377;
    }
    nWall
    {
        Cmu             0.09;
        kappa           0.41;
        E               9.8;
        type            epsilonWallFunction;
        value           nonuniform List<scalar> 6(0.000188537 0.00021476 0.000317048 0.000542706 0.000568106 0.000355925);
    }
    sideWalls
    {
        type            empty;
    }
    glass1
    {
        Cmu             0.09;
        kappa           0.41;
        E               9.8;
        type            epsilonWallFunction;
        value           nonuniform List<scalar> 9(0.000367495 0.000985249 0.00186202 0.00310369 0.00483977 0.00726425 0.010157 0.0108491 0.0100518);
    }
    glass2
    {
        Cmu             0.09;
        kappa           0.41;
        E               9.8;
        type            epsilonWallFunction;
        value           nonuniform List<scalar> 2(0.00121221 0.000985166);
    }
    sun
    {
        Cmu             0.09;
        kappa           0.41;
        E               9.8;
        type            epsilonWallFunction;
        value           nonuniform List<scalar> 
14
(
0.000367495
0.000467843
0.000483554
0.000551565
0.000619129
0.000685775
0.000753561
0.000826231
0.000889556
0.000927176
0.000926276
0.000878995
0.000789212
0.000677057
)
;
    }
    heatsource1
    {
        Cmu             0.09;
        kappa           0.41;
        E               9.8;
        type            epsilonWallFunction;
        value           nonuniform List<scalar> 3(7.73955e-05 0.000134079 0.000188537);
    }
    heatsource2
    {
        Cmu             0.09;
        kappa           0.41;
        E               9.8;
        type            epsilonWallFunction;
        value           nonuniform List<scalar> 4(0.000585856 0.000171419 0.000171419 0.000533705);
    }
    Table_master
    {
        Cmu             0.09;
        kappa           0.41;
        E               9.8;
        type            epsilonWallFunction;
        value           nonuniform List<scalar> 9(0.000113217 8.08564e-05 5.97702e-05 4.56313e-05 3.58557e-05 2.88994e-05 2.38273e-05 2.00717e-05 1.7301e-05);
    }
    Table_slave
    {
        Cmu             0.09;
        kappa           0.41;
        E               9.8;
        type            epsilonWallFunction;
        value           nonuniform List<scalar> 9(0.000158551 0.00012567 0.000106561 9.41386e-05 8.43292e-05 7.46861e-05 6.60146e-05 5.73612e-05 4.78941e-05);
    }
    inlet
    {
        type            turbulentMixingLengthDissipationRateInlet;
        mixingLength    0.01;
        phi             phi;
        k               k;
        value           uniform 0.000101881;
    }
    outlet
    {
        type            zeroGradient;
    }
}


// ************************************************************************* //
