/*--------------------------------*- C++ -*----------------------------------*\
  =========                 |
  \\      /  F ield         | OpenFOAM: The Open Source CFD Toolbox
   \\    /   O peration     | Website:  https://openfoam.org
    \\  /    A nd           | Version:  6
     \\/     M anipulation  |
\*---------------------------------------------------------------------------*/
FoamFile
{
    version     2.0;
    format      ascii;
    class       surfaceScalarField;
    location    "100";
    object      phi;
}
// * * * * * * * * * * * * * * * * * * * * * * * * * * * * * * * * * * * * * //

dimensions      [1 0 -1 0 0 0 0];

internalField   nonuniform List<scalar> 
852
(
-0.0028837
0.0029428
-0.0037804
0.000896762
-0.00452465
0.000744312
-0.00514773
0.00062314
-0.00561749
0.000469825
-0.0059127
0.000295273
-0.00600873
9.60935e-05
-0.00587761
-0.000131062
-0.00549909
-0.000378458
-0.00488493
-0.000614097
-0.00408461
-0.000800263
-0.00317185
-0.000912701
-0.0022143
-0.000957488
-0.00120868
-0.00100555
-0.00120693
-0.000579494
0.000582667
-8.58372e-05
-0.000493618
0.000590622
-0.000676411
0.00106862
-0.000477956
0.00138448
-0.000315817
0.00158761
-0.000203087
0.00169867
-0.000111038
0.00175494
-5.62405e-05
0.0017917
-3.6748e-05
0.00182122
-2.95076e-05
0.00184544
-2.4221e-05
0.00186298
-1.75515e-05
0.00186817
-5.20575e-06
0.00184772
2.04232e-05
0.00177302
7.46769e-05
0.00159745
0.000175534
0.00129317
0.000304251
0.000868768
0.000424372
0.000872592
-0.00205755
0.00515883
-0.00298422
0.00182349
-0.00377032
0.00153048
-0.00438579
0.00123867
-0.00484405
0.000928141
-0.00513769
0.000588968
-0.0052426
0.000201057
-0.00512798
-0.000245622
-0.00477841
-0.000727981
-0.00421699
-0.00117547
-0.0035045
-0.0015127
-0.00271877
-0.00169838
-0.00194235
-0.00173386
-0.00129878
-0.00164906
-0.00111545
-0.00139019
-0.000330226
-0.000785212
-0.000330218
0.000656974
-6.58687e-05
0.00104907
-0.000885666
0.00127076
-0.000898044
0.00148912
-0.00069625
0.00166244
-0.00048908
0.00177025
-0.000310844
0.00178477
-0.000125507
0.00178542
-5.68561e-05
0.00178802
-3.93113e-05
0.00179095
-3.24147e-05
0.00179338
-2.66369e-05
0.00179513
-1.93029e-05
0.00179441
-4.49591e-06
0.00178553
2.92815e-05
0.00173631
0.000123872
0.00153726
0.000374553
0.00118868
0.000652807
0.000735386
0.000877633
0.00161827
-0.00145313
0.00685325
-0.00228471
0.00265514
-0.00298879
0.00223462
-0.00351537
0.0017653
-0.00391539
0.00132822
-0.00418351
0.000857145
-0.00428666
0.000304257
-0.00417517
-0.000357063
-0.00383005
-0.00107306
-0.00329342
-0.00171205
-0.0026401
-0.00216598
-0.0019476
-0.00239083
-0.00129153
-0.00238989
-0.000749938
-0.0021906
-0.00036756
-0.00177252
1.0067e-05
-0.00116278
-0.000320084
0.00142892
-0.00148538
0.00166695
-0.00112363
0.00167645
-0.000907479
0.00170984
-0.000729576
0.00176767
-0.000546839
0.00184268
-0.000385801
0.00171739
0.00166074
0.00162162
0.00158939
0.00156292
0.00154378
0.00153943
0.00156885
0.00169285
0.00141273
0.000654651
0.0010602
0.00100531
0.000605225
0.00133258
0.00223944
-0.00103349
0.0081975
-0.00172952
0.00335124
-0.0021977
0.00270286
-0.00255158
0.00211924
-0.00283254
0.00160923
-0.00303071
0.00105536
-0.00310525
0.000378851
-0.00296814
-0.000494126
-0.00260851
-0.00143265
-0.00210457
-0.00221596
-0.00154126
-0.00272927
-0.000983194
-0.00294886
-0.000478657
-0.00289439
-4.81279e-05
-0.00262109
0.000334064
-0.00215466
0.000749794
-0.00157845
0.00144614
-0.00101637
0.00224859
-0.000793342
0.001771
-0.00100772
0.00168298
-0.00103554
0.00162833
-0.000852762
0.00157921
-0.00068039
0.00155334
-0.000520904
0.00151756
-0.000349957
0.00167304
-0.000155578
0.00177186
-9.89251e-05
0.00185069
-7.89392e-05
0.00191027
-5.96992e-05
0.00193627
-2.61215e-05
0.00190844
2.77017e-05
0.00180421
0.000104091
0.00159371
0.000210354
0.00122316
0.000370393
0.00111202
0.000765772
0.000840181
0.00127713
0.000424449
0.00174829
0.00268497
-0.000738251
0.00930475
-0.00130382
0.00391686
-0.00141423
0.00281333
-0.0015251
0.00223016
-0.00162886
0.00171305
-0.00169747
0.00112402
-0.0016887
0.000370127
-0.00146742
-0.000715353
-0.00108898
-0.00181105
-0.000658712
-0.00264619
-0.000244534
-0.00314342
0.000116202
-0.00330958
0.000408123
-0.00318628
0.000636273
-0.00284921
0.000845575
-0.00236392
0.00108186
-0.00181468
0.00138009
-0.00131454
0.00159997
-0.00101316
0.00153167
-0.000939353
0.00137978
-0.000883586
0.0012689
-0.000741808
0.00118404
-0.000595473
0.00112794
-0.000464747
0.00111546
-0.000337424
0.00118581
-0.000225881
0.00125944
-0.000172521
0.00133045
-0.000149918
0.00139579
-0.00012501
0.00144545
-7.57607e-05
0.00146086
1.23096e-05
0.00142386
0.000141091
0.00132478
0.00030944
0.00116401
0.000531154
0.00103345
0.000896323
0.000900512
0.00141005
0.000591324
0.00205745
0.000564092
0.00271218
-0.00106237
0.00162626
-0.00152209
0.000459521
-0.00147256
-0.000653758
0.0103762
-0.00108177
0.00434493
-0.000700609
0.00243223
-0.000464362
0.00199397
-0.000346827
0.00159557
-0.0002457
0.00102295
-2.29645e-05
0.000147444
0.000341046
-0.00107931
0.000697497
-0.00216746
0.000980333
-0.002929
0.00116736
-0.00333043
0.00126077
-0.00340296
0.00128375
-0.00320924
0.00126123
-0.00282665
0.00122656
-0.00232922
0.00120972
-0.00179779
0.00121464
-0.0013194
0.00118698
-0.00098544
0.00106331
-0.000815622
0.000888142
-0.000708359
0.000744179
-0.000597787
0.000643515
-0.000494756
0.000585585
-0.000406769
0.000577678
-0.000329475
0.00062089
-0.000269058
0.000687978
-0.00023958
0.000765019
-0.000226938
0.000847023
-0.000206999
0.000928693
-0.00015742
0.000998017
-5.70095e-05
0.00103904
0.000100069
0.00105089
0.000297593
0.00104062
0.000541417
0.00106147
0.000875465
0.00117241
0.0012991
0.00138066
0.00184918
0.00188758
0.00220525
0.00216181
0.00135203
0.00176013
0.00086119
0.000347277
-0.00078849
0.0116256
-0.000743412
0.00429991
0.0002908
0.00139808
0.000852303
0.00143253
0.00117881
0.00126912
0.00154712
0.0006547
0.00202036
-0.000325728
0.00242044
-0.00147934
0.00264756
-0.00239455
0.00269333
-0.00297475
0.00258278
-0.00321987
0.00235485
-0.00317502
0.00205563
-0.00291
0.00172782
-0.00249882
0.0014075
-0.00200886
0.00112189
-0.00151214
0.00087855
-0.00107601
0.000667494
-0.000774328
0.000460081
-0.000608153
0.000270012
-0.000518236
0.000123357
-0.000451083
2.5064e-05
-0.00039642
-2.85769e-05
-0.000353092
-3.84382e-05
-0.000319583
-9.45044e-06
-0.000298022
4.33101e-05
-0.000292323
0.000109608
-0.000293223
0.000188307
-0.000285691
0.000283671
-0.000252781
0.000399879
-0.000173218
0.000521382
-2.14366e-05
0.00064019
0.00017878
0.000769667
0.000411934
0.000947549
0.000697575
0.00123797
0.00100867
0.00170707
0.00138007
0.00245163
0.00146068
0.00304253
0.000761124
0.00310815
0.000795562
0.00352033
0.00247949
0.00966041
0.00307969
0.00369976
0.00325123
0.00122659
0.00348948
0.00119434
0.00375111
0.00100756
0.00419101
0.000214868
0.00466413
-0.000798791
0.00484683
-0.001662
0.00472194
-0.00226963
0.0043495
-0.0026023
0.00380652
-0.00267688
0.00316651
-0.00253501
0.00249544
-0.00223891
0.00184381
-0.00184716
0.00124452
-0.00140954
0.000728141
-0.000995712
0.00030819
-0.000656007
-5.10703e-06
-0.000460979
-0.000237428
-0.000375783
-0.000410872
-0.00034475
-0.000538114
-0.000323804
-0.000626591
-0.000307912
-0.000682152
-0.000297505
-0.000708914
-0.000292803
-0.00071228
-0.000294642
-0.000701609
-0.000302985
-0.000682591
-0.000312235
-0.000654343
-0.000313937
-0.000608636
-0.000298488
-0.000527241
-0.000254615
-0.000383758
-0.000164923
-0.000205278
2.93907e-07
-1.9752e-06
0.000208625
0.000261519
0.000434073
0.000604526
0.000665653
0.00109077
0.000893813
0.00166297
0.000888465
0.00189269
0.000531393
0.00110523
0.00158301
0.00489035
0.0102247
0.0139174
0.0123555
0.00278855
0.0111204
0.00242946
0.0102401
0.00188797
0.0095335
0.000921474
0.00868842
4.63246e-05
0.00766479
-0.00063838
0.00654633
-0.00115119
0.00540146
-0.00145745
0.00427446
-0.00154989
0.00319677
-0.00145732
0.00220333
-0.00124545
0.00131861
-0.000962415
0.000546542
-0.000637427
-7.04257e-05
-0.000378699
-0.000496396
-0.000229991
-0.000762198
-0.000195133
-0.000944564
-0.000193379
-0.00108783
-0.000201452
-0.00120304
-0.000208563
-0.00129609
-0.000214845
-0.00137212
-0.000221467
-0.00143618
-0.000228725
-0.00149455
-0.000236267
-0.00155541
-0.000242123
-0.00162659
-0.000241051
-0.00171579
-0.000224732
-0.00183246
-0.000181826
-0.00198852
-9.85512e-05
-0.0021907
3.72568e-05
-0.00242419
0.000233776
-0.00272346
0.000507893
-0.00317269
0.000883304
-0.00386601
0.00135897
-0.00487203
0.00189983
-0.00631086
0.0023273
-0.00807575
0.00229629
-0.00757495
0.00108221
-0.00239116
0.00485075
0.00400723
0.00441587
0.00286418
0.00521509
0.00108856
0.0054042
0.000732168
0.00513191
0.000318423
0.00463858
-0.000145197
0.00397423
-0.000486939
0.00318778
-0.000671046
0.0023314
-0.000693525
0.00145076
-0.000576672
0.000603905
-0.00039856
-0.000151838
-0.000206625
-0.000733794
-5.54258e-05
-0.00110501
-7.43609e-06
-0.00132779
-7.17399e-06
-0.00148764
-3.52522e-05
-0.00161728
-6.37136e-05
-0.00173292
-8.57822e-05
-0.00183962
-0.00010185
-0.00194048
-0.000113967
-0.00203885
-0.000123087
-0.00213817
-0.000129404
-0.00224194
-0.000132483
-0.00235338
-0.000130682
-0.002474
-0.000120429
-0.00260263
-9.61018e-05
-0.00273431
-5.01408e-05
-0.00285952
2.66629e-05
-0.00296721
0.000144949
-0.00305765
0.000324213
-0.00314062
0.000590869
-0.00322201
0.000964697
-0.00330021
0.00143717
-0.00332744
0.00192706
-0.00324406
0.00224392
-0.00288119
0.00193342
-0.00160252
-0.000196456
-0.00391672
-0.000619859
0.00468148
0.000708809
0.00153538
0.00102519
0.000772061
0.00124852
0.000508734
0.00131235
0.000254519
0.00114274
2.43814e-05
0.000781045
-0.000125253
0.000267355
-0.000157333
-0.000331369
-9.47375e-05
-0.000914954
6.96441e-06
-0.00138932
7.58599e-05
-0.00170327
0.000107368
-0.00186822
0.000109575
-0.00196072
8.51006e-05
-0.00202396
5.60937e-05
-0.00208806
2.88715e-05
-0.00215848
6.721e-06
-0.00223372
-1.05244e-05
-0.00231174
-2.3816e-05
-0.00239183
-3.38694e-05
-0.00247376
-4.11439e-05
-0.00255716
-4.59991e-05
-0.00264119
-4.8442e-05
-0.00272411
-4.77547e-05
-0.00280237
-4.216e-05
-0.00286978
-2.86867e-05
-0.00291674
-3.17546e-06
-0.00293179
4.17114e-05
-0.00290135
0.000114517
-0.00280248
0.000225348
-0.00260242
0.000390814
-0.00227177
0.000634049
-0.00179469
0.000960091
-0.00114882
0.00128119
-0.000156161
0.00125126
0.00117477
0.000602491
0.00158527
-0.000606946
-0.0022469
-0.007606
-0.0103886
-0.00566478
-0.00410606
-0.00331742
-0.00279588
-0.00253154
-0.00249989
-0.00261982
-0.00277341
-0.00286566
-0.00285716
-0.00278049
-0.00267293
-0.00256371
-0.00247937
-0.00242435
-0.00239676
-0.00239145
-0.00240348
-0.00242886
-0.00246434
-0.00250711
-0.00255475
-0.00260483
-0.00265422
-0.002698
-0.00272828
-0.00273302
-0.00269284
-0.00257981
-0.00235592
-0.00196653
-0.00133389
-0.000375221
0.000904461
0.00215407
0.00275476
0.00214585
)
;

boundaryField
{
    floor
    {
        type            calculated;
        value           nonuniform List<scalar> 
29
(
0
0
0
0
0
0
0
0
0
0
0
0
0
0
0
0
0
0
0
0
-3.84653e-06
-1.03134e-05
-1.59698e-05
-2.1098e-05
-1.68921e-06
-3.15146e-06
-8.40801e-06
-9.33517e-06
-9.04798e-06
)
;
    }
    ceiling
    {
        type            calculated;
        value           nonuniform List<scalar> 
43
(
-4.49417e-05
-4.36366e-05
-4.23271e-05
-2.32884e-05
-1.65058e-05
-1.27263e-05
-9.75422e-06
-7.22097e-06
-5.26923e-06
-3.70351e-06
-2.45446e-06
-1.49992e-06
-7.83644e-07
-1.54665e-07
3.76889e-07
7.89608e-07
1.08802e-06
1.29443e-06
1.43157e-06
1.51937e-06
1.57671e-06
1.61426e-06
1.63712e-06
1.64831e-06
1.64964e-06
1.64226e-06
1.62688e-06
1.60391e-06
1.57338e-06
1.53464e-06
1.49449e-06
1.45759e-06
1.42872e-06
1.41474e-06
1.42812e-06
1.51139e-06
1.65465e-06
1.81064e-06
1.97177e-06
2.88987e-06
1.02083e-05
7.13836e-06
-5.4478e-05
)
;
    }
    sWall
    {
        type            calculated;
        value           uniform -0.000269532;
    }
    nWall
    {
        type            calculated;
        value           nonuniform List<scalar> 6(-4.97364e-05 -5.9701e-05 -6.49134e-05 -7.69516e-05 -8.45533e-05 -0.000103934);
    }
    sideWalls
    {
        type            empty;
        value           nonuniform 0();
    }
    glass1
    {
        type            calculated;
        value           nonuniform List<scalar> 9(-5.90413e-05 -0.000158422 -0.000241238 -0.000310714 -0.000368952 -0.000417679 -0.00046081 -0.000514273 -0.000574498);
    }
    glass2
    {
        type            calculated;
        value           nonuniform List<scalar> 2(-0.000264789 -0.000293447);
    }
    sun
    {
        type            calculated;
        value           uniform 0;
    }
    heatsource1
    {
        type            calculated;
        value           nonuniform List<scalar> 3(2.04274e-07 2.04235e-07 2.04252e-07);
    }
    heatsource2
    {
        type            calculated;
        value           nonuniform List<scalar> 4(5.11263e-08 5.12741e-08 0 0);
    }
    Table_master
    {
        type            calculated;
        value           nonuniform List<scalar> 9(-1.53223e-07 -1.53308e-07 -1.53343e-07 -1.53369e-07 -1.53389e-07 -1.53403e-07 -1.53412e-07 -1.53403e-07 -1.53359e-07);
    }
    Table_slave
    {
        type            calculated;
        value           nonuniform List<scalar> 9(1.53175e-07 1.53191e-07 1.53171e-07 1.53154e-07 1.53149e-07 1.53154e-07 1.5317e-07 1.53213e-07 1.53292e-07);
    }
    inlet
    {
        type            calculated;
        value           uniform -0.00606953;
    }
    outlet
    {
        type            calculated;
        value           nonuniform List<scalar> 2(0.00792049 0.00282625);
    }
}


// ************************************************************************* //
