/*--------------------------------*- C++ -*----------------------------------*\
  =========                 |
  \\      /  F ield         | OpenFOAM: The Open Source CFD Toolbox
   \\    /   O peration     | Website:  https://openfoam.org
    \\  /    A nd           | Version:  6
     \\/     M anipulation  |
\*---------------------------------------------------------------------------*/
FoamFile
{
    version     2.0;
    format      ascii;
    class       volScalarField;
    location    "1500";
    object      alphat;
}
// * * * * * * * * * * * * * * * * * * * * * * * * * * * * * * * * * * * * * //

dimensions      [1 -1 -1 0 0 0 0];

internalField   nonuniform List<scalar> 
459
(
0.000843848
0.000884851
0.000870732
0.000901386
0.000928433
0.000951826
0.000972435
0.000991201
0.00100913
0.00102691
0.0010402
0.0010477
0.00104908
0.0010462
0.00103991
0.000432624
0.000553041
0.000587269
0.000600481
0.000604587
0.000596024
0.000569206
0.000539106
0.00051098
0.000485546
0.000462252
0.000440724
0.000420641
0.000401671
0.000383357
0.000365059
0.000345671
0.000330907
0.000301473
0.00128449
0.00217736
0.00186025
0.00218454
0.00236089
0.00254362
0.00272368
0.00288709
0.00301285
0.00308284
0.00310367
0.00304075
0.00284337
0.00244135
0.00177353
0.0010753
0.000980602
0.00069411
0.00144916
0.00208337
0.00248896
0.00256511
0.00236004
0.0017171
0.001482
0.00133277
0.00120749
0.00109726
0.000999144
0.000910179
0.000825563
0.000740678
0.000666593
0.000606736
0.00071665
0.000382201
0.00168676
0.00326408
0.00206074
0.00309994
0.00338208
0.00357382
0.00372135
0.00383318
0.00391551
0.00396435
0.00398864
0.00395541
0.00381912
0.0035163
0.0029703
0.00217012
0.00119727
0.000904475
0.00296366
0.00345556
0.00338646
0.00313847
0.00256216
0.000681841
0.000589958
0.000519452
0.000467586
0.000429248
0.000400072
0.00037723
0.000359478
0.000347609
0.000414155
0.00049559
0.000825687
0.000445447
0.0021002
0.00488341
0.00205072
0.0034442
0.00392174
0.00408666
0.00417178
0.00421811
0.00425048
0.00427882
0.00431202
0.00433361
0.00431515
0.00421419
0.00394239
0.00333196
0.00225007
0.00121893
0.00351469
0.00382822
0.00370278
0.003363
0.00299668
0.00246098
0.0006311
0.000607272
0.000606122
0.000610381
0.000612169
0.00060605
0.000588134
0.000567407
0.000541935
0.000522813
0.000528254
0.000955783
0.000506282
0.00252376
0.00702321
0.00260725
0.00322802
0.00411675
0.00432154
0.00437278
0.00436757
0.00435098
0.00435514
0.00439209
0.00445559
0.00451748
0.00456342
0.00458598
0.00457604
0.00449863
0.0042363
0.00411949
0.00382699
0.00347139
0.00311099
0.00281054
0.00259812
0.00233511
0.0023463
0.00239271
0.00242371
0.00241891
0.00236613
0.00225364
0.00198985
0.0016394
0.00127332
0.000974904
0.000969801
0.000702555
0.000651686
0.000787131
0.000881266
0.00295978
0.0093348
0.00457891
0.00298323
0.00372413
0.00418919
0.00438302
0.00443517
0.00439773
0.00433204
0.00436949
0.0044558
0.00453644
0.00459494
0.00462794
0.00463413
0.00457317
0.00435244
0.00400646
0.0036366
0.00328745
0.0029744
0.00274052
0.00261533
0.00259468
0.00265891
0.0027303
0.00277675
0.00278676
0.00275889
0.00269191
0.00253554
0.00225537
0.00186916
0.00147386
0.00113785
0.000919374
0.000798016
0.00115086
0.000914916
0.00338604
0.011229
0.00813216
0.00469885
0.00352992
0.00340461
0.0037443
0.0041284
0.00440391
0.0043084
0.00436672
0.00444632
0.00450927
0.00454209
0.00453656
0.00449016
0.00438423
0.00417247
0.00387321
0.0035632
0.00326168
0.00297234
0.00275803
0.00264737
0.00262826
0.00266747
0.00271854
0.0027565
0.00277443
0.002778
0.00277533
0.00276014
0.00259094
0.00226072
0.00189104
0.00153728
0.00128171
0.00120401
0.00125517
0.00101511
0.00348638
0.0109773
0.00938059
0.0079818
0.00624972
0.00495236
0.0043601
0.00427038
0.00441897
0.00443841
0.00443757
0.00444921
0.0044594
0.00444496
0.00438812
0.00428573
0.00414568
0.00397118
0.00376925
0.00355748
0.00330974
0.00303026
0.00282259
0.00270819
0.00266253
0.00265456
0.00265602
0.00265615
0.00266089
0.00268504
0.00274708
0.00286248
0.00297823
0.00272366
0.00248967
0.00239368
0.00254262
0.00297766
0.00374698
0.00161368
0.00340692
0.00410055
0.00480269
0.0051291
0.00520745
0.00499229
0.00471154
0.00450824
0.00440544
0.00435784
0.00435726
0.00436718
0.00435496
0.00429711
0.00418497
0.00403227
0.00387649
0.0037496
0.00364059
0.00352379
0.00333697
0.00308916
0.0029019
0.0027821
0.00270375
0.00264456
0.0025875
0.00252547
0.00246291
0.00240982
0.00237137
0.0023435
0.00231872
0.00229846
0.00231024
0.00235247
0.00236519
0.00229024
0.00215405
0.00153473
0.00297714
0.00583373
0.00557627
0.00537414
0.0051689
0.00499265
0.00485763
0.0047363
0.00461049
0.00447195
0.00430976
0.00411698
0.00389885
0.00368522
0.00353627
0.00348967
0.00348616
0.00346315
0.00334937
0.00318207
0.00304388
0.00292697
0.00281663
0.00270749
0.0025996
0.00249523
0.00239887
0.00231974
0.0022708
0.00226238
0.0022888
0.00232594
0.00236774
0.00239252
0.00235981
0.00225468
0.00207943
0.0013153
0.00282612
0.0063744
0.00603409
0.00571644
0.00544862
0.00521717
0.00498665
0.00476205
0.00448477
0.0041701
0.00385114
0.00354665
0.0032781
0.0030949
0.00309526
0.00330899
0.00350445
0.00360968
0.00363502
0.0036056
0.00355405
0.00347767
0.00337225
0.00323793
0.0030821
0.00291912
0.00276582
0.0026364
0.0025384
0.00246747
0.00244503
0.00247205
0.00252074
0.00256323
0.00253977
0.00259469
0.00273898
0.00134763
0.0022506
0.00243826
0.00260772
0.00277606
0.00262134
0.00248539
0.00227292
0.00209115
0.00191494
0.00174252
0.00159367
0.00146449
0.00134361
0.0012251
0.00110673
0.000993407
0.000907582
0.00088502
0.000898412
0.000902301
0.000900875
0.000896348
0.000889077
0.000878484
0.000865555
0.000852709
0.000843548
0.000841878
0.000850617
0.000871537
0.000906124
0.000957415
0.00101951
0.00108777
0.00116085
0.00124562
0.0012709
0.00123843
0.00117194
0.00110009
)
;

boundaryField
{
    floor
    {
        type            compressible::alphatWallFunction;
        Prt             0.85;
        value           nonuniform List<scalar> 
29
(
0.000147948
5.8862e-05
7.73418e-05
8.25e-05
8.44803e-05
8.50945e-05
8.38122e-05
7.97819e-05
7.52304e-05
7.09487e-05
6.70514e-05
6.34594e-05
6.01193e-05
5.69846e-05
5.40059e-05
5.11131e-05
4.82049e-05
4.51026e-05
4.27251e-05
3.79429e-05
3.79424e-05
5.09286e-05
6.08516e-05
7.02278e-05
0.000147946
5.88612e-05
9.83608e-05
0.000128798
0.000172808
)
;
    }
    ceiling
    {
        type            compressible::alphatWallFunction;
        Prt             0.85;
        value           nonuniform List<scalar> 
43
(
0.000309642
0.000333585
0.000355093
0.000376452
0.000356963
0.000339727
0.00031257
0.000289114
0.000266161
0.000243477
0.000223695
0.00020636
0.000189983
0.000173765
0.000157386
0.000141515
0.000129352
0.000126129
0.000128039
0.000128593
0.000128391
0.000127747
0.00012671
0.000125197
0.000123347
0.000121506
0.000120191
0.000119952
0.000121209
0.000124209
0.00012915
0.000136435
0.000145193
0.000154751
0.000164906
0.000176596
0.000180064
0.000175609
0.000166442
0.000156473
0.000455167
0.000539753
0.000382504
)
;
    }
    sWall
    {
        type            compressible::alphatWallFunction;
        Prt             0.85;
        value           uniform 0.000308514;
    }
    nWall
    {
        type            compressible::alphatWallFunction;
        Prt             0.85;
        value           nonuniform List<scalar> 6(0.000125295 0.00013009 0.000144255 0.000185813 0.000190216 0.000156157);
    }
    sideWalls
    {
        type            empty;
    }
    glass1
    {
        type            compressible::alphatWallFunction;
        Prt             0.85;
        value           nonuniform List<scalar> 9(0.000116988 0.000177735 0.00023127 0.00028495 0.00033886 0.000393425 0.000446008 0.000458406 0.000448879);
    }
    glass2
    {
        type            compressible::alphatWallFunction;
        Prt             0.85;
        value           nonuniform List<scalar> 2(0.000224823 0.000214355);
    }
    sun
    {
        type            compressible::alphatWallFunction;
        Prt             0.85;
        value           nonuniform List<scalar> 
14
(
0.000120153
0.000126012
0.000123992
0.000128371
0.00013222
0.000135538
0.000138454
0.000141102
0.000143628
0.000146126
0.000147991
0.000149041
0.000149234
0.000148831
)
;
    }
    heatsource1
    {
        type            compressible::alphatWallFunction;
        Prt             0.85;
        value           nonuniform List<scalar> 3(9.2188e-05 0.00011203 0.000125576);
    }
    heatsource2
    {
        type            compressible::alphatWallFunction;
        Prt             0.85;
        value           nonuniform List<scalar> 4(0.000152981 0.000139684 0.000139682 0.000169907);
    }
    Table_master
    {
        type            compressible::alphatWallFunction;
        Prt             0.85;
        value           nonuniform List<scalar> 9(9.66416e-05 8.29786e-05 7.23163e-05 6.43578e-05 5.84033e-05 5.38264e-05 5.0213e-05 4.73852e-05 4.54844e-05);
    }
    Table_slave
    {
        type            compressible::alphatWallFunction;
        Prt             0.85;
        value           nonuniform List<scalar> 9(8.91277e-05 8.55744e-05 8.5403e-05 8.604e-05 8.63073e-05 8.53929e-05 8.27087e-05 7.95903e-05 7.57386e-05);
    }
    inlet
    {
        type            fixedValue;
        value           uniform 1.94e-05;
    }
    outlet
    {
        type            zeroGradient;
    }
}


// ************************************************************************* //
