/*--------------------------------*- C++ -*----------------------------------*\
  =========                 |
  \\      /  F ield         | OpenFOAM: The Open Source CFD Toolbox
   \\    /   O peration     | Website:  https://openfoam.org
    \\  /    A nd           | Version:  6
     \\/     M anipulation  |
\*---------------------------------------------------------------------------*/
FoamFile
{
    version     2.0;
    format      ascii;
    class       volScalarField;
    location    "700";
    object      nut;
}
// * * * * * * * * * * * * * * * * * * * * * * * * * * * * * * * * * * * * * //

dimensions      [0 2 -1 0 0 0 0];

internalField   nonuniform List<scalar> 
459
(
0.000736487
0.000771809
0.000766167
0.000789981
0.0008096
0.000825654
0.000839019
0.000850521
0.000860976
0.000870907
0.00087715
0.00087867
0.000875438
0.00086953
0.00086235
0.000602612
0.000559962
0.000529222
0.000507364
0.000490177
0.000474794
0.000459546
0.000445267
0.000431834
0.000419067
0.000406872
0.000395171
0.000383859
0.000372755
0.00036153
0.000349668
0.000336159
0.000324655
0.000298766
0.00109414
0.00176054
0.00151643
0.00173859
0.00186168
0.00199181
0.00212032
0.00223593
0.0023224
0.00236556
0.00237341
0.00231997
0.002169
0.0018726
0.00138572
0.000873854
0.000807905
0.000691228
0.000925762
0.00108105
0.00120749
0.00129063
0.00130719
0.00118304
0.00109738
0.00102399
0.000958967
0.000899574
0.000843902
0.000789407
0.000732047
0.000668356
0.000610419
0.000562736
0.000658561
0.000370271
0.00142156
0.00256211
0.00167056
0.00238957
0.00256431
0.00268983
0.00278395
0.00285421
0.00290644
0.00293735
0.00295327
0.00293046
0.00283971
0.00264989
0.00232086
0.00178623
0.000931245
0.000762761
0.00140433
0.00169517
0.00186283
0.00193245
0.0017649
0.000530133
0.000482387
0.00044509
0.000415652
0.000392041
0.000372798
0.000357037
0.000344488
0.000335842
0.000384376
0.000458461
0.000749583
0.00042569
0.00176453
0.00381693
0.0015911
0.00265019
0.00290438
0.00299049
0.00302465
0.00303616
0.00304629
0.00306193
0.00308394
0.0030913
0.00305816
0.00296232
0.00277961
0.00245832
0.00185068
0.000894439
0.0017736
0.00205868
0.00213727
0.0021889
0.00220455
0.00197357
0.000561211
0.000542325
0.00053569
0.000532022
0.000525488
0.000512498
0.000497321
0.000479675
0.000456504
0.000438173
0.000460462
0.000867173
0.000471998
0.0021231
0.00555917
0.00187164
0.00252158
0.00302677
0.00310604
0.00309901
0.00306544
0.00304458
0.00305761
0.00309742
0.00314093
0.00315028
0.00309476
0.00295046
0.00273118
0.00254079
0.00246651
0.00233816
0.00228073
0.00220764
0.00219283
0.00222057
0.00223388
0.00209279
0.00209981
0.0021283
0.00213934
0.0021149
0.00204303
0.00186872
0.00161891
0.00132201
0.00100223
0.000755029
0.000837419
0.000585799
0.000620538
0.0007419
0.000822921
0.00249767
0.00749201
0.00319058
0.00217068
0.00284642
0.00307623
0.00311685
0.00307994
0.00302131
0.0030035
0.00307376
0.00315731
0.00320384
0.00317676
0.00303
0.00274415
0.00242291
0.0023435
0.00237696
0.00228636
0.00215637
0.00210843
0.00215194
0.00224216
0.00233728
0.00243612
0.00251312
0.00255652
0.00256094
0.0025245
0.00241491
0.00220541
0.00189733
0.00150981
0.00114947
0.000894864
0.000732784
0.00068309
0.00103567
0.000854321
0.00288515
0.00910978
0.00597684
0.00299759
0.00229498
0.00240902
0.00270806
0.00293947
0.00304045
0.00298338
0.00308312
0.00317811
0.00323522
0.00322242
0.00308092
0.00275417
0.00232378
0.00222283
0.00237261
0.00227041
0.00211043
0.00205739
0.00210895
0.00221138
0.00232901
0.00244135
0.00253096
0.00259026
0.00262198
0.00263148
0.00261937
0.00247814
0.00219862
0.00182792
0.00148154
0.00117098
0.000978051
0.000942981
0.00101932
0.00091952
0.00299321
0.00921684
0.00747723
0.00577711
0.00422228
0.00324642
0.00288317
0.00291329
0.00306824
0.0031244
0.00317487
0.00322734
0.00326032
0.00323352
0.00307691
0.00271212
0.00220946
0.00211104
0.00236978
0.00225719
0.00207984
0.00202601
0.0020677
0.00214791
0.00223654
0.00231896
0.0023884
0.0024452
0.00249783
0.00255915
0.00264219
0.00270889
0.00247796
0.00215994
0.00190338
0.00180902
0.00194421
0.00248562
0.00342119
0.00150627
0.00294776
0.00360306
0.00405076
0.00420025
0.0040743
0.00376313
0.00347146
0.00330022
0.00322147
0.0032009
0.00322293
0.00325612
0.00326395
0.00320218
0.0029991
0.00256559
0.00198773
0.00195368
0.00237625
0.0022332
0.00203084
0.00196083
0.0019736
0.00201481
0.0020594
0.00209577
0.00211813
0.00212425
0.00211384
0.00208698
0.00204396
0.00198648
0.00192918
0.00190041
0.00192911
0.00200573
0.00206321
0.00203191
0.00191665
0.0014025
0.00212318
0.00359529
0.00391957
0.00389727
0.00378108
0.00366986
0.00358961
0.00351831
0.0034478
0.00336163
0.00323925
0.00305339
0.0027439
0.00222144
0.0016019
0.00172524
0.00238142
0.00216773
0.00193173
0.00183808
0.00181991
0.00182837
0.00184438
0.00185932
0.0018688
0.00187161
0.0018696
0.00186764
0.00187328
0.00189502
0.00192676
0.00197142
0.0020263
0.00206589
0.00204521
0.00194096
0.00175816
0.00114847
0.00225743
0.00412703
0.00435119
0.00423083
0.00408079
0.0039172
0.00374557
0.00356739
0.00331951
0.00303249
0.00272582
0.00240364
0.00204151
0.00157863
0.00107404
0.00134139
0.00177394
0.00162918
0.00146318
0.00139465
0.00138099
0.00139645
0.00143227
0.00148448
0.00155012
0.001626
0.00170783
0.00178944
0.0018623
0.00194417
0.00203438
0.00213072
0.0022237
0.00230032
0.00231943
0.00238605
0.00224396
0.00116188
0.00197054
0.00207853
0.00216918
0.00231276
0.00219145
0.00202708
0.00187796
0.00174043
0.00160694
0.00147722
0.00136724
0.00126706
0.00116992
0.00107166
0.000968475
0.000850616
0.000571854
0.000534563
0.000544159
0.000547989
0.00055694
0.00057243
0.000592197
0.000615059
0.000640491
0.000668235
0.000698227
0.000730636
0.000765976
0.000805317
0.000850591
0.000900352
0.000955281
0.00101618
0.0010839
0.00117132
0.00120335
0.0011801
0.00110529
0.0010251
)
;

boundaryField
{
    floor
    {
        type            nutkWallFunction;
        Cmu             0.09;
        kappa           0.41;
        E               9.8;
        value           nonuniform List<scalar> 
29
(
0.000104388
7.26767e-05
6.73253e-05
6.34375e-05
6.06561e-05
5.84587e-05
5.64839e-05
5.45183e-05
5.26704e-05
5.0925e-05
4.92598e-05
4.76632e-05
4.61256e-05
4.46335e-05
4.31635e-05
4.16717e-05
4.00888e-05
3.82775e-05
3.67278e-05
3.32129e-05
3.32128e-05
4.28338e-05
5.01241e-05
5.61233e-05
0.000104388
7.26767e-05
8.36524e-05
9.23891e-05
0.000108222
)
;
    }
    ceiling
    {
        type            nutkWallFunction;
        Cmu             0.09;
        kappa           0.41;
        E               9.8;
        value           nonuniform List<scalar> 
43
(
0.000230075
0.000241813
0.000251617
0.000267146
0.00025413
0.000236345
0.000220064
0.00020492
0.000190095
0.000175559
0.000163125
0.000151701
0.000140527
0.000129118
0.000117006
0.00010299
6.88485e-05
6.41187e-05
6.53335e-05
6.58176e-05
6.69468e-05
6.88963e-05
7.1375e-05
7.42296e-05
7.73902e-05
8.08209e-05
8.45106e-05
8.84766e-05
9.27775e-05
9.75379e-05
0.000102983
0.000108928
0.000115447
0.000122624
0.000130549
0.000140695
0.000144391
0.000141709
0.000133039
0.000123672
0.000334647
0.000402501
0.00026104
)
;
    }
    sWall
    {
        type            nutkWallFunction;
        Cmu             0.09;
        kappa           0.41;
        E               9.8;
        value           uniform 0.000230138;
    }
    nWall
    {
        type            nutkWallFunction;
        Cmu             0.09;
        kappa           0.41;
        E               9.8;
        value           nonuniform List<scalar> 6(9.96599e-05 0.000103431 0.000111212 0.000138061 0.000139613 0.000123679);
    }
    sideWalls
    {
        type            empty;
    }
    glass1
    {
        type            nutkWallFunction;
        Cmu             0.09;
        kappa           0.41;
        E               9.8;
        value           nonuniform List<scalar> 9(8.91642e-05 0.000131853 0.000169504 0.000207908 0.000247192 0.000287473 0.000328475 0.000339813 0.000335068);
    }
    glass2
    {
        type            nutkWallFunction;
        Cmu             0.09;
        kappa           0.41;
        E               9.8;
        value           nonuniform List<scalar> 2(0.00017892 0.000167206);
    }
    sun
    {
        type            nutkWallFunction;
        Cmu             0.09;
        kappa           0.41;
        E               9.8;
        value           nonuniform List<scalar> 
14
(
8.91865e-05
9.34818e-05
9.27971e-05
9.56821e-05
9.80511e-05
9.99847e-05
0.000101591
0.000102971
0.000104223
0.000105411
0.000106158
0.000106339
0.000105953
0.000105247
)
;
    }
    heatsource1
    {
        type            nutkWallFunction;
        Cmu             0.09;
        kappa           0.41;
        E               9.8;
        value           nonuniform List<scalar> 3(7.49121e-05 8.98496e-05 9.96583e-05);
    }
    heatsource2
    {
        type            nutkWallFunction;
        Cmu             0.09;
        kappa           0.41;
        E               9.8;
        value           nonuniform List<scalar> 4(0.000105762 9.78474e-05 9.78474e-05 0.000112595);
    }
    Table_master
    {
        type            nutkWallFunction;
        Cmu             0.09;
        kappa           0.41;
        E               9.8;
        value           nonuniform List<scalar> 9(6.35589e-05 5.74667e-05 5.26556e-05 4.88229e-05 4.57239e-05 4.31809e-05 4.10855e-05 3.94087e-05 3.82488e-05);
    }
    Table_slave
    {
        type            nutkWallFunction;
        Cmu             0.09;
        kappa           0.41;
        E               9.8;
        value           nonuniform List<scalar> 9(6.74859e-05 6.51014e-05 6.42612e-05 6.37963e-05 6.29672e-05 6.1315e-05 5.93781e-05 5.71169e-05 5.41318e-05);
    }
    inlet
    {
        type            calculated;
        value           uniform 0.000100623;
    }
    outlet
    {
        type            calculated;
        value           nonuniform List<scalar> 2(0.00197054 0.00207853);
    }
}


// ************************************************************************* //
