/*--------------------------------*- C++ -*----------------------------------*\
  =========                 |
  \\      /  F ield         | OpenFOAM: The Open Source CFD Toolbox
   \\    /   O peration     | Website:  https://openfoam.org
    \\  /    A nd           | Version:  6
     \\/     M anipulation  |
\*---------------------------------------------------------------------------*/
FoamFile
{
    version     2.0;
    format      ascii;
    class       volScalarField;
    location    "300";
    object      epsilon;
}
// * * * * * * * * * * * * * * * * * * * * * * * * * * * * * * * * * * * * * //

dimensions      [0 2 -3 0 0 0 0];

internalField   nonuniform List<scalar> 
459
(
0.000415563
0.000549857
0.000599307
0.000695624
0.000795698
0.000903336
0.00102737
0.00113598
0.00120805
0.00121935
0.00115317
0.00100276
0.000711878
0.000419406
0.000233828
1.69123e-05
3.17337e-05
5.50808e-05
7.50412e-05
8.04886e-05
7.54526e-05
6.07422e-05
4.71626e-05
3.69302e-05
2.94123e-05
2.38221e-05
1.95949e-05
1.63277e-05
1.37722e-05
1.16903e-05
9.89465e-06
8.20506e-06
6.32741e-06
4.38418e-06
0.000959828
0.00131337
0.00050761
0.000499954
0.000528542
0.000583418
0.000670789
0.000767517
0.000842867
0.000866393
0.000824163
0.000723868
0.000571772
0.000423825
0.000298987
0.000467848
0.000207848
2.01652e-05
4.99226e-05
7.16603e-05
7.7332e-05
7.50181e-05
7.01151e-05
6.92581e-05
5.35059e-05
3.97785e-05
2.96697e-05
2.24335e-05
1.72546e-05
1.34956e-05
1.07427e-05
8.72014e-06
7.47678e-06
7.02027e-06
5.79724e-06
5.38818e-06
0.00166129
0.00295655
0.000574124
0.000463023
0.000493824
0.000570833
0.000686292
0.000809223
0.000898223
0.000928914
0.000894217
0.000800712
0.000661632
0.000527862
0.00040916
0.000362646
0.000458473
5.92093e-05
0.000119926
0.00011847
0.000109047
9.71133e-05
9.0103e-05
0.000172368
0.000108351
7.01146e-05
4.70741e-05
3.2823e-05
2.37427e-05
1.7791e-05
1.38884e-05
1.14215e-05
8.48477e-06
7.1525e-06
5.67664e-06
5.98052e-06
0.00258313
0.00591306
0.000816408
0.000454515
0.000478883
0.000584643
0.000752777
0.000903685
0.000994004
0.00102137
0.000984859
0.00088014
0.000741591
0.000602715
0.000486668
0.000408069
0.000382406
0.000654335
0.000391556
0.000260635
0.000191238
0.000150985
0.000124524
0.000112377
0.000261051
0.000189199
0.000144017
0.000113534
9.11389e-05
7.34527e-05
5.87007e-05
4.58783e-05
3.41913e-05
1.81788e-05
1.06534e-05
7.40955e-06
7.1984e-06
0.00381812
0.0104741
0.0014841
0.00050029
0.000483457
0.000651046
0.00093146
0.00109607
0.00116612
0.00117286
0.00111316
0.00098544
0.000813606
0.000637716
0.000492689
0.000392593
0.000337893
0.000324789
0.000272234
0.000228616
0.000194582
0.000166069
0.000140511
0.000118669
0.000109872
9.66532e-05
8.45023e-05
7.36401e-05
6.33212e-05
5.33161e-05
4.36607e-05
3.45573e-05
2.62068e-05
1.78511e-05
1.18643e-05
9.54462e-06
7.98235e-06
1.06057e-05
2.23813e-05
4.87422e-05
0.00552201
0.0157353
0.00324397
0.000822379
0.000623753
0.0009799
0.00132609
0.00142975
0.00144061
0.00140342
0.00130414
0.00112838
0.000900051
0.000670193
0.000485262
0.000363122
0.00029995
0.000272456
0.000250684
0.000229304
0.000205617
0.000179396
0.000151896
0.00012554
0.000104559
8.89843e-05
7.70872e-05
6.67212e-05
5.69034e-05
4.74732e-05
3.85703e-05
3.05145e-05
2.36749e-05
1.81792e-05
1.41541e-05
1.28897e-05
1.29357e-05
1.36814e-05
3.27291e-05
3.78597e-05
0.00756248
0.0190698
0.00685832
0.00254558
0.0017809
0.00202958
0.00205548
0.00195776
0.00184666
0.00172965
0.00155967
0.0013085
0.00100431
0.000709732
0.000484358
0.000346738
0.000284078
0.000263319
0.000251424
0.000235078
0.000211876
0.000183826
0.00015394
0.000125425
0.000102056
8.53698e-05
7.34383e-05
6.37024e-05
5.50039e-05
4.71947e-05
4.02928e-05
3.45655e-05
3.03805e-05
2.78691e-05
2.73966e-05
3.03074e-05
3.68209e-05
4.00453e-05
7.27203e-05
6.93676e-05
0.00812264
0.0219895
0.0117747
0.00721987
0.00519849
0.00397731
0.00317375
0.00267381
0.00237272
0.00214401
0.00186909
0.00150625
0.00110182
0.000731698
0.000474991
0.000337106
0.000286048
0.000271687
0.000260539
0.000241454
0.000214442
0.000183717
0.000153436
0.000126937
0.000106382
9.17411e-05
8.10144e-05
7.25505e-05
6.57416e-05
6.06754e-05
5.77596e-05
5.75814e-05
6.08197e-05
6.88647e-05
8.59289e-05
0.000118725
0.000172554
0.000277378
0.000518496
9.65497e-05
0.00762418
0.0131436
0.0102236
0.00768519
0.00588066
0.00460735
0.00374118
0.00321055
0.00289489
0.00259448
0.00216797
0.00162983
0.00110539
0.000668627
0.000453837
0.00036581
0.000332535
0.000317809
0.000302647
0.000281109
0.000254405
0.000226215
0.000199961
0.000178001
0.000161065
0.00014839
0.000138279
0.00012918
0.000120134
0.000111077
0.000103273
9.94856e-05
0.000103292
0.000117876
0.000145417
0.000186984
0.000242055
0.000307759
0.000372693
0.000345524
0.00319583
0.00401539
0.00405081
0.00384038
0.003644
0.00354436
0.0033609
0.00286788
0.00209971
0.0012799
0.000862966
0.000662095
0.000578339
0.000544746
0.00053127
0.000522466
0.000511472
0.000497124
0.000481123
0.000465756
0.000452737
0.000442891
0.00043605
0.000431096
0.000425954
0.000417692
0.000402889
0.000378658
0.000344382
0.000303583
0.000264539
0.000238405
0.000235053
0.000258367
0.000301949
0.000351752
0.000354348
0.000613229
0.00193131
0.00407286
0.00459045
0.00464119
0.00462367
0.00471742
0.0043133
0.00339892
0.00242468
0.001725
0.00136595
0.00120952
0.00115798
0.0011516
0.00116656
0.00119196
0.00122032
0.00124618
0.00126697
0.00128293
0.00129626
0.00130991
0.00132652
0.00134719
0.00137003
0.00138943
0.00139596
0.00137736
0.00132133
0.00122064
0.00107915
0.000914932
0.000755174
0.000620306
0.000507469
0.000523283
0.000984128
0.000887534
0.00200868
0.0017049
0.00178543
0.00217992
0.00191303
0.00175651
0.00191891
0.00201928
0.00195479
0.00173362
0.00151091
0.00129518
0.00114986
0.00106817
0.00102556
0.00100469
0.000993908
0.000986072
0.000977717
0.000968202
0.000958408
0.000949594
0.000942724
0.000938185
0.000935648
0.000933998
0.000931368
0.000925281
0.00091297
0.000891927
0.000860637
0.000819278
0.000769945
0.000715846
0.000658982
0.000596337
0.000521171
0.000487399
0.000494775
0.000462601
)
;

boundaryField
{
    floor
    {
        Cmu             0.09;
        kappa           0.41;
        E               9.8;
        type            epsilonWallFunction;
        value           nonuniform List<scalar> 
29
(
0.000233828
1.69123e-05
3.17337e-05
5.50808e-05
7.50412e-05
8.04886e-05
7.54526e-05
6.07422e-05
4.71626e-05
3.69302e-05
2.94123e-05
2.38221e-05
1.95949e-05
1.63277e-05
1.37722e-05
1.16903e-05
9.89465e-06
8.20506e-06
6.32741e-06
4.38418e-06
4.38418e-06
5.38818e-06
5.98052e-06
7.1984e-06
0.000233828
1.69123e-05
2.01652e-05
5.92093e-05
0.000654335
)
;
    }
    ceiling
    {
        Cmu             0.09;
        kappa           0.41;
        E               9.8;
        type            epsilonWallFunction;
        value           nonuniform List<scalar> 
43
(
0.00200868
0.0017049
0.00178543
0.00217992
0.00191303
0.00175651
0.00191891
0.00201928
0.00195479
0.00173362
0.00151091
0.00129518
0.00114986
0.00106817
0.00102556
0.00100469
0.000993908
0.000986072
0.000977717
0.000968202
0.000958408
0.000949594
0.000942724
0.000938185
0.000935648
0.000933998
0.000931368
0.000925281
0.00091297
0.000891927
0.000860637
0.000819278
0.000769945
0.000715846
0.000658982
0.000596337
0.000521171
0.000487399
0.000494775
0.000462601
0.00762418
0.0131436
0.00193131
)
;
    }
    sWall
    {
        Cmu             0.09;
        kappa           0.41;
        E               9.8;
        type            epsilonWallFunction;
        value           uniform 0.00200868;
    }
    nWall
    {
        Cmu             0.09;
        kappa           0.41;
        E               9.8;
        type            epsilonWallFunction;
        value           nonuniform List<scalar> 6(4.87422e-05 3.78597e-05 6.93676e-05 0.000613229 0.000887534 0.000462601);
    }
    sideWalls
    {
        type            empty;
    }
    glass1
    {
        Cmu             0.09;
        kappa           0.41;
        E               9.8;
        type            epsilonWallFunction;
        value           nonuniform List<scalar> 9(0.000415563 0.000959828 0.00166129 0.00258313 0.00381812 0.00552201 0.00756248 0.00812264 0.00762418);
    }
    glass2
    {
        Cmu             0.09;
        kappa           0.41;
        E               9.8;
        type            epsilonWallFunction;
        value           nonuniform List<scalar> 2(9.65497e-05 0.000345524);
    }
    sun
    {
        Cmu             0.09;
        kappa           0.41;
        E               9.8;
        type            epsilonWallFunction;
        value           nonuniform List<scalar> 
14
(
0.000415563
0.000549857
0.000599307
0.000695624
0.000795698
0.000903336
0.00102737
0.00113598
0.00120805
0.00121935
0.00115317
0.00100276
0.000711878
0.000419406
)
;
    }
    heatsource1
    {
        Cmu             0.09;
        kappa           0.41;
        E               9.8;
        type            epsilonWallFunction;
        value           nonuniform List<scalar> 3(1.06057e-05 2.23813e-05 4.87422e-05);
    }
    heatsource2
    {
        Cmu             0.09;
        kappa           0.41;
        E               9.8;
        type            epsilonWallFunction;
        value           nonuniform List<scalar> 4(0.000467848 0.000207848 0.000207848 0.000458473);
    }
    Table_master
    {
        Cmu             0.09;
        kappa           0.41;
        E               9.8;
        type            epsilonWallFunction;
        value           nonuniform List<scalar> 9(0.000172368 0.000108351 7.01146e-05 4.70741e-05 3.2823e-05 2.37427e-05 1.7791e-05 1.38884e-05 1.14215e-05);
    }
    Table_slave
    {
        Cmu             0.09;
        kappa           0.41;
        E               9.8;
        type            epsilonWallFunction;
        value           nonuniform List<scalar> 9(0.000261051 0.000189199 0.000144017 0.000113534 9.11389e-05 7.34527e-05 5.87007e-05 4.58783e-05 3.41913e-05);
    }
    inlet
    {
        type            turbulentMixingLengthDissipationRateInlet;
        mixingLength    0.01;
        phi             phi;
        k               k;
        value           uniform 0.000101881;
    }
    outlet
    {
        type            zeroGradient;
    }
}


// ************************************************************************* //
