// -*- C++ -*-
// File generated by PyFoam - sorry for the ugliness

FoamFile
{
 version 2.0;
 format ascii;
 class volScalarField;
 location "1300";
 object T;
}

dimensions [ 0 0 0 1 0 0 0 ];

internalField nonuniform List<scalar> 459
(
  306.99
  306.835
  306.774
  306.741
  306.719
  306.705
  306.695
  306.689
  306.683
  306.677
  306.672
  306.667
  306.661
  306.655
  306.645
  303.872
  303.872
  303.859
  303.818
  303.793
  303.782
  303.782
  303.792
  303.802
  303.819
  303.819
  303.815
  303.814
  303.817
  303.827
  303.844
  303.854
  303.852
  303.853
  306.928
  306.701
  306.604
  306.554
  306.524
  306.507
  306.499
  306.498
  306.503
  306.511
  306.523
  306.539
  306.559
  306.583
  306.609
  306.602
  306.588
  303.885
  303.939
  303.986
  303.979
  303.95
  303.918
  303.869
  303.844
  303.855
  303.865
  303.886
  303.885
  303.886
  303.897
  303.936
  303.987
  303.976
  303.92
  303.875
  306.869
  306.545
  306.43
  306.378
  306.351
  306.336
  306.331
  306.335
  306.348
  306.37
  306.399
  306.434
  306.474
  306.517
  306.56
  306.575
  306.573
  304.024
  304.051
  304.082
  304.112
  304.115
  304.098
  304.015
  303.971
  303.925
  303.919
  303.974
  304.009
  304.036
  304.064
  304.098
  304.137
  304.068
  304.014
  303.976
  306.81
  306.404
  306.304
  306.272
  306.257
  306.249
  306.245
  306.246
  306.26
  306.286
  306.322
  306.366
  306.417
  306.472
  306.526
  306.555
  306.53
  305.274
  304.409
  304.321
  304.341
  304.387
  304.438
  304.488
  304.529
  304.543
  304.553
  304.561
  304.567
  304.57
  304.57
  304.563
  304.539
  304.482
  304.451
  304.418
  304.413
  306.744
  306.301
  306.243
  306.237
  306.236
  306.232
  306.225
  306.22
  306.228
  306.25
  306.287
  306.335
  306.391
  306.451
  306.51
  306.536
  306.389
  305.101
  304.536
  304.481
  304.493
  304.522
  304.552
  304.578
  304.597
  304.61
  304.621
  304.63
  304.64
  304.649
  304.658
  304.666
  304.672
  304.672
  304.681
  304.693
  304.7
  304.728
  304.717
  304.716
  306.669
  306.244
  306.228
  306.24
  306.244
  306.241
  306.233
  306.224
  306.229
  306.25
  306.287
  306.335
  306.392
  306.45
  306.495
  306.463
  306.142
  304.979
  304.598
  304.566
  304.581
  304.602
  304.623
  304.64
  304.654
  304.664
  304.673
  304.681
  304.692
  304.704
  304.718
  304.734
  304.75
  304.767
  304.784
  304.8
  304.812
  304.817
  304.776
  304.741
  306.579
  306.229
  306.229
  306.249
  306.258
  306.261
  306.259
  306.258
  306.263
  306.282
  306.313
  306.355
  306.401
  306.441
  306.445
  306.322
  305.872
  304.903
  304.655
  304.642
  304.661
  304.682
  304.7
  304.713
  304.72
  304.723
  304.726
  304.729
  304.734
  304.743
  304.757
  304.775
  304.794
  304.812
  304.828
  304.841
  304.849
  304.848
  304.827
  304.751
  306.488
  306.216
  306.223
  306.252
  306.268
  306.282
  306.291
  306.298
  306.305
  306.319
  306.342
  306.369
  306.395
  306.401
  306.349
  306.143
  305.636
  304.883
  304.727
  304.731
  304.758
  304.784
  304.8
  304.807
  304.806
  304.801
  304.794
  304.786
  304.78
  304.779
  304.784
  304.795
  304.81
  304.828
  304.845
  304.861
  304.875
  304.889
  304.902
  304.92
  306.405
  306.197
  306.192
  306.219
  306.253
  306.278
  306.298
  306.313
  306.323
  306.332
  306.343
  306.353
  306.352
  306.323
  306.224
  305.975
  305.486
  304.923
  304.826
  304.844
  304.883
  304.912
  304.924
  304.924
  304.917
  304.905
  304.889
  304.871
  304.852
  304.836
  304.824
  304.819
  304.819
  304.823
  304.829
  304.836
  304.845
  304.856
  304.877
  304.94
  306.16
  306.172
  306.21
  306.24
  306.264
  306.281
  306.293
  306.298
  306.3
  306.294
  306.274
  306.222
  306.107
  305.87
  305.465
  305.039
  304.982
  305
  305.032
  305.05
  305.056
  305.052
  305.042
  305.026
  305.006
  304.982
  304.956
  304.928
  304.901
  304.879
  304.863
  304.853
  304.849
  304.849
  304.852
  304.856
  304.862
  304.874
  306.135
  306.134
  306.159
  306.18
  306.197
  306.209
  306.217
  306.219
  306.215
  306.202
  306.174
  306.122
  306.026
  305.847
  305.502
  305.315
  305.25
  305.227
  305.217
  305.209
  305.2
  305.187
  305.17
  305.15
  305.126
  305.1
  305.07
  305.038
  305.004
  304.971
  304.942
  304.919
  304.904
  304.895
  304.888
  304.882
  304.877
  304.879
  308.592
  308.048
  306.265
  306.098
  306.098
  306.101
  306.104
  306.106
  306.107
  306.109
  306.104
  306.094
  306.075
  306.044
  305.991
  305.83
  305.676
  305.598
  305.551
  305.515
  305.478
  305.442
  305.406
  305.371
  305.337
  305.304
  305.27
  305.237
  305.202
  305.167
  305.131
  305.094
  305.058
  305.024
  304.995
  304.969
  304.944
  304.92
  304.894
  304.886
)
;

boundaryField
{
  floor
  {
    type wallHeatTransfer;
    Tinf uniform 305.2;
    alphaWall uniform 0.24;
    value nonuniform List<scalar> 29
(
  306.533
  304.215
  304.186
  304.208
  304.22
  304.228
  304.238
  304.247
  304.26
  304.285
  304.298
  304.297
  304.289
  304.27
  304.241
  304.212
  304.195
  304.19
  304.19
  304.213
  304.213
  304.176
  304.217
  304.52
  306.533
  304.215
  304.19
  304.226
  305.266
)
;
  }
  ceiling
  {
    type wallHeatTransfer;
    Tinf uniform 303.2;
    alphaWall uniform 0.24;
    value nonuniform List<scalar> 43
(
  308.14
  307.632
  306.018
  305.806
  305.81
  305.815
  305.82
  305.824
  305.827
  305.831
  305.829
  305.822
  305.807
  305.78
  305.733
  305.585
  305.439
  305.363
  305.318
  305.286
  305.258
  305.23
  305.203
  305.174
  305.145
  305.115
  305.084
  305.053
  305.021
  304.988
  304.955
  304.922
  304.888
  304.857
  304.829
  304.803
  304.778
  304.752
  304.73
  304.712
  306.281
  306.092
  305.981
)
;
  }
  sWall
  {
    type wallHeatTransfer;
    Tinf uniform 315.2;
    alphaWall uniform 0.36;
    value uniform 309.392;
  }
  nWall
  {
    type wallHeatTransfer;
    Tinf uniform 307.2;
    alphaWall uniform 0.36;
    value nonuniform List<scalar> 6
(
  305.153
  305.154
  305.164
  305.137
  305.146
  305.228
)
;
  }
  sideWalls
  {
    type empty;
  }
  glass1
  {
    type wallHeatTransfer;
    Tinf uniform 315.2;
    alphaWall uniform 4.3;
    value nonuniform List<scalar> 9
(
  311.296
  311.073
  310.935
  310.825
  310.723
  310.613
  310.484
  310.327
  310.11
)
;
  }
  glass2
  {
    type wallHeatTransfer;
    Tinf uniform 307.2;
    alphaWall uniform 4.3;
    value nonuniform List<scalar> 2
(
  306.37
  306.31
)
;
  }
  sun
  {
    type wallHeatTransfer;
    Tinf uniform 305.2;
    alphaWall uniform 0.24;
    value nonuniform List<scalar> 14
(
  306.887
  306.739
  306.68
  306.647
  306.625
  306.609
  306.599
  306.592
  306.585
  306.579
  306.572
  306.565
  306.557
  306.548
)
;
  }
  heatsource1
  {
    type fixedGradient;
    gradient uniform 0;
  }
  heatsource2
  {
    type fixedGradient;
    gradient uniform 0;
  }
  Table_master
  {
    type zeroGradient;
  }
  Table_slave
  {
    type zeroGradient;
  }
  inlet
  {
    type fixedValue;
    value uniform 290.15;
  }
  outlet
  {
    type zeroGradient;
  }
} 	// ************************************************************************* //

