/*--------------------------------*- C++ -*----------------------------------*\
  =========                 |
  \\      /  F ield         | OpenFOAM: The Open Source CFD Toolbox
   \\    /   O peration     | Website:  https://openfoam.org
    \\  /    A nd           | Version:  6
     \\/     M anipulation  |
\*---------------------------------------------------------------------------*/
FoamFile
{
    version     2.0;
    format      ascii;
    class       volScalarField;
    location    "200";
    object      nut;
}
// * * * * * * * * * * * * * * * * * * * * * * * * * * * * * * * * * * * * * //

dimensions      [0 2 -1 0 0 0 0];

internalField   nonuniform List<scalar> 
459
(
0.000710255
0.000734505
0.000681159
0.00070702
0.000734877
0.000761286
0.000786363
0.000810761
0.000835477
0.000860382
0.00088131
0.000897
0.000906518
0.000909234
0.00090144
0.000334695
0.000387086
0.000353321
0.000281445
0.000239582
0.00022465
0.000213981
0.000228975
0.000249888
0.000270758
0.00028692
0.000293927
0.000293658
0.000301295
0.000318561
0.000348451
0.000374549
0.000365144
0.000308541
0.00118851
0.00216495
0.00166251
0.0021667
0.00237822
0.0025898
0.00280616
0.0030099
0.0031757
0.00328856
0.00334647
0.00331318
0.00312847
0.00269349
0.00190373
0.000970168
0.000629869
0.000444754
0.00120275
0.00124022
0.00105994
0.000785476
0.000532155
0.000413755
0.000523637
0.000691386
0.000849163
0.000971551
0.00104814
0.0011091
0.00119171
0.00134151
0.00156175
0.0014192
0.00118624
0.000355486
0.00161387
0.00353424
0.00177536
0.00307546
0.00356548
0.00381978
0.00403523
0.00421898
0.00436395
0.00446689
0.00452723
0.00450785
0.00434139
0.00392194
0.00313831
0.00204845
0.00101592
0.000704057
0.00194191
0.00172598
0.00134913
0.00097441
0.000623106
0.000299726
0.000318616
0.000346886
0.000375639
0.000406218
0.000441608
0.000485296
0.000544155
0.000631979
0.00182562
0.00162849
0.00116055
0.000551774
0.0020209
0.00527327
0.00200181
0.00319152
0.00413564
0.00441183
0.00458667
0.00473364
0.00486342
0.00497484
0.00509841
0.00521806
0.0052757
0.0051576
0.00468232
0.00365906
0.00215993
0.00100845
0.00232513
0.00282406
0.00245038
0.00194938
0.00147469
0.00101446
0.000658349
0.000648821
0.000644716
0.000645072
0.000651215
0.000665335
0.000690452
0.000731531
0.000803546
0.00252138
0.00270949
0.00241998
0.000819155
0.00240273
0.00718333
0.00272479
0.00286734
0.00419772
0.00454955
0.00468631
0.0047833
0.0048742
0.00497593
0.00515896
0.00543909
0.0057946
0.00616907
0.00646225
0.0065556
0.00637024
0.00592103
0.00561222
0.00516347
0.00478177
0.00447744
0.00419629
0.00393833
0.00370176
0.00354412
0.00339187
0.0032439
0.00311275
0.00302013
0.00298734
0.00302246
0.00311687
0.00327233
0.00327917
0.00319257
0.00279079
0.00117885
0.00103316
0.000895814
0.00276392
0.00893147
0.00425181
0.00274638
0.00368741
0.00423125
0.00445458
0.00456119
0.00460727
0.00463947
0.00481298
0.0051232
0.00557825
0.00616163
0.00678709
0.00730686
0.00756113
0.00746716
0.00712734
0.00670104
0.00631912
0.00601089
0.00576109
0.00554559
0.00533569
0.00511855
0.00488287
0.00462039
0.00433467
0.00405498
0.00382868
0.0036846
0.00360598
0.00354518
0.00346304
0.00333566
0.00307941
0.00255076
0.00190031
0.000942122
0.00309658
0.0102115
0.00678208
0.00391332
0.00311385
0.00341181
0.00390122
0.00424413
0.00433373
0.00434169
0.00445345
0.0046608
0.00500511
0.00553196
0.00621311
0.00690884
0.00742528
0.00763327
0.00755559
0.00731965
0.00704793
0.00679743
0.00658032
0.0063897
0.00621122
0.006037
0.00585849
0.00565152
0.00538096
0.00503261
0.00465044
0.00430886
0.00403674
0.00380602
0.00357039
0.00328362
0.00289317
0.00239189
0.00184944
0.000939401
0.00316552
0.0101142
0.00818286
0.00656692
0.00490403
0.00403496
0.00394788
0.0041809
0.00427146
0.00426974
0.00428937
0.00436294
0.00451951
0.00480562
0.0052655
0.00587455
0.00649222
0.00694353
0.00715458
0.0071723
0.00708468
0.00695561
0.00681727
0.00668347
0.00656026
0.00645826
0.00638868
0.00634618
0.00629161
0.00615379
0.0058877
0.00553085
0.0051355
0.00472837
0.00429837
0.00384209
0.00335799
0.00287752
0.00251364
0.00137686
0.00306358
0.00362956
0.00489889
0.00524787
0.00502137
0.00461741
0.004311
0.00414822
0.00406034
0.00403416
0.00404951
0.00409536
0.00417632
0.00431303
0.00454018
0.00488686
0.0053311
0.00578163
0.00614026
0.00636804
0.00648103
0.00651358
0.00649689
0.00645307
0.0063998
0.00635736
0.00635015
0.00640139
0.00651983
0.00667224
0.00677223
0.0067812
0.00670674
0.0066376
0.00666383
0.0066437
0.00621587
0.00520719
0.00497035
0.00156836
0.00707969
0.00901179
0.00660846
0.00564707
0.00508293
0.00471431
0.0044629
0.00428071
0.00415664
0.00408485
0.00406252
0.00409163
0.00418034
0.00434096
0.00457887
0.00487421
0.00517858
0.00544495
0.00564807
0.00578503
0.00586683
0.00590963
0.00592986
0.00594366
0.00596849
0.00602397
0.00612885
0.00627735
0.00646895
0.00667898
0.00685799
0.00697574
0.00702341
0.0068864
0.00641273
0.00560511
0.00461928
0.00156
0.00377346
0.00888661
0.00690661
0.00588636
0.00525697
0.00482871
0.0045388
0.00435387
0.00421819
0.00414438
0.00414001
0.00420755
0.00434321
0.0045355
0.00476518
0.00500475
0.00520483
0.0053525
0.00545727
0.00553289
0.00559067
0.00563726
0.00567517
0.00570446
0.00572434
0.00573447
0.00573653
0.00573566
0.00573935
0.00575747
0.00579659
0.00585151
0.00587709
0.00568812
0.00527307
0.0045685
0.00401446
0.00153478
0.0017757
0.00224712
0.00303448
0.00291616
0.00259902
0.00234375
0.00211763
0.00192358
0.00175739
0.00161516
0.0015029
0.00141288
0.00134177
0.00128844
0.00125255
0.00123325
0.00122828
0.00123378
0.00124779
0.0012629
0.00127415
0.00128046
0.00128264
0.00128212
0.00128016
0.00127763
0.00127505
0.00127263
0.00127047
0.001269
0.00126776
0.00126557
0.00126025
0.00124833
0.00122641
0.00120654
0.00118045
0.00113827
0.00113752
0.00111576
)
;

boundaryField
{
    floor
    {
        type            nutkWallFunction;
        Cmu             0.09;
        kappa           0.41;
        E               9.8;
        value           nonuniform List<scalar> 
29
(
0.000109066
3.80697e-05
4.5053e-05
4.0572e-05
3.08308e-05
2.50037e-05
2.28945e-05
2.13745e-05
2.35046e-05
2.6446e-05
2.93485e-05
3.15757e-05
3.25367e-05
3.24994e-05
3.35423e-05
3.58878e-05
3.99104e-05
4.33814e-05
4.213e-05
3.45236e-05
3.45236e-05
4.08472e-05
6.62623e-05
9.9201e-05
0.000109066
3.80696e-05
5.25992e-05
8.52276e-05
0.000121735
)
;
    }
    ceiling
    {
        type            nutkWallFunction;
        Cmu             0.09;
        kappa           0.41;
        E               9.8;
        value           nonuniform List<scalar> 
43
(
0.000208956
0.00026033
0.000343704
0.000331358
0.000297922
0.000270699
0.000246323
0.000225185
0.000206898
0.000191099
0.000178521
0.000168362
0.000160284
0.000154196
0.000150082
0.000147864
0.000147291
0.000147923
0.000149532
0.000151266
0.000152556
0.000153278
0.000153528
0.000153468
0.000153243
0.000152954
0.000152658
0.000152381
0.000152133
0.000151964
0.000151821
0.000151569
0.000150959
0.000149591
0.000147071
0.000144783
0.000141774
0.000136893
0.000136813
0.000134265
0.000346864
0.000405367
0.000419948
)
;
    }
    sWall
    {
        type            nutkWallFunction;
        Cmu             0.09;
        kappa           0.41;
        E               9.8;
        value           uniform 0.000209004;
    }
    nWall
    {
        type            nutkWallFunction;
        Cmu             0.09;
        kappa           0.41;
        E               9.8;
        value           nonuniform List<scalar> 6(0.000108398 0.000113906 0.000113582 0.000184938 0.000182103 0.000134273);
    }
    sideWalls
    {
        type            empty;
    }
    glass1
    {
        type            nutkWallFunction;
        Cmu             0.09;
        kappa           0.41;
        E               9.8;
        value           nonuniform List<scalar> 9(8.59484e-05 0.000142834 0.000191173 0.000236107 0.000277372 0.000315768 0.000350668 0.00035786 0.000347247);
    }
    glass2
    {
        type            nutkWallFunction;
        Cmu             0.09;
        kappa           0.41;
        E               9.8;
        value           nonuniform List<scalar> 2(0.000164305 0.000185912);
    }
    sun
    {
        type            nutkWallFunction;
        Cmu             0.09;
        kappa           0.41;
        E               9.8;
        value           nonuniform List<scalar> 
14
(
8.59789e-05
8.8945e-05
8.24049e-05
8.55824e-05
8.89897e-05
9.22058e-05
9.52475e-05
9.81959e-05
0.000101172
0.000104161
0.000106664
0.000108537
0.000109671
0.000109994
)
;
    }
    heatsource1
    {
        type            nutkWallFunction;
        Cmu             0.09;
        kappa           0.41;
        E               9.8;
        value           nonuniform List<scalar> 3(0.000141591 0.000124634 0.000108396);
    }
    heatsource2
    {
        type            nutkWallFunction;
        Cmu             0.09;
        kappa           0.41;
        E               9.8;
        value           nonuniform List<scalar> 4(0.000117219 7.60621e-05 7.60621e-05 0.000122609);
    }
    Table_master
    {
        type            nutkWallFunction;
        Cmu             0.09;
        kappa           0.41;
        E               9.8;
        value           nonuniform List<scalar> 9(3.3331e-05 3.58967e-05 3.97014e-05 4.35305e-05 4.7562e-05 5.21803e-05 5.78181e-05 6.53155e-05 7.63215e-05);
    }
    Table_slave
    {
        type            nutkWallFunction;
        Cmu             0.09;
        kappa           0.41;
        E               9.8;
        value           nonuniform List<scalar> 9(7.95935e-05 7.84137e-05 7.79046e-05 7.79482e-05 7.87086e-05 8.04538e-05 8.35479e-05 8.85797e-05 9.73219e-05);
    }
    inlet
    {
        type            calculated;
        value           uniform 3.3541e-05;
    }
    outlet
    {
        type            calculated;
        value           nonuniform List<scalar> 2(0.0017757 0.00224712);
    }
}


// ************************************************************************* //
