// -*- C++ -*-
// File generated by PyFoam - sorry for the ugliness

FoamFile
{
 version 2.0;
 format ascii;
 class volVectorField;
 location "1200";
 object U;
}

dimensions [ 0 1 -1 0 0 0 0 ];

internalField nonuniform List<vector> 459
(
  (0.0491165 0.0794174 0)
  (-0.154474 0.0195103 0)
  (-0.169017 0.0153666 0)
  (-0.196062 0.0120813 0)
  (-0.217989 0.0080509 0)
  (-0.234252 0.00373659 0)
  (-0.244117 -0.000914066 0)
  (-0.246569 -0.00602896 0)
  (-0.240418 -0.011742 0)
  (-0.22547 -0.0180013 0)
  (-0.201776 -0.0243081 0)
  (-0.169863 -0.030489 0)
  (-0.130806 -0.0374649 0)
  (-0.0910627 -0.0477735 0)
  (-0.0737786 -0.0624842 0)
  (0.0320354 0.0131253 0)
  (-0.00145723 -0.0159021 0)
  (0.0186564 -0.01622 0)
  (0.0334017 -0.0116407 0)
  (0.0436199 -0.00777823 0)
  (0.049591 -0.00495421 0)
  (0.052331 -0.00281028 0)
  (0.0529506 -0.00164469 0)
  (0.0525391 -0.0011206 0)
  (0.0517993 -0.000859993 0)
  (0.0509594 -0.000682637 0)
  (0.0500088 -0.000525755 0)
  (0.0488731 -0.000330942 0)
  (0.0473822 2.9222e-05 0)
  (0.0450945 0.000884036 0)
  (0.0410786 0.00266442 0)
  (0.0344109 0.00391008 0)
  (0.0331324 0.0029323 0)
  (-0.0266428 0.0153884 0)
  (0.228336 0.164289 0)
  (-0.151515 0.0533918 0)
  (-0.138176 0.0446227 0)
  (-0.167013 0.0377495 0)
  (-0.188702 0.0297129 0)
  (-0.204908 0.0208966 0)
  (-0.215134 0.0110035 0)
  (-0.218434 -0.000319487 0)
  (-0.213416 -0.0131269 0)
  (-0.200321 -0.0263304 0)
  (-0.179699 -0.0381729 0)
  (-0.153234 -0.047402 0)
  (-0.123684 -0.0542914 0)
  (-0.0966094 -0.0605587 0)
  (-0.079375 -0.0637529 0)
  (-0.0592245 -0.0435555 0)
  (-0.0243384 -0.02754 0)
  (0.0839662 -0.0138904 0)
  (0.0392823 -0.0197954 0)
  (0.0382561 -0.0184544 0)
  (0.0457897 -0.0135076 0)
  (0.0511872 -0.00877919 0)
  (0.0543319 -0.00469113 0)
  (0.0556567 -0.000655811 0)
  (0.0555015 0.00157978 0)
  (0.0550961 0.00245244 0)
  (0.0549232 0.00279563 0)
  (0.0548827 0.00298951 0)
  (0.0548504 0.00317081 0)
  (0.0547917 0.00346497 0)
  (0.0546673 0.00413093 0)
  (0.0539859 0.00591455 0)
  (0.0505847 0.0111372 0)
  (0.0418846 0.0143299 0)
  (0.0421319 0.0136312 0)
  (-0.0603905 0.0345586 0)
  (0.389772 0.246837 0)
  (-0.176618 0.088337 0)
  (-0.10536 0.0735485 0)
  (-0.134825 0.0597904 0)
  (-0.153958 0.0461712 0)
  (-0.168765 0.0317145 0)
  (-0.178674 0.015533 0)
  (-0.182378 -0.00294401 0)
  (-0.177654 -0.023495 0)
  (-0.165068 -0.0443604 0)
  (-0.145706 -0.0623129 0)
  (-0.121966 -0.0751416 0)
  (-0.0968508 -0.0824904 0)
  (-0.0739719 -0.0848454 0)
  (-0.0553963 -0.0801088 0)
  (-0.0366887 -0.0626664 0)
  (-0.014808 -0.049076 0)
  (0.0724956 -0.0488051 0)
  (0.0344304 -0.0356527 0)
  (0.036432 -0.0252227 0)
  (0.0432366 -0.0183213 0)
  (0.0477695 -0.0130121 0)
  (0.0508048 -0.00893159 0)
  (0.0522756 -0.00686118 0)
  (0.0513337 -0.00488848 0)
  (0.0509787 -0.00396888 0)
  (0.0515859 -0.00354038 0)
  (0.0525742 -0.00330673 0)
  (0.0536562 -0.00314366 0)
  (0.0548925 -0.00293584 0)
  (0.0566945 -0.00243104 0)
  (0.060022 0.000105065 0)
  (0.0586082 0.0156496 0)
  (0.046125 0.0249677 0)
  (0.0514662 0.0283567 0)
  (-0.0877998 0.0555313 0)
  (0.530904 0.313849 0)
  (-0.216296 0.121623 0)
  (-0.0698875 0.0984856 0)
  (-0.100205 0.078612 0)
  (-0.114422 0.0613824 0)
  (-0.125932 0.0432013 0)
  (-0.134354 0.0221298 0)
  (-0.137674 -0.0029766 0)
  (-0.132329 -0.031524 0)
  (-0.119626 -0.0600201 0)
  (-0.101767 -0.0832819 0)
  (-0.0815021 -0.098517 0)
  (-0.061438 -0.105377 0)
  (-0.0437027 -0.104444 0)
  (-0.0290193 -0.0956498 0)
  (-0.0158376 -0.0796697 0)
  (-0.00461729 -0.0617441 0)
  (0.0221515 -0.00739855 0)
  (0.0374804 -0.0400806 0)
  (0.0326945 -0.0362516 0)
  (0.0331295 -0.0273855 0)
  (0.0364377 -0.0210552 0)
  (0.0394911 -0.0158836 0)
  (0.0423031 -0.0105013 0)
  (0.0469425 -0.00764642 0)
  (0.0546052 -0.00723935 0)
  (0.062061 -0.00702505 0)
  (0.0689374 -0.00669659 0)
  (0.0750333 -0.00594954 0)
  (0.0795322 -0.00451443 0)
  (0.0810476 -0.0022175 0)
  (0.0775929 0.00126978 0)
  (0.0671524 0.00631861 0)
  (0.05499 0.0249429 0)
  (0.0421665 0.0396359 0)
  (0.056979 0.0493704 0)
  (-0.116859 0.075627 0)
  (0.648739 0.366914 0)
  (-0.258881 0.151158 0)
  (-0.0342328 0.113249 0)
  (-0.0629749 0.0902679 0)
  (-0.07069 0.0713284 0)
  (-0.0768805 0.0510723 0)
  (-0.0820057 0.0266538 0)
  (-0.0829109 -0.00402101 0)
  (-0.0752042 -0.039949 0)
  (-0.0620047 -0.0749659 0)
  (-0.0470832 -0.101309 0)
  (-0.0322508 -0.116819 0)
  (-0.0191831 -0.121934 0)
  (-0.00880125 -0.11805 0)
  (-0.00102942 -0.106535 0)
  (0.00510349 -0.0895869 0)
  (0.0100403 -0.0710404 0)
  (0.0203248 -0.0498352 0)
  (0.0273925 -0.0459047 0)
  (0.0273617 -0.0378386 0)
  (0.0261365 -0.0293657 0)
  (0.026683 -0.0231132 0)
  (0.0283149 -0.0184097 0)
  (0.0310386 -0.0143903 0)
  (0.0354746 -0.0113899 0)
  (0.0415695 -0.0103366 0)
  (0.0478807 -0.01006 0)
  (0.0541579 -0.00951068 0)
  (0.0601828 -0.00788917 0)
  (0.0653302 -0.00442967 0)
  (0.0687589 0.00142953 0)
  (0.0686564 0.00930626 0)
  (0.0645198 0.019258 0)
  (0.0578744 0.034689 0)
  (0.0475507 0.0514582 0)
  (0.0656061 0.0689329 0)
  (-0.0151773 0.0887688 0)
  (0.0456261 0.0313155 0)
  (-0.0570452 -0.0311862 0)
  (-0.267753 -0.0540134 0)
  (0.730032 0.412355 0)
  (-0.296672 0.173047 0)
  (-0.00738998 0.110074 0)
  (-0.0222683 0.0934702 0)
  (-0.0225175 0.0765898 0)
  (-0.022721 0.0552666 0)
  (-0.0232416 0.0288943 0)
  (-0.0174239 -0.00605661 0)
  (-0.00494911 -0.0492399 0)
  (0.00771011 -0.0889561 0)
  (0.0169423 -0.114545 0)
  (0.0236839 -0.127549 0)
  (0.0274989 -0.129602 0)
  (0.0284703 -0.1228 0)
  (0.0272607 -0.109405 0)
  (0.0249495 -0.0918966 0)
  (0.0224138 -0.0729108 0)
  (0.0219305 -0.0539348 0)
  (0.021339 -0.0431552 0)
  (0.0182754 -0.0350401 0)
  (0.0151971 -0.0281886 0)
  (0.0138875 -0.023252 0)
  (0.0142458 -0.0198376 0)
  (0.0161662 -0.0173125 0)
  (0.0195649 -0.0158449 0)
  (0.0240851 -0.0157657 0)
  (0.0291002 -0.016104 0)
  (0.0344661 -0.0159035 0)
  (0.0401184 -0.0142735 0)
  (0.0458536 -0.0101345 0)
  (0.0512718 -0.00234983 0)
  (0.0554773 0.00876177 0)
  (0.0568069 0.0217579 0)
  (0.057313 0.037252 0)
  (0.0561401 0.0542892 0)
  (0.0747904 0.074468 0)
  (0.0577311 0.0863737 0)
  (0.0921006 0.0637584 0)
  (0.113494 0.0435172 0)
  (-0.122832 -0.00396883 0)
  (0.770702 0.453794 0)
  (-0.313417 0.161789 0)
  (0.0160021 0.0622075 0)
  (0.0342126 0.078815 0)
  (0.0391877 0.0779008 0)
  (0.042479 0.0559373 0)
  (0.0474277 0.0238249 0)
  (0.0634408 -0.018464 0)
  (0.0775046 -0.0621634 0)
  (0.0849633 -0.0968457 0)
  (0.0860076 -0.118572 0)
  (0.0822524 -0.127877 0)
  (0.0747522 -0.126749 0)
  (0.0645722 -0.117547 0)
  (0.0529261 -0.102775 0)
  (0.0410325 -0.0849743 0)
  (0.0299098 -0.0665948 0)
  (0.0207001 -0.0496025 0)
  (0.0131674 -0.0378183 0)
  (0.00642265 -0.0301721 0)
  (0.00139815 -0.0251043 0)
  (-0.00150864 -0.0219725 0)
  (-0.00256931 -0.0202418 0)
  (-0.00217251 -0.0193258 0)
  (-0.000568209 -0.0192248 0)
  (0.00188105 -0.0199309 0)
  (0.00477729 -0.0208074 0)
  (0.0081179 -0.0211679 0)
  (0.0120666 -0.020216 0)
  (0.0168955 -0.0168029 0)
  (0.0229038 -0.00933145 0)
  (0.0322508 0.00355416 0)
  (0.0394501 0.0179314 0)
  (0.0466501 0.0325993 0)
  (0.0545597 0.0471276 0)
  (0.0745304 0.0633541 0)
  (0.0880015 0.0678566 0)
  (0.116541 0.0492874 0)
  (0.154211 0.0441044 0)
  (-0.0354945 0.0935445 0)
  (0.871766 0.461091 0)
  (-0.084649 0.141653 0)
  (0.099083 -0.0158125 0)
  (0.158403 0.00518561 0)
  (0.153409 0.027793 0)
  (0.14656 0.0164072 0)
  (0.150091 -0.0148245 0)
  (0.166459 -0.0476923 0)
  (0.173249 -0.076745 0)
  (0.168632 -0.0989943 0)
  (0.1556 -0.112041 0)
  (0.137077 -0.115724 0)
  (0.11535 -0.11126 0)
  (0.0922735 -0.100445 0)
  (0.0694025 -0.0854644 0)
  (0.0479422 -0.0685957 0)
  (0.0288327 -0.0519889 0)
  (0.0127417 -0.0375916 0)
  (0.000308787 -0.0279152 0)
  (-0.00873223 -0.0228308 0)
  (-0.014819 -0.0204415 0)
  (-0.0189549 -0.0194077 0)
  (-0.0216544 -0.0191868 0)
  (-0.0233055 -0.0195012 0)
  (-0.0242117 -0.0203084 0)
  (-0.0247046 -0.0214978 0)
  (-0.025025 -0.0227533 0)
  (-0.0252085 -0.0236697 0)
  (-0.0250945 -0.023727 0)
  (-0.0242949 -0.0222324 0)
  (-0.0221012 -0.0183273 0)
  (-0.0167137 -0.0110397 0)
  (-0.000901707 0.000768666 0)
  (0.0104396 0.0128744 0)
  (0.0228129 0.0205556 0)
  (0.0417561 0.0263196 0)
  (0.0588734 0.0180374 0)
  (0.0765997 -0.00573738 0)
  (0.134232 0.0407356 0)
  (-0.400431 0.202753 0)
  (1.01211 0.421828 0)
  (0.48001 0.277623 0)
  (0.494538 0.188519 0)
  (0.501318 0.15271 0)
  (0.443454 0.124831 0)
  (0.387138 0.0875037 0)
  (0.35452 0.0458355 0)
  (0.324464 0.00281395 0)
  (0.287425 -0.0349489 0)
  (0.247808 -0.0625348 0)
  (0.20819 -0.0783572 0)
  (0.169552 -0.0835316 0)
  (0.132538 -0.0803237 0)
  (0.097837 -0.0710922 0)
  (0.0662294 -0.0582838 0)
  (0.0382602 -0.0441827 0)
  (0.0144916 -0.0308446 0)
  (-0.00486921 -0.0203897 0)
  (-0.0173863 -0.0156547 0)
  (-0.0259775 -0.014156 0)
  (-0.032485 -0.0139461 0)
  (-0.0377115 -0.0143034 0)
  (-0.0421147 -0.0149951 0)
  (-0.0460404 -0.0159327 0)
  (-0.0497859 -0.0170903 0)
  (-0.053659 -0.0183665 0)
  (-0.0579526 -0.0195187 0)
  (-0.0629408 -0.0201667 0)
  (-0.0689216 -0.0197481 0)
  (-0.0762917 -0.0174576 0)
  (-0.0855979 -0.0122666 0)
  (-0.0972049 -0.00318805 0)
  (-0.109854 0.00989428 0)
  (-0.1225 0.0251671 0)
  (-0.144437 0.0422088 0)
  (-0.178154 0.0604509 0)
  (-0.226287 0.0768643 0)
  (-0.280249 0.089206 0)
  (-0.34678 0.0970191 0)
  (-0.604805 0.100972 0)
  (-0.440792 -0.0183947 0)
  (0.161407 0.0846835 0)
  (0.245478 0.0908729 0)
  (0.240142 0.0714233 0)
  (0.23348 0.0407369 0)
  (0.221907 0.00834756 0)
  (0.206886 -0.0180156 0)
  (0.184171 -0.0357744 0)
  (0.156524 -0.0455178 0)
  (0.125588 -0.0482923 0)
  (0.0932192 -0.0454176 0)
  (0.0613429 -0.0382023 0)
  (0.0320689 -0.0283816 0)
  (0.00626592 -0.0176554 0)
  (-0.0147903 -0.00855684 0)
  (-0.0278128 -0.00453605 0)
  (-0.0366031 -0.00384192 0)
  (-0.0433272 -0.00432595 0)
  (-0.0492171 -0.00505046 0)
  (-0.0548033 -0.00585197 0)
  (-0.0603248 -0.0066771 0)
  (-0.0659552 -0.00749886 0)
  (-0.0718456 -0.00826515 0)
  (-0.0781297 -0.00882976 0)
  (-0.0848942 -0.00892778 0)
  (-0.0921472 -0.0082022 0)
  (-0.0997926 -0.00624849 0)
  (-0.10762 -0.00266592 0)
  (-0.115269 0.00292679 0)
  (-0.121862 0.0109385 0)
  (-0.126534 0.0227614 0)
  (-0.129883 0.0390378 0)
  (-0.133116 0.0582397 0)
  (-0.136939 0.0766276 0)
  (-0.138316 0.0853444 0)
  (-0.12083 0.0648865 0)
  (-0.0786825 -0.023679 0)
  (-0.273001 -0.196864 0)
  (-0.168886 0.172152 0)
  (0.0924225 0.0921799 0)
  (0.0569857 0.0578362 0)
  (0.0702831 0.0550126 0)
  (0.087085 0.0398155 0)
  (0.0940616 0.0168873 0)
  (0.0933029 -0.00335776 0)
  (0.0846031 -0.0172675 0)
  (0.0683736 -0.0246182 0)
  (0.0472981 -0.0263648 0)
  (0.0241186 -0.024233 0)
  (0.000840699 -0.0199925 0)
  (-0.0181743 -0.0166911 0)
  (-0.0311441 -0.016505 0)
  (-0.0392647 -0.0199573 0)
  (-0.0443279 -0.0255501 0)
  (-0.0487317 -0.0307624 0)
  (-0.0532361 -0.0340209 0)
  (-0.0579733 -0.0356604 0)
  (-0.0630173 -0.0366393 0)
  (-0.0684372 -0.0371744 0)
  (-0.0742391 -0.0373364 0)
  (-0.0803868 -0.0371429 0)
  (-0.0868037 -0.0365647 0)
  (-0.0933401 -0.0354921 0)
  (-0.0997284 -0.033684 0)
  (-0.105528 -0.0307148 0)
  (-0.110058 -0.0259142 0)
  (-0.112385 -0.0182448 0)
  (-0.111666 -0.00698142 0)
  (-0.106819 0.0072624 0)
  (-0.0965662 0.0250267 0)
  (-0.0805101 0.0454269 0)
  (-0.059441 0.0641569 0)
  (-0.0364004 0.0748056 0)
  (0.00304549 0.059558 0)
  (0.141289 -0.00913108 0)
  (-0.204338 -0.107732 0)
  (0.0597574 -0.261962 0)
  (-0.345789 -0.103449 0)
  (-0.272873 0.0668218 0)
  (-0.168897 0.000228009 0)
  (-0.137551 -0.000330601 0)
  (-0.0898206 0.00961365 0)
  (-0.0518645 0.0041785 0)
  (-0.0309254 -0.00865988 0)
  (-0.0265241 -0.0106019 0)
  (-0.0287736 -4.36675e-05 0)
  (-0.0415258 0.0144732 0)
  (-0.0537888 0.0292415 0)
  (-0.0626301 0.0425625 0)
  (-0.0672781 0.0539614 0)
  (-0.0677696 0.0636512 0)
  (-0.0657121 0.0730739 0)
  (-0.0629456 0.0832026 0)
  (-0.0607035 0.0924118 0)
  (-0.0597631 0.0990434 0)
  (-0.0600453 0.102278 0)
  (-0.0612385 0.103179 0)
  (-0.0630855 0.103199 0)
  (-0.0654264 0.102487 0)
  (-0.0681913 0.101027 0)
  (-0.0713555 0.0987863 0)
  (-0.0748903 0.0957876 0)
  (-0.0787095 0.0921239 0)
  (-0.0826206 0.0879157 0)
  (-0.0862734 0.0832386 0)
  (-0.0890399 0.0780439 0)
  (-0.0897693 0.0721344 0)
  (-0.0863496 0.0665609 0)
  (-0.0759316 0.0640883 0)
  (-0.0568716 0.065746 0)
  (-0.0299236 0.0718653 0)
  (0.0150454 0.0810349 0)
  (0.0559128 0.081579 0)
  (0.0956084 0.0696207 0)
  (0.159849 0.0446996 0)
  (-0.231233 -0.00497003 0)
)
;

boundaryField
{
  floor
  {
    type noSlip;
  }
  ceiling
  {
    type noSlip;
  }
  sWall
  {
    type noSlip;
  }
  nWall
  {
    type noSlip;
  }
  sideWalls
  {
    type empty;
  }
  glass1
  {
    type noSlip;
  }
  glass2
  {
    type noSlip;
  }
  sun
  {
    type noSlip;
  }
  heatsource1
  {
    type noSlip;
  }
  heatsource2
  {
    type noSlip;
  }
  Table_master
  {
    type noSlip;
  }
  Table_slave
  {
    type noSlip;
  }
  inlet
  {
    type fixedValue;
    value uniform (0.212132 -0.212132 0);
  }
  outlet
  {
    type zeroGradient;
  }
} 	// ************************************************************************* //

