/*--------------------------------*- C++ -*----------------------------------*\
  =========                 |
  \\      /  F ield         | OpenFOAM: The Open Source CFD Toolbox
   \\    /   O peration     | Website:  https://openfoam.org
    \\  /    A nd           | Version:  6
     \\/     M anipulation  |
\*---------------------------------------------------------------------------*/
FoamFile
{
    version     2.0;
    format      ascii;
    class       surfaceScalarField;
    location    "700";
    object      phi;
}
// * * * * * * * * * * * * * * * * * * * * * * * * * * * * * * * * * * * * * //

dimensions      [1 0 -1 0 0 0 0];

internalField   nonuniform List<scalar> 
852
(
0.000279081
-0.000285125
-0.000808173
0.00108769
-0.000936487
0.000128672
-0.000872637
-6.34974e-05
-0.000809155
-6.31328e-05
-0.000735784
-7.3027e-05
-0.000641489
-9.3959e-05
-0.000526728
-0.000114433
-0.0003954
-0.000131009
-0.000254091
-0.000140998
-0.000112975
-0.000140811
1.34759e-05
-0.000126151
0.000115196
-0.000101425
0.000235887
-0.000120398
0.000225596
0.000153447
-0.000160807
-0.000106015
0.000259746
-0.000163507
5.77715e-05
-0.000126551
-3.66715e-05
-5.18127e-05
-7.44507e-05
5.07624e-05
-0.000102272
0.00018319
-0.000132131
0.000293702
-0.000110248
0.000383839
-8.98696e-05
0.000467896
-8.37876e-05
0.000551447
-8.32768e-05
0.000648157
-9.64308e-05
0.000762453
-0.000114018
0.000807236
-4.45115e-05
0.000763293
4.42192e-05
0.000608934
0.000154642
0.000350046
0.00025918
-0.000121132
0.000471484
-0.000128685
0.000242796
-0.000556918
-0.000338217
0.0016691
-0.000939656
0.00073047
-0.00104964
4.68432e-05
-0.000978991
-0.000133423
-0.000846325
-0.000205338
-0.000696087
-0.000243846
-0.000558514
-0.000251662
-0.000441689
-0.000247495
-0.00034779
-0.000234564
-0.000279075
-0.000209197
-0.000235612
-0.000169289
-0.000209013
-0.0001277
-0.000154051
-0.000175036
0.000198159
-0.000126292
0.000209026
-1.05883e-05
0.000209289
-0.000165874
-1.38963e-05
5.07669e-05
4.34013e-05
-2.94865e-05
0.000138322
-0.000180506
0.000114642
-0.000327997
7.33383e-05
-0.000565479
0.000135511
-0.000198941
-0.000498364
-2.0306e-05
-0.000288593
5.57866e-05
-0.000165674
8.53786e-05
-0.000113088
8.36198e-05
-8.12234e-05
4.1618e-05
-5.41289e-05
-5.37566e-05
-1.83348e-05
-0.000175441
7.7503e-05
-0.000275496
0.000144605
-0.000310647
0.000190131
-0.000257292
0.000206164
3.24983e-05
0.000182034
-0.000115153
0.000427934
-0.00104456
0.000287637
0.00180976
-0.000461606
0.00148008
-0.000977015
0.000562619
-0.00102714
-8.29359e-05
-0.000896587
-0.000335527
-0.000751238
-0.000388837
-0.000654817
-0.00034773
-0.000621475
-0.000280487
-0.000658891
-0.000196801
-0.000775139
-9.2601e-05
-0.000955664
1.15879e-05
-0.00115364
7.06334e-05
-0.00138185
5.35251e-05
-0.0015015
-6.28144e-06
-0.00125915
-0.000252573
-0.0010495
-0.000665453
0.000619284
-0.000559323
-6.24117e-05
-0.000392674
-2.80108e-05
-0.000271708
-6.00241e-06
-0.000203595
5.55562e-06
-2.47449e-05
-4.3018e-05
-0.000522646
-0.000810738
-0.000975914
-0.0010885
-0.00116923
-0.00122285
-0.00124067
-0.00116265
-0.00101751
-0.000495349
-0.000331612
-8.1297e-05
-0.000207479
0.000199723
-9.85879e-05
5.52942e-05
0.000623722
-0.00176058
0.0010825
0.00135135
0.000665665
0.00189727
-0.000190579
0.00141923
-0.000819879
0.000546731
-0.000857256
-0.000297784
-0.000797604
-0.000448127
-0.000793707
-0.000351267
-0.000863195
-0.000210637
-0.000995649
-6.39811e-05
-0.00116319
7.53085e-05
-0.00133496
0.000183737
-0.00150174
0.000237797
-0.0016723
0.000224469
-0.00179354
0.000115353
-0.00189317
-0.00015256
-0.00232694
-0.000615343
-0.00213488
-0.000235744
-0.00156445
4.9233e-05
-0.00154777
-7.86888e-05
-0.00158602
1.06565e-05
-0.00165801
6.64021e-05
-0.00174621
9.41724e-05
-0.00187572
8.69167e-05
-0.00194579
7.03569e-05
-0.00196588
2.0371e-05
-0.00194554
-2.00486e-05
-0.00189112
-5.41374e-05
-0.00180184
-8.89978e-05
-0.00167057
-0.000130978
-0.00148418
-0.000186107
-0.00122073
-0.000263159
-0.000837226
-0.000383219
-0.000584531
-0.00058388
-0.00013204
-0.000659541
0.00044886
-0.00067906
0.000461114
0.000744353
-0.00262865
0.00168353
0.000412531
0.00169501
0.00188614
0.000932774
0.00218182
-9.94437e-05
0.00157931
-0.000666643
0.000269782
-0.000787646
-0.000326757
-0.000917085
-0.00022146
-0.00107068
-5.66688e-05
-0.00121638
8.20984e-05
-0.00132877
0.000188087
-0.00140556
0.000260913
-0.00146164
0.000294284
-0.00151068
0.000273915
-0.00157
0.00017508
-0.00169658
-2.55765e-05
-0.00207415
-0.000237357
-0.00209727
-0.000212223
-0.00197171
-7.5905e-05
-0.00198684
-6.31399e-05
-0.00197181
-3.9588e-06
-0.00194263
3.76535e-05
-0.00190747
5.94346e-05
-0.00187481
5.46931e-05
-0.00182995
2.59184e-05
-0.00178814
-2.10076e-05
-0.00173919
-6.85634e-05
-0.00167804
-0.00011486
-0.00160174
-0.000164873
-0.00150724
-0.000225049
-0.00139084
-0.000302083
-0.00125006
-0.000403511
-0.00109851
-0.000534333
-0.00101701
-0.000664949
-0.000972375
-0.000703744
-0.00117892
-0.000472077
-0.000949067
0.000231708
-0.00153412
0.000585307
-0.00177652
0.000242662
-0.00183467
0.000787003
-0.00356801
0.00226208
-0.00106215
0.00249149
0.0016571
0.00167958
0.00299409
0.000645431
0.00261384
-0.000221089
0.00113667
-0.000707042
0.000159568
-0.00103161
0.000103488
-0.00125751
0.000169609
-0.00140185
0.000226819
-0.00147825
0.000264881
-0.00150438
0.000287444
-0.00150101
0.000291316
-0.00149162
0.000264945
-0.00150503
0.000188898
-0.00158639
5.62121e-05
-0.00175029
-7.3043e-05
-0.00184756
-0.000114525
-0.00183755
-8.54984e-05
-0.00182853
-7.17301e-05
-0.00178941
-4.26494e-05
-0.00173075
-2.05835e-05
-0.00165993
-1.09537e-05
-0.00158609
-1.87164e-05
-0.00151587
-4.38651e-05
-0.00145453
-8.19187e-05
-0.00139764
-0.00012502
-0.00134069
-0.000171377
-0.00128188
-0.000223253
-0.00122196
-0.000284544
-0.00116469
-0.000358919
-0.00112025
-0.000447524
-0.0011128
-0.000541356
-0.00117645
-0.000600861
-0.00133932
-0.000540446
-0.00156446
-0.000246505
-0.00155081
0.000218502
-0.00129724
0.000332171
-0.000986178
-6.7955e-05
-0.00287861
0.000677293
-0.00441979
0.0025347
-0.00291908
0.00275189
0.00144034
0.0016082
0.00413818
0.00059144
0.00363098
-0.00016516
0.00189364
-0.000791264
0.000786045
-0.00117101
0.000483603
-0.00138277
0.000381752
-0.00147962
0.000324047
-0.00149401
0.000279669
-0.00145035
0.000244175
-0.00137272
0.000214099
-0.0012875
0.000180133
-0.00122538
0.000127206
-0.00121614
4.73964e-05
-0.00125325
-3.55108e-05
-0.00128611
-8.12329e-05
-0.0012794
-9.17863e-05
-0.00125747
-9.32278e-05
-0.0012147
-8.49938e-05
-0.0011571
-7.77477e-05
-0.0010909
-7.67219e-05
-0.00102335
-8.58338e-05
-0.000960558
-0.000106226
-0.000905706
-0.000136339
-0.000857555
-0.000172738
-0.000814156
-0.000214345
-0.000774757
-0.00026222
-0.000740367
-0.000318503
-0.000713869
-0.000384986
-0.000700153
-0.00046081
-0.000704302
-0.000536776
-0.000721565
-0.000583167
-0.000723208
-0.000538373
-0.000630097
-0.000339184
-0.000370829
-4.03318e-05
-0.000128743
9.05202e-05
7.95252e-05
-0.000275784
-0.00285714
-0.000356471
-0.00425068
0.00105125
-0.00432628
0.00135085
0.00114122
-1.3922e-05
0.00550336
-0.000498197
0.00411564
-0.000786677
0.0021825
-0.00111031
0.00111005
-0.00129298
0.000666645
-0.00134302
0.000432156
-0.00129622
0.000277629
-0.00118697
0.000170802
-0.0010389
9.64966e-05
-0.000873309
4.8906e-05
-0.000709877
1.7112e-05
-0.000570301
-1.19505e-05
-0.000476651
-4.5828e-05
-0.000431277
-8.04568e-05
-0.0004083
-0.00010378
-0.000385079
-0.000114577
-0.000358794
-0.000119082
-0.000324722
-0.000118634
-0.000283925
-0.000118113
-0.000239341
-0.000120873
-0.000195203
-0.000129539
-0.000155571
-0.000145424
-0.000123001
-0.000168476
-9.76089e-05
-0.000197697
-7.87007e-05
-0.00023282
-6.58852e-05
-0.000274603
-5.94191e-05
-0.000324537
-5.97698e-05
-0.000384203
-6.60517e-05
-0.000454096
-7.13682e-05
-0.000531028
-5.03987e-05
-0.000603705
6.34134e-05
-0.000651754
0.000390044
-0.000665385
0.0010456
-0.000695458
0.00194939
-0.000812836
0.00252085
-0.000846809
-0.000789245
-0.00450228
-0.00887479
-0.00500926
-0.00272378
-0.00293299
0.00342752
-0.00199605
0.00317909
-0.00153603
0.00172284
-0.00127607
0.000850465
-0.00104282
0.000433746
-0.000784988
0.00017469
-0.000504163
-2.83276e-06
-0.000223295
-0.000109693
3.17869e-05
-0.000158203
0.000250576
-0.000169487
0.000429876
-0.000161781
0.000569091
-0.000150752
0.000666709
-0.000143025
0.000726876
-0.000140199
0.000762243
-0.00013872
0.000784679
-0.000136583
0.000800404
-0.000134376
0.000814278
-0.000132076
0.000827749
-0.000131151
0.000840368
-0.000133058
0.000850393
-0.000139131
0.000855692
-0.000150288
0.000854573
-0.000166923
0.00084638
-0.000189069
0.000831022
-0.000217028
0.000808518
-0.000251665
0.000778857
-0.000294441
0.000742371
-0.000347283
0.00070097
-0.000412261
0.000661336
-0.000490962
0.0006419
-0.000583836
0.00068257
-0.000691993
0.000845524
-0.000827907
0.00119727
-0.00104677
0.00184136
-0.00145649
0.00274885
-0.00175387
0.00144929
-0.00682962
0.00244474
-0.00501792
0.00161628
-0.00262558
0.000787147
-0.00105444
0.000152083
-0.000112684
-9.09426e-05
0.000535905
-0.000214495
0.0010092
-0.000298251
0.00134468
-0.000337936
0.00158242
-0.000347061
0.00175453
-0.000329918
0.00188255
-0.000297112
0.00197871
-0.000257535
0.00204773
-0.000219363
0.00209224
-0.000187123
0.00211478
-0.00016231
0.00212014
-0.000143662
0.00211363
-0.000129639
0.0020991
-0.000119416
0.00207964
-0.000112182
0.00205678
-0.00010786
0.00203084
-0.000106678
0.00200116
-0.000109019
0.00196659
-0.000115276
0.00192586
-0.000125763
0.001878
-0.000140773
0.00182223
-0.00016082
0.0017578
-0.000186798
0.00168385
-0.000220051
0.00159938
-0.000262381
0.00150355
-0.000315992
0.00139634
-0.000383319
0.00127971
-0.000466769
0.0011569
-0.000568753
0.00101931
-0.000689884
0.000794926
-0.000821952
0.000366239
-0.00102737
-0.000117126
-0.00127007
0.00124338
-0.000138454
0.00252799
0.00193484
-0.000456545
0.00291491
-0.000192495
0.00337556
-0.000308168
0.00372917
-0.00044416
0.00397273
-0.000457662
0.00409305
-0.000418185
0.00412411
-0.000368604
0.00409511
-0.000317659
0.00403137
-0.000265772
0.00395041
-0.00021574
0.00386446
-0.000171179
0.00377996
-0.000134441
0.0036992
-0.000105938
0.00362196
-8.46418e-05
0.00354756
-6.88418e-05
0.00347529
-5.69319e-05
0.00340411
-4.77979e-05
0.00333311
-4.07463e-05
0.0032612
-3.55208e-05
0.00318713
-3.21641e-05
0.00310943
-3.088e-05
0.00302653
-3.19395e-05
0.00293684
-3.56347e-05
0.0028388
-4.22862e-05
0.00273072
-5.23071e-05
0.00261063
-6.62677e-05
0.00247597
-8.4947e-05
0.0023234
-0.000109371
0.00214868
-0.000140835
0.00194673
-0.000180924
0.0017119
-0.000231504
0.00143762
-0.000294041
0.00111763
-0.000369454
0.000782082
-0.000485972
0.000533555
-0.000778409
-0.000621491
-0.000114582
0.000509585
-0.000245468
0.00944041
0.0118594
0.0112942
0.0109892
0.0105635
0.00999639
0.00941039
0.0088588
0.00835239
0.00789348
0.00748414
0.0071237
0.00680769
0.00652901
0.0062798
0.00605301
0.00584311
0.00564609
0.00545906
0.00527982
0.00510644
0.004937
0.00476939
0.00460124
0.00442992
0.00425246
0.00406548
0.00386504
0.0036464
0.00340381
0.00313023
0.00281701
0.00245367
0.00202828
0.00152804
0.000912353
7.33646e-06
-0.000233191
)
;

boundaryField
{
    floor
    {
        type            calculated;
        value           nonuniform List<scalar> 
29
(
0
0
0
0
0
0
0
0
0
0
0
0
0
0
0
0
0
0
0
0
7.87223e-06
1.93184e-05
2.96656e-05
4.34646e-05
1.05725e-05
7.64535e-06
1.92575e-05
3.25962e-05
4.40642e-05
)
;
    }
    ceiling
    {
        type            calculated;
        value           nonuniform List<scalar> 
43
(
0.00019116
0.000175744
0.00010941
0.000109093
0.000112997
0.000117985
0.000123367
0.000128773
0.000133839
0.000138237
0.000141685
0.000143993
0.000145133
0.000145266
0.000144684
0.000143705
0.000142589
0.000141501
0.000140523
0.000139676
0.000138945
0.000138303
0.000137721
0.000137175
0.000136649
0.000136133
0.000135623
0.000135119
0.000134622
0.000134136
0.000133661
0.000133196
0.000132738
0.000132277
0.000131796
0.000131217
0.000130155
0.000127042
0.000126382
0.000136532
5.98923e-05
4.67615e-05
5.58395e-05
)
;
    }
    sWall
    {
        type            calculated;
        value           uniform 9.54517e-05;
    }
    nWall
    {
        type            calculated;
        value           nonuniform List<scalar> 6(5.84153e-05 5.82093e-05 5.85078e-05 8.92265e-05 0.000112752 0.000140307);
    }
    sideWalls
    {
        type            empty;
        value           nonuniform 0();
    }
    glass1
    {
        type            calculated;
        value           nonuniform List<scalar> 9(6.51333e-06 2.94046e-05 6.01062e-05 9.27253e-05 0.000124186 0.000152855 0.00017502 0.0001879 0.000192247);
    }
    glass2
    {
        type            calculated;
        value           nonuniform List<scalar> 2(0.000453411 0.000510777);
    }
    sun
    {
        type            calculated;
        value           uniform 0;
    }
    heatsource1
    {
        type            calculated;
        value           nonuniform List<scalar> 3(1.85454e-07 1.85116e-07 1.85156e-07);
    }
    heatsource2
    {
        type            calculated;
        value           nonuniform List<scalar> 4(4.75954e-08 4.762e-08 0 0);
    }
    Table_master
    {
        type            calculated;
        value           nonuniform List<scalar> 9(-1.43859e-07 -1.43675e-07 -1.43478e-07 -1.43308e-07 -1.43151e-07 -1.42996e-07 -1.4284e-07 -1.42665e-07 -1.42373e-07);
    }
    Table_slave
    {
        type            calculated;
        value           nonuniform List<scalar> 9(1.40102e-07 1.40067e-07 1.40041e-07 1.40028e-07 1.40031e-07 1.40053e-07 1.401e-07 1.40183e-07 1.4029e-07);
    }
    inlet
    {
        type            calculated;
        value           uniform 0.00166182;
    }
    outlet
    {
        type            calculated;
        value           nonuniform List<scalar> 2(-4.07934e-05 -0.00986124);
    }
}


// ************************************************************************* //
