/*--------------------------------*- C++ -*----------------------------------*\
  =========                 |
  \\      /  F ield         | OpenFOAM: The Open Source CFD Toolbox
   \\    /   O peration     | Website:  https://openfoam.org
    \\  /    A nd           | Version:  6
     \\/     M anipulation  |
\*---------------------------------------------------------------------------*/
FoamFile
{
    version     2.0;
    format      ascii;
    class       volScalarField;
    location    "450";
    object      T;
}
// * * * * * * * * * * * * * * * * * * * * * * * * * * * * * * * * * * * * * //

dimensions      [0 0 0 1 0 0 0];

internalField   nonuniform List<scalar> 
459
(
305.655
305.477
305.473
305.475
305.475
305.475
305.475
305.473
305.468
305.46
305.45
305.44
305.43
305.419
305.396
305.325
305.395
305.425
305.438
305.445
305.448
305.446
305.443
305.438
305.433
305.429
305.424
305.419
305.413
305.408
305.401
305.392
305.369
305.209
305.789
305.529
305.521
305.529
305.535
305.538
305.539
305.535
305.524
305.506
305.485
305.465
305.452
305.444
305.441
305.448
305.451
305.425
305.465
305.478
305.487
305.495
305.5
305.5
305.499
305.498
305.497
305.495
305.494
305.491
305.487
305.481
305.469
305.45
305.418
305.402
305.921
305.573
305.556
305.57
305.583
305.593
305.598
305.595
305.577
305.545
305.508
305.476
305.456
305.447
305.446
305.449
305.451
305.464
305.478
305.493
305.505
305.516
305.524
305.523
305.522
305.522
305.522
305.521
305.521
305.52
305.518
305.514
305.506
305.488
305.457
305.44
306.053
305.619
305.586
305.605
305.63
305.652
305.666
305.665
305.638
305.588
305.53
305.482
305.454
305.444
305.445
305.449
305.454
305.458
305.471
305.487
305.504
305.521
305.535
305.547
305.558
305.567
305.575
305.582
305.589
305.594
305.598
305.602
305.604
305.577
305.543
305.503
305.473
306.18
305.674
305.615
305.633
305.666
305.702
305.732
305.735
305.695
305.623
305.543
305.481
305.447
305.437
305.441
305.451
305.462
305.475
305.49
305.509
305.528
305.546
305.561
305.575
305.587
305.597
305.606
305.613
305.618
305.622
305.625
305.625
305.623
305.61
305.584
305.547
305.508
305.508
305.51
305.535
306.295
305.741
305.657
305.658
305.69
305.732
305.783
305.783
305.725
305.635
305.542
305.472
305.435
305.427
305.437
305.455
305.474
305.494
305.514
305.536
305.556
305.575
305.59
305.603
305.614
305.623
305.63
305.635
305.638
305.64
305.641
305.64
305.636
305.627
305.61
305.585
305.552
305.538
305.53
305.545
306.398
305.848
305.754
305.731
305.745
305.78
305.823
305.804
305.725
305.615
305.511
305.44
305.41
305.414
305.437
305.467
305.495
305.521
305.546
305.568
305.588
305.605
305.619
305.63
305.638
305.643
305.647
305.65
305.651
305.651
305.65
305.648
305.644
305.636
305.624
305.607
305.582
305.562
305.548
305.555
306.549
306.125
306.012
305.941
305.91
305.918
305.892
305.804
305.673
305.538
305.434
305.381
305.376
305.405
305.447
305.491
305.528
305.557
305.582
305.603
305.619
305.632
305.641
305.648
305.652
305.655
305.656
305.656
305.655
305.654
305.652
305.649
305.645
305.639
305.63
305.617
305.6
305.583
305.571
305.632
306.759
306.561
306.384
306.239
306.132
306.039
305.873
305.669
305.481
305.35
305.293
305.3
305.348
305.416
305.48
305.533
305.571
305.596
305.615
305.63
305.641
305.648
305.653
305.656
305.658
305.659
305.658
305.657
305.655
305.653
305.65
305.646
305.642
305.639
305.637
305.637
305.64
305.651
305.667
305.707
302.369
303.826
304.456
304.61
304.685
304.767
304.869
304.991
305.126
305.26
305.377
305.477
305.54
305.58
305.607
305.624
305.636
305.645
305.651
305.654
305.657
305.658
305.658
305.658
305.658
305.657
305.655
305.653
305.651
305.65
305.648
305.647
305.648
305.65
305.656
305.666
305.682
305.717
302.5
303.571
303.926
304.155
304.385
304.617
304.838
305.044
305.231
305.376
305.473
305.541
305.583
305.609
305.625
305.636
305.643
305.648
305.651
305.653
305.655
305.655
305.656
305.656
305.657
305.657
305.657
305.657
305.657
305.656
305.656
305.655
305.656
305.657
305.661
305.668
305.682
305.703
303.201
303.103
303.1
303.916
304.321
304.598
304.831
305.031
305.199
305.333
305.435
305.506
305.552
305.583
305.602
305.614
305.622
305.627
305.63
305.632
305.634
305.635
305.636
305.637
305.638
305.639
305.64
305.642
305.643
305.645
305.647
305.649
305.651
305.653
305.655
305.657
305.66
305.665
305.667
305.7
)
;

boundaryField
{
    floor
    {
        type            wallHeatTransfer;
        Tinf            uniform 301.25;
        alphaWall       uniform 0.24;
        value           nonuniform List<scalar> 
29
(
304.924
304.66
304.836
304.843
304.835
304.823
304.805
304.776
304.742
304.707
304.672
304.638
304.605
304.573
304.541
304.508
304.472
304.432
304.37
304.311
304.311
304.585
304.662
304.749
304.924
304.66
304.883
304.987
305.069
)
;
    }
    ceiling
    {
        type            wallHeatTransfer;
        Tinf            uniform 301.25;
        alphaWall       uniform 0.24;
        value           nonuniform List<scalar> 
43
(
303.04
302.96
302.967
303.727
304.094
304.351
304.572
304.765
304.928
305.058
305.153
305.217
305.255
305.278
305.291
305.299
305.305
305.308
305.31
305.312
305.312
305.313
305.313
305.314
305.314
305.314
305.314
305.311
305.306
305.3
305.292
305.284
305.275
305.268
305.262
305.258
305.256
305.256
305.268
305.288
306.474
306.325
302.419
)
;
    }
    sWall
    {
        type            wallHeatTransfer;
        Tinf            uniform 314.15;
        alphaWall       uniform 0.36;
        value           uniform 304.508;
    }
    nWall
    {
        type            wallHeatTransfer;
        Tinf            uniform 308.15;
        alphaWall       uniform 0.36;
        value           nonuniform List<scalar> 6(306.135 306.066 306.02 306.028 305.987 306.025);
    }
    sideWalls
    {
        type            empty;
    }
    glass1
    {
        type            wallHeatTransfer;
        Tinf            uniform 314.15;
        alphaWall       uniform 4.3;
        value           nonuniform List<scalar> 9(311.689 311.252 310.968 310.746 310.559 310.388 310.25 310.285 310.429);
    }
    glass2
    {
        type            wallHeatTransfer;
        Tinf            uniform 308.15;
        alphaWall       uniform 4.3;
        value           nonuniform List<scalar> 2(307.356 307.348);
    }
    sun
    {
        type            wallHeatTransfer;
        Tinf            uniform 301.25;
        alphaWall       uniform 0.24;
        value           nonuniform List<scalar> 
14
(
305.133
305.008
305.011
305.029
305.044
305.056
305.068
305.077
305.081
305.077
305.068
305.052
305.029
304.994
)
;
    }
    heatsource1
    {
        type            fixedGradient;
        gradient        uniform 0;
    }
    heatsource2
    {
        type            fixedGradient;
        gradient        uniform 0;
    }
    Table_master
    {
        type            zeroGradient;
    }
    Table_slave
    {
        type            zeroGradient;
    }
    inlet
    {
        type            fixedValue;
        value           uniform 299.15;
    }
    outlet
    {
        type            zeroGradient;
    }
}


// ************************************************************************* //
