/*--------------------------------*- C++ -*----------------------------------*\
  =========                 |
  \\      /  F ield         | OpenFOAM: The Open Source CFD Toolbox
   \\    /   O peration     | Website:  https://openfoam.org
    \\  /    A nd           | Version:  6
     \\/     M anipulation  |
\*---------------------------------------------------------------------------*/
FoamFile
{
    version     2.0;
    format      ascii;
    class       volVectorField;
    location    "450";
    object      U;
}
// * * * * * * * * * * * * * * * * * * * * * * * * * * * * * * * * * * * * * //

dimensions      [0 1 -1 0 0 0 0];

internalField   nonuniform List<vector> 
459
(
(0.0311681 0.0733035 0)
(-0.142759 0.0214572 0)
(-0.16325 0.0152945 0)
(-0.18993 0.0106363 0)
(-0.209573 0.00535284 0)
(-0.221178 -0.000335228 0)
(-0.223294 -0.00647899 0)
(-0.21463 -0.0131188 0)
(-0.195485 -0.0197868 0)
(-0.167164 -0.0253924 0)
(-0.132649 -0.0290059 0)
(-0.0959132 -0.0300639 0)
(-0.0610343 -0.0281675 0)
(-0.0287299 -0.0224341 0)
(0.0224406 -0.0126102 0)
(-0.11192 0.00343361 0)
(0.0373561 -0.00848145 0)
(0.02852 -0.010971 0)
(0.0369257 -0.0105276 0)
(0.0498293 -0.00874045 0)
(0.0604703 -0.00643046 0)
(0.0669542 -0.00368782 0)
(0.0698465 -0.00212358 0)
(0.070615 -0.00156874 0)
(0.0705942 -0.00138261 0)
(0.0703214 -0.00123594 0)
(0.0697945 -0.00103275 0)
(0.06882 -0.000669097 0)
(0.0669941 9.9489e-05 0)
(0.0634237 0.00185285 0)
(0.0563466 0.00559471 0)
(0.0468485 0.0111806 0)
(-0.0209683 0.0220087 0)
(0.126555 -0.0142423 0)
(0.181867 0.150414 0)
(-0.135288 0.056938 0)
(-0.133142 0.0453592 0)
(-0.160937 0.0357741 0)
(-0.180476 0.0246495 0)
(-0.19233 0.0119928 0)
(-0.195087 -0.00247458 0)
(-0.187307 -0.0184216 0)
(-0.169769 -0.0337902 0)
(-0.144191 -0.0459328 0)
(-0.113785 -0.0529505 0)
(-0.0822958 -0.0540565 0)
(-0.0533177 -0.0493369 0)
(-0.0295549 -0.0390517 0)
(-0.0106984 -0.0229513 0)
(-0.000989453 -0.0039567 0)
(-0.000768518 0.0141023 0)
(-0.142824 0.0017019 0)
(0.0406551 -0.0294604 0)
(0.0378397 -0.0256408 0)
(0.0466636 -0.0212395 0)
(0.0572007 -0.0165664 0)
(0.0653454 -0.0114193 0)
(0.0694028 -0.00429639 0)
(0.0702283 -0.000116673 0)
(0.0701262 0.0015297 0)
(0.070227 0.00220059 0)
(0.0704766 0.00263012 0)
(0.0706416 0.00306102 0)
(0.0706558 0.00374902 0)
(0.0704569 0.00519762 0)
(0.0694195 0.00862461 0)
(0.0646991 0.0175245 0)
(0.0575915 0.0272206 0)
(-0.00107954 0.0383192 0)
(0.169236 0.0212316 0)
(0.320213 0.225533 0)
(-0.151196 0.0911589 0)
(-0.101631 0.0737195 0)
(-0.129038 0.0563637 0)
(-0.146715 0.0379473 0)
(-0.158038 0.0173696 0)
(-0.160891 -0.0061493 0)
(-0.152829 -0.0317132 0)
(-0.135555 -0.0556442 0)
(-0.111618 -0.0734351 0)
(-0.0844963 -0.0824909 0)
(-0.0575278 -0.082156 0)
(-0.0332754 -0.0732229 0)
(-0.0135087 -0.0567406 0)
(0.00147028 -0.0345901 0)
(0.0119621 -0.0109749 0)
(0.0116214 0.0180008 0)
(-0.0372317 -0.0309526 0)
(0.0402348 -0.0409196 0)
(0.0534459 -0.0380621 0)
(0.0580685 -0.0311865 0)
(0.0635942 -0.0244345 0)
(0.0685781 -0.0193647 0)
(0.0705486 -0.0145415 0)
(0.0668109 -0.00961954 0)
(0.0638517 -0.00705386 0)
(0.0630013 -0.00565345 0)
(0.0631794 -0.00473188 0)
(0.0637442 -0.00398437 0)
(0.064778 -0.00316164 0)
(0.0670496 -0.00176906 0)
(0.0723688 0.00267579 0)
(0.0733489 0.0231006 0)
(0.0688299 0.0392624 0)
(0.012671 0.0552914 0)
(0.195696 0.0530078 0)
(0.445249 0.286373 0)
(-0.181956 0.121932 0)
(-0.0677532 0.0983088 0)
(-0.0944214 0.074339 0)
(-0.107786 0.050729 0)
(-0.116881 0.0238097 0)
(-0.118193 -0.00857264 0)
(-0.107876 -0.04443 0)
(-0.0900991 -0.0766414 0)
(-0.0683305 -0.0989379 0)
(-0.0456506 -0.10898 0)
(-0.0245006 -0.106878 0)
(-0.00598367 -0.0945442 0)
(0.0100116 -0.0734765 0)
(0.0235229 -0.0484814 0)
(0.0378076 -0.0230483 0)
(0.0557369 -0.00352654 0)
(0.0839406 -0.0629313 0)
(0.0889705 -0.0485747 0)
(0.0817558 -0.0441987 0)
(0.0723864 -0.0394901 0)
(0.0663828 -0.0324934 0)
(0.0636743 -0.0255007 0)
(0.0620443 -0.0184667 0)
(0.0636473 -0.0112746 0)
(0.0704813 -0.00837495 0)
(0.0766442 -0.00688375 0)
(0.0814139 -0.00601998 0)
(0.0854646 -0.00527358 0)
(0.0887408 -0.00430694 0)
(0.0904556 -0.00272466 0)
(0.0885921 6.60879e-05 0)
(0.0808106 0.00463374 0)
(0.0731948 0.0269574 0)
(0.0750123 0.04719 0)
(0.0289828 0.0686328 0)
(0.211078 0.103747 0)
(0.554051 0.333882 0)
(-0.219153 0.147418 0)
(-0.0333024 0.11317 0)
(-0.0574461 0.0852822 0)
(-0.0641638 0.0587672 0)
(-0.0687939 0.0277468 0)
(-0.0648033 -0.0123517 0)
(-0.0497694 -0.0582742 0)
(-0.0323879 -0.0961945 0)
(-0.0150896 -0.119948 0)
(0.000637497 -0.12874 0)
(0.013606 -0.123687 0)
(0.0239922 -0.108586 0)
(0.0329356 -0.0865476 0)
(0.0417226 -0.0613703 0)
(0.0521945 -0.037405 0)
(0.0659371 -0.0210463 0)
(0.076649 -0.0225388 0)
(0.0770096 -0.0274403 0)
(0.0688735 -0.0304271 0)
(0.0608216 -0.0296659 0)
(0.0548206 -0.0261713 0)
(0.0508411 -0.0216488 0)
(0.0486966 -0.0163995 0)
(0.0494837 -0.0100504 0)
(0.053166 -0.00701564 0)
(0.0573088 -0.00612716 0)
(0.0613605 -0.00581728 0)
(0.0654086 -0.00518885 0)
(0.0692622 -0.00360264 0)
(0.0724562 -0.000248347 0)
(0.0744547 0.00551285 0)
(0.0743242 0.0143671 0)
(0.0741518 0.0298998 0)
(0.0823573 0.047169 0)
(0.0679712 0.0631527 0)
(0.150459 0.101571 0)
(0.140248 0.0825284 0)
(0.116967 0.0618921 0)
(-0.119851 0.0648252 0)
(0.633875 0.373809 0)
(-0.255697 0.164968 0)
(-0.00620054 0.111726 0)
(-0.019229 0.0879626 0)
(-0.017336 0.0621268 0)
(-0.0160519 0.0288724 0)
(0.00186261 -0.0220541 0)
(0.0212885 -0.0754585 0)
(0.0348768 -0.112554 0)
(0.0444297 -0.133107 0)
(0.0500707 -0.138456 0)
(0.052524 -0.131031 0)
(0.0530019 -0.1142 0)
(0.0527026 -0.0915201 0)
(0.0529007 -0.0670335 0)
(0.0547558 -0.0448662 0)
(0.0584554 -0.029527 0)
(0.059983 -0.0253115 0)
(0.0562226 -0.0262796 0)
(0.0489834 -0.0260779 0)
(0.0416726 -0.0242744 0)
(0.0356452 -0.0215489 0)
(0.031322 -0.0184633 0)
(0.0290093 -0.0151117 0)
(0.0291527 -0.0118333 0)
(0.0314837 -0.0105038 0)
(0.0348133 -0.0104422 0)
(0.0385861 -0.01053 0)
(0.0426386 -0.0100369 0)
(0.0468731 -0.00836393 0)
(0.0512177 -0.004686 0)
(0.0561055 0.00206083 0)
(0.0604273 0.0120045 0)
(0.0650341 0.0251624 0)
(0.0740364 0.0387288 0)
(0.0738423 0.0456917 0)
(0.0997818 0.0643668 0)
(0.0973588 0.0542871 0)
(0.108148 0.054822 0)
(-0.129457 0.0952262 0)
(0.678221 0.409634 0)
(-0.275283 0.153491 0)
(0.0160298 0.072616 0)
(0.0292835 0.072706 0)
(0.0391165 0.0556449 0)
(0.0506861 0.0157306 0)
(0.0820779 -0.0434772 0)
(0.0998732 -0.0908357 0)
(0.106594 -0.121467 0)
(0.105507 -0.136216 0)
(0.0987738 -0.137114 0)
(0.0884723 -0.126854 0)
(0.0767083 -0.108707 0)
(0.0651461 -0.0860878 0)
(0.0550959 -0.0628248 0)
(0.0474305 -0.0424917 0)
(0.0421707 -0.028248 0)
(0.0372975 -0.0217903 0)
(0.0310289 -0.0199178 0)
(0.0238153 -0.0189093 0)
(0.0169765 -0.0177727 0)
(0.0112916 -0.0165061 0)
(0.00715942 -0.0152388 0)
(0.00486875 -0.0140632 0)
(0.00462797 -0.0132654 0)
(0.00609449 -0.0134598 0)
(0.00850778 -0.0141811 0)
(0.0114169 -0.0147148 0)
(0.0146553 -0.0145375 0)
(0.0182323 -0.0132173 0)
(0.0223778 -0.0101636 0)
(0.0276381 -0.00429874 0)
(0.0357055 0.0055032 0)
(0.0437482 0.0173265 0)
(0.0533234 0.0288495 0)
(0.0585147 0.0360198 0)
(0.0706816 0.0501445 0)
(0.0753214 0.0588476 0)
(0.116755 0.0789141 0)
(-0.110071 0.151572 0)
(0.773842 0.413906 0)
(-0.0773926 0.127133 0)
(0.0850568 -0.0015466 0)
(0.135168 -0.00683106 0)
(0.140672 -0.0141398 0)
(0.163603 -0.0467402 0)
(0.184844 -0.0792781 0)
(0.189846 -0.104534 0)
(0.180676 -0.119886 0)
(0.162092 -0.12493 0)
(0.138153 -0.120351 0)
(0.112151 -0.107862 0)
(0.0868085 -0.089846 0)
(0.063831 -0.068867 0)
(0.0443726 -0.0483019 0)
(0.0290366 -0.0311195 0)
(0.0178942 -0.0195447 0)
(0.00954188 -0.0139471 0)
(0.00221665 -0.0120635 0)
(-0.00471246 -0.0116061 0)
(-0.0106579 -0.0116064 0)
(-0.0155074 -0.0117827 0)
(-0.0191204 -0.0121421 0)
(-0.0214209 -0.0127557 0)
(-0.0224116 -0.01371 0)
(-0.0223718 -0.0150564 0)
(-0.0217076 -0.0164834 0)
(-0.0206777 -0.0175635 0)
(-0.0194267 -0.0179363 0)
(-0.0180363 -0.0173713 0)
(-0.0163917 -0.0157648 0)
(-0.0139004 -0.0128298 0)
(-0.00877888 -0.00755931 0)
(0.00339333 0.00133382 0)
(0.0133787 0.00993555 0)
(0.0202814 0.0148471 0)
(0.0300473 0.0225102 0)
(0.0385013 0.0285099 0)
(0.114677 0.0834101 0)
(-0.367248 0.217821 0)
(0.904349 0.407476 0)
(0.431913 0.282508 0)
(0.43229 0.187771 0)
(0.433359 0.124478 0)
(0.401635 0.0786024 0)
(0.366624 0.030457 0)
(0.326672 -0.0171651 0)
(0.284164 -0.0537775 0)
(0.238964 -0.0758322 0)
(0.192794 -0.0843372 0)
(0.14811 -0.0820349 0)
(0.106906 -0.0721871 0)
(0.0708878 -0.0577501 0)
(0.0405177 -0.0409705 0)
(0.0165051 -0.0252241 0)
(-0.00149295 -0.0129257 0)
(-0.0133151 -0.00604481 0)
(-0.0212588 -0.00337668 0)
(-0.0275068 -0.00283964 0)
(-0.0328669 -0.00324627 0)
(-0.037465 -0.0040708 0)
(-0.0413826 -0.00506604 0)
(-0.0447408 -0.00622055 0)
(-0.0476302 -0.00759408 0)
(-0.0501161 -0.00918303 0)
(-0.0523352 -0.0109138 0)
(-0.0544167 -0.0125636 0)
(-0.0564304 -0.0138526 0)
(-0.0585266 -0.0145332 0)
(-0.0611723 -0.0144209 0)
(-0.0652224 -0.0132974 0)
(-0.071606 -0.0103128 0)
(-0.081059 -0.00343246 0)
(-0.0925707 0.00868065 0)
(-0.106219 0.0253734 0)
(-0.129351 0.0480321 0)
(-0.161361 0.0787383 0)
(-0.203116 0.114601 0)
(-0.2725 0.148047 0)
(-0.541684 0.167768 0)
(-0.228341 0.0750355 0)
(0.122915 0.0671757 0)
(0.205555 0.029616 0)
(0.196459 -0.00323815 0)
(0.187109 -0.0258053 0)
(0.173677 -0.0406185 0)
(0.149581 -0.0486949 0)
(0.117707 -0.0503798 0)
(0.0825849 -0.0464069 0)
(0.0480254 -0.0383005 0)
(0.0173328 -0.0274248 0)
(-0.00911863 -0.0142777 0)
(-0.0266866 -0.00412944 0)
(-0.0379141 0.00240032 0)
(-0.0448602 0.00535037 0)
(-0.0494112 0.00632718 0)
(-0.0529339 0.00629944 0)
(-0.0560874 0.00555535 0)
(-0.0591537 0.00439014 0)
(-0.0622948 0.00323468 0)
(-0.0656959 0.00219811 0)
(-0.0694981 0.00126076 0)
(-0.0738046 0.000582398 0)
(-0.0787169 0.000404054 0)
(-0.0842386 0.00109809 0)
(-0.0902023 0.00316048 0)
(-0.0963027 0.0071455 0)
(-0.102342 0.0134006 0)
(-0.10848 0.0211153 0)
(-0.115142 0.0280686 0)
(-0.12177 0.0337664 0)
(-0.12734 0.0411454 0)
(-0.131862 0.0529304 0)
(-0.134949 0.0708919 0)
(-0.134085 0.0942623 0)
(-0.126207 0.109887 0)
(-0.114943 0.0743176 0)
(-0.167503 -0.170677 0)
(-0.168096 0.12736 0)
(0.104001 0.0406864 0)
(0.103307 -0.0327789 0)
(0.090963 -0.0644552 0)
(0.0836699 -0.0720785 0)
(0.0700272 -0.0724175 0)
(0.049496 -0.0716069 0)
(0.025362 -0.0698998 0)
(0.000726166 -0.0683565 0)
(-0.0209836 -0.0690899 0)
(-0.0381783 -0.0707449 0)
(-0.0509297 -0.0720758 0)
(-0.0586804 -0.0745633 0)
(-0.0630906 -0.0771271 0)
(-0.065521 -0.0795687 0)
(-0.0671763 -0.0822464 0)
(-0.0686101 -0.0849265 0)
(-0.0701862 -0.0873535 0)
(-0.0721695 -0.0894419 0)
(-0.0746162 -0.091024 0)
(-0.0774536 -0.0922404 0)
(-0.0807033 -0.0938873 0)
(-0.0845435 -0.0963107 0)
(-0.0892256 -0.0998843 0)
(-0.0950161 -0.104878 0)
(-0.102051 -0.111172 0)
(-0.110037 -0.117799 0)
(-0.118052 -0.122397 0)
(-0.124816 -0.123223 0)
(-0.129386 -0.118066 0)
(-0.131191 -0.105345 0)
(-0.128875 -0.0854199 0)
(-0.119824 -0.0586206 0)
(-0.101104 -0.0267709 0)
(-0.0715749 0.00487726 0)
(-0.035722 0.0202762 0)
(0.0776392 -0.0919882 0)
(-0.120971 -0.158627 0)
(0.25966 -0.158026 0)
(-0.246306 -0.0538762 0)
(-0.166787 0.188059 0)
(-0.0420847 0.186806 0)
(-0.0515682 0.222107 0)
(-0.0459787 0.250551 0)
(-0.0462555 0.250692 0)
(-0.053545 0.241939 0)
(-0.0645552 0.239386 0)
(-0.0752674 0.242408 0)
(-0.0838323 0.248501 0)
(-0.089482 0.256188 0)
(-0.0920704 0.263977 0)
(-0.0922329 0.271136 0)
(-0.0911806 0.278454 0)
(-0.0897724 0.284261 0)
(-0.0885374 0.288399 0)
(-0.0878821 0.29169 0)
(-0.0880017 0.29434 0)
(-0.0889205 0.296343 0)
(-0.090606 0.297673 0)
(-0.0929954 0.298024 0)
(-0.0960034 0.297626 0)
(-0.0995767 0.29778 0)
(-0.103602 0.299116 0)
(-0.107896 0.302456 0)
(-0.11222 0.308534 0)
(-0.116296 0.317505 0)
(-0.119814 0.328278 0)
(-0.122348 0.337835 0)
(-0.123414 0.344599 0)
(-0.122205 0.34709 0)
(-0.117334 0.344525 0)
(-0.106853 0.338259 0)
(-0.0888358 0.330163 0)
(-0.0632128 0.323876 0)
(-0.0330639 0.324756 0)
(0.00975424 0.335181 0)
(0.124499 0.410788 0)
(-0.285764 0.424512 0)
)
;

boundaryField
{
    floor
    {
        type            noSlip;
    }
    ceiling
    {
        type            noSlip;
    }
    sWall
    {
        type            noSlip;
    }
    nWall
    {
        type            noSlip;
    }
    sideWalls
    {
        type            empty;
    }
    glass1
    {
        type            noSlip;
    }
    glass2
    {
        type            noSlip;
    }
    sun
    {
        type            noSlip;
    }
    heatsource1
    {
        type            noSlip;
    }
    heatsource2
    {
        type            noSlip;
    }
    Table_master
    {
        type            noSlip;
    }
    Table_slave
    {
        type            noSlip;
    }
    inlet
    {
        type            fixedValue;
        value           uniform (0.2 0 0);
    }
    outlet
    {
        type            zeroGradient;
    }
}


// ************************************************************************* //
