// -*- C++ -*-
// File generated by PyFoam - sorry for the ugliness

FoamFile
{
 version 2.0;
 format ascii;
 class volVectorField;
 location "900";
 object U;
}

dimensions [ 0 1 -1 0 0 0 0 ];

internalField nonuniform List<vector> 459
(
  (0.00369286 0.0864756 0)
  (-0.17523 0.026887 0)
  (-0.206312 0.00877725 0)
  (-0.225033 -0.00545251 0)
  (-0.219506 -0.0204208 0)
  (-0.189479 -0.0366573 0)
  (-0.139414 -0.0512887 0)
  (-0.0782251 -0.0602058 0)
  (-0.00935284 -0.0579528 0)
  (0.0498928 -0.0429515 0)
  (0.0872483 -0.0288905 0)
  (0.110867 -0.0155703 0)
  (0.117148 -0.00207961 0)
  (0.101329 0.0172073 0)
  (0.0823652 0.0575223 0)
  (-0.0230381 0.0159885 0)
  (-0.0349297 0.00672503 0)
  (-0.0429231 -0.00016182 0)
  (-0.0392522 -0.00513399 0)
  (-0.0291478 -0.00731913 0)
  (-0.0177251 -0.00600997 0)
  (-0.0108298 -0.00115498 0)
  (-0.00716563 0.00121025 0)
  (-0.00603748 0.000457675 0)
  (-0.00633215 -0.000836158 0)
  (-0.00703186 -0.0019061 0)
  (-0.00702613 -0.00264102 0)
  (-0.00594192 -0.00338585 0)
  (-0.0027701 -0.00449571 0)
  (0.00191233 -0.00557151 0)
  (0.00628927 -0.00524908 0)
  (0.00896814 -0.00417927 0)
  (0.00548551 -0.00276752 0)
  (0.00557365 -0.00388696 0)
  (0.154156 0.179796 0)
  (-0.152823 0.079993 0)
  (-0.163296 0.0464959 0)
  (-0.183532 0.0156104 0)
  (-0.179876 -0.0196287 0)
  (-0.152759 -0.0564248 0)
  (-0.108552 -0.0856038 0)
  (-0.0567195 -0.0995996 0)
  (-0.00304502 -0.0930523 0)
  (0.0420949 -0.0706788 0)
  (0.0745498 -0.0455424 0)
  (0.0959619 -0.0203062 0)
  (0.106477 0.00561226 0)
  (0.108255 0.033485 0)
  (0.108755 0.0693824 0)
  (0.104063 0.0661524 0)
  (0.0668421 0.0622486 0)
  (-0.0137544 0.0292715 0)
  (-0.0152515 0.016445 0)
  (-0.0133581 0.00246845 0)
  (0.000234747 -0.0122733 0)
  (0.00998432 -0.0170539 0)
  (0.0195991 -0.0162095 0)
  (0.0224945 -0.0088813 0)
  (0.0253225 -0.00163079 0)
  (0.0270707 0.00221083 0)
  (0.0276367 0.00354513 0)
  (0.0272749 0.00375011 0)
  (0.0257919 0.00345098 0)
  (0.0233508 0.00253206 0)
  (0.0200766 3.56616e-05 0)
  (0.0170833 -0.00294075 0)
  (0.0114591 -0.0025064 0)
  (0.00404398 -3.57412e-05 0)
  (-0.00448338 0.00436697 0)
  (0.0343785 0.00306721 0)
  (0.291559 0.26772 0)
  (-0.154749 0.122849 0)
  (-0.123613 0.0726987 0)
  (-0.14324 0.0217204 0)
  (-0.138461 -0.0353889 0)
  (-0.110266 -0.09261 0)
  (-0.069981 -0.133214 0)
  (-0.0269875 -0.147903 0)
  (0.0140903 -0.134242 0)
  (0.0467136 -0.104473 0)
  (0.0722024 -0.0700231 0)
  (0.089393 -0.0354772 0)
  (0.0989837 -0.0017629 0)
  (0.10284 0.031571 0)
  (0.103421 0.0634946 0)
  (0.0938386 0.075406 0)
  (0.0737855 0.105662 0)
  (-0.00187767 0.0166734 0)
  (0.00797531 -0.00569774 0)
  (0.0328887 -0.0193341 0)
  (0.0433739 -0.0255803 0)
  (0.049341 -0.0257686 0)
  (0.0546197 -0.0236396 0)
  (0.0481727 -0.0204016 0)
  (0.0414761 -0.0131156 0)
  (0.0391497 -0.0088002 0)
  (0.0397325 -0.00634134 0)
  (0.0411333 -0.00488281 0)
  (0.0425989 -0.00393226 0)
  (0.043914 -0.00337472 0)
  (0.0450041 -0.00345269 0)
  (0.0443344 -0.0025179 0)
  (0.0409869 0.00584696 0)
  (0.0309122 0.010241 0)
  (0.0138217 0.0146505 0)
  (0.0461772 0.0145241 0)
  (0.415839 0.337943 0)
  (-0.172847 0.159471 0)
  (-0.0851132 0.0964505 0)
  (-0.101354 0.0279492 0)
  (-0.0889898 -0.0513287 0)
  (-0.0563756 -0.128167 0)
  (-0.0213622 -0.175135 0)
  (0.0116643 -0.186267 0)
  (0.0379101 -0.166752 0)
  (0.0595311 -0.130626 0)
  (0.0759587 -0.0884904 0)
  (0.0865733 -0.0466371 0)
  (0.0925117 -0.00764187 0)
  (0.0956214 0.0284343 0)
  (0.0994289 0.0610008 0)
  (0.105948 0.0848751 0)
  (0.117475 0.116368 0)
  (0.140209 0.0887076 0)
  (0.0968027 0.0411245 0)
  (0.0942176 0.0110471 0)
  (0.094208 -0.0116272 0)
  (0.0921887 -0.0235454 0)
  (0.0892948 -0.0258171 0)
  (0.0863062 -0.0216538 0)
  (0.0891598 -0.0143473 0)
  (0.0960479 -0.00936203 0)
  (0.100281 -0.00622118 0)
  (0.100897 -0.00402386 0)
  (0.0989686 -0.00225115 0)
  (0.0953591 -0.000740591 0)
  (0.0902444 0.000684503 0)
  (0.0833217 0.0023458 0)
  (0.0743063 0.00426839 0)
  (0.0633428 0.0114894 0)
  (0.0541448 0.0184583 0)
  (0.0387283 0.0265351 0)
  (0.0594286 0.0434543 0)
  (0.524161 0.391485 0)
  (-0.199487 0.187854 0)
  (-0.049799 0.110671 0)
  (-0.0556527 0.0287817 0)
  (-0.0245624 -0.0738032 0)
  (0.0109642 -0.163053 0)
  (0.0366342 -0.205831 0)
  (0.0547191 -0.209842 0)
  (0.0671691 -0.185597 0)
  (0.0755525 -0.144558 0)
  (0.0802794 -0.0973053 0)
  (0.0818915 -0.0512895 0)
  (0.0820561 -0.0101364 0)
  (0.0823972 0.0257342 0)
  (0.0865086 0.0556153 0)
  (0.0957451 0.0764561 0)
  (0.110887 0.0876221 0)
  (0.124534 0.0549215 0)
  (0.121161 0.0274494 0)
  (0.12095 0.004425 0)
  (0.117299 -0.0118643 0)
  (0.110187 -0.0200619 0)
  (0.102038 -0.0210909 0)
  (0.094537 -0.017002 0)
  (0.0898859 -0.00921088 0)
  (0.087105 -0.003247 0)
  (0.0835081 0.000735773 0)
  (0.0787027 0.00362205 0)
  (0.0733959 0.00587251 0)
  (0.0679472 0.00775054 0)
  (0.0625209 0.00956504 0)
  (0.0572816 0.0117716 0)
  (0.0526539 0.014991 0)
  (0.0496244 0.0200693 0)
  (0.0496085 0.0251499 0)
  (0.0504271 0.031174 0)
  (0.0672078 0.0446892 0)
  (0.0748706 0.0313174 0)
  (0.0814875 0.0234382 0)
  (-0.102911 0.0352137 0)
  (0.609703 0.433354 0)
  (-0.22795 0.203347 0)
  (-0.0167403 0.103083 0)
  (0.011385 0.000256088 0)
  (0.0576029 -0.112865 0)
  (0.0855656 -0.188228 0)
  (0.0992156 -0.221811 0)
  (0.101904 -0.218545 0)
  (0.0973731 -0.188872 0)
  (0.0889951 -0.143922 0)
  (0.0791182 -0.0940251 0)
  (0.0694489 -0.0470281 0)
  (0.0618099 -0.00692793 0)
  (0.0575178 0.0254828 0)
  (0.0601605 0.0493871 0)
  (0.0689193 0.0636405 0)
  (0.0835891 0.0662626 0)
  (0.0970594 0.0462357 0)
  (0.102735 0.0249817 0)
  (0.103223 0.00685441 0)
  (0.0991827 -0.00554123 0)
  (0.0916492 -0.0115398 0)
  (0.0827054 -0.0120909 0)
  (0.0738198 -0.00876903 0)
  (0.066049 -0.0030846 0)
  (0.0591643 0.00218876 0)
  (0.0532815 0.00601997 0)
  (0.0478749 0.00871421 0)
  (0.042822 0.0106814 0)
  (0.0381873 0.0121995 0)
  (0.0341074 0.0135039 0)
  (0.0309044 0.0148502 0)
  (0.029222 0.016489 0)
  (0.0302001 0.0186279 0)
  (0.0347672 0.0208666 0)
  (0.0413803 0.0230147 0)
  (0.0527569 0.0260722 0)
  (0.0575497 0.0171511 0)
  (0.0760203 0.0268601 0)
  (-0.101994 0.0619144 0)
  (0.689559 0.469419 0)
  (-0.238842 0.181253 0)
  (0.0352835 0.0255842 0)
  (0.112109 -0.0762087 0)
  (0.154059 -0.156673 0)
  (0.169225 -0.207878 0)
  (0.1651 -0.223815 0)
  (0.146725 -0.208689 0)
  (0.12014 -0.172762 0)
  (0.0913348 -0.125613 0)
  (0.0647171 -0.0761831 0)
  (0.0427724 -0.0316986 0)
  (0.0263175 0.00383511 0)
  (0.0207231 0.0281335 0)
  (0.0241608 0.0438518 0)
  (0.0338188 0.0520592 0)
  (0.0480546 0.0514343 0)
  (0.0603613 0.0381301 0)
  (0.0666441 0.022023 0)
  (0.0669966 0.00853227 0)
  (0.0628591 -3.59878e-05 0)
  (0.0559795 -0.00366958 0)
  (0.0473453 -0.00323147 0)
  (0.0383812 -2.80871e-05 0)
  (0.0303675 0.0044731 0)
  (0.0243144 0.00844351 0)
  (0.0194949 0.0113243 0)
  (0.0154328 0.0133391 0)
  (0.0118982 0.0147539 0)
  (0.00883487 0.0156959 0)
  (0.00631922 0.0161915 0)
  (0.00461807 0.0161618 0)
  (0.00430195 0.0153716 0)
  (0.00629813 0.0135762 0)
  (0.0108384 0.0109376 0)
  (0.0160674 0.00822901 0)
  (0.0224891 0.00658018 0)
  (0.0278558 0.00537822 0)
  (0.0580734 0.0387375 0)
  (-0.121273 0.107103 0)
  (0.800962 0.452009 0)
  (-0.00269927 0.14588 0)
  (0.156338 -0.0646208 0)
  (0.259859 -0.146433 0)
  (0.28001 -0.187067 0)
  (0.261765 -0.204969 0)
  (0.224345 -0.199352 0)
  (0.174894 -0.172478 0)
  (0.120702 -0.132821 0)
  (0.0695344 -0.0873674 0)
  (0.0274565 -0.0430599 0)
  (-0.00343165 -0.00586051 0)
  (-0.0190069 0.0164016 0)
  (-0.0207426 0.0285835 0)
  (-0.0154057 0.0364854 0)
  (-0.00523316 0.0403593 0)
  (0.00795023 0.0385234 0)
  (0.0180859 0.0296188 0)
  (0.02304 0.0191484 0)
  (0.0228133 0.0107049 0)
  (0.0186265 0.0056912 0)
  (0.0121841 0.00406627 0)
  (0.00508753 0.00505289 0)
  (-0.00146927 0.00756571 0)
  (-0.00663904 0.0104816 0)
  (-0.0103462 0.0129748 0)
  (-0.0130477 0.0148794 0)
  (-0.0151025 0.016273 0)
  (-0.0167522 0.0172416 0)
  (-0.018162 0.0177973 0)
  (-0.0195091 0.0178999 0)
  (-0.0211097 0.0175062 0)
  (-0.023647 0.0167247 0)
  (-0.0288385 0.0163429 0)
  (-0.0404827 0.0187281 0)
  (-0.0614233 0.0265072 0)
  (-0.0886142 0.0388433 0)
  (-0.1192 0.0524294 0)
  (-0.163094 0.0630903 0)
  (-0.312129 0.0607825 0)
  (0.95703 0.399497 0)
  (0.448958 0.259652 0)
  (0.463479 0.138938 0)
  (0.462327 0.00434022 0)
  (0.408037 -0.0846827 0)
  (0.325182 -0.123982 0)
  (0.236963 -0.125701 0)
  (0.150694 -0.102343 0)
  (0.0714389 -0.0680476 0)
  (0.00442369 -0.029797 0)
  (-0.0408158 0.000411026 0)
  (-0.0597975 0.0147377 0)
  (-0.0645386 0.0215878 0)
  (-0.0621987 0.0258524 0)
  (-0.0555151 0.028951 0)
  (-0.0461321 0.0302377 0)
  (-0.0359418 0.028754 0)
  (-0.0282203 0.0241132 0)
  (-0.0245121 0.0186764 0)
  (-0.0246182 0.0143685 0)
  (-0.0273688 0.0119255 0)
  (-0.0313512 0.0112544 0)
  (-0.0353626 0.0118989 0)
  (-0.0386188 0.0132706 0)
  (-0.0407814 0.0148408 0)
  (-0.0419266 0.0162733 0)
  (-0.0423272 0.0174846 0)
  (-0.0422308 0.0184724 0)
  (-0.0418389 0.0192536 0)
  (-0.0413415 0.019859 0)
  (-0.0409866 0.0203941 0)
  (-0.0411558 0.0211677 0)
  (-0.0423862 0.0228849 0)
  (-0.0453306 0.0267534 0)
  (-0.050768 0.0340428 0)
  (-0.0590686 0.0446002 0)
  (-0.0682684 0.0541969 0)
  (-0.0773196 0.0508515 0)
  (-0.10008 0.0108002 0)
  (-0.167185 -0.0959808 0)
  (0.0175889 -0.149458 0)
  (0.14323 -0.138099 0)
  (0.153461 -0.120402 0)
  (0.102397 -0.0905293 0)
  (0.0414938 -0.0557723 0)
  (-0.0236511 -0.0166237 0)
  (-0.0716784 0.00658876 0)
  (-0.0997225 0.0186016 0)
  (-0.110206 0.0229309 0)
  (-0.111812 0.0240688 0)
  (-0.109 0.0244918 0)
  (-0.103644 0.0250331 0)
  (-0.0966122 0.0256972 0)
  (-0.088699 0.0259178 0)
  (-0.0810502 0.0251614 0)
  (-0.0751995 0.0233056 0)
  (-0.071834 0.0212004 0)
  (-0.0706354 0.0195835 0)
  (-0.0707901 0.0187429 0)
  (-0.0714389 0.0186521 0)
  (-0.0719089 0.019142 0)
  (-0.0717978 0.0199818 0)
  (-0.0709676 0.0209491 0)
  (-0.0694776 0.0218979 0)
  (-0.0674599 0.0227762 0)
  (-0.0650342 0.0235649 0)
  (-0.0622964 0.0242636 0)
  (-0.0593266 0.0249076 0)
  (-0.0561977 0.025616 0)
  (-0.0529498 0.0266729 0)
  (-0.0494676 0.0286278 0)
  (-0.0452693 0.0323546 0)
  (-0.0395841 0.0389584 0)
  (-0.0320013 0.0492196 0)
  (-0.0215992 0.0611427 0)
  (-0.00899213 0.0665735 0)
  (0.00771425 0.0387915 0)
  (-0.00423231 -0.102964 0)
  (0.104365 0.0365354 0)
  (-0.00297547 -0.0239227 0)
  (-0.0468676 -0.0507409 0)
  (-0.0957547 -0.0474607 0)
  (-0.134144 -0.0379451 0)
  (-0.156035 -0.0319189 0)
  (-0.163104 -0.0317519 0)
  (-0.164197 -0.0340573 0)
  (-0.161246 -0.037374 0)
  (-0.156482 -0.0404819 0)
  (-0.150831 -0.042356 0)
  (-0.144518 -0.0428852 0)
  (-0.137613 -0.0426437 0)
  (-0.130346 -0.0424602 0)
  (-0.123236 -0.0430311 0)
  (-0.116951 -0.0446631 0)
  (-0.111835 -0.0470521 0)
  (-0.107791 -0.0497696 0)
  (-0.104482 -0.0524884 0)
  (-0.101517 -0.0549923 0)
  (-0.0985624 -0.0571648 0)
  (-0.0953817 -0.0589994 0)
  (-0.0918533 -0.0605769 0)
  (-0.0879468 -0.0620098 0)
  (-0.0836785 -0.0633957 0)
  (-0.0790802 -0.0648131 0)
  (-0.0741876 -0.0663043 0)
  (-0.0690295 -0.0678382 0)
  (-0.0635988 -0.0692416 0)
  (-0.057773 -0.0700985 0)
  (-0.0511251 -0.0696617 0)
  (-0.0426176 -0.0669346 0)
  (-0.0304944 -0.0611922 0)
  (-0.0132473 -0.0532301 0)
  (0.0150378 -0.0507836 0)
  (0.0428006 -0.0701555 0)
  (0.0710492 -0.118357 0)
  (0.0383774 -0.192285 0)
  (0.746914 0.136896 0)
  (-0.14703 -0.386753 0)
  (-0.332199 0.120963 0)
  (-0.244611 0.126852 0)
  (-0.248075 0.129627 0)
  (-0.253419 0.138357 0)
  (-0.251361 0.148436 0)
  (-0.243631 0.159145 0)
  (-0.232838 0.169 0)
  (-0.221641 0.177744 0)
  (-0.211331 0.184994 0)
  (-0.202418 0.190549 0)
  (-0.194596 0.194614 0)
  (-0.187227 0.197761 0)
  (-0.179742 0.200741 0)
  (-0.17186 0.20421 0)
  (-0.163648 0.208553 0)
  (-0.155407 0.213813 0)
  (-0.147413 0.219738 0)
  (-0.139795 0.225993 0)
  (-0.132561 0.232278 0)
  (-0.125644 0.238373 0)
  (-0.11893 0.244164 0)
  (-0.112297 0.249646 0)
  (-0.105645 0.254897 0)
  (-0.0989058 0.260031 0)
  (-0.0920443 0.265158 0)
  (-0.085051 0.27037 0)
  (-0.0779371 0.27574 0)
  (-0.0707206 0.2813 0)
  (-0.0633965 0.28703 0)
  (-0.0558736 0.292814 0)
  (-0.0478828 0.298434 0)
  (-0.0389588 0.3037 0)
  (-0.0287148 0.308975 0)
  (-0.0172324 0.316143 0)
  (-0.00254538 0.322705 0)
  (0.0103815 0.33642 0)
  (0.0160677 0.379028 0)
  (-0.0339505 0.486426 0)
)
;

boundaryField
{
  floor
  {
    type noSlip;
  }
  ceiling
  {
    type noSlip;
  }
  sWall
  {
    type noSlip;
  }
  nWall
  {
    type noSlip;
  }
  sideWalls
  {
    type empty;
  }
  glass1
  {
    type noSlip;
  }
  glass2
  {
    type noSlip;
  }
  sun
  {
    type noSlip;
  }
  heatsource1
  {
    type noSlip;
  }
  heatsource2
  {
    type noSlip;
  }
  Table_master
  {
    type noSlip;
  }
  Table_slave
  {
    type noSlip;
  }
  inlet
  {
    type fixedValue;
    value uniform (0.277164 -0.114805 0);
  }
  outlet
  {
    type zeroGradient;
  }
} 	// ************************************************************************* //

