/*--------------------------------*- C++ -*----------------------------------*\
  =========                 |
  \\      /  F ield         | OpenFOAM: The Open Source CFD Toolbox
   \\    /   O peration     | Website:  https://openfoam.org
    \\  /    A nd           | Version:  6
     \\/     M anipulation  |
\*---------------------------------------------------------------------------*/
FoamFile
{
    version     2.0;
    format      ascii;
    class       volScalarField;
    location    "60";
    object      epsilon;
}
// * * * * * * * * * * * * * * * * * * * * * * * * * * * * * * * * * * * * * //

dimensions      [0 2 -3 0 0 0 0];

internalField   nonuniform List<scalar> 
459
(
0.00159476
0.00295171
0.00294683
0.00256665
0.00218629
0.00187062
0.00161249
0.00140436
0.00122978
0.00107804
0.000941336
0.000813368
0.00068819
0.000558016
0.000427017
0.000169871
0.000314008
0.000418705
0.00042503
0.000401391
0.000369801
0.000316805
0.00026693
0.000226455
0.000193189
0.0001643
0.000138008
0.000113267
8.95068e-05
6.72109e-05
4.73284e-05
3.096e-05
1.94166e-05
3.55383e-05
0.00237253
0.00622756
0.00355817
0.00238175
0.00176008
0.00140241
0.00117879
0.00102249
0.000901854
0.000799139
0.00070439
0.000612668
0.00052312
0.000437057
0.000359956
0.000405316
0.000278447
0.000321103
0.00104964
0.000525754
0.000387392
0.000323993
0.000283996
0.000283307
0.000231807
0.000185773
0.00014958
0.000121533
9.81418e-05
7.70383e-05
5.78374e-05
4.2231e-05
3.30404e-05
3.42483e-05
2.5876e-05
4.56315e-05
0.00252203
0.00683738
0.00291432
0.0016807
0.00116145
0.000932018
0.000821513
0.000755233
0.000698971
0.000638351
0.00056996
0.00049646
0.000423776
0.000357312
0.000302588
0.000284059
0.000298493
0.000387827
0.00107186
0.000554362
0.00038632
0.000310372
0.000279398
0.000618789
0.000420439
0.000273061
0.000173502
0.000114335
8.34466e-05
6.55177e-05
5.30996e-05
4.42499e-05
3.26761e-05
3.424e-05
3.26247e-05
5.48829e-05
0.0023728
0.00504208
0.00167656
0.000871612
0.000590239
0.00052022
0.000518327
0.000525365
0.00051514
0.000485602
0.000442258
0.000392022
0.000341589
0.000296376
0.000261278
0.000240431
0.000246834
0.000320034
0.000405393
0.000354282
0.000328566
0.000315584
0.000298686
0.000289805
0.000744718
0.000563941
0.000444577
0.000353335
0.000279556
0.000216022
0.000159874
0.000112514
7.5751e-05
3.90223e-05
3.19644e-05
5.50627e-05
7.41308e-05
0.00229209
0.00320636
0.000999108
0.000556186
0.000352222
0.000328429
0.000349988
0.000369586
0.000371424
0.000358375
0.000335688
0.000307998
0.000280299
0.000257232
0.00024335
0.000238038
0.000265575
0.000291025
0.000306613
0.000343156
0.000374117
0.000382439
0.000362709
0.000320793
0.000290634
0.000261239
0.000245958
0.000232433
0.000211119
0.00017686
0.00013613
0.000100439
6.56112e-05
4.57251e-05
3.4264e-05
6.82312e-05
9.80628e-05
0.000140486
0.000272874
0.000903694
0.00216068
0.00229457
0.000926798
0.000608031
0.000342179
0.000277817
0.000273988
0.000281572
0.000283608
0.000279331
0.000270763
0.00025962
0.000250212
0.000246579
0.000254619
0.000278447
0.000333309
0.000390242
0.000451574
0.000502802
0.000525298
0.000506261
0.000450167
0.000371059
0.00029715
0.00025518
0.000227352
0.00019735
0.000164931
0.00013606
0.000113925
9.65167e-05
7.4726e-05
6.24167e-05
5.00366e-05
8.06373e-05
0.000127444
0.00027491
0.00109255
0.0019778
0.00198727
0.00195062
0.00106596
0.000862933
0.00046175
0.000330618
0.000297601
0.000288331
0.000282206
0.000276567
0.000272003
0.00026923
0.000271534
0.000283297
0.000310665
0.000361064
0.000441773
0.000540804
0.000628179
0.000676891
0.000668437
0.000600826
0.000497299
0.000383114
0.000282437
0.000224633
0.000192097
0.000169052
0.000152916
0.000143656
0.000138176
0.000130551
0.000115004
9.98169e-05
8.54493e-05
0.000104821
0.000160374
0.000609002
0.00342971
0.00468865
0.00175539
0.00182455
0.00137163
0.00135841
0.000762493
0.00053822
0.000480004
0.000460941
0.000447329
0.000432427
0.000417607
0.000408577
0.000413198
0.000431685
0.000473795
0.000548773
0.000654444
0.000772282
0.000844981
0.000847863
0.000771895
0.00062896
0.000482952
0.000362716
0.000286952
0.000250957
0.000236999
0.000234074
0.000238518
0.000246804
0.000253217
0.000250392
0.000233395
0.000207564
0.000183725
0.000191022
0.000310104
0.00149573
0.0148941
0.0125729
0.00133504
0.00143902
0.00181836
0.00203141
0.00130978
0.00103726
0.000993696
0.000982965
0.000970186
0.000953751
0.000936228
0.000919057
0.000903409
0.000903194
0.000936428
0.0010042
0.00108795
0.00114984
0.00114518
0.00106315
0.000924961
0.000771495
0.000650012
0.000574595
0.000534657
0.000524582
0.00053384
0.000555716
0.000585175
0.000615528
0.000637339
0.000639724
0.000615553
0.000570141
0.000526046
0.000532627
0.00077773
0.00313109
0.0246248
0.0186842
0.00240703
0.00250535
0.00227706
0.00228171
0.00234823
0.00237672
0.00237966
0.00237216
0.00235987
0.00234137
0.00231241
0.00227286
0.00223565
0.00222497
0.00220787
0.00215381
0.00205878
0.00194105
0.0018261
0.00173218
0.00166404
0.00162239
0.00161048
0.00162721
0.0016698
0.00173316
0.00180851
0.00188257
0.00193812
0.00195748
0.00192993
0.00186247
0.00179383
0.00184095
0.00242146
0.00545355
0.0199744
0.0120624
0.00594304
0.00601882
0.00572381
0.00570702
0.0058012
0.00586337
0.0058876
0.00589111
0.00588087
0.00585016
0.00578628
0.00568683
0.00558363
0.00553058
0.00552653
0.0055286
0.00548692
0.00538066
0.0052267
0.00505661
0.00489724
0.00476415
0.00467313
0.0046386
0.00466803
0.00476048
0.00490464
0.00507569
0.00523332
0.00532382
0.00529024
0.00509577
0.00476864
0.00448203
0.00468723
0.00640054
0.0106666
0.00727037
0.000406164
0.0002711
0.0016131
0.00260554
0.00291409
0.00309646
0.00322905
0.00332761
0.00340433
0.00346523
0.00351099
0.0035404
0.00355609
0.00357144
0.00359774
0.00361451
0.00360886
0.00357367
0.00351292
0.00343892
0.00336621
0.00330703
0.00326979
0.00325997
0.00327964
0.00332721
0.00339753
0.00348155
0.00356633
0.00363597
0.00367409
0.00366784
0.00361307
0.00352406
0.00345734
0.00354398
0.00396429
0.00481042
0.00551495
0.00410388
)
;

boundaryField
{
    floor
    {
        Cmu             0.09;
        kappa           0.41;
        E               9.8;
        type            epsilonWallFunction;
        value           nonuniform List<scalar> 
29
(
0.000427017
0.000169871
0.000314008
0.000418705
0.00042503
0.000401391
0.000369801
0.000316805
0.00026693
0.000226455
0.000193189
0.0001643
0.000138008
0.000113267
8.95068e-05
6.72109e-05
4.73284e-05
3.096e-05
1.94166e-05
3.55383e-05
3.55383e-05
4.56315e-05
5.48829e-05
7.41308e-05
0.000427017
0.000169871
0.000321103
0.000387827
0.000320034
)
;
    }
    ceiling
    {
        Cmu             0.09;
        kappa           0.41;
        E               9.8;
        type            epsilonWallFunction;
        value           nonuniform List<scalar> 
43
(
0.000406164
0.0002711
0.0016131
0.00260554
0.00291409
0.00309646
0.00322905
0.00332761
0.00340433
0.00346523
0.00351099
0.0035404
0.00355609
0.00357144
0.00359774
0.00361451
0.00360886
0.00357367
0.00351292
0.00343892
0.00336621
0.00330703
0.00326979
0.00325997
0.00327964
0.00332721
0.00339753
0.00348155
0.00356633
0.00363597
0.00367409
0.00366784
0.00361307
0.00352406
0.00345734
0.00354398
0.00396429
0.00481042
0.00551495
0.00410388
0.00133504
0.00143902
0.00594304
)
;
    }
    sWall
    {
        Cmu             0.09;
        kappa           0.41;
        E               9.8;
        type            epsilonWallFunction;
        value           uniform 0.000406164;
    }
    nWall
    {
        Cmu             0.09;
        kappa           0.41;
        E               9.8;
        type            epsilonWallFunction;
        value           nonuniform List<scalar> 6(0.000903694 0.0019778 0.00468865 0.0120624 0.00727037 0.00410388);
    }
    sideWalls
    {
        type            empty;
    }
    glass1
    {
        Cmu             0.09;
        kappa           0.41;
        E               9.8;
        type            epsilonWallFunction;
        value           nonuniform List<scalar> 9(0.00159476 0.00237253 0.00252203 0.0023728 0.00229209 0.00216068 0.00198727 0.00175539 0.00133504);
    }
    glass2
    {
        Cmu             0.09;
        kappa           0.41;
        E               9.8;
        type            epsilonWallFunction;
        value           nonuniform List<scalar> 2(0.0125729 0.0186842);
    }
    sun
    {
        Cmu             0.09;
        kappa           0.41;
        E               9.8;
        type            epsilonWallFunction;
        value           nonuniform List<scalar> 
14
(
0.00159476
0.00295171
0.00294683
0.00256665
0.00218629
0.00187062
0.00161249
0.00140436
0.00122978
0.00107804
0.000941336
0.000813368
0.00068819
0.000558016
)
;
    }
    heatsource1
    {
        Cmu             0.09;
        kappa           0.41;
        E               9.8;
        type            epsilonWallFunction;
        value           nonuniform List<scalar> 3(0.000140486 0.000272874 0.000903694);
    }
    heatsource2
    {
        Cmu             0.09;
        kappa           0.41;
        E               9.8;
        type            epsilonWallFunction;
        value           nonuniform List<scalar> 4(0.000405316 0.000278447 0.000278447 0.000298493);
    }
    Table_master
    {
        Cmu             0.09;
        kappa           0.41;
        E               9.8;
        type            epsilonWallFunction;
        value           nonuniform List<scalar> 9(0.000618789 0.000420439 0.000273061 0.000173502 0.000114335 8.34466e-05 6.55177e-05 5.30996e-05 4.42499e-05);
    }
    Table_slave
    {
        Cmu             0.09;
        kappa           0.41;
        E               9.8;
        type            epsilonWallFunction;
        value           nonuniform List<scalar> 9(0.000744718 0.000563941 0.000444577 0.000353335 0.000279556 0.000216022 0.000159874 0.000112514 7.5751e-05);
    }
    inlet
    {
        type            turbulentMixingLengthDissipationRateInlet;
        mixingLength    0.01;
        phi             phi;
        k               k;
        value           uniform 0.000101881;
    }
    outlet
    {
        type            zeroGradient;
    }
}


// ************************************************************************* //
