/*--------------------------------*- C++ -*----------------------------------*\
  =========                 |
  \\      /  F ield         | OpenFOAM: The Open Source CFD Toolbox
   \\    /   O peration     | Website:  https://openfoam.org
    \\  /    A nd           | Version:  6
     \\/     M anipulation  |
\*---------------------------------------------------------------------------*/
FoamFile
{
    version     2.0;
    format      ascii;
    class       volScalarField;
    location    "300";
    object      alphat;
}
// * * * * * * * * * * * * * * * * * * * * * * * * * * * * * * * * * * * * * //

dimensions      [1 -1 -1 0 0 0 0];

internalField   nonuniform List<scalar> 
459
(
0.000817739
0.000849564
0.00083214
0.000859828
0.000883804
0.000904029
0.000921289
0.000936437
0.000950355
0.000964098
0.000974693
0.000980828
0.000982159
0.000979921
0.000974123
0.000700978
0.000673457
0.000648106
0.000632943
0.000622466
0.000608649
0.000585542
0.000560816
0.000537245
0.000514781
0.000493496
0.000473373
0.000454296
0.000436039
0.000418201
0.000400146
0.000380765
0.00036931
0.000340918
0.00127051
0.00194107
0.00159314
0.00187196
0.00199501
0.00212746
0.00226088
0.00238417
0.00248145
0.00253142
0.00254442
0.00249262
0.00233769
0.00202665
0.00151941
0.000998278
0.000916946
0.000840815
0.00159295
0.00209521
0.00236422
0.00245022
0.00233744
0.00188004
0.00164684
0.00146587
0.00132043
0.00119838
0.00109303
0.000999083
0.000910766
0.000823615
0.000748222
0.000681679
0.000820546
0.000452099
0.00169046
0.00299862
0.00170448
0.00263171
0.00282872
0.00296562
0.00307361
0.00315675
0.00321808
0.00325403
0.00326254
0.00321582
0.00307787
0.00280357
0.00235672
0.00177124
0.00109559
0.000969623
0.00263296
0.0031886
0.00325217
0.00317385
0.00271454
0.000743806
0.000654932
0.000587938
0.000536658
0.000496581
0.000464556
0.000438592
0.000417761
0.000402616
0.000462002
0.000541646
0.000932951
0.000534015
0.00212397
0.00462317
0.00168622
0.00296365
0.00332032
0.0034445
0.0035168
0.00356207
0.00359385
0.00361621
0.00362981
0.00361864
0.0035575
0.00340752
0.00310575
0.00256795
0.00178501
0.00112234
0.00291498
0.0030665
0.0032546
0.00329571
0.00320151
0.00275519
0.000728199
0.000692828
0.000683175
0.000680719
0.000676024
0.000663093
0.000641325
0.000617747
0.000588247
0.000563632
0.000570346
0.001112
0.000599542
0.00256294
0.0067518
0.00212538
0.00282321
0.0035478
0.0036976
0.00375176
0.00377092
0.00377841
0.00379037
0.00380736
0.00383376
0.00384849
0.00382515
0.00373577
0.00356195
0.00331701
0.00300257
0.00277139
0.00272582
0.00299366
0.00309283
0.0030954
0.0030107
0.0027175
0.00270358
0.00273066
0.00274146
0.00271292
0.00263051
0.00245217
0.00214161
0.00175561
0.00135167
0.00101306
0.00106074
0.000782221
0.000760382
0.000902565
0.00100612
0.00300621
0.00899877
0.00368111
0.00245552
0.00337608
0.00372541
0.0038535
0.00389348
0.00387299
0.00383924
0.00383819
0.00388689
0.00393755
0.00395807
0.00391028
0.0037414
0.00340658
0.00292145
0.00245337
0.00235685
0.00282333
0.00297258
0.00300382
0.00301078
0.00302971
0.00309279
0.00315199
0.00318252
0.0031754
0.00312761
0.0030352
0.00281386
0.00246639
0.00200919
0.00154843
0.00115094
0.000976513
0.000899086
0.00133591
0.00105196
0.0034531
0.01084
0.00687152
0.00345666
0.0026436
0.00292801
0.00339968
0.00376317
0.00397529
0.00382834
0.00382113
0.00387493
0.0039306
0.00396603
0.00394696
0.00381013
0.00348644
0.00294851
0.0023232
0.00209949
0.00277358
0.00296999
0.00298822
0.00298626
0.00301528
0.00307268
0.00312964
0.00316636
0.00318028
0.00317602
0.00315998
0.0030861
0.00282522
0.00241471
0.00198373
0.00155581
0.00131804
0.00129475
0.00140777
0.00118202
0.00357202
0.0110396
0.00881988
0.00676329
0.00485418
0.003701
0.00334904
0.00348107
0.00379213
0.00383602
0.00382826
0.00383948
0.00386455
0.003881
0.00385719
0.00374932
0.00349785
0.00301958
0.00229079
0.00189795
0.0027752
0.00304108
0.00303663
0.00299704
0.00298509
0.00299514
0.00301009
0.00302329
0.00304083
0.00307716
0.00314825
0.00324865
0.00320972
0.00286813
0.00257975
0.00248993
0.00274996
0.00350933
0.00461428
0.00186038
0.00350309
0.00426637
0.00476735
0.00493616
0.00476212
0.00436202
0.0039907
0.00376364
0.00367959
0.00364666
0.00366141
0.00369839
0.0037312
0.00373526
0.00368913
0.0035725
0.00335567
0.00294618
0.00223895
0.0017214
0.00277185
0.00315049
0.00311988
0.00302653
0.00295696
0.00290203
0.00284805
0.00279112
0.00273323
0.00267784
0.00262663
0.00257915
0.00253762
0.00251301
0.00254956
0.00263159
0.00267208
0.00258777
0.00241483
0.00171278
0.00254696
0.00422246
0.00457211
0.00450775
0.00432987
0.00415782
0.0040308
0.00393393
0.003855
0.00377984
0.00369135
0.00357604
0.0034267
0.00324187
0.00301451
0.0026507
0.00198444
0.00153006
0.0027016
0.00326142
0.00321255
0.00307458
0.00296793
0.00287474
0.00278591
0.00270264
0.00262872
0.0025706
0.00253803
0.00254129
0.00257112
0.00261535
0.00266641
0.00268787
0.00262076
0.00243793
0.00215268
0.0013891
0.0027046
0.0048171
0.00504858
0.00487362
0.00467184
0.00445853
0.00424665
0.00404204
0.00380804
0.00353168
0.00323893
0.00294585
0.00266337
0.0024
0.00215888
0.00189867
0.00148822
0.0012991
0.00230604
0.00277914
0.00273284
0.00262014
0.00253628
0.00247657
0.00244508
0.00244665
0.00247838
0.00252956
0.00258198
0.00265625
0.00275069
0.0028541
0.00294956
0.00302406
0.00302771
0.00305374
0.00272322
0.00140598
0.00235427
0.00247901
0.00258469
0.00273448
0.00258495
0.00237779
0.00220738
0.00205405
0.00191041
0.00177539
0.00165393
0.00154673
0.00144664
0.00134997
0.00125494
0.00116128
0.00106999
0.000982614
0.000898259
0.000802027
0.000821004
0.000837963
0.000842463
0.000849359
0.000862408
0.000881487
0.000906436
0.000937215
0.000974098
0.00101814
0.00107193
0.00113337
0.00120271
0.00127948
0.0013632
0.00147381
0.00150867
0.00147518
0.00137795
0.00127299
)
;

boundaryField
{
    floor
    {
        type            compressible::alphatWallFunction;
        Prt             0.85;
        value           nonuniform List<scalar> 
29
(
0.000138621
9.93094e-05
9.52576e-05
9.15072e-05
8.92565e-05
8.76981e-05
8.56372e-05
8.21762e-05
7.84537e-05
7.4886e-05
7.14678e-05
6.82118e-05
6.51171e-05
6.21679e-05
5.93306e-05
5.65439e-05
5.37076e-05
5.06446e-05
4.88249e-05
4.42834e-05
4.42828e-05
6.18242e-05
7.43915e-05
8.42706e-05
0.000138619
9.93082e-05
0.000119623
0.000137979
0.000159385
)
;
    }
    ceiling
    {
        type            compressible::alphatWallFunction;
        Prt             0.85;
        value           nonuniform List<scalar> 
43
(
0.000322772
0.000338693
0.000352118
0.00037114
0.000352279
0.000325929
0.00030406
0.000284224
0.000265493
0.000247745
0.000231653
0.000217341
0.00020388
0.000190777
0.000177795
0.000164889
0.000152194
0.000139926
0.000127962
0.000114154
0.00011689
0.000119334
0.000119981
0.000120972
0.000122843
0.000125573
0.000129133
0.000133509
0.000138732
0.000144937
0.000152474
0.000161031
0.000170624
0.000181171
0.000192591
0.000207561
0.000212252
0.000207746
0.000194597
0.000180286
0.000466932
0.000559687
0.000367196
)
;
    }
    sWall
    {
        type            compressible::alphatWallFunction;
        Prt             0.85;
        value           uniform 0.00032155;
    }
    nWall
    {
        type            compressible::alphatWallFunction;
        Prt             0.85;
        value           nonuniform List<scalar> 6(0.000142895 0.000149324 0.000167403 0.000195754 0.00019804 0.000179933);
    }
    sideWalls
    {
        type            empty;
    }
    glass1
    {
        type            compressible::alphatWallFunction;
        Prt             0.85;
        value           nonuniform List<scalar> 9(0.000112949 0.000175394 0.00023123 0.000287412 0.00034316 0.000398508 0.000453498 0.000468144 0.000459956);
    }
    glass2
    {
        type            compressible::alphatWallFunction;
        Prt             0.85;
        value           nonuniform List<scalar> 2(0.000256784 0.000237488);
    }
    sun
    {
        type            compressible::alphatWallFunction;
        Prt             0.85;
        value           nonuniform List<scalar> 
14
(
0.000116328
0.000120888
0.000118383
0.000122359
0.000125791
0.000128677
0.000131134
0.000133286
0.000135259
0.000137204
0.000138702
0.000139568
0.000139756
0.00013944
)
;
    }
    heatsource1
    {
        type            compressible::alphatWallFunction;
        Prt             0.85;
        value           nonuniform List<scalar> 3(0.000108147 0.000128617 0.000143284);
    }
    heatsource2
    {
        type            compressible::alphatWallFunction;
        Prt             0.85;
        value           nonuniform List<scalar> 4(0.00014218 0.000130664 0.000130662 0.000155815);
    }
    Table_master
    {
        type            compressible::alphatWallFunction;
        Prt             0.85;
        value           nonuniform List<scalar> 9(0.000105731 9.2668e-05 8.26775e-05 7.49357e-05 6.88209e-05 6.38902e-05 5.98612e-05 5.66066e-05 5.42274e-05);
    }
    Table_slave
    {
        type            compressible::alphatWallFunction;
        Prt             0.85;
        value           nonuniform List<scalar> 9(0.000103453 9.82643e-05 9.68431e-05 9.64813e-05 9.5789e-05 9.38787e-05 9.06521e-05 8.71422e-05 8.27273e-05);
    }
    inlet
    {
        type            fixedValue;
        value           uniform 1.94e-05;
    }
    outlet
    {
        type            zeroGradient;
    }
}


// ************************************************************************* //
