/*--------------------------------*- C++ -*----------------------------------*\
  =========                 |
  \\      /  F ield         | OpenFOAM: The Open Source CFD Toolbox
   \\    /   O peration     | Website:  https://openfoam.org
    \\  /    A nd           | Version:  6
     \\/     M anipulation  |
\*---------------------------------------------------------------------------*/
FoamFile
{
    version     2.0;
    format      ascii;
    class       volScalarField;
    location    "1500";
    object      nut;
}
// * * * * * * * * * * * * * * * * * * * * * * * * * * * * * * * * * * * * * //

dimensions      [0 2 -1 0 0 0 0];

internalField   nonuniform List<scalar> 
459
(
0.00251055
0.00240067
0.00230155
0.00221814
0.00214834
0.00208807
0.00203464
0.00198525
0.00193757
0.00188947
0.00183875
0.00178255
0.0017163
0.00163036
0.00151732
0.000181751
0.000188693
0.000192012
0.00018247
0.000174997
0.000165175
0.000153553
0.000148953
0.000144193
0.000149559
0.000161657
0.000180547
0.000203981
0.000216137
0.000216829
0.000220501
0.000216718
0.000207488
0.000191147
0.00284541
0.00306073
0.0030513
0.00295482
0.00289892
0.00288358
0.00289194
0.00288475
0.00285141
0.00279034
0.00270102
0.0025807
0.00241743
0.00217043
0.00183466
0.00143823
0.00124274
0.000285021
0.000457598
0.000593861
0.000709935
0.000728155
0.000502171
0.000222799
0.000190247
0.000199588
0.000249537
0.000339429
0.00046093
0.000596211
0.000689383
0.000736631
0.000848592
0.000695451
0.000479357
0.000255283
0.00306669
0.003376
0.00308651
0.00278506
0.00267644
0.00268779
0.00275969
0.00284421
0.00290995
0.00293947
0.00292115
0.00284614
0.00270288
0.00246097
0.00214506
0.00185354
0.00125036
0.000425832
0.00124806
0.00127044
0.00118505
0.00102574
0.000801104
0.000295415
0.000207846
0.000218996
0.000248922
0.000279373
0.000311785
0.000348055
0.00039141
0.000451609
0.00126195
0.00124852
0.00107253
0.000413154
0.00324214
0.00363665
0.00281081
0.00228958
0.00228934
0.00249692
0.00274391
0.00291829
0.00301367
0.00304366
0.00302563
0.00296056
0.00283439
0.00261149
0.00231823
0.00205996
0.00152131
0.000679492
0.00165812
0.00170601
0.00145877
0.00117349
0.000903847
0.000679514
0.000516507
0.000530631
0.000545197
0.000559373
0.000572596
0.000587475
0.000607042
0.000635613
0.000681031
0.00183176
0.0018384
0.00162345
0.000685559
0.00340423
0.00376387
0.00231403
0.00194176
0.00272173
0.00345319
0.00388177
0.00391569
0.00362013
0.00333609
0.00314771
0.00301541
0.00287223
0.00264502
0.00234088
0.00208543
0.00167608
0.00180397
0.00242245
0.00262541
0.00253864
0.0024673
0.00245627
0.00251239
0.00261905
0.00274696
0.00280174
0.0027879
0.00273936
0.00266587
0.00257791
0.00248886
0.0024122
0.00235879
0.00218402
0.00197529
0.00169701
0.000847872
0.00077867
0.000662539
0.00357338
0.00374585
0.00184638
0.00233944
0.00374231
0.0042583
0.00439559
0.0042783
0.00376253
0.00336328
0.00312165
0.00296109
0.00279567
0.00256191
0.00229338
0.00208891
0.00189685
0.00258168
0.00322955
0.00351842
0.00359308
0.00367967
0.00379163
0.00391639
0.00403179
0.00411159
0.00413087
0.00409793
0.00401771
0.00388538
0.00369619
0.0034527
0.00316995
0.00287193
0.00258031
0.00231166
0.00204929
0.00173666
0.00138259
0.000680232
0.00377182
0.00364339
0.00186651
0.00215293
0.00349534
0.00384013
0.0037892
0.00363494
0.00340418
0.00316145
0.00297335
0.00282172
0.00265857
0.00245391
0.00225332
0.00215323
0.00221991
0.00330259
0.00393692
0.00419783
0.00436851
0.00452788
0.00467298
0.00479416
0.00488294
0.00493906
0.00496032
0.00495493
0.00492195
0.00485168
0.00472545
0.00451844
0.00421092
0.00380777
0.00334744
0.0028814
0.00245599
0.00210496
0.00177078
0.00112336
0.00404964
0.0039618
0.00259542
0.00159912
0.00275868
0.00318539
0.00316521
0.00308286
0.00301268
0.00290844
0.00279626
0.00268167
0.00254987
0.00239727
0.00227556
0.00229837
0.00262274
0.00390737
0.00449385
0.00482099
0.00507949
0.00526786
0.00540141
0.0054816
0.00551843
0.00553052
0.00552935
0.00552365
0.00551778
0.00551146
0.00549779
0.00545972
0.00536631
0.00517263
0.0048298
0.00430488
0.0036406
0.00307886
0.00275444
0.00138878
0.00450891
0.00517573
0.00520474
0.00226974
0.00240737
0.0029451
0.0029592
0.00288908
0.00282491
0.00277784
0.00272142
0.00265244
0.00256534
0.00246552
0.00240532
0.00252443
0.0030523
0.00428318
0.00498109
0.00547872
0.00580761
0.0060108
0.00610468
0.00611642
0.00608205
0.00602884
0.00597348
0.00592541
0.00588935
0.00586681
0.00585651
0.00585373
0.00584877
0.00582643
0.00576954
0.00566075
0.00545583
0.00504038
0.00460794
0.00148933
0.00841875
0.00350951
0.00308386
0.00335555
0.00332163
0.00325496
0.00314312
0.00303949
0.00297656
0.00292564
0.00286717
0.00279915
0.00277021
0.00295948
0.00368525
0.00459373
0.00546159
0.00610765
0.00652364
0.00675555
0.00682975
0.00679672
0.00670718
0.00659911
0.00649588
0.00640884
0.00634099
0.00629002
0.00625039
0.00621432
0.0061718
0.00611048
0.00601653
0.00587405
0.00565102
0.00527684
0.00448258
0.00157666
0.00377842
0.00299758
0.00407846
0.00397499
0.00382949
0.0035991
0.00335457
0.00310065
0.00297374
0.0029226
0.00289966
0.0028736
0.00286443
0.00301014
0.00352708
0.00433277
0.00528641
0.00620556
0.00683896
0.00714979
0.00721274
0.00713355
0.00699941
0.00686546
0.00675838
0.00668466
0.00663858
0.0066083
0.00658007
0.0065404
0.00647671
0.00637658
0.00622596
0.00600572
0.00568564
0.00520423
0.00456893
0.00176698
0.00111793
0.0011332
0.00223114
0.00161772
0.00128752
0.00123791
0.00122348
0.00121799
0.0012205
0.00123012
0.00123682
0.00124504
0.00125446
0.00126219
0.00126468
0.00125409
0.00125279
0.00127296
0.00131394
0.00137471
0.00145543
0.00152901
0.0015807
0.00160839
0.00161684
0.00161276
0.00160224
0.00158969
0.00157771
0.00156727
0.00155812
0.00154925
0.00153928
0.00152672
0.0015099
0.00148655
0.00145263
0.00140027
0.00135044
0.00129106
)
;

boundaryField
{
    floor
    {
        type            nutkWallFunction;
        Cmu             0.09;
        kappa           0.41;
        E               9.8;
        value           nonuniform List<scalar> 
29
(
0.000180237
1.67054e-05
1.77169e-05
1.81983e-05
1.681e-05
1.57154e-05
1.42665e-05
1.25362e-05
1.18454e-05
1.11289e-05
1.19377e-05
1.37448e-05
1.65279e-05
1.99246e-05
2.16653e-05
2.17641e-05
2.22875e-05
2.17494e-05
2.04299e-05
1.80734e-05
1.80733e-05
2.71825e-05
4.84502e-05
8.29462e-05
0.000180237
1.67053e-05
3.12968e-05
5.01127e-05
8.21975e-05
)
;
    }
    ceiling
    {
        type            nutkWallFunction;
        Cmu             0.09;
        kappa           0.41;
        E               9.8;
        value           nonuniform List<scalar> 
43
(
0.000134644
0.000136418
0.000258849
0.000191478
0.000154137
0.000148445
0.000146786
0.000146153
0.000146443
0.000147551
0.000148322
0.000149267
0.000150349
0.000151236
0.000151519
0.0001503
0.000150148
0.00015246
0.000157148
0.000164071
0.000173215
0.000181501
0.000187296
0.000190391
0.000191333
0.000190877
0.0001897
0.000188297
0.000186955
0.000185785
0.000184759
0.000183764
0.000182644
0.000181232
0.000179341
0.000176711
0.000172884
0.000166957
0.000161292
0.000154517
0.000494817
0.000561294
0.000420849
)
;
    }
    sWall
    {
        type            nutkWallFunction;
        Cmu             0.09;
        kappa           0.41;
        E               9.8;
        value           uniform 0.000134663;
    }
    nWall
    {
        type            nutkWallFunction;
        Cmu             0.09;
        kappa           0.41;
        E               9.8;
        value           nonuniform List<scalar> 6(8.01024e-05 8.22832e-05 0.000135173 0.000186841 0.000208007 0.000154526);
    }
    sideWalls
    {
        type            empty;
    }
    glass1
    {
        type            nutkWallFunction;
        Cmu             0.09;
        kappa           0.41;
        E               9.8;
        value           nonuniform List<scalar> 9(0.000288988 0.000324467 0.000347669 0.000365943 0.000382733 0.000400168 0.000420515 0.000448822 0.000495201);
    }
    glass2
    {
        type            nutkWallFunction;
        Cmu             0.09;
        kappa           0.41;
        E               9.8;
        value           nonuniform List<scalar> 2(0.000165682 0.000177054);
    }
    sun
    {
        type            nutkWallFunction;
        Cmu             0.09;
        kappa           0.41;
        E               9.8;
        value           nonuniform List<scalar> 
14
(
0.000288746
0.000277001
0.000266361
0.000257371
0.000249821
0.000243282
0.000237466
0.000232078
0.000226861
0.000221585
0.000216006
0.000209804
0.000202467
0.000192902
)
;
    }
    heatsource1
    {
        type            nutkWallFunction;
        Cmu             0.09;
        kappa           0.41;
        E               9.8;
        value           nonuniform List<scalar> 3(0.00010267 9.43181e-05 8.01038e-05);
    }
    heatsource2
    {
        type            nutkWallFunction;
        Cmu             0.09;
        kappa           0.41;
        E               9.8;
        value           nonuniform List<scalar> 4(0.000171322 0.000149025 0.000149025 0.000149902);
    }
    Table_master
    {
        type            nutkWallFunction;
        Cmu             0.09;
        kappa           0.41;
        E               9.8;
        value           nonuniform List<scalar> 9(3.2722e-05 2.04795e-05 2.20703e-05 2.62915e-05 3.05178e-05 3.49501e-05 3.98397e-05 4.55998e-05 5.34664e-05);
    }
    Table_slave
    {
        type            nutkWallFunction;
        Cmu             0.09;
        kappa           0.41;
        E               9.8;
        value           nonuniform List<scalar> 9(6.17868e-05 6.35836e-05 6.54308e-05 6.72229e-05 6.88897e-05 7.07597e-05 7.321e-05 7.67704e-05 8.23906e-05);
    }
    inlet
    {
        type            calculated;
        value           uniform 0.00841875;
    }
    outlet
    {
        type            calculated;
        value           nonuniform List<scalar> 2(0.00111793 0.0011332);
    }
}


// ************************************************************************* //
