// -*- C++ -*-
// File generated by PyFoam - sorry for the ugliness

FoamFile
{
 version 2.0;
 format ascii;
 class volVectorField;
 location "1500";
 object U;
}

dimensions [ 0 1 -1 0 0 0 0 ];

internalField nonuniform List<vector> 459
(
  (0.329968 -0.17634 0)
  (0.281935 -0.14978 0)
  (0.408262 -0.0989215 0)
  (0.504068 -0.065492 0)
  (0.548218 -0.0461444 0)
  (0.564795 -0.0332557 0)
  (0.569956 -0.0232604 0)
  (0.565765 -0.0144977 0)
  (0.551781 -0.00621984 0)
  (0.527346 0.00222095 0)
  (0.491517 0.0115586 0)
  (0.442464 0.022926 0)
  (0.37643 0.0389862 0)
  (0.281502 0.0690962 0)
  (0.208432 0.148126 0)
  (0.022657 0.00905351 0)
  (-0.0204064 -0.00114279 0)
  (-0.0152443 -0.00259574 0)
  (-0.0157231 -0.00198756 0)
  (-0.0161694 -0.00234933 0)
  (-0.0151079 -0.00419102 0)
  (-0.010733 -0.00716099 0)
  (-0.00502791 -0.0105719 0)
  (0.00503401 -0.00712008 0)
  (0.0107352 -0.00479721 0)
  (0.0145989 -0.00347815 0)
  (0.0176598 -0.00286106 0)
  (0.0203454 -0.00287616 0)
  (0.0228543 -0.00260307 0)
  (0.024366 -0.00206744 0)
  (0.022877 -0.000783481 0)
  (0.0210666 -0.00141799 0)
  (0.0223696 -0.000350504 0)
  (-0.0174195 0.00877952 0)
  (0.402183 -0.336142 0)
  (0.210623 -0.241704 0)
  (0.323111 -0.130047 0)
  (0.400586 -0.0654568 0)
  (0.430923 -0.0325126 0)
  (0.44285 -0.011309 0)
  (0.448958 0.00635843 0)
  (0.44853 0.0218253 0)
  (0.439376 0.036049 0)
  (0.420856 0.050382 0)
  (0.392439 0.0661 0)
  (0.353807 0.0846257 0)
  (0.306232 0.108245 0)
  (0.25279 0.141617 0)
  (0.223461 0.199685 0)
  (0.193691 0.172693 0)
  (0.0869362 0.114992 0)
  (0.057299 0.005041 0)
  (0.026517 0.00483524 0)
  (0.015809 0.00424347 0)
  (0.0103776 0.00454603 0)
  (0.00505792 0.00455306 0)
  (-0.00327286 0.00109113 0)
  (-0.00470594 -0.00749331 0)
  (-0.00408473 -0.0142815 0)
  (-0.00232138 -0.00988415 0)
  (0.00184434 -0.00580843 0)
  (0.00262326 -0.0040302 0)
  (0.00218936 -0.00322063 0)
  (0.000793486 -0.00240634 0)
  (-0.00280338 0.000890717 0)
  (-0.00628752 0.00461686 0)
  (-0.0084333 0.00772272 0)
  (-0.0124025 0.0077125 0)
  (-0.0235611 0.00868732 0)
  (-0.059708 0.0101222 0)
  (0.427309 -0.501505 0)
  (0.0897424 -0.332014 0)
  (0.216353 -0.178954 0)
  (0.27351 -0.101065 0)
  (0.287665 -0.0630096 0)
  (0.295697 -0.0369334 0)
  (0.30309 -0.0140506 0)
  (0.308013 0.00874849 0)
  (0.306065 0.0325959 0)
  (0.296642 0.0581649 0)
  (0.279269 0.0859183 0)
  (0.253936 0.116171 0)
  (0.222087 0.149193 0)
  (0.184529 0.184735 0)
  (0.155366 0.221795 0)
  (0.116933 0.182766 0)
  (0.0554669 0.133171 0)
  (0.0145888 -0.00942141 0)
  (-0.00766367 -0.00047735 0)
  (-0.00488815 0.00364982 0)
  (-0.00182697 0.00480727 0)
  (0.0013329 0.00524843 0)
  (0.00190914 0.00532911 0)
  (0.0128561 -0.000538246 0)
  (-0.00423401 -0.0141062 0)
  (-0.0188567 -0.0109888 0)
  (-0.0248358 -0.00774285 0)
  (-0.0291048 -0.0056442 0)
  (-0.0320681 -0.00401956 0)
  (-0.0337475 -0.00263719 0)
  (-0.032744 -0.0012842 0)
  (-0.0284667 -0.000212048 0)
  (-0.0221062 0.00209091 0)
  (-0.0131741 0.00400595 0)
  (-0.00818039 0.00230882 0)
  (0.017428 -0.000851935 0)
  (0.432968 -0.607964 0)
  (-0.0213485 -0.380799 0)
  (0.13564 -0.200105 0)
  (0.163691 -0.113382 0)
  (0.158007 -0.0722283 0)
  (0.16382 -0.0420568 0)
  (0.172068 -0.0150649 0)
  (0.180173 0.0118894 0)
  (0.182829 0.0403261 0)
  (0.179599 0.0713963 0)
  (0.169918 0.105293 0)
  (0.153431 0.141574 0)
  (0.130599 0.17918 0)
  (0.100053 0.216117 0)
  (0.072516 0.249628 0)
  (0.0395297 0.227997 0)
  (0.00091673 0.172544 0)
  (-0.0617543 0.0043634 0)
  (-0.0405563 0.000802478 0)
  (-0.0441082 0.0023503 0)
  (-0.045978 0.00448585 0)
  (-0.0489645 0.00589645 0)
  (-0.0535425 0.00556451 0)
  (-0.059547 0.00331271 0)
  (-0.0653768 0.00048696 0)
  (-0.0671998 -0.00152153 0)
  (-0.0673845 -0.00287927 0)
  (-0.0659943 -0.00383385 0)
  (-0.0634533 -0.0046065 0)
  (-0.0599928 -0.00529226 0)
  (-0.0556203 -0.00595302 0)
  (-0.0501192 -0.00662794 0)
  (-0.0433211 -0.00725258 0)
  (-0.0365683 -0.00744449 0)
  (-0.0295851 -0.00786763 0)
  (-0.0183746 -0.00824704 0)
  (0.0394925 -0.00388984 0)
  (0.414766 -0.668027 0)
  (-0.100211 -0.411302 0)
  (0.0799475 -0.207996 0)
  (0.0707002 -0.109452 0)
  (0.0450407 -0.0768048 0)
  (0.0560728 -0.0500333 0)
  (0.0656118 -0.0236238 0)
  (0.0746124 0.0057169 0)
  (0.0779228 0.038938 0)
  (0.0767241 0.0759111 0)
  (0.0705849 0.116034 0)
  (0.0588982 0.158332 0)
  (0.0417284 0.201463 0)
  (0.0172954 0.243368 0)
  (-0.00351334 0.280004 0)
  (-0.0252845 0.262283 0)
  (-0.0394798 0.193914 0)
  (-0.0620988 0.0331007 0)
  (-0.058492 0.00733603 0)
  (-0.0656292 0.00579917 0)
  (-0.0688836 0.00758435 0)
  (-0.0703054 0.00913602 0)
  (-0.0707777 0.00934574 0)
  (-0.0707901 0.00783008 0)
  (-0.0705209 0.0049723 0)
  (-0.0699847 0.00179413 0)
  (-0.069198 -0.000607062 0)
  (-0.0679716 -0.00239882 0)
  (-0.0663565 -0.00379456 0)
  (-0.064434 -0.005019 0)
  (-0.0622381 -0.00629984 0)
  (-0.0597257 -0.00791854 0)
  (-0.0568785 -0.0102047 0)
  (-0.0537615 -0.0132564 0)
  (-0.05031 -0.0166344 0)
  (-0.0440471 -0.0214401 0)
  (-0.0299614 -0.027491 0)
  (-0.00690431 -0.0426445 0)
  (0.0434016 -0.0352109 0)
  (-0.0552728 0.00386429 0)
  (0.363311 -0.682902 0)
  (-0.141356 -0.423306 0)
  (0.026126 -0.192804 0)
  (-0.0113827 -0.0822291 0)
  (-0.0471493 -0.0786067 0)
  (-0.032975 -0.0585549 0)
  (-0.0263726 -0.0328887 0)
  (-0.0194237 -0.000767775 0)
  (-0.0177337 0.0374719 0)
  (-0.0183518 0.0791935 0)
  (-0.0218929 0.124349 0)
  (-0.0291399 0.171846 0)
  (-0.0400602 0.220003 0)
  (-0.0547981 0.264946 0)
  (-0.0635297 0.296019 0)
  (-0.0697676 0.27406 0)
  (-0.0657101 0.191088 0)
  (-0.067399 0.045315 0)
  (-0.0680056 0.0148361 0)
  (-0.0727469 0.00933261 0)
  (-0.0740691 0.00857627 0)
  (-0.0731664 0.00837568 0)
  (-0.0709806 0.00751403 0)
  (-0.068359 0.0056032 0)
  (-0.065957 0.00288272 0)
  (-0.0640465 2.42192e-05 0)
  (-0.0625929 -0.00231944 0)
  (-0.061478 -0.00409348 0)
  (-0.0606107 -0.00543533 0)
  (-0.0600295 -0.00652141 0)
  (-0.0598304 -0.00757168 0)
  (-0.0601227 -0.00891242 0)
  (-0.06098 -0.0109978 0)
  (-0.0623433 -0.0142597 0)
  (-0.0638927 -0.0189633 0)
  (-0.0643907 -0.025959 0)
  (-0.0601726 -0.0355364 0)
  (-0.0465081 -0.0440715 0)
  (-0.0326845 -0.0270995 0)
  (-0.129062 0.0679108 0)
  (0.263367 -0.629676 0)
  (-0.161138 -0.391321 0)
  (-0.0699236 -0.165619 0)
  (-0.0870034 -0.0504859 0)
  (-0.139433 -0.0751444 0)
  (-0.126372 -0.0626016 0)
  (-0.120735 -0.0366393 0)
  (-0.11541 -0.00206917 0)
  (-0.110249 0.0376324 0)
  (-0.107982 0.0812062 0)
  (-0.10661 0.128403 0)
  (-0.106484 0.178107 0)
  (-0.107321 0.227937 0)
  (-0.108302 0.271943 0)
  (-0.103143 0.295714 0)
  (-0.0938502 0.26642 0)
  (-0.0767822 0.173996 0)
  (-0.0672288 0.0491701 0)
  (-0.0677425 0.0185206 0)
  (-0.068786 0.0102529 0)
  (-0.0671156 0.0071698 0)
  (-0.0636527 0.00535634 0)
  (-0.0593478 0.00374195 0)
  (-0.0550194 0.00191499 0)
  (-0.0512091 -0.000155279 0)
  (-0.048425 -0.00216067 0)
  (-0.0466196 -0.00383198 0)
  (-0.0454733 -0.00509533 0)
  (-0.0448565 -0.00595939 0)
  (-0.0447618 -0.00647972 0)
  (-0.0453192 -0.00678299 0)
  (-0.0467997 -0.00713293 0)
  (-0.0495947 -0.00799711 0)
  (-0.0541976 -0.010059 0)
  (-0.0612794 -0.0141833 0)
  (-0.0709696 -0.0213131 0)
  (-0.0795409 -0.0318992 0)
  (-0.0806469 -0.0439091 0)
  (-0.0935384 -0.0490674 0)
  (-0.198182 -0.0367891 0)
  (0.111276 -0.492421 0)
  (-0.281742 -0.308515 0)
  (-0.274183 -0.148553 0)
  (-0.186106 -0.019766 0)
  (-0.252104 -0.0858272 0)
  (-0.222116 -0.0751722 0)
  (-0.209888 -0.0458603 0)
  (-0.201053 -0.00819381 0)
  (-0.192236 0.0337105 0)
  (-0.185281 0.0780883 0)
  (-0.177056 0.12517 0)
  (-0.167051 0.174187 0)
  (-0.15481 0.222401 0)
  (-0.13989 0.262832 0)
  (-0.119926 0.279986 0)
  (-0.0970723 0.245411 0)
  (-0.0711153 0.151255 0)
  (-0.0551614 0.0474171 0)
  (-0.0544052 0.0178566 0)
  (-0.0519573 0.0077296 0)
  (-0.046864 0.00290079 0)
  (-0.0403798 0.000160115 0)
  (-0.0342593 -0.0013252 0)
  (-0.0291423 -0.00231309 0)
  (-0.025399 -0.0031948 0)
  (-0.0228099 -0.00407877 0)
  (-0.0211393 -0.00490239 0)
  (-0.0201133 -0.00555264 0)
  (-0.0195326 -0.00592099 0)
  (-0.0192697 -0.00592977 0)
  (-0.019278 -0.00555001 0)
  (-0.0196128 -0.00484424 0)
  (-0.0204715 -0.00403932 0)
  (-0.0223424 -0.00364472 0)
  (-0.0264486 -0.00457868 0)
  (-0.0346749 -0.0081344 0)
  (-0.0457469 -0.0166372 0)
  (-0.0534426 -0.0361214 0)
  (-0.0785946 -0.0742173 0)
  (-0.265159 -0.136866 0)
  (-0.12245 -0.342361 0)
  (-0.618241 -0.292324 0)
  (-0.832939 -0.267935 0)
  (-0.231301 -0.138495 0)
  (-0.344093 -0.129378 0)
  (-0.289497 -0.0962482 0)
  (-0.272832 -0.0579198 0)
  (-0.263677 -0.018926 0)
  (-0.254635 0.0226267 0)
  (-0.243495 0.0666851 0)
  (-0.227872 0.111699 0)
  (-0.206877 0.15735 0)
  (-0.180239 0.201318 0)
  (-0.148684 0.237044 0)
  (-0.113598 0.250072 0)
  (-0.0787736 0.215323 0)
  (-0.0445977 0.127636 0)
  (-0.022449 0.0426919 0)
  (-0.0213285 0.0158881 0)
  (-0.0166856 0.00529874 0)
  (-0.00830865 4.88944e-05 0)
  (-0.001836 -0.00205663 0)
  (0.00330654 -0.00244644 0)
  (0.00692934 -0.0023063 0)
  (0.00941011 -0.0022289 0)
  (0.0110107 -0.00235277 0)
  (0.0119648 -0.0026095 0)
  (0.0124722 -0.00287409 0)
  (0.0126987 -0.00302535 0)
  (0.0128018 -0.00297126 0)
  (0.0129496 -0.00265801 0)
  (0.013332 -0.00208611 0)
  (0.0141642 -0.00134012 0)
  (0.0156547 -0.000630677 0)
  (0.0178497 -0.000257882 0)
  (0.0205421 -0.000187895 0)
  (0.0242909 0.000332656 0)
  (0.0304896 -0.00186367 0)
  (0.0421497 -0.0351805 0)
  (-0.163048 -0.13502 0)
  (-1.90083 -0.287292 0)
  (-0.0918294 -0.265318 0)
  (-0.324211 -0.174172 0)
  (-0.304346 -0.109059 0)
  (-0.303124 -0.0514283 0)
  (-0.300066 -0.0018413 0)
  (-0.291851 0.037181 0)
  (-0.278137 0.0678122 0)
  (-0.256705 0.100024 0)
  (-0.225795 0.133953 0)
  (-0.185419 0.167716 0)
  (-0.137601 0.195955 0)
  (-0.0869597 0.206891 0)
  (-0.0385051 0.17828 0)
  (0.012111 0.0966744 0)
  (0.0373698 0.0401703 0)
  (0.0407938 0.0181843 0)
  (0.0447791 0.00533975 0)
  (0.0474113 -0.00166954 0)
  (0.0486222 -0.00367435 0)
  (0.0491287 -0.00345038 0)
  (0.0493507 -0.00267672 0)
  (0.0494628 -0.00207278 0)
  (0.0494594 -0.00177981 0)
  (0.0492965 -0.00170798 0)
  (0.0489523 -0.00173184 0)
  (0.0484531 -0.00176775 0)
  (0.0478864 -0.00179455 0)
  (0.0474029 -0.00185801 0)
  (0.0472114 -0.00208454 0)
  (0.0475638 -0.00271104 0)
  (0.0487222 -0.00411447 0)
  (0.0509004 -0.00676313 0)
  (0.0542267 -0.0109117 0)
  (0.0588 -0.0161972 0)
  (0.0627619 -0.0232592 0)
  (0.067049 -0.0450606 0)
  (-0.00908674 -0.112041 0)
  (-0.377871 0.0371521 0)
  (0.021994 -0.241173 0)
  (-0.217645 -0.186418 0)
  (-0.266885 -0.166681 0)
  (-0.303654 -0.149774 0)
  (-0.321901 -0.127271 0)
  (-0.322381 -0.0929886 0)
  (-0.307026 -0.0452567 0)
  (-0.278971 -0.00385785 0)
  (-0.23735 0.0344081 0)
  (-0.182691 0.0707476 0)
  (-0.117908 0.101958 0)
  (-0.0497508 0.11662 0)
  (0.0332561 0.077794 0)
  (0.0900356 0.00513625 0)
  (0.117942 -0.0506552 0)
  (0.123754 -0.0855072 0)
  (0.119384 -0.102511 0)
  (0.111604 -0.104397 0)
  (0.104032 -0.100155 0)
  (0.0982626 -0.0946172 0)
  (0.0943659 -0.0898603 0)
  (0.0917704 -0.0864664 0)
  (0.0898381 -0.084337 0)
  (0.0880956 -0.083145 0)
  (0.0862759 -0.0825417 0)
  (0.084287 -0.0822401 0)
  (0.0821614 -0.0820439 0)
  (0.0800038 -0.0818502 0)
  (0.0779442 -0.0816385 0)
  (0.076093 -0.0814489 0)
  (0.0744991 -0.0813565 0)
  (0.0731406 -0.0814387 0)
  (0.0720267 -0.0817108 0)
  (0.0715176 -0.0819128 0)
  (0.0708503 -0.0808598 0)
  (0.0884069 -0.0853994 0)
  (0.016865 -0.151955 0)
  (0.438506 0.190255 0)
  (0.210682 -0.12877 0)
  (-0.0700773 0.292297 0)
  (0.0273078 0.168671 0)
  (-0.145615 0.207783 0)
  (-0.217564 0.253889 0)
  (-0.265291 0.274043 0)
  (-0.29376 0.279491 0)
  (-0.304181 0.27232 0)
  (-0.295373 0.254593 0)
  (-0.266197 0.247424 0)
  (-0.217851 0.247662 0)
  (-0.153255 0.254011 0)
  (-0.0792563 0.265059 0)
  (0.0197016 0.272956 0)
  (0.102616 0.264126 0)
  (0.157749 0.263201 0)
  (0.186398 0.272836 0)
  (0.194558 0.284141 0)
  (0.192173 0.288809 0)
  (0.185988 0.282324 0)
  (0.179436 0.271578 0)
  (0.172902 0.261287 0)
  (0.166255 0.253554 0)
  (0.15953 0.248807 0)
  (0.152852 0.246651 0)
  (0.146335 0.246371 0)
  (0.14005 0.24721 0)
  (0.134017 0.248515 0)
  (0.128195 0.249814 0)
  (0.122474 0.250828 0)
  (0.116661 0.251433 0)
  (0.110459 0.251602 0)
  (0.103433 0.251329 0)
  (0.0949653 0.250594 0)
  (0.0841334 0.249391 0)
  (0.0693607 0.247622 0)
  (0.047052 0.244382 0)
  (0.0914878 0.243387 0)
  (-0.265608 0.404613 0)
)
;

boundaryField
{
  floor
  {
    type noSlip;
  }
  ceiling
  {
    type noSlip;
  }
  sWall
  {
    type noSlip;
  }
  nWall
  {
    type noSlip;
  }
  sideWalls
  {
    type empty;
  }
  glass1
  {
    type noSlip;
  }
  glass2
  {
    type noSlip;
  }
  sun
  {
    type noSlip;
  }
  heatsource1
  {
    type noSlip;
  }
  heatsource2
  {
    type noSlip;
  }
  Table_master
  {
    type noSlip;
  }
  Table_slave
  {
    type noSlip;
  }
  inlet
  {
    type fixedValue;
    value uniform (0.1 0 0);
  }
  outlet
  {
    type zeroGradient;
  }
} 	// ************************************************************************* //

