/*--------------------------------*- C++ -*----------------------------------*\
  =========                 |
  \\      /  F ield         | OpenFOAM: The Open Source CFD Toolbox
   \\    /   O peration     | Website:  https://openfoam.org
    \\  /    A nd           | Version:  6
     \\/     M anipulation  |
\*---------------------------------------------------------------------------*/
FoamFile
{
    version     2.0;
    format      ascii;
    class       volScalarField;
    location    "1300";
    object      T;
}
// * * * * * * * * * * * * * * * * * * * * * * * * * * * * * * * * * * * * * //

dimensions      [0 0 0 1 0 0 0];

internalField   nonuniform List<scalar> 
459
(
312.195
312.062
311.966
311.892
311.829
311.768
311.705
311.641
311.57
311.489
311.38
310.821
309.726
308.619
307.566
304.756
304.793
304.815
304.838
304.874
304.904
304.912
304.898
304.887
304.88
304.876
304.876
304.872
304.86
304.868
304.894
304.885
304.893
305.027
312.277
312.042
311.864
311.738
311.652
311.577
311.513
311.459
311.41
311.358
311.218
310.354
308.83
307.38
306.638
306.42
306.342
304.989
305.017
305.043
305.067
305.085
305.107
305.115
305.113
305.113
305.118
305.13
305.153
305.207
305.294
305.429
305.619
305.637
305.601
305.711
312.323
311.961
311.645
311.424
311.285
311.2
311.165
311.167
311.187
311.202
311.01
310.019
308.435
307.096
306.521
306.32
306.207
305.334
305.386
305.452
305.496
305.511
305.502
305.409
305.484
305.567
305.657
305.756
305.867
305.99
306.144
306.335
306.503
306.51
306.511
306.363
312.361
311.877
311.359
310.982
310.744
310.659
310.704
310.82
310.954
311.044
310.771
309.661
308.048
306.917
306.548
306.376
306.202
306.041
305.954
306.202
306.397
306.542
306.639
306.689
306.725
306.736
306.745
306.755
306.767
306.78
306.794
306.811
306.828
306.84
306.863
306.883
306.906
312.397
311.817
311.031
310.449
310.115
310.095
310.275
310.526
310.77
310.896
310.544
309.376
307.874
307.019
306.791
306.723
306.671
306.624
306.598
306.67
306.749
306.807
306.845
306.863
306.873
306.879
306.886
306.894
306.904
306.916
306.931
306.948
306.966
306.983
307.001
307.015
307.026
307.036
307.051
307.071
312.434
311.805
310.684
309.921
309.798
309.878
310.083
310.369
310.641
310.756
310.37
309.219
307.862
307.179
307.006
306.981
306.974
306.968
306.969
306.982
307.002
307.018
307.026
307.028
307.027
307.025
307.024
307.025
307.028
307.033
307.042
307.052
307.064
307.075
307.083
307.089
307.092
307.1
307.114
307.134
312.473
311.856
310.389
309.881
309.87
309.941
310.082
310.303
310.537
310.635
310.28
309.222
307.985
307.37
307.214
307.21
307.231
307.247
307.258
307.264
307.266
307.262
307.252
307.238
307.222
307.207
307.194
307.183
307.176
307.171
307.17
307.17
307.172
307.174
307.173
307.169
307.164
307.163
307.168
307.178
312.536
312.05
310.757
310.074
310.055
310.083
310.142
310.275
310.445
310.534
310.274
309.377
308.307
307.671
307.488
307.468
307.501
307.535
307.56
307.571
307.568
307.551
307.526
307.496
307.464
307.433
307.405
307.38
307.359
307.341
307.326
307.314
307.304
307.294
307.282
307.268
307.251
307.235
307.224
307.214
312.709
312.742
312.805
310.868
310.641
310.426
310.242
310.243
310.348
310.433
310.252
309.575
308.786
308.278
308.023
307.894
307.859
307.88
307.904
307.913
307.902
307.875
307.837
307.792
307.745
307.699
307.655
307.614
307.578
307.544
307.514
307.486
307.46
307.436
307.41
307.382
307.352
307.318
307.284
307.249
316.678
313.4
312.336
311.303
310.583
310.244
310.232
310.309
310.211
309.762
309.256
308.901
308.677
308.535
308.427
308.373
308.341
308.311
308.274
308.228
308.173
308.114
308.053
307.992
307.933
307.877
307.823
307.772
307.724
307.679
307.635
307.592
307.549
307.504
307.457
307.404
307.348
307.284
316.462
315.667
314.511
312.997
311.585
310.571
310.127
310.149
310.135
309.891
309.614
309.399
309.242
309.122
309.024
308.928
308.839
308.755
308.675
308.598
308.521
308.444
308.368
308.293
308.22
308.147
308.077
308.008
307.941
307.875
307.811
307.748
307.685
307.622
307.555
307.483
307.402
307.31
319.263
318.76
317.649
317.361
316.885
316.13
314.748
312.329
310.285
309.927
309.973
309.899
309.789
309.689
309.603
309.527
309.456
309.385
309.308
309.226
309.14
309.05
308.958
308.864
308.77
308.675
308.58
308.486
308.391
308.297
308.205
308.113
308.022
307.933
307.844
307.753
307.66
307.557
307.433
307.27
)
;

boundaryField
{
    floor
    {
        type            wallHeatTransfer;
        Tinf            uniform 305.2;
        alphaWall       uniform 0.24;
        value           nonuniform List<scalar> 
29
(
307.253
304.904
304.923
304.943
304.962
304.986
305.008
305.017
305.007
304.996
304.986
304.979
304.975
304.971
304.964
304.967
304.982
304.976
304.98
305.076
305.076
305.604
306.171
306.657
307.253
304.904
305.041
305.311
305.929
)
;
    }
    ceiling
    {
        type            wallHeatTransfer;
        Tinf            uniform 303.2;
        alphaWall       uniform 0.24;
        value           nonuniform List<scalar> 
43
(
317.947
317.759
317.175
316.841
316.313
315.501
314.093
311.717
309.747
309.408
309.427
309.337
309.222
309.122
309.041
308.973
308.914
308.86
308.808
308.754
308.694
308.628
308.553
308.473
308.388
308.3
308.209
308.117
308.025
307.934
307.843
307.754
307.667
307.581
307.495
307.408
307.317
307.216
307.091
306.903
312.452
312.527
316.193
)
;
    }
    sWall
    {
        type            wallHeatTransfer;
        Tinf            uniform 315.2;
        alphaWall       uniform 0.36;
        value           uniform 318.782;
    }
    nWall
    {
        type            wallHeatTransfer;
        Tinf            uniform 307.2;
        alphaWall       uniform 0.36;
        value           nonuniform List<scalar> 6(307.096 307.145 307.181 307.274 307.298 307.261);
    }
    sideWalls
    {
        type            empty;
    }
    glass1
    {
        type            wallHeatTransfer;
        Tinf            uniform 315.2;
        alphaWall       uniform 4.3;
        value           nonuniform List<scalar> 9(313.804 313.738 313.687 313.647 313.61 313.575 313.538 313.508 313.535);
    }
    glass2
    {
        type            wallHeatTransfer;
        Tinf            uniform 307.2;
        alphaWall       uniform 4.3;
        value           nonuniform List<scalar> 2(307.205 307.218);
    }
    sun
    {
        type            wallHeatTransfer;
        Tinf            uniform 305.2;
        alphaWall       uniform 0.24;
        value           nonuniform List<scalar> 
14
(
311.773
311.624
311.511
311.42
311.342
311.267
311.19
311.111
311.024
310.922
310.784
310.2
309.148
308.165
)
;
    }
    heatsource1
    {
        type            fixedGradient;
        gradient        uniform 0;
    }
    heatsource2
    {
        type            fixedGradient;
        gradient        uniform 0;
    }
    Table_master
    {
        type            zeroGradient;
    }
    Table_slave
    {
        type            zeroGradient;
    }
    inlet
    {
        type            fixedValue;
        value           uniform 290.15;
    }
    outlet
    {
        type            zeroGradient;
    }
}


// ************************************************************************* //
