/*--------------------------------*- C++ -*----------------------------------*\
  =========                 |
  \\      /  F ield         | OpenFOAM: The Open Source CFD Toolbox
   \\    /   O peration     | Website:  https://openfoam.org
    \\  /    A nd           | Version:  6
     \\/     M anipulation  |
\*---------------------------------------------------------------------------*/
FoamFile
{
    version     2.0;
    format      ascii;
    class       volScalarField;
    location    "1800";
    object      nut;
}
// * * * * * * * * * * * * * * * * * * * * * * * * * * * * * * * * * * * * * //

dimensions      [0 2 -1 0 0 0 0];

internalField   nonuniform List<scalar> 
459
(
0.000725648
0.000758141
0.000744437
0.000768493
0.000789367
0.000807108
0.000822455
0.000836183
0.000849107
0.000861696
0.000870315
0.000873868
0.000872167
0.000866835
0.000858417
0.000516141
0.000493449
0.000477904
0.000471952
0.000467218
0.000457776
0.000439527
0.000419304
0.000400538
0.000382787
0.000365911
0.000349814
0.0003344
0.000319535
0.000304973
0.000290261
0.000274464
0.00026345
0.000241428
0.00110735
0.00184607
0.00157678
0.00185161
0.00199403
0.00214077
0.00228428
0.00241271
0.00250868
0.00255825
0.00256553
0.00250239
0.00232868
0.00198924
0.00143756
0.000876113
0.000800253
0.000625393
0.00121396
0.00163917
0.00185947
0.00190447
0.00178643
0.00138581
0.00121954
0.00108659
0.000975155
0.000878219
0.000792701
0.000715908
0.000644406
0.000575787
0.000518807
0.000469139
0.000553934
0.000321965
0.00145801
0.00278207
0.00173774
0.00262312
0.00285163
0.00300295
0.0031171
0.003202
0.00326274
0.00329549
0.00330462
0.00326168
0.0031301
0.00286182
0.00240106
0.00174441
0.000956379
0.000735074
0.00209665
0.0025107
0.00248868
0.00236854
0.00199047
0.000538226
0.000474835
0.000426618
0.000389989
0.000361622
0.000339044
0.000320711
0.000305885
0.000294727
0.000332912
0.000379403
0.000627466
0.000381066
0.0018201
0.00419019
0.00172683
0.00291421
0.00330476
0.0034337
0.003499
0.00353519
0.00356136
0.00358256
0.00360255
0.00360336
0.00355844
0.00343308
0.00316467
0.00263881
0.00176168
0.000945444
0.00251549
0.00260064
0.00254074
0.00239377
0.00223733
0.00191008
0.000522968
0.000511586
0.000514413
0.000519735
0.0005215
0.000515474
0.000500527
0.000483895
0.000462339
0.000434594
0.000418298
0.00075338
0.000432772
0.00219171
0.00605432
0.0022003
0.00273316
0.00347413
0.00363532
0.00367504
0.00367474
0.00366967
0.00368059
0.00371284
0.00375647
0.00378217
0.00376929
0.003702
0.00357153
0.00337231
0.00304645
0.00277949
0.00249889
0.00228719
0.00213002
0.00204813
0.00201797
0.00191378
0.00198092
0.00205745
0.00210919
0.00212165
0.00208363
0.00196892
0.00173206
0.00142504
0.0010943
0.000806116
0.000767078
0.000574879
0.000584945
0.000703994
0.000784731
0.00257422
0.00806459
0.00387939
0.00250867
0.00316287
0.00354723
0.00370024
0.00374241
0.00371909
0.00367866
0.00371973
0.00379279
0.00384884
0.00386538
0.00382423
0.003706
0.00347817
0.00311696
0.00270942
0.00237099
0.00212531
0.00196995
0.00193403
0.00199524
0.00210912
0.00224629
0.00236649
0.00245172
0.00249477
0.00249207
0.00244205
0.0022831
0.00201397
0.00164723
0.00126763
0.0009123
0.000746842
0.000677214
0.00100564
0.000814621
0.00294989
0.00971219
0.00694033
0.00393201
0.00293487
0.0028619
0.00317584
0.00351085
0.00374786
0.00366332
0.00372331
0.00379656
0.00384778
0.00386001
0.00381465
0.00368878
0.00344413
0.00307757
0.0026901
0.00235866
0.00208689
0.00192043
0.00189717
0.00196959
0.00208811
0.00222129
0.0023442
0.00244358
0.00250867
0.00254343
0.00255446
0.00252714
0.00232994
0.00199964
0.00164275
0.00128237
0.00105609
0.0010117
0.0010813
0.000904444
0.00304138
0.00953405
0.0080963
0.00680174
0.00525622
0.00413197
0.00364074
0.00359068
0.00374054
0.00377027
0.00378148
0.00379957
0.0038101
0.00378949
0.00371409
0.00356348
0.00332137
0.00299992
0.00267419
0.00238749
0.00209546
0.00191378
0.00188696
0.00194613
0.00203867
0.0021389
0.00223215
0.00231281
0.00238104
0.00244681
0.00252494
0.00262311
0.0026488
0.00238099
0.00214615
0.00204002
0.00218357
0.00265826
0.00341829
0.00145206
0.00297652
0.00358554
0.00420034
0.00447322
0.00450671
0.0042866
0.00402352
0.00384141
0.00375417
0.00371674
0.00372028
0.00373144
0.00371999
0.00366231
0.00354299
0.0033556
0.00310453
0.00281767
0.00256567
0.00236653
0.00208495
0.00189444
0.0018537
0.00188653
0.00194431
0.00200447
0.00205562
0.00209223
0.00211233
0.00211622
0.0021049
0.00208013
0.00204786
0.00202147
0.00203338
0.00207871
0.00209975
0.00203711
0.00191229
0.00136562
0.00262062
0.00504453
0.00482338
0.00463278
0.00444017
0.00427712
0.00415419
0.00404569
0.0039343
0.00381108
0.00366465
0.00348576
0.00327029
0.00302117
0.00275199
0.00249912
0.00234465
0.00226214
0.00203808
0.00185547
0.00178781
0.00178238
0.00180392
0.00183426
0.00186412
0.00188932
0.00190949
0.00192726
0.00194754
0.00197614
0.00201513
0.00205565
0.00209818
0.00212268
0.0020916
0.00199073
0.00182204
0.00114181
0.00247004
0.00553435
0.00522028
0.00492757
0.00468644
0.00447156
0.00425912
0.00405135
0.00380043
0.00351484
0.00322085
0.00293095
0.00265194
0.00239074
0.00216229
0.00200454
0.00204457
0.00217119
0.00211806
0.00197848
0.00186551
0.00179266
0.00175504
0.00174461
0.00175517
0.00178277
0.00182472
0.00187816
0.00193779
0.00199235
0.00206554
0.00214941
0.00222927
0.00229066
0.00228503
0.00233808
0.00236204
0.0011621
0.00195192
0.00214188
0.00228494
0.0024374
0.00228723
0.00215479
0.00197244
0.00181531
0.00166434
0.00151797
0.00139034
0.00127855
0.00117329
0.0010692
0.000962663
0.000851001
0.000733571
0.000616442
0.000550663
0.000547536
0.000536649
0.000531424
0.000536585
0.000550436
0.000570889
0.000596315
0.000625715
0.000658643
0.000695181
0.000736038
0.000782911
0.000839246
0.000899579
0.000964499
0.00103397
0.00111747
0.00114184
0.00111366
0.00104802
0.000975891
)
;

boundaryField
{
    floor
    {
        type            nutkWallFunction;
        Cmu             0.09;
        kappa           0.41;
        E               9.8;
        value           nonuniform List<scalar> 
29
(
0.000103921
6.17708e-05
5.88706e-05
5.6874e-05
5.61061e-05
5.5495e-05
5.42758e-05
5.19113e-05
4.92768e-05
4.68176e-05
4.44778e-05
4.22403e-05
4.00938e-05
3.80263e-05
3.60206e-05
3.4044e-05
3.20347e-05
2.9862e-05
2.83378e-05
2.52637e-05
2.52636e-05
3.63534e-05
4.42551e-05
5.10384e-05
0.000103921
6.17707e-05
7.55112e-05
8.90148e-05
0.00011428
)
;
    }
    ceiling
    {
        type            nutkWallFunction;
        Cmu             0.09;
        kappa           0.41;
        E               9.8;
        value           nonuniform List<scalar> 
43
(
0.000228157
0.000248727
0.00026412
0.000280536
0.000264491
0.000250236
0.000230439
0.000213217
0.000196515
0.000180164
0.000165763
0.00015303
0.000140925
0.000128835
0.000116319
0.000103027
8.88249e-05
7.43841e-05
6.61408e-05
6.57452e-05
6.43663e-05
6.37054e-05
6.43617e-05
6.61155e-05
6.86943e-05
7.18838e-05
7.55509e-05
7.96334e-05
8.41346e-05
8.91347e-05
9.48307e-05
0.000101623
0.000108839
0.000116542
0.000124717
0.000134464
0.000137292
0.00013402
0.000126364
0.000117887
0.000337702
0.000400763
0.000283791
)
;
    }
    sWall
    {
        type            nutkWallFunction;
        Cmu             0.09;
        kappa           0.41;
        E               9.8;
        value           uniform 0.000228215;
    }
    nWall
    {
        type            nutkWallFunction;
        Cmu             0.09;
        kappa           0.41;
        E               9.8;
        value           nonuniform List<scalar> 6(9.50505e-05 9.86615e-05 0.000109423 0.000137297 0.000139645 0.000117892);
    }
    sideWalls
    {
        type            empty;
    }
    glass1
    {
        type            nutkWallFunction;
        Cmu             0.09;
        kappa           0.41;
        E               9.8;
        value           nonuniform List<scalar> 9(8.78393e-05 0.0001334 0.000173639 0.000214061 0.000254639 0.000295643 0.000335293 0.000344876 0.000338106);
    }
    glass2
    {
        type            nutkWallFunction;
        Cmu             0.09;
        kappa           0.41;
        E               9.8;
        value           nonuniform List<scalar> 2(0.000172819 0.000163024);
    }
    sun
    {
        type            nutkWallFunction;
        Cmu             0.09;
        kappa           0.41;
        E               9.8;
        value           nonuniform List<scalar> 
14
(
8.78652e-05
9.18256e-05
9.01581e-05
9.30828e-05
9.56117e-05
9.77549e-05
9.96044e-05
0.000101255
0.000102807
0.000104315
0.000105346
0.000105771
0.000105567
0.000104929
)
;
    }
    heatsource1
    {
        type            nutkWallFunction;
        Cmu             0.09;
        kappa           0.41;
        E               9.8;
        value           nonuniform List<scalar> 3(7.04623e-05 8.52163e-05 9.50504e-05);
    }
    heatsource2
    {
        type            nutkWallFunction;
        Cmu             0.09;
        kappa           0.41;
        E               9.8;
        value           nonuniform List<scalar> 4(0.000106036 9.69249e-05 9.69249e-05 0.000115576);
    }
    Table_master
    {
        type            nutkWallFunction;
        Cmu             0.09;
        kappa           0.41;
        E               9.8;
        value           nonuniform List<scalar> 9(6.45718e-05 5.6483e-05 5.02408e-05 4.54395e-05 4.16817e-05 3.86637e-05 3.61941e-05 3.41835e-05 3.26618e-05);
    }
    Table_slave
    {
        type            nutkWallFunction;
        Cmu             0.09;
        kappa           0.41;
        E               9.8;
        value           nonuniform List<scalar> 9(6.264e-05 6.11911e-05 6.15511e-05 6.22285e-05 6.24529e-05 6.16863e-05 5.978e-05 5.76502e-05 5.48764e-05);
    }
    inlet
    {
        type            calculated;
        value           uniform 0.000100623;
    }
    outlet
    {
        type            calculated;
        value           nonuniform List<scalar> 2(0.00195192 0.00214188);
    }
}


// ************************************************************************* //
