/*--------------------------------*- C++ -*----------------------------------*\
  =========                 |
  \\      /  F ield         | OpenFOAM: The Open Source CFD Toolbox
   \\    /   O peration     | Website:  https://openfoam.org
    \\  /    A nd           | Version:  6
     \\/     M anipulation  |
\*---------------------------------------------------------------------------*/
FoamFile
{
    version     2.0;
    format      ascii;
    class       volScalarField;
    location    "1700";
    object      epsilon;
}
// * * * * * * * * * * * * * * * * * * * * * * * * * * * * * * * * * * * * * //

dimensions      [0 2 -3 0 0 0 0];

internalField   nonuniform List<scalar> 
459
(
0.000519145
0.000687231
0.00073945
0.000856901
0.000978225
0.00110574
0.00124818
0.00137264
0.00144978
0.001457
0.00138296
0.00122845
0.00100282
0.000714759
0.000403109
4.66385e-05
8.00817e-05
0.000122491
0.000137101
0.000130206
0.000116642
9.6075e-05
7.73317e-05
6.25754e-05
5.12535e-05
4.2524e-05
3.57161e-05
3.03139e-05
2.59991e-05
2.2435e-05
1.9345e-05
1.6466e-05
1.41434e-05
1.04108e-05
0.00125048
0.0017235
0.000646789
0.000636077
0.00067568
0.000742638
0.000841911
0.000950452
0.00103338
0.00106129
0.00102303
0.000923869
0.000782889
0.000618412
0.000481106
0.000620947
0.00020422
4.93157e-05
0.000117472
0.000140871
0.000138227
0.000125241
0.000110581
0.000105399
8.50124e-05
6.64291e-05
5.18489e-05
4.07848e-05
3.24374e-05
2.60887e-05
2.12782e-05
1.76915e-05
1.54284e-05
1.43205e-05
2.54052e-05
1.9183e-05
0.00220959
0.0040071
0.000776414
0.000610633
0.000657925
0.000764372
0.000915763
0.00107138
0.00118029
0.00121401
0.00117287
0.00106608
0.000920741
0.000753663
0.000620329
0.000561882
0.000737004
0.000291695
0.000252034
0.000216898
0.000184637
0.000155889
0.000139511
0.000273939
0.000182509
0.000125901
9.0046e-05
6.66132e-05
5.08055e-05
3.98343e-05
3.21357e-05
2.6817e-05
2.00737e-05
1.64617e-05
4.14381e-05
2.74455e-05
0.0034869
0.00812195
0.00118635
0.000630568
0.000670348
0.000832181
0.00107577
0.00128358
0.0013992
0.00141699
0.00135586
0.00122164
0.00104868
0.000870323
0.000720635
0.00063089
0.00062209
0.00115103
0.000677239
0.000434755
0.000309004
0.000234994
0.000187142
0.000166591
0.000400687
0.000295357
0.000230765
0.000187017
0.00015458
0.00012911
0.000107386
8.76343e-05
6.84376e-05
3.88123e-05
2.42029e-05
6.24984e-05
3.57761e-05
0.00521518
0.0143447
0.00229087
0.000778404
0.000753828
0.00103023
0.00142862
0.00165078
0.00172616
0.00169831
0.00159257
0.00141828
0.00119748
0.000963374
0.00075386
0.000595538
0.000500651
0.000469661
0.000402405
0.000336964
0.000280918
0.000233047
0.000192586
0.000162399
0.000156095
0.000141969
0.000127675
0.000113839
0.000100464
8.75734e-05
7.51987e-05
6.36052e-05
5.29341e-05
4.00043e-05
2.89772e-05
4.87832e-05
3.81628e-05
6.4215e-05
0.00011558
0.000164422
0.00759895
0.0212989
0.00512233
0.00154412
0.0012808
0.00184693
0.00218176
0.0022601
0.00221426
0.00210363
0.00192981
0.00168689
0.00138953
0.0010765
0.000796995
0.000586895
0.000457154
0.000392887
0.000352631
0.000313673
0.000271396
0.000229061
0.00019045
0.000159323
0.000139639
0.000127103
0.000117477
0.000108091
9.79451e-05
8.65718e-05
7.43901e-05
6.24828e-05
5.17244e-05
4.20235e-05
3.52469e-05
4.07318e-05
4.08457e-05
5.03086e-05
0.000212754
0.000187108
0.0102804
0.0254889
0.0104978
0.00490809
0.0039637
0.00382879
0.00352976
0.00320952
0.00292814
0.00267005
0.00238397
0.00203379
0.0016276
0.00121172
0.000851189
0.000593135
0.000443471
0.000371814
0.000331348
0.000293449
0.000252164
0.000211636
0.000176357
0.000149558
0.000132967
0.000124242
0.000119077
0.000114829
0.000110343
0.000104533
9.52478e-05
8.47127e-05
7.44133e-05
6.53067e-05
6.13854e-05
6.62931e-05
8.16973e-05
0.000127068
0.000288321
0.000283182
0.0108396
0.0269705
0.0155087
0.0109353
0.00839929
0.00648164
0.0051824
0.00435254
0.00381381
0.00339603
0.00296142
0.00244868
0.00187955
0.00131859
0.000858121
0.000560108
0.000404851
0.000333669
0.000292183
0.00025357
0.000215529
0.00018187
0.000155453
0.000137588
0.000128066
0.000124921
0.000125823
0.000129757
0.000136731
0.000146843
0.000159144
0.00016789
0.000178661
0.000198569
0.000237643
0.000350429
0.000631268
0.00118059
0.00350144
0.00105218
0.0100009
0.0164955
0.0130892
0.0100462
0.00786741
0.00649439
0.00567138
0.00516718
0.00476948
0.004294
0.00362735
0.00280865
0.00196951
0.00120129
0.000664381
0.000430007
0.000324896
0.000271916
0.000236005
0.000204933
0.000177137
0.000154148
0.000137316
0.000126939
0.000122503
0.00012307
0.000128053
0.000137821
0.00015357
0.000177093
0.000210772
0.000258721
0.000325996
0.000427653
0.000576118
0.000778725
0.00101538
0.00122986
0.00139772
0.00088435
0.00318397
0.00498441
0.0065526
0.00697176
0.00694675
0.00655057
0.00575646
0.00458032
0.00309249
0.00184838
0.00109096
0.000652753
0.00041719
0.000303975
0.000247178
0.000213611
0.000188657
0.000167787
0.000150389
0.000136654
0.00012641
0.000119337
0.000115116
0.000113732
0.000115619
0.000121805
0.000133822
0.00015354
0.000183794
0.000228333
0.000292218
0.000381898
0.000500928
0.000640548
0.000768268
0.000837901
0.000811681
0.000527591
0.00256982
0.00704137
0.00759168
0.0063233
0.00534184
0.00431197
0.00323484
0.00227593
0.00149114
0.000927996
0.000590645
0.00040585
0.000310429
0.000263143
0.000239046
0.000225552
0.000216625
0.000209614
0.000203382
0.000197397
0.000191333
0.000185124
0.000178972
0.000173374
0.00016926
0.000167945
0.000171072
0.000180773
0.000199607
0.000230875
0.000278873
0.000347852
0.000438282
0.000542932
0.000621809
0.000710445
0.000764099
0.000566004
0.00258741
0.0025246
0.00269503
0.00347452
0.00314335
0.00282575
0.00256113
0.00218985
0.001753
0.00132954
0.000969959
0.000700165
0.000523276
0.000414719
0.000346608
0.000300194
0.000265222
0.000236616
0.000212346
0.000191917
0.00017518
0.000161851
0.000151559
0.000144041
0.000139269
0.000137487
0.000139117
0.000144722
0.000154967
0.000170527
0.000192316
0.000221648
0.000260397
0.00031092
0.000374901
0.000460998
0.000490465
0.000451101
0.000377784
0.000310319
)
;

boundaryField
{
    floor
    {
        Cmu             0.09;
        kappa           0.41;
        E               9.8;
        type            epsilonWallFunction;
        value           nonuniform List<scalar> 
29
(
0.000403109
4.66385e-05
8.00817e-05
0.000122491
0.000137101
0.000130206
0.000116642
9.6075e-05
7.73317e-05
6.25754e-05
5.12535e-05
4.2524e-05
3.57161e-05
3.03139e-05
2.59991e-05
2.2435e-05
1.9345e-05
1.6466e-05
1.41434e-05
1.04108e-05
1.04108e-05
1.9183e-05
2.74455e-05
3.57761e-05
0.000403109
4.66385e-05
4.93157e-05
0.000291695
0.00115103
)
;
    }
    ceiling
    {
        Cmu             0.09;
        kappa           0.41;
        E               9.8;
        type            epsilonWallFunction;
        value           nonuniform List<scalar> 
43
(
0.00258741
0.0025246
0.00269503
0.00347452
0.00314335
0.00282575
0.00256113
0.00218985
0.001753
0.00132954
0.000969959
0.000700165
0.000523276
0.000414719
0.000346608
0.000300194
0.000265222
0.000236616
0.000212346
0.000191917
0.00017518
0.000161851
0.000151559
0.000144041
0.000139269
0.000137487
0.000139117
0.000144722
0.000154967
0.000170527
0.000192316
0.000221648
0.000260397
0.00031092
0.000374901
0.000460998
0.000490465
0.000451101
0.000377784
0.000310319
0.0100009
0.0164955
0.00256982
)
;
    }
    sWall
    {
        Cmu             0.09;
        kappa           0.41;
        E               9.8;
        type            epsilonWallFunction;
        value           uniform 0.00258741;
    }
    nWall
    {
        Cmu             0.09;
        kappa           0.41;
        E               9.8;
        type            epsilonWallFunction;
        value           nonuniform List<scalar> 6(0.000164422 0.000187108 0.000283182 0.000527591 0.000566004 0.000310319);
    }
    sideWalls
    {
        type            empty;
    }
    glass1
    {
        Cmu             0.09;
        kappa           0.41;
        E               9.8;
        type            epsilonWallFunction;
        value           nonuniform List<scalar> 9(0.000519145 0.00125048 0.00220959 0.0034869 0.00521518 0.00759895 0.0102804 0.0108396 0.0100009);
    }
    glass2
    {
        Cmu             0.09;
        kappa           0.41;
        E               9.8;
        type            epsilonWallFunction;
        value           nonuniform List<scalar> 2(0.00105218 0.00088435);
    }
    sun
    {
        Cmu             0.09;
        kappa           0.41;
        E               9.8;
        type            epsilonWallFunction;
        value           nonuniform List<scalar> 
14
(
0.000519145
0.000687231
0.00073945
0.000856901
0.000978225
0.00110574
0.00124818
0.00137264
0.00144978
0.001457
0.00138296
0.00122845
0.00100282
0.000714759
)
;
    }
    heatsource1
    {
        Cmu             0.09;
        kappa           0.41;
        E               9.8;
        type            epsilonWallFunction;
        value           nonuniform List<scalar> 3(6.4215e-05 0.00011558 0.000164422);
    }
    heatsource2
    {
        Cmu             0.09;
        kappa           0.41;
        E               9.8;
        type            epsilonWallFunction;
        value           nonuniform List<scalar> 4(0.000620947 0.00020422 0.00020422 0.000737004);
    }
    Table_master
    {
        Cmu             0.09;
        kappa           0.41;
        E               9.8;
        type            epsilonWallFunction;
        value           nonuniform List<scalar> 9(0.000273939 0.000182509 0.000125901 9.0046e-05 6.66132e-05 5.08055e-05 3.98343e-05 3.21357e-05 2.6817e-05);
    }
    Table_slave
    {
        Cmu             0.09;
        kappa           0.41;
        E               9.8;
        type            epsilonWallFunction;
        value           nonuniform List<scalar> 9(0.000400687 0.000295357 0.000230765 0.000187017 0.00015458 0.00012911 0.000107386 8.76343e-05 6.84376e-05);
    }
    inlet
    {
        type            turbulentMixingLengthDissipationRateInlet;
        mixingLength    0.01;
        phi             phi;
        k               k;
        value           uniform 0.000101881;
    }
    outlet
    {
        type            zeroGradient;
    }
}


// ************************************************************************* //
