/*--------------------------------*- C++ -*----------------------------------*\
  =========                 |
  \\      /  F ield         | OpenFOAM: The Open Source CFD Toolbox
   \\    /   O peration     | Website:  https://openfoam.org
    \\  /    A nd           | Version:  6
     \\/     M anipulation  |
\*---------------------------------------------------------------------------*/
FoamFile
{
    version     2.0;
    format      ascii;
    class       volScalarField;
    location    "400";
    object      epsilon;
}
// * * * * * * * * * * * * * * * * * * * * * * * * * * * * * * * * * * * * * //

dimensions      [0 2 -3 0 0 0 0];

internalField   nonuniform List<scalar> 
459
(
0.000444225
0.00057869
0.000610829
0.000702942
0.000796082
0.000890332
0.000989578
0.0010937
0.00117144
0.00120527
0.00118047
0.00109235
0.000950391
0.00078073
0.000619922
3.72408e-05
6.80009e-05
9.6385e-05
9.42436e-05
8.46831e-05
7.32557e-05
6.05331e-05
4.94897e-05
4.07049e-05
3.38281e-05
2.84208e-05
2.41247e-05
2.06882e-05
1.78926e-05
1.55478e-05
1.34862e-05
1.15436e-05
1.03193e-05
7.8296e-06
0.00112723
0.00162278
0.000548714
0.000532324
0.000558194
0.00059962
0.000659779
0.000739557
0.000815702
0.000864839
0.000867609
0.000817114
0.000719842
0.000599008
0.000516255
0.000654107
0.000135941
4.73286e-05
0.000115571
0.000120451
0.00010848
9.17442e-05
7.64226e-05
6.829e-05
5.5337e-05
4.39468e-05
3.49119e-05
2.793e-05
2.25571e-05
1.84283e-05
1.52617e-05
1.29368e-05
1.15254e-05
1.09e-05
2.54824e-05
1.7752e-05
0.00205751
0.00397791
0.000686752
0.000511581
0.000536228
0.000601961
0.000698293
0.000819193
0.000931457
0.00100204
0.00101261
0.000962545
0.000862194
0.000733306
0.000621232
0.000559362
0.000639559
0.000376317
0.000263395
0.000196479
0.000150642
0.000118049
9.87446e-05
0.000177555
0.000122425
8.74891e-05
6.47152e-05
4.93889e-05
3.87546e-05
3.11846e-05
2.57095e-05
2.17685e-05
1.655e-05
1.37957e-05
4.59532e-05
2.76528e-05
0.00333286
0.00824672
0.00110216
0.000526273
0.000530989
0.000625477
0.000775597
0.000961102
0.00110904
0.00118546
0.00118555
0.00111959
0.00100024
0.000846973
0.000706981
0.000605017
0.000576204
0.00109941
0.000607498
0.000362644
0.000241987
0.000173876
0.000132106
0.00011272
0.000255104
0.000192892
0.000155306
0.000130262
0.000111241
9.54141e-05
8.17122e-05
6.88136e-05
5.563e-05
3.27984e-05
2.13427e-05
7.26733e-05
3.73919e-05
0.00508715
0.014663
0.00220155
0.000649292
0.000562864
0.000689019
0.00095842
0.00123533
0.00139375
0.00144477
0.00141084
0.00130993
0.00115429
0.000964226
0.000770707
0.000600112
0.000472022
0.000410879
0.000329369
0.000256993
0.000199824
0.000156692
0.000125119
0.000104605
0.00010097
9.38031e-05
8.66421e-05
7.96349e-05
7.23403e-05
6.46443e-05
5.70703e-05
4.99445e-05
4.3415e-05
3.4465e-05
2.61909e-05
5.32689e-05
4.16854e-05
7.02336e-05
0.000124137
0.000175481
0.00752256
0.0217205
0.00495478
0.00130357
0.000892962
0.00103569
0.00153107
0.00178436
0.00185436
0.00182318
0.00172812
0.00157472
0.00136464
0.00111482
0.000857915
0.000629346
0.000456579
0.000347526
0.000276965
0.000222789
0.000178031
0.000142795
0.00011691
0.000100076
9.20746e-05
8.84928e-05
8.61682e-05
8.33797e-05
7.90736e-05
7.23829e-05
6.3264e-05
5.38291e-05
4.52277e-05
3.75064e-05
3.23504e-05
4.14642e-05
4.31742e-05
5.37148e-05
0.000228811
0.000199612
0.0103237
0.0259297
0.0101372
0.00424002
0.00293675
0.00287212
0.00290136
0.00276882
0.00257691
0.0023784
0.00217089
0.00192792
0.00163225
0.00129786
0.000963101
0.000671782
0.0004588
0.000326522
0.000247853
0.000195119
0.000155427
0.000126407
0.000107156
9.66186e-05
9.3346e-05
9.43784e-05
9.68967e-05
9.94543e-05
0.00010099
9.99094e-05
9.3056e-05
8.22057e-05
7.14757e-05
6.234e-05
5.86542e-05
6.51573e-05
8.26332e-05
0.000132085
0.000305539
0.000296835
0.0109362
0.0280931
0.0157114
0.0107861
0.00816557
0.00635417
0.0050152
0.00410755
0.00350969
0.00309259
0.00274114
0.00237002
0.00194183
0.00148173
0.00104217
0.000673738
0.000424473
0.000281516
0.000202207
0.000157808
0.000128293
0.000109332
9.89495e-05
9.55395e-05
9.75354e-05
0.000103245
0.00011148
0.00012198
0.000134885
0.000150108
0.000166607
0.000176956
0.00018593
0.000205457
0.000246416
0.000369292
0.000680812
0.00128824
0.00378684
0.00112429
0.0100876
0.0168203
0.0133936
0.0101697
0.00784979
0.00630524
0.00531329
0.00468835
0.00425978
0.00387424
0.00342474
0.00285942
0.00219263
0.00153477
0.00096747
0.000522423
0.000306821
0.00020604
0.000153621
0.000123413
0.000105082
9.50012e-05
9.12198e-05
9.23845e-05
9.75307e-05
0.000106084
0.000118052
0.00013416
0.000155763
0.000184805
0.00022386
0.000276673
0.000349263
0.000458321
0.000618883
0.000837158
0.00108802
0.00130862
0.00147915
0.000930529
0.00369372
0.00568885
0.00659856
0.00670594
0.00652106
0.00613435
0.00551082
0.00467052
0.00369325
0.00262125
0.00152852
0.000864165
0.000482605
0.000276316
0.000179382
0.000132201
0.000107282
9.32155e-05
8.52544e-05
8.15178e-05
8.08473e-05
8.26009e-05
8.65513e-05
9.28698e-05
0.000102045
0.000114985
0.000133094
0.000158438
0.000194074
0.000244487
0.000314751
0.000411721
0.000538934
0.00068537
0.000813758
0.000873716
0.00083039
0.000531427
0.00281222
0.00642075
0.00713737
0.00591922
0.0052783
0.00457056
0.00364433
0.00268782
0.00185553
0.00120838
0.000717406
0.000418346
0.000255889
0.000174688
0.000136985
0.000119437
0.000111017
0.000106778
0.000104532
0.000103377
0.000103037
0.000103557
0.000105338
0.000109046
0.000115214
0.000124634
0.000138528
0.00015875
0.000188078
0.000230014
0.000289163
0.000370131
0.000473392
0.00059119
0.00067852
0.000771377
0.000764521
0.000562029
0.00200565
0.00238509
0.00268181
0.00334089
0.0030122
0.00263669
0.00241137
0.00212379
0.00175606
0.00136227
0.000994803
0.000689133
0.00045877
0.000306739
0.000216908
0.000165012
0.000133796
0.000114052
0.000101259
9.31132e-05
8.83168e-05
8.6125e-05
8.61138e-05
8.82973e-05
9.29065e-05
9.97199e-05
0.000109099
0.000121617
0.00013817
0.000160245
0.000188443
0.000224132
0.000269463
0.000327144
0.000399566
0.000499506
0.00053318
0.000492606
0.000408111
0.000328979
)
;

boundaryField
{
    floor
    {
        Cmu             0.09;
        kappa           0.41;
        E               9.8;
        type            epsilonWallFunction;
        value           nonuniform List<scalar> 
29
(
0.000619922
3.72408e-05
6.80009e-05
9.6385e-05
9.42436e-05
8.46831e-05
7.32557e-05
6.05331e-05
4.94897e-05
4.07049e-05
3.38281e-05
2.84208e-05
2.41247e-05
2.06882e-05
1.78926e-05
1.55478e-05
1.34862e-05
1.15436e-05
1.03193e-05
7.8296e-06
7.8296e-06
1.7752e-05
2.76528e-05
3.73919e-05
0.000619922
3.72408e-05
4.73286e-05
0.000376317
0.00109941
)
;
    }
    ceiling
    {
        Cmu             0.09;
        kappa           0.41;
        E               9.8;
        type            epsilonWallFunction;
        value           nonuniform List<scalar> 
43
(
0.00200565
0.00238509
0.00268181
0.00334089
0.0030122
0.00263669
0.00241137
0.00212379
0.00175606
0.00136227
0.000994803
0.000689133
0.00045877
0.000306739
0.000216908
0.000165012
0.000133796
0.000114052
0.000101259
9.31132e-05
8.83168e-05
8.6125e-05
8.61138e-05
8.82973e-05
9.29065e-05
9.97199e-05
0.000109099
0.000121617
0.00013817
0.000160245
0.000188443
0.000224132
0.000269463
0.000327144
0.000399566
0.000499506
0.00053318
0.000492606
0.000408111
0.000328979
0.0100876
0.0168203
0.00281222
)
;
    }
    sWall
    {
        Cmu             0.09;
        kappa           0.41;
        E               9.8;
        type            epsilonWallFunction;
        value           uniform 0.00200565;
    }
    nWall
    {
        Cmu             0.09;
        kappa           0.41;
        E               9.8;
        type            epsilonWallFunction;
        value           nonuniform List<scalar> 6(0.000175481 0.000199612 0.000296835 0.000531427 0.000562029 0.000328979);
    }
    sideWalls
    {
        type            empty;
    }
    glass1
    {
        Cmu             0.09;
        kappa           0.41;
        E               9.8;
        type            epsilonWallFunction;
        value           nonuniform List<scalar> 9(0.000444225 0.00112723 0.00205751 0.00333286 0.00508715 0.00752256 0.0103237 0.0109362 0.0100876);
    }
    glass2
    {
        Cmu             0.09;
        kappa           0.41;
        E               9.8;
        type            epsilonWallFunction;
        value           nonuniform List<scalar> 2(0.00112429 0.000930529);
    }
    sun
    {
        Cmu             0.09;
        kappa           0.41;
        E               9.8;
        type            epsilonWallFunction;
        value           nonuniform List<scalar> 
14
(
0.000444225
0.00057869
0.000610829
0.000702942
0.000796082
0.000890332
0.000989578
0.0010937
0.00117144
0.00120527
0.00118047
0.00109235
0.000950391
0.00078073
)
;
    }
    heatsource1
    {
        Cmu             0.09;
        kappa           0.41;
        E               9.8;
        type            epsilonWallFunction;
        value           nonuniform List<scalar> 3(7.02336e-05 0.000124137 0.000175481);
    }
    heatsource2
    {
        Cmu             0.09;
        kappa           0.41;
        E               9.8;
        type            epsilonWallFunction;
        value           nonuniform List<scalar> 4(0.000654107 0.000135941 0.000135941 0.000639559);
    }
    Table_master
    {
        Cmu             0.09;
        kappa           0.41;
        E               9.8;
        type            epsilonWallFunction;
        value           nonuniform List<scalar> 9(0.000177555 0.000122425 8.74891e-05 6.47152e-05 4.93889e-05 3.87546e-05 3.11846e-05 2.57095e-05 2.17685e-05);
    }
    Table_slave
    {
        Cmu             0.09;
        kappa           0.41;
        E               9.8;
        type            epsilonWallFunction;
        value           nonuniform List<scalar> 9(0.000255104 0.000192892 0.000155306 0.000130262 0.000111241 9.54141e-05 8.17122e-05 6.88136e-05 5.563e-05);
    }
    inlet
    {
        type            turbulentMixingLengthDissipationRateInlet;
        mixingLength    0.01;
        phi             phi;
        k               k;
        value           uniform 0.000101881;
    }
    outlet
    {
        type            zeroGradient;
    }
}


// ************************************************************************* //
