// -*- C++ -*-
// File generated by PyFoam - sorry for the ugliness

FoamFile
{
 version 2.0;
 format ascii;
 class volVectorField;
 location "400";
 object U;
}

dimensions [ 0 1 -1 0 0 0 0 ];

internalField nonuniform List<vector> 459
(
  (0.0858577 0.0635578 0)
  (-0.128434 0.00346948 0)
  (-0.113959 0.00569381 0)
  (-0.126972 0.00629713 0)
  (-0.139472 0.00526316 0)
  (-0.150391 0.00354223 0)
  (-0.158838 0.00133847 0)
  (-0.1641 -0.00133317 0)
  (-0.165444 -0.00452178 0)
  (-0.162038 -0.00837157 0)
  (-0.152806 -0.0131263 0)
  (-0.135967 -0.0190727 0)
  (-0.110284 -0.0272267 0)
  (-0.08075 -0.0395022 0)
  (-0.0684896 -0.0554515 0)
  (0.028107 0.00898838 0)
  (-0.0258 -0.00398191 0)
  (-0.0169942 -0.00469223 0)
  (-0.0133182 -0.00284796 0)
  (-0.00917709 -0.00250717 0)
  (-0.00557983 -0.00306363 0)
  (-0.000446569 -0.0062723 0)
  (0.00549166 -0.00545242 0)
  (0.0104648 -0.00436618 0)
  (0.0143669 -0.00370191 0)
  (0.0175216 -0.00345733 0)
  (0.0199912 -0.00326028 0)
  (0.02192 -0.00273237 0)
  (0.0216148 -0.00142174 0)
  (0.0196554 0.000415579 0)
  (0.0189878 0.000478377 0)
  (0.0188466 -0.00353239 0)
  (0.0278762 -0.00506939 0)
  (-0.0198771 0.0110685 0)
  (0.273017 0.137745 0)
  (-0.147135 0.0196775 0)
  (-0.100649 0.019612 0)
  (-0.118096 0.020111 0)
  (-0.131248 0.0184601 0)
  (-0.142467 0.0155035 0)
  (-0.151251 0.011486 0)
  (-0.15711 0.00639907 0)
  (-0.159424 0.000145671 0)
  (-0.157468 -0.00739238 0)
  (-0.150834 -0.0161285 0)
  (-0.138765 -0.0261023 0)
  (-0.121137 -0.0382027 0)
  (-0.100154 -0.0541451 0)
  (-0.0808766 -0.0722871 0)
  (-0.0656777 -0.0793043 0)
  (0.0428631 0.0173335 0)
  (0.0921333 0.00764203 0)
  (0.0268207 0.00705362 0)
  (0.000817673 0.00514346 0)
  (-0.0067206 0.00323673 0)
  (-0.00829339 0.000559239 0)
  (-0.0110224 -0.00282199 0)
  (-0.0114898 -0.00870969 0)
  (-0.0101556 -0.00687564 0)
  (-0.00871414 -0.00478002 0)
  (-0.00908487 -0.00319979 0)
  (-0.0103254 -0.00146209 0)
  (-0.0128461 0.00107351 0)
  (-0.0166853 0.0041569 0)
  (-0.0199608 0.00647325 0)
  (-0.0228036 0.00676918 0)
  (-0.0230983 0.00375707 0)
  (-0.0215348 0.00242799 0)
  (-0.0338872 0.00592605 0)
  (-0.0928861 0.0135933 0)
  (0.430431 0.209714 0)
  (-0.188164 0.0444618 0)
  (-0.081802 0.0368008 0)
  (-0.105017 0.0333697 0)
  (-0.117807 0.0295581 0)
  (-0.128673 0.0242888 0)
  (-0.137429 0.0174984 0)
  (-0.143747 0.00911605 0)
  (-0.147109 -0.000902707 0)
  (-0.146764 -0.0124235 0)
  (-0.142835 -0.0252817 0)
  (-0.135575 -0.0391389 0)
  (-0.125839 -0.0540046 0)
  (-0.115263 -0.0696239 0)
  (-0.105823 -0.0830529 0)
  (-0.100865 -0.0881234 0)
  (-0.10974 -0.0839374 0)
  (0.00680573 0.0209865 0)
  (-0.0397016 0.012876 0)
  (-0.0399623 0.0105379 0)
  (-0.0369918 0.00497364 0)
  (-0.0340132 -0.00124788 0)
  (-0.0308512 -0.00736323 0)
  (-0.0227056 -0.00836054 0)
  (-0.0354891 -0.00723288 0)
  (-0.0407464 -0.00548398 0)
  (-0.0441742 -0.00421867 0)
  (-0.0460731 -0.00316827 0)
  (-0.0460893 -0.00220263 0)
  (-0.0443792 -0.00145221 0)
  (-0.0415828 -0.00159453 0)
  (-0.0354928 -0.00390734 0)
  (-0.0219591 -0.00886708 0)
  (-0.00703068 -0.00351325 0)
  (0.00877697 -0.00207582 0)
  (-0.0797869 -0.00652587 0)
  (0.557983 0.269212 0)
  (-0.231296 0.0733834 0)
  (-0.0594748 0.0540969 0)
  (-0.0893383 0.0464387 0)
  (-0.101047 0.0408462 0)
  (-0.110466 0.0339076 0)
  (-0.118222 0.0252213 0)
  (-0.124084 0.0145299 0)
  (-0.127586 0.00170004 0)
  (-0.127998 -0.012967 0)
  (-0.125778 -0.0285354 0)
  (-0.122231 -0.0440435 0)
  (-0.118987 -0.0588954 0)
  (-0.117885 -0.0721112 0)
  (-0.12116 -0.0809338 0)
  (-0.132978 -0.0800314 0)
  (-0.153881 -0.0591286 0)
  (-0.149981 -0.003685 0)
  (-0.107181 0.0143986 0)
  (-0.0961814 0.00937247 0)
  (-0.085924 0.00521769 0)
  (-0.0821156 0.000441091 0)
  (-0.0810176 -0.00462432 0)
  (-0.0820331 -0.00871587 0)
  (-0.0804916 -0.00698373 0)
  (-0.0741177 -0.00649635 0)
  (-0.0678615 -0.00679612 0)
  (-0.061468 -0.00709761 0)
  (-0.0549232 -0.00744156 0)
  (-0.048109 -0.0079347 0)
  (-0.0404665 -0.00878969 0)
  (-0.0309858 -0.0104314 0)
  (-0.0196773 -0.0136 0)
  (-0.0141741 -0.0182557 0)
  (-0.00620391 -0.0146114 0)
  (0.010499 -0.00731746 0)
  (-0.0298622 0.0105831 0)
  (0.658367 0.318057 0)
  (-0.268249 0.103697 0)
  (-0.037376 0.0682969 0)
  (-0.07136 0.0574175 0)
  (-0.081839 0.0500589 0)
  (-0.0886837 0.0415119 0)
  (-0.0940361 0.0312066 0)
  (-0.0978786 0.018663 0)
  (-0.0997571 0.00357797 0)
  (-0.0986647 -0.0134817 0)
  (-0.0958968 -0.0304733 0)
  (-0.0932581 -0.0456625 0)
  (-0.0924435 -0.0584717 0)
  (-0.094756 -0.0684758 0)
  (-0.101104 -0.0745465 0)
  (-0.11163 -0.0743253 0)
  (-0.121928 -0.0628076 0)
  (-0.122746 -0.0352552 0)
  (-0.112413 -0.013025 0)
  (-0.0995086 -0.00354985 0)
  (-0.0891532 -0.00192051 0)
  (-0.0824385 -0.0032061 0)
  (-0.0783962 -0.00583133 0)
  (-0.0761934 -0.00794235 0)
  (-0.0737651 -0.0078027 0)
  (-0.0702797 -0.00813248 0)
  (-0.0665576 -0.00848123 0)
  (-0.0627563 -0.00881681 0)
  (-0.058884 -0.00920445 0)
  (-0.0548808 -0.00983733 0)
  (-0.0504989 -0.0110809 0)
  (-0.0453816 -0.0135169 0)
  (-0.0396073 -0.0178171 0)
  (-0.0334523 -0.0238779 0)
  (-0.0246598 -0.0272283 0)
  (-0.00729725 -0.0283719 0)
  (0.0220758 -0.024599 0)
  (0.058079 -0.0324132 0)
  (0.0952375 -0.0111894 0)
  (-0.0450702 0.0372588 0)
  (0.722701 0.361701 0)
  (-0.297643 0.130961 0)
  (-0.0219563 0.0742804 0)
  (-0.0492029 0.0662613 0)
  (-0.0591334 0.0571558 0)
  (-0.0631446 0.0462237 0)
  (-0.0648419 0.0341624 0)
  (-0.0651103 0.0200709 0)
  (-0.0635014 0.00298597 0)
  (-0.0584354 -0.0161814 0)
  (-0.0540015 -0.0335232 0)
  (-0.0513397 -0.0470615 0)
  (-0.0516351 -0.0568345 0)
  (-0.0555256 -0.0632146 0)
  (-0.0630353 -0.06583 0)
  (-0.0730314 -0.0630615 0)
  (-0.0817792 -0.0525661 0)
  (-0.0847081 -0.0356545 0)
  (-0.0812603 -0.0209794 0)
  (-0.0748373 -0.0125595 0)
  (-0.0688278 -0.00892614 0)
  (-0.0644226 -0.00817356 0)
  (-0.0616813 -0.00904165 0)
  (-0.0602028 -0.0100866 0)
  (-0.0590852 -0.0104292 0)
  (-0.0578801 -0.0107817 0)
  (-0.0567388 -0.0111229 0)
  (-0.0558043 -0.0113917 0)
  (-0.0552163 -0.011649 0)
  (-0.0551086 -0.0121417 0)
  (-0.0555324 -0.0133734 0)
  (-0.0564677 -0.0160957 0)
  (-0.0578957 -0.0210159 0)
  (-0.0591856 -0.0281206 0)
  (-0.0579319 -0.0364379 0)
  (-0.0506585 -0.0467207 0)
  (-0.0361058 -0.0585552 0)
  (-0.0189054 -0.0661907 0)
  (0.0621704 -0.0134941 0)
  (-0.0878162 0.0859696 0)
  (0.741063 0.40166 0)
  (-0.310357 0.131181 0)
  (-0.00680961 0.0493051 0)
  (-0.00792635 0.0718217 0)
  (-0.0224039 0.066062 0)
  (-0.0272128 0.0476011 0)
  (-0.0250878 0.0320504 0)
  (-0.0207972 0.016426 0)
  (-0.012424 -0.00287517 0)
  (-0.00393656 -0.0230259 0)
  (0.000695058 -0.0385788 0)
  (0.00192164 -0.0488002 0)
  (-0.00025298 -0.0547613 0)
  (-0.00586223 -0.057529 0)
  (-0.0144761 -0.0574791 0)
  (-0.0247467 -0.0538619 0)
  (-0.0339413 -0.0456179 0)
  (-0.0393147 -0.0341856 0)
  (-0.0404664 -0.0236199 0)
  (-0.0392173 -0.0163501 0)
  (-0.0374699 -0.0122609 0)
  (-0.0361858 -0.0105085 0)
  (-0.0356977 -0.0102352 0)
  (-0.0359328 -0.0105023 0)
  (-0.0365221 -0.010728 0)
  (-0.0372585 -0.0109169 0)
  (-0.0382214 -0.0109502 0)
  (-0.0395944 -0.0107003 0)
  (-0.0416957 -0.0101445 0)
  (-0.0450205 -0.00950628 0)
  (-0.0501991 -0.00942015 0)
  (-0.0578337 -0.0109035 0)
  (-0.0681891 -0.0148432 0)
  (-0.0807055 -0.0215887 0)
  (-0.0940228 -0.0314442 0)
  (-0.106055 -0.0450263 0)
  (-0.113165 -0.0599689 0)
  (-0.11108 -0.0627386 0)
  (-0.102234 -0.0157403 0)
  (-0.154583 0.153665 0)
  (0.835571 0.422265 0)
  (-0.12949 0.107781 0)
  (0.0639148 -0.0184113 0)
  (0.0992112 0.0326922 0)
  (0.0689015 0.0470449 0)
  (0.0502108 0.028854 0)
  (0.0495987 0.0114806 0)
  (0.0538073 -0.00377542 0)
  (0.0635778 -0.0189995 0)
  (0.068379 -0.0320186 0)
  (0.0681528 -0.0416563 0)
  (0.0644314 -0.0475541 0)
  (0.0581383 -0.0501386 0)
  (0.0497664 -0.0500781 0)
  (0.0396724 -0.0479285 0)
  (0.028559 -0.0438006 0)
  (0.0179943 -0.0374445 0)
  (0.00989541 -0.0294719 0)
  (0.00491714 -0.0217962 0)
  (0.00213517 -0.0159242 0)
  (0.000344985 -0.0121389 0)
  (-0.00121799 -0.0101189 0)
  (-0.00293103 -0.00934448 0)
  (-0.00490383 -0.00919475 0)
  (-0.00702677 -0.00921854 0)
  (-0.0092177 -0.00920099 0)
  (-0.0115112 -0.00890653 0)
  (-0.0139993 -0.00807898 0)
  (-0.0168827 -0.00649372 0)
  (-0.0205641 -0.004069 0)
  (-0.0256693 -0.000986861 0)
  (-0.0334787 0.00199653 0)
  (-0.0465329 0.0030051 0)
  (-0.0669195 -0.000713831 0)
  (-0.0954273 -0.0115024 0)
  (-0.129902 -0.0294782 0)
  (-0.16485 -0.0516648 0)
  (-0.200902 -0.0749783 0)
  (-0.254476 -0.0930423 0)
  (-0.468507 -0.0990375 0)
  (0.964974 0.40581 0)
  (0.458172 0.264553 0)
  (0.421632 0.183187 0)
  (0.395374 0.167274 0)
  (0.30391 0.1336 0)
  (0.243183 0.0899775 0)
  (0.214578 0.053468 0)
  (0.198071 0.0252712 0)
  (0.181335 0.00199714 0)
  (0.163666 -0.0160879 0)
  (0.147333 -0.0281716 0)
  (0.1323 -0.0348954 0)
  (0.118193 -0.0374541 0)
  (0.104763 -0.0369663 0)
  (0.0918539 -0.0343247 0)
  (0.079474 -0.0302111 0)
  (0.0680542 -0.0251428 0)
  (0.0584108 -0.0197017 0)
  (0.0509497 -0.0146338 0)
  (0.0453098 -0.0105878 0)
  (0.0408552 -0.00778503 0)
  (0.037073 -0.0061189 0)
  (0.0336247 -0.00531214 0)
  (0.0303274 -0.00502138 0)
  (0.027131 -0.0049403 0)
  (0.0240273 -0.00484063 0)
  (0.0210101 -0.00449505 0)
  (0.0181082 -0.00364662 0)
  (0.0153863 -0.00201946 0)
  (0.0129999 0.000596567 0)
  (0.0113661 0.00443177 0)
  (0.00992382 0.00933953 0)
  (0.00874703 0.0144172 0)
  (0.00760247 0.017722 0)
  (0.00662429 0.017242 0)
  (0.00706699 0.0118315 0)
  (0.00666433 0.00220629 0)
  (0.0130157 -0.00949239 0)
  (0.0583574 -0.0682299 0)
  (-0.352644 -0.190012 0)
  (-0.833966 0.0943158 0)
  (0.213212 0.159869 0)
  (0.186585 0.127296 0)
  (0.186219 0.0904678 0)
  (0.198544 0.0586517 0)
  (0.20375 0.0334434 0)
  (0.200767 0.015021 0)
  (0.192925 0.00205234 0)
  (0.182427 -0.00743937 0)
  (0.170244 -0.0136153 0)
  (0.156995 -0.0166921 0)
  (0.143394 -0.0170011 0)
  (0.130091 -0.015043 0)
  (0.117611 -0.0114792 0)
  (0.106397 -0.00708929 0)
  (0.0968448 -0.00269877 0)
  (0.0890213 0.00114326 0)
  (0.0826563 0.00394866 0)
  (0.0773984 0.00557491 0)
  (0.072918 0.00615888 0)
  (0.0689434 0.00598148 0)
  (0.0652792 0.00537134 0)
  (0.0618136 0.0046286 0)
  (0.0584997 0.00399216 0)
  (0.0553483 0.00366826 0)
  (0.0524489 0.00385708 0)
  (0.0499771 0.00474254 0)
  (0.0483272 0.00629273 0)
  (0.0475731 0.00863244 0)
  (0.0482607 0.0116977 0)
  (0.0508274 0.0143878 0)
  (0.0553188 0.0144467 0)
  (0.0612966 0.00937908 0)
  (0.068956 -0.00287554 0)
  (0.0751873 -0.018874 0)
  (0.0813333 -0.0354606 0)
  (0.104 -0.0652149 0)
  (-0.0470313 -0.124759 0)
  (-0.462627 0.130907 0)
  (0.206052 0.0732757 0)
  (0.120346 0.0561943 0)
  (0.136355 0.0457974 0)
  (0.166977 0.0250717 0)
  (0.186031 0.00180006 0)
  (0.193651 -0.01963 0)
  (0.194161 -0.0382749 0)
  (0.189354 -0.0511444 0)
  (0.180668 -0.0599589 0)
  (0.169539 -0.0659319 0)
  (0.157244 -0.0699285 0)
  (0.144828 -0.0725207 0)
  (0.133109 -0.0740067 0)
  (0.122669 -0.0745117 0)
  (0.113856 -0.0741015 0)
  (0.10685 -0.0719992 0)
  (0.10164 -0.069355 0)
  (0.0978955 -0.0669619 0)
  (0.0950975 -0.0651477 0)
  (0.0927596 -0.0639284 0)
  (0.0905435 -0.0631579 0)
  (0.0882785 -0.0626378 0)
  (0.0859334 -0.062177 0)
  (0.0835844 -0.0616067 0)
  (0.0814032 -0.060774 0)
  (0.0796781 -0.0595031 0)
  (0.0786687 -0.0573469 0)
  (0.0786779 -0.0541497 0)
  (0.0801194 -0.0504302 0)
  (0.0832261 -0.0477141 0)
  (0.0876432 -0.0484324 0)
  (0.0925731 -0.0525662 0)
  (0.0956801 -0.0574977 0)
  (0.0958292 -0.0627521 0)
  (0.092723 -0.0668968 0)
  (0.116256 -0.0760383 0)
  (-0.0357713 -0.100394 0)
  (0.720753 0.165433 0)
  (0.044406 -0.288386 0)
  (-0.338473 0.152341 0)
  (0.147406 0.0679006 0)
  (0.0499333 0.0875679 0)
  (0.0782015 0.102713 0)
  (0.117516 0.107473 0)
  (0.143596 0.113327 0)
  (0.155463 0.123934 0)
  (0.157209 0.13915 0)
  (0.153517 0.153236 0)
  (0.14693 0.166617 0)
  (0.139127 0.17958 0)
  (0.131345 0.1919 0)
  (0.124495 0.202916 0)
  (0.119113 0.211804 0)
  (0.115363 0.217939 0)
  (0.113113 0.221159 0)
  (0.112079 0.220191 0)
  (0.111914 0.217104 0)
  (0.112224 0.213476 0)
  (0.112669 0.210121 0)
  (0.113018 0.207326 0)
  (0.113141 0.205086 0)
  (0.112997 0.203265 0)
  (0.112613 0.201685 0)
  (0.112065 0.200167 0)
  (0.111475 0.198533 0)
  (0.111005 0.196577 0)
  (0.110872 0.193846 0)
  (0.111361 0.190081 0)
  (0.112639 0.185451 0)
  (0.114479 0.180795 0)
  (0.115901 0.177712 0)
  (0.114657 0.174573 0)
  (0.108051 0.168341 0)
  (0.0933553 0.158878 0)
  (0.069531 0.143976 0)
  (0.119831 0.132815 0)
  (-0.407681 0.249066 0)
)
;

boundaryField
{
  floor
  {
    type noSlip;
  }
  ceiling
  {
    type noSlip;
  }
  sWall
  {
    type noSlip;
  }
  nWall
  {
    type noSlip;
  }
  sideWalls
  {
    type empty;
  }
  glass1
  {
    type noSlip;
  }
  glass2
  {
    type noSlip;
  }
  sun
  {
    type noSlip;
  }
  heatsource1
  {
    type noSlip;
  }
  heatsource2
  {
    type noSlip;
  }
  Table_master
  {
    type noSlip;
  }
  Table_slave
  {
    type noSlip;
  }
  inlet
  {
    type fixedValue;
    value uniform (0.0382683 -0.092388 0);
  }
  outlet
  {
    type zeroGradient;
  }
} 	// ************************************************************************* //

