/*--------------------------------*- C++ -*----------------------------------*\
  =========                 |
  \\      /  F ield         | OpenFOAM: The Open Source CFD Toolbox
   \\    /   O peration     | Website:  https://openfoam.org
    \\  /    A nd           | Version:  6
     \\/     M anipulation  |
\*---------------------------------------------------------------------------*/
FoamFile
{
    version     2.0;
    format      ascii;
    class       volScalarField;
    location    "670";
    object      alphat;
}
// * * * * * * * * * * * * * * * * * * * * * * * * * * * * * * * * * * * * * //

dimensions      [1 -1 -1 0 0 0 0];

internalField   nonuniform List<scalar> 
459
(
0.000447443
0.000541788
0.000610001
0.000666586
0.000730368
0.000788562
0.000845167
0.00084793
0.00082786
0.00079525
0.000755412
0.000713535
0.000672851
0.000626916
0.000579108
0.000586232
0.000681115
0.000672134
0.000653626
0.000614718
0.000574922
0.00053309
0.000494755
0.00046146
0.000432788
0.00040799
0.000386324
0.000367159
0.000349982
0.000333823
0.000317561
0.000302774
0.000292837
0.000365486
0.000482024
0.00109984
0.00154921
0.00188677
0.00209192
0.00225514
0.00259066
0.00283236
0.00289129
0.00280695
0.00263642
0.00236799
0.001989
0.00154283
0.00106269
0.000602421
0.000534355
0.000851584
0.00244073
0.00190455
0.00181103
0.00180743
0.00173978
0.00138362
0.00118056
0.00103745
0.000929881
0.00084651
0.000780903
0.000727273
0.000671734
0.000611251
0.000556929
0.000594822
0.000639642
0.000467471
0.000502107
0.00146094
0.00198683
0.00216751
0.00216176
0.0021701
0.00258307
0.00301822
0.00325799
0.00329232
0.00319657
0.00300879
0.00269928
0.00225764
0.00170133
0.00111888
0.000559598
0.000898547
0.00246456
0.00195872
0.00197134
0.00210441
0.00204865
0.000711764
0.000623431
0.00055224
0.000494839
0.000448223
0.00041007
0.000378835
0.000354222
0.000336407
0.000377769
0.000540873
0.000804036
0.000540736
0.000522758
0.00180355
0.00229828
0.00231322
0.0020404
0.00197627
0.00243826
0.00301497
0.00338555
0.00348911
0.00341949
0.00326299
0.0030244
0.00266964
0.00217869
0.0015868
0.000942511
0.000602997
0.001282
0.00155307
0.00199576
0.00246282
0.0027955
0.00269778
0.000769952
0.00070387
0.000652353
0.000608387
0.000567829
0.000528104
0.000487343
0.000443789
0.000393669
0.000376589
0.000505856
0.000950596
0.000623474
0.000555598
0.00220662
0.00260531
0.00250596
0.00190449
0.00187074
0.00240093
0.00310669
0.00358715
0.00372317
0.00363212
0.00345614
0.00324381
0.00296564
0.00259338
0.00213558
0.00166164
0.00168231
0.00210684
0.00275152
0.0033351
0.00374593
0.0039631
0.00394769
0.00341751
0.00310105
0.00278615
0.00247404
0.00215929
0.00183811
0.00150753
0.00116755
0.000821769
0.000592125
0.000577668
0.000881004
0.000838056
0.000652546
0.000674367
0.000914075
0.000622292
0.002588
0.00284173
0.00236809
0.00176623
0.00182694
0.00246364
0.00331228
0.00389713
0.00404416
0.00391494
0.00372955
0.00355043
0.00335597
0.0031365
0.00292427
0.00282471
0.00322844
0.00380258
0.00429239
0.00463558
0.00481604
0.00485515
0.00477155
0.00453726
0.00420154
0.00379465
0.0033508
0.00288948
0.0024222
0.00195811
0.00151221
0.00117561
0.00101139
0.000976761
0.000974167
0.000937917
0.00100727
0.00145224
0.00122991
0.00072843
0.00298374
0.00287163
0.00199941
0.00159612
0.00183637
0.00263487
0.00365067
0.00433053
0.00446683
0.00431236
0.00414164
0.00395983
0.00382735
0.00377115
0.00382779
0.00407606
0.0045871
0.0050478
0.00532906
0.00544116
0.00540052
0.00525596
0.00502384
0.00470939
0.00433301
0.00391391
0.00346803
0.00301696
0.0025871
0.00221058
0.00192499
0.0017695
0.00172851
0.00169497
0.00150935
0.00116857
0.00146363
0.00269789
0.00167141
0.000835227
0.00304152
0.00220184
0.00144456
0.00145065
0.00195267
0.00297749
0.00417915
0.00491725
0.00498965
0.00471872
0.00437255
0.00417255
0.00413968
0.00425303
0.00452146
0.00492059
0.00535814
0.00564826
0.00572249
0.00560398
0.00532023
0.0049521
0.00457175
0.00420443
0.00385506
0.00352021
0.00320536
0.00293115
0.00272546
0.00261248
0.00260067
0.0026686
0.00274428
0.0027172
0.00250282
0.00199426
0.00218686
0.00489879
0.00229014
0.000938807
0.00120084
0.000835716
0.00103825
0.00149894
0.00233497
0.00365495
0.00500672
0.00565738
0.00545252
0.0049807
0.00469512
0.00462046
0.0046863
0.00485423
0.0051061
0.00539049
0.00560788
0.00565554
0.00551719
0.00523887
0.00489269
0.00454433
0.00423381
0.003977
0.00377545
0.00362687
0.00353487
0.00350852
0.00355574
0.00367588
0.00385205
0.00404338
0.00418011
0.00418028
0.00400495
0.00354913
0.0034527
0.00635725
0.0025571
0.000409431
0.00144756
0.00245924
0.00367061
0.00507391
0.00612023
0.006079
0.00584087
0.00571604
0.00570808
0.00575865
0.00583378
0.00592129
0.00601063
0.00607775
0.00608822
0.00602143
0.00588855
0.00571819
0.00553928
0.00537281
0.00523024
0.00511761
0.00504025
0.00500457
0.00501833
0.00508864
0.00521817
0.00540042
0.00561408
0.00581808
0.00595114
0.00594029
0.00580641
0.0054755
0.00523842
0.00656443
0.00215031
0.00240751
0.00724224
0.00766195
0.00718995
0.00692493
0.00675445
0.00660797
0.00658672
0.00664954
0.00673555
0.00681001
0.00686514
0.00690597
0.00693844
0.00696307
0.00697333
0.00695939
0.00691847
0.0068566
0.00678439
0.0067112
0.00664373
0.00658796
0.00655128
0.00654214
0.00656932
0.00664046
0.00675975
0.00692453
0.0071201
0.00731272
0.00744224
0.00742228
0.00725457
0.00686317
0.0063809
0.00547904
0.00181712
0.00159734
0.00170965
0.00188311
0.00199995
0.0019753
0.0019043
0.00183965
0.00178701
0.00175281
0.00173749
0.0017329
0.00173309
0.00173554
0.00173949
0.00174466
0.00175046
0.00175572
0.00175897
0.00175939
0.00175721
0.00175336
0.00174888
0.00174457
0.00174107
0.00173889
0.00173856
0.00174057
0.00174536
0.00175314
0.00176374
0.00177625
0.00178869
0.00179758
0.00179833
0.00179166
0.00177651
0.00177627
0.00180111
0.0017878
0.00156012
)
;

boundaryField
{
    floor
    {
        type            compressible::alphatWallFunction;
        Prt             0.85;
        value           nonuniform List<scalar> 
29
(
8.14866e-05
8.25591e-05
9.66812e-05
9.53578e-05
9.26205e-05
8.68324e-05
8.08651e-05
7.45365e-05
6.86819e-05
6.35503e-05
5.90936e-05
5.52081e-05
5.17885e-05
4.87427e-05
4.59951e-05
4.3394e-05
4.07594e-05
3.83481e-05
3.67183e-05
4.84723e-05
4.84716e-05
6.44799e-05
7.56987e-05
8.81417e-05
8.14856e-05
8.25581e-05
0.000121472
0.000128193
8.5072e-05
)
;
    }
    ceiling
    {
        type            compressible::alphatWallFunction;
        Prt             0.85;
        value           nonuniform List<scalar> 
43
(
0.000224331
0.000239273
0.00026214
0.000277413
0.000274202
0.000264922
0.00025644
0.00024951
0.000244998
0.000242974
0.000242369
0.000242395
0.00024272
0.000243244
0.000243928
0.000244695
0.000245391
0.000245821
0.000245876
0.000245588
0.00024508
0.000244486
0.000243917
0.000243454
0.000243166
0.000243121
0.000243387
0.00024402
0.000245049
0.000246448
0.0002481
0.000249741
0.000250912
0.00025101
0.00025013
0.00024813
0.000248098
0.000251376
0.000249621
0.000219367
0.000133912
0.00017055
0.000329972
)
;
    }
    sWall
    {
        type            compressible::alphatWallFunction;
        Prt             0.85;
        value           uniform 0.000224212;
    }
    nWall
    {
        type            compressible::alphatWallFunction;
        Prt             0.85;
        value           nonuniform List<scalar> 6(0.000130395 0.000174553 0.000234186 0.00029692 0.000253461 0.000219342);
    }
    sideWalls
    {
        type            empty;
    }
    glass1
    {
        type            compressible::alphatWallFunction;
        Prt             0.85;
        value           nonuniform List<scalar> 9(6.12764e-05 6.66289e-05 6.97157e-05 7.28735e-05 7.78605e-05 8.78766e-05 0.00010355 0.000119041 0.000133835);
    }
    glass2
    {
        type            compressible::alphatWallFunction;
        Prt             0.85;
        value           nonuniform List<scalar> 2(0.00031571 0.000349844);
    }
    sun
    {
        type            compressible::alphatWallFunction;
        Prt             0.85;
        value           nonuniform List<scalar> 
14
(
6.13625e-05
7.58461e-05
8.61184e-05
9.45317e-05
0.000103912
0.000112383
0.000120549
0.000120943
0.000118055
0.000113346
0.000107563
0.000101444
9.54572e-05
8.8644e-05
)
;
    }
    heatsource1
    {
        type            compressible::alphatWallFunction;
        Prt             0.85;
        value           nonuniform List<scalar> 3(9.23154e-05 9.55434e-05 0.000130257);
    }
    heatsource2
    {
        type            compressible::alphatWallFunction;
        Prt             0.85;
        value           nonuniform List<scalar> 4(8.48508e-05 7.45892e-05 7.45883e-05 7.84112e-05);
    }
    Table_master
    {
        type            compressible::alphatWallFunction;
        Prt             0.85;
        value           nonuniform List<scalar> 9(0.000101044 8.79879e-05 7.72995e-05 6.85564e-05 6.1362e-05 5.54027e-05 5.04707e-05 4.65472e-05 4.36851e-05);
    }
    Table_slave
    {
        type            compressible::alphatWallFunction;
        Prt             0.85;
        value           nonuniform List<scalar> 9(0.00010954 9.98886e-05 9.22886e-05 8.57446e-05 7.96559e-05 7.36397e-05 6.74072e-05 6.06742e-05 5.28202e-05);
    }
    inlet
    {
        type            fixedValue;
        value           uniform 1.94e-05;
    }
    outlet
    {
        type            zeroGradient;
    }
}


// ************************************************************************* //
