/*--------------------------------*- C++ -*----------------------------------*\
  =========                 |
  \\      /  F ield         | OpenFOAM: The Open Source CFD Toolbox
   \\    /   O peration     | Website:  https://openfoam.org
    \\  /    A nd           | Version:  6
     \\/     M anipulation  |
\*---------------------------------------------------------------------------*/
FoamFile
{
    version     2.0;
    format      ascii;
    class       volScalarField;
    location    "500";
    object      nut;
}
// * * * * * * * * * * * * * * * * * * * * * * * * * * * * * * * * * * * * * //

dimensions      [0 2 -1 0 0 0 0];

internalField   nonuniform List<scalar> 
459
(
0.000688872
0.000713507
0.000662937
0.000687182
0.000713526
0.000738653
0.000762681
0.000786231
0.00081025
0.000834629
0.000855669
0.000872331
0.000883891
0.000889781
0.000886203
0.000278559
0.000319021
0.000293073
0.000243738
0.000216519
0.000204193
0.000204558
0.000221048
0.000239637
0.000256904
0.000269313
0.000271935
0.000266319
0.000264502
0.000268161
0.000278928
0.000275083
0.000257367
0.000236344
0.00114881
0.00211765
0.00164971
0.00215645
0.00237042
0.00257641
0.00278259
0.00297346
0.0031264
0.00323007
0.0032803
0.00324281
0.00305997
0.00263497
0.00186317
0.000959197
0.000603339
0.000414192
0.000989872
0.00102131
0.000845584
0.000629451
0.000495287
0.000457555
0.000561209
0.00069066
0.000804098
0.000881731
0.000907798
0.000908428
0.000920135
0.0010015
0.00123054
0.00106115
0.000714272
0.00035353
0.00156668
0.00350564
0.00177141
0.00304466
0.00357211
0.00383584
0.00405353
0.00423672
0.00437923
0.00447824
0.00453455
0.00451298
0.00434868
0.00393577
0.00315543
0.00205358
0.00100504
0.000629887
0.00168215
0.00143393
0.00107438
0.00076978
0.000519911
0.000294333
0.000313551
0.0003382
0.000363675
0.000391514
0.000424692
0.000467441
0.000528351
0.000624177
0.00201709
0.00211413
0.00174272
0.0005207
0.00197248
0.00531282
0.00208399
0.0031041
0.00413302
0.00445138
0.00464663
0.00480677
0.00494391
0.00505812
0.00518052
0.00529664
0.00535195
0.0052379
0.00477506
0.00375767
0.00220694
0.000970289
0.00229382
0.00264067
0.0021989
0.00171116
0.00130556
0.000930605
0.000635534
0.000631104
0.00063116
0.000635269
0.000644727
0.00066141
0.000688117
0.000729954
0.000799656
0.00255576
0.00270399
0.00240723
0.00075002
0.00235803
0.00733528
0.00306727
0.00280916
0.00411594
0.00457066
0.00476527
0.00489911
0.00500948
0.00511728
0.0053009
0.00557222
0.00590973
0.00625958
0.00652187
0.00658134
0.00636018
0.00587499
0.00555616
0.00508005
0.00467451
0.00437365
0.00411287
0.00388163
0.00367857
0.0035537
0.00344027
0.00333151
0.00322972
0.00314445
0.00309122
0.00308526
0.00313335
0.00325164
0.00316224
0.00300255
0.0026537
0.00105741
0.000906372
0.000780021
0.0027261
0.00923243
0.00510329
0.00313818
0.00354235
0.00411491
0.00445802
0.00466596
0.00477007
0.00482614
0.00501278
0.00532149
0.00576155
0.00632091
0.00690518
0.00737091
0.00757281
0.00743689
0.0070757
0.00664669
0.00627137
0.00596939
0.00572446
0.00552051
0.00533867
0.00517092
0.00500913
0.00484268
0.00465804
0.00444741
0.00422015
0.00400189
0.00380891
0.00362462
0.00341926
0.00318822
0.00289102
0.0024051
0.001735
0.000816456
0.00305496
0.0105868
0.00801738
0.00518059
0.00373935
0.00356138
0.00392485
0.0043236
0.00450598
0.00457601
0.00471741
0.00493352
0.00527275
0.0057996
0.00645987
0.00710345
0.00755665
0.00770986
0.00759787
0.00734603
0.00706452
0.00680091
0.00656673
0.00636042
0.00617606
0.00601329
0.00587473
0.00575419
0.00562964
0.00546322
0.0052188
0.00489705
0.00453939
0.00417443
0.00379905
0.00339746
0.0029404
0.0023967
0.00179349
0.000841719
0.00310702
0.0100412
0.00875623
0.00768598
0.00601781
0.00493117
0.00455012
0.004551
0.00460646
0.00461444
0.00464236
0.00472433
0.00489626
0.00520478
0.00567465
0.00625612
0.00680998
0.00718794
0.007339
0.00731405
0.00719187
0.00702764
0.00685071
0.00667463
0.00650966
0.00636689
0.00626025
0.00620088
0.0061892
0.00620194
0.00617994
0.00604776
0.00577895
0.00538684
0.00489807
0.00433693
0.00375201
0.00316709
0.0026773
0.00141569
0.00299513
0.00350436
0.00588608
0.00647905
0.00621395
0.00569404
0.00524645
0.00494429
0.00474665
0.0046257
0.00457699
0.00459492
0.00468403
0.00485552
0.00512239
0.00548347
0.00589595
0.00627672
0.00655317
0.00670439
0.00675001
0.00672127
0.00664624
0.00654643
0.00643904
0.00633927
0.00626277
0.00622566
0.006244
0.00632933
0.00647319
0.00662847
0.0067663
0.00685645
0.00691083
0.00693989
0.00674322
0.00612942
0.00556934
0.0015583
0.0114956
0.0122841
0.00837315
0.00686423
0.00601825
0.00547973
0.00512176
0.00488116
0.00474079
0.00469439
0.00472975
0.00483208
0.00498949
0.00519493
0.00543702
0.00568792
0.00591487
0.00609276
0.00621157
0.00627474
0.00629391
0.00628367
0.00625775
0.00622741
0.00620211
0.00619089
0.00620386
0.00625216
0.00633761
0.00646875
0.00664686
0.00683762
0.0069609
0.00690479
0.00661697
0.00604379
0.00500015
0.00158425
0.00480181
0.0104014
0.00817283
0.00688456
0.00608216
0.00554732
0.00520401
0.00502142
0.00496596
0.00500529
0.00513075
0.00532015
0.00554296
0.00576871
0.00597105
0.00611077
0.00619249
0.00623498
0.0062571
0.00627192
0.00628618
0.00630171
0.00631741
0.00633085
0.00633957
0.00634168
0.00633654
0.00632557
0.0063128
0.0063065
0.00631695
0.00632536
0.00624923
0.00605374
0.00567924
0.00506071
0.00437224
0.00166534
0.00173382
0.00233933
0.00356947
0.00305405
0.0027979
0.0025746
0.00230539
0.00207135
0.00187813
0.00172086
0.00160014
0.00151559
0.0014605
0.00143023
0.00141977
0.00142302
0.00143348
0.00144843
0.00146086
0.00146786
0.00146967
0.00146784
0.00146411
0.00145978
0.00145567
0.00145208
0.00144899
0.00144615
0.00144321
0.00143972
0.00143538
0.00142919
0.00141968
0.00140633
0.00139213
0.00137267
0.00134119
0.00128682
0.00124697
0.00127465
)
;

boundaryField
{
    floor
    {
        type            nutkWallFunction;
        Cmu             0.09;
        kappa           0.41;
        E               9.8;
        value           nonuniform List<scalar> 
29
(
0.000107252
3.04182e-05
3.59431e-05
3.24119e-05
2.55766e-05
2.1727e-05
1.9962e-05
2.0014e-05
2.23708e-05
2.49992e-05
2.7416e-05
2.91394e-05
2.95025e-05
2.8725e-05
2.8473e-05
2.89801e-05
3.04671e-05
2.99376e-05
2.7481e-05
2.45361e-05
2.4536e-05
4.05758e-05
6.23304e-05
9.08337e-05
0.000107252
3.04181e-05
4.86e-05
7.60624e-05
0.000117239
)
;
    }
    ceiling
    {
        type            nutkWallFunction;
        Cmu             0.09;
        kappa           0.41;
        E               9.8;
        value           nonuniform List<scalar> 
43
(
0.000204365
0.000270311
0.000399154
0.00034583
0.000319006
0.000295394
0.000266637
0.000241348
0.00022024
0.000202887
0.00018945
0.000179974
0.000173767
0.000170345
0.000169162
0.000169528
0.000170712
0.000172401
0.000173805
0.000174595
0.000174798
0.000174592
0.00017417
0.000173682
0.000173217
0.00017281
0.000172461
0.00017214
0.000171807
0.000171412
0.00017092
0.00017022
0.000169143
0.00016763
0.000166019
0.000163809
0.000160226
0.000154018
0.000149448
0.000152626
0.000339772
0.000392581
0.000523743
)
;
    }
    sWall
    {
        type            nutkWallFunction;
        Cmu             0.09;
        kappa           0.41;
        E               9.8;
        value           uniform 0.000204411;
    }
    nWall
    {
        type            nutkWallFunction;
        Cmu             0.09;
        kappa           0.41;
        E               9.8;
        value           nonuniform List<scalar> 6(9.44819e-05 9.88875e-05 0.000101928 0.000187669 0.000196712 0.000152635);
    }
    sideWalls
    {
        type            empty;
    }
    glass1
    {
        type            nutkWallFunction;
        Cmu             0.09;
        kappa           0.41;
        E               9.8;
        value           nonuniform List<scalar> 9(8.33134e-05 0.000138234 0.000185896 0.000230832 0.0002726 0.000311799 0.000346357 0.0003518 0.000340121);
    }
    glass2
    {
        type            nutkWallFunction;
        Cmu             0.09;
        kappa           0.41;
        E               9.8;
        value           nonuniform List<scalar> 2(0.000168723 0.000184793);
    }
    sun
    {
        type            nutkWallFunction;
        Cmu             0.09;
        kappa           0.41;
        E               9.8;
        value           nonuniform List<scalar> 
14
(
8.335e-05
8.6375e-05
8.01536e-05
8.31433e-05
8.63777e-05
8.94493e-05
9.23752e-05
9.52322e-05
9.81357e-05
0.000101072
0.000103599
0.000105594
0.000106976
0.00010768
)
;
    }
    heatsource1
    {
        type            nutkWallFunction;
        Cmu             0.09;
        kappa           0.41;
        E               9.8;
        value           nonuniform List<scalar> 3(0.000127488 0.000109661 9.4482e-05);
    }
    heatsource2
    {
        type            nutkWallFunction;
        Cmu             0.09;
        kappa           0.41;
        E               9.8;
        value           nonuniform List<scalar> 4(0.000115928 7.27486e-05 7.27485e-05 0.000121337);
    }
    Table_master
    {
        type            nutkWallFunction;
        Cmu             0.09;
        kappa           0.41;
        E               9.8;
        value           nonuniform List<scalar> 9(3.2579e-05 3.51966e-05 3.85236e-05 4.19293e-05 4.56163e-05 4.99675e-05 5.55119e-05 6.33049e-05 7.53489e-05);
    }
    Table_slave
    {
        type            nutkWallFunction;
        Cmu             0.09;
        kappa           0.41;
        E               9.8;
        value           nonuniform List<scalar> 9(7.67585e-05 7.6208e-05 7.6215e-05 7.67256e-05 7.78995e-05 7.9965e-05 8.32586e-05 8.83878e-05 9.68569e-05);
    }
    inlet
    {
        type            calculated;
        value           uniform 3.3541e-05;
    }
    outlet
    {
        type            calculated;
        value           nonuniform List<scalar> 2(0.00173382 0.00233933);
    }
}


// ************************************************************************* //
