/*--------------------------------*- C++ -*----------------------------------*\
  =========                 |
  \\      /  F ield         | OpenFOAM: The Open Source CFD Toolbox
   \\    /   O peration     | Website:  https://openfoam.org
    \\  /    A nd           | Version:  6
     \\/     M anipulation  |
\*---------------------------------------------------------------------------*/
FoamFile
{
    version     2.0;
    format      ascii;
    class       volScalarField;
    location    "400";
    object      alphat;
}
// * * * * * * * * * * * * * * * * * * * * * * * * * * * * * * * * * * * * * //

dimensions      [1 -1 -1 0 0 0 0];

internalField   nonuniform List<scalar> 
459
(
0.00117524
0.00127483
0.00128896
0.00134676
0.00139965
0.00144817
0.0014944
0.00154098
0.00157941
0.00160141
0.00160094
0.00157329
0.00151784
0.00144229
0.00136083
0.000506835
0.000620429
0.000677237
0.000658737
0.0006303
0.000598636
0.000563749
0.00053024
0.000499743
0.000472366
0.000447835
0.000425979
0.000406284
0.000388272
0.000371395
0.000354844
0.000337403
0.000329849
0.000305173
0.00163169
0.00376711
0.00352451
0.0040884
0.00461246
0.00514722
0.00564723
0.00603896
0.00636971
0.00664973
0.00683218
0.00685429
0.00661874
0.00592089
0.00419605
0.00137441
0.000912663
0.000589362
0.00107448
0.00140904
0.00163919
0.00175104
0.00174561
0.00148019
0.00131254
0.00118668
0.00108666
0.00100462
0.000932315
0.000867296
0.000806898
0.000749996
0.00070128
0.000653679
0.000794569
0.000425012
0.00201611
0.00516434
0.00427955
0.0055153
0.00606471
0.00645917
0.0067583
0.00699009
0.00722176
0.00747411
0.00771618
0.00789918
0.00795397
0.00780398
0.00729643
0.0059212
0.00133246
0.00114663
0.00153731
0.00185414
0.0021192
0.00229302
0.00222713
0.000794438
0.000710123
0.000642092
0.000586856
0.000541551
0.000503994
0.000472604
0.000446353
0.0004248
0.00045873
0.000525241
0.000893375
0.000502419
0.00238893
0.00674763
0.00423397
0.00586
0.00641303
0.00657129
0.00662426
0.00669103
0.0068334
0.0070629
0.0073476
0.00764393
0.00787384
0.00798077
0.00790722
0.00742305
0.00575429
0.00151939
0.0019151
0.00240374
0.00279837
0.0030782
0.00324659
0.00304733
0.000888738
0.000822504
0.000778537
0.000747063
0.000720194
0.000691641
0.000663783
0.000633428
0.000596484
0.000561825
0.000566307
0.00104557
0.000560449
0.00276854
0.00879939
0.00468776
0.00555633
0.00638075
0.0064526
0.00633735
0.00627105
0.00638109
0.00660776
0.00691698
0.00727328
0.00756809
0.00772007
0.00768458
0.00741607
0.00677334
0.00551373
0.00499274
0.00474354
0.00460836
0.00454445
0.00451697
0.00441331
0.0038496
0.00361825
0.00349978
0.00340322
0.00328374
0.00311127
0.00279867
0.0023913
0.00192489
0.00144547
0.00106331
0.00104615
0.000751834
0.000700073
0.00084065
0.000941785
0.0031681
0.0110174
0.00664381
0.0053199
0.00596545
0.00629142
0.00628587
0.00608718
0.00619755
0.00640696
0.0067153
0.00707668
0.00739092
0.00754878
0.00747945
0.00718142
0.00671937
0.00620076
0.00585048
0.00561633
0.00544232
0.00531803
0.00521637
0.0050919
0.004891
0.00471931
0.00456467
0.00440714
0.00423568
0.00404297
0.00377818
0.00339403
0.00289032
0.00229511
0.00173623
0.0012588
0.00100257
0.000878985
0.00127098
0.000983689
0.00354085
0.0126284
0.00970778
0.00691021
0.00623397
0.0063013
0.00636829
0.00628487
0.00627751
0.00642127
0.00672119
0.00709979
0.00742619
0.00756643
0.00743782
0.00705772
0.00656149
0.00615606
0.00595033
0.00582233
0.00566227
0.00545079
0.00520587
0.00496754
0.00476089
0.00459487
0.00444644
0.00430196
0.00415913
0.00402227
0.00389269
0.0036692
0.00328461
0.00277264
0.00225792
0.00176884
0.00144919
0.00137435
0.00143758
0.00112026
0.00361688
0.0115194
0.0100403
0.00897615
0.00810781
0.00757262
0.00699222
0.00654291
0.00639196
0.00654637
0.00691314
0.00733951
0.00765591
0.00771894
0.00745884
0.0069334
0.00634525
0.00596959
0.00584528
0.00561648
0.00525657
0.00486216
0.00452234
0.00427476
0.00410636
0.0039848
0.0038847
0.00379857
0.00373041
0.00369038
0.00369051
0.00371058
0.00352701
0.00318038
0.00287087
0.00273331
0.0029114
0.00345625
0.0042934
0.00175057
0.00352239
0.00420338
0.00473042
0.00496526
0.0050933
0.00512211
0.00524228
0.00556524
0.00609228
0.00674505
0.00738586
0.00786121
0.00804447
0.00785302
0.00728464
0.0065136
0.00591013
0.00552876
0.00518148
0.0047126
0.00422024
0.00382787
0.00356563
0.00340277
0.00329772
0.0032194
0.00315029
0.00308228
0.00301089
0.00293234
0.00284341
0.00274365
0.00265864
0.00259731
0.00258556
0.00261338
0.00260729
0.00250078
0.00233281
0.00163275
0.00206779
0.00391987
0.00512581
0.00599488
0.00681558
0.00754272
0.00815228
0.00858374
0.00876132
0.00862029
0.00815325
0.00736445
0.00633316
0.00539217
0.00479421
0.00432581
0.00381082
0.00331704
0.00295956
0.00274318
0.00262266
0.0025564
0.0025184
0.0024945
0.00247779
0.00246546
0.00245717
0.00245477
0.00246241
0.00249116
0.00252709
0.00256839
0.00260814
0.00261711
0.00254733
0.00238382
0.00214007
0.00133849
0.00247054
0.00530159
0.0070459
0.00771802
0.00831915
0.00876628
0.00882734
0.00865849
0.00815259
0.00723559
0.00610986
0.00500652
0.00411284
0.00346159
0.00295827
0.00250242
0.00215717
0.00195515
0.0018459
0.00179916
0.00179189
0.00180946
0.00184475
0.00189449
0.00195709
0.00203126
0.00211483
0.00220345
0.00229877
0.00240558
0.00252159
0.00264023
0.00274511
0.0028185
0.00280319
0.00282856
0.00275686
0.00135909
0.00213558
0.00225927
0.00234955
0.0024695
0.00232724
0.00216681
0.00201965
0.0018762
0.001749
0.00160529
0.00143832
0.00125238
0.00105721
0.000877998
0.000736953
0.000643613
0.000592611
0.000571724
0.000569855
0.000579407
0.000596102
0.000617107
0.000641314
0.000668443
0.000698433
0.000731366
0.000767461
0.000807135
0.000851144
0.000900858
0.000957089
0.00101886
0.00108691
0.00116198
0.00124415
0.00134542
0.00137503
0.00134013
0.00125516
0.00116307
)
;

boundaryField
{
    floor
    {
        type            compressible::alphatWallFunction;
        Prt             0.85;
        value           nonuniform List<scalar> 
29
(
0.000192177
7.02875e-05
8.74288e-05
9.58527e-05
9.31192e-05
8.88992e-05
8.41726e-05
7.89291e-05
7.38545e-05
6.92015e-05
6.49939e-05
6.11975e-05
5.77926e-05
5.47055e-05
5.18651e-05
4.91883e-05
4.65478e-05
4.3748e-05
4.25296e-05
3.85238e-05
3.85232e-05
5.7641e-05
6.961e-05
7.84296e-05
0.000192175
7.02866e-05
8.27797e-05
0.000162781
0.000213599
)
;
    }
    ceiling
    {
        type            compressible::alphatWallFunction;
        Prt             0.85;
        value           nonuniform List<scalar> 
43
(
0.000294621
0.000310567
0.000322151
0.000337573
0.000319444
0.000298828
0.000279768
0.000261039
0.000244296
0.000225214
0.0002028
0.000177487
0.000150449
0.000125107
0.000104731
9.09906e-05
8.33806e-05
8.02411e-05
7.99593e-05
8.13974e-05
8.39039e-05
8.70453e-05
9.06494e-05
9.46686e-05
9.90888e-05
0.000103916
0.000109177
0.000114926
0.000121263
0.000128375
0.000136364
0.000145078
0.000154605
0.000165037
0.000176367
0.000190213
0.000194241
0.000189495
0.000177879
0.000165191
0.000469323
0.000552122
0.000337471
)
;
    }
    sWall
    {
        type            compressible::alphatWallFunction;
        Prt             0.85;
        value           uniform 0.000293406;
    }
    nWall
    {
        type            compressible::alphatWallFunction;
        Prt             0.85;
        value           nonuniform List<scalar> 6(0.000133867 0.00013979 0.000158907 0.000188937 0.000191738 0.000164861);
    }
    sideWalls
    {
        type            empty;
    }
    glass1
    {
        type            compressible::alphatWallFunction;
        Prt             0.85;
        value           nonuniform List<scalar> 9(0.000162599 0.000223622 0.000273674 0.000321327 0.00036911 0.000418714 0.000464453 0.00047385 0.000462554);
    }
    glass2
    {
        type            compressible::alphatWallFunction;
        Prt             0.85;
        value           nonuniform List<scalar> 2(0.000242704 0.000227202);
    }
    sun
    {
        type            compressible::alphatWallFunction;
        Prt             0.85;
        value           nonuniform List<scalar> 
14
(
0.000166765
0.00018045
0.000182384
0.00019027
0.000197453
0.000204016
0.000210246
0.000216501
0.000221645
0.000224584
0.000224521
0.000220824
0.000213392
0.000203216
)
;
    }
    heatsource1
    {
        type            compressible::alphatWallFunction;
        Prt             0.85;
        value           nonuniform List<scalar> 3(9.93291e-05 0.000119754 0.000134193);
    }
    heatsource2
    {
        type            compressible::alphatWallFunction;
        Prt             0.85;
        value           nonuniform List<scalar> 4(0.000194151 0.000130053 0.000130051 0.000188441);
    }
    Table_master
    {
        type            compressible::alphatWallFunction;
        Prt             0.85;
        value           nonuniform List<scalar> 9(0.000113086 0.000100802 9.07624e-05 8.25149e-05 7.56784e-05 6.99572e-05 6.51342e-05 6.10695e-05 5.77097e-05);
    }
    Table_slave
    {
        type            compressible::alphatWallFunction;
        Prt             0.85;
        value           nonuniform List<scalar> 9(0.000126645 0.000117142 0.000110785 0.000106207 0.000102281 9.80894e-05 9.39793e-05 8.9477e-05 8.39614e-05);
    }
    inlet
    {
        type            fixedValue;
        value           uniform 1.94e-05;
    }
    outlet
    {
        type            zeroGradient;
    }
}


// ************************************************************************* //
