/*--------------------------------*- C++ -*----------------------------------*\
  =========                 |
  \\      /  F ield         | OpenFOAM: The Open Source CFD Toolbox
   \\    /   O peration     | Website:  https://openfoam.org
    \\  /    A nd           | Version:  6
     \\/     M anipulation  |
\*---------------------------------------------------------------------------*/
FoamFile
{
    version     2.0;
    format      ascii;
    class       volScalarField;
    location    "1500";
    object      alphat;
}
// * * * * * * * * * * * * * * * * * * * * * * * * * * * * * * * * * * * * * //

dimensions      [1 -1 -1 0 0 0 0];

internalField   nonuniform List<scalar> 
459
(
0.0012535
0.00137059
0.00139605
0.00146314
0.00152525
0.00158338
0.00164036
0.00169609
0.00173546
0.00175211
0.00174011
0.00169582
0.00161901
0.00151617
0.00140337
0.00055042
0.000673291
0.000757104
0.000751972
0.000725861
0.000691719
0.000649095
0.000606908
0.000568595
0.000534539
0.000504349
0.000477501
0.000453614
0.000432159
0.000412373
0.000393264
0.000373371
0.000359141
0.00032711
0.0017071
0.0041759
0.00399635
0.00465097
0.00529439
0.00593794
0.00650631
0.0069342
0.00732173
0.00763747
0.00783716
0.00787033
0.00766037
0.00701561
0.00524432
0.00143061
0.000842738
0.000595577
0.00124953
0.00172383
0.00206153
0.00223873
0.00222865
0.00179382
0.00154805
0.00137188
0.00123641
0.00112846
0.00104039
0.000964282
0.000893371
0.000824769
0.000763934
0.000711154
0.000833418
0.000427241
0.00208396
0.00570501
0.00496044
0.0062199
0.0068487
0.00731569
0.0076789
0.00796891
0.00828409
0.00861324
0.00891743
0.00914117
0.00922315
0.0090733
0.00845361
0.00651849
0.00142191
0.00118923
0.0017068
0.00218306
0.00260425
0.00288623
0.00280184
0.000929224
0.000820667
0.000733474
0.00066311
0.00060577
0.000558544
0.000519339
0.000486822
0.000460433
0.000495846
0.000572611
0.000936929
0.000494053
0.0024451
0.00729106
0.00497747
0.00658465
0.00713706
0.00732551
0.00744866
0.00759912
0.0078513
0.00818844
0.00857059
0.00892861
0.00919918
0.00931136
0.00918012
0.00851469
0.00624184
0.00170235
0.00211164
0.00272362
0.00330802
0.00376356
0.00403464
0.00377009
0.00104843
0.00095453
0.000887246
0.000835943
0.000792386
0.000752492
0.000714233
0.000674154
0.00062774
0.00058839
0.000600805
0.00106939
0.000545812
0.00281291
0.00932506
0.00547466
0.00634223
0.00707273
0.00712175
0.00706306
0.00714591
0.00736962
0.00771186
0.00813984
0.00855854
0.00888051
0.0090346
0.0089954
0.00871375
0.00799488
0.00660914
0.00613218
0.00596981
0.00590721
0.00586263
0.00578828
0.00555586
0.00468788
0.00427079
0.00402825
0.00384132
0.00364488
0.00336254
0.00298139
0.00251833
0.00200347
0.00148407
0.00109421
0.00109767
0.000731518
0.000672684
0.00081439
0.000914074
0.00320249
0.0115373
0.00753359
0.00631916
0.00686778
0.00711288
0.0069591
0.00702818
0.00719717
0.00750333
0.00793344
0.00839086
0.00874433
0.00889213
0.00881042
0.00855324
0.0082091
0.00784898
0.00764188
0.00748357
0.00730412
0.00710183
0.00687933
0.00660794
0.00621544
0.00586637
0.00555742
0.00526131
0.0049596
0.00463133
0.00421772
0.00370334
0.00308834
0.00240776
0.00180586
0.00135141
0.00102007
0.000867836
0.00123811
0.000953888
0.00355638
0.0130809
0.0105468
0.00814459
0.00770137
0.00760456
0.00735075
0.00719069
0.00724468
0.00754174
0.00801698
0.00852592
0.00889759
0.00901213
0.00885712
0.00854523
0.00827402
0.00817529
0.00817378
0.00808356
0.00785582
0.00753425
0.00715801
0.00674692
0.00631757
0.0059195
0.00555385
0.00521214
0.00489514
0.0046107
0.00435868
0.00401513
0.00353446
0.00294796
0.00238415
0.00187986
0.00151104
0.00139845
0.00142796
0.00108719
0.00362248
0.0116243
0.010334
0.00954598
0.00884735
0.0080391
0.00740681
0.00715647
0.00731282
0.00778906
0.00842156
0.00900155
0.00933335
0.0093229
0.00901659
0.00860889
0.00835922
0.00834651
0.0083351
0.00806567
0.00761284
0.00706464
0.00649068
0.00594761
0.00547193
0.00507084
0.00472954
0.00444052
0.0042081
0.00404172
0.00394977
0.0039026
0.0036622
0.00328571
0.00295432
0.00278528
0.00289394
0.00333717
0.00410007
0.00169569
0.00352247
0.00418018
0.00464428
0.00476291
0.00486264
0.00513416
0.00568059
0.00651188
0.00753121
0.00856165
0.00941304
0.00990707
0.00992535
0.00952281
0.00891736
0.00849837
0.0082534
0.00803321
0.00767391
0.00711804
0.00644638
0.00575972
0.00514017
0.00462791
0.00422152
0.00389695
0.0036302
0.003407
0.00321809
0.00305383
0.00290366
0.00276572
0.00265658
0.002576
0.00254528
0.00255616
0.00254151
0.00243982
0.00228061
0.00159392
0.00176411
0.0036136
0.00584791
0.00770619
0.00915334
0.0102553
0.0109485
0.0112198
0.0111115
0.0106171
0.00984118
0.00886569
0.00803288
0.00751004
0.00708272
0.00656462
0.00593942
0.00527754
0.0046525
0.00411365
0.00368711
0.00335779
0.00310114
0.0028981
0.0027375
0.00261365
0.00252356
0.00246557
0.00244138
0.00244828
0.00247021
0.00250274
0.00253702
0.00254535
0.00248304
0.00233585
0.00211436
0.00132505
0.00235516
0.00604208
0.00899353
0.0101032
0.0106614
0.0108343
0.0105902
0.00999945
0.00918267
0.00825807
0.00738327
0.00660009
0.00596588
0.0054255
0.00488323
0.00435302
0.00388566
0.00350672
0.00321343
0.00298823
0.00280498
0.00265056
0.00251962
0.00241659
0.00234283
0.00229719
0.00227772
0.0022817
0.00231527
0.00237494
0.00245663
0.00255176
0.00264159
0.00270351
0.00268271
0.00271224
0.00275014
0.00135096
0.00208839
0.00221353
0.00230185
0.00246428
0.0023775
0.00227688
0.00221179
0.00212113
0.0019919
0.00183166
0.00165147
0.00146408
0.00128203
0.00112548
0.00100702
0.000922857
0.000863315
0.000820528
0.000789637
0.000767806
0.000753258
0.000744917
0.000742126
0.000745137
0.000754473
0.000769557
0.000790306
0.000817108
0.000850617
0.000891819
0.00093959
0.000993997
0.00105563
0.001125
0.00120156
0.00129255
0.00132185
0.00128787
0.00120988
0.00112694
)
;

boundaryField
{
    floor
    {
        type            compressible::alphatWallFunction;
        Prt             0.85;
        value           nonuniform List<scalar> 
29
(
0.000197957
7.69249e-05
9.52793e-05
0.000107562
0.000106815
0.000103004
9.79952e-05
9.16999e-05
8.54195e-05
7.96691e-05
7.45173e-05
6.9916e-05
6.57951e-05
6.21042e-05
5.87678e-05
5.56723e-05
5.26646e-05
4.95133e-05
4.7246e-05
4.20986e-05
4.2098e-05
5.80003e-05
6.83394e-05
7.62275e-05
0.000197955
7.69239e-05
8.37232e-05
0.000168681
0.000238015
)
;
    }
    ceiling
    {
        type            compressible::alphatWallFunction;
        Prt             0.85;
        value           nonuniform List<scalar> 
43
(
0.000288512
0.000304682
0.000316039
0.000336926
0.000325901
0.000313029
0.000304668
0.000292969
0.00027619
0.000255216
0.000231385
0.000206292
0.000181567
0.000159984
0.000143422
0.000131519
0.000123021
0.000116871
0.000112408
0.000109241
0.000107124
0.000105909
0.000105502
0.000105941
0.000107302
0.000109496
0.000112506
0.00011638
0.000121201
0.0001271
0.000133898
0.000141592
0.000150248
0.000159922
0.000170519
0.000183013
0.000187015
0.000182374
0.000171667
0.000160195
0.000469338
0.00054933
0.000322702
)
;
    }
    sWall
    {
        type            compressible::alphatWallFunction;
        Prt             0.85;
        value           uniform 0.000287303;
    }
    nWall
    {
        type            compressible::alphatWallFunction;
        Prt             0.85;
        value           nonuniform List<scalar> 6(0.000129952 0.000135599 0.000154321 0.000187127 0.000190654 0.000159873);
    }
    sideWalls
    {
        type            empty;
    }
    glass1
    {
        type            compressible::alphatWallFunction;
        Prt             0.85;
        value           nonuniform List<scalar> 9(0.000173242 0.000233552 0.000282435 0.000328474 0.000374689 0.000422998 0.0004664 0.000474588 0.00046262);
    }
    glass2
    {
        type            compressible::alphatWallFunction;
        Prt             0.85;
        value           nonuniform List<scalar> 2(0.000235576 0.000222149);
    }
    sun
    {
        type            compressible::alphatWallFunction;
        Prt             0.85;
        value           nonuniform List<scalar> 
14
(
0.000177547
0.000193516
0.00019697
0.00020604
0.000214396
0.000222182
0.000229782
0.000237188
0.000242404
0.000244604
0.000243018
0.00023715
0.000226934
0.000213173
)
;
    }
    heatsource1
    {
        type            compressible::alphatWallFunction;
        Prt             0.85;
        value           nonuniform List<scalar> 3(9.52936e-05 0.00011597 0.000130255);
    }
    heatsource2
    {
        type            compressible::alphatWallFunction;
        Prt             0.85;
        value           nonuniform List<scalar> 4(0.000201764 0.000120053 0.000120051 0.000200586);
    }
    Table_master
    {
        type            compressible::alphatWallFunction;
        Prt             0.85;
        value           nonuniform List<scalar> 9(0.000132406 0.000116873 0.00010422 9.38764e-05 8.53485e-05 7.825e-05 7.23006e-05 6.73233e-05 6.3253e-05);
    }
    Table_slave
    {
        type            compressible::alphatWallFunction;
        Prt             0.85;
        value           nonuniform List<scalar> 9(0.000149223 0.000135998 0.000126429 0.000119076 0.00011279 0.000106997 0.000101406 9.55107e-05 8.86293e-05);
    }
    inlet
    {
        type            fixedValue;
        value           uniform 1.94e-05;
    }
    outlet
    {
        type            zeroGradient;
    }
}


// ************************************************************************* //
