/*--------------------------------*- C++ -*----------------------------------*\
  =========                 |
  \\      /  F ield         | OpenFOAM: The Open Source CFD Toolbox
   \\    /   O peration     | Website:  https://openfoam.org
    \\  /    A nd           | Version:  6
     \\/     M anipulation  |
\*---------------------------------------------------------------------------*/
FoamFile
{
    version     2.0;
    format      ascii;
    class       volScalarField;
    location    "200";
    object      epsilon;
}
// * * * * * * * * * * * * * * * * * * * * * * * * * * * * * * * * * * * * * //

dimensions      [0 2 -3 0 0 0 0];

internalField   nonuniform List<scalar> 
459
(
0.000627938
0.000839937
0.000913781
0.00106707
0.00123336
0.00142231
0.0016051
0.00173114
0.00176465
0.00168894
0.00150158
0.00110486
0.000770826
0.000478841
0.000291472
5.73022e-05
9.28127e-05
0.000147382
0.000184068
0.000186296
0.0001717
0.000141652
0.000113769
9.19843e-05
7.54197e-05
6.27458e-05
5.29298e-05
4.51885e-05
3.89973e-05
3.38944e-05
2.94703e-05
2.53391e-05
2.18226e-05
1.63347e-05
0.00146511
0.00196249
0.000781644
0.000778524
0.000852634
0.000980887
0.00113686
0.00125956
0.00129949
0.00124009
0.00109564
0.000866042
0.000658071
0.00048747
0.000355666
0.000562202
0.000275283
5.44214e-05
9.57032e-05
0.000140751
0.000154497
0.000151163
0.000142073
0.000143806
0.000117081
9.17811e-05
7.187e-05
5.67879e-05
4.54474e-05
3.68484e-05
3.02814e-05
2.53089e-05
2.21582e-05
2.06372e-05
3.34749e-05
2.66193e-05
0.00253877
0.0044029
0.000933885
0.000774346
0.000878511
0.00107339
0.00128926
0.00143296
0.00146594
0.00139247
0.00123074
0.00100719
0.000799179
0.000619142
0.000467422
0.000423422
0.000544473
0.000152612
0.000181827
0.000189237
0.000185656
0.000173812
0.000169941
0.000366884
0.000241159
0.000164116
0.000116013
8.50217e-05
6.43829e-05
5.02162e-05
4.04295e-05
3.39716e-05
2.54934e-05
2.13663e-05
5.2801e-05
3.60587e-05
0.00394331
0.00874938
0.00140267
0.000845373
0.000977861
0.00129431
0.00157415
0.0017059
0.00170685
0.00160187
0.00140624
0.00116446
0.000922593
0.000716982
0.000557882
0.000463784
0.000458493
0.000803851
0.000523803
0.000370831
0.000292477
0.000246743
0.000214624
0.000206559
0.000540663
0.000400512
0.000311429
0.000249494
0.000202939
0.000164974
0.000132263
0.000103052
7.57624e-05
4.06962e-05
2.62392e-05
8.37737e-05
4.44844e-05
0.00581071
0.0152704
0.00263207
0.00109588
0.00124308
0.0018084
0.00207663
0.00212695
0.00206052
0.00189973
0.00164981
0.00133777
0.0010222
0.000759847
0.000572514
0.000457354
0.000420228
0.000452485
0.000405855
0.000359828
0.000321702
0.000284727
0.000247114
0.000215413
0.000212344
0.000195591
0.000176925
0.000157384
0.000137092
0.000116366
9.60192e-05
7.6985e-05
5.96261e-05
4.09217e-05
2.8887e-05
6.24236e-05
4.53775e-05
7.39712e-05
0.000128331
0.000182277
0.00833926
0.0225707
0.0057812
0.00214466
0.00242544
0.00286923
0.00287951
0.0027517
0.00257099
0.00231726
0.00196828
0.00154469
0.00112305
0.000782828
0.000555724
0.000433871
0.000397073
0.000404809
0.00040473
0.000389123
0.00035711
0.000313771
0.000266384
0.000223367
0.000193952
0.000174229
0.000157879
0.000140859
0.000122332
0.000103125
8.45099e-05
6.76702e-05
5.33693e-05
4.08982e-05
3.42206e-05
4.72092e-05
4.89054e-05
5.89695e-05
0.00024183
0.00021034
0.0110605
0.026973
0.0117326
0.0062113
0.00540887
0.00467478
0.0040758
0.00362636
0.00325606
0.00285661
0.00236114
0.00178061
0.00121978
0.000790891
0.000530703
0.000416515
0.000396985
0.000412943
0.000418715
0.000398315
0.000356908
0.000305293
0.000253296
0.000209044
0.000178924
0.000161357
0.000148597
0.000136443
0.0001234
0.00010984
9.65019e-05
8.38072e-05
7.27645e-05
6.36498e-05
6.19759e-05
7.26447e-05
9.57711e-05
0.000160028
0.000364842
0.000338402
0.0115733
0.0275983
0.0164015
0.0116649
0.00862416
0.00663344
0.00540378
0.00464656
0.00408715
0.0035034
0.00279858
0.0019873
0.00123957
0.000727109
0.000467812
0.00039549
0.000390739
0.000398942
0.000388866
0.000355536
0.000307627
0.000256782
0.000212166
0.000178916
0.000158516
0.000148415
0.00014427
0.000144258
0.000148326
0.000156327
0.000166808
0.000178648
0.000195574
0.000225531
0.000279224
0.000431118
0.000807701
0.00157749
0.00459144
0.00119668
0.0106518
0.0172875
0.0136026
0.0104885
0.00826159
0.00693386
0.00616139
0.00562024
0.00501508
0.00415733
0.00308968
0.00187388
0.000917679
0.000544654
0.000405459
0.000361248
0.000348661
0.000336616
0.000310999
0.000273223
0.000231274
0.000192781
0.000162288
0.000141717
0.000130708
0.000127529
0.000130976
0.000141275
0.000159969
0.000189524
0.000233311
0.00029591
0.000384184
0.000511035
0.000685181
0.000908945
0.0011579
0.00137428
0.00154711
0.000955125
0.00294216
0.0047804
0.00667851
0.00715296
0.00696437
0.00621713
0.00475826
0.00288019
0.00165094
0.000938446
0.000565678
0.000403039
0.000334463
0.000303172
0.000281879
0.000257765
0.000227677
0.000195163
0.000165294
0.000141316
0.000124146
0.000113316
0.000107887
0.00010723
0.000111502
0.000121573
0.000138984
0.000166082
0.000206304
0.000264483
0.000346903
0.000460345
0.000606521
0.000771962
0.000920026
0.00100489
0.000922429
0.00056191
0.00305656
0.0085477
0.00795449
0.00589968
0.00433946
0.00305946
0.00203142
0.00126961
0.000791006
0.000527211
0.000392365
0.000326396
0.000291978
0.000270326
0.000252392
0.000234568
0.000216618
0.000200019
0.000186193
0.000175717
0.000168408
0.000163724
0.000161094
0.000160179
0.000161122
0.000164796
0.000172956
0.000188254
0.000214263
0.00025555
0.000317447
0.000404435
0.000515885
0.000641775
0.000726684
0.000801037
0.000818595
0.000593356
0.00220829
0.00263435
0.00297605
0.00371132
0.00296086
0.00239261
0.00198494
0.00157656
0.00120289
0.000905226
0.000698245
0.000570079
0.000491454
0.000439048
0.000399077
0.000363312
0.000327382
0.000290406
0.000254269
0.000221797
0.000194962
0.000174206
0.000158842
0.000147807
0.000140245
0.000135818
0.000134769
0.000137841
0.00014614
0.000161025
0.000184108
0.000217437
0.000263742
0.000326417
0.000410555
0.000514297
0.000539665
0.000481234
0.000403708
0.000324862
)
;

boundaryField
{
    floor
    {
        Cmu             0.09;
        kappa           0.41;
        E               9.8;
        type            epsilonWallFunction;
        value           nonuniform List<scalar> 
29
(
0.000291472
5.73022e-05
9.28127e-05
0.000147382
0.000184068
0.000186296
0.0001717
0.000141652
0.000113769
9.19843e-05
7.54197e-05
6.27458e-05
5.29298e-05
4.51885e-05
3.89973e-05
3.38944e-05
2.94703e-05
2.53391e-05
2.18226e-05
1.63347e-05
1.63347e-05
2.66193e-05
3.60587e-05
4.44844e-05
0.000291472
5.73022e-05
5.44214e-05
0.000152612
0.000803851
)
;
    }
    ceiling
    {
        Cmu             0.09;
        kappa           0.41;
        E               9.8;
        type            epsilonWallFunction;
        value           nonuniform List<scalar> 
43
(
0.00220829
0.00263435
0.00297605
0.00371132
0.00296086
0.00239261
0.00198494
0.00157656
0.00120289
0.000905226
0.000698245
0.000570079
0.000491454
0.000439048
0.000399077
0.000363312
0.000327382
0.000290406
0.000254269
0.000221797
0.000194962
0.000174206
0.000158842
0.000147807
0.000140245
0.000135818
0.000134769
0.000137841
0.00014614
0.000161025
0.000184108
0.000217437
0.000263742
0.000326417
0.000410555
0.000514297
0.000539665
0.000481234
0.000403708
0.000324862
0.0106518
0.0172875
0.00305656
)
;
    }
    sWall
    {
        Cmu             0.09;
        kappa           0.41;
        E               9.8;
        type            epsilonWallFunction;
        value           uniform 0.00220829;
    }
    nWall
    {
        Cmu             0.09;
        kappa           0.41;
        E               9.8;
        type            epsilonWallFunction;
        value           nonuniform List<scalar> 6(0.000182277 0.00021034 0.000338402 0.00056191 0.000593356 0.000324862);
    }
    sideWalls
    {
        type            empty;
    }
    glass1
    {
        Cmu             0.09;
        kappa           0.41;
        E               9.8;
        type            epsilonWallFunction;
        value           nonuniform List<scalar> 9(0.000627938 0.00146511 0.00253877 0.00394331 0.00581071 0.00833926 0.0110605 0.0115733 0.0106518);
    }
    glass2
    {
        Cmu             0.09;
        kappa           0.41;
        E               9.8;
        type            epsilonWallFunction;
        value           nonuniform List<scalar> 2(0.00119668 0.000955125);
    }
    sun
    {
        Cmu             0.09;
        kappa           0.41;
        E               9.8;
        type            epsilonWallFunction;
        value           nonuniform List<scalar> 
14
(
0.000627938
0.000839937
0.000913781
0.00106707
0.00123336
0.00142231
0.0016051
0.00173114
0.00176465
0.00168894
0.00150158
0.00110486
0.000770826
0.000478841
)
;
    }
    heatsource1
    {
        Cmu             0.09;
        kappa           0.41;
        E               9.8;
        type            epsilonWallFunction;
        value           nonuniform List<scalar> 3(7.39712e-05 0.000128331 0.000182277);
    }
    heatsource2
    {
        Cmu             0.09;
        kappa           0.41;
        E               9.8;
        type            epsilonWallFunction;
        value           nonuniform List<scalar> 4(0.000562202 0.000275283 0.000275283 0.000544473);
    }
    Table_master
    {
        Cmu             0.09;
        kappa           0.41;
        E               9.8;
        type            epsilonWallFunction;
        value           nonuniform List<scalar> 9(0.000366884 0.000241159 0.000164116 0.000116013 8.50217e-05 6.43829e-05 5.02162e-05 4.04295e-05 3.39716e-05);
    }
    Table_slave
    {
        Cmu             0.09;
        kappa           0.41;
        E               9.8;
        type            epsilonWallFunction;
        value           nonuniform List<scalar> 9(0.000540663 0.000400512 0.000311429 0.000249494 0.000202939 0.000164974 0.000132263 0.000103052 7.57624e-05);
    }
    inlet
    {
        type            turbulentMixingLengthDissipationRateInlet;
        mixingLength    0.01;
        phi             phi;
        k               k;
        value           uniform 0.000101881;
    }
    outlet
    {
        type            zeroGradient;
    }
}


// ************************************************************************* //
