/*--------------------------------*- C++ -*----------------------------------*\
  =========                 |
  \\      /  F ield         | OpenFOAM: The Open Source CFD Toolbox
   \\    /   O peration     | Website:  https://openfoam.org
    \\  /    A nd           | Version:  6
     \\/     M anipulation  |
\*---------------------------------------------------------------------------*/
FoamFile
{
    version     2.0;
    format      ascii;
    class       volScalarField;
    location    "300";
    object      alphat;
}
// * * * * * * * * * * * * * * * * * * * * * * * * * * * * * * * * * * * * * //

dimensions      [1 -1 -1 0 0 0 0];

internalField   nonuniform List<scalar> 
459
(
0.00158107
0.00175724
0.00182377
0.00193093
0.00204268
0.00215475
0.00223714
0.00227647
0.00226365
0.00213482
0.00198277
0.00182106
0.00163412
0.00146886
0.00128843
0.000751028
0.000877583
0.00102945
0.001131
0.00115462
0.00113277
0.00106525
0.000991596
0.000925057
0.00086703
0.000816545
0.000772482
0.000733633
0.000699069
0.000667558
0.000637346
0.000605905
0.000572462
0.000517997
0.00204926
0.00546908
0.00547958
0.00636369
0.0071699
0.0077545
0.00824283
0.00861529
0.00886959
0.00887866
0.00850241
0.00789836
0.007062
0.00550665
0.00359651
0.00148728
0.0012427
0.00072884
0.0018225
0.00303583
0.00403059
0.00463098
0.00455411
0.00313752
0.00258434
0.00223137
0.00197908
0.00178951
0.00164214
0.00152595
0.00142031
0.00130365
0.0011878
0.00108218
0.00109854
0.000582761
0.00243367
0.00750875
0.00686
0.00772162
0.00815421
0.00846219
0.00875732
0.00912475
0.00958089
0.0099101
0.00990475
0.00962757
0.00909001
0.00799281
0.00627985
0.00396074
0.00141871
0.000828771
0.00185129
0.00321864
0.00469863
0.00573628
0.0054741
0.00142721
0.00124407
0.00109445
0.000973874
0.000876503
0.000797306
0.000732443
0.000680579
0.000643172
0.000732466
0.000877414
0.00123137
0.000623245
0.00279857
0.00935755
0.00735454
0.00811711
0.00820375
0.008223
0.00830869
0.00865992
0.00923938
0.00971312
0.00992892
0.00987172
0.00959198
0.00898255
0.00786206
0.00606234
0.00323675
0.00156075
0.00187062
0.00294016
0.00460687
0.00628294
0.00738553
0.00687745
0.00161062
0.00145982
0.00134218
0.00124657
0.00116233
0.00108283
0.0010038
0.000921749
0.000830629
0.000765068
0.000831041
0.00136108
0.000655067
0.0031682
0.0116193
0.00851414
0.00877142
0.0085382
0.00818295
0.0080634
0.00841167
0.00901728
0.0095665
0.00984347
0.00983563
0.00964473
0.00930714
0.00872777
0.0077414
0.00625008
0.00570907
0.00646889
0.00760241
0.00878812
0.0096919
0.01012
0.00981227
0.00795353
0.00692384
0.00624067
0.00557892
0.00489713
0.00419
0.00345837
0.00271614
0.00199102
0.00137808
0.00108306
0.00132082
0.000782738
0.000714893
0.000851686
0.000956725
0.00355217
0.01407
0.0112656
0.0102522
0.00915039
0.00830586
0.00804686
0.00840567
0.00908452
0.00968827
0.00997029
0.00995241
0.00982606
0.00976702
0.00974678
0.00960746
0.00938084
0.00977405
0.0108053
0.0116548
0.012184
0.0123416
0.0121391
0.0115726
0.0105772
0.00959284
0.00864425
0.00769902
0.00674751
0.00577711
0.00478106
0.00378116
0.0028212
0.00199545
0.00150638
0.00138964
0.0010243
0.000901287
0.00130186
0.00100304
0.0038542
0.0154827
0.0142158
0.0115434
0.0094312
0.00824043
0.00803117
0.00856805
0.0094105
0.0100854
0.0103614
0.0103887
0.0105482
0.0110528
0.0115408
0.0119038
0.0122935
0.0129763
0.0137033
0.0140071
0.0139263
0.0135241
0.0128774
0.0120462
0.0110563
0.0100388
0.0090414
0.00807511
0.00712796
0.00618301
0.00522326
0.00429556
0.00341671
0.00262988
0.00210001
0.00179284
0.00148561
0.00140801
0.0014287
0.00112866
0.00388746
0.0124808
0.0114438
0.00935011
0.00791145
0.00745857
0.00790877
0.00894472
0.0100446
0.0107395
0.0109762
0.0112669
0.0121922
0.0128648
0.0133022
0.0136657
0.0140583
0.0144748
0.014694
0.0145054
0.0139524
0.0131428
0.0121713
0.0111045
0.00999935
0.00894765
0.0079661
0.00704924
0.00619836
0.00542253
0.00473037
0.00412741
0.00359289
0.00308045
0.00273166
0.00263824
0.00275043
0.00323801
0.00417888
0.00176422
0.00376406
0.00436864
0.0046172
0.00470192
0.00530478
0.00660416
0.00832599
0.0100169
0.0111075
0.0114127
0.0118441
0.012503
0.0132294
0.0136291
0.0138387
0.0140063
0.0141299
0.0141095
0.0138153
0.0131909
0.0122895
0.0112011
0.0100062
0.00878246
0.00760542
0.00651093
0.00550145
0.00459286
0.00382869
0.00324832
0.00285245
0.00260613
0.00246828
0.00241304
0.0024248
0.0024773
0.00250064
0.00243496
0.00229173
0.00163407
0.00124907
0.00405616
0.00815617
0.0107174
0.0120353
0.0125635
0.0121127
0.0116189
0.0117864
0.0122754
0.0125614
0.0126373
0.0126338
0.012567
0.0123663
0.0119436
0.0112498
0.0103018
0.00917087
0.00794627
0.00671885
0.00557714
0.00458869
0.00378397
0.00317173
0.00274678
0.00248441
0.00234513
0.00228963
0.00228919
0.00232629
0.00238793
0.0024547
0.00249052
0.0024479
0.00230885
0.00207246
0.00131231
0.00284453
0.0103042
0.0115068
0.0112614
0.0105772
0.00987733
0.00937484
0.0091706
0.00916223
0.0091247
0.00903982
0.0089569
0.00885925
0.00868146
0.00834867
0.00780921
0.00706044
0.00615328
0.00518192
0.00425949
0.00348156
0.0028927
0.002485
0.002225
0.00207762
0.0020133
0.00200868
0.00204681
0.00211684
0.0022125
0.00232919
0.00245837
0.0025803
0.00266961
0.00267063
0.00271181
0.00257194
0.00132976
0.00234384
0.0024909
0.00260012
0.00269312
0.00233346
0.00212726
0.0019717
0.00181718
0.00167354
0.00156089
0.00148072
0.00142315
0.00137789
0.00133611
0.00129045
0.00123538
0.00116819
0.00109027
0.00100775
0.000929459
0.000863615
0.00081494
0.000783998
0.000768521
0.000765473
0.000772446
0.000787993
0.000811402
0.000842447
0.000881205
0.000927939
0.000983091
0.00104735
0.00112153
0.0012057
0.00131091
0.00134815
0.00131463
0.00122532
0.00113617
)
;

boundaryField
{
    floor
    {
        type            compressible::alphatWallFunction;
        Prt             0.85;
        value           nonuniform List<scalar> 
29
(
0.000182218
0.00010662
0.000124878
0.000146385
0.000160561
0.000163838
0.000160811
0.000151407
0.000141069
0.000131653
0.000123376
0.000116122
0.000109748
0.000104091
9.90288e-05
9.43871e-05
8.99118e-05
8.5227e-05
8.02108e-05
7.19631e-05
7.19622e-05
8.17591e-05
8.78137e-05
9.25397e-05
0.000182216
0.000106618
0.00010338
0.000117858
0.000219052
)
;
    }
    ceiling
    {
        type            compressible::alphatWallFunction;
        Prt             0.85;
        value           nonuniform List<scalar> 
43
(
0.000321434
0.000340204
0.000354071
0.000365969
0.000320283
0.000293748
0.000273542
0.000253299
0.000234311
0.000219296
0.000208539
0.000200775
0.000194647
0.00018897
0.00018274
0.000175193
0.00016593
0.000155111
0.000143553
0.000132484
0.000123088
0.000116085
0.000111606
0.000109355
0.000108907
0.000109915
0.000112165
0.000115546
0.000120013
0.000125563
0.000132219
0.000140025
0.000149056
0.000159403
0.000171049
0.000185476
0.000190557
0.000185991
0.000173756
0.000161447
0.00049878
0.000571897
0.000384579
)
;
    }
    sWall
    {
        type            compressible::alphatWallFunction;
        Prt             0.85;
        value           uniform 0.000320211;
    }
    nWall
    {
        type            compressible::alphatWallFunction;
        Prt             0.85;
        value           nonuniform List<scalar> 6(0.00013595 0.000142477 0.000160016 0.000185356 0.000187734 0.000161118);
    }
    sideWalls
    {
        type            empty;
    }
    glass1
    {
        type            compressible::alphatWallFunction;
        Prt             0.85;
        value           nonuniform List<scalar> 9(0.000216087 0.000276915 0.000325865 0.000371664 0.000417489 0.000464556 0.000501279 0.00050547 0.000490826);
    }
    glass2
    {
        type            compressible::alphatWallFunction;
        Prt             0.85;
        value           nonuniform List<scalar> 2(0.000244303 0.000227261);
    }
    sun
    {
        type            compressible::alphatWallFunction;
        Prt             0.85;
        value           nonuniform List<scalar> 
14
(
0.00022178
0.000245175
0.000253947
0.000268006
0.000282576
0.000297103
0.000307728
0.000312785
0.000311138
0.000294516
0.000274774
0.000253592
0.000228848
0.00020671
)
;
    }
    heatsource1
    {
        type            compressible::alphatWallFunction;
        Prt             0.85;
        value           nonuniform List<scalar> 3(0.000101497 0.00012133 0.000136301);
    }
    heatsource2
    {
        type            compressible::alphatWallFunction;
        Prt             0.85;
        value           nonuniform List<scalar> 4(0.000209418 0.000176173 0.000176171 0.00020016);
    }
    Table_master
    {
        type            compressible::alphatWallFunction;
        Prt             0.85;
        value           nonuniform List<scalar> 9(0.000201317 0.000176362 0.000155662 0.000138743 0.000124901 0.000113509 0.000104078 9.64644e-05 9.09296e-05);
    }
    Table_slave
    {
        type            compressible::alphatWallFunction;
        Prt             0.85;
        value           nonuniform List<scalar> 9(0.000225955 0.000205726 0.000189782 0.000176709 0.000165094 0.000154044 0.000142966 0.000131357 0.00011832);
    }
    inlet
    {
        type            fixedValue;
        value           uniform 1.94e-05;
    }
    outlet
    {
        type            zeroGradient;
    }
}


// ************************************************************************* //
