/*--------------------------------*- C++ -*----------------------------------*\
  =========                 |
  \\      /  F ield         | OpenFOAM: The Open Source CFD Toolbox
   \\    /   O peration     | Website:  https://openfoam.org
    \\  /    A nd           | Version:  6
     \\/     M anipulation  |
\*---------------------------------------------------------------------------*/
FoamFile
{
    version     2.0;
    format      ascii;
    class       volScalarField;
    location    "1100";
    object      nut;
}
// * * * * * * * * * * * * * * * * * * * * * * * * * * * * * * * * * * * * * //

dimensions      [0 2 -1 0 0 0 0];

internalField   nonuniform List<scalar> 
459
(
0.000789791
0.000849523
0.000778108
0.000733602
0.000689088
0.000644864
0.000607841
0.000579797
0.000558658
0.000545073
0.000539997
0.000543034
0.000552022
0.00056361
0.000580042
0.000383652
0.000403094
0.000321897
0.000304582
0.000294682
0.000287148
0.000279561
0.000267534
0.000269742
0.00027231
0.000277633
0.000309557
0.000355185
0.000385556
0.00039665
0.000428438
0.000469322
0.000556639
0.00046273
0.00114107
0.00332266
0.00326925
0.00305743
0.00268576
0.0027958
0.00291581
0.00282162
0.00258124
0.00229127
0.0020283
0.00182146
0.00164925
0.00146076
0.00118034
0.000707484
0.000590385
0.000600593
0.00184581
0.00141534
0.00134398
0.0012086
0.000890634
0.000474714
0.00036611
0.000354872
0.000397008
0.000478869
0.000645684
0.000920878
0.00122911
0.00145087
0.0019161
0.00197047
0.00223899
0.000729685
0.0013964
0.0021587
0.00253945
0.003068
0.00335367
0.00330182
0.00367655
0.00391825
0.0038074
0.00347794
0.00309177
0.00275491
0.00247802
0.00220469
0.00186497
0.00142389
0.000875131
0.000847725
0.00270078
0.00246274
0.0022297
0.00183918
0.00133326
0.000394956
0.000327755
0.000375863
0.000438301
0.000498512
0.000569316
0.000655409
0.000764843
0.000921164
0.00264562
0.00295639
0.00353946
0.00102771
0.00227553
0.0020392
0.00214326
0.00261837
0.00325255
0.00350147
0.00382079
0.00437356
0.00459813
0.00448081
0.00420109
0.00391142
0.00366079
0.00340093
0.00303342
0.00244307
0.00161211
0.000963376
0.0025843
0.00328041
0.00273334
0.00193592
0.00125241
0.000827764
0.000624838
0.000659278
0.000700306
0.000747722
0.000803242
0.000870025
0.000949024
0.00104653
0.00117725
0.00306802
0.00322224
0.00330382
0.00121104
0.00283267
0.00267231
0.00229764
0.00239157
0.00297392
0.00344782
0.00385338
0.00444922
0.00498062
0.00515938
0.00514007
0.00509986
0.00511217
0.00516789
0.00521548
0.00516569
0.00494166
0.00461067
0.00454485
0.0043065
0.0039054
0.00350692
0.00319223
0.00301994
0.00299243
0.0030759
0.0031648
0.00324844
0.00332005
0.00336866
0.0034124
0.00344635
0.0034645
0.00345146
0.00319495
0.00283288
0.00240688
0.00177469
0.00187853
0.00184615
0.00339426
0.00365915
0.0028338
0.00239657
0.00273177
0.00335647
0.00372513
0.00434327
0.00500485
0.00536576
0.00553606
0.00569893
0.005919
0.00617368
0.00640095
0.00653968
0.00653109
0.00635719
0.00610978
0.00585851
0.00562102
0.00540843
0.0052252
0.00511205
0.0050741
0.00508781
0.00511857
0.00514793
0.00516599
0.0051666
0.00514958
0.00511905
0.00507752
0.00503323
0.00500651
0.00505616
0.0052451
0.00562279
0.00607475
0.00233557
0.00399443
0.00432256
0.00337333
0.00252746
0.00267661
0.00354015
0.00401402
0.00428988
0.00478381
0.00510753
0.0053858
0.0057111
0.00610473
0.00654302
0.00698251
0.00735182
0.00758693
0.00766114
0.00762558
0.00753541
0.00741535
0.0072742
0.00711951
0.00698382
0.00688758
0.00682999
0.00679626
0.00676954
0.00673727
0.00668967
0.0066319
0.00657118
0.00651317
0.00646368
0.00642752
0.0064222
0.00653914
0.00712937
0.0086952
0.00274957
0.00469831
0.00547331
0.00478188
0.00272449
0.0031119
0.00426848
0.00457345
0.00441737
0.00446127
0.00472026
0.00510017
0.00556113
0.0060808
0.00663513
0.00720268
0.00774375
0.00820179
0.00852503
0.00871776
0.00881106
0.00882831
0.00878418
0.00869215
0.0085787
0.00846685
0.00836921
0.00828511
0.00820123
0.00810277
0.00798522
0.00785172
0.00770511
0.00755209
0.00740776
0.00729658
0.00725489
0.00730535
0.0075649
0.00955473
0.00315923
0.00568364
0.00727746
0.0119925
0.0036888
0.00322582
0.00459001
0.00446601
0.00434635
0.00458779
0.00504322
0.00556904
0.00612231
0.00666944
0.00718617
0.00768057
0.00815991
0.00860613
0.00898613
0.00928204
0.00949344
0.00962631
0.00968833
0.00969026
0.00964806
0.00957949
0.00949947
0.00941388
0.00931567
0.0091968
0.00905221
0.00888013
0.00867514
0.00843469
0.00816532
0.00788971
0.00766068
0.00757232
0.00773949
0.00890106
0.00304294
0.0208895
0.0111759
0.00391199
0.004986
0.00533368
0.00568515
0.00613107
0.00668533
0.00731037
0.00793528
0.00848215
0.00889579
0.00920353
0.00944979
0.00966415
0.00985738
0.0100283
0.0101719
0.0102834
0.0103596
0.0104004
0.0104091
0.010392
0.0103562
0.0103069
0.0102425
0.010155
0.0100389
0.00988279
0.00967689
0.00941616
0.00910254
0.00874952
0.0083882
0.0080698
0.00782514
0.00712871
0.00203317
0.00859899
0.0113619
0.00830127
0.00702791
0.0063986
0.00623993
0.00647707
0.0070519
0.00786477
0.00874844
0.00950045
0.0100038
0.0102942
0.0104453
0.010523
0.0105698
0.0106064
0.0106391
0.0106672
0.0106876
0.0106976
0.0106965
0.0106852
0.0106662
0.0106434
0.0106209
0.0106007
0.0105675
0.0104894
0.0103621
0.0101872
0.00996756
0.00970609
0.00940345
0.00904944
0.00860067
0.00699349
0.00213358
0.00197131
0.00244717
0.00489293
0.00459763
0.00416702
0.00376879
0.00342096
0.00312482
0.00288398
0.00270314
0.002585
0.00252553
0.00251362
0.00252978
0.00254942
0.00256127
0.00256352
0.00255845
0.0025491
0.00253782
0.00252598
0.00251414
0.00250233
0.00249039
0.00247813
0.00246542
0.00245217
0.00243832
0.00242384
0.00240952
0.00239671
0.00238326
0.00236796
0.00235038
0.00233054
0.00230844
0.00228407
0.0022583
0.00210573
0.00185888
)
;

boundaryField
{
    floor
    {
        type            nutkWallFunction;
        Cmu             0.09;
        kappa           0.41;
        E               9.8;
        value           nonuniform List<scalar> 
29
(
6.9796e-05
4.45056e-05
4.70733e-05
3.62815e-05
3.39408e-05
3.25903e-05
3.1554e-05
3.051e-05
2.88451e-05
2.91469e-05
2.95105e-05
3.02404e-05
3.46116e-05
4.07625e-05
4.47942e-05
4.62561e-05
5.04232e-05
5.57289e-05
6.68788e-05
5.48766e-05
5.48765e-05
8.83591e-05
0.000124047
0.000145399
6.9796e-05
4.45056e-05
7.23527e-05
0.000102636
0.000116454
)
;
    }
    ceiling
    {
        type            nutkWallFunction;
        Cmu             0.09;
        kappa           0.41;
        E               9.8;
        value           nonuniform List<scalar> 
43
(
0.000231089
0.000282684
0.000534802
0.000505146
0.000461593
0.000420928
0.000385064
0.000354239
0.000328953
0.000309823
0.000297251
0.000290896
0.000289613
0.000291326
0.000293408
0.000294656
0.000294882
0.000294329
0.000293318
0.000292103
0.000290828
0.000289553
0.000288281
0.000286995
0.000285674
0.000284304
0.000282876
0.000281384
0.000279823
0.000278277
0.000276895
0.000275443
0.000273791
0.000271894
0.000269751
0.000267363
0.000264725
0.000261925
0.000245373
0.000218349
0.000612511
0.00076738
0.000894006
)
;
    }
    sWall
    {
        type            nutkWallFunction;
        Cmu             0.09;
        kappa           0.41;
        E               9.8;
        value           uniform 0.000231118;
    }
    nWall
    {
        type            nutkWallFunction;
        Cmu             0.09;
        kappa           0.41;
        E               9.8;
        value           nonuniform List<scalar> 6(0.000216887 0.00027014 0.000314268 0.000237435 0.000248359 0.000218355);
    }
    sideWalls
    {
        type            empty;
    }
    glass1
    {
        type            nutkWallFunction;
        Cmu             0.09;
        kappa           0.41;
        E               9.8;
        value           nonuniform List<scalar> 9(9.56701e-05 0.000137367 0.000166704 0.000263963 0.000323389 0.000382059 0.000443675 0.000514773 0.000612581);
    }
    glass2
    {
        type            nutkWallFunction;
        Cmu             0.09;
        kappa           0.41;
        E               9.8;
        value           nonuniform List<scalar> 2(0.000357096 0.00034497);
    }
    sun
    {
        type            nutkWallFunction;
        Cmu             0.09;
        kappa           0.41;
        E               9.8;
        value           nonuniform List<scalar> 
14
(
9.56724e-05
0.000102879
9.42574e-05
8.88342e-05
8.3373e-05
7.79059e-05
7.32943e-05
6.97775e-05
6.71116e-05
6.53904e-05
6.47442e-05
6.51267e-05
6.62629e-05
6.77262e-05
)
;
    }
    heatsource1
    {
        type            nutkWallFunction;
        Cmu             0.09;
        kappa           0.41;
        E               9.8;
        value           nonuniform List<scalar> 3(0.000208994 0.000220457 0.000216906);
    }
    heatsource2
    {
        type            nutkWallFunction;
        Cmu             0.09;
        kappa           0.41;
        E               9.8;
        value           nonuniform List<scalar> 4(8.562e-05 7.10982e-05 7.10982e-05 0.000105944);
    }
    Table_master
    {
        type            nutkWallFunction;
        Cmu             0.09;
        kappa           0.41;
        E               9.8;
        value           nonuniform List<scalar> 9(4.60333e-05 3.70512e-05 4.34704e-05 5.16812e-05 5.94556e-05 6.84508e-05 7.92088e-05 9.26449e-05 0.000111457);
    }
    Table_slave
    {
        type            nutkWallFunction;
        Cmu             0.09;
        kappa           0.41;
        E               9.8;
        value           nonuniform List<scalar> 9(7.53449e-05 7.96215e-05 8.46844e-05 9.04938e-05 9.72421e-05 0.000105288 0.000114716 0.000126229 0.000141474);
    }
    inlet
    {
        type            calculated;
        value           uniform 0.0208895;
    }
    outlet
    {
        type            calculated;
        value           nonuniform List<scalar> 2(0.00197131 0.00244717);
    }
}


// ************************************************************************* //
