/*--------------------------------*- C++ -*----------------------------------*\
  =========                 |
  \\      /  F ield         | OpenFOAM: The Open Source CFD Toolbox
   \\    /   O peration     | Website:  https://openfoam.org
    \\  /    A nd           | Version:  6
     \\/     M anipulation  |
\*---------------------------------------------------------------------------*/
FoamFile
{
    version     2.0;
    format      ascii;
    class       volScalarField;
    location    "710";
    object      alphat;
}
// * * * * * * * * * * * * * * * * * * * * * * * * * * * * * * * * * * * * * //

dimensions      [1 -1 -1 0 0 0 0];

internalField   nonuniform List<scalar> 
459
(
0.000719278
0.000797808
0.000832781
0.000879192
0.000922882
0.000966366
0.00101325
0.00105533
0.00108863
0.00110682
0.00110141
0.00105128
0.00093658
0.000798743
0.000685804
0.000444243
0.000644507
0.000648965
0.000652947
0.000648348
0.000633219
0.000602186
0.000567838
0.000535587
0.000506362
0.000480127
0.00045662
0.000435272
0.000415491
0.000396532
0.000377307
0.000356006
0.000322682
0.000287277
0.000915116
0.0022354
0.00217504
0.00251632
0.0028864
0.00324506
0.00351137
0.00380034
0.00409935
0.00438106
0.00460567
0.00470719
0.00454546
0.00400267
0.00261943
0.000839883
0.000668238
0.000664548
0.00210893
0.00217978
0.00246602
0.00264147
0.0025529
0.00186879
0.00157988
0.00139029
0.00125014
0.00113977
0.00104343
0.000956042
0.000871852
0.000787546
0.000713856
0.000670508
0.000547047
0.000348552
0.00108015
0.00302902
0.00275118
0.00315565
0.0033913
0.00356802
0.00371114
0.00392143
0.0042192
0.00460771
0.00504437
0.00542636
0.00556567
0.0053336
0.00448317
0.00286695
0.00081378
0.00074509
0.001789
0.00253334
0.00311325
0.00343592
0.00312499
0.000805658
0.000710125
0.000633432
0.000572223
0.00052304
0.000483389
0.0004513
0.000425709
0.00040682
0.000462523
0.00056647
0.000587906
0.000379431
0.00123714
0.00364444
0.00278746
0.00322503
0.00326262
0.00324138
0.0032831
0.00343028
0.00372597
0.00420023
0.00478956
0.00533447
0.00565017
0.00570361
0.00538748
0.00440894
0.00238108
0.000940699
0.00146669
0.0023005
0.00322339
0.00391918
0.00424615
0.00377046
0.00087765
0.000805531
0.000759419
0.000728052
0.000703701
0.000680224
0.000653823
0.000626179
0.00059301
0.000563272
0.000579446
0.000654171
0.000427185
0.00139902
0.00440968
0.00280258
0.00313017
0.00309308
0.00295198
0.00294841
0.00306233
0.00336187
0.00390241
0.00458164
0.00514337
0.00549693
0.00564761
0.00560819
0.00524168
0.00446388
0.00414132
0.00445507
0.00486506
0.00518208
0.00532775
0.00528562
0.0049802
0.00408295
0.00371638
0.0035474
0.003449
0.00336027
0.00324092
0.00302982
0.00266436
0.00218384
0.00166456
0.00124473
0.00104959
0.000717607
0.000496252
0.000505463
0.000523835
0.00157652
0.00534527
0.00339087
0.00302272
0.00308102
0.00297411
0.00286108
0.00292959
0.00323327
0.00381239
0.00451078
0.00509223
0.00542835
0.00556437
0.00563547
0.0057014
0.005734
0.00599379
0.00623265
0.00633308
0.00626902
0.00606195
0.00575577
0.0053921
0.0050051
0.0047567
0.00460875
0.00450447
0.00440448
0.00427744
0.00409379
0.00378733
0.00333985
0.00277454
0.00219012
0.00175361
0.00134097
0.00104693
0.00116168
0.000710161
0.00175596
0.00611802
0.0046957
0.00341566
0.0032145
0.00315818
0.00298044
0.00296147
0.00325888
0.00388403
0.0046344
0.00523618
0.00555147
0.00566526
0.00580644
0.00611775
0.00647534
0.00677908
0.00687514
0.00674896
0.00644814
0.00604002
0.00559755
0.00519385
0.00489199
0.0047163
0.00461755
0.00454757
0.00447408
0.00437105
0.00422664
0.00404792
0.00378864
0.00339591
0.00291577
0.00245284
0.00199971
0.00163491
0.00155225
0.00084938
0.00181157
0.00589622
0.00499454
0.00427148
0.00385987
0.00343358
0.00306363
0.00301562
0.0034015
0.0041458
0.00496772
0.00556895
0.00584814
0.00595138
0.0061052
0.00636946
0.0065994
0.00671616
0.0066279
0.00634128
0.00592868
0.00547932
0.00507075
0.00475378
0.00454201
0.00441125
0.00432183
0.00424645
0.0041653
0.00405868
0.00392626
0.00380948
0.00374953
0.00362546
0.00337492
0.00311772
0.00285841
0.00246219
0.00263742
0.00113246
0.00178829
0.00214436
0.00237944
0.00247731
0.00246111
0.00242735
0.00251327
0.00291643
0.00369501
0.00468517
0.00554723
0.00604338
0.00620134
0.00621301
0.00611568
0.00605777
0.0060567
0.00602285
0.00585882
0.00557469
0.00524525
0.00493721
0.00468435
0.00449004
0.00433675
0.00420024
0.00406212
0.00391459
0.00375036
0.00354823
0.00328866
0.00300232
0.00274452
0.00253923
0.00236004
0.00219087
0.00203602
0.00189625
0.00179715
0.0011704
0.000651277
0.00110259
0.00150837
0.00200126
0.00276829
0.00379132
0.00490133
0.00584953
0.00635321
0.00640286
0.00618605
0.0059116
0.00573085
0.00565738
0.00562172
0.00556249
0.00545417
0.00530017
0.00513365
0.00498043
0.00484655
0.00472284
0.00459115
0.00443116
0.00422644
0.00397007
0.00366891
0.00334202
0.00300875
0.00268646
0.0024267
0.0022449
0.00212391
0.00203848
0.0019545
0.0018425
0.00172281
0.00121564
0.00105728
0.00255041
0.00363689
0.00488873
0.00589577
0.00649766
0.00697873
0.00723959
0.00706673
0.00662368
0.0061815
0.00589913
0.00577051
0.00573001
0.00572659
0.00573027
0.00572401
0.00569664
0.00564218
0.00557502
0.00551791
0.00547169
0.00542597
0.00536026
0.00524564
0.00505119
0.0047561
0.00436361
0.00392032
0.00347582
0.00307412
0.00274326
0.0024945
0.00231614
0.00217465
0.00206571
0.00259182
0.00131204
0.00135456
0.00140148
0.00144836
0.00168864
0.00170363
0.00167177
0.00162573
0.00161094
0.0016036
0.00156915
0.00151852
0.00145837
0.00140939
0.00138132
0.00136846
0.00136357
0.00136174
0.00135978
0.00135612
0.00135126
0.00134728
0.00134501
0.00134278
0.00133918
0.00133172
0.00131731
0.00129336
0.00125932
0.00121846
0.00117877
0.00114523
0.00112036
0.00110513
0.00110007
0.00110516
0.00111807
0.0011316
0.00112359
0.00110188
0.00107262
)
;

boundaryField
{
    floor
    {
        type            compressible::alphatWallFunction;
        Prt             0.85;
        value           nonuniform List<scalar> 
29
(
9.72956e-05
6.08035e-05
9.11914e-05
9.18541e-05
9.24453e-05
9.17638e-05
8.95165e-05
8.48853e-05
7.97247e-05
7.48439e-05
7.0389e-05
6.63623e-05
6.27305e-05
5.94118e-05
5.63178e-05
5.33347e-05
5.02906e-05
4.68941e-05
4.15259e-05
3.57402e-05
3.57397e-05
4.56988e-05
5.06279e-05
5.81497e-05
9.72944e-05
6.08028e-05
9.41598e-05
0.000105988
0.000134111
)
;
    }
    ceiling
    {
        type            compressible::alphatWallFunction;
        Prt             0.85;
        value           nonuniform List<scalar> 
43
(
0.000191503
0.000197872
0.000204214
0.000236378
0.000238373
0.000234151
0.000228029
0.000226059
0.000225082
0.00022048
0.000213694
0.000205598
0.000198979
0.000195174
0.000193428
0.000192763
0.000192514
0.000192249
0.000191751
0.000191089
0.000190548
0.00019024
0.000189936
0.000189446
0.000188428
0.000186464
0.000183192
0.00017853
0.000172916
0.00016744
0.000162798
0.000159344
0.000157225
0.000156521
0.000157229
0.000159026
0.000160905
0.000159793
0.000156773
0.000152693
0.000249587
0.000296072
0.000150497
)
;
    }
    sWall
    {
        type            compressible::alphatWallFunction;
        Prt             0.85;
        value           uniform 0.00019123;
    }
    nWall
    {
        type            compressible::alphatWallFunction;
        Prt             0.85;
        value           nonuniform List<scalar> 6(7.28459e-05 0.000100656 0.000120848 0.000172281 0.000185495 0.000152448);
    }
    sideWalls
    {
        type            empty;
    }
    glass1
    {
        type            compressible::alphatWallFunction;
        Prt             0.85;
        value           nonuniform List<scalar> 9(0.00010156 0.00012972 0.000152904 0.000174586 0.000196622 0.000220463 0.000244267 0.000251602 0.00024856);
    }
    glass2
    {
        type            compressible::alphatWallFunction;
        Prt             0.85;
        value           nonuniform List<scalar> 2(0.000160241 0.000165505);
    }
    sun
    {
        type            compressible::alphatWallFunction;
        Prt             0.85;
        value           nonuniform List<scalar> 
14
(
0.000102214
0.000113643
0.000118689
0.000125348
0.000131578
0.000137744
0.000144356
0.00015026
0.000154914
0.000157448
0.000156695
0.000149693
0.000133524
0.000113779
)
;
    }
    heatsource1
    {
        type            compressible::alphatWallFunction;
        Prt             0.85;
        value           nonuniform List<scalar> 3(6.87727e-05 7.01834e-05 7.29873e-05);
    }
    heatsource2
    {
        type            compressible::alphatWallFunction;
        Prt             0.85;
        value           nonuniform List<scalar> 4(0.000119643 9.46377e-05 9.46365e-05 0.000115882);
    }
    Table_master
    {
        type            compressible::alphatWallFunction;
        Prt             0.85;
        value           nonuniform List<scalar> 9(0.000114708 0.000100802 8.9475e-05 8.0314e-05 7.28649e-05 6.67957e-05 6.18378e-05 5.78518e-05 5.489e-05);
    }
    Table_slave
    {
        type            compressible::alphatWallFunction;
        Prt             0.85;
        value           nonuniform List<scalar> 9(0.000125059 0.000114692 0.000108006 0.00010343 9.98614e-05 9.64065e-05 9.2504e-05 8.8397e-05 8.34396e-05);
    }
    inlet
    {
        type            fixedValue;
        value           uniform 1.94e-05;
    }
    outlet
    {
        type            zeroGradient;
    }
}


// ************************************************************************* //
