/*--------------------------------*- C++ -*----------------------------------*\
  =========                 |
  \\      /  F ield         | OpenFOAM: The Open Source CFD Toolbox
   \\    /   O peration     | Website:  https://openfoam.org
    \\  /    A nd           | Version:  6
     \\/     M anipulation  |
\*---------------------------------------------------------------------------*/
FoamFile
{
    version     2.0;
    format      ascii;
    class       volScalarField;
    location    "1300";
    object      alphat;
}
// * * * * * * * * * * * * * * * * * * * * * * * * * * * * * * * * * * * * * //

dimensions      [1 -1 -1 0 0 0 0];

internalField   nonuniform List<scalar> 
459
(
0.0013242
0.00145725
0.00149674
0.001573
0.00164471
0.0017141
0.00178586
0.00184378
0.001878
0.00188148
0.00184966
0.0017789
0.00166368
0.00148538
0.00121171
0.000594471
0.00071201
0.000823056
0.000856788
0.00084246
0.00081173
0.000759552
0.000705068
0.000655747
0.000612475
0.000574612
0.000541362
0.000511858
0.00048561
0.00046166
0.000438737
0.000414999
0.000392185
0.000351991
0.00176357
0.00445396
0.00434328
0.00506998
0.00580618
0.00651015
0.00704455
0.00751283
0.00791941
0.00822807
0.0084093
0.00843444
0.00825573
0.00775959
0.00633332
0.00143673
0.0010017
0.000602975
0.0014452
0.00211109
0.00262946
0.00294085
0.00292893
0.00217804
0.00182239
0.00158129
0.00140261
0.00126449
0.00115456
0.00106605
0.000984619
0.000902188
0.000825612
0.000759513
0.000825853
0.000424986
0.00212442
0.00606052
0.00543641
0.00660073
0.0072112
0.00767103
0.00801972
0.008375
0.00876276
0.00915474
0.00951291
0.00979343
0.00990624
0.00974927
0.00901327
0.00673551
0.00151151
0.00108823
0.00177676
0.00250767
0.0032142
0.00371832
0.00361984
0.00108244
0.000943938
0.00083236
0.000742674
0.000670077
0.000610747
0.000561848
0.000521806
0.000490112
0.000529674
0.000611542
0.000920981
0.000474277
0.00246705
0.00759676
0.00549953
0.00690925
0.00731
0.00747046
0.00762436
0.00788435
0.00825294
0.00869687
0.00917035
0.00961366
0.00989212
0.0099957
0.00982014
0.00889191
0.00535016
0.00175327
0.00213371
0.00285745
0.00372618
0.00452394
0.00505154
0.00474864
0.0012288
0.00110726
0.00101577
0.000942443
0.000881482
0.00082712
0.000775205
0.000722324
0.000663778
0.000613181
0.000620113
0.00101982
0.000515596
0.00281653
0.00956225
0.00598587
0.00677089
0.00720413
0.00719241
0.00723511
0.00743981
0.00779418
0.0082655
0.00878591
0.00924695
0.00955811
0.0096912
0.00965504
0.00936498
0.00845019
0.00732309
0.00702723
0.00709033
0.00726364
0.00739459
0.00738427
0.00705249
0.0057949
0.00512233
0.00469276
0.0043557
0.00399614
0.00358884
0.00312156
0.00259545
0.00202894
0.00147231
0.00107629
0.00108056
0.000678054
0.00062867
0.000769586
0.000863894
0.00318985
0.01174
0.00805648
0.00698049
0.00735076
0.00726834
0.00725683
0.00735051
0.00763419
0.00811088
0.00867263
0.00916357
0.00946004
0.00953386
0.00946227
0.00936577
0.00930335
0.00931163
0.00942114
0.00949325
0.00944406
0.00926141
0.00895404
0.00850731
0.00785559
0.00725935
0.00673863
0.00625068
0.00574015
0.00518995
0.0045832
0.00390694
0.00316554
0.00240178
0.00177069
0.00135753
0.000975614
0.000810172
0.00114206
0.000897105
0.00352468
0.0132312
0.0110437
0.00891161
0.00841992
0.00789305
0.00750737
0.00743901
0.00771965
0.00826885
0.00890989
0.00943637
0.00970689
0.00971537
0.00961086
0.00963337
0.00993447
0.0103742
0.0106734
0.0106997
0.0104751
0.0100749
0.00956338
0.00897716
0.00833363
0.00770427
0.00710643
0.00653187
0.0059758
0.00544515
0.00491553
0.00433996
0.00370034
0.00301509
0.00240791
0.0019037
0.00150209
0.0013264
0.0012689
0.000998071
0.00358501
0.0115148
0.0104068
0.00942234
0.00842807
0.00762215
0.00726795
0.00741991
0.00799156
0.00879097
0.00956228
0.0100773
0.0102385
0.0101311
0.0100244
0.0102107
0.0106873
0.0110833
0.0111542
0.0109071
0.0104282
0.00979954
0.00908453
0.00833093
0.00758055
0.00686986
0.0062074
0.00559769
0.00505924
0.00462088
0.00429777
0.00402532
0.0036566
0.00321018
0.00284934
0.00262976
0.0025895
0.00276643
0.00351662
0.00153553
0.00348738
0.00412306
0.00451098
0.00460481
0.00483458
0.00542265
0.00638911
0.00763329
0.0089478
0.0100745
0.0107782
0.0109514
0.0107145
0.0104207
0.0104925
0.0106641
0.0107724
0.0106918
0.010374
0.00984123
0.00915026
0.00836043
0.00752978
0.00671346
0.00594763
0.00524582
0.004608
0.0040397
0.00355227
0.00315108
0.00283363
0.00259922
0.00243142
0.00231698
0.00226492
0.00226527
0.0022652
0.00220923
0.00208103
0.00144231
0.0015234
0.00351506
0.00680356
0.00918747
0.0108247
0.0118591
0.0123236
0.0122724
0.0118388
0.0111434
0.0104281
0.00997579
0.00980274
0.00961624
0.00928776
0.00880683
0.0081882
0.00747414
0.00672622
0.0060022
0.00533707
0.00473967
0.0042054
0.00372524
0.00329822
0.00293389
0.00264425
0.00243525
0.00230162
0.00222626
0.00219763
0.00220533
0.00223789
0.00227188
0.00226819
0.00219368
0.00195545
0.00118064
0.00224984
0.00708686
0.0100494
0.0112452
0.0116312
0.0114946
0.0109537
0.0101842
0.00938943
0.00868256
0.00810027
0.00764494
0.00724178
0.00682676
0.00639578
0.00595234
0.00550467
0.00507426
0.00468254
0.00433789
0.00403512
0.00376272
0.00351021
0.00327153
0.00304587
0.00283679
0.00265056
0.00249458
0.00237559
0.00229827
0.00226462
0.00226946
0.00229536
0.00231121
0.00228772
0.0022836
0.00180823
0.00121299
0.00205969
0.00218931
0.00228
0.00248529
0.00241509
0.00234888
0.00228032
0.00216809
0.00201718
0.00184535
0.00166949
0.00150873
0.00138096
0.00128829
0.00122214
0.0011726
0.0011324
0.00109714
0.00106493
0.00103541
0.00100861
0.000984325
0.000962205
0.000942105
0.000924364
0.00090992
0.000900166
0.000896597
0.000900423
0.000912357
0.000932671
0.000961475
0.000998921
0.00104508
0.00109869
0.00115461
0.00116758
0.00104031
0.00102577
0.00127588
)
;

boundaryField
{
    floor
    {
        type            compressible::alphatWallFunction;
        Prt             0.85;
        value           nonuniform List<scalar> 
29
(
0.000171803
8.35706e-05
0.000100988
0.000117124
0.000121972
0.000119915
0.00011549
0.00010793
9.99684e-05
9.26976e-05
8.62634e-05
8.05877e-05
7.55653e-05
7.10766e-05
6.7056e-05
6.33635e-05
5.98066e-05
5.6098e-05
5.25084e-05
4.61168e-05
4.61162e-05
5.76631e-05
6.53144e-05
7.16508e-05
0.000171801
8.35696e-05
8.48443e-05
0.000154685
0.000244766
)
;
    }
    ceiling
    {
        type            compressible::alphatWallFunction;
        Prt             0.85;
        value           nonuniform List<scalar> 
43
(
0.000284805
0.000301577
0.000313251
0.00033963
0.000330734
0.000322292
0.000313514
0.000299069
0.000279511
0.000257043
0.000233809
0.000212329
0.000195075
0.000182449
0.000173372
0.000166539
0.000160968
0.000156065
0.00015157
0.000147436
0.000143672
0.00014025
0.000137125
0.000134278
0.000131758
0.000129703
0.000128313
0.000127804
0.000128349
0.000130049
0.000132937
0.00013702
0.000142306
0.000148792
0.000156282
0.000164051
0.000165847
0.000148124
0.000146087
0.000180763
0.000465032
0.000542439
0.000309157
)
;
    }
    sWall
    {
        type            compressible::alphatWallFunction;
        Prt             0.85;
        value           uniform 0.000283607;
    }
    nWall
    {
        type            compressible::alphatWallFunction;
        Prt             0.85;
        value           nonuniform List<scalar> 6(0.000122818 0.00012756 0.000141861 0.000167342 0.000171803 0.000180447);
    }
    sideWalls
    {
        type            empty;
    }
    glass1
    {
        type            compressible::alphatWallFunction;
        Prt             0.85;
        value           nonuniform List<scalar> 9(0.000182804 0.000240971 0.000287664 0.000331289 0.000375188 0.000421494 0.000462596 0.000470089 0.000458396);
    }
    glass2
    {
        type            compressible::alphatWallFunction;
        Prt             0.85;
        value           nonuniform List<scalar> 2(0.000214455 0.000202019);
    }
    sun
    {
        type            compressible::alphatWallFunction;
        Prt             0.85;
        value           nonuniform List<scalar> 
14
(
0.000187224
0.000205253
0.00021057
0.000220799
0.000230366
0.00023958
0.000249066
0.000256693
0.000261186
0.000261642
0.000257464
0.000248148
0.000232889
0.000209044
)
;
    }
    heatsource1
    {
        type            compressible::alphatWallFunction;
        Prt             0.85;
        value           nonuniform List<scalar> 3(8.87665e-05 0.000109482 0.000123087);
    }
    heatsource2
    {
        type            compressible::alphatWallFunction;
        Prt             0.85;
        value           nonuniform List<scalar> 4(0.000202589 0.000142655 0.000142653 0.000212667);
    }
    Table_master
    {
        type            compressible::alphatWallFunction;
        Prt             0.85;
        value           nonuniform List<scalar> 9(0.000153971 0.000134492 0.000118555 0.000105561 9.49047e-05 8.60912e-05 7.87477e-05 7.26754e-05 6.78275e-05);
    }
    Table_slave
    {
        type            compressible::alphatWallFunction;
        Prt             0.85;
        value           nonuniform List<scalar> 9(0.000174249 0.000157434 0.000144637 0.000134283 0.000125603 0.000117803 0.000110297 0.00010259 9.39759e-05);
    }
    inlet
    {
        type            fixedValue;
        value           uniform 1.94e-05;
    }
    outlet
    {
        type            zeroGradient;
    }
}


// ************************************************************************* //
