/*--------------------------------*- C++ -*----------------------------------*\
  =========                 |
  \\      /  F ield         | OpenFOAM: The Open Source CFD Toolbox
   \\    /   O peration     | Website:  https://openfoam.org
    \\  /    A nd           | Version:  6
     \\/     M anipulation  |
\*---------------------------------------------------------------------------*/
FoamFile
{
    version     2.0;
    format      ascii;
    class       volScalarField;
    location    "700";
    object      epsilon;
}
// * * * * * * * * * * * * * * * * * * * * * * * * * * * * * * * * * * * * * //

dimensions      [0 2 -3 0 0 0 0];

internalField   nonuniform List<scalar> 
459
(
0.000132694
0.000151292
0.00014666
0.000160667
0.000172895
0.000183335
0.0001923
0.000200188
0.000207468
0.0002147
0.000219538
0.000221144
0.000219431
0.00021579
0.00021094
8.44198e-05
6.80044e-05
5.75579e-05
5.09886e-05
4.63335e-05
4.23343e-05
3.83238e-05
3.47381e-05
3.15405e-05
2.86644e-05
2.60704e-05
2.37243e-05
2.15897e-05
1.96229e-05
1.77658e-05
1.59474e-05
1.40551e-05
1.26143e-05
9.7747e-06
0.000450177
0.00097645
0.000140582
0.000123499
0.000120048
0.000118719
0.000119159
0.000122263
0.000128977
0.000140035
0.000151808
0.00016191
0.000168175
0.000171227
0.000180511
0.000220305
0.000179655
0.000128374
6.61338e-05
4.59368e-05
3.74676e-05
3.24721e-05
2.89698e-05
2.7525e-05
2.51778e-05
2.28407e-05
2.05268e-05
1.83086e-05
1.62456e-05
1.43579e-05
1.26468e-05
1.11972e-05
1.05088e-05
1.06682e-05
2.71606e-05
1.91054e-05
0.00100845
0.0031304
0.000217893
0.000124382
0.000118609
0.00012108
0.000126835
0.000136137
0.000149094
0.00016505
0.000180897
0.000191765
0.000193905
0.000188428
0.000183742
0.000194186
0.000269325
0.000175762
5.71431e-05
3.98865e-05
3.34107e-05
2.95933e-05
2.87349e-05
6.41894e-05
4.69978e-05
3.61228e-05
2.89272e-05
2.39476e-05
2.03611e-05
1.77115e-05
1.57704e-05
1.45079e-05
1.17703e-05
1.11325e-05
5.15095e-05
2.93279e-05
0.00195647
0.00747947
0.000459711
0.000135761
0.00012308
0.000130357
0.000141241
0.000155727
0.00017458
0.000198034
0.000221804
0.00023628
0.000235798
0.000221598
0.00020006
0.0001825
0.00019338
0.000252052
9.94951e-05
5.18935e-05
3.58234e-05
2.94487e-05
2.68813e-05
2.8084e-05
6.96534e-05
6.15331e-05
5.88637e-05
5.75663e-05
5.55202e-05
5.15852e-05
4.69461e-05
4.20198e-05
3.61846e-05
2.32741e-05
1.69166e-05
9.13519e-05
4.0137e-05
0.00343324
0.0143681
0.00112677
0.000167591
0.000125111
0.000133879
0.000149486
0.000171313
0.000201895
0.000243186
0.000284648
0.00030713
0.000304967
0.000282061
0.000244932
0.000202156
0.000168935
0.000147125
8.59154e-05
5.40606e-05
3.50248e-05
2.85536e-05
2.75551e-05
2.9304e-05
3.43166e-05
3.82156e-05
4.15175e-05
4.34812e-05
4.32245e-05
4.03246e-05
3.62716e-05
3.28732e-05
3.01497e-05
2.54909e-05
2.08445e-05
6.54721e-05
4.49086e-05
8.80295e-05
0.00014968
0.000204832
0.00560157
0.0218943
0.00298468
0.000328245
0.000151186
0.000142505
0.00015526
0.000180421
0.000225476
0.000307656
0.00037617
0.000403718
0.000394591
0.000359502
0.000306606
0.000241368
0.000176016
0.000123816
9.34197e-05
5.83294e-05
3.74034e-05
3.09603e-05
3.15165e-05
3.52934e-05
4.13616e-05
4.85185e-05
5.55598e-05
6.08762e-05
6.28384e-05
5.97033e-05
5.06976e-05
4.1549e-05
3.39811e-05
2.80286e-05
2.50454e-05
4.49604e-05
4.58553e-05
6.17246e-05
0.000280147
0.000230224
0.00863568
0.0261821
0.00770208
0.00154593
0.000546475
0.000307745
0.000252666
0.000254388
0.000302078
0.000456943
0.000530107
0.000538277
0.000505615
0.000449035
0.000377336
0.000291951
0.000202226
0.000129385
0.000103748
6.53235e-05
4.28176e-05
3.7114e-05
3.89175e-05
4.45033e-05
5.2733e-05
6.29083e-05
7.44327e-05
8.5008e-05
9.30955e-05
9.5709e-05
8.80182e-05
7.11475e-05
5.68327e-05
4.63127e-05
4.28172e-05
5.35704e-05
7.0379e-05
0.000124435
0.000327373
0.000295057
0.0096439
0.0331932
0.0163043
0.00898959
0.00454206
0.0022641
0.00130299
0.00092933
0.000854297
0.000847379
0.000803685
0.000729782
0.000640815
0.000545812
0.000447403
0.000341338
0.000232215
0.000140061
0.000113764
7.53446e-05
5.19348e-05
4.67035e-05
4.93769e-05
5.62957e-05
6.63115e-05
7.89762e-05
9.39979e-05
0.000110999
0.000129665
0.000149076
0.000166726
0.00016986
0.000166449
0.000177
0.000208031
0.000324749
0.000649979
0.00144245
0.00475518
0.00126706
0.0092013
0.016792
0.0137351
0.010274
0.00734102
0.00502304
0.00344151
0.00246509
0.00187407
0.00145932
0.00116356
0.000944086
0.000772384
0.000629408
0.000502051
0.000375723
0.000248509
0.000140363
0.00011991
8.95234e-05
6.60008e-05
6.00001e-05
6.20405e-05
6.85648e-05
7.84519e-05
9.14838e-05
0.000107906
0.000128459
0.000154519
0.000188208
0.000232534
0.000291398
0.000369642
0.000493954
0.000684475
0.000948812
0.00125358
0.00151438
0.00169124
0.00101347
0.00575149
0.00778775
0.00617677
0.00466479
0.00348507
0.00262817
0.00202261
0.00158222
0.00125309
0.00100191
0.000803685
0.000640808
0.000500586
0.00036646
0.000234725
0.000121822
0.00012016
0.000111692
8.8814e-05
8.01752e-05
7.9728e-05
8.36694e-05
9.07822e-05
0.000100805
0.000113896
0.000130679
0.000152455
0.000181505
0.000221557
0.00027834
0.000358251
0.000470112
0.000618629
0.000788299
0.000929221
0.000972788
0.000868883
0.000550995
0.00412486
0.00700917
0.00559218
0.00421484
0.00322221
0.00246962
0.0018951
0.00146052
0.00112866
0.000872412
0.000671929
0.000512534
0.000383919
0.000277708
0.000187192
8.81667e-05
8.67923e-05
9.81005e-05
9.33276e-05
8.7202e-05
8.50803e-05
8.64436e-05
9.10294e-05
9.9039e-05
0.000110973
0.000127668
0.000150412
0.000181136
0.000222706
0.000279121
0.000355679
0.000458001
0.000587366
0.000735374
0.000850586
0.000969086
0.000757731
0.000570261
0.00275053
0.00322209
0.00365936
0.00442667
0.00376407
0.00296462
0.00236664
0.00189472
0.00150556
0.0011858
0.00094752
0.000762236
0.000609242
0.000478997
0.000366975
0.00027056
0.000183456
7.02287e-05
7.09433e-05
7.43677e-05
7.59168e-05
7.9414e-05
8.52817e-05
9.32734e-05
0.00010338
0.000115743
0.000130629
0.00014849
0.000170102
0.000196871
0.000231505
0.000274313
0.000327571
0.000394134
0.000477746
0.000603566
0.000652856
0.000614826
0.000504025
0.000400803
)
;

boundaryField
{
    floor
    {
        Cmu             0.09;
        kappa           0.41;
        E               9.8;
        type            epsilonWallFunction;
        value           nonuniform List<scalar> 
29
(
0.00021094
8.44198e-05
6.80044e-05
5.75579e-05
5.09886e-05
4.63335e-05
4.23343e-05
3.83238e-05
3.47381e-05
3.15405e-05
2.86644e-05
2.60704e-05
2.37243e-05
2.15897e-05
1.96229e-05
1.77658e-05
1.59474e-05
1.40551e-05
1.26143e-05
9.7747e-06
9.7747e-06
1.91054e-05
2.93279e-05
4.0137e-05
0.00021094
8.44198e-05
0.000128374
0.000175762
0.000252052
)
;
    }
    ceiling
    {
        Cmu             0.09;
        kappa           0.41;
        E               9.8;
        type            epsilonWallFunction;
        value           nonuniform List<scalar> 
43
(
0.00275053
0.00322209
0.00365936
0.00442667
0.00376407
0.00296462
0.00236664
0.00189472
0.00150556
0.0011858
0.00094752
0.000762236
0.000609242
0.000478997
0.000366975
0.00027056
0.000183456
7.02287e-05
7.09433e-05
7.43677e-05
7.59168e-05
7.9414e-05
8.52817e-05
9.32734e-05
0.00010338
0.000115743
0.000130629
0.00014849
0.000170102
0.000196871
0.000231505
0.000274313
0.000327571
0.000394134
0.000477746
0.000603566
0.000652856
0.000614826
0.000504025
0.000400803
0.0092013
0.016792
0.00412486
)
;
    }
    sWall
    {
        Cmu             0.09;
        kappa           0.41;
        E               9.8;
        type            epsilonWallFunction;
        value           uniform 0.00275053;
    }
    nWall
    {
        Cmu             0.09;
        kappa           0.41;
        E               9.8;
        type            epsilonWallFunction;
        value           nonuniform List<scalar> 6(0.000204832 0.000230224 0.000295057 0.000550995 0.000570261 0.000400803);
    }
    sideWalls
    {
        type            empty;
    }
    glass1
    {
        Cmu             0.09;
        kappa           0.41;
        E               9.8;
        type            epsilonWallFunction;
        value           nonuniform List<scalar> 9(0.000132694 0.000450177 0.00100845 0.00195647 0.00343324 0.00560157 0.00863568 0.0096439 0.0092013);
    }
    glass2
    {
        Cmu             0.09;
        kappa           0.41;
        E               9.8;
        type            epsilonWallFunction;
        value           nonuniform List<scalar> 2(0.00126706 0.00101347);
    }
    sun
    {
        Cmu             0.09;
        kappa           0.41;
        E               9.8;
        type            epsilonWallFunction;
        value           nonuniform List<scalar> 
14
(
0.000132694
0.000151292
0.00014666
0.000160667
0.000172895
0.000183335
0.0001923
0.000200188
0.000207468
0.0002147
0.000219538
0.000221144
0.000219431
0.00021579
)
;
    }
    heatsource1
    {
        Cmu             0.09;
        kappa           0.41;
        E               9.8;
        type            epsilonWallFunction;
        value           nonuniform List<scalar> 3(8.80295e-05 0.00014968 0.000204832);
    }
    heatsource2
    {
        Cmu             0.09;
        kappa           0.41;
        E               9.8;
        type            epsilonWallFunction;
        value           nonuniform List<scalar> 4(0.000220305 0.000179655 0.000179655 0.000269325);
    }
    Table_master
    {
        Cmu             0.09;
        kappa           0.41;
        E               9.8;
        type            epsilonWallFunction;
        value           nonuniform List<scalar> 9(6.41894e-05 4.69978e-05 3.61228e-05 2.89272e-05 2.39476e-05 2.03611e-05 1.77115e-05 1.57704e-05 1.45079e-05);
    }
    Table_slave
    {
        Cmu             0.09;
        kappa           0.41;
        E               9.8;
        type            epsilonWallFunction;
        value           nonuniform List<scalar> 9(6.96534e-05 6.15331e-05 5.88637e-05 5.75663e-05 5.55202e-05 5.15852e-05 4.69461e-05 4.20198e-05 3.61846e-05);
    }
    inlet
    {
        type            turbulentMixingLengthDissipationRateInlet;
        mixingLength    0.01;
        phi             phi;
        k               k;
        value           uniform 0.000101881;
    }
    outlet
    {
        type            zeroGradient;
    }
}


// ************************************************************************* //
