// -*- C++ -*-
// File generated by PyFoam - sorry for the ugliness

FoamFile
{
 version 2.0;
 format ascii;
 class volScalarField;
 location "700";
 object T;
}

dimensions [ 0 0 0 1 0 0 0 ];

internalField nonuniform List<scalar> 459
(
  303.148
  302.847
  302.838
  302.837
  302.836
  302.835
  302.834
  302.832
  302.831
  302.829
  302.825
  302.82
  302.812
  302.803
  302.793
  302.762
  302.755
  302.751
  302.749
  302.746
  302.744
  302.742
  302.74
  302.738
  302.736
  302.734
  302.732
  302.73
  302.727
  302.725
  302.722
  302.719
  302.716
  302.724
  303.371
  302.877
  302.858
  302.862
  302.867
  302.872
  302.875
  302.877
  302.878
  302.877
  302.871
  302.859
  302.84
  302.815
  302.786
  302.764
  302.749
  302.751
  302.742
  302.736
  302.731
  302.727
  302.722
  302.718
  302.713
  302.708
  302.703
  302.698
  302.694
  302.689
  302.685
  302.682
  302.68
  302.681
  302.682
  302.706
  303.593
  302.921
  302.885
  302.897
  302.912
  302.926
  302.939
  302.949
  302.955
  302.956
  302.949
  302.93
  302.899
  302.858
  302.814
  302.776
  302.751
  302.748
  302.743
  302.739
  302.735
  302.731
  302.727
  302.719
  302.71
  302.702
  302.694
  302.686
  302.679
  302.672
  302.666
  302.661
  302.66
  302.661
  302.664
  302.696
  303.805
  302.98
  302.911
  302.93
  302.955
  302.981
  303.005
  303.025
  303.04
  303.045
  303.038
  303.013
  302.97
  302.912
  302.848
  302.791
  302.751
  302.742
  302.744
  302.749
  302.749
  302.746
  302.743
  302.739
  302.736
  302.732
  302.729
  302.726
  302.723
  302.719
  302.714
  302.709
  302.702
  302.682
  302.666
  302.66
  302.692
  304.003
  303.055
  302.939
  302.954
  302.986
  303.021
  303.056
  303.089
  303.114
  303.127
  303.124
  303.096
  303.044
  302.971
  302.89
  302.812
  302.756
  302.737
  302.746
  302.756
  302.759
  302.758
  302.755
  302.753
  302.751
  302.748
  302.746
  302.742
  302.738
  302.732
  302.725
  302.717
  302.708
  302.692
  302.673
  302.66
  302.681
  302.735
  302.764
  302.774
  304.173
  303.151
  302.986
  302.972
  303.003
  303.041
  303.081
  303.121
  303.157
  303.184
  303.189
  303.162
  303.103
  303.022
  302.928
  302.834
  302.759
  302.735
  302.748
  302.763
  302.768
  302.769
  302.768
  302.766
  302.765
  302.763
  302.76
  302.755
  302.75
  302.742
  302.733
  302.722
  302.711
  302.697
  302.679
  302.664
  302.672
  302.696
  302.704
  302.74
  304.302
  303.313
  303.131
  303.045
  303.034
  303.056
  303.09
  303.127
  303.166
  303.212
  303.225
  303.197
  303.134
  303.048
  302.949
  302.847
  302.758
  302.731
  302.749
  302.769
  302.776
  302.779
  302.779
  302.779
  302.778
  302.776
  302.773
  302.768
  302.762
  302.752
  302.74
  302.726
  302.713
  302.699
  302.684
  302.669
  302.668
  302.676
  302.684
  302.713
  304.523
  303.785
  303.575
  303.383
  303.254
  303.192
  303.175
  303.184
  303.215
  303.248
  303.245
  303.202
  303.129
  303.038
  302.938
  302.838
  302.75
  302.728
  302.751
  302.776
  302.785
  302.789
  302.79
  302.791
  302.791
  302.79
  302.787
  302.783
  302.776
  302.768
  302.756
  302.739
  302.726
  302.714
  302.702
  302.693
  302.694
  302.711
  302.737
  302.896
  304.829
  304.516
  304.246
  303.985
  303.763
  303.598
  303.49
  303.427
  303.389
  303.333
  303.255
  303.165
  303.071
  302.977
  302.886
  302.797
  302.72
  302.723
  302.756
  302.784
  302.794
  302.799
  302.802
  302.804
  302.805
  302.806
  302.805
  302.803
  302.8
  302.797
  302.796
  302.798
  302.804
  302.818
  302.842
  302.876
  302.919
  302.96
  302.986
  303.047
  298.028
  300.91
  302.248
  302.732
  302.924
  302.997
  303.011
  303.005
  302.977
  302.937
  302.888
  302.835
  302.78
  302.723
  302.673
  302.722
  302.769
  302.794
  302.804
  302.81
  302.814
  302.818
  302.821
  302.824
  302.827
  302.83
  302.833
  302.836
  302.84
  302.846
  302.854
  302.867
  302.887
  302.913
  302.942
  302.966
  302.979
  302.991
  298.51
  300.859
  301.793
  302.273
  302.515
  302.629
  302.675
  302.689
  302.694
  302.692
  302.684
  302.672
  302.656
  302.637
  302.624
  302.746
  302.797
  302.808
  302.817
  302.822
  302.827
  302.832
  302.836
  302.84
  302.844
  302.848
  302.852
  302.856
  302.861
  302.866
  302.873
  302.884
  302.898
  302.916
  302.936
  302.954
  302.945
  302.972
  299.927
  299.87
  299.866
  301.301
  301.861
  302.245
  302.389
  302.458
  302.493
  302.509
  302.522
  302.533
  302.543
  302.552
  302.561
  302.569
  302.593
  302.807
  302.832
  302.838
  302.843
  302.847
  302.85
  302.853
  302.856
  302.859
  302.862
  302.864
  302.867
  302.87
  302.873
  302.876
  302.881
  302.887
  302.895
  302.909
  302.92
  302.926
  302.926
  302.961
)
;

boundaryField
{
  floor
  {
    type wallHeatTransfer;
    Tinf uniform 305.2;
    alphaWall uniform 0.24;
    value nonuniform List<scalar> 29
(
  303.099
  303.147
  303.16
  303.173
  303.183
  303.19
  303.197
  303.206
  303.214
  303.223
  303.231
  303.24
  303.248
  303.257
  303.266
  303.275
  303.285
  303.298
  303.308
  303.345
  303.345
  303.252
  303.196
  303.16
  303.099
  303.147
  303.101
  303.073
  303.041
)
;
  }
  ceiling
  {
    type wallHeatTransfer;
    Tinf uniform 303.2;
    alphaWall uniform 0.24;
    value nonuniform List<scalar> 43
(
  300.14
  300.077
  300.067
  301.41
  301.941
  302.306
  302.445
  302.512
  302.547
  302.566
  302.581
  302.594
  302.607
  302.619
  302.631
  302.645
  302.672
  302.871
  302.893
  302.897
  302.901
  302.903
  302.905
  302.907
  302.908
  302.909
  302.91
  302.911
  302.912
  302.913
  302.913
  302.915
  302.917
  302.921
  302.926
  302.938
  302.947
  302.952
  302.954
  302.987
  304.752
  304.463
  298.782
)
;
  }
  sWall
  {
    type wallHeatTransfer;
    Tinf uniform 315.2;
    alphaWall uniform 0.36;
    value uniform 301.376;
  }
  nWall
  {
    type wallHeatTransfer;
    Tinf uniform 307.2;
    alphaWall uniform 0.36;
    value nonuniform List<scalar> 6
(
  303.573
  303.523
  303.457
  303.593
  303.572
  303.616
)
;
  }
  sideWalls
  {
    type empty;
  }
  glass1
  {
    type wallHeatTransfer;
    Tinf uniform 315.2;
    alphaWall uniform 4.3;
    value nonuniform List<scalar> 9
(
  312.215
  311.451
  310.922
  310.483
  310.118
  309.804
  309.523
  309.553
  309.752
)
;
  }
  glass2
  {
    type wallHeatTransfer;
    Tinf uniform 307.2;
    alphaWall uniform 4.3;
    value nonuniform List<scalar> 2
(
  305.533
  305.654
)
;
  }
  sun
  {
    type wallHeatTransfer;
    Tinf uniform 305.2;
    alphaWall uniform 0.24;
    value nonuniform List<scalar> 14
(
  303.44
  303.171
  303.166
  303.158
  303.151
  303.146
  303.141
  303.137
  303.133
  303.129
  303.124
  303.119
  303.113
  303.106
)
;
  }
  heatsource1
  {
    type fixedGradient;
    gradient uniform 0;
  }
  heatsource2
  {
    type fixedGradient;
    gradient uniform 0;
  }
  Table_master
  {
    type zeroGradient;
  }
  Table_slave
  {
    type zeroGradient;
  }
  inlet
  {
    type fixedValue;
    value uniform 293.15;
  }
  outlet
  {
    type zeroGradient;
  }
} 	// ************************************************************************* //

