/*--------------------------------*- C++ -*----------------------------------*\
  =========                 |
  \\      /  F ield         | OpenFOAM: The Open Source CFD Toolbox
   \\    /   O peration     | Website:  https://openfoam.org
    \\  /    A nd           | Version:  6
     \\/     M anipulation  |
\*---------------------------------------------------------------------------*/
FoamFile
{
    version     2.0;
    format      ascii;
    class       volScalarField;
    location    "400";
    object      alphat;
}
// * * * * * * * * * * * * * * * * * * * * * * * * * * * * * * * * * * * * * //

dimensions      [1 -1 -1 0 0 0 0];

internalField   nonuniform List<scalar> 
459
(
0.00125281
0.00136965
0.00139491
0.0014619
0.00152393
0.00158197
0.00163887
0.00169447
0.00173366
0.00175008
0.00173781
0.00169321
0.00161611
0.00151307
0.00140026
0.000549216
0.000671195
0.000754434
0.000749238
0.000723151
0.0006891
0.000646601
0.000604538
0.000566345
0.00053241
0.000502337
0.000475599
0.000451818
0.000430453
0.000410748
0.000391716
0.000371911
0.00035806
0.000326406
0.00170686
0.00417066
0.00399023
0.004644
0.00528607
0.00592832
0.00649536
0.00692246
0.00730901
0.00762344
0.00782158
0.00785311
0.00764187
0.00699724
0.00523013
0.00142667
0.000841709
0.000594222
0.00124295
0.00171439
0.00205054
0.00222735
0.00221788
0.0017858
0.00154139
0.00136604
0.00123114
0.00112367
0.0010361
0.000960447
0.000890073
0.000822086
0.000761825
0.000709326
0.00083378
0.000427799
0.00208407
0.0056968
0.00494928
0.0062077
0.00683427
0.00729975
0.00766224
0.00795234
0.00826741
0.00859584
0.00889862
0.00912015
0.00919945
0.00904748
0.0084282
0.00649879
0.00141833
0.00118529
0.00169885
0.00217073
0.00258898
0.00286983
0.00278711
0.000925668
0.000817655
0.000730895
0.00066088
0.000603826
0.000556833
0.000517821
0.000485459
0.000459189
0.000494564
0.000571026
0.000937952
0.000495479
0.00244554
0.00728241
0.00496409
0.00656925
0.00711895
0.00730688
0.00743119
0.00758345
0.00783673
0.0081738
0.00855484
0.00891026
0.00917697
0.0092851
0.00915065
0.00848546
0.00622271
0.00169744
0.00210372
0.00271046
0.00328986
0.00374209
0.00401193
0.00375029
0.00104441
0.000951227
0.000884571
0.000833808
0.000790686
0.000751033
0.000713001
0.000673134
0.000626916
0.000587531
0.000599845
0.00107303
0.000547721
0.00281366
0.00931698
0.00545971
0.00632565
0.00705289
0.00710195
0.00704657
0.00713267
0.00735817
0.00770048
0.00812745
0.00854328
0.00886101
0.00901011
0.00896615
0.00868131
0.00796253
0.00658051
0.0061019
0.00593738
0.00587334
0.00582829
0.00575433
0.00552371
0.00466264
0.00424888
0.00400806
0.00382201
0.00362629
0.00334578
0.00296592
0.00250454
0.00199233
0.00147692
0.00108995
0.00109645
0.000733919
0.000675602
0.000817054
0.000916911
0.00320355
0.0115304
0.00751761
0.00630096
0.00684906
0.00709561
0.00694508
0.00701703
0.00718768
0.00749404
0.00792258
0.00837669
0.00872548
0.00886786
0.0087807
0.00851868
0.00817084
0.00780818
0.0075988
0.00743904
0.007259
0.00705649
0.00683357
0.0065615
0.00616921
0.0058203
0.00551159
0.0052163
0.00491664
0.00459279
0.00418416
0.00367485
0.00306532
0.00239099
0.00179486
0.00134315
0.00101919
0.000869743
0.0012421
0.000957059
0.00355797
0.0130766
0.0105347
0.00812675
0.00768362
0.00759064
0.00733975
0.00718184
0.0072368
0.00753316
0.00800576
0.00851038
0.00887649
0.0089849
0.00882366
0.00850557
0.00822873
0.00812585
0.0081217
0.00802999
0.00780089
0.00747722
0.00709773
0.00668293
0.00625109
0.00585258
0.0054886
0.00515062
0.00483913
0.00456153
0.00431717
0.00398105
0.00350675
0.00292616
0.00236789
0.00186791
0.00150511
0.00139693
0.00143006
0.00109132
0.00362426
0.0116257
0.0103315
0.00953937
0.00884211
0.00803494
0.00740264
0.00715177
0.00730656
0.00777966
0.00840742
0.00898152
0.0093066
0.00928919
0.00897569
0.00856026
0.00830407
0.00828875
0.00827482
0.00800266
0.00754595
0.00699279
0.00641405
0.00586839
0.00539367
0.00499704
0.00466297
0.00438306
0.00416046
0.0040035
0.00391971
0.0038792
0.00364457
0.0032727
0.00294587
0.00278238
0.00289975
0.00335496
0.00412528
0.0017017
0.00352436
0.00418277
0.00464725
0.00476686
0.00486582
0.00513568
0.00567976
0.00650748
0.00752178
0.00854605
0.00939093
0.00987844
0.00988926
0.00947889
0.00886468
0.00843745
0.00818777
0.00796698
0.00760624
0.00704589
0.00636787
0.00567554
0.00505404
0.00454515
0.00414685
0.00383335
0.00357891
0.00336771
0.00318943
0.00303404
0.00289122
0.00275904
0.0026545
0.00257782
0.00255011
0.00256269
0.00254817
0.00244527
0.00228501
0.00159787
0.00176995
0.00362168
0.00584917
0.00770041
0.00914092
0.0102365
0.0109237
0.0111898
0.0110768
0.0105763
0.00978864
0.00880136
0.0079601
0.00743622
0.00701415
0.00649951
0.00587088
0.00520125
0.00456938
0.00402812
0.00360536
0.00328514
0.00304094
0.00285168
0.00270437
0.00259213
0.00251136
0.00246032
0.00244088
0.00245143
0.00247614
0.0025108
0.00254659
0.00255564
0.00249325
0.00234588
0.00212324
0.00132683
0.00236102
0.00604465
0.00900284
0.0100959
0.0106445
0.010809
0.0105565
0.00995709
0.0091318
0.00819824
0.00731472
0.00652643
0.00589438
0.00536131
0.00482128
0.00428382
0.00380444
0.00341542
0.00311769
0.00289461
0.0027183
0.0025739
0.00245451
0.00236476
0.00230375
0.00226974
0.0022605
0.00227216
0.00231213
0.00237702
0.00246287
0.00256117
0.00265325
0.00271725
0.00269704
0.00272758
0.00275556
0.00135216
0.00209211
0.00221718
0.00230557
0.00246684
0.00237801
0.0022744
0.00220745
0.00211541
0.00198497
0.00182363
0.00164235
0.00145376
0.00127032
0.00111237
0.000992741
0.000907638
0.000847318
0.000803983
0.000772938
0.000751487
0.000737878
0.000730977
0.000729987
0.000735006
0.000746413
0.000763252
0.000785571
0.000813741
0.000848414
0.000890799
0.000939665
0.000995073
0.00105764
0.00112789
0.00120531
0.00129784
0.00132662
0.00129222
0.00121381
0.00112993
)
;

boundaryField
{
    floor
    {
        type            compressible::alphatWallFunction;
        Prt             0.85;
        value           nonuniform List<scalar> 
29
(
0.000197535
7.67417e-05
9.49687e-05
0.000107172
0.000106416
0.000102606
9.76092e-05
9.13294e-05
8.50643e-05
7.93292e-05
7.4193e-05
6.96074e-05
6.55013e-05
6.18247e-05
5.85007e-05
5.54163e-05
5.24192e-05
4.92804e-05
4.70723e-05
4.19838e-05
4.19832e-05
5.80864e-05
6.85569e-05
7.65155e-05
0.000197533
7.67408e-05
8.35188e-05
0.000168135
0.000237362
)
;
    }
    ceiling
    {
        type            compressible::alphatWallFunction;
        Prt             0.85;
        value           nonuniform List<scalar> 
43
(
0.000288994
0.000305153
0.000316516
0.000337251
0.000325966
0.00031271
0.000304108
0.000292227
0.000275286
0.000254158
0.00023017
0.000204899
0.000179962
0.00015816
0.000141411
0.000129353
0.000120726
0.000114483
0.000109986
0.000106866
0.000104881
0.000103873
0.000103728
0.000104462
0.000106126
0.000108579
0.000111819
0.000115893
0.000120884
0.000126953
0.000133907
0.000141742
0.000150528
0.000160322
0.000171034
0.000183735
0.000187664
0.000182967
0.000172207
0.00016061
0.000469568
0.00054964
0.000323452
)
;
    }
    sWall
    {
        type            compressible::alphatWallFunction;
        Prt             0.85;
        value           uniform 0.000287784;
    }
    nWall
    {
        type            compressible::alphatWallFunction;
        Prt             0.85;
        value           nonuniform List<scalar> 6(0.000130353 0.000136046 0.000154897 0.000187368 0.000190815 0.000160287);
    }
    sideWalls
    {
        type            empty;
    }
    glass1
    {
        type            compressible::alphatWallFunction;
        Prt             0.85;
        value           nonuniform List<scalar> 9(0.000173143 0.000233513 0.00028244 0.000328519 0.000374771 0.000423116 0.000466582 0.000474792 0.000462838);
    }
    glass2
    {
        type            compressible::alphatWallFunction;
        Prt             0.85;
        value           nonuniform List<scalar> 2(0.00023636 0.000222665);
    }
    sun
    {
        type            compressible::alphatWallFunction;
        Prt             0.85;
        value           nonuniform List<scalar> 
14
(
0.000177452
0.000193388
0.000196815
0.000205872
0.000214217
0.000221993
0.000229583
0.000236973
0.000242165
0.000244335
0.000242712
0.000236803
0.000226547
0.000212755
)
;
    }
    heatsource1
    {
        type            compressible::alphatWallFunction;
        Prt             0.85;
        value           nonuniform List<scalar> 3(9.57244e-05 0.000116355 0.000130659);
    }
    heatsource2
    {
        type            compressible::alphatWallFunction;
        Prt             0.85;
        value           nonuniform List<scalar> 4(0.000201231 0.000119903 0.000119902 0.000200102);
    }
    Table_master
    {
        type            compressible::alphatWallFunction;
        Prt             0.85;
        value           nonuniform List<scalar> 9(0.000131902 0.000116439 0.000103843 9.35469e-05 8.5058e-05 7.79918e-05 7.20693e-05 6.71139e-05 6.30605e-05);
    }
    Table_slave
    {
        type            compressible::alphatWallFunction;
        Prt             0.85;
        value           nonuniform List<scalar> 9(0.00014866 0.000135531 0.000126048 0.000118769 0.000112544 0.000106785 0.000101226 9.53603e-05 8.85068e-05);
    }
    inlet
    {
        type            fixedValue;
        value           uniform 1.94e-05;
    }
    outlet
    {
        type            zeroGradient;
    }
}


// ************************************************************************* //
