/*--------------------------------*- C++ -*----------------------------------*\
  =========                 |
  \\      /  F ield         | OpenFOAM: The Open Source CFD Toolbox
   \\    /   O peration     | Website:  https://openfoam.org
    \\  /    A nd           | Version:  6
     \\/     M anipulation  |
\*---------------------------------------------------------------------------*/
FoamFile
{
    version     2.0;
    format      ascii;
    class       volScalarField;
    location    "600";
    object      alphat;
}
// * * * * * * * * * * * * * * * * * * * * * * * * * * * * * * * * * * * * * //

dimensions      [1 -1 -1 0 0 0 0];

internalField   nonuniform List<scalar> 
459
(
0.000794524
0.000817377
0.000745048
0.000769227
0.00079691
0.000823545
0.00084914
0.000874343
0.000900223
0.000925432
0.000946549
0.000962471
0.000972608
0.000976803
0.000971456
0.000376703
0.000463862
0.00044199
0.000392682
0.000336923
0.000282743
0.000255894
0.000235068
0.000238835
0.000255714
0.000279467
0.000302834
0.000312425
0.000311632
0.000318115
0.000334941
0.000346524
0.000340881
0.000306439
0.00135663
0.00246309
0.00183025
0.00247546
0.00271842
0.00294082
0.00316197
0.00336355
0.00351901
0.00362227
0.00366308
0.0036038
0.00338253
0.0028971
0.00204145
0.00105291
0.000664369
0.000591833
0.00167442
0.0018896
0.00169276
0.00132977
0.00100218
0.000463799
0.00036005
0.000434459
0.000613278
0.000825035
0.0009963
0.00107066
0.0011333
0.00129008
0.00158427
0.00153567
0.00121944
0.000386087
0.00186935
0.00422164
0.00197353
0.00342366
0.00408023
0.00436126
0.00458195
0.00476385
0.00490023
0.00499279
0.00503494
0.00498733
0.00477828
0.0042946
0.00341969
0.00222813
0.0011163
0.000817572
0.00263888
0.00261726
0.00222588
0.00174392
0.00123737
0.000329499
0.000286645
0.000317579
0.000351771
0.000387761
0.000426648
0.000472288
0.00053178
0.0006209
0.0017299
0.00164191
0.00117064
0.000495594
0.0023652
0.00651955
0.0025174
0.00341049
0.00467161
0.00503966
0.00523866
0.00539343
0.0055194
0.00562445
0.00573917
0.00584135
0.00586918
0.00570084
0.00513969
0.00398785
0.0023516
0.00112716
0.00284706
0.0036961
0.00334131
0.00268703
0.00196089
0.00125064
0.000734632
0.000721552
0.000716205
0.000715246
0.000718784
0.000728217
0.000745807
0.000774307
0.000831059
0.00225535
0.00276999
0.00260817
0.000856528
0.00283414
0.00908883
0.00404498
0.003237
0.00456073
0.00513284
0.00537626
0.00552725
0.00563542
0.00573658
0.00591796
0.00618014
0.00650657
0.00684615
0.00709351
0.00712677
0.00688005
0.00640362
0.00622338
0.00581734
0.00535211
0.00491837
0.00455397
0.00424558
0.0039954
0.00387302
0.00377069
0.00367231
0.00357669
0.00349725
0.00345487
0.00346171
0.00352164
0.00365687
0.003672
0.00351596
0.0028238
0.00123148
0.00110569
0.000970026
0.00327931
0.0115023
0.00698737
0.00433556
0.0041696
0.00464958
0.00508152
0.00536549
0.00548705
0.00556826
0.00574434
0.00602148
0.00642509
0.00695892
0.00753443
0.00799135
0.00817472
0.0080111
0.0076156
0.00711912
0.00665083
0.00625804
0.00594483
0.00569443
0.0054848
0.00530579
0.00513779
0.00495517
0.00473986
0.00450764
0.00430689
0.00417205
0.00409483
0.00403887
0.00398687
0.00390255
0.00364661
0.00310625
0.00239593
0.00106542
0.00366319
0.0131283
0.0106579
0.00742335
0.00551321
0.00476845
0.00488963
0.00526706
0.00544152
0.00551098
0.00560839
0.00576385
0.00603345
0.00649173
0.00711212
0.00772631
0.0081441
0.00824325
0.00805601
0.00771083
0.00732929
0.00697141
0.00665852
0.00639503
0.00617807
0.0060093
0.00588093
0.00575367
0.00556329
0.00527522
0.00494084
0.00463434
0.00437179
0.00413236
0.00388656
0.00358638
0.00316375
0.00260641
0.00200398
0.00104867
0.00370351
0.011984
0.0108435
0.00998649
0.00823821
0.00685297
0.00615758
0.00591421
0.00581632
0.00571742
0.00565054
0.00564257
0.00572732
0.00595346
0.00635473
0.00688363
0.00739004
0.00770894
0.00778269
0.00766713
0.00744982
0.00719166
0.00692997
0.00669009
0.00649055
0.00635566
0.00630644
0.00633347
0.00636304
0.00626643
0.00600202
0.00563866
0.00520264
0.00470139
0.00415438
0.00359773
0.00310059
0.00263764
0.00226739
0.00141111
0.00355457
0.00412279
0.00771615
0.00852343
0.00818428
0.00750392
0.0068643
0.00637874
0.00602745
0.00576787
0.00559759
0.00550715
0.0055001
0.00558949
0.00579067
0.00610034
0.00646638
0.00679333
0.00700286
0.00707726
0.00704304
0.0069371
0.00679305
0.00663782
0.00649568
0.00639531
0.0063718
0.00646338
0.00668936
0.00696864
0.00713487
0.00714864
0.00705758
0.00697478
0.00697291
0.00690888
0.00626014
0.00513843
0.00457382
0.001667
0.0164353
0.0164255
0.0107765
0.00872634
0.00759738
0.00686361
0.00634873
0.00597338
0.00570662
0.00554356
0.00547653
0.00549344
0.00558173
0.00573071
0.00592417
0.00612916
0.0063081
0.00643434
0.0065002
0.00651344
0.00649002
0.00644728
0.0064006
0.00636476
0.00635795
0.00640614
0.00654143
0.00675023
0.0070198
0.00729721
0.00750658
0.00763222
0.00769739
0.00758884
0.00711694
0.00620727
0.00510898
0.00169357
0.00657611
0.0127527
0.00994586
0.00833478
0.00734009
0.00665085
0.00616301
0.00584372
0.0056781
0.00561386
0.00564304
0.00575044
0.00591047
0.00609365
0.00627057
0.00639847
0.00647554
0.00651767
0.00654242
0.00656232
0.00658331
0.00660563
0.0066256
0.00663797
0.00663771
0.00662123
0.00658754
0.00654148
0.00650271
0.0064993
0.00654433
0.00662606
0.00669281
0.0064406
0.00588321
0.00499274
0.00427354
0.00170401
0.00300446
0.00378941
0.00488596
0.00369552
0.00314383
0.00295474
0.00262529
0.00234034
0.00210452
0.00191111
0.00175614
0.00164504
0.0015686
0.00152023
0.00149458
0.00148581
0.0014876
0.00149661
0.00150548
0.00151049
0.00151143
0.00150962
0.00150663
0.00150363
0.00150117
0.00149923
0.00149752
0.00149585
0.001494
0.00149228
0.00148935
0.00148374
0.00147365
0.00145581
0.00142414
0.00139468
0.00135421
0.00128677
0.00126587
0.00142318
)
;

boundaryField
{
    floor
    {
        type            compressible::alphatWallFunction;
        Prt             0.85;
        value           nonuniform List<scalar> 
29
(
0.000138373
5.00761e-05
6.3739e-05
6.0361e-05
5.26276e-05
4.37319e-05
3.48917e-05
3.04277e-05
2.69295e-05
2.75631e-05
3.03954e-05
3.43402e-05
3.81781e-05
3.97421e-05
3.96113e-05
4.0663e-05
4.33845e-05
4.52461e-05
4.43497e-05
3.87766e-05
3.87761e-05
5.15765e-05
6.8595e-05
0.000121983
0.000138371
5.00754e-05
8.32226e-05
0.000116404
0.000160188
)
;
    }
    ceiling
    {
        type            compressible::alphatWallFunction;
        Prt             0.85;
        value           nonuniform List<scalar> 
43
(
0.000405177
0.000501903
0.000633719
0.000490493
0.000422599
0.000399048
0.000357619
0.000321341
0.00029096
0.000265768
0.000245382
0.000230645
0.000220442
0.000213957
0.000210508
0.000209326
0.000209567
0.000210777
0.00021197
0.000212644
0.00021277
0.000212526
0.000212124
0.00021172
0.000211388
0.000211126
0.000210894
0.000210668
0.000210418
0.000210185
0.000209789
0.000209033
0.000207673
0.000205265
0.000200987
0.000196994
0.000191497
0.000182295
0.000179433
0.000200856
0.000473365
0.000542498
0.000831387
)
;
    }
    sWall
    {
        type            compressible::alphatWallFunction;
        Prt             0.85;
        value           uniform 0.000404067;
    }
    nWall
    {
        type            compressible::alphatWallFunction;
        Prt             0.85;
        value           nonuniform List<scalar> 6(0.00013799 0.000151403 0.00014906 0.000236761 0.000238143 0.000200555);
    }
    sideWalls
    {
        type            empty;
    }
    glass1
    {
        type            compressible::alphatWallFunction;
        Prt             0.85;
        value           nonuniform List<scalar> 9(0.00011025 0.000187782 0.000255494 0.000319188 0.000378209 0.000433357 0.000480335 0.000485361 0.000467412);
    }
    glass2
    {
        type            compressible::alphatWallFunction;
        Prt             0.85;
        value           nonuniform List<scalar> 2(0.00019818 0.000232417);
    }
    sun
    {
        type            compressible::alphatWallFunction;
        Prt             0.85;
        value           nonuniform List<scalar> 
14
(
0.000113092
0.00011638
0.00010589
0.00010941
0.000113423
0.00011727
0.000120952
0.000124564
0.000128261
0.00013185
0.000134848
0.000137102
0.000138536
0.000139128
)
;
    }
    heatsource1
    {
        type            compressible::alphatWallFunction;
        Prt             0.85;
        value           nonuniform List<scalar> 3(0.000174615 0.000157216 0.00013819);
    }
    heatsource2
    {
        type            compressible::alphatWallFunction;
        Prt             0.85;
        value           nonuniform List<scalar> 4(0.000149857 9.40683e-05 9.40672e-05 0.000158702);
    }
    Table_master
    {
        type            compressible::alphatWallFunction;
        Prt             0.85;
        value           nonuniform List<scalar> 9(4.25759e-05 3.5576e-05 4.06336e-05 4.6149e-05 5.18794e-05 5.79944e-05 6.50813e-05 7.4191e-05 8.76059e-05);
    }
    Table_slave
    {
        type            compressible::alphatWallFunction;
        Prt             0.85;
        value           nonuniform List<scalar> 9(0.0001044 0.000102485 0.0001017 0.000101558 0.000102076 0.000103455 0.000106023 0.000110168 0.000118369);
    }
    inlet
    {
        type            fixedValue;
        value           uniform 1.94e-05;
    }
    outlet
    {
        type            zeroGradient;
    }
}


// ************************************************************************* //
