// -*- C++ -*-
// File generated by PyFoam - sorry for the ugliness

FoamFile
{
 version 2.0;
 format ascii;
 class volScalarField;
 location "600";
 object T;
}

dimensions [ 0 0 0 1 0 0 0 ];

internalField nonuniform List<scalar> 459
(
  305.006
  304.745
  304.747
  304.758
  304.767
  304.775
  304.781
  304.786
  304.791
  304.794
  304.794
  304.791
  304.786
  304.777
  304.766
  303.965
  304.025
  304.045
  304.025
  303.983
  303.933
  303.942
  303.938
  303.928
  303.921
  303.918
  303.921
  303.925
  303.929
  303.942
  303.969
  304
  304.021
  304.049
  305.209
  304.815
  304.798
  304.814
  304.83
  304.843
  304.855
  304.864
  304.87
  304.873
  304.871
  304.861
  304.844
  304.817
  304.781
  304.744
  304.574
  304.202
  304.192
  304.201
  304.194
  304.165
  304.107
  304.042
  304.028
  304.023
  304.02
  304.023
  304.034
  304.068
  304.116
  304.17
  304.232
  304.226
  304.152
  304.096
  305.395
  304.888
  304.845
  304.864
  304.887
  304.908
  304.927
  304.942
  304.953
  304.959
  304.956
  304.943
  304.918
  304.878
  304.824
  304.763
  304.708
  304.399
  304.397
  304.42
  304.449
  304.462
  304.429
  304.127
  304.13
  304.168
  304.198
  304.225
  304.254
  304.284
  304.324
  304.38
  304.435
  304.324
  304.242
  304.19
  305.564
  304.97
  304.893
  304.908
  304.938
  304.968
  304.996
  305.02
  305.039
  305.05
  305.051
  305.039
  305.01
  304.964
  304.899
  304.818
  304.723
  304.639
  304.578
  304.608
  304.642
  304.672
  304.692
  304.708
  304.723
  304.725
  304.728
  304.733
  304.738
  304.744
  304.751
  304.756
  304.746
  304.69
  304.631
  304.561
  304.543
  305.718
  305.065
  304.953
  304.95
  304.981
  305.017
  305.054
  305.088
  305.117
  305.138
  305.146
  305.139
  305.115
  305.074
  305.018
  304.952
  304.884
  304.826
  304.783
  304.768
  304.768
  304.771
  304.772
  304.772
  304.77
  304.769
  304.77
  304.773
  304.778
  304.784
  304.79
  304.796
  304.797
  304.789
  304.775
  304.759
  304.727
  304.745
  304.742
  304.748
  305.852
  305.181
  305.057
  305.018
  305.029
  305.061
  305.1
  305.141
  305.18
  305.21
  305.226
  305.227
  305.211
  305.177
  305.128
  305.07
  305.008
  304.952
  304.907
  304.878
  304.859
  304.845
  304.834
  304.824
  304.815
  304.808
  304.804
  304.803
  304.805
  304.811
  304.818
  304.826
  304.833
  304.838
  304.841
  304.844
  304.846
  304.845
  304.809
  304.778
  305.971
  305.35
  305.254
  305.185
  305.143
  305.138
  305.16
  305.194
  305.235
  305.268
  305.288
  305.294
  305.286
  305.263
  305.224
  305.176
  305.121
  305.067
  305.019
  304.98
  304.949
  304.924
  304.903
  304.884
  304.868
  304.853
  304.841
  304.833
  304.83
  304.832
  304.839
  304.848
  304.858
  304.866
  304.873
  304.878
  304.88
  304.875
  304.853
  304.791
  306.157
  305.696
  305.606
  305.506
  305.404
  305.342
  305.316
  305.312
  305.322
  305.336
  305.344
  305.345
  305.337
  305.32
  305.294
  305.259
  305.216
  305.169
  305.122
  305.08
  305.043
  305.01
  304.981
  304.956
  304.932
  304.909
  304.889
  304.871
  304.858
  304.851
  304.852
  304.859
  304.868
  304.878
  304.887
  304.894
  304.901
  304.909
  304.916
  304.927
  306.415
  306.216
  305.938
  305.803
  305.677
  305.585
  305.522
  305.481
  305.453
  305.429
  305.409
  305.39
  305.372
  305.353
  305.331
  305.306
  305.276
  305.241
  305.203
  305.165
  305.129
  305.095
  305.063
  305.033
  305.005
  304.977
  304.95
  304.924
  304.899
  304.881
  304.869
  304.865
  304.865
  304.867
  304.87
  304.871
  304.875
  304.882
  304.896
  304.944
  303.613
  305.24
  305.426
  305.461
  305.461
  305.45
  305.435
  305.421
  305.405
  305.389
  305.372
  305.355
  305.338
  305.319
  305.298
  305.275
  305.248
  305.22
  305.19
  305.16
  305.131
  305.102
  305.073
  305.044
  305.015
  304.985
  304.956
  304.929
  304.905
  304.888
  304.878
  304.872
  304.869
  304.867
  304.865
  304.864
  304.863
  304.871
  303.949
  304.9
  305.175
  305.3
  305.35
  305.367
  305.369
  305.365
  305.359
  305.35
  305.341
  305.33
  305.318
  305.306
  305.292
  305.276
  305.258
  305.238
  305.216
  305.193
  305.169
  305.144
  305.119
  305.092
  305.065
  305.037
  305.008
  304.979
  304.951
  304.926
  304.907
  304.893
  304.884
  304.877
  304.871
  304.865
  304.858
  304.865
  304.073
  304.011
  304.013
  304.722
  305.083
  305.251
  305.287
  305.3
  305.303
  305.3
  305.295
  305.289
  305.283
  305.276
  305.268
  305.26
  305.251
  305.241
  305.23
  305.218
  305.205
  305.19
  305.173
  305.156
  305.136
  305.116
  305.093
  305.07
  305.045
  305.019
  304.992
  304.966
  304.943
  304.923
  304.906
  304.891
  304.878
  304.863
  304.851
  304.871
)
;

boundaryField
{
  floor
  {
    type wallHeatTransfer;
    Tinf uniform 305.2;
    alphaWall uniform 0.24;
    value nonuniform List<scalar> 29
(
  304.821
  304.262
  304.274
  304.297
  304.3
  304.296
  304.293
  304.319
  304.333
  304.323
  304.304
  304.284
  304.27
  304.267
  304.27
  304.276
  304.287
  304.303
  304.322
  304.361
  304.361
  304.358
  304.395
  304.634
  304.821
  304.262
  304.382
  304.515
  304.703
)
;
  }
  ceiling
  {
    type wallHeatTransfer;
    Tinf uniform 303.2;
    alphaWall uniform 0.24;
    value nonuniform List<scalar> 43
(
  304.026
  303.976
  303.984
  304.654
  304.987
  305.141
  305.164
  305.164
  305.155
  305.14
  305.125
  305.11
  305.098
  305.087
  305.077
  305.069
  305.061
  305.053
  305.044
  305.034
  305.021
  305.008
  304.992
  304.976
  304.958
  304.939
  304.919
  304.898
  304.875
  304.851
  304.826
  304.802
  304.78
  304.76
  304.743
  304.727
  304.711
  304.691
  304.678
  304.711
  306.267
  306.094
  303.928
)
;
  }
  sWall
  {
    type wallHeatTransfer;
    Tinf uniform 315.2;
    alphaWall uniform 0.36;
    value uniform 304.932;
  }
  nWall
  {
    type wallHeatTransfer;
    Tinf uniform 307.2;
    alphaWall uniform 0.36;
    value nonuniform List<scalar> 6
(
  305.19
  305.187
  305.202
  305.152
  305.146
  305.19
)
;
  }
  sideWalls
  {
    type empty;
  }
  glass1
  {
    type wallHeatTransfer;
    Tinf uniform 315.2;
    alphaWall uniform 4.3;
    value nonuniform List<scalar> 9
(
  312.751
  311.885
  311.323
  310.911
  310.607
  310.373
  310.211
  310.289
  310.507
)
;
  }
  glass2
  {
    type wallHeatTransfer;
    Tinf uniform 307.2;
    alphaWall uniform 4.3;
    value nonuniform List<scalar> 2
(
  306.422
  306.354
)
;
  }
  sun
  {
    type wallHeatTransfer;
    Tinf uniform 305.2;
    alphaWall uniform 0.24;
    value nonuniform List<scalar> 14
(
  305.035
  304.811
  304.817
  304.824
  304.831
  304.836
  304.84
  304.843
  304.846
  304.848
  304.847
  304.844
  304.838
  304.831
)
;
  }
  heatsource1
  {
    type fixedGradient;
    gradient uniform 0;
  }
  heatsource2
  {
    type fixedGradient;
    gradient uniform 0;
  }
  Table_master
  {
    type zeroGradient;
  }
  Table_slave
  {
    type zeroGradient;
  }
  inlet
  {
    type fixedValue;
    value uniform 290.15;
  }
  outlet
  {
    type zeroGradient;
  }
} 	// ************************************************************************* //

