// -*- C++ -*-
// File generated by PyFoam - sorry for the ugliness

FoamFile
{
 version 2.0;
 format ascii;
 class volScalarField;
 location "400";
 object T;
}

dimensions [ 0 0 0 1 0 0 0 ];

internalField nonuniform List<scalar> 459
(
  307.393
  307.249
  307.195
  307.167
  307.148
  307.136
  307.128
  307.121
  307.114
  307.107
  307.101
  307.094
  307.087
  307.079
  307.067
  303.804
  303.806
  303.817
  303.8
  303.788
  303.79
  303.8
  303.813
  303.809
  303.8
  303.793
  303.788
  303.787
  303.792
  303.799
  303.812
  303.824
  303.825
  303.821
  307.313
  307.112
  307.027
  306.985
  306.96
  306.945
  306.94
  306.939
  306.943
  306.95
  306.96
  306.974
  306.991
  307.012
  307.033
  307.025
  307.007
  303.972
  303.965
  303.957
  303.944
  303.923
  303.891
  303.859
  303.864
  303.876
  303.876
  303.876
  303.88
  303.89
  303.909
  303.955
  304.006
  304.013
  303.943
  303.854
  307.249
  306.962
  306.857
  306.808
  306.781
  306.767
  306.763
  306.769
  306.784
  306.807
  306.836
  306.87
  306.908
  306.949
  306.988
  307
  306.991
  304.313
  304.203
  304.147
  304.13
  304.113
  304.081
  303.979
  303.917
  303.966
  304.012
  304.052
  304.091
  304.13
  304.172
  304.219
  304.278
  304.236
  304.172
  304.123
  307.191
  306.829
  306.729
  306.691
  306.672
  306.661
  306.656
  306.662
  306.681
  306.712
  306.752
  306.8
  306.852
  306.907
  306.958
  306.978
  306.884
  304.81
  304.538
  304.507
  304.526
  304.584
  304.666
  304.758
  304.836
  304.85
  304.86
  304.867
  304.87
  304.871
  304.866
  304.853
  304.822
  304.761
  304.737
  304.737
  304.755
  307.129
  306.731
  306.661
  306.642
  306.635
  306.63
  306.623
  306.622
  306.638
  306.669
  306.713
  306.767
  306.827
  306.888
  306.942
  306.918
  306.571
  304.913
  304.739
  304.738
  304.765
  304.804
  304.847
  304.886
  304.915
  304.932
  304.946
  304.957
  304.968
  304.978
  304.989
  304.999
  305.007
  305.011
  305.029
  305.057
  305.094
  305.122
  305.11
  305.106
  307.061
  306.675
  306.64
  306.637
  306.64
  306.637
  306.63
  306.623
  306.637
  306.668
  306.714
  306.768
  306.827
  306.88
  306.898
  306.765
  306.219
  304.984
  304.861
  304.869
  304.894
  304.92
  304.945
  304.967
  304.985
  304.999
  305.01
  305.021
  305.032
  305.046
  305.063
  305.082
  305.102
  305.124
  305.147
  305.168
  305.185
  305.191
  305.156
  305.122
  306.979
  306.659
  306.642
  306.647
  306.655
  306.66
  306.661
  306.663
  306.675
  306.7
  306.738
  306.783
  306.826
  306.848
  306.799
  306.55
  305.918
  305.05
  304.964
  304.978
  305.002
  305.023
  305.041
  305.055
  305.064
  305.07
  305.075
  305.079
  305.086
  305.095
  305.11
  305.129
  305.151
  305.173
  305.194
  305.21
  305.22
  305.22
  305.2
  305.131
  306.898
  306.65
  306.644
  306.65
  306.665
  306.682
  306.694
  306.704
  306.714
  306.732
  306.757
  306.782
  306.797
  306.774
  306.656
  306.329
  305.712
  305.128
  305.074
  305.098
  305.127
  305.15
  305.162
  305.166
  305.165
  305.161
  305.155
  305.15
  305.145
  305.143
  305.147
  305.157
  305.172
  305.192
  305.212
  305.231
  305.247
  305.262
  305.276
  305.295
  306.825
  306.643
  306.64
  306.612
  306.643
  306.671
  306.694
  306.711
  306.723
  306.732
  306.742
  306.745
  306.729
  306.667
  306.506
  306.161
  305.624
  305.235
  305.205
  305.239
  305.278
  305.297
  305.302
  305.298
  305.288
  305.276
  305.262
  305.246
  305.23
  305.214
  305.202
  305.195
  305.194
  305.199
  305.206
  305.215
  305.225
  305.235
  305.251
  305.307
  306.675
  306.563
  306.593
  306.624
  306.649
  306.668
  306.68
  306.685
  306.683
  306.67
  306.634
  306.555
  306.392
  306.092
  305.648
  305.414
  305.386
  305.411
  305.434
  305.444
  305.443
  305.435
  305.422
  305.405
  305.386
  305.364
  305.34
  305.316
  305.291
  305.269
  305.252
  305.241
  305.236
  305.237
  305.24
  305.244
  305.249
  305.258
  306.606
  306.522
  306.539
  306.561
  306.577
  306.589
  306.597
  306.598
  306.59
  306.57
  306.532
  306.462
  306.336
  306.083
  305.802
  305.683
  305.639
  305.62
  305.609
  305.598
  305.586
  305.571
  305.552
  305.531
  305.507
  305.482
  305.454
  305.425
  305.395
  305.365
  305.337
  305.315
  305.299
  305.288
  305.281
  305.274
  305.267
  305.263
  309.406
  308.982
  306.842
  306.49
  306.479
  306.482
  306.484
  306.485
  306.487
  306.487
  306.48
  306.466
  306.441
  306.398
  306.315
  306.144
  306.027
  305.964
  305.922
  305.886
  305.85
  305.814
  305.779
  305.745
  305.712
  305.679
  305.647
  305.614
  305.58
  305.547
  305.513
  305.479
  305.445
  305.414
  305.385
  305.358
  305.333
  305.308
  305.281
  305.261
)
;

boundaryField
{
  floor
  {
    type wallHeatTransfer;
    Tinf uniform 305.2;
    alphaWall uniform 0.24;
    value nonuniform List<scalar> 29
(
  306.913
  304.214
  304.202
  304.201
  304.204
  304.214
  304.231
  304.26
  304.293
  304.299
  304.291
  304.275
  304.252
  304.226
  304.2
  304.185
  304.177
  304.176
  304.166
  304.186
  304.186
  304.159
  304.325
  304.816
  306.913
  304.214
  304.244
  304.46
  304.862
)
;
  }
  ceiling
  {
    type wallHeatTransfer;
    Tinf uniform 303.2;
    alphaWall uniform 0.24;
    value nonuniform List<scalar> 43
(
  308.867
  308.488
  306.598
  306.162
  306.151
  306.151
  306.153
  306.156
  306.16
  306.163
  306.159
  306.148
  306.128
  306.091
  306.016
  305.859
  305.749
  305.69
  305.655
  305.629
  305.605
  305.58
  305.554
  305.526
  305.497
  305.467
  305.436
  305.405
  305.374
  305.342
  305.311
  305.279
  305.248
  305.218
  305.19
  305.164
  305.138
  305.111
  305.086
  305.054
  306.692
  306.531
  306.451
)
;
  }
  sWall
  {
    type wallHeatTransfer;
    Tinf uniform 315.2;
    alphaWall uniform 0.36;
    value uniform 310.131;
  }
  nWall
  {
    type wallHeatTransfer;
    Tinf uniform 307.2;
    alphaWall uniform 0.36;
    value nonuniform List<scalar> 6
(
  305.484
  305.482
  305.487
  305.475
  305.479
  305.539
)
;
  }
  sideWalls
  {
    type empty;
  }
  glass1
  {
    type wallHeatTransfer;
    Tinf uniform 315.2;
    alphaWall uniform 4.3;
    value nonuniform List<scalar> 9
(
  311.454
  311.192
  311.04
  310.926
  310.823
  310.716
  310.592
  310.441
  310.231
)
;
  }
  glass2
  {
    type wallHeatTransfer;
    Tinf uniform 307.2;
    alphaWall uniform 4.3;
    value nonuniform List<scalar> 2
(
  306.494
  306.45
)
;
  }
  sun
  {
    type wallHeatTransfer;
    Tinf uniform 305.2;
    alphaWall uniform 0.24;
    value nonuniform List<scalar> 14
(
  307.269
  307.13
  307.076
  307.046
  307.026
  307.012
  307.002
  306.993
  306.984
  306.975
  306.966
  306.956
  306.946
  306.933
)
;
  }
  heatsource1
  {
    type fixedGradient;
    gradient uniform 0;
  }
  heatsource2
  {
    type fixedGradient;
    gradient uniform 0;
  }
  Table_master
  {
    type zeroGradient;
  }
  Table_slave
  {
    type zeroGradient;
  }
  inlet
  {
    type fixedValue;
    value uniform 290.15;
  }
  outlet
  {
    type zeroGradient;
  }
} 	// ************************************************************************* //

