/*--------------------------------*- C++ -*----------------------------------*\
  =========                 |
  \\      /  F ield         | OpenFOAM: The Open Source CFD Toolbox
   \\    /   O peration     | Website:  https://openfoam.org
    \\  /    A nd           | Version:  6
     \\/     M anipulation  |
\*---------------------------------------------------------------------------*/
FoamFile
{
    version     2.0;
    format      ascii;
    class       volVectorField;
    location    "230";
    object      U;
}
// * * * * * * * * * * * * * * * * * * * * * * * * * * * * * * * * * * * * * //

dimensions      [0 1 -1 0 0 0 0];

internalField   nonuniform List<vector> 
459
(
(-0.123954 -0.12415 0)
(0.167077 -0.0558714 0)
(0.20427 -0.0387162 0)
(0.206921 -0.0275005 0)
(0.215052 -0.0172293 0)
(0.219395 -0.0101068 0)
(0.216198 -0.00534406 0)
(0.208371 -0.00188286 0)
(0.198181 0.000906579 0)
(0.186222 0.00338432 0)
(0.172179 0.00593274 0)
(0.155159 0.00913584 0)
(0.133275 0.0142069 0)
(0.100083 0.0252868 0)
(0.0960291 0.0551286 0)
(-0.122725 -0.00136452 0)
(0.0443266 -0.010029 0)
(0.038229 -0.0128437 0)
(0.046158 -0.0108373 0)
(0.0577032 -0.00727153 0)
(0.0650663 -0.00432416 0)
(0.0679672 -0.00286382 0)
(0.0688658 -0.00222746 0)
(0.0694687 -0.00186507 0)
(0.0701008 -0.00161661 0)
(0.0706077 -0.00142027 0)
(0.0708322 -0.00118115 0)
(0.0704895 -0.000740571 0)
(0.069063 0.000141455 0)
(0.0655749 0.00194695 0)
(0.0583072 0.00549028 0)
(0.0501717 0.0101843 0)
(-0.0281449 0.0224423 0)
(0.151558 -0.00927163 0)
(-0.305705 -0.165622 0)
(0.17463 -0.0568413 0)
(0.145159 -0.0464287 0)
(0.145488 -0.0256506 0)
(0.155425 -0.00640735 0)
(0.159197 0.00531071 0)
(0.156218 0.0115414 0)
(0.15011 0.0152204 0)
(0.142666 0.0178134 0)
(0.134264 0.0201237 0)
(0.124836 0.0229101 0)
(0.11426 0.0270871 0)
(0.102834 0.0339525 0)
(0.0899309 0.0458341 0)
(0.0931081 0.0694965 0)
(0.0835529 0.0616496 0)
(0.0505107 0.0520357 0)
(-0.168569 -0.00523348 0)
(0.049306 -0.033526 0)
(0.0408028 -0.0289128 0)
(0.0484204 -0.0206324 0)
(0.0572717 -0.0114153 0)
(0.0614806 -0.00393683 0)
(0.0621304 -0.00141582 0)
(0.0619255 -0.000505333 0)
(0.0620722 2.54153e-05 0)
(0.0623985 0.000416697 0)
(0.0626905 0.000777834 0)
(0.0629142 0.001344 0)
(0.0630091 0.00240143 0)
(0.0627892 0.00442343 0)
(0.0615782 0.00846737 0)
(0.0561978 0.0178496 0)
(0.0511235 0.0258752 0)
(-0.0242071 0.0370014 0)
(0.210093 0.01951 0)
(-0.437372 -0.211477 0)
(0.19913 -0.104388 0)
(0.0833959 -0.0812772 0)
(0.0867461 -0.0409563 0)
(0.0960868 -0.0136743 0)
(0.09648 0.00159182 0)
(0.0930841 0.0105598 0)
(0.0891402 0.0163962 0)
(0.0851991 0.0206349 0)
(0.0811609 0.0242959 0)
(0.0770351 0.0283292 0)
(0.0730113 0.0336848 0)
(0.0696056 0.0413091 0)
(0.0660285 0.0519284 0)
(0.0682622 0.0671041 0)
(0.0612457 0.063303 0)
(0.0459584 0.0759138 0)
(-0.0974356 -0.0286031 0)
(0.0431321 -0.049061 0)
(0.0528038 -0.0438984 0)
(0.0561239 -0.0304047 0)
(0.0598608 -0.0159873 0)
(0.0595522 -0.00375277 0)
(0.0547377 -0.00439738 0)
(0.0521865 -0.00395582 0)
(0.0511135 -0.00378696 0)
(0.0503807 -0.00372787 0)
(0.0497113 -0.00371232 0)
(0.0492437 -0.00357879 0)
(0.0494731 -0.00300999 0)
(0.0514133 -0.00146317 0)
(0.0571937 0.00315958 0)
(0.0556429 0.0231881 0)
(0.0522866 0.0357597 0)
(-0.023469 0.0468441 0)
(0.243232 0.0446983 0)
(-0.540792 -0.232885 0)
(0.221066 -0.138839 0)
(0.012871 -0.095898 0)
(0.0296925 -0.0374968 0)
(0.0353492 -0.00820629 0)
(0.0323764 0.00590976 0)
(0.030677 0.0140127 0)
(0.0303142 0.0193282 0)
(0.0305082 0.0231785 0)
(0.0309571 0.0265275 0)
(0.0317822 0.0302083 0)
(0.0333037 0.0349748 0)
(0.0360304 0.0414448 0)
(0.0395539 0.0499965 0)
(0.0481886 0.0620166 0)
(0.0587896 0.0674985 0)
(0.0728982 0.0800544 0)
(0.101486 -0.0647686 0)
(0.0947113 -0.0518748 0)
(0.0859342 -0.0529538 0)
(0.0735977 -0.0458135 0)
(0.0655766 -0.0317004 0)
(0.0627871 -0.0164807 0)
(0.064086 -0.00205832 0)
(0.0665474 0.000210706 0)
(0.0649962 -0.000188227 0)
(0.0616396 -0.000249083 0)
(0.0575963 -0.000101094 0)
(0.0529076 0.000163621 0)
(0.0473098 0.000567988 0)
(0.0405055 0.00119861 0)
(0.0320234 0.00234156 0)
(0.011211 0.00507589 0)
(0.0230947 0.0325852 0)
(0.0383919 0.041602 0)
(-0.0263602 0.0484839 0)
(0.263109 0.0793168 0)
(-0.599111 -0.232076 0)
(0.206465 -0.152977 0)
(-0.0567598 -0.0957251 0)
(-0.0151311 -0.0273293 0)
(-0.0173345 -0.00330025 0)
(-0.0203884 0.0071545 0)
(-0.0200001 0.013551 0)
(-0.018156 0.0180329 0)
(-0.0154733 0.0214032 0)
(-0.0121276 0.024258 0)
(-0.00795794 0.0271503 0)
(-0.00258845 0.0306588 0)
(0.00493058 0.0355101 0)
(0.0142434 0.0418409 0)
(0.0288374 0.0503079 0)
(0.0471211 0.0539497 0)
(0.0703096 0.0508412 0)
(0.089301 0.00472597 0)
(0.0866656 -0.0196185 0)
(0.0730467 -0.031913 0)
(0.0600835 -0.0310575 0)
(0.0503357 -0.0222463 0)
(0.0442643 -0.0114938 0)
(0.0415362 -0.00221677 0)
(0.0391815 0.00214491 0)
(0.0365329 0.00420693 0)
(0.0331595 0.00564296 0)
(0.0293718 0.0068955 0)
(0.0251715 0.00816888 0)
(0.020322 0.00970521 0)
(0.0147175 0.0116982 0)
(0.00916018 0.0142917 0)
(-0.0011721 0.0162421 0)
(0.00513569 0.0233918 0)
(0.0294591 0.0311926 0)
(-0.00442648 0.0302741 0)
(0.132677 0.0728223 0)
(0.0957552 0.0688563 0)
(-0.0972104 0.0658329 0)
(0.34756 -0.0175271 0)
(-0.638863 -0.212363 0)
(0.169571 -0.149209 0)
(-0.086386 -0.0943197 0)
(-0.044986 -0.0247002 0)
(-0.0515209 -0.00181198 0)
(-0.0551335 0.00714254 0)
(-0.0554203 0.0118572 0)
(-0.0536668 0.0150527 0)
(-0.0503889 0.0174297 0)
(-0.0458225 0.0192922 0)
(-0.0399406 0.0209246 0)
(-0.0324929 0.0226668 0)
(-0.0229469 0.0249276 0)
(-0.011152 0.027881 0)
(0.00616438 0.0315274 0)
(0.0254605 0.0301691 0)
(0.0466785 0.0204576 0)
(0.0563468 -0.00431371 0)
(0.0543927 -0.0209256 0)
(0.0445548 -0.0257508 0)
(0.0334334 -0.0222733 0)
(0.0239763 -0.0145597 0)
(0.0173441 -0.00619597 0)
(0.0133626 0.00088648 0)
(0.0113343 0.00508531 0)
(0.00959336 0.0070447 0)
(0.00737715 0.00843598 0)
(0.00469641 0.00992227 0)
(0.00158951 0.0117293 0)
(-0.00203574 0.0140505 0)
(-0.00532546 0.0164394 0)
(-0.00722642 0.0180876 0)
(-0.00916274 0.016396 0)
(-0.00497234 0.0111682 0)
(0.0100316 0.0106272 0)
(-0.0087623 -0.00297163 0)
(0.0412332 0.0368961 0)
(0.0427872 0.0621485 0)
(-0.133273 0.0761273 0)
(0.347222 -0.0386986 0)
(-0.680971 -0.174114 0)
(0.133013 -0.133368 0)
(-0.10824 -0.0978075 0)
(-0.064185 -0.0203757 0)
(-0.0728461 0.0019347 0)
(-0.0764137 0.00871364 0)
(-0.0777176 0.0111775 0)
(-0.0767868 0.0123807 0)
(-0.073914 0.0130608 0)
(-0.0693498 0.0133456 0)
(-0.0631758 0.0133029 0)
(-0.0553071 0.013091 0)
(-0.0455534 0.0128983 0)
(-0.0337871 0.0127567 0)
(-0.0192992 0.012616 0)
(-0.00308124 0.0105049 0)
(0.0127613 0.00440911 0)
(0.0182797 -0.00660033 0)
(0.0171679 -0.0146542 0)
(0.0104214 -0.0162955 0)
(0.0021519 -0.0129244 0)
(-0.00494941 -0.00711892 0)
(-0.00944899 -0.00151133 0)
(-0.0118151 0.00307144 0)
(-0.0124866 0.00615446 0)
(-0.0130846 0.00822518 0)
(-0.0140406 0.0100517 0)
(-0.0153297 0.0119649 0)
(-0.0167295 0.0139945 0)
(-0.0178596 0.0159328 0)
(-0.0180289 0.0171631 0)
(-0.0166877 0.0166478 0)
(-0.0145544 0.0126638 0)
(-0.0110865 0.00612609 0)
(-0.00697884 0.00304425 0)
(-0.0140561 0.00185885 0)
(0.00395599 0.0309169 0)
(0.01858 0.0789172 0)
(-0.179024 0.0904398 0)
(0.432527 -0.046922 0)
(-0.725018 -0.101461 0)
(0.0888099 -0.0992968 0)
(-0.138676 -0.120803 0)
(-0.0766034 -0.029146 0)
(-0.0842422 0.00398312 0)
(-0.0858713 0.0113271 0)
(-0.0874805 0.0118634 0)
(-0.0872053 0.0109376 0)
(-0.0850254 0.00974432 0)
(-0.0812397 0.00837173 0)
(-0.0759851 0.00674474 0)
(-0.0692954 0.00494886 0)
(-0.0612406 0.00312456 0)
(-0.0519447 0.00145974 0)
(-0.0415553 0.000151531 0)
(-0.0308641 -0.00118866 0)
(-0.0215581 -0.00317643 0)
(-0.0163768 -0.00681782 0)
(-0.0161549 -0.00959322 0)
(-0.0195411 -0.00916384 0)
(-0.0238156 -0.00632269 0)
(-0.0272661 -0.00258921 0)
(-0.0293574 0.000993199 0)
(-0.0299746 0.0040575 0)
(-0.0298349 0.00660599 0)
(-0.02953 0.00884773 0)
(-0.0292485 0.0109423 0)
(-0.0289229 0.0129219 0)
(-0.0283244 0.0146648 0)
(-0.0271213 0.0158507 0)
(-0.0249487 0.0159183 0)
(-0.0216845 0.0141623 0)
(-0.0178654 0.0100269 0)
(-0.0139047 0.00483538 0)
(-0.0101243 0.0018945 0)
(-0.00765283 0.0031042 0)
(0.00755495 0.0252609 0)
(0.0426011 0.0754839 0)
(-0.143226 0.0729463 0)
(0.734985 0.00283791 0)
(-0.783731 0.0672744 0)
(0.017325 -0.0619226 0)
(-0.193425 -0.160347 0)
(-0.0627351 -0.0486805 0)
(-0.0768097 0.00890928 0)
(-0.0799153 0.0181231 0)
(-0.0812255 0.016377 0)
(-0.0804007 0.0133794 0)
(-0.0782162 0.0106287 0)
(-0.075133 0.00801062 0)
(-0.0711553 0.00527882 0)
(-0.0662692 0.0024468 0)
(-0.0609433 -0.000213292 0)
(-0.0553055 -0.00242174 0)
(-0.0494995 -0.00389642 0)
(-0.0438761 -0.00463767 0)
(-0.0391314 -0.00498144 0)
(-0.0363183 -0.00532415 0)
(-0.0358961 -0.00489143 0)
(-0.0370744 -0.00312999 0)
(-0.0385675 -0.000469353 0)
(-0.0396495 0.00244947 0)
(-0.0401431 0.00511235 0)
(-0.0399829 0.00740671 0)
(-0.0393377 0.00955739 0)
(-0.038356 0.0116075 0)
(-0.037093 0.0135047 0)
(-0.0355128 0.0151406 0)
(-0.033519 0.0163266 0)
(-0.0309935 0.0167552 0)
(-0.0278625 0.0160003 0)
(-0.0242337 0.0136345 0)
(-0.0205055 0.00952939 0)
(-0.0169305 0.00446646 0)
(-0.0132437 0.00018995 0)
(-0.00796459 -0.000664487 0)
(0.00896537 0.0126845 0)
(0.0435626 0.0470075 0)
(-0.104944 0.0389978 0)
(0.723222 0.0439752 0)
(-0.230925 -0.101283 0)
(-0.01441 -0.0294016 0)
(-0.0443252 0.0213914 0)
(-0.0601993 0.022186 0)
(-0.0590787 0.0155421 0)
(-0.0552872 0.00954241 0)
(-0.0517205 0.0047226 0)
(-0.0486072 0.000228873 0)
(-0.0457192 -0.00472645 0)
(-0.0436221 -0.00901043 0)
(-0.0420658 -0.012643 0)
(-0.0409917 -0.0154792 0)
(-0.0402622 -0.0171493 0)
(-0.0397659 -0.0173958 0)
(-0.0396142 -0.0162789 0)
(-0.0400566 -0.0139636 0)
(-0.0412187 -0.0105458 0)
(-0.0426707 -0.00643097 0)
(-0.043797 -0.00217106 0)
(-0.0443066 0.00181185 0)
(-0.0442824 0.00486434 0)
(-0.0438242 0.00691454 0)
(-0.0429195 0.00862886 0)
(-0.0415546 0.0100964 0)
(-0.039718 0.0112651 0)
(-0.0374122 0.0120298 0)
(-0.0346656 0.0122343 0)
(-0.0315578 0.0116545 0)
(-0.0282621 0.0100041 0)
(-0.0251015 0.00700349 0)
(-0.0225949 0.00250319 0)
(-0.0214134 -0.00361164 0)
(-0.0217785 -0.00947409 0)
(-0.0217775 -0.0115379 0)
(-0.0163984 -0.00106365 0)
(-0.0116268 0.0212227 0)
(-0.149584 0.01863 0)
(0.428846 0.0734676 0)
(-0.259512 -0.186198 0)
(-0.0370007 -0.137962 0)
(-0.0444321 -0.111484 0)
(-0.0384189 -0.105427 0)
(-0.0274701 -0.106714 0)
(-0.0196819 -0.108024 0)
(-0.0149024 -0.10663 0)
(-0.011962 -0.104837 0)
(-0.0108279 -0.102965 0)
(-0.0113314 -0.101352 0)
(-0.0132619 -0.100005 0)
(-0.0162968 -0.0987634 0)
(-0.0199463 -0.0974467 0)
(-0.023505 -0.0960169 0)
(-0.0269071 -0.0954081 0)
(-0.030305 -0.0961859 0)
(-0.0339213 -0.0972277 0)
(-0.0373566 -0.0984412 0)
(-0.0402289 -0.0997364 0)
(-0.0422164 -0.100158 0)
(-0.0432251 -0.0989266 0)
(-0.0434764 -0.0975055 0)
(-0.0431334 -0.0961542 0)
(-0.0422036 -0.0947751 0)
(-0.0406734 -0.0933425 0)
(-0.0385581 -0.091933 0)
(-0.0359282 -0.0907398 0)
(-0.0329458 -0.090096 0)
(-0.0299205 -0.0904507 0)
(-0.0273661 -0.0921936 0)
(-0.0259805 -0.0951409 0)
(-0.0267111 -0.097361 0)
(-0.030153 -0.0981738 0)
(-0.0345136 -0.099587 0)
(-0.03782 -0.0951551 0)
(-0.0529829 -0.0734119 0)
(-0.120534 -0.0599055 0)
(0.341836 -0.0324044 0)
(-1.02762 -0.0669115 0)
(0.275551 0.184195 0)
(0.0463309 0.626414 0)
(0.0485103 0.519506 0)
(0.0682228 0.444804 0)
(0.0746813 0.416845 0)
(0.0729248 0.406957 0)
(0.0685156 0.401396 0)
(0.0632478 0.394047 0)
(0.0576709 0.387313 0)
(0.0513459 0.381466 0)
(0.0441786 0.376548 0)
(0.0361168 0.372394 0)
(0.0271386 0.368835 0)
(0.0173312 0.365916 0)
(0.00718851 0.363715 0)
(-0.00416378 0.361177 0)
(-0.0136276 0.360075 0)
(-0.0217616 0.360225 0)
(-0.0282726 0.361696 0)
(-0.0332212 0.364233 0)
(-0.0367997 0.366095 0)
(-0.0390989 0.365833 0)
(-0.0402443 0.365816 0)
(-0.0404332 0.366097 0)
(-0.0397855 0.366407 0)
(-0.0384311 0.366571 0)
(-0.0365429 0.366473 0)
(-0.0343567 0.366053 0)
(-0.0321883 0.365347 0)
(-0.0304506 0.36453 0)
(-0.0297288 0.363899 0)
(-0.0308728 0.363467 0)
(-0.0342121 0.36092 0)
(-0.0377839 0.355842 0)
(-0.0386432 0.354003 0)
(-0.043318 0.352004 0)
(-0.0795459 0.338705 0)
(-0.15677 0.343765 0)
(0.45734 0.389909 0)
)
;

boundaryField
{
    floor
    {
        type            noSlip;
    }
    ceiling
    {
        type            noSlip;
    }
    sWall
    {
        type            noSlip;
    }
    nWall
    {
        type            noSlip;
    }
    sideWalls
    {
        type            empty;
    }
    glass1
    {
        type            noSlip;
    }
    glass2
    {
        type            noSlip;
    }
    sun
    {
        type            noSlip;
    }
    heatsource1
    {
        type            noSlip;
    }
    heatsource2
    {
        type            noSlip;
    }
    Table_master
    {
        type            noSlip;
    }
    Table_slave
    {
        type            noSlip;
    }
    inlet
    {
        type            fixedValue;
        value           uniform (0.2 0 0);
    }
    outlet
    {
        type            zeroGradient;
    }
}


// ************************************************************************* //
