/*--------------------------------*- C++ -*----------------------------------*\
  =========                 |
  \\      /  F ield         | OpenFOAM: The Open Source CFD Toolbox
   \\    /   O peration     | Website:  https://openfoam.org
    \\  /    A nd           | Version:  6
     \\/     M anipulation  |
\*---------------------------------------------------------------------------*/
FoamFile
{
    version     2.0;
    format      ascii;
    class       surfaceScalarField;
    location    "400";
    object      phi;
}
// * * * * * * * * * * * * * * * * * * * * * * * * * * * * * * * * * * * * * //

dimensions      [1 0 -1 0 0 0 0];

internalField   nonuniform List<scalar> 
852
(
-0.00235513
0.00238913
-0.0032678
0.000912669
-0.00395786
0.00069005
-0.00447439
0.000516522
-0.00478756
0.000313157
-0.00486729
7.9725e-05
-0.0046819
-0.000185395
-0.00421261
-0.000469305
-0.00348714
-0.000725472
-0.00258614
-0.000901009
-0.00162517
-0.000960978
-0.00073104
-0.000894141
-3.58818e-05
-0.000695168
0.000245813
-0.000281704
0.000243093
3.9153e-05
-4.29014e-05
0.000164954
-0.000125813
0.000475807
-0.000310865
0.000831918
-0.000356125
0.00114556
-0.000313655
0.00138419
-0.000238644
0.00151591
-0.000131735
0.00156873
-5.2832e-05
0.00159118
-2.24611e-05
0.0016007
-9.53148e-06
0.00160037
3.08477e-07
0.00159026
1.0099e-05
0.00156626
2.39846e-05
0.00151503
5.1218e-05
0.00140423
0.000110782
0.00117765
0.000226568
0.000783417
0.000394212
0.000120794
0.000662606
0.00011545
-0.00173504
0.00421748
-0.00260498
0.0017826
-0.00331094
0.001396
-0.00382878
0.00103435
-0.00414857
0.000632937
-0.00424484
0.000175989
-0.0040851
-0.000345146
-0.00365794
-0.000896467
-0.00300549
-0.00137793
-0.00221874
-0.00168777
-0.00140925
-0.00177048
-0.000680532
-0.00162287
-0.000112641
-0.00126307
0.000327148
-0.000721502
0.000716814
-0.000146583
0.0004822
0.000234554
0.00048214
-0.000109472
5.77743e-05
0.000459721
-0.000695016
0.000826186
-0.000677342
0.00111371
-0.000643665
0.00134744
-0.000547391
0.00151661
-0.000407826
0.00155592
-0.00017106
0.00156454
-6.1467e-05
0.00157318
-3.11115e-05
0.00158027
-1.66368e-05
0.00158462
-4.05439e-06
0.00158629
8.41069e-06
0.00158433
2.59278e-05
0.0015744
6.11388e-05
0.00152323
0.000161934
0.0013241
0.000425678
0.000982177
0.000736122
0.000595391
0.00104938
0.000696764
-0.0012538
0.00561603
-0.00199391
0.0025227
-0.00263078
0.00203287
-0.00309243
0.00149599
-0.00339107
0.000931575
-0.00349496
0.000279872
-0.0033473
-0.000492817
-0.00293758
-0.00130619
-0.00233469
-0.00198082
-0.0016419
-0.00238057
-0.00096068
-0.00245171
-0.00036464
-0.00221891
0.000102074
-0.00172979
0.000462278
-0.00108172
0.000714609
-0.000398924
0.000681789
0.000267364
0.00116392
0.000731415
-0.00068688
0.000963205
-0.000926816
0.00122761
-0.000941757
0.00139812
-0.000814184
0.00152342
-0.000672704
0.00168052
-0.000564942
0.0015096
0.00144827
0.0014173
0.0014008
0.00139688
0.00140543
0.0014315
0.00149278
0.00165485
0.0014548
0.000625707
0.00121211
0.000978803
0.000853375
0.00140809
0.00152798
-0.000900882
0.00670666
-0.00147256
0.00309437
-0.00192023
0.00248053
-0.0022502
0.00182596
-0.00247689
0.00115826
-0.00255909
0.000362061
-0.00238714
-0.000664769
-0.00197459
-0.00171875
-0.00143176
-0.00252366
-0.000859346
-0.00295299
-0.000331905
-0.00297915
0.000114021
-0.00266485
0.000476896
-0.00209268
0.000790447
-0.00139528
0.00107334
-0.000681828
0.00138996
-4.92615e-05
0.0022006
0.00035327
0.00223203
-4.42098e-05
0.00210956
-0.000564419
0.00189162
-0.000708885
0.00170479
-0.000754943
0.00159249
-0.000701891
0.00152044
-0.000600669
0.00140841
-0.000452932
0.00161813
-0.000209891
0.00174036
-0.000122399
0.00183756
-9.73669e-05
0.00192247
-8.50802e-05
0.0019907
-6.84025e-05
0.00202717
-3.66335e-05
0.00200358
2.34158e-05
0.00187746
0.000125947
0.00158034
0.000296946
0.00154056
0.000665469
0.00142257
0.00109678
0.00122765
0.00160299
0.00272684
-0.000644135
0.00757971
-0.001053
0.00350322
-0.00119361
0.00262113
-0.00131463
0.00194697
-0.00140122
0.00124484
-0.0014032
0.000364032
-0.00114373
-0.000924241
-0.000735524
-0.00212696
-0.000300444
-0.00295874
9.29422e-05
-0.00334637
0.000414067
-0.00330028
0.000663135
-0.00291392
0.000872857
-0.00230241
0.00107089
-0.00159333
0.00129249
-0.000903435
0.00158509
-0.000341871
0.00195858
-2.02339e-05
0.00206423
-0.000149866
0.00188751
-0.00038771
0.00169759
-0.000518981
0.00150863
-0.000565995
0.00135447
-0.000547747
0.00123829
-0.0004845
0.00116858
-0.000383239
0.00121577
-0.000257103
0.00127963
-0.000186276
0.00134566
-0.000163418
0.00141594
-0.000155382
0.00148775
-0.000140227
0.00155242
-0.000101323
0.00159371
-1.78939e-05
0.00159386
0.000125775
0.00155557
0.000335209
0.00158026
0.000640761
0.0017044
0.000972627
0.00215404
0.00115332
0.00331334
0.00156752
0.00218984
0.00112328
0.00133383
0.000855788
0.0013738
-0.000554838
0.00839719
-0.000800914
0.00374929
-0.000509872
0.00233008
-0.000334667
0.00177176
-0.000228295
0.00113846
3.3681e-06
0.00013236
0.000387205
-0.00130808
0.000735663
-0.00247542
0.000989036
-0.00321211
0.00113625
-0.00349359
0.00120182
-0.00336586
0.00121354
-0.00292565
0.00120351
-0.0022924
0.00120481
-0.00159463
0.00124782
-0.000946464
0.00135092
-0.000444986
0.00149393
-0.000163255
0.00150035
-0.000156301
0.00137256
-0.000259924
0.00120478
-0.00035122
0.00103397
-0.000395199
0.00088372
-0.000397513
0.000767858
-0.000368656
0.000701205
-0.000316604
0.000700684
-0.000256602
0.000739686
-0.000225298
0.000798152
-0.000221905
0.000869057
-0.000226309
0.000949686
-0.000220879
0.00103869
-0.000190351
0.00113571
-0.000114938
0.00123107
3.03912e-05
0.00132019
0.000246065
0.00144976
0.000511177
0.00164688
0.000775482
0.00186659
0.000933597
0.00215871
0.00127538
0.00190348
0.00137849
0.00115881
0.00160043
0.00257408
-0.000633618
0.00932355
-0.000489391
0.00360506
0.000353452
0.00148723
0.000829942
0.00129526
0.00124495
0.000723444
0.00174721
-0.000369911
0.00213531
-0.00169619
0.00233407
-0.00267418
0.00233932
-0.00321735
0.0021892
-0.00334347
0.00194096
-0.00311762
0.0016504
-0.00263511
0.00136493
-0.00200694
0.00112575
-0.00135546
0.000960751
-0.000781485
0.000883041
-0.00036729
0.0008627
-0.000142929
0.000807422
-0.000101038
0.000697655
-0.000150172
0.000556635
-0.000210217
0.000410324
-0.000248905
0.000278024
-0.000265231
0.000174594
-0.000265246
0.000113446
-0.000255477
0.000102787
-0.000245964
0.000129232
-0.000251766
0.000176523
-0.000269219
0.000236299
-0.000286108
0.000307161
-0.000291765
0.000394195
-0.000277409
0.000509675
-0.000230442
0.000664759
-0.000124717
0.000843427
6.7374e-05
0.00104031
0.000314268
0.00126032
0.000555454
0.0014447
0.000749188
0.0016743
0.00104577
0.00179992
0.00125284
0.00154575
0.00185459
0.00416297
0.00187371
0.00777734
0.00242235
0.0030564
0.00256288
0.00134669
0.00288617
0.000971959
0.00342814
0.000181467
0.00398848
-0.000930266
0.00418531
-0.00189302
0.00403869
-0.00252756
0.0036301
-0.00280876
0.00305673
-0.0027701
0.00241441
-0.0024753
0.0017798
-0.00200051
0.00120619
-0.00143335
0.000743463
-0.000892751
0.000413353
-0.000451394
0.000223108
-0.000177063
0.000126173
-4.6013e-05
4.81262e-05
-2.3009e-05
-4.86372e-05
-5.34267e-05
-0.00016435
-9.45235e-05
-0.000284205
-0.00012907
-0.000392799
-0.000156658
-0.000478088
-0.00017998
-0.000532178
-0.00020141
-0.000552722
-0.000225444
-0.000548997
-0.000255515
-0.00053158
-0.00028666
-0.000507277
-0.000310435
-0.000479143
-0.000319924
-0.000444234
-0.000312342
-0.000387128
-0.000287572
-0.000272556
-0.000239313
-7.36082e-05
-0.000131598
0.000171729
6.89067e-05
0.000415731
0.000311429
0.000613083
0.000551813
0.0008359
0.00082293
0.00103474
0.00105398
0.000621159
0.00226816
0.00496408
0.00811568
0.0111498
0.00961349
0.00288299
0.0088905
0.00169494
0.00831571
0.000756244
0.00757507
-0.000189618
0.00662282
-0.000940751
0.00553438
-0.0014391
0.00439128
-0.00166565
0.00326254
-0.00164136
0.0022185
-0.00143127
0.00130445
-0.00108648
0.00054138
-0.0006703
-2.0866e-05
-0.000330528
-0.000371977
-0.000100305
-0.000559434
1.03738e-05
-0.000656491
5.10226e-05
-0.000724443
4.4922e-05
-0.000797125
1.9234e-05
-0.000881583
-1.00877e-05
-0.000970835
-3.98408e-05
-0.00105461
-7.29037e-05
-0.00112635
-0.00010827
-0.00118512
-0.000142664
-0.00123171
-0.000178875
-0.00127072
-0.000216534
-0.00130729
-0.000250109
-0.00134723
-0.000270523
-0.00140045
-0.000266731
-0.00148201
-0.000230802
-0.00160862
-0.000160987
-0.00178984
-5.81171e-05
-0.00202855
0.000107092
-0.00231982
0.000360156
-0.00272681
0.000718398
-0.00338228
0.00120727
-0.00441738
0.00185801
-0.00588932
0.0025259
-0.00611969
0.00249851
-0.000961512
0.00602077
0.00317504
0.00527004
0.0024457
0.0051199
0.000906426
0.0048649
6.54205e-05
0.00431956
-0.000395383
0.00352636
-0.000645896
0.00258968
-0.000728986
0.00161094
-0.00066264
0.000695213
-0.000515574
-9.83037e-05
-0.000292999
-0.000683081
-8.55491e-05
-0.00103569
2.20531e-05
-0.00122008
8.40638e-05
-0.00131222
0.000102495
-0.00135875
9.75303e-05
-0.00139571
8.18571e-05
-0.00143686
6.03535e-05
-0.00148364
3.66749e-05
-0.00153525
1.17358e-05
-0.00159296
-1.52097e-05
-0.0016577
-4.35613e-05
-0.00173252
-6.78666e-05
-0.00181844
-9.29784e-05
-0.00191614
-0.000118862
-0.00202438
-0.000141887
-0.00213984
-0.000155094
-0.00226054
-0.000146056
-0.00238765
-0.000103711
-0.00252279
-2.5874e-05
-0.00266541
8.44832e-05
-0.00280092
0.000242586
-0.00291848
0.000477691
-0.00301478
0.00081468
-0.00307645
0.00126891
-0.00306318
0.00184472
-0.00285028
0.00231298
-0.00128531
0.000933514
-0.00220319
0.000459203
0.00270371
0.00142584
0.00147909
0.00158856
0.000743717
0.00143659
0.000217391
0.00109217
-5.09796e-05
0.000595103
-0.000148857
1.51851e-05
-0.000149106
-0.000563239
-8.42549e-05
-0.00107654
-2.30692e-06
-0.00144196
7.23935e-05
-0.00164525
0.000117708
-0.00175062
0.000127404
-0.00179272
0.000126136
-0.00180375
0.000113504
-0.00180353
9.72792e-05
-0.00180226
8.05601e-05
-0.00180573
6.37974e-05
-0.00181631
4.72289e-05
-0.00183517
3.05787e-05
-0.00186589
1.54838e-05
-0.00191162
2.13697e-06
-0.00197055
-8.95734e-06
-0.00204701
-1.65455e-05
-0.0021461
-1.97968e-05
-0.00227047
-1.75441e-05
-0.00241673
-8.8519e-06
-0.00257045
7.64175e-06
-0.00270874
3.45575e-05
-0.00280717
7.25311e-05
-0.00285765
0.000134945
-0.00284054
0.00022545
-0.00271742
0.000354546
-0.00244278
0.000540026
-0.00195405
0.000780152
-0.00106655
0.000957201
0.000392392
0.00085402
0.00139195
-6.60645e-05
-0.000766543
-0.00579246
-0.00704003
-0.00435728
-0.00290238
-0.0021864
-0.00200057
-0.00208568
-0.00226972
-0.00245505
-0.00257683
-0.00261829
-0.00258663
-0.00251123
-0.00242729
-0.00234531
-0.00227633
-0.00222374
-0.00218796
-0.00216899
-0.00216663
-0.00218096
-0.00221045
-0.00225333
-0.00230735
-0.00236903
-0.00243416
-0.00249744
-0.00255269
-0.00259235
-0.00260621
-0.00258336
-0.0024994
-0.00232615
-0.00202483
-0.00153878
-0.000813059
8.93211e-05
0.000887806
0.000766559
)
;

boundaryField
{
    floor
    {
        type            calculated;
        value           nonuniform List<scalar> 
29
(
0
0
0
0
0
0
0
0
0
0
0
0
0
0
0
0
0
0
0
0
5.3238e-06
1.40599e-05
2.21446e-05
2.8774e-05
2.71033e-06
3.73648e-06
8.78468e-06
1.32285e-05
1.27691e-05
)
;
    }
    ceiling
    {
        type            calculated;
        value           nonuniform List<scalar> 
43
(
2.33815e-05
2.17451e-05
2.0955e-05
2.41695e-05
2.76969e-05
3.15258e-05
3.40901e-05
3.51444e-05
3.61867e-05
3.7488e-05
3.9128e-05
4.07074e-05
4.22747e-05
4.34424e-05
4.41293e-05
4.4492e-05
4.46683e-05
4.47519e-05
4.47999e-05
4.48406e-05
4.48879e-05
4.49425e-05
4.49987e-05
4.50327e-05
4.5113e-05
4.53115e-05
4.5709e-05
4.63703e-05
4.7285e-05
4.83913e-05
4.96606e-05
5.09589e-05
5.2179e-05
5.32066e-05
5.39502e-05
5.4413e-05
5.47996e-05
5.55131e-05
5.51611e-05
5.69559e-05
2.73277e-05
2.22951e-05
1.21366e-05
)
;
    }
    sWall
    {
        type            calculated;
        value           uniform -0.000171041;
    }
    nWall
    {
        type            calculated;
        value           nonuniform List<scalar> 6(-4.01897e-05 -4.14913e-05 -4.31569e-05 -4.36517e-05 -4.4717e-05 -5.69613e-05);
    }
    sideWalls
    {
        type            empty;
        value           nonuniform 0();
    }
    glass1
    {
        type            calculated;
        value           nonuniform List<scalar> 9(-3.40062e-05 -9.33186e-05 -0.000144751 -0.000189753 -0.000228924 -0.000262643 -0.000292749 -0.000327504 -0.000365677);
    }
    glass2
    {
        type            calculated;
        value           nonuniform List<scalar> 2(-0.000179978 -0.000194116);
    }
    sun
    {
        type            calculated;
        value           uniform 0;
    }
    heatsource1
    {
        type            calculated;
        value           nonuniform List<scalar> 3(2.02845e-07 2.03333e-07 2.03687e-07);
    }
    heatsource2
    {
        type            calculated;
        value           nonuniform List<scalar> 4(5.10112e-08 5.10864e-08 0 0);
    }
    Table_master
    {
        type            calculated;
        value           nonuniform List<scalar> 9(-1.52621e-07 -1.52735e-07 -1.52767e-07 -1.52786e-07 -1.52797e-07 -1.528e-07 -1.52796e-07 -1.5278e-07 -1.5273e-07);
    }
    Table_slave
    {
        type            calculated;
        value           nonuniform List<scalar> 9(1.52519e-07 1.52536e-07 1.52501e-07 1.52468e-07 1.5244e-07 1.52425e-07 1.52424e-07 1.52436e-07 1.52485e-07);
    }
    inlet
    {
        type            calculated;
        value           uniform -0.00631281;
    }
    outlet
    {
        type            calculated;
        value           nonuniform List<scalar> 2(0.0059401 0.00122581);
    }
}


// ************************************************************************* //
