/*--------------------------------*- C++ -*----------------------------------*\
  =========                 |
  \\      /  F ield         | OpenFOAM: The Open Source CFD Toolbox
   \\    /   O peration     | Website:  https://openfoam.org
    \\  /    A nd           | Version:  6
     \\/     M anipulation  |
\*---------------------------------------------------------------------------*/
FoamFile
{
    version     2.0;
    format      ascii;
    class       volScalarField;
    location    "120";
    object      alphat;
}
// * * * * * * * * * * * * * * * * * * * * * * * * * * * * * * * * * * * * * //

dimensions      [1 -1 -1 0 0 0 0];

internalField   nonuniform List<scalar> 
459
(
0.00139864
0.0015824
0.00167152
0.00179398
0.00192831
0.00203273
0.0020951
0.0020443
0.00195409
0.00184744
0.00173173
0.00161181
0.00150071
0.00138177
0.0012478
0.000732907
0.00091604
0.00100621
0.00108313
0.00108199
0.00104999
0.000979937
0.000906793
0.000842015
0.000786354
0.000738526
0.000697189
0.000660949
0.000629004
0.000599744
0.000571203
0.000542039
0.00050045
0.000488205
0.00175625
0.0051379
0.00545347
0.00620276
0.00670198
0.00706548
0.00744356
0.00776941
0.00763119
0.00723036
0.00667514
0.00594654
0.00491794
0.00374075
0.002501
0.00131693
0.00114039
0.00108467
0.00310659
0.00311625
0.00356684
0.00398425
0.00394829
0.00277686
0.00229298
0.00198029
0.0017558
0.00158703
0.00145666
0.00135586
0.00125797
0.0011478
0.00104055
0.00101402
0.000953913
0.000617974
0.00205856
0.00730606
0.00711077
0.00736975
0.00733719
0.00726301
0.00765057
0.00831342
0.00858998
0.00848629
0.00814047
0.00762248
0.00676996
0.00558089
0.00413796
0.00263261
0.00121028
0.0012019
0.00377242
0.00338365
0.00401008
0.00479251
0.00470735
0.00132032
0.0011427
0.000999219
0.00088478
0.000793219
0.000719415
0.000659622
0.000613343
0.000581964
0.000678589
0.000910628
0.00120343
0.000716028
0.00234939
0.00908132
0.00819326
0.00795345
0.00724934
0.00673855
0.00718092
0.00803304
0.00858081
0.00867889
0.00847625
0.00811197
0.00752251
0.00660873
0.00534658
0.00382447
0.00209778
0.00123178
0.00171748
0.00242336
0.00367721
0.005096
0.00616045
0.00593863
0.00148497
0.00136554
0.00127026
0.00119191
0.00112029
0.0010496
0.000976076
0.000896554
0.000804968
0.000719435
0.000875924
0.00145187
0.00083363
0.00263808
0.0109341
0.00964974
0.00871617
0.00718148
0.00640088
0.00692806
0.00793384
0.00865445
0.0088441
0.00866559
0.00833432
0.00789974
0.00724454
0.00629816
0.0050944
0.00376435
0.00320926
0.00369439
0.00486777
0.00629849
0.00753822
0.00835416
0.00852576
0.00734925
0.00662743
0.00609468
0.00547966
0.00481391
0.00411723
0.00339929
0.00266635
0.00192882
0.00131741
0.00111655
0.0014724
0.00121156
0.000910863
0.00103692
0.00153871
0.00291791
0.0126496
0.011643
0.00922035
0.00696397
0.00624384
0.00690577
0.00809081
0.00895425
0.00917999
0.00898361
0.00869762
0.00841244
0.00799916
0.00740975
0.00671208
0.00610197
0.00634708
0.00738986
0.00850148
0.00943867
0.0100841
0.0104047
0.0103843
0.00996222
0.00938138
0.00861521
0.00771889
0.00673068
0.00569249
0.00463349
0.00358377
0.00259678
0.00183144
0.0015027
0.00151079
0.00141262
0.00150704
0.00228509
0.00205103
0.0030759
0.0131235
0.0123378
0.00865012
0.00642122
0.00605183
0.00705254
0.00848632
0.00947498
0.0097049
0.00954625
0.0094723
0.00933232
0.00908918
0.0088254
0.00864362
0.0087405
0.00944196
0.0104037
0.0111228
0.0115433
0.0116826
0.0115779
0.0112679
0.0107593
0.0100866
0.00926076
0.00829988
0.00722486
0.00611379
0.00500606
0.00395647
0.00304127
0.00237851
0.00204015
0.00186422
0.00163448
0.00217542
0.00412552
0.00277732
0.00306894
0.00987699
0.00840233
0.00622811
0.00525218
0.00583225
0.00744632
0.00916838
0.010212
0.0104086
0.0104006
0.0101981
0.00997265
0.00985753
0.00989613
0.0101179
0.0105842
0.0112633
0.0118756
0.0121948
0.0121919
0.0119372
0.0114604
0.0108184
0.0101035
0.00934272
0.00852131
0.00763005
0.00668426
0.00573446
0.00483634
0.00405591
0.00345912
0.0030935
0.00292729
0.00279649
0.00231194
0.00288517
0.00725276
0.00382117
0.00295846
0.00332991
0.00337427
0.00324153
0.00407653
0.00609583
0.00844357
0.0102421
0.0110797
0.0110952
0.0105586
0.0100707
0.00985858
0.00990528
0.010148
0.0105417
0.0110182
0.0114468
0.0116589
0.0115717
0.0112087
0.0106246
0.00991104
0.00916017
0.00843038
0.00773945
0.00707781
0.00644214
0.00585273
0.0053515
0.00498384
0.00478405
0.00475666
0.00485418
0.00495205
0.00487459
0.00425878
0.00457509
0.00962418
0.0042853
0.000592962
0.00249073
0.00573016
0.00880907
0.0106957
0.0114815
0.011176
0.0106114
0.0101701
0.00996863
0.00996888
0.0100969
0.0102978
0.0105216
0.0106988
0.0107455
0.0106107
0.0103051
0.00988154
0.00940163
0.00891481
0.00845666
0.00804527
0.00768548
0.0073798
0.0071376
0.00697666
0.00691818
0.00697822
0.0071573
0.00742508
0.00769939
0.00782818
0.00763474
0.00708488
0.00720835
0.0102148
0.00364323
0.00276328
0.00910998
0.011373
0.0123088
0.0122481
0.0113853
0.0106119
0.0101471
0.00995581
0.00992078
0.00995706
0.0100264
0.010114
0.0102062
0.0102799
0.0103047
0.0102574
0.0101373
0.00996061
0.00975133
0.00953345
0.00932491
0.00913693
0.00897789
0.00885716
0.00878649
0.00877958
0.00885005
0.00900756
0.00925046
0.00954986
0.00981957
0.00988523
0.00955912
0.00888686
0.00830554
0.00782768
0.00304537
0.00183307
0.00205452
0.00236829
0.00265321
0.00274986
0.00269243
0.00258387
0.00250008
0.0024335
0.00239742
0.00238222
0.00238019
0.00238666
0.00239888
0.00241443
0.00243036
0.00244303
0.00244909
0.00244712
0.00243814
0.0024247
0.00240961
0.00239502
0.00238235
0.00237249
0.00236609
0.00236377
0.00236623
0.00237421
0.00238821
0.00240802
0.00243161
0.00245336
0.00246294
0.00245339
0.00244498
0.00248994
0.00261705
0.00273029
0.00250407
)
;

boundaryField
{
    floor
    {
        type            compressible::alphatWallFunction;
        Prt             0.85;
        value           nonuniform List<scalar> 
29
(
0.000177211
0.000104499
0.000130908
0.000143675
0.000154463
0.000154309
0.000149836
0.000139982
0.000129604
0.000120331
0.000112294
0.000105334
9.92744e-05
9.39262e-05
8.91818e-05
8.48102e-05
8.05206e-05
7.61095e-05
6.97662e-05
6.78846e-05
6.78837e-05
8.75371e-05
0.000102043
0.000119128
0.000177209
0.000104498
0.000154662
0.000170923
0.000175017
)
;
    }
    ceiling
    {
        type            compressible::alphatWallFunction;
        Prt             0.85;
        value           nonuniform List<scalar> 
43
(
0.000255833
0.000284778
0.000325228
0.000361468
0.000373672
0.000366436
0.000352712
0.000342079
0.000333607
0.000329006
0.000327067
0.000326811
0.000327641
0.000329205
0.000331193
0.000333228
0.000334847
0.000335619
0.000335369
0.000334223
0.000332508
0.00033058
0.000328714
0.000327093
0.000325831
0.000325011
0.000324712
0.000325026
0.000326045
0.000327835
0.000330364
0.000333374
0.000336148
0.000337367
0.000336148
0.000335074
0.000340801
0.000356938
0.000371245
0.000342606
0.000399803
0.000445916
0.000375285
)
;
    }
    sWall
    {
        type            compressible::alphatWallFunction;
        Prt             0.85;
        value           uniform 0.000254933;
    }
    nWall
    {
        type            compressible::alphatWallFunction;
        Prt             0.85;
        value           nonuniform List<scalar> 6(0.000216974 0.000284558 0.000377359 0.000484731 0.000410935 0.000342807);
    }
    sideWalls
    {
        type            empty;
    }
    glass1
    {
        type            compressible::alphatWallFunction;
        Prt             0.85;
        value           nonuniform List<scalar> 9(0.00019475 0.00024224 0.000281601 0.000318912 0.000355488 0.000390559 0.000410233 0.000409437 0.00039582);
    }
    glass2
    {
        type            compressible::alphatWallFunction;
        Prt             0.85;
        value           nonuniform List<scalar> 2(0.000510771 0.00056719);
    }
    sun
    {
        type            compressible::alphatWallFunction;
        Prt             0.85;
        value           nonuniform List<scalar> 
14
(
0.00019779
0.000222522
0.000234402
0.000250615
0.000268258
0.000281876
0.000289968
0.000283368
0.000271614
0.000257643
0.000242383
0.000226449
0.00021157
0.0001955
)
;
    }
    heatsource1
    {
        type            compressible::alphatWallFunction;
        Prt             0.85;
        value           nonuniform List<scalar> 3(0.000129802 0.000147613 0.000216326);
    }
    heatsource2
    {
        type            compressible::alphatWallFunction;
        Prt             0.85;
        value           nonuniform List<scalar> 4(0.000186322 0.000162039 0.000162037 0.000171698);
    }
    Table_master
    {
        type            compressible::alphatWallFunction;
        Prt             0.85;
        value           nonuniform List<scalar> 9(0.000186809 0.00016238 0.000142327 0.000126092 0.000112925 0.000102178 9.33745e-05 8.64936e-05 8.17923e-05);
    }
    Table_slave
    {
        type            compressible::alphatWallFunction;
        Prt             0.85;
        value           nonuniform List<scalar> 9(0.00020913 0.000192975 0.000179972 0.000169198 0.000159278 0.000149413 0.000139072 0.000127783 0.000114634);
    }
    inlet
    {
        type            fixedValue;
        value           uniform 1.94e-05;
    }
    outlet
    {
        type            zeroGradient;
    }
}


// ************************************************************************* //
