/*--------------------------------*- C++ -*----------------------------------*\
  =========                 |
  \\      /  F ield         | OpenFOAM: The Open Source CFD Toolbox
   \\    /   O peration     | Website:  https://openfoam.org
    \\  /    A nd           | Version:  6
     \\/     M anipulation  |
\*---------------------------------------------------------------------------*/
FoamFile
{
    version     2.0;
    format      ascii;
    class       volScalarField;
    location    "120";
    object      nut;
}
// * * * * * * * * * * * * * * * * * * * * * * * * * * * * * * * * * * * * * //

dimensions      [0 2 -1 0 0 0 0];

internalField   nonuniform List<scalar> 
459
(
0.00120927
0.00136757
0.00144455
0.00155037
0.00166646
0.00175674
0.00181083
0.00176751
0.00168981
0.0015978
0.00149785
0.0013942
0.00129816
0.00119532
0.00107944
0.000635311
0.000793992
0.000872079
0.000938752
0.000937854
0.000910194
0.000849522
0.000786154
0.00073003
0.000681806
0.00064037
0.000604557
0.000573162
0.000545487
0.000520141
0.000495417
0.000470155
0.000434126
0.000423604
0.00151883
0.00444058
0.0047129
0.00536019
0.00579141
0.00610552
0.00643326
0.00671767
0.00660028
0.00625506
0.00577559
0.00514555
0.00425561
0.0032369
0.00216399
0.00113953
0.000986854
0.000940313
0.00269263
0.00270053
0.00309121
0.00345346
0.00342277
0.00240748
0.00198813
0.00171715
0.00152261
0.00137636
0.0012634
0.00117607
0.00109124
0.000995737
0.00090274
0.000879763
0.000827647
0.000536287
0.00178074
0.00631492
0.00614523
0.00636856
0.00633997
0.00627541
0.00661157
0.00718803
0.00743067
0.00734357
0.00704581
0.00659806
0.00586018
0.00483067
0.00358137
0.00227842
0.00104745
0.00104173
0.00326827
0.00293163
0.00347505
0.00415409
0.00408115
0.00114476
0.00099084
0.000866499
0.00076733
0.000687988
0.000624036
0.000572228
0.000532133
0.000504952
0.000588831
0.000790205
0.0010443
0.000621448
0.00203285
0.00785026
0.00708135
0.00687351
0.00626416
0.00582165
0.00620513
0.00694556
0.00742395
0.00751256
0.0073393
0.00702465
0.00651412
0.00572232
0.00462883
0.00331067
0.00181581
0.00106626
0.00148712
0.00209873
0.00318561
0.00441637
0.0053408
0.00515006
0.00128811
0.00118474
0.00110225
0.00103443
0.000972429
0.000911199
0.000847498
0.000778569
0.000699133
0.000624675
0.00076039
0.0012602
0.000723612
0.00228327
0.00945351
0.00834158
0.00753415
0.00620594
0.00552953
0.00598611
0.00685987
0.00748914
0.00765832
0.00750661
0.00722057
0.00684377
0.00627525
0.0054545
0.00441129
0.00325923
0.00277872
0.00319926
0.00421664
0.00545826
0.0065356
0.00724611
0.0073976
0.00637869
0.00575352
0.00529207
0.00475882
0.0041812
0.00357649
0.00295312
0.00231656
0.00167584
0.00114441
0.000969653
0.00127841
0.00105184
0.000790853
0.000900877
0.00133972
0.00252616
0.0109392
0.0100671
0.0079719
0.00601814
0.00539349
0.00596645
0.00699603
0.00775062
0.00795264
0.00778614
0.00753934
0.00729143
0.00693183
0.0064197
0.00581427
0.00528533
0.00549819
0.00640324
0.00736939
0.00818559
0.00874944
0.00903132
0.00901665
0.00865243
0.00814971
0.0074853
0.00670733
0.00584917
0.00494731
0.00402713
0.00311486
0.00225696
0.00159151
0.00130552
0.00131232
0.00122675
0.00130879
0.00198612
0.00178522
0.00266378
0.0113527
0.0106719
0.00748039
0.00554873
0.00522679
0.00609292
0.00733921
0.00820462
0.00841208
0.00827879
0.00821558
0.00809285
0.0078802
0.00764998
0.00749153
0.00757563
0.00818549
0.0090228
0.00965078
0.0100203
0.0101456
0.0100582
0.00979158
0.00935151
0.00876798
0.00805085
0.00721598
0.00628165
0.0053158
0.00435271
0.00344005
0.00264416
0.00206766
0.0017732
0.00162004
0.00141983
0.00188973
0.00358658
0.00241733
0.00265882
0.00855021
0.00727281
0.00538622
0.00453681
0.00503544
0.00643313
0.00793208
0.00884858
0.00902883
0.00902598
0.0088504
0.00865328
0.00855185
0.00858425
0.0087765
0.00918243
0.00977499
0.010311
0.0105928
0.0105946
0.0103766
0.00996488
0.00940831
0.00878741
0.00812617
0.00741194
0.00663686
0.00581426
0.0049881
0.00420683
0.00352788
0.00300863
0.0026904
0.00254556
0.00243142
0.00200914
0.00250706
0.00630595
0.00332638
0.0025646
0.00288541
0.00292213
0.00280067
0.00351685
0.00525991
0.00729689
0.00886902
0.00961128
0.00963377
0.00917023
0.00874618
0.0085611
0.00860102
0.00881175
0.00915455
0.00957073
0.0099468
0.0101354
0.0100632
0.00975031
0.00924407
0.00862437
0.00797151
0.0073366
0.00673535
0.00615954
0.00560632
0.00509336
0.00465711
0.0043371
0.00416315
0.00413918
0.00422384
0.00430866
0.00424059
0.0037033
0.00397748
0.00837011
0.0037308
0.000506172
0.00213203
0.00492461
0.00760033
0.00925939
0.00996502
0.0097099
0.00922301
0.00884026
0.00866527
0.00866552
0.00877715
0.00895268
0.00914882
0.0093052
0.00934857
0.00923396
0.00897008
0.00860273
0.0081857
0.0077622
0.00736337
0.00700512
0.00669174
0.00642546
0.00621447
0.00607422
0.00602319
0.00607534
0.00623108
0.00646398
0.00670242
0.00681393
0.00664455
0.00616448
0.00627073
0.00888792
0.00317167
0.00239023
0.00788465
0.00985473
0.0106798
0.0106398
0.00989858
0.00922972
0.00882694
0.00866133
0.00863141
0.0086636
0.00872479
0.0088021
0.00888378
0.00894956
0.00897279
0.00893308
0.00882949
0.00867617
0.00849415
0.00830439
0.00812264
0.00795871
0.00781997
0.00771459
0.0076528
0.00764655
0.00770767
0.00784455
0.00805574
0.00831601
0.00855024
0.00860658
0.00832164
0.00773545
0.00722885
0.00681375
0.00265146
0.00159315
0.00178521
0.00205751
0.00230591
0.00239113
0.00234229
0.00224862
0.00217616
0.00211851
0.00208732
0.00207427
0.00207269
0.00207851
0.00208935
0.0021031
0.00211719
0.00212843
0.00213388
0.00213229
0.00212453
0.00211284
0.00209967
0.00208692
0.00207582
0.00206716
0.00206152
0.00205942
0.00206148
0.00206834
0.00208044
0.00209758
0.002118
0.0021368
0.00214497
0.00213648
0.00212899
0.00216801
0.00227864
0.00237738
0.00218066
)
;

boundaryField
{
    floor
    {
        type            nutkWallFunction;
        Cmu             0.09;
        kappa           0.41;
        E               9.8;
        value           nonuniform List<scalar> 
29
(
0.000130041
7.67423e-05
9.61758e-05
0.000105568
0.000113511
0.000113407
0.000110122
0.000102872
9.52351e-05
8.84107e-05
8.24972e-05
7.73762e-05
7.29183e-05
6.89839e-05
6.54942e-05
6.2279e-05
5.91243e-05
5.58806e-05
5.12161e-05
4.98408e-05
4.98407e-05
6.43208e-05
7.50147e-05
8.76161e-05
0.000130041
7.67422e-05
0.000113683
0.000125637
0.000128503
)
;
    }
    ceiling
    {
        type            nutkWallFunction;
        Cmu             0.09;
        kappa           0.41;
        E               9.8;
        value           nonuniform List<scalar> 
43
(
0.000188652
0.000209984
0.000239816
0.000266668
0.000275815
0.000270588
0.000260526
0.000252711
0.000246477
0.000243097
0.000241683
0.000241514
0.000242148
0.000243327
0.000244822
0.000246352
0.000247572
0.000248163
0.000247991
0.00024715
0.000245882
0.000244452
0.000243066
0.000241859
0.000240917
0.000240302
0.000240072
0.000240296
0.000241041
0.000242355
0.000244216
0.00024643
0.000248466
0.00024935
0.000248428
0.000247616
0.00025184
0.000263776
0.000274379
0.000253213
0.000294264
0.000328109
0.000275635
)
;
    }
    sWall
    {
        type            nutkWallFunction;
        Cmu             0.09;
        kappa           0.41;
        E               9.8;
        value           uniform 0.000188691;
    }
    nWall
    {
        type            nutkWallFunction;
        Cmu             0.09;
        kappa           0.41;
        E               9.8;
        value           nonuniform List<scalar> 6(0.000160072 0.000210002 0.000278631 0.000358123 0.000303554 0.000253202);
    }
    sideWalls
    {
        type            empty;
    }
    glass1
    {
        type            nutkWallFunction;
        Cmu             0.09;
        kappa           0.41;
        E               9.8;
        value           nonuniform List<scalar> 9(0.000145187 0.000180436 0.000209633 0.000237298 0.000264413 0.00029041 0.000305019 0.000304494 0.0002945);
    }
    glass2
    {
        type            nutkWallFunction;
        Cmu             0.09;
        kappa           0.41;
        E               9.8;
        value           nonuniform List<scalar> 2(0.000373886 0.000415462);
    }
    sun
    {
        type            nutkWallFunction;
        Cmu             0.09;
        kappa           0.41;
        E               9.8;
        value           nonuniform List<scalar> 
14
(
0.000145095
0.000163202
0.000171922
0.000183828
0.000196784
0.000206791
0.000212754
0.00020797
0.000199367
0.000189122
0.000177921
0.000166218
0.000155288
0.000143482
)
;
    }
    heatsource1
    {
        type            nutkWallFunction;
        Cmu             0.09;
        kappa           0.41;
        E               9.8;
        value           nonuniform List<scalar> 3(9.57941e-05 0.000109008 0.000160095);
    }
    heatsource2
    {
        type            nutkWallFunction;
        Cmu             0.09;
        kappa           0.41;
        E               9.8;
        value           nonuniform List<scalar> 4(0.000137039 0.000119188 0.000119188 0.000126308);
    }
    Table_master
    {
        type            nutkWallFunction;
        Cmu             0.09;
        kappa           0.41;
        E               9.8;
        value           nonuniform List<scalar> 9(0.000137675 0.000119682 0.000104911 9.29522e-05 8.32532e-05 7.53378e-05 6.88535e-05 6.37859e-05 6.0324e-05);
    }
    Table_slave
    {
        type            nutkWallFunction;
        Cmu             0.09;
        kappa           0.41;
        E               9.8;
        value           nonuniform List<scalar> 9(0.000154193 0.00014231 0.000132743 0.000124816 0.000117516 0.000110254 0.000102638 9.43211e-05 8.46268e-05);
    }
    inlet
    {
        type            calculated;
        value           uniform 0.000100623;
    }
    outlet
    {
        type            calculated;
        value           nonuniform List<scalar> 2(0.00159315 0.00178521);
    }
}


// ************************************************************************* //
