// -*- C++ -*-
// File generated by PyFoam - sorry for the ugliness

FoamFile
{
 version 2.0;
 format ascii;
 class volVectorField;
 location "400";
 object U;
}

dimensions [ 0 1 -1 0 0 0 0 ];

internalField nonuniform List<vector> 459
(
  (0.0339905 0.0850794 0)
  (-0.165303 0.0253442 0)
  (-0.189328 0.0178442 0)
  (-0.219903 0.0125571 0)
  (-0.242571 0.0067648 0)
  (-0.256594 0.000697495 0)
  (-0.260759 -0.00572067 0)
  (-0.253616 -0.012509 0)
  (-0.235668 -0.0193814 0)
  (-0.207961 -0.0253541 0)
  (-0.173122 -0.0295837 0)
  (-0.134305 -0.0317542 0)
  (-0.0946073 -0.0324445 0)
  (-0.0589922 -0.0334538 0)
  (-0.0420929 -0.0364827 0)
  (-0.000599026 0.00684307 0)
  (-0.0201804 -0.0179752 0)
  (0.00432658 -0.0260799 0)
  (0.024332 -0.0190097 0)
  (0.0398484 -0.0126114 0)
  (0.0509352 -0.0079841 0)
  (0.0572777 -0.00482818 0)
  (0.0603557 -0.00318998 0)
  (0.061746 -0.00246226 0)
  (0.0624826 -0.00209715 0)
  (0.0629388 -0.00185918 0)
  (0.0631526 -0.00166539 0)
  (0.0630601 -0.0014232 0)
  (0.062447 -0.00096173 0)
  (0.0607384 0.000104375 0)
  (0.0567236 0.00232141 0)
  (0.0490717 0.00472247 0)
  (0.0412333 0.00673447 0)
  (-0.0109253 0.0202721 0)
  (0.206863 0.173864 0)
  (-0.15396 0.0662561 0)
  (-0.151514 0.0518431 0)
  (-0.182709 0.0408761 0)
  (-0.204773 0.0286391 0)
  (-0.218681 0.0151481 0)
  (-0.223253 7.77875e-05 0)
  (-0.216766 -0.0163806 0)
  (-0.20021 -0.0324096 0)
  (-0.175003 -0.0455806 0)
  (-0.144059 -0.0540022 0)
  (-0.110722 -0.0569417 0)
  (-0.0782771 -0.0550111 0)
  (-0.0507546 -0.0498136 0)
  (-0.0332785 -0.0422107 0)
  (-0.0190224 -0.021692 0)
  (-0.00851432 0.00966216 0)
  (0.0622841 0.0295645 0)
  (0.0337567 -0.0201972 0)
  (0.0401608 -0.0301066 0)
  (0.0507456 -0.0249908 0)
  (0.0589266 -0.0168129 0)
  (0.0641012 -0.00952117 0)
  (0.0660298 -0.00381796 0)
  (0.0662355 -0.000714854 0)
  (0.0661277 0.000631421 0)
  (0.0661953 0.00127506 0)
  (0.066339 0.00168768 0)
  (0.0664394 0.00205385 0)
  (0.0664532 0.00253546 0)
  (0.0663283 0.00347876 0)
  (0.0655245 0.00579555 0)
  (0.0616034 0.012178 0)
  (0.051757 0.017616 0)
  (0.0453538 0.021404 0)
  (-0.0440439 0.0438521 0)
  (0.365166 0.25982 0)
  (-0.170318 0.105201 0)
  (-0.113127 0.0834447 0)
  (-0.142887 0.0638142 0)
  (-0.161981 0.0437241 0)
  (-0.174432 0.0219161 0)
  (-0.178397 -0.00253299 0)
  (-0.171092 -0.028861 0)
  (-0.154413 -0.0538546 0)
  (-0.130558 -0.0734453 0)
  (-0.102787 -0.0849826 0)
  (-0.0742383 -0.0878096 0)
  (-0.0473675 -0.0829675 0)
  (-0.0244647 -0.0718253 0)
  (-0.00790091 -0.0555327 0)
  (0.00546832 -0.0298538 0)
  (0.0128832 0.0041412 0)
  (0.104991 -0.0436372 0)
  (0.072237 -0.044868 0)
  (0.068518 -0.039536 0)
  (0.0709124 -0.0308801 0)
  (0.0725331 -0.0213788 0)
  (0.0732078 -0.0135019 0)
  (0.0713507 -0.0110864 0)
  (0.0676515 -0.00801604 0)
  (0.0651744 -0.00635931 0)
  (0.0640726 -0.00541821 0)
  (0.0636041 -0.00482616 0)
  (0.0634007 -0.00441177 0)
  (0.0635137 -0.00398516 0)
  (0.0644164 -0.00319593 0)
  (0.0673343 -7.67911e-05 0)
  (0.0653294 0.017202 0)
  (0.0520108 0.0295106 0)
  (0.0512156 0.038196 0)
  (-0.0729644 0.0690668 0)
  (0.507358 0.328763 0)
  (-0.204257 0.139628 0)
  (-0.0731258 0.109813 0)
  (-0.100735 0.0827101 0)
  (-0.113863 0.0570498 0)
  (-0.122328 0.0287615 0)
  (-0.123059 -0.00451896 0)
  (-0.11256 -0.0411205 0)
  (-0.0947118 -0.0745563 0)
  (-0.0727565 -0.0991502 0)
  (-0.0497132 -0.112284 0)
  (-0.0279533 -0.114085 0)
  (-0.00847854 -0.106538 0)
  (0.00864214 -0.0906755 0)
  (0.022292 -0.0697272 0)
  (0.0367511 -0.0441264 0)
  (0.0592965 -0.0188259 0)
  (0.0896772 -0.00445126 0)
  (0.0983156 -0.035881 0)
  (0.0849088 -0.0395166 0)
  (0.0767145 -0.0341743 0)
  (0.0730991 -0.0272644 0)
  (0.0709542 -0.0195438 0)
  (0.0702829 -0.0107889 0)
  (0.0724173 -0.00634909 0)
  (0.0765244 -0.00518249 0)
  (0.0799439 -0.00452238 0)
  (0.0823718 -0.00396621 0)
  (0.0839198 -0.00318402 0)
  (0.0839904 -0.00194378 0)
  (0.0815001 -3.7247e-05 0)
  (0.0752352 0.00280817 0)
  (0.0624202 0.00711546 0)
  (0.0516266 0.0275316 0)
  (0.0410671 0.044532 0)
  (0.0541174 0.05826 0)
  (-0.102735 0.0921949 0)
  (0.629214 0.382133 0)
  (-0.245341 0.167803 0)
  (-0.0343014 0.124309 0)
  (-0.0570533 0.0928268 0)
  (-0.0617068 0.0641532 0)
  (-0.0631854 0.0317487 0)
  (-0.0552917 -0.00914643 0)
  (-0.0388743 -0.0552666 0)
  (-0.0203713 -0.0941989 0)
  (-0.00267571 -0.120274 0)
  (0.0126793 -0.131957 0)
  (0.0245909 -0.130809 0)
  (0.0338828 -0.120367 0)
  (0.0411483 -0.102998 0)
  (0.0474356 -0.0813415 0)
  (0.0547384 -0.0579983 0)
  (0.0655983 -0.0382326 0)
  (0.0761791 -0.0318673 0)
  (0.078147 -0.0369203 0)
  (0.0718082 -0.0348773 0)
  (0.0641031 -0.0291576 0)
  (0.0584724 -0.0230553 0)
  (0.0547332 -0.017024 0)
  (0.0530488 -0.0110895 0)
  (0.0536313 -0.00628837 0)
  (0.056077 -0.00414358 0)
  (0.0587124 -0.00335159 0)
  (0.0612618 -0.00261534 0)
  (0.0635922 -0.00104839 0)
  (0.0653077 0.00188537 0)
  (0.0652196 0.00627287 0)
  (0.0627682 0.0122558 0)
  (0.0572847 0.0204944 0)
  (0.0506589 0.0360249 0)
  (0.0416414 0.0548 0)
  (0.0623636 0.0755794 0)
  (-0.0163416 0.104844 0)
  (0.0451351 0.0341818 0)
  (-0.0617658 -0.0348012 0)
  (-0.269042 -0.0570247 0)
  (0.716475 0.426667 0)
  (-0.284677 0.186742 0)
  (-0.00557454 0.119118 0)
  (-0.012268 0.0918634 0)
  (-0.00543543 0.0643816 0)
  (0.00315531 0.0268347 0)
  (0.0279729 -0.0238551 0)
  (0.0490782 -0.0731326 0)
  (0.064653 -0.110047 0)
  (0.0742429 -0.13206 0)
  (0.0783512 -0.139888 0)
  (0.0782115 -0.135882 0)
  (0.0752251 -0.123132 0)
  (0.0707211 -0.104549 0)
  (0.0661534 -0.0830562 0)
  (0.0629179 -0.0613877 0)
  (0.0619725 -0.0431891 0)
  (0.0613074 -0.0329282 0)
  (0.0572749 -0.0296475 0)
  (0.0497121 -0.0266423 0)
  (0.0416451 -0.0223181 0)
  (0.0353938 -0.0178673 0)
  (0.0313377 -0.0137653 0)
  (0.0295792 -0.0100467 0)
  (0.0299803 -0.00735409 0)
  (0.0319996 -0.00652208 0)
  (0.034742 -0.00650443 0)
  (0.0378928 -0.00614334 0)
  (0.0412896 -0.00450978 0)
  (0.0446924 -0.000771937 0)
  (0.0476446 0.00531393 0)
  (0.0490912 0.0133895 0)
  (0.0492843 0.0236807 0)
  (0.0496814 0.0380669 0)
  (0.0488907 0.0562375 0)
  (0.0707311 0.0793733 0)
  (0.0526292 0.0981551 0)
  (0.0914734 0.0688997 0)
  (0.114594 0.0447761 0)
  (-0.128887 -0.00781375 0)
  (0.768236 0.467303 0)
  (-0.303212 0.172405 0)
  (0.021309 0.0674791 0)
  (0.0477696 0.0643163 0)
  (0.0670887 0.0482885 0)
  (0.0936301 0.00657939 0)
  (0.126723 -0.0471961 0)
  (0.14683 -0.0905691 0)
  (0.154833 -0.119318 0)
  (0.152547 -0.133696 0)
  (0.142371 -0.135507 0)
  (0.127032 -0.127424 0)
  (0.109079 -0.112405 0)
  (0.0906774 -0.0933337 0)
  (0.0736089 -0.0728694 0)
  (0.0590596 -0.0532057 0)
  (0.0476374 -0.0369236 0)
  (0.0384625 -0.0264423 0)
  (0.0296429 -0.0212346 0)
  (0.0208547 -0.0181479 0)
  (0.0131608 -0.0153506 0)
  (0.00753353 -0.0129044 0)
  (0.00409308 -0.0109378 0)
  (0.00274016 -0.00942271 0)
  (0.00320866 -0.00868082 0)
  (0.00494308 -0.0089752 0)
  (0.00734883 -0.00962555 0)
  (0.0102382 -0.00979643 0)
  (0.0136771 -0.0086594 0)
  (0.0177958 -0.0052309 0)
  (0.0235523 0.00143659 0)
  (0.0291481 0.0103277 0)
  (0.0344151 0.0207474 0)
  (0.0412391 0.0334559 0)
  (0.0489228 0.048301 0)
  (0.0706526 0.0669745 0)
  (0.0841598 0.0756042 0)
  (0.115905 0.0534471 0)
  (0.155524 0.0443325 0)
  (-0.0369315 0.0926519 0)
  (0.872589 0.469201 0)
  (-0.0664041 0.151393 0)
  (0.108313 -0.0127881 0)
  (0.17876 -0.0354875 0)
  (0.201666 -0.0447259 0)
  (0.233674 -0.0673494 0)
  (0.254195 -0.0910633 0)
  (0.25812 -0.109074 0)
  (0.246401 -0.118984 0)
  (0.222869 -0.120417 0)
  (0.191875 -0.114274 0)
  (0.157436 -0.102315 0)
  (0.122763 -0.0864059 0)
  (0.0903175 -0.0686241 0)
  (0.0618178 -0.0509684 0)
  (0.0379947 -0.0348377 0)
  (0.0196005 -0.0222204 0)
  (0.00607454 -0.0146513 0)
  (-0.00434515 -0.0113248 0)
  (-0.0121225 -0.0101302 0)
  (-0.0180754 -0.00948823 0)
  (-0.0222516 -0.00915102 0)
  (-0.0248631 -0.00909487 0)
  (-0.0261389 -0.00931942 0)
  (-0.0263677 -0.00994399 0)
  (-0.0259719 -0.0109837 0)
  (-0.025314 -0.0121132 0)
  (-0.0244768 -0.012897 0)
  (-0.0232872 -0.0128545 0)
  (-0.0213465 -0.0114097 0)
  (-0.0176668 -0.00782888 0)
  (-0.00881356 -0.00141452 0)
  (-0.000710645 0.00675957 0)
  (0.00971046 0.0149527 0)
  (0.0213759 0.0221432 0)
  (0.0412949 0.0296564 0)
  (0.0605871 0.0233391 0)
  (0.0809365 -0.0042247 0)
  (0.140051 0.0387544 0)
  (-0.404566 0.202285 0)
  (1.01884 0.423049 0)
  (0.484789 0.27974 0)
  (0.499348 0.184392 0)
  (0.523362 0.115318 0)
  (0.504621 0.0668398 0)
  (0.465343 0.02079 0)
  (0.418869 -0.0196149 0)
  (0.367456 -0.048908 0)
  (0.311174 -0.0653884 0)
  (0.252804 -0.0703509 0)
  (0.195724 -0.066767 0)
  (0.142645 -0.0578797 0)
  (0.0950608 -0.0458982 0)
  (0.0544316 -0.0328379 0)
  (0.0212745 -0.0205575 0)
  (-0.00533597 -0.0103402 0)
  (-0.0223453 -0.00495862 0)
  (-0.0327895 -0.00328728 0)
  (-0.0398555 -0.00349533 0)
  (-0.0450971 -0.00440161 0)
  (-0.0492651 -0.00538768 0)
  (-0.0525695 -0.00636423 0)
  (-0.0552022 -0.00734308 0)
  (-0.0573686 -0.00834812 0)
  (-0.0593307 -0.00943001 0)
  (-0.0614227 -0.0105564 0)
  (-0.0639738 -0.0115144 0)
  (-0.067269 -0.0119431 0)
  (-0.0716176 -0.0113195 0)
  (-0.0774484 -0.00894381 0)
  (-0.0853066 -0.0040085 0)
  (-0.0951421 0.00402119 0)
  (-0.105005 0.0145685 0)
  (-0.119668 0.0279028 0)
  (-0.142721 0.0442158 0)
  (-0.176684 0.0624717 0)
  (-0.224984 0.078812 0)
  (-0.28079 0.0907183 0)
  (-0.349149 0.0980975 0)
  (-0.609748 0.101344 0)
  (-0.158668 0.00513752 0)
  (0.124939 0.0100404 0)
  (0.209511 -0.0214229 0)
  (0.195669 -0.035314 0)
  (0.180463 -0.0367697 0)
  (0.159402 -0.0346102 0)
  (0.130689 -0.0305275 0)
  (0.097256 -0.0246952 0)
  (0.0624952 -0.0175711 0)
  (0.0282701 -0.00971903 0)
  (-0.00582722 -0.00157723 0)
  (-0.0318223 0.00413174 0)
  (-0.0494305 0.00734305 0)
  (-0.0606017 0.00853655 0)
  (-0.0669267 0.00812964 0)
  (-0.0709611 0.0072824 0)
  (-0.0740098 0.00646392 0)
  (-0.0767593 0.00574774 0)
  (-0.0795373 0.00500454 0)
  (-0.0823833 0.00419157 0)
  (-0.085336 0.00333652 0)
  (-0.0884885 0.00246221 0)
  (-0.0919621 0.00161393 0)
  (-0.0958676 0.00092611 0)
  (-0.100272 0.000636416 0)
  (-0.105173 0.00103358 0)
  (-0.110496 0.00242766 0)
  (-0.116068 0.00511094 0)
  (-0.121288 0.00955259 0)
  (-0.125365 0.016676 0)
  (-0.128712 0.0276031 0)
  (-0.131565 0.0427145 0)
  (-0.134586 0.0612441 0)
  (-0.138227 0.0798107 0)
  (-0.139483 0.0888193 0)
  (-0.122347 0.0676121 0)
  (-0.0810431 -0.022862 0)
  (-0.274317 -0.198132 0)
  (0.0070027 0.196547 0)
  (0.0438022 0.0737657 0)
  (0.00210487 0.00844392 0)
  (-0.00793409 0.000121923 0)
  (-0.0175744 0.000955706 0)
  (-0.0302096 -0.000164461 0)
  (-0.0457413 -0.000185681 0)
  (-0.0618626 0.00143522 0)
  (-0.0758918 0.00343976 0)
  (-0.0854843 0.00433403 0)
  (-0.09105 0.00311235 0)
  (-0.0940783 -0.000342191 0)
  (-0.0951664 -0.00493678 0)
  (-0.0952142 -0.0100228 0)
  (-0.0951073 -0.0154753 0)
  (-0.095493 -0.020787 0)
  (-0.0964843 -0.0255258 0)
  (-0.0979858 -0.0294079 0)
  (-0.0998819 -0.0322515 0)
  (-0.10219 -0.0341514 0)
  (-0.104865 -0.0351695 0)
  (-0.107803 -0.0352794 0)
  (-0.110927 -0.0346859 0)
  (-0.114168 -0.0335355 0)
  (-0.117389 -0.0317243 0)
  (-0.120334 -0.0290099 0)
  (-0.122616 -0.0249683 0)
  (-0.123737 -0.0189204 0)
  (-0.123267 -0.0109585 0)
  (-0.120364 -0.000833525 0)
  (-0.113656 0.0121861 0)
  (-0.101851 0.0287546 0)
  (-0.0844923 0.0484385 0)
  (-0.0623612 0.0674317 0)
  (-0.0382446 0.0786859 0)
  (0.00119106 0.0631595 0)
  (0.143372 -0.00757074 0)
  (-0.205142 -0.108527 0)
  (-0.0438874 -0.319936 0)
  (-0.412857 -0.122499 0)
  (-0.300834 0.0661139 0)
  (-0.245079 -0.017833 0)
  (-0.204483 -0.0248259 0)
  (-0.191412 -0.0139738 0)
  (-0.186296 -0.00425546 0)
  (-0.183028 0.00389465 0)
  (-0.179307 0.0115956 0)
  (-0.173967 0.0192465 0)
  (-0.166638 0.0269578 0)
  (-0.157454 0.0347375 0)
  (-0.147174 0.0424296 0)
  (-0.136975 0.0499331 0)
  (-0.127759 0.0573807 0)
  (-0.120029 0.0647633 0)
  (-0.113941 0.0719736 0)
  (-0.109388 0.0787355 0)
  (-0.106132 0.0845929 0)
  (-0.103932 0.0891594 0)
  (-0.102565 0.0922346 0)
  (-0.101871 0.093857 0)
  (-0.101755 0.0940568 0)
  (-0.102148 0.0928145 0)
  (-0.102977 0.0904755 0)
  (-0.104154 0.0873632 0)
  (-0.105553 0.0835767 0)
  (-0.106945 0.0791931 0)
  (-0.107945 0.0742417 0)
  (-0.107888 0.0687091 0)
  (-0.105506 0.0638936 0)
  (-0.0989739 0.0607424 0)
  (-0.0859315 0.0601155 0)
  (-0.0645337 0.0629578 0)
  (-0.0351086 0.0698175 0)
  (0.0103682 0.0798829 0)
  (0.054238 0.0811793 0)
  (0.0953741 0.0682591 0)
  (0.161147 0.0423147 0)
  (-0.232675 -0.0080902 0)
)
;

boundaryField
{
  floor
  {
    type noSlip;
  }
  ceiling
  {
    type noSlip;
  }
  sWall
  {
    type noSlip;
  }
  nWall
  {
    type noSlip;
  }
  sideWalls
  {
    type empty;
  }
  glass1
  {
    type noSlip;
  }
  glass2
  {
    type noSlip;
  }
  sun
  {
    type noSlip;
  }
  heatsource1
  {
    type noSlip;
  }
  heatsource2
  {
    type noSlip;
  }
  Table_master
  {
    type noSlip;
  }
  Table_slave
  {
    type noSlip;
  }
  inlet
  {
    type fixedValue;
    value uniform (0.277164 -0.114805 0);
  }
  outlet
  {
    type zeroGradient;
  }
} 	// ************************************************************************* //

