/*--------------------------------*- C++ -*----------------------------------*\
  =========                 |
  \\      /  F ield         | OpenFOAM: The Open Source CFD Toolbox
   \\    /   O peration     | Website:  https://openfoam.org
    \\  /    A nd           | Version:  6
     \\/     M anipulation  |
\*---------------------------------------------------------------------------*/
FoamFile
{
    version     2.0;
    format      ascii;
    class       volScalarField;
    location    "60";
    object      epsilon;
}
// * * * * * * * * * * * * * * * * * * * * * * * * * * * * * * * * * * * * * //

dimensions      [0 2 -3 0 0 0 0];

internalField   nonuniform List<scalar> 
459
(
0.000906814
0.00193567
0.00247445
0.00206931
0.00176484
0.0015258
0.00133694
0.00118107
0.00105185
0.000941936
0.00084201
0.000745071
0.000645054
0.000534738
0.000417711
0.000154293
0.000269674
0.000375551
0.000408911
0.000400527
0.000375145
0.000322176
0.000271285
0.000229726
0.000195375
0.000165293
0.000137808
0.000111856
8.70138e-05
6.39794e-05
4.39109e-05
2.79911e-05
1.75045e-05
2.95376e-05
0.00152086
0.00279268
0.00200919
0.00143379
0.00110155
0.00088406
0.000758214
0.000688249
0.000648071
0.000618494
0.000585155
0.000540625
0.000483644
0.000417705
0.000352747
0.000419172
0.000291976
0.000226782
0.000746712
0.000422899
0.000343103
0.00030504
0.0002772
0.000285361
0.00023466
0.000187983
0.000151263
0.000122818
9.85194e-05
7.61848e-05
5.59398e-05
3.9775e-05
3.04645e-05
3.03426e-05
2.20201e-05
3.85405e-05
0.00205457
0.00471298
0.00202907
0.00122543
0.000885643
0.00066701
0.000562661
0.000525129
0.000512261
0.000500646
0.000477421
0.000439805
0.000392496
0.000342592
0.000298498
0.000290505
0.00031922
0.000275356
0.000755195
0.000448306
0.00034825
0.000300269
0.00028263
0.000648933
0.000431882
0.000272029
0.000166792
0.000107246
7.76947e-05
6.03878e-05
4.8255e-05
3.96816e-05
2.93026e-05
3.03777e-05
2.64249e-05
4.65552e-05
0.00266835
0.00640502
0.00189998
0.00109178
0.000787071
0.000526981
0.000415768
0.000390778
0.000394785
0.000396341
0.000383717
0.000357582
0.000324062
0.000290332
0.000263219
0.000248856
0.000263662
0.000357814
0.000367028
0.000332269
0.000326142
0.000326161
0.000315873
0.000310873
0.000809984
0.000603286
0.000465464
0.000361472
0.000277241
0.000204373
0.00014118
9.26416e-05
6.09055e-05
3.20389e-05
2.78125e-05
4.23061e-05
6.3116e-05
0.00329835
0.00715709
0.00179568
0.00112888
0.000842415
0.000459098
0.000311513
0.00028374
0.000296069
0.000306003
0.000304395
0.000292653
0.000276137
0.000261273
0.000254186
0.000255657
0.000293917
0.0003375
0.000352986
0.000385072
0.000413747
0.000419924
0.000396549
0.000349761
0.000317322
0.000285867
0.000269296
0.000252714
0.000221733
0.000172803
0.000123397
8.84606e-05
5.43832e-05
4.03324e-05
3.03586e-05
5.75416e-05
8.45914e-05
0.000121905
0.00013163
0.000191187
0.00374388
0.00720906
0.00171335
0.00129532
0.0010114
0.000475245
0.00028193
0.00023741
0.000240034
0.000249557
0.000254992
0.000255589
0.000254928
0.00025888
0.000274695
0.0003078
0.000374729
0.000441809
0.000506219
0.000557222
0.000575285
0.000548859
0.000484391
0.000397294
0.000318679
0.000271714
0.000236227
0.000197045
0.000155282
0.00012368
0.000101205
8.32246e-05
6.10598e-05
5.46327e-05
4.58012e-05
7.88015e-05
0.000116088
0.000162501
0.000279134
0.000375094
0.0035262
0.00734767
0.00174248
0.00150073
0.00126768
0.000566338
0.000317162
0.000251502
0.000241185
0.000246129
0.000253488
0.000261704
0.000273538
0.000295393
0.000332991
0.000394254
0.000485728
0.000590727
0.000675591
0.000715597
0.00069474
0.000616597
0.000504489
0.000380737
0.000271041
0.000208322
0.000171367
0.000144039
0.000124952
0.000114353
0.000107058
9.74656e-05
8.40872e-05
7.75079e-05
7.56371e-05
9.83467e-05
0.000128735
0.000208023
0.000718321
0.000891123
0.00310255
0.00758175
0.00194619
0.00165884
0.00152751
0.000701019
0.000424907
0.000352808
0.00033844
0.000338128
0.000345169
0.000357537
0.000378601
0.000413498
0.00046958
0.000556897
0.000667379
0.000777015
0.000834112
0.000818547
0.000721057
0.000571405
0.000420038
0.00029619
0.000218342
0.000180876
0.000163217
0.000155991
0.000156155
0.000160463
0.000163643
0.000160887
0.000151424
0.000140976
0.000135424
0.00014712
0.000179022
0.000399316
0.0029563
0.00264101
0.00243649
0.00205594
0.00160404
0.00178794
0.00166831
0.000924437
0.000703373
0.000661274
0.000662663
0.000667022
0.000669292
0.000678488
0.000702938
0.000743687
0.000803327
0.000880899
0.000959309
0.00100166
0.000975077
0.000873701
0.000721649
0.000565556
0.000442238
0.000362138
0.000319894
0.000304295
0.000305465
0.000318623
0.000340347
0.000365671
0.000387177
0.000396639
0.000389078
0.000368248
0.0003475
0.000348627
0.000412016
0.000863334
0.00534478
0.00401248
0.00150415
0.00222005
0.00184285
0.00150631
0.00150229
0.00155486
0.00160156
0.00162314
0.00162655
0.00162283
0.00162255
0.00163243
0.00164539
0.00165128
0.0016324
0.00156956
0.00146143
0.00132996
0.00120122
0.00109175
0.00101067
0.000960296
0.000938865
0.000944791
0.000976353
0.00103066
0.00110154
0.0011778
0.00124317
0.00127997
0.00127657
0.00123559
0.00117661
0.00114056
0.00122492
0.0017889
0.00501027
0.00280758
0.0051721
0.00563799
0.00462212
0.00393741
0.00384708
0.00391924
0.00396433
0.00396217
0.00392733
0.00387921
0.00383236
0.0037977
0.00378184
0.00377996
0.0037771
0.00374844
0.00366886
0.00353351
0.00336405
0.00318873
0.00302715
0.00289576
0.00281019
0.00278449
0.00282793
0.00294383
0.00312461
0.00334463
0.00355664
0.00369975
0.00372099
0.00360186
0.0033707
0.00309547
0.00290733
0.00310784
0.00357227
0.00194317
0.00112056
0.00142799
0.00209948
0.00264343
0.00265641
0.00263044
0.00261114
0.00259758
0.00259318
0.00259549
0.00260402
0.00261839
0.00263738
0.00265725
0.00266991
0.00266591
0.00263672
0.00257996
0.00250306
0.00241958
0.00234251
0.00228139
0.00224239
0.00222865
0.00224135
0.0022799
0.00234143
0.00241977
0.00250448
0.00258179
0.00263782
0.00266322
0.00265589
0.00262065
0.00257109
0.00253734
0.00255874
0.00261844
0.00239718
0.00139923
)
;

boundaryField
{
    floor
    {
        Cmu             0.09;
        kappa           0.41;
        E               9.8;
        type            epsilonWallFunction;
        value           nonuniform List<scalar> 
29
(
0.000417711
0.000154293
0.000269674
0.000375551
0.000408911
0.000400527
0.000375145
0.000322176
0.000271285
0.000229726
0.000195375
0.000165293
0.000137808
0.000111856
8.70138e-05
6.39794e-05
4.39109e-05
2.79911e-05
1.75045e-05
2.95376e-05
2.95376e-05
3.85405e-05
4.65552e-05
6.3116e-05
0.000417711
0.000154293
0.000226782
0.000275356
0.000357814
)
;
    }
    ceiling
    {
        Cmu             0.09;
        kappa           0.41;
        E               9.8;
        type            epsilonWallFunction;
        value           nonuniform List<scalar> 
43
(
0.00112056
0.00142799
0.00209948
0.00264343
0.00265641
0.00263044
0.00261114
0.00259758
0.00259318
0.00259549
0.00260402
0.00261839
0.00263738
0.00265725
0.00266991
0.00266591
0.00263672
0.00257996
0.00250306
0.00241958
0.00234251
0.00228139
0.00224239
0.00222865
0.00224135
0.0022799
0.00234143
0.00241977
0.00250448
0.00258179
0.00263782
0.00266322
0.00265589
0.00262065
0.00257109
0.00253734
0.00255874
0.00261844
0.00239718
0.00139923
0.00243649
0.00205594
0.0051721
)
;
    }
    sWall
    {
        Cmu             0.09;
        kappa           0.41;
        E               9.8;
        type            epsilonWallFunction;
        value           uniform 0.00112056;
    }
    nWall
    {
        Cmu             0.09;
        kappa           0.41;
        E               9.8;
        type            epsilonWallFunction;
        value           nonuniform List<scalar> 6(0.000191187 0.000375094 0.000891123 0.00280758 0.00194317 0.00139923);
    }
    sideWalls
    {
        type            empty;
    }
    glass1
    {
        Cmu             0.09;
        kappa           0.41;
        E               9.8;
        type            epsilonWallFunction;
        value           nonuniform List<scalar> 9(0.000906814 0.00152086 0.00205457 0.00266835 0.00329835 0.00374388 0.0035262 0.00310255 0.00243649);
    }
    glass2
    {
        Cmu             0.09;
        kappa           0.41;
        E               9.8;
        type            epsilonWallFunction;
        value           nonuniform List<scalar> 2(0.00264101 0.00401248);
    }
    sun
    {
        Cmu             0.09;
        kappa           0.41;
        E               9.8;
        type            epsilonWallFunction;
        value           nonuniform List<scalar> 
14
(
0.000906814
0.00193567
0.00247445
0.00206931
0.00176484
0.0015258
0.00133694
0.00118107
0.00105185
0.000941936
0.00084201
0.000745071
0.000645054
0.000534738
)
;
    }
    heatsource1
    {
        Cmu             0.09;
        kappa           0.41;
        E               9.8;
        type            epsilonWallFunction;
        value           nonuniform List<scalar> 3(0.000121905 0.00013163 0.000191187);
    }
    heatsource2
    {
        Cmu             0.09;
        kappa           0.41;
        E               9.8;
        type            epsilonWallFunction;
        value           nonuniform List<scalar> 4(0.000419172 0.000291976 0.000291976 0.00031922);
    }
    Table_master
    {
        Cmu             0.09;
        kappa           0.41;
        E               9.8;
        type            epsilonWallFunction;
        value           nonuniform List<scalar> 9(0.000648933 0.000431882 0.000272029 0.000166792 0.000107246 7.76947e-05 6.03878e-05 4.8255e-05 3.96816e-05);
    }
    Table_slave
    {
        Cmu             0.09;
        kappa           0.41;
        E               9.8;
        type            epsilonWallFunction;
        value           nonuniform List<scalar> 9(0.000809984 0.000603286 0.000465464 0.000361472 0.000277241 0.000204373 0.00014118 9.26416e-05 6.09055e-05);
    }
    inlet
    {
        type            turbulentMixingLengthDissipationRateInlet;
        mixingLength    0.01;
        phi             phi;
        k               k;
        value           uniform 0.000101881;
    }
    outlet
    {
        type            zeroGradient;
    }
}


// ************************************************************************* //
