/*--------------------------------*- C++ -*----------------------------------*\
  =========                 |
  \\      /  F ield         | OpenFOAM: The Open Source CFD Toolbox
   \\    /   O peration     | Website:  https://openfoam.org
    \\  /    A nd           | Version:  6
     \\/     M anipulation  |
\*---------------------------------------------------------------------------*/
FoamFile
{
    version     2.0;
    format      ascii;
    class       volScalarField;
    location    "300";
    object      alphat;
}
// * * * * * * * * * * * * * * * * * * * * * * * * * * * * * * * * * * * * * //

dimensions      [1 -1 -1 0 0 0 0];

internalField   nonuniform List<scalar> 
459
(
0.00126298
0.00138024
0.00140347
0.0014705
0.00153281
0.00159126
0.00164876
0.00170337
0.00174033
0.00175304
0.00173569
0.0016848
0.00160035
0.0014892
0.00136856
0.000542477
0.000657175
0.000737724
0.000735126
0.00071108
0.000678758
0.00063687
0.000594997
0.000556885
0.000523014
0.000493012
0.000466371
0.000442803
0.000421646
0.000402199
0.000383528
0.000364399
0.000355119
0.000327064
0.00172674
0.00423966
0.00405797
0.00472259
0.00537111
0.00601666
0.00657777
0.00700562
0.00738718
0.00768976
0.00787034
0.00788099
0.00765096
0.00700108
0.00525547
0.00139025
0.000813488
0.000584836
0.00121421
0.00169018
0.00204783
0.00225002
0.00225294
0.00180451
0.00155692
0.00138022
0.00124442
0.00113623
0.00104789
0.000970287
0.000899204
0.000831725
0.000772056
0.000718867
0.000871293
0.00044228
0.00211037
0.00579063
0.00502756
0.0063086
0.0069307
0.00739003
0.00774812
0.00804205
0.00835791
0.00868112
0.00897076
0.00916904
0.00921566
0.00902422
0.00835711
0.00639437
0.00139899
0.00114891
0.001656
0.00213138
0.00257896
0.00290029
0.00282776
0.000913142
0.000805359
0.000719411
0.000650445
0.000594476
0.000548498
0.000510394
0.00047879
0.000453217
0.000493085
0.00057476
0.000991848
0.000520123
0.00247628
0.00739535
0.00504772
0.00667136
0.00720861
0.00738933
0.00751877
0.00768192
0.0079418
0.0082802
0.00865417
0.00898731
0.00921485
0.00927
0.00907767
0.00835724
0.00602521
0.00165747
0.00205726
0.0026634
0.00326501
0.0037629
0.00408345
0.00381897
0.00103696
0.000946383
0.000883609
0.000837021
0.000797533
0.000759009
0.000721742
0.000682046
0.000635256
0.000596565
0.000615119
0.00117269
0.000577243
0.00284695
0.00944124
0.00555134
0.00644011
0.00714827
0.00718879
0.00714239
0.00724198
0.00747199
0.00781764
0.00824114
0.00863469
0.00891018
0.00900395
0.00890324
0.00857188
0.00782369
0.00646315
0.00600098
0.0058741
0.00586737
0.00589032
0.00587676
0.00566764
0.00476491
0.00434987
0.00411247
0.00392669
0.00372879
0.00346115
0.00306253
0.00257376
0.00203648
0.0015149
0.00112596
0.0011545
0.000796751
0.000707779
0.000848414
0.000955071
0.00323786
0.0116587
0.00760892
0.00642841
0.0069859
0.00722782
0.00705571
0.00712145
0.00729347
0.00760622
0.00803259
0.00846412
0.0087673
0.00884995
0.00870447
0.00840207
0.00804384
0.00770269
0.00753731
0.0074378
0.00732624
0.00718795
0.00700753
0.00673927
0.0063107
0.00592363
0.00558149
0.00525906
0.00494119
0.00461633
0.00422354
0.00372176
0.00311473
0.00244493
0.00185396
0.00138146
0.00109761
0.00095182
0.00135354
0.00100388
0.00359205
0.0132021
0.0106254
0.00822579
0.00780566
0.00769711
0.00741983
0.0072576
0.00732241
0.00762938
0.00809862
0.00857499
0.00888763
0.00892909
0.00870506
0.00834856
0.00808052
0.00803556
0.00810818
0.00809158
0.00792653
0.00764467
0.0072724
0.00682565
0.00633443
0.00587548
0.0054631
0.00509366
0.00476856
0.00449269
0.00426345
0.00398033
0.00354502
0.00298382
0.00243671
0.00194451
0.00161868
0.00156081
0.00162684
0.00118091
0.00365713
0.0117252
0.0104136
0.00960353
0.00889317
0.00806952
0.00744034
0.00720628
0.0073791
0.00785874
0.00847037
0.00899915
0.00925546
0.00916304
0.00878586
0.00833851
0.00812221
0.00821328
0.0082804
0.00807949
0.00767097
0.00713005
0.00652247
0.00591802
0.005378
0.00493127
0.00457172
0.00429075
0.00408537
0.00395501
0.003899
0.00389208
0.00375813
0.00342768
0.00314934
0.00306209
0.00331624
0.00390346
0.00466791
0.00178674
0.00355496
0.00421648
0.00468656
0.00480959
0.00491202
0.00519209
0.00575154
0.00658931
0.00759808
0.00859716
0.00939273
0.00980462
0.00972565
0.00923895
0.00857611
0.00815942
0.00797577
0.00785744
0.00758496
0.00709114
0.0064336
0.00571585
0.005038
0.0044738
0.00404477
0.00373143
0.00350282
0.00333381
0.0032051
0.00310066
0.0030076
0.0029181
0.00284919
0.00280127
0.00278993
0.00279976
0.00275773
0.00260874
0.00241431
0.00165599
0.00181045
0.00368411
0.00595099
0.00780868
0.00922865
0.0102779
0.0109041
0.0111058
0.0109142
0.0103242
0.00942905
0.00839036
0.00756122
0.00710842
0.00680861
0.00641316
0.00584745
0.0051699
0.00449308
0.00390015
0.00343665
0.00311349
0.00290236
0.00276959
0.00268939
0.00264486
0.00262541
0.00262508
0.0026421
0.00268293
0.00273111
0.00278049
0.00282
0.0028186
0.00273074
0.00255435
0.00228894
0.00135904
0.00240829
0.00612131
0.00917023
0.0101475
0.0106098
0.0106784
0.0103249
0.00963122
0.00872315
0.0077332
0.00681098
0.00602147
0.00544618
0.00501854
0.00457221
0.00405356
0.00351536
0.00303667
0.00266911
0.00241924
0.00226621
0.00217486
0.00213015
0.00212541
0.00215184
0.00220335
0.00227465
0.00235913
0.00245855
0.0025737
0.00270059
0.00282866
0.00293689
0.00301286
0.00298057
0.00299054
0.00289984
0.0013813
0.00212526
0.00225022
0.00233952
0.00249438
0.0023907
0.00226585
0.00218487
0.00208093
0.00193984
0.00176903
0.00157936
0.00138248
0.00119181
0.00102898
0.000905256
0.000815707
0.000750617
0.000703183
0.000670232
0.000650315
0.000642037
0.000643694
0.000653787
0.000671244
0.000694943
0.000723697
0.000757456
0.000796467
0.000841398
0.000893672
0.000953583
0.00102003
0.00109356
0.0011746
0.0012622
0.00137366
0.00139487
0.001352
0.00126735
0.00117154
)
;

boundaryField
{
    floor
    {
        type            compressible::alphatWallFunction;
        Prt             0.85;
        value           nonuniform List<scalar> 
29
(
0.000193218
7.57111e-05
9.28855e-05
0.000104727
0.000104349
0.000100831
9.60785e-05
8.98776e-05
8.36287e-05
7.78938e-05
7.27561e-05
6.81706e-05
6.40692e-05
6.04162e-05
5.71158e-05
5.40636e-05
5.11151e-05
4.80751e-05
4.65928e-05
4.20808e-05
4.20802e-05
6.03321e-05
7.23116e-05
8.09584e-05
0.000193216
7.57102e-05
8.20991e-05
0.000163088
0.000232044
)
;
    }
    ceiling
    {
        type            compressible::alphatWallFunction;
        Prt             0.85;
        value           nonuniform List<scalar> 
43
(
0.000293282
0.0003094
0.000320863
0.00034075
0.000327581
0.000311606
0.000301192
0.000287754
0.000269388
0.000246954
0.00022176
0.000195246
0.000169159
0.000146503
0.00012901
0.000116174
0.000106738
9.97992e-05
9.49446e-05
9.19956e-05
9.07658e-05
9.10105e-05
9.25063e-05
9.50878e-05
9.85803e-05
0.000102798
0.000107725
0.000113386
0.000119866
0.000127352
0.00013587
0.000145243
0.000155534
0.000166784
0.000178844
0.000194056
0.000196933
0.000191112
0.000179552
0.000166365
0.000473312
0.000553694
0.000329493
)
;
    }
    sWall
    {
        type            compressible::alphatWallFunction;
        Prt             0.85;
        value           uniform 0.000292068;
    }
    nWall
    {
        type            compressible::alphatWallFunction;
        Prt             0.85;
        value           nonuniform List<scalar> 6(0.00013575 0.000142635 0.000167309 0.000191737 0.000194758 0.000166036);
    }
    sideWalls
    {
        type            empty;
    }
    glass1
    {
        type            compressible::alphatWallFunction;
        Prt             0.85;
        value           nonuniform List<scalar> 9(0.000174442 0.000236024 0.000285713 0.000332292 0.000378803 0.000427217 0.000470607 0.000478666 0.000466452);
    }
    glass2
    {
        type            compressible::alphatWallFunction;
        Prt             0.85;
        value           nonuniform List<scalar> 2(0.000247466 0.000230295);
    }
    sun
    {
        type            compressible::alphatWallFunction;
        Prt             0.85;
        value           nonuniform List<scalar> 
14
(
0.000178837
0.000194816
0.000197966
0.000207023
0.000215401
0.000223227
0.000230893
0.000238146
0.00024304
0.00024472
0.000242422
0.000235676
0.000224432
0.000209531
)
;
    }
    heatsource1
    {
        type            compressible::alphatWallFunction;
        Prt             0.85;
        value           nonuniform List<scalar> 3(0.00010046 0.000120868 0.000136076);
    }
    heatsource2
    {
        type            compressible::alphatWallFunction;
        Prt             0.85;
        value           nonuniform List<scalar> 4(0.000196297 0.000115831 0.00011583 0.000197487);
    }
    Table_master
    {
        type            compressible::alphatWallFunction;
        Prt             0.85;
        value           nonuniform List<scalar> 9(0.000130125 0.000114669 0.000102167 9.20046e-05 8.36605e-05 7.67333e-05 7.09376e-05 6.60894e-05 6.21367e-05);
    }
    Table_slave
    {
        type            compressible::alphatWallFunction;
        Prt             0.85;
        value           nonuniform List<scalar> 9(0.000147621 0.000134851 0.000125915 0.000119236 0.000113539 0.00010795 0.00010251 9.66776e-05 8.97499e-05);
    }
    inlet
    {
        type            fixedValue;
        value           uniform 1.94e-05;
    }
    outlet
    {
        type            zeroGradient;
    }
}


// ************************************************************************* //
