/*--------------------------------*- C++ -*----------------------------------*\
  =========                 |
  \\      /  F ield         | OpenFOAM: The Open Source CFD Toolbox
   \\    /   O peration     | Website:  https://openfoam.org
    \\  /    A nd           | Version:  6
     \\/     M anipulation  |
\*---------------------------------------------------------------------------*/
FoamFile
{
    version     2.0;
    format      ascii;
    class       volScalarField;
    location    "600";
    object      epsilon;
}
// * * * * * * * * * * * * * * * * * * * * * * * * * * * * * * * * * * * * * //

dimensions      [0 2 -3 0 0 0 0];

internalField   nonuniform List<scalar> 
459
(
0.000116925
0.00013004
0.000104899
0.000116946
0.000130948
0.000145275
0.000159893
0.000175118
0.000191584
0.000209377
0.000225603
0.000239062
0.000248783
0.000254006
0.000251336
7.95122e-06
1.15944e-05
9.90451e-06
5.45039e-06
3.64894e-06
2.9561e-06
2.88792e-06
3.68604e-06
4.78886e-06
6.04975e-06
7.16203e-06
7.56928e-06
7.13118e-06
6.97321e-06
7.2041e-06
8.01504e-06
8.17864e-06
6.71191e-06
5.1777e-06
0.00053908
0.00116801
0.000130177
8.8061e-05
9.07476e-05
9.65027e-05
0.000103183
0.000111316
0.0001218
0.000135269
0.000150604
0.000167517
0.000185605
0.000204492
0.000230299
0.000318768
7.90767e-05
2.56014e-05
3.77469e-05
2.22359e-05
1.09038e-05
7.72288e-06
6.57262e-06
6.00318e-06
7.99157e-06
1.0982e-05
1.41151e-05
1.66224e-05
1.83303e-05
1.97483e-05
2.09688e-05
2.24906e-05
2.16914e-05
1.89685e-05
1.79596e-05
1.61694e-05
0.00136397
0.00394801
0.000317318
0.000100531
9.14989e-05
9.74775e-05
0.000106233
0.000117103
0.000130349
0.000146196
0.000163206
0.00018027
0.000196913
0.000213297
0.000231976
0.000267073
0.000368257
9.37336e-05
6.3005e-05
3.65138e-05
2.84713e-05
2.47875e-05
2.09787e-05
8.93053e-06
1.08745e-05
1.37755e-05
1.72457e-05
2.15929e-05
2.75603e-05
3.66488e-05
5.26767e-05
8.66677e-05
6.37363e-05
6.21249e-05
5.58906e-05
5.24482e-05
0.00271863
0.00884519
0.000802158
0.000139439
0.000100629
0.000106296
0.000118507
0.000133858
0.000152064
0.000172898
0.000193626
0.000211901
0.000227775
0.000242053
0.00025446
0.00026516
0.00028262
0.000335971
9.53259e-05
6.08263e-05
4.96048e-05
4.94783e-05
5.5382e-05
6.73968e-05
9.15999e-05
8.99484e-05
9.01688e-05
9.21093e-05
9.64455e-05
0.000104299
0.000117642
0.000140643
0.000185273
0.000107048
0.000119179
0.000132238
0.000148195
0.00464062
0.0153255
0.00186786
0.000244052
0.000123492
0.00012243
0.000138153
0.000160491
0.000188345
0.000220867
0.000248979
0.000269672
0.000285911
0.000300917
0.000312624
0.000312114
0.000287495
0.00022596
0.000142103
9.73008e-05
7.7406e-05
6.97403e-05
6.71948e-05
6.6859e-05
6.69176e-05
6.61689e-05
6.67437e-05
6.91386e-05
7.39714e-05
8.21511e-05
9.4894e-05
0.000113511
0.000138229
0.000163461
0.000200664
0.000248679
0.000315797
0.000438205
0.000278029
0.000177433
0.00716618
0.0212053
0.0040105
0.000643468
0.000231729
0.00018211
0.00019193
0.000219913
0.000261779
0.000313542
0.000344545
0.000357777
0.000364297
0.000373587
0.000386339
0.000390656
0.000367414
0.000307397
0.000233229
0.000175271
0.000138737
0.000117863
0.000106416
0.000100003
9.57731e-05
9.28504e-05
9.17268e-05
9.28516e-05
9.7019e-05
0.000105606
0.000120661
0.000144715
0.000179965
0.000226915
0.000285438
0.000352865
0.000416728
0.000434678
0.000274222
0.000204148
0.0100969
0.0238653
0.00824593
0.00254851
0.000973176
0.000549599
0.000449507
0.000436613
0.00048151
0.000523483
0.000523748
0.000500237
0.000472346
0.000454638
0.000452782
0.000455474
0.000440573
0.000394391
0.000328965
0.000266683
0.000219203
0.000187033
0.00016668
0.000154068
0.000145846
0.000140364
0.000137283
0.000136798
0.000139789
0.000148186
0.000165254
0.000195208
0.000241353
0.000303982
0.000379942
0.00046255
0.000535034
0.000566097
0.000520531
0.000220304
0.0106472
0.0280378
0.0150927
0.00983868
0.00530527
0.00288035
0.00182458
0.00134868
0.00112869
0.000979329
0.000846358
0.000729104
0.000633913
0.00056571
0.00052555
0.000506801
0.000492117
0.000462262
0.000414132
0.000360048
0.000312022
0.000275024
0.000249104
0.000232069
0.000221122
0.000214033
0.000209757
0.000208
0.000209415
0.000216268
0.000233508
0.000269187
0.000330833
0.000422168
0.000537644
0.000665124
0.00080312
0.000965892
0.001172
0.000999004
0.00955548
0.0153794
0.0226445
0.0176162
0.0116271
0.00743659
0.00485621
0.00331181
0.00234665
0.00171864
0.00130471
0.00102545
0.000836498
0.000711606
0.000633548
0.000588373
0.000561232
0.000536379
0.000504782
0.000467594
0.000430684
0.000399049
0.000375048
0.000358621
0.000348222
0.000341968
0.000338285
0.000336101
0.00033514
0.000336605
0.00034489
0.000366553
0.000406376
0.000474096
0.00057969
0.000732843
0.000903312
0.00104296
0.00195605
0.00134391
0.048585
0.0642802
0.0239287
0.0122134
0.00711618
0.00450901
0.00304646
0.00216072
0.00160453
0.00125554
0.00104059
0.000913817
0.000844041
0.000808529
0.00079022
0.000774238
0.000753148
0.000727481
0.000701401
0.00067902
0.00066274
0.00065301
0.000648743
0.000648015
0.000648716
0.000648963
0.000647428
0.000643933
0.000642243
0.000641448
0.000647756
0.000667198
0.000699028
0.000745048
0.000783549
0.000801841
0.000963408
0.00139565
0.0366264
0.0365899
0.0169036
0.00956016
0.00602052
0.00409111
0.00298344
0.00234053
0.00197248
0.00177481
0.00169109
0.00168221
0.00171511
0.00176022
0.00179384
0.0017938
0.00175931
0.00170568
0.00164987
0.0016033
0.00157085
0.00155241
0.00154485
0.00154368
0.00154399
0.00154089
0.00152987
0.00150744
0.00146856
0.00141531
0.00135829
0.00131569
0.00128561
0.00126165
0.00122932
0.0011493
0.00136318
0.00158468
0.00185636
0.00449926
0.0153981
0.00978641
0.00766574
0.0059258
0.00426099
0.00309664
0.00231035
0.00177565
0.00142682
0.00120834
0.00107549
0.00100385
0.000976822
0.000980311
0.00100111
0.00103281
0.00106209
0.00108022
0.00108638
0.00108371
0.00107613
0.00106684
0.0010578
0.00104985
0.001043
0.00103678
0.0010304
0.00102297
0.00101399
0.00100112
0.000981335
0.000951738
0.000922608
0.000884277
0.000824039
0.000725794
0.000661754
0.000727529
)
;

boundaryField
{
    floor
    {
        Cmu             0.09;
        kappa           0.41;
        E               9.8;
        type            epsilonWallFunction;
        value           nonuniform List<scalar> 
29
(
0.000251336
7.95122e-06
1.15944e-05
9.90451e-06
5.45039e-06
3.64894e-06
2.9561e-06
2.88792e-06
3.68604e-06
4.78886e-06
6.04975e-06
7.16203e-06
7.56928e-06
7.13118e-06
6.97321e-06
7.2041e-06
8.01504e-06
8.17864e-06
6.71191e-06
5.1777e-06
5.1777e-06
1.61694e-05
5.24482e-05
0.000148195
0.000251336
7.95122e-06
2.56014e-05
9.37336e-05
0.000335971
)
;
    }
    ceiling
    {
        Cmu             0.09;
        kappa           0.41;
        E               9.8;
        type            epsilonWallFunction;
        value           nonuniform List<scalar> 
43
(
0.00185636
0.00449926
0.0153981
0.00978641
0.00766574
0.0059258
0.00426099
0.00309664
0.00231035
0.00177565
0.00142682
0.00120834
0.00107549
0.00100385
0.000976822
0.000980311
0.00100111
0.00103281
0.00106209
0.00108022
0.00108638
0.00108371
0.00107613
0.00106684
0.0010578
0.00104985
0.001043
0.00103678
0.0010304
0.00102297
0.00101399
0.00100112
0.000981335
0.000951738
0.000922608
0.000884277
0.000824039
0.000725794
0.000661754
0.000727529
0.00955548
0.0153794
0.0366264
)
;
    }
    sWall
    {
        Cmu             0.09;
        kappa           0.41;
        E               9.8;
        type            epsilonWallFunction;
        value           uniform 0.00185636;
    }
    nWall
    {
        Cmu             0.09;
        kappa           0.41;
        E               9.8;
        type            epsilonWallFunction;
        value           nonuniform List<scalar> 6(0.000177433 0.000204148 0.000220304 0.00139565 0.00158468 0.000727529);
    }
    sideWalls
    {
        type            empty;
    }
    glass1
    {
        Cmu             0.09;
        kappa           0.41;
        E               9.8;
        type            epsilonWallFunction;
        value           nonuniform List<scalar> 9(0.000116925 0.00053908 0.00136397 0.00271863 0.00464062 0.00716618 0.0100969 0.0106472 0.00955548);
    }
    glass2
    {
        Cmu             0.09;
        kappa           0.41;
        E               9.8;
        type            epsilonWallFunction;
        value           nonuniform List<scalar> 2(0.000999004 0.00134391);
    }
    sun
    {
        Cmu             0.09;
        kappa           0.41;
        E               9.8;
        type            epsilonWallFunction;
        value           nonuniform List<scalar> 
14
(
0.000116925
0.00013004
0.000104899
0.000116946
0.000130948
0.000145275
0.000159893
0.000175118
0.000191584
0.000209377
0.000225603
0.000239062
0.000248783
0.000254006
)
;
    }
    heatsource1
    {
        Cmu             0.09;
        kappa           0.41;
        E               9.8;
        type            epsilonWallFunction;
        value           nonuniform List<scalar> 3(0.000438205 0.000278029 0.000177433);
    }
    heatsource2
    {
        Cmu             0.09;
        kappa           0.41;
        E               9.8;
        type            epsilonWallFunction;
        value           nonuniform List<scalar> 4(0.000318768 7.90767e-05 7.90767e-05 0.000368257);
    }
    Table_master
    {
        Cmu             0.09;
        kappa           0.41;
        E               9.8;
        type            epsilonWallFunction;
        value           nonuniform List<scalar> 9(8.93053e-06 1.08745e-05 1.37755e-05 1.72457e-05 2.15929e-05 2.75603e-05 3.66488e-05 5.26767e-05 8.66677e-05);
    }
    Table_slave
    {
        Cmu             0.09;
        kappa           0.41;
        E               9.8;
        type            epsilonWallFunction;
        value           nonuniform List<scalar> 9(9.15999e-05 8.99484e-05 9.01688e-05 9.21093e-05 9.64455e-05 0.000104299 0.000117642 0.000140643 0.000185273);
    }
    inlet
    {
        type            turbulentMixingLengthDissipationRateInlet;
        mixingLength    0.01;
        phi             phi;
        k               k;
        value           uniform 3.77337e-06;
    }
    outlet
    {
        type            zeroGradient;
    }
}


// ************************************************************************* //
