/*--------------------------------*- C++ -*----------------------------------*\
  =========                 |
  \\      /  F ield         | OpenFOAM: The Open Source CFD Toolbox
   \\    /   O peration     | Website:  https://openfoam.org
    \\  /    A nd           | Version:  6
     \\/     M anipulation  |
\*---------------------------------------------------------------------------*/
FoamFile
{
    version     2.0;
    format      ascii;
    class       surfaceScalarField;
    location    "100";
    object      phi;
}
// * * * * * * * * * * * * * * * * * * * * * * * * * * * * * * * * * * * * * //

dimensions      [1 0 -1 0 0 0 0];

internalField   nonuniform List<scalar> 
852
(
-0.00270116
0.00277672
-0.00292985
0.000228806
-0.0032954
0.000365656
-0.00369667
0.000401378
-0.00406591
0.000369354
-0.00437058
0.000304774
-0.00458668
0.000216204
-0.00469125
0.00010468
-0.00466022
-3.09323e-05
-0.00446699
-0.000193126
-0.0040902
-0.000376686
-0.00351875
-0.000571357
-0.00272649
-0.000792156
-0.00159962
-0.00112678
-0.00159541
-0.00077509
0.000781219
-0.000649564
-0.00012543
-0.000236048
-0.000413415
0.000243004
-0.000478945
0.000779663
-0.000536549
0.0012305
-0.000450727
0.0013443
-0.000113696
0.00128344
6.09733e-05
0.00118025
0.000103312
0.00107182
0.000108547
0.000967798
0.000104145
0.0008748
9.31243e-05
0.000798075
7.68508e-05
0.000740596
5.7602e-05
0.000698538
4.21744e-05
0.000669808
2.88387e-05
0.000693712
-2.38089e-05
0.000778923
-8.51293e-05
0.000787999
-0.00197191
0.00494462
-0.00260983
0.000866849
-0.00316217
0.000918112
-0.00362412
0.000863441
-0.00402361
0.00076896
-0.00435147
0.000632742
-0.00459118
0.000456036
-0.00472374
0.00023735
-0.00472955
-2.50106e-05
-0.00459153
-0.000331042
-0.00429205
-0.000676051
-0.00381721
-0.0010461
-0.00316823
-0.00144104
-0.00243574
-0.00185918
-0.00183396
-0.00219709
0.000238716
-0.00207265
0.000238781
0.0003531
0.000444632
5.03333e-06
0.00022272
-0.000176937
-0.000231345
3.51106e-05
-0.000690887
0.000457292
-0.000958618
0.000883831
-0.000877161
0.000963004
-0.000192771
0.000944839
7.92363e-05
0.000931455
0.000116797
0.000925218
0.000114891
0.000923703
0.000105772
0.000925064
9.18792e-05
0.000927751
7.42835e-05
0.000931078
5.43956e-05
0.000918302
5.50686e-05
0.000846789
0.000100465
0.000745952
7.71305e-05
0.000581164
7.97528e-05
0.00139003
-0.0014726
0.00670787
-0.00228561
0.00167999
-0.00289946
0.00153207
-0.00337867
0.00134277
-0.0037945
0.00118491
-0.00414611
0.000984469
-0.00442035
0.000730401
-0.00460022
0.000417335
-0.00466868
4.35687e-05
-0.00461381
-0.00038579
-0.0044334
-0.000856338
-0.00413776
-0.00134163
-0.0037626
-0.00181609
-0.00337808
-0.00224359
-0.00304591
-0.00252916
-0.00257868
-0.0025398
-0.00233982
-0.000775566
0.00123972
-0.000855766
0.000302997
-0.000716009
-0.000371011
-0.000436302
-0.000970489
-5.5853e-05
-0.00133895
0.00061533
-0.00154824
0.000422805
0.000502277
0.000619314
0.000734452
0.000840479
0.000932622
0.00100718
0.00106185
0.0011172
0.000943215
0.000274568
0.000768668
0.000251797
0.000537892
0.000310638
0.00195732
-0.00111069
0.00818567
-0.00197678
0.0025462
-0.00252254
0.00207796
-0.00296021
0.00178058
-0.00335098
0.00157581
-0.00369275
0.00132637
-0.00397497
0.00101276
-0.00418275
0.000625244
-0.00429919
0.000160143
-0.00431297
-0.000371882
-0.00423688
-0.000932302
-0.00411049
-0.00146789
-0.00399349
-0.00193297
-0.0039496
-0.00228737
-0.00400071
-0.00247795
-0.00411493
-0.00242549
-0.00460632
-0.00184835
-0.00364917
-0.000938151
-0.00230364
-0.000105761
-0.00175114
-0.000249424
-0.00128957
-0.000832488
-0.000889754
-0.0013702
-0.000609319
-0.00161926
-0.000727949
-0.00142949
0.000136921
-0.000864919
0.000732623
-0.000595763
0.00123278
-0.000500214
0.00167818
-0.000445458
0.00207105
-0.000392933
0.00238009
-0.000309089
0.00254251
-0.000162479
0.00248088
6.15867e-05
0.00212923
0.000351603
0.00167811
0.000725813
0.000813031
0.00111703
-0.000283305
0.00140711
0.00171259
-0.000826048
0.00944289
-0.00168309
0.00340337
-0.00204586
0.00244086
-0.00238977
0.00212461
-0.00270662
0.00189279
-0.00298516
0.00160505
-0.00321862
0.00124636
-0.00339711
0.000803869
-0.0035058
0.000268974
-0.00352718
-0.000350362
-0.00347814
-0.000981201
-0.00341416
-0.00153174
-0.00339057
-0.00195643
-0.00344141
-0.00223641
-0.00356827
-0.00235096
-0.00374949
-0.00224416
-0.00377908
-0.00181865
-0.00346256
-0.00125457
-0.0027048
-0.000863426
-0.0020086
-0.000945524
-0.00148206
-0.00135892
-0.00103247
-0.00181966
-0.000658457
-0.00199313
-0.000410717
-0.00167711
3.40463e-05
-0.00130957
0.000485799
-0.00104742
0.000891616
-0.000905933
0.0012707
-0.000824444
0.00162473
-0.000746856
0.00193585
-0.000620105
0.00216244
-0.000388959
0.00223998
-1.58433e-05
0.00213728
0.000454412
0.00190016
0.000963064
0.00153517
0.00148216
0.000911845
0.00203057
0.000420163
0.00220438
-0.00102569
0.00144574
-0.00160105
0.000575239
-0.0015286
-0.000739444
0.0106689
-0.00151874
0.0041828
-0.00150036
0.00242262
-0.00168732
0.0023117
-0.00190957
0.00211518
-0.00208922
0.00178485
-0.0022237
0.00138098
-0.00231601
0.000896326
-0.00235937
0.000312477
-0.0023345
-0.000375083
-0.00226871
-0.00104685
-0.00222356
-0.00157674
-0.00223958
-0.00194027
-0.00233101
-0.00214483
-0.00248683
-0.002195
-0.00265636
-0.00207449
-0.00269358
-0.00178131
-0.00251377
-0.00143425
-0.00213627
-0.00124081
-0.00174108
-0.00134059
-0.00138929
-0.00171059
-0.00101139
-0.00219742
-0.000608337
-0.002396
-0.00035603
-0.00192929
-9.51647e-05
-0.00157033
0.000189603
-0.00133208
0.000473033
-0.00118926
0.000754716
-0.00110603
0.00104269
-0.00103472
0.00133695
-0.000914257
0.00161999
-0.000671889
0.00184223
-0.000237965
0.00194749
0.000349267
0.0019846
0.000926078
0.0020368
0.00143009
0.00217615
0.00189136
0.00252313
0.00185754
0.00278486
0.00118412
0.00232543
0.00103478
0.000881265
-0.00102345
0.012228
-0.00126014
0.00441962
-0.000642371
0.00180499
-0.000673681
0.00234315
-0.000878483
0.00232013
-0.000991086
0.0018976
-0.00100455
0.0013946
-0.000959014
0.000850943
-0.000859552
0.000213166
-0.000748337
-0.000486151
-0.000669701
-0.00112534
-0.000665241
-0.00158106
-0.000746015
-0.00185935
-0.000902502
-0.0019882
-0.0011072
-0.00199015
-0.00130512
-0.00187643
-0.00141884
-0.00166744
-0.00140837
-0.00144458
-0.00131476
-0.00133427
-0.00121604
-0.00143917
-0.00110908
-0.00181741
-0.000885484
-0.00242087
-0.000517571
-0.00276369
-0.000355216
-0.0020915
-0.000252648
-0.00167279
-0.000146824
-0.00143781
-3.17683e-05
-0.00130422
9.73752e-05
-0.00123507
0.000252898
-0.00119014
0.000453175
-0.00111442
0.000718624
-0.000937222
0.00105789
-0.000577113
0.00138356
2.37271e-05
0.0016581
0.000651662
0.00199687
0.00109145
0.00251146
0.0013769
0.00319913
0.00116999
0.00383023
0.000553144
0.00379577
0.00106936
0.0047618
0.00216763
0.0106567
0.00257193
0.00401544
0.00216916
0.00220788
0.00165935
0.0028531
0.0011654
0.00281422
0.000895737
0.0021674
0.000862309
0.00142817
0.00096307
0.000750329
0.00116111
1.52712e-05
0.00132861
-0.000653501
0.00133718
-0.00113377
0.00121288
-0.00145663
0.000996052
-0.00164238
0.000718106
-0.00171011
0.000410283
-0.00168218
0.000115248
-0.00158124
-0.000117316
-0.00143471
-0.00027011
-0.00129162
-0.000389823
-0.00121439
-0.000542932
-0.0012859
-0.000702574
-0.00165762
-0.000686084
-0.0024372
-0.000372598
-0.00307689
-0.000335747
-0.00212819
-0.000409761
-0.00159867
-0.0004997
-0.00134777
-0.000588306
-0.00121552
-0.00067347
-0.00114981
-0.000745995
-0.00111751
-0.000783223
-0.00107709
-0.000744208
-0.000976122
-0.000564533
-0.000756668
-0.000164371
-0.000376307
0.000289165
0.00019825
0.000684387
0.000696351
0.00106619
0.00099522
0.00130106
0.000935245
0.00126534
0.000588978
0.000380755
0.00195405
0.00556606
0.011325
0.0153443
0.0120683
0.00548396
0.00963023
0.00529133
0.00770102
0.00474355
0.00637591
0.00349264
0.00554695
0.00225726
0.00505856
0.00123885
0.00464002
0.000433943
0.00418772
-0.000201069
0.00372904
-0.000674956
0.00326595
-0.000993396
0.00279848
-0.00117477
0.0023341
-0.00124559
0.00188712
-0.00123506
0.00147792
-0.00117189
0.0011284
-0.00108504
0.000840173
-0.00100322
0.000565804
-0.000939851
0.000207954
-0.000927874
-0.000232465
-0.00121703
-0.000438884
-0.00223061
-0.000145268
-0.00337016
-0.000254761
-0.00201853
-0.000540513
-0.00131281
-0.000831064
-0.00105713
-0.00112132
-0.000925169
-0.00144357
-0.000827462
-0.00181953
-0.000741455
-0.00225942
-0.000637087
-0.00276546
-0.000469979
-0.00334035
-0.000181664
-0.00397787
0.000261318
-0.00466918
0.000889674
-0.00561218
0.00163945
-0.00698117
0.00236431
-0.00888198
0.00283615
-0.0110341
0.00274122
-0.0101098
0.00102983
-0.00407285
0.00564574
0.00581741
0.00511187
0.00582526
0.00564925
0.00420626
0.0059126
0.00322939
0.00595247
0.00221751
0.00590097
0.00129047
0.00575959
0.000575439
0.00548637
7.22827e-05
0.00507437
-0.000262837
0.00457906
-0.000497947
0.00404822
-0.000643802
0.00351933
-0.00071657
0.0030188
-0.000734385
0.00256286
-0.000715794
0.00216145
-0.000683471
0.0018187
-0.00066031
0.001493
-0.00061397
0.00102243
-0.00045713
0.000348902
-0.000543334
-4.25665e-05
-0.00183897
9.5811e-05
-0.00350813
-0.000228457
-0.00169409
-0.000717704
-0.000823469
-0.00110796
-0.00066679
-0.00144651
-0.000586529
-0.00180671
-0.000467166
-0.00221719
-0.000330883
-0.0026613
-0.000192882
-0.00307376
-5.74245e-05
-0.00340596
0.000150643
-0.0036712
0.000526653
-0.00389034
0.00110891
-0.00408857
0.00183778
-0.00421805
0.00249388
-0.00413971
0.00275789
-0.00357193
0.00217353
-0.00193934
-0.00060268
-0.00589969
-0.000880313
0.00674161
0.00151625
0.00342877
0.00292121
0.00280138
0.00396671
0.00218399
0.00475956
0.00142477
0.00521196
0.000838189
0.00536575
0.000421764
0.00529041
0.000147744
0.00507525
-4.75538e-05
0.00476923
-0.000191807
0.00440941
-0.000283847
0.00402863
-0.000335666
0.00365108
-0.000356692
0.0032928
-0.00035737
0.00296278
-0.000353309
0.00266454
-0.000361917
0.00238412
-0.000333386
0.00204597
-0.000118809
0.00157346
-7.06591e-05
0.000891302
-0.00115664
-5.18327e-05
-0.00256456
-0.000756801
-0.000988968
-0.00123095
-0.00034923
-0.00156881
-0.000328847
-0.00182224
-0.000333007
-0.0020228
-0.000266519
-0.00218882
-0.000164774
-0.00233287
-4.87431e-05
-0.00245324
6.30313e-05
-0.00249249
0.000189988
-0.0023822
0.000416454
-0.00207168
0.000798494
-0.00157747
0.00134366
-0.000872049
0.00178854
0.000264041
0.00162189
0.00158827
0.00084939
0.00173461
-0.000748943
-0.00404247
-0.0102115
-0.0129343
-0.00615007
-0.0026895
0.000141247
0.00235435
0.00380911
0.00467853
0.00513296
0.00531488
0.00530305
0.0051484
0.00490312
0.0046074
0.00429198
0.00397712
0.00366737
0.00334981
0.00306114
0.00298696
0.00296106
0.00185058
-0.0006649
-0.0016058
-0.00190816
-0.00219055
-0.00247728
-0.00269763
-0.00281635
-0.00281931
-0.00271119
-0.00247721
-0.00201824
-0.00117896
0.000203629
0.00202896
0.00368691
0.00457297
0.00386278
)
;

boundaryField
{
    floor
    {
        type            calculated;
        value           nonuniform List<scalar> 
29
(
0
0
0
0
0
0
0
0
0
0
0
0
0
0
0
0
0
0
0
0
-8.98732e-06
-2.07742e-05
-2.93134e-05
-3.84763e-05
-4.11482e-06
-6.0319e-06
-1.64238e-05
-1.94695e-05
-1.89507e-05
)
;
    }
    ceiling
    {
        type            calculated;
        value           nonuniform List<scalar> 
43
(
-4.51866e-05
-4.38966e-05
-4.25982e-05
-3.17194e-05
-2.92848e-05
-2.90003e-05
-2.98835e-05
-3.112e-05
-3.25432e-05
-3.40623e-05
-3.55956e-05
-3.70365e-05
-3.84392e-05
-3.98133e-05
-4.11399e-05
-4.23696e-05
-4.34245e-05
-4.42027e-05
-4.45667e-05
-4.44717e-05
-4.45945e-05
-4.59877e-05
-4.86378e-05
-4.79594e-05
-4.67941e-05
-4.63727e-05
-4.61963e-05
-4.60888e-05
-4.59732e-05
-4.5699e-05
-4.50001e-05
-4.38981e-05
-4.24269e-05
-4.06957e-05
-3.88432e-05
-3.66997e-05
-3.59741e-05
-3.65842e-05
-3.86742e-05
-4.06567e-05
-2.22588e-06
-3.78346e-06
-4.38668e-05
)
;
    }
    sWall
    {
        type            calculated;
        value           uniform -0.000241195;
    }
    nWall
    {
        type            calculated;
        value           nonuniform List<scalar> 6(-7.25538e-05 -8.43327e-05 -8.46491e-05 -0.000112424 -0.00012252 -0.00013895);
    }
    sideWalls
    {
        type            empty;
        value           nonuniform 0();
    }
    glass1
    {
        type            calculated;
        value           nonuniform List<scalar> 9(-7.54439e-05 -0.000195885 -0.000290537 -0.000366993 -0.000431068 -0.00048644 -0.00053556 -0.000596217 -0.000665974);
    }
    glass2
    {
        type            calculated;
        value           nonuniform List<scalar> 2(-0.000423407 -0.000470831);
    }
    sun
    {
        type            calculated;
        value           uniform 0;
    }
    heatsource1
    {
        type            calculated;
        value           nonuniform List<scalar> 3(2.08488e-07 2.08326e-07 2.08333e-07);
    }
    heatsource2
    {
        type            calculated;
        value           nonuniform List<scalar> 4(5.19183e-08 5.21723e-08 0 0);
    }
    Table_master
    {
        type            calculated;
        value           nonuniform List<scalar> 9(-1.56434e-07 -1.56577e-07 -1.56593e-07 -1.566e-07 -1.56605e-07 -1.56612e-07 -1.56624e-07 -1.56642e-07 -1.56656e-07);
    }
    Table_slave
    {
        type            calculated;
        value           nonuniform List<scalar> 9(1.56273e-07 1.56375e-07 1.56221e-07 1.56082e-07 1.55961e-07 1.55869e-07 1.55831e-07 1.55851e-07 1.55898e-07);
    }
    inlet
    {
        type            calculated;
        value           uniform -0.00597919;
    }
    outlet
    {
        type            calculated;
        value           nonuniform List<scalar> 2(0.0104979 0.0027668);
    }
}


// ************************************************************************* //
