// -*- C++ -*-
// File generated by PyFoam - sorry for the ugliness

FoamFile
{
 version 2.0;
 format ascii;
 class volVectorField;
 location "100";
 object U;
}

dimensions [ 0 1 -1 0 0 0 0 ];

internalField nonuniform List<vector> 459
(
  (0.104826 0.0738184 0)
  (-0.148583 0.00328994 0)
  (-0.132021 0.00784921 0)
  (-0.149754 0.00831002 0)
  (-0.166536 0.00692057 0)
  (-0.181162 0.00470723 0)
  (-0.192472 0.00191423 0)
  (-0.199493 -0.00142979 0)
  (-0.201246 -0.00538112 0)
  (-0.196646 -0.0101182 0)
  (-0.184219 -0.0158873 0)
  (-0.162014 -0.0229116 0)
  (-0.129458 -0.032299 0)
  (-0.0951826 -0.0461869 0)
  (-0.0899816 -0.063138 0)
  (0.0247005 0.0122746 0)
  (-0.0362679 -0.00884103 0)
  (-0.0222352 -0.0149688 0)
  (-0.000321831 -0.0181389 0)
  (0.0220534 -0.0194889 0)
  (0.0423988 -0.0156376 0)
  (0.0561333 -0.00651827 0)
  (0.0583981 -0.00158519 0)
  (0.053943 0.00045221 0)
  (0.0482461 0.00125829 0)
  (0.0432844 0.00157231 0)
  (0.0390707 0.00155958 0)
  (0.0354704 0.00126912 0)
  (0.0325964 0.000779032 0)
  (0.0305177 0.000307753 0)
  (0.0290645 -4.47073e-05 0)
  (0.0285444 -0.0016763 0)
  (0.0441813 -0.00350507 0)
  (-0.0466896 0.020249 0)
  (0.325062 0.161298 0)
  (-0.174369 0.0222879 0)
  (-0.120791 0.0273388 0)
  (-0.145535 0.0274172 0)
  (-0.16406 0.0249872 0)
  (-0.179805 0.0209737 0)
  (-0.192087 0.0155785 0)
  (-0.200194 0.00874965 0)
  (-0.203272 0.000332467 0)
  (-0.200415 -0.00983874 0)
  (-0.190805 -0.021485 0)
  (-0.173447 -0.0343571 0)
  (-0.148433 -0.0491609 0)
  (-0.118905 -0.067501 0)
  (-0.0913571 -0.0866768 0)
  (-0.0694887 -0.0941231 0)
  (0.0525899 0.0174253 0)
  (0.128055 0.0312213 0)
  (0.00104025 0.0128072 0)
  (-0.0145142 -0.00890305 0)
  (-0.00561694 -0.0236568 0)
  (0.0102555 -0.0324489 0)
  (0.0270267 -0.0295916 0)
  (0.0421172 -0.00636374 0)
  (0.043375 0.00441548 0)
  (0.0407134 0.00732811 0)
  (0.0393244 0.00760593 0)
  (0.0391602 0.00715029 0)
  (0.0393073 0.00641742 0)
  (0.039448 0.00553469 0)
  (0.0396075 0.00457551 0)
  (0.0394744 0.00381773 0)
  (0.0379583 0.00407321 0)
  (0.0340808 0.000936489 0)
  (0.0555418 -0.00130163 0)
  (-0.112149 0.0454233 0)
  (0.509789 0.247463 0)
  (-0.225234 0.053525 0)
  (-0.100903 0.0518365 0)
  (-0.134733 0.0467638 0)
  (-0.153822 0.0411666 0)
  (-0.170424 0.0336985 0)
  (-0.183939 0.0241652 0)
  (-0.193823 0.0124576 0)
  (-0.199291 -0.00146077 0)
  (-0.199284 -0.0174101 0)
  (-0.193827 -0.0352301 0)
  (-0.183058 -0.0540567 0)
  (-0.16807 -0.0731471 0)
  (-0.151082 -0.0913877 0)
  (-0.134863 -0.10458 0)
  (-0.123857 -0.105353 0)
  (-0.127415 -0.0922384 0)
  (0.0654914 0.0457258 0)
  (-0.0462464 0.0140448 0)
  (-0.0373944 -0.00942779 0)
  (-0.0250234 -0.0335993 0)
  (-0.00982762 -0.0490324 0)
  (0.00413491 -0.0546087 0)
  (0.0307175 -0.0239058 0)
  (0.0256998 -0.0063197 0)
  (0.023797 -0.0014099 0)
  (0.027929 -0.000277712 0)
  (0.0332699 -0.000156712 0)
  (0.037845 -0.000467299 0)
  (0.041462 -0.00104108 0)
  (0.044298 -0.0017403 0)
  (0.0461032 -0.000869155 0)
  (0.0453283 0.00829702 0)
  (0.0363496 0.0054377 0)
  (0.072267 0.0049017 0)
  (-0.158231 0.067292 0)
  (0.660429 0.320067 0)
  (-0.278503 0.0907677 0)
  (-0.0739225 0.0772412 0)
  (-0.117797 0.0668115 0)
  (-0.135353 0.0589841 0)
  (-0.151136 0.0492412 0)
  (-0.164618 0.0369161 0)
  (-0.175308 0.0217018 0)
  (-0.18245 0.00349704 0)
  (-0.18487 -0.0173047 0)
  (-0.182781 -0.0396117 0)
  (-0.177807 -0.0617374 0)
  (-0.171937 -0.0818929 0)
  (-0.167674 -0.0980015 0)
  (-0.16786 -0.106067 0)
  (-0.176866 -0.0985768 0)
  (-0.193857 -0.0612562 0)
  (-0.180022 0.0218201 0)
  (-0.108741 0.0287588 0)
  (-0.0954515 0.0041069 0)
  (-0.0655539 -0.0248624 0)
  (-0.0458172 -0.049565 0)
  (-0.0315002 -0.0627427 0)
  (-0.0260859 -0.0610309 0)
  (-0.0182792 -0.0363043 0)
  (0.0191319 -0.0244599 0)
  (0.0419646 -0.0200033 0)
  (0.0621426 -0.0172679 0)
  (0.08004 -0.0149541 0)
  (0.0951407 -0.0120894 0)
  (0.105781 -0.00791613 0)
  (0.109084 -0.00214537 0)
  (0.102365 0.00551103 0)
  (0.0833758 0.0197244 0)
  (0.0594072 0.0315994 0)
  (0.0592398 0.0432308 0)
  (-0.242216 0.081445 0)
  (0.781557 0.380473 0)
  (-0.325706 0.129839 0)
  (-0.0433838 0.0982399 0)
  (-0.0952269 0.0838977 0)
  (-0.109486 0.0744632 0)
  (-0.122176 0.0629367 0)
  (-0.133273 0.0484015 0)
  (-0.142354 0.0303947 0)
  (-0.148763 0.00876374 0)
  (-0.151155 -0.0158602 0)
  (-0.149444 -0.0412899 0)
  (-0.146407 -0.0646077 0)
  (-0.144143 -0.0837519 0)
  (-0.144647 -0.0975792 0)
  (-0.149255 -0.104944 0)
  (-0.157603 -0.103644 0)
  (-0.163537 -0.0882456 0)
  (-0.15659 -0.0535916 0)
  (-0.131977 -0.0270922 0)
  (-0.100791 -0.0287179 0)
  (-0.0738165 -0.0484718 0)
  (-0.0530968 -0.068582 0)
  (-0.0355989 -0.0766035 0)
  (-0.0221906 -0.0666147 0)
  (-0.00944817 -0.048642 0)
  (0.0115713 -0.0374836 0)
  (0.0294137 -0.0315202 0)
  (0.0461297 -0.0279803 0)
  (0.06172 -0.0246336 0)
  (0.0759273 -0.0194823 0)
  (0.0876727 -0.0106206 0)
  (0.0954221 0.00287695 0)
  (0.095714 0.0193116 0)
  (0.0883074 0.03813 0)
  (0.0727202 0.0566543 0)
  (0.0879485 0.0741468 0)
  (-0.0384798 0.0862722 0)
  (0.0624479 0.0252949 0)
  (-0.063551 -0.0302846 0)
  (-0.33042 -0.0593736 0)
  (0.863452 0.434619 0)
  (-0.365334 0.165025 0)
  (-0.017495 0.108304 0)
  (-0.0668021 0.0970012 0)
  (-0.0777317 0.0862468 0)
  (-0.0861193 0.0729923 0)
  (-0.092892 0.0567783 0)
  (-0.0981221 0.0368239 0)
  (-0.101472 0.0126183 0)
  (-0.100869 -0.0153637 0)
  (-0.0974324 -0.0434441 0)
  (-0.0946559 -0.066722 0)
  (-0.0939922 -0.0834937 0)
  (-0.0965425 -0.0935792 0)
  (-0.102575 -0.0967738 0)
  (-0.110619 -0.0921038 0)
  (-0.115908 -0.0786713 0)
  (-0.112879 -0.0605279 0)
  (-0.100238 -0.048398 0)
  (-0.0828956 -0.0520104 0)
  (-0.066946 -0.0680081 0)
  (-0.0509625 -0.08695 0)
  (-0.0344038 -0.0937373 0)
  (-0.0193625 -0.0776731 0)
  (-0.0102672 -0.0625538 0)
  (0.0019782 -0.0520769 0)
  (0.0141342 -0.0460022 0)
  (0.0260792 -0.0424775 0)
  (0.0380471 -0.0392145 0)
  (0.0502278 -0.0336978 0)
  (0.0624481 -0.0230576 0)
  (0.0741641 -0.00494812 0)
  (0.0827729 0.0183532 0)
  (0.0856725 0.0422344 0)
  (0.083865 0.0646213 0)
  (0.103559 0.0866554 0)
  (0.077196 0.0892282 0)
  (0.120842 0.065352 0)
  (0.14126 0.0488275 0)
  (-0.132987 0.00603587 0)
  (0.885571 0.484083 0)
  (-0.38515 0.166654 0)
  (0.00345479 0.0816975 0)
  (-0.0201557 0.106507 0)
  (-0.0344709 0.098607 0)
  (-0.0416185 0.0792286 0)
  (-0.0438189 0.0598049 0)
  (-0.0435769 0.0381851 0)
  (-0.041685 0.0118711 0)
  (-0.0332494 -0.0193626 0)
  (-0.0278207 -0.0481209 0)
  (-0.0263996 -0.0690427 0)
  (-0.0285554 -0.0823349 0)
  (-0.0341836 -0.0890846 0)
  (-0.042611 -0.0900251 0)
  (-0.052044 -0.0851664 0)
  (-0.0593793 -0.0749365 0)
  (-0.0615356 -0.0634245 0)
  (-0.0586712 -0.0572255 0)
  (-0.0542877 -0.0619964 0)
  (-0.0509657 -0.0782358 0)
  (-0.0424667 -0.1011 0)
  (-0.0303354 -0.111579 0)
  (-0.0165546 -0.0876717 0)
  (-0.0131938 -0.0710008 0)
  (-0.0087036 -0.0608795 0)
  (-0.00390067 -0.054934 0)
  (0.00130636 -0.0517483 0)
  (0.00711116 -0.0495251 0)
  (0.0141494 -0.0457038 0)
  (0.023189 -0.0370671 0)
  (0.0351497 -0.0198895 0)
  (0.0539997 0.00777391 0)
  (0.0666763 0.0345787 0)
  (0.0766125 0.0563516 0)
  (0.0998089 0.0746534 0)
  (0.11537 0.071344 0)
  (0.149577 0.0461762 0)
  (0.194633 0.0467644 0)
  (-0.0257469 0.117562 0)
  (0.990725 0.507292 0)
  (-0.149963 0.152937 0)
  (0.0745093 0.0279198 0)
  (0.10231 0.0619736 0)
  (0.0647276 0.0789461 0)
  (0.0394218 0.0624373 0)
  (0.0338173 0.0399641 0)
  (0.0365701 0.0181046 0)
  (0.0414675 -0.00922141 0)
  (0.0572851 -0.0336582 0)
  (0.0603729 -0.0532432 0)
  (0.0565661 -0.0675612 0)
  (0.048522 -0.076447 0)
  (0.0374129 -0.0802829 0)
  (0.0243441 -0.0797566 0)
  (0.0108394 -0.0754589 0)
  (-0.00119464 -0.0679998 0)
  (-0.00922785 -0.0601694 0)
  (-0.0140817 -0.056215 0)
  (-0.019787 -0.0606182 0)
  (-0.0295702 -0.0782637 0)
  (-0.0293311 -0.108999 0)
  (-0.023619 -0.128856 0)
  (-0.0122498 -0.0944822 0)
  (-0.0158028 -0.0732201 0)
  (-0.0196428 -0.0622123 0)
  (-0.0231827 -0.0562225 0)
  (-0.0267867 -0.0532369 0)
  (-0.0303049 -0.0517184 0)
  (-0.0331321 -0.0498578 0)
  (-0.0341954 -0.0455577 0)
  (-0.0316711 -0.0366695 0)
  (-0.0209965 -0.021457 0)
  (0.00853526 0.00303267 0)
  (0.0217295 0.0215418 0)
  (0.0406339 0.0310465 0)
  (0.0519265 0.0198711 0)
  (0.0617329 -0.00105176 0)
  (0.138886 0.0777367 0)
  (-0.59655 0.277733 0)
  (1.12965 0.460009 0)
  (0.546718 0.304723 0)
  (0.53377 0.259147 0)
  (0.476474 0.21888 0)
  (0.376133 0.184457 0)
  (0.294822 0.138551 0)
  (0.247828 0.0913903 0)
  (0.222455 0.0507451 0)
  (0.209165 0.0165606 0)
  (0.189784 -0.0134996 0)
  (0.169929 -0.0368289 0)
  (0.150061 -0.0528517 0)
  (0.130005 -0.0622262 0)
  (0.109832 -0.0661555 0)
  (0.0900262 -0.0659857 0)
  (0.0713523 -0.0630222 0)
  (0.0547854 -0.0585945 0)
  (0.0413037 -0.0541329 0)
  (0.0302626 -0.0510571 0)
  (0.0173327 -0.0519499 0)
  (-0.00520526 -0.0664918 0)
  (-0.012206 -0.103955 0)
  (-0.0139276 -0.138059 0)
  (-0.00654546 -0.0915108 0)
  (-0.0164335 -0.066638 0)
  (-0.0295553 -0.0559801 0)
  (-0.0414269 -0.0502253 0)
  (-0.0540843 -0.0464093 0)
  (-0.0688501 -0.0431747 0)
  (-0.0862714 -0.0388359 0)
  (-0.106541 -0.031165 0)
  (-0.130175 -0.017668 0)
  (-0.156836 0.0031799 0)
  (-0.182606 0.0295822 0)
  (-0.21351 0.0566485 0)
  (-0.263229 0.0801502 0)
  (-0.333139 0.0947072 0)
  (-0.407182 0.0970689 0)
  (-0.487365 0.0872547 0)
  (-0.786868 0.0618541 0)
  (-0.132585 0.159798 0)
  (0.189705 0.221057 0)
  (0.257324 0.199404 0)
  (0.249819 0.154244 0)
  (0.249149 0.105387 0)
  (0.251681 0.0613662 0)
  (0.250499 0.0251264 0)
  (0.242727 -0.00338704 0)
  (0.227436 -0.0238417 0)
  (0.207384 -0.0369299 0)
  (0.184895 -0.0440378 0)
  (0.161787 -0.0466329 0)
  (0.13942 -0.046104 0)
  (0.118699 -0.0436812 0)
  (0.100206 -0.0404476 0)
  (0.0845041 -0.0372658 0)
  (0.0709852 -0.0344675 0)
  (0.0539024 -0.0327453 0)
  (0.0249511 -0.0369276 0)
  (0.0146177 -0.0701161 0)
  (-7.09552e-05 -0.125549 0)
  (-0.00662379 -0.0612499 0)
  (-0.0193777 -0.0373025 0)
  (-0.0392893 -0.0320517 0)
  (-0.0544572 -0.0301262 0)
  (-0.0689104 -0.028916 0)
  (-0.0854237 -0.0276929 0)
  (-0.104263 -0.0247154 0)
  (-0.123166 -0.0173343 0)
  (-0.139024 -0.00287755 0)
  (-0.150786 0.0187148 0)
  (-0.159783 0.0474073 0)
  (-0.167887 0.0799417 0)
  (-0.177777 0.107545 0)
  (-0.185288 0.117037 0)
  (-0.168579 0.0863611 0)
  (-0.101303 -0.0351204 0)
  (-0.293558 -0.287763 0)
  (-0.0803818 0.304425 0)
  (0.0677781 0.229732 0)
  (0.103662 0.171367 0)
  (0.14402 0.132841 0)
  (0.183746 0.095961 0)
  (0.213141 0.0670659 0)
  (0.228118 0.0488039 0)
  (0.230192 0.0407725 0)
  (0.223464 0.0381911 0)
  (0.211567 0.0364881 0)
  (0.196795 0.0361494 0)
  (0.180584 0.0374423 0)
  (0.164061 0.0403798 0)
  (0.14809 0.0445694 0)
  (0.133237 0.0488466 0)
  (0.11995 0.0516032 0)
  (0.108129 0.0560891 0)
  (0.0945082 0.0723316 0)
  (0.074292 0.0732589 0)
  (0.0654867 -0.0139259 0)
  (0.0194165 -0.115782 0)
  (-0.0298985 -0.01037 0)
  (-0.0419135 0.0427396 0)
  (-0.0604081 0.0491387 0)
  (-0.0729924 0.0528433 0)
  (-0.0823755 0.0608896 0)
  (-0.0901039 0.0695018 0)
  (-0.0970123 0.0745951 0)
  (-0.103065 0.0721995 0)
  (-0.106344 0.0660826 0)
  (-0.103948 0.0645442 0)
  (-0.0938724 0.0728273 0)
  (-0.0767545 0.0914536 0)
  (-0.0537687 0.112246 0)
  (-0.0265301 0.123698 0)
  (0.017069 0.107004 0)
  (0.142656 0.0165549 0)
  (-0.188469 -0.201647 0)
  (-0.291552 -0.439994 0)
  (-0.530148 -0.111142 0)
  (-0.371115 0.195137 0)
  (-0.203329 0.0863863 0)
  (-0.0750509 0.0436533 0)
  (0.0598091 0.0042358 0)
  (0.12804 -0.0307165 0)
  (0.180555 -0.0626253 0)
  (0.212099 -0.0914609 0)
  (0.22633 -0.118316 0)
  (0.22927 -0.14302 0)
  (0.224961 -0.163306 0)
  (0.21587 -0.180841 0)
  (0.203855 -0.196772 0)
  (0.190408 -0.211776 0)
  (0.17665 -0.226052 0)
  (0.163177 -0.239317 0)
  (0.149848 -0.250896 0)
  (0.136599 -0.259579 0)
  (0.127411 -0.263766 0)
  (0.126635 -0.267288 0)
  (0.121486 -0.280255 0)
  (0.0326339 -0.305378 0)
  (-0.0723375 -0.293673 0)
  (-0.0752107 -0.278777 0)
  (-0.0875869 -0.273244 0)
  (-0.100527 -0.270001 0)
  (-0.111561 -0.266672 0)
  (-0.118746 -0.261376 0)
  (-0.121481 -0.250996 0)
  (-0.119666 -0.23122 0)
  (-0.112257 -0.203862 0)
  (-0.0953831 -0.170407 0)
  (-0.0653845 -0.132271 0)
  (-0.0234364 -0.0901546 0)
  (0.0514696 -0.0473039 0)
  (0.114535 -0.0492189 0)
  (0.173799 -0.0837721 0)
  (0.220077 -0.151217 0)
  (-0.0944622 -0.239609 0)
)
;

boundaryField
{
  floor
  {
    type noSlip;
  }
  ceiling
  {
    type noSlip;
  }
  sWall
  {
    type noSlip;
  }
  nWall
  {
    type noSlip;
  }
  sideWalls
  {
    type empty;
  }
  glass1
  {
    type noSlip;
  }
  glass2
  {
    type noSlip;
  }
  sun
  {
    type noSlip;
  }
  heatsource1
  {
    type noSlip;
  }
  heatsource2
  {
    type noSlip;
  }
  Table_master
  {
    type noSlip;
  }
  Table_slave
  {
    type noSlip;
  }
  inlet
  {
    type fixedValue;
    value uniform (0.277164 -0.114805 0);
  }
  outlet
  {
    type zeroGradient;
  }
} 	// ************************************************************************* //

