/*--------------------------------*- C++ -*----------------------------------*\
  =========                 |
  \\      /  F ield         | OpenFOAM: The Open Source CFD Toolbox
   \\    /   O peration     | Website:  https://openfoam.org
    \\  /    A nd           | Version:  6
     \\/     M anipulation  |
\*---------------------------------------------------------------------------*/
FoamFile
{
    version     2.0;
    format      ascii;
    class       volScalarField;
    location    "900";
    object      alphat;
}
// * * * * * * * * * * * * * * * * * * * * * * * * * * * * * * * * * * * * * //

dimensions      [1 -1 -1 0 0 0 0];

internalField   nonuniform List<scalar> 
459
(
0.00155438
0.00173068
0.00179906
0.00190779
0.00202355
0.00213433
0.00221157
0.00224061
0.00220646
0.00205561
0.00191197
0.00175458
0.00158641
0.00143144
0.00126156
0.000710357
0.00084318
0.000979902
0.00108064
0.00112865
0.00111502
0.00104769
0.000972627
0.00090549
0.000847702
0.000798081
0.000755539
0.000718973
0.000687068
0.000658704
0.000632578
0.000606163
0.000576247
0.000530212
0.00200994
0.00541302
0.00544018
0.00629749
0.0070498
0.00760819
0.00805795
0.00839757
0.00859581
0.00846655
0.00800374
0.00734852
0.00637204
0.00495722
0.00326676
0.00143071
0.00120615
0.000680914
0.00133298
0.00274371
0.00362654
0.0042449
0.00427331
0.0029466
0.00243753
0.00210597
0.0018654
0.0016812
0.00153279
0.00140895
0.00130721
0.00121435
0.00111539
0.00101956
0.000971312
0.000564609
0.00238558
0.00745602
0.00683049
0.00758953
0.00796622
0.00822751
0.00848493
0.00886063
0.00930502
0.00950906
0.00938748
0.0090145
0.00840691
0.00728104
0.00566557
0.00359589
0.00135956
0.000701541
0.00154213
0.00268465
0.00406561
0.00513185
0.00507394
0.00139056
0.00121999
0.00107863
0.00096362
0.000869719
0.000791958
0.000726061
0.000668758
0.000621615
0.000695675
0.000820148
0.00102769
0.000580577
0.00274302
0.00929268
0.00741232
0.00802426
0.0080417
0.0079722
0.00802188
0.00842143
0.00899304
0.00938597
0.00947234
0.00929287
0.00891889
0.00823611
0.00711946
0.00544633
0.00293762
0.00147387
0.00156768
0.0023894
0.00385888
0.00547817
0.00665356
0.00642038
0.00158711
0.00145256
0.00134608
0.00125971
0.00118412
0.00111331
0.00104329
0.000970771
0.000890863
0.000818584
0.000802655
0.0010803
0.000604166
0.00310444
0.0115096
0.00864933
0.0087797
0.00838892
0.00788755
0.0077668
0.008179
0.00880565
0.00928435
0.00943223
0.00929354
0.0089934
0.00857262
0.00793836
0.00695609
0.00554066
0.00494186
0.00550851
0.00657533
0.00778953
0.008788
0.00934614
0.00923711
0.00775344
0.00686042
0.00626121
0.00568031
0.00508015
0.00445518
0.00379894
0.00310648
0.00238869
0.0017234
0.0012546
0.00118809
0.000740844
0.000631368
0.000731513
0.000827251
0.00347691
0.0138931
0.0113576
0.010252
0.00888759
0.00793747
0.00772756
0.0081803
0.00889104
0.00942522
0.00957755
0.00943287
0.00919517
0.00903936
0.00890297
0.00867014
0.00838355
0.00869393
0.00969364
0.0106134
0.0112671
0.0115548
0.0114645
0.0110132
0.0102019
0.00937878
0.00856331
0.00773757
0.00689785
0.00603535
0.00514431
0.00422319
0.00329031
0.00241761
0.00175022
0.00139556
0.000975406
0.000804498
0.00110589
0.000868793
0.00376353
0.015217
0.0140656
0.0112308
0.00898102
0.00780616
0.00771077
0.00836256
0.00923131
0.00982606
0.00997935
0.00992549
0.0100118
0.0103421
0.0106398
0.0108987
0.0112579
0.0119521
0.0127417
0.0131679
0.0132209
0.0129268
0.0123496
0.0115774
0.0106971
0.0097955
0.00889659
0.00801853
0.00714712
0.00626427
0.00537959
0.00449263
0.00361927
0.00280789
0.0021623
0.00172796
0.00134461
0.00117709
0.00111099
0.000893054
0.00379275
0.0122165
0.0111512
0.00895836
0.00747764
0.00709146
0.00766155
0.00878164
0.0098652
0.010468
0.0106373
0.0110383
0.0117452
0.0121189
0.0124093
0.0127511
0.0131937
0.0136984
0.0140223
0.0139584
0.0135222
0.0127939
0.0118728
0.0108501
0.00982006
0.00884839
0.00793344
0.00706173
0.0062277
0.0054354
0.00469574
0.00401313
0.00338795
0.00282332
0.00232762
0.00207311
0.00191431
0.00190129
0.00247752
0.00135342
0.00367065
0.00425214
0.00445463
0.00448875
0.00506438
0.00640408
0.00816688
0.00983093
0.0108362
0.0111452
0.0116661
0.0122919
0.0126907
0.0128688
0.0130469
0.0132874
0.0135292
0.0136415
0.0134773
0.0129751
0.0121768
0.0111691
0.0100503
0.00892198
0.0078491
0.00684635
0.00588552
0.00494625
0.00404512
0.00323673
0.00258641
0.0021244
0.001834
0.00168221
0.00164142
0.00168804
0.00175989
0.00179767
0.00174872
0.00132886
0.00112273
0.00353824
0.00755811
0.0102323
0.0115794
0.0121167
0.0117806
0.0115207
0.0117182
0.0119012
0.0119311
0.0119568
0.0120272
0.0120798
0.0120078
0.0117035
0.0111123
0.0102608
0.00923976
0.00815963
0.00711546
0.00616412
0.00531258
0.00453742
0.00382046
0.00317093
0.00261834
0.00218968
0.0018902
0.00170389
0.00160943
0.00159003
0.00162885
0.00169805
0.00175142
0.00174217
0.00164364
0.00120511
0.00262414
0.0101285
0.0115634
0.0115035
0.0108599
0.0101325
0.00956491
0.0092168
0.00898484
0.00881323
0.00872723
0.0087118
0.00870775
0.00864276
0.0084483
0.00808002
0.00754536
0.00690697
0.00625233
0.0056511
0.00513218
0.00468824
0.00429466
0.00392779
0.00357382
0.00322959
0.00289955
0.00259279
0.00232119
0.00209771
0.00193425
0.00183777
0.00180289
0.00180489
0.00181126
0.00184254
0.00208204
0.0012548
0.00223504
0.00239004
0.00250982
0.00267387
0.00235443
0.00215407
0.00199773
0.00185008
0.00172971
0.00164946
0.00160229
0.00157635
0.00156173
0.00155084
0.00153764
0.00151751
0.00148762
0.00144781
0.00140115
0.0013525
0.0013062
0.00126434
0.00122663
0.0011915
0.00115724
0.00112284
0.00108853
0.00105573
0.00102667
0.00100378
0.000989085
0.00098392
0.000989187
0.00100571
0.00103383
0.00107097
0.00111042
0.00110432
0.00105691
0.00106185
)
;

boundaryField
{
    floor
    {
        type            compressible::alphatWallFunction;
        Prt             0.85;
        value           nonuniform List<scalar> 
29
(
0.000178598
0.000100722
0.000119995
0.000139458
0.000153597
0.00016029
0.0001584
0.000149006
0.000138449
0.000128925
0.00012066
0.000113511
0.000107339
0.000102002
9.73184e-05
9.31328e-05
8.92585e-05
8.53214e-05
8.08361e-05
7.38777e-05
7.38768e-05
7.90782e-05
8.14773e-05
8.50136e-05
0.000178596
0.000100721
9.63908e-05
9.94205e-05
0.000207444
)
;
    }
    ceiling
    {
        type            compressible::alphatWallFunction;
        Prt             0.85;
        value           nonuniform List<scalar> 
43
(
0.000307573
0.000327453
0.000342723
0.000363625
0.000323042
0.000297285
0.000277004
0.000257691
0.000241823
0.00023118
0.000224899
0.000221438
0.000219485
0.000218029
0.000216263
0.000213562
0.000209544
0.000204178
0.000197867
0.000191262
0.000184952
0.000179225
0.000174049
0.000169211
0.000164475
0.000159705
0.000154929
0.000150345
0.000146268
0.000143047
0.000140973
0.00014024
0.000140978
0.0001433
0.000147244
0.000152437
0.000157936
0.000157097
0.000150489
0.000151197
0.000487431
0.000557942
0.000356949
)
;
    }
    sWall
    {
        type            compressible::alphatWallFunction;
        Prt             0.85;
        value           uniform 0.000306412;
    }
    nWall
    {
        type            compressible::alphatWallFunction;
        Prt             0.85;
        value           nonuniform List<scalar> 6(0.000117551 0.000123505 0.000126941 0.000170766 0.000177601 0.000150904);
    }
    sideWalls
    {
        type            empty;
    }
    glass1
    {
        type            compressible::alphatWallFunction;
        Prt             0.85;
        value           nonuniform List<scalar> 9(0.000212994 0.000272347 0.000320309 0.000365285 0.0004102 0.00045597 0.000490906 0.000494603 0.000480046);
    }
    glass2
    {
        type            compressible::alphatWallFunction;
        Prt             0.85;
        value           nonuniform List<scalar> 2(0.000189928 0.000186735);
    }
    sun
    {
        type            compressible::alphatWallFunction;
        Prt             0.85;
        value           nonuniform List<scalar> 
14
(
0.000218269
0.000241725
0.000250757
0.000265043
0.000280155
0.000294527
0.000304501
0.000308237
0.00030383
0.000284315
0.000265587
0.000244887
0.000222545
0.00020172
)
;
    }
    heatsource1
    {
        type            compressible::alphatWallFunction;
        Prt             0.85;
        value           nonuniform List<scalar> 3(8.91617e-05 0.000103921 0.000117804);
    }
    heatsource2
    {
        type            compressible::alphatWallFunction;
        Prt             0.85;
        value           nonuniform List<scalar> 4(0.000201788 0.000171144 0.000171143 0.000192138);
    }
    Table_master
    {
        type            compressible::alphatWallFunction;
        Prt             0.85;
        value           nonuniform List<scalar> 9(0.000196354 0.000173056 0.000153463 0.000137302 0.000123938 0.000112741 0.000103148 9.47178e-05 8.77147e-05);
    }
    Table_slave
    {
        type            compressible::alphatWallFunction;
        Prt             0.85;
        value           nonuniform List<scalar> 9(0.000222816 0.000204749 0.000190318 0.000178518 0.000168116 0.000158301 0.000148526 0.000138321 0.000126972);
    }
    inlet
    {
        type            fixedValue;
        value           uniform 1.94e-05;
    }
    outlet
    {
        type            zeroGradient;
    }
}


// ************************************************************************* //
