/*--------------------------------*- C++ -*----------------------------------*\
  =========                 |
  \\      /  F ield         | OpenFOAM: The Open Source CFD Toolbox
   \\    /   O peration     | Website:  https://openfoam.org
    \\  /    A nd           | Version:  6
     \\/     M anipulation  |
\*---------------------------------------------------------------------------*/
FoamFile
{
    version     2.0;
    format      ascii;
    class       volScalarField;
    location    "600";
    object      epsilon;
}
// * * * * * * * * * * * * * * * * * * * * * * * * * * * * * * * * * * * * * //

dimensions      [0 2 -3 0 0 0 0];

internalField   nonuniform List<scalar> 
459
(
0.00043138
0.000560645
0.000590297
0.000678574
0.000767517
0.000857038
0.000950559
0.00105159
0.00112932
0.0011673
0.00115069
0.00107334
0.000943458
0.00078613
0.000636757
3.63543e-05
6.74695e-05
9.42957e-05
9.05638e-05
8.0611e-05
6.93022e-05
5.72523e-05
4.69146e-05
3.8694e-05
3.2244e-05
2.71586e-05
2.31062e-05
1.98594e-05
1.72084e-05
1.49769e-05
1.3008e-05
1.11448e-05
9.97774e-06
7.57164e-06
0.00110271
0.00159803
0.000531498
0.000514255
0.00053789
0.000575559
0.000630145
0.000705004
0.000779133
0.000830771
0.000840117
0.000797961
0.000709113
0.000595819
0.000522864
0.000666868
0.000151298
4.7706e-05
0.000116578
0.000119083
0.000105718
8.83622e-05
7.28413e-05
6.43475e-05
5.21032e-05
4.14457e-05
3.29989e-05
2.6463e-05
2.14224e-05
1.75467e-05
1.45696e-05
1.23921e-05
1.10924e-05
1.05485e-05
2.50312e-05
1.7399e-05
0.00202221
0.00394829
0.000668646
0.000493165
0.00051419
0.000573664
0.000661379
0.000774549
0.000885007
0.000960258
0.000980038
0.000940162
0.000850113
0.000728116
0.000622894
0.000561569
0.000617844
0.000392733
0.00026706
0.000195223
0.000147313
0.000114034
9.43044e-05
0.00016766
0.000116125
8.33745e-05
6.19501e-05
4.74796e-05
3.74038e-05
3.02074e-05
2.49844e-05
2.12094e-05
1.61323e-05
1.34559e-05
4.49285e-05
2.71345e-05
0.00328887
0.00821733
0.00108153
0.00050648
0.000505845
0.000589761
0.000723911
0.000899007
0.001049
0.00113431
0.00114674
0.00109271
0.000986966
0.000840795
0.000705438
0.000603616
0.000573625
0.00109773
0.000599969
0.000353931
0.000233697
0.000166305
0.000125324
0.000106212
0.000239366
0.000181572
0.0001466
0.000123261
0.0001055
9.0661e-05
7.78209e-05
6.57334e-05
5.33569e-05
3.16614e-05
2.07137e-05
7.02563e-05
3.66784e-05
0.00503671
0.014635
0.0021742
0.000625629
0.000532233
0.000638698
0.000871036
0.00114593
0.00131815
0.00138451
0.00136562
0.00127905
0.00113743
0.000958137
0.000771047
0.000601696
0.000470744
0.000405222
0.000321098
0.000247322
0.000189742
0.000147072
0.00011656
9.72582e-05
9.40115e-05
8.7599e-05
8.11589e-05
7.48242e-05
6.81611e-05
6.10506e-05
5.40646e-05
4.75079e-05
4.15195e-05
3.31895e-05
2.53745e-05
5.16415e-05
4.06907e-05
6.92206e-05
0.000122563
0.000172801
0.0074672
0.0216842
0.00490549
0.00126117
0.000841098
0.000941131
0.0013853
0.00166916
0.00176633
0.00175444
0.00167524
0.00153855
0.00134565
0.00111029
0.000862055
0.000635276
0.000458842
0.000344053
0.000269019
0.000212289
0.000166735
0.000132103
0.000107679
9.2555e-05
8.58963e-05
8.3258e-05
8.1639e-05
7.9444e-05
7.56468e-05
6.93887e-05
6.06695e-05
5.16437e-05
4.34243e-05
3.60934e-05
3.12254e-05
4.01954e-05
4.18784e-05
5.24535e-05
0.00022598
0.000195812
0.0102745
0.0258856
0.0100473
0.0041248
0.00278662
0.00262078
0.00272957
0.00264965
0.00248594
0.00230423
0.00211193
0.00188744
0.00161269
0.0012963
0.000972399
0.000683081
0.0004646
0.000324496
0.000239813
0.000184145
0.000144022
0.000116166
9.88079e-05
9.01874e-05
8.83813e-05
9.03663e-05
9.35248e-05
9.6539e-05
9.83598e-05
9.73766e-05
9.04385e-05
7.96365e-05
6.90034e-05
5.99842e-05
5.62437e-05
6.23011e-05
7.85139e-05
0.000124926
0.00029261
0.000283521
0.0108953
0.028157
0.0157045
0.0107242
0.00804312
0.00627797
0.00494719
0.00403491
0.0034317
0.00301569
0.00267523
0.0023258
0.00192499
0.00148704
0.00106003
0.000693029
0.000433912
0.000280276
0.000193983
0.000147579
0.000118681
0.000101334
9.27685e-05
9.0941e-05
9.40945e-05
0.000100557
0.000109259
0.000119996
0.000132895
0.000147838
0.000163757
0.000172951
0.000181015
0.000199065
0.000237074
0.000352786
0.00064781
0.00123056
0.00367798
0.00109495
0.0100525
0.0167952
0.0133889
0.0101576
0.00781744
0.00624614
0.0052259
0.0045789
0.00414191
0.00376497
0.00334015
0.00281529
0.00219351
0.00156004
0.00100245
0.000555757
0.000314533
0.000203172
0.00014662
0.000115882
9.84928e-05
8.98002e-05
8.73657e-05
8.96163e-05
9.55296e-05
0.000104558
0.000116753
0.00013283
0.000154093
0.000182413
0.000220268
0.000271265
0.000341198
0.000446956
0.000603376
0.000817456
0.00106537
0.00128518
0.00145401
0.000912351
0.00376544
0.00580688
0.00657358
0.00662333
0.00639942
0.0060015
0.00539868
0.0046009
0.00367501
0.00268404
0.00165327
0.000921196
0.000507618
0.000283891
0.000177495
0.000127685
0.000102543
8.89795e-05
8.1872e-05
7.89582e-05
7.8953e-05
8.12016e-05
8.55089e-05
9.19976e-05
0.000101151
0.000113863
0.00013151
0.000156113
0.000190658
0.000239524
0.000307654
0.000401864
0.000525857
0.00066931
0.000795991
0.000855787
0.000816749
0.000523598
0.00284213
0.0063874
0.0071115
0.00586829
0.00526916
0.00462176
0.00373267
0.00278238
0.00193449
0.00126362
0.000765001
0.000442471
0.000265188
0.000176635
0.000136181
0.000118303
0.000110237
0.00010634
0.000104255
0.000103106
0.000102673
0.000103142
0.00010501
0.000108695
0.000114708
0.000123843
0.000137314
0.000156946
0.00018544
0.000226199
0.000283718
0.000362577
0.000463417
0.000578447
0.000665375
0.000759626
0.000752366
0.000553645
0.00200935
0.00239022
0.00268885
0.00333875
0.00300469
0.00261363
0.00237917
0.00210062
0.00174892
0.00136735
0.00100497
0.000698897
0.00046625
0.000308939
0.000214497
0.000160461
0.000128847
0.00010955
9.75311e-05
9.0235e-05
8.62657e-05
8.47984e-05
8.55081e-05
8.84184e-05
9.33142e-05
0.000100281
0.000109686
0.00012209
0.00013835
0.000159881
0.000187282
0.000221824
0.000265596
0.000321247
0.000391215
0.000487005
0.00052204
0.000483988
0.000401193
0.000324697
)
;

boundaryField
{
    floor
    {
        Cmu             0.09;
        kappa           0.41;
        E               9.8;
        type            epsilonWallFunction;
        value           nonuniform List<scalar> 
29
(
0.000636757
3.63543e-05
6.74695e-05
9.42957e-05
9.05638e-05
8.0611e-05
6.93022e-05
5.72523e-05
4.69146e-05
3.8694e-05
3.2244e-05
2.71586e-05
2.31062e-05
1.98594e-05
1.72084e-05
1.49769e-05
1.3008e-05
1.11448e-05
9.97774e-06
7.57164e-06
7.57164e-06
1.7399e-05
2.71345e-05
3.66784e-05
0.000636757
3.63543e-05
4.7706e-05
0.000392733
0.00109773
)
;
    }
    ceiling
    {
        Cmu             0.09;
        kappa           0.41;
        E               9.8;
        type            epsilonWallFunction;
        value           nonuniform List<scalar> 
43
(
0.00200935
0.00239022
0.00268885
0.00333875
0.00300469
0.00261363
0.00237917
0.00210062
0.00174892
0.00136735
0.00100497
0.000698897
0.00046625
0.000308939
0.000214497
0.000160461
0.000128847
0.00010955
9.75311e-05
9.0235e-05
8.62657e-05
8.47984e-05
8.55081e-05
8.84184e-05
9.33142e-05
0.000100281
0.000109686
0.00012209
0.00013835
0.000159881
0.000187282
0.000221824
0.000265596
0.000321247
0.000391215
0.000487005
0.00052204
0.000483988
0.000401193
0.000324697
0.0100525
0.0167952
0.00284213
)
;
    }
    sWall
    {
        Cmu             0.09;
        kappa           0.41;
        E               9.8;
        type            epsilonWallFunction;
        value           uniform 0.00200935;
    }
    nWall
    {
        Cmu             0.09;
        kappa           0.41;
        E               9.8;
        type            epsilonWallFunction;
        value           nonuniform List<scalar> 6(0.000172801 0.000195812 0.000283521 0.000523598 0.000553645 0.000324697);
    }
    sideWalls
    {
        type            empty;
    }
    glass1
    {
        Cmu             0.09;
        kappa           0.41;
        E               9.8;
        type            epsilonWallFunction;
        value           nonuniform List<scalar> 9(0.00043138 0.00110271 0.00202221 0.00328887 0.00503671 0.0074672 0.0102745 0.0108953 0.0100525);
    }
    glass2
    {
        Cmu             0.09;
        kappa           0.41;
        E               9.8;
        type            epsilonWallFunction;
        value           nonuniform List<scalar> 2(0.00109495 0.000912351);
    }
    sun
    {
        Cmu             0.09;
        kappa           0.41;
        E               9.8;
        type            epsilonWallFunction;
        value           nonuniform List<scalar> 
14
(
0.00043138
0.000560645
0.000590297
0.000678574
0.000767517
0.000857038
0.000950559
0.00105159
0.00112932
0.0011673
0.00115069
0.00107334
0.000943458
0.00078613
)
;
    }
    heatsource1
    {
        Cmu             0.09;
        kappa           0.41;
        E               9.8;
        type            epsilonWallFunction;
        value           nonuniform List<scalar> 3(6.92206e-05 0.000122563 0.000172801);
    }
    heatsource2
    {
        Cmu             0.09;
        kappa           0.41;
        E               9.8;
        type            epsilonWallFunction;
        value           nonuniform List<scalar> 4(0.000666868 0.000151298 0.000151298 0.000617844);
    }
    Table_master
    {
        Cmu             0.09;
        kappa           0.41;
        E               9.8;
        type            epsilonWallFunction;
        value           nonuniform List<scalar> 9(0.00016766 0.000116125 8.33745e-05 6.19501e-05 4.74796e-05 3.74038e-05 3.02074e-05 2.49844e-05 2.12094e-05);
    }
    Table_slave
    {
        Cmu             0.09;
        kappa           0.41;
        E               9.8;
        type            epsilonWallFunction;
        value           nonuniform List<scalar> 9(0.000239366 0.000181572 0.0001466 0.000123261 0.0001055 9.0661e-05 7.78209e-05 6.57334e-05 5.33569e-05);
    }
    inlet
    {
        type            turbulentMixingLengthDissipationRateInlet;
        mixingLength    0.01;
        phi             phi;
        k               k;
        value           uniform 0.000101881;
    }
    outlet
    {
        type            zeroGradient;
    }
}


// ************************************************************************* //
