/*--------------------------------*- C++ -*----------------------------------*\
  =========                 |
  \\      /  F ield         | OpenFOAM: The Open Source CFD Toolbox
   \\    /   O peration     | Website:  https://openfoam.org
    \\  /    A nd           | Version:  6
     \\/     M anipulation  |
\*---------------------------------------------------------------------------*/
FoamFile
{
    version     2.0;
    format      ascii;
    class       surfaceScalarField;
    location    "220";
    object      phi;
}
// * * * * * * * * * * * * * * * * * * * * * * * * * * * * * * * * * * * * * //

dimensions      [1 0 -1 0 0 0 0];

internalField   nonuniform List<scalar> 
852
(
-0.00262429
0.00265944
-0.00378879
0.00116445
-0.00453104
0.000742204
-0.00491096
0.00037987
-0.00488641
-2.45977e-05
-0.00440619
-0.000480264
-0.00347968
-0.000926556
-0.00222787
-0.00125185
-0.000853309
-0.00137461
0.000378753
-0.00123212
0.00125881
-0.000880122
0.00176689
-0.000508138
0.00185563
-8.87983e-05
0.00140815
0.000447412
0.00140379
-0.000177495
0.000170707
-0.000622071
0.000444465
-0.000392164
-0.000230012
0.000186634
-0.000578901
0.00075172
-0.00056519
0.00120093
-0.000449313
0.00147074
-0.000269919
0.00160191
-0.000131282
0.00167906
-7.72621e-05
0.00173299
-5.40425e-05
0.00176989
-3.70106e-05
0.00179114
-2.13579e-05
0.00179212
-1.09675e-06
0.0017577
3.43014e-05
0.00165366
0.000103916
0.00142141
0.000232129
0.00100009
0.000421198
0.000203032
0.000796935
0.000193695
-0.00192305
0.00467959
-0.00295498
0.00219633
-0.00368453
0.00147171
-0.00407112
0.000766424
-0.00406307
-3.26887e-05
-0.0036209
-0.00092248
-0.00278555
-0.00176194
-0.00172189
-0.00231556
-0.000626065
-0.00247049
0.000333386
-0.00219164
0.0010851
-0.0016319
0.00157734
-0.00100045
0.00183361
-0.000345137
0.00195883
0.000322126
0.00237395
0.000988605
0.00124362
0.00113021
0.0012435
-0.000190435
0.000346102
8.10321e-05
0.000172888
0.000547482
-0.000696562
0.000921695
-0.000953213
0.00124966
-0.000893253
0.00150785
-0.00070761
0.00157414
-0.00033631
0.00158976
-0.000147015
0.00160517
-9.27735e-05
0.00161814
-6.71198e-05
0.00162751
-4.64952e-05
0.00163419
-2.8149e-05
0.00163606
-3.08251e-06
0.00162641
4.38386e-05
0.00157124
0.000158966
0.00136328
0.000439968
0.00101827
0.000766083
0.00063399
0.00118109
0.000804016
-0.00137407
0.00620509
-0.00220901
0.00303123
-0.00284947
0.00211213
-0.00319161
0.00110853
-0.00316925
-5.50935e-05
-0.00272235
-0.00136941
-0.00193647
-0.00254785
-0.00102196
-0.0032301
-0.000148621
-0.00334387
0.000589531
-0.00292985
0.00117747
-0.00221991
0.00159247
-0.00141552
0.00185134
-0.000604083
0.00199082
0.000182578
0.00203035
0.000949
0.00153872
0.00162178
0.00278215
2.60251e-05
0.00029753
0.00109149
-0.000892671
0.00146134
-0.00106651
0.00162367
-0.00111564
0.00176069
-0.00103037
0.00195857
-0.000905599
0.00162231
0.00147534
0.00138261
0.00131554
0.00126908
0.00124097
0.00123793
0.0012818
0.0014408
0.0012476
0.000633047
0.00105154
0.000962009
0.000819676
0.00141283
0.00158805
-0.000964717
0.00736925
-0.00156843
0.0036349
-0.00200205
0.0025457
-0.00222308
0.00132952
-0.00209669
-0.000181523
-0.00158771
-0.00187842
-0.000859889
-0.00327569
-0.000126984
-0.00396303
0.000502465
-0.00397336
0.00101889
-0.00344634
0.00142776
-0.00262885
0.00172012
-0.00170796
0.0019156
-0.000799644
0.00205272
4.53753e-05
0.00218979
0.000811853
0.00239685
0.00141465
0.00339384
0.00178508
0.00247347
0.000897823
0.00274038
3.05387e-05
0.00243011
-0.000582484
0.00229897
-0.000935449
0.00218346
-0.00100023
0.00206612
-0.000913132
0.00185994
-0.000699524
0.00215264
-0.000292959
0.00225365
-0.00010128
0.00226614
-1.27582e-05
0.00221747
4.84003e-05
0.00211646
0.000100743
0.00196745
0.000148731
0.001767
0.000200176
0.00149744
0.000269276
0.00111193
0.000385229
0.00106774
0.000677107
0.00103144
0.000998181
0.00107843
0.00136572
0.00262133
-0.000671441
0.00828225
-0.00106313
0.00402655
-0.00115957
0.0026421
-0.00114037
0.00131028
-0.000755326
-0.000566603
-0.000153506
-0.00248027
0.000432346
-0.00386156
0.000906612
-0.00443732
0.00126246
-0.00432926
0.00152832
-0.00371227
0.00171186
-0.00281248
0.00182797
-0.00182415
0.00191093
-0.000882698
0.00200982
-5.35963e-05
0.00218845
0.000633142
0.00249331
0.00110971
0.00297352
0.0013048
0.00313082
0.000740448
0.00304604
0.000115244
0.00281342
-0.000349952
0.00252206
-0.000644181
0.00225518
-0.000733451
0.00201625
-0.000674305
0.0018213
-0.000504689
0.00177941
-0.000251188
0.00172649
-4.8488e-05
0.00163387
7.97392e-05
0.00151879
0.00016335
0.00139182
0.000227587
0.00125453
0.000285883
0.00110661
0.00034796
0.000951295
0.00042446
0.000814345
0.000522044
0.000813214
0.000678104
0.000995185
0.000816077
0.00164599
0.000714788
0.00280207
0.00146511
0.00134063
0.0014611
-0.000183507
0.0015238
-0.000239174
-0.000548957
0.00910925
-0.000731497
0.00420904
-0.000325475
0.00223603
0.00020839
0.000776364
0.000902558
-0.00126081
0.00148297
-0.00306069
0.00183875
-0.00421735
0.00202179
-0.00462038
0.00206346
-0.00437097
0.00200891
-0.00365779
0.00190164
-0.0027053
0.00178177
-0.00170439
0.00169562
-0.000796644
0.00168427
-4.2349e-05
0.00178866
0.000528665
0.00201936
0.000878932
0.00236863
0.000955441
0.00251589
0.000593107
0.0024682
0.000162844
0.00230293
-0.000184774
0.00205647
-0.000397817
0.00178981
-0.000466901
0.00153243
-0.000417053
0.00130871
-0.000281091
0.00114824
-9.08438e-05
0.00101955
8.00665e-05
0.000902439
0.00019671
0.000792218
0.000273432
0.000687658
0.000332006
0.000588788
0.000384613
0.000499171
0.000437435
0.000429037
0.000494452
0.00039801
0.000552931
0.000461661
0.000614313
0.000632111
0.000645491
0.000812301
0.000534464
0.000981254
0.00129602
0.000494158
0.00194806
-0.000374434
0.00239225
-0.000667845
-0.000468466
0.00988962
-0.000179613
0.00392014
0.000989815
0.00106655
0.00202074
-0.000254618
0.00281804
-0.00205813
0.00325009
-0.00349275
0.00332324
-0.00429051
0.00312379
-0.00442095
0.00274914
-0.00399638
0.00229231
-0.00320105
0.00183737
-0.00225047
0.00144289
-0.00131002
0.00116391
-0.00051778
0.00103449
8.69618e-05
0.00107492
0.000488134
0.00125561
0.000698151
0.0015077
0.000703266
0.00163216
0.000468548
0.00161438
0.00018052
0.00148125
-5.17496e-05
0.00127053
-0.00018722
0.00102575
-0.000222239
0.000777824
-0.000169266
0.000550116
-5.35214e-05
0.000371567
8.7562e-05
0.000245227
0.000206261
0.00015247
0.00028932
7.71529e-05
0.000348601
1.41318e-05
0.000394879
-3.53374e-05
0.000433933
-6.54244e-05
0.000467374
-6.64424e-05
0.000495322
-2.7569e-05
0.000513911
6.508e-05
0.000521521
0.000182932
0.000527499
0.000213229
0.00050403
0.000297621
0.00121149
6.31497e-05
0.0021824
-0.000160768
0.00261602
-0.000879284
0.00240982
0.00782994
0.00321177
0.00311815
0.00387062
0.000407658
0.00485929
-0.00124332
0.00532683
-0.00252567
0.00525324
-0.00341915
0.00474603
-0.00378329
0.00395788
-0.00363282
0.00304107
-0.00307965
0.00212019
-0.00228028
0.00131604
-0.00144647
0.000685476
-0.000679596
0.000282912
-0.000115344
0.000125005
0.000244753
0.000168885
0.000444147
0.000330819
0.000536114
0.000520084
0.000513896
0.00061713
0.00037139
0.000599266
0.000198264
0.000485472
6.19156e-05
0.000304825
-6.7089e-06
8.68019e-05
-4.35921e-06
-0.000132543
4.99301e-05
-0.000314921
0.000128704
-0.000437422
0.000209909
-0.000511683
0.000280367
-0.000557862
0.000335342
-0.000586321
0.000376905
-0.000599119
0.000407522
-0.000592863
0.000427522
-0.000561024
0.00043538
-0.000494969
0.000429113
-0.000388041
0.000406833
-0.000240673
0.000374003
-7.01434e-05
0.000356825
6.702e-05
0.000366726
0.000420747
0.000857629
0.000798253
0.00180475
0.00174887
0.00166526
0.000555471
0.00817912
0.0112616
0.0101924
0.00147678
0.00939845
-0.000449312
0.00834835
-0.00147553
0.00699138
-0.00206215
0.00544179
-0.00223372
0.00386666
-0.00205776
0.00239859
-0.00161171
0.0011078
-0.000989641
0.000116935
-0.000455758
-0.000519353
-4.34617e-05
-0.000818265
0.000183432
-0.000877869
0.000304232
-0.00080782
0.000373978
-0.000676019
0.00040419
-0.000546849
0.000384601
-0.000489058
0.000313465
-0.000520173
0.000229238
-0.000622938
0.000164532
-0.000765047
0.000135246
-0.000911659
0.000142093
-0.00103553
0.000173638
-0.00112298
0.000215991
-0.00117266
0.000259428
-0.00119112
0.000298658
-0.00118682
0.000330885
-0.00116457
0.00035449
-0.00112478
0.000367567
-0.00106484
0.000367414
-0.00098045
0.000350831
-0.000866517
0.00031502
-0.000719025
0.000259182
-0.000534802
0.000189625
-0.00030472
0.000126592
-4.11059e-05
0.000102964
0.000452917
0.000363464
0.00116393
0.00109359
0.00190242
0.000926622
0.0021217
0.00639411
0.00145108
0.00552542
0.00041942
0.00479154
-0.000741685
0.00373692
-0.00100762
0.00243394
-0.000930888
0.00109909
-0.00072308
-0.000120046
-0.000392767
-0.00104755
-6.23064e-05
-0.00160157
9.80944e-05
-0.00184853
0.00020334
-0.00190992
0.000244682
-0.00187675
0.000270916
-0.00179488
0.00029197
-0.00169589
0.000305058
-0.00161237
0.000300933
-0.00157481
0.000275751
-0.00158722
0.00024148
-0.00163443
0.000211584
-0.00169402
0.000194663
-0.00174511
0.000193016
-0.00177488
0.000203236
-0.0017791
0.000220036
-0.00175905
0.000239207
-0.00171832
0.000257751
-0.0016607
0.000273093
-0.00158905
0.000282671
-0.00150536
0.000283708
-0.00141129
0.000273178
-0.00130867
0.000248035
-0.00119967
0.000205855
-0.00108641
0.000145761
-0.000967124
7.01769e-05
-0.000832391
-8.30059e-06
-0.000704145
-2.5437e-05
-0.000571458
0.000230625
-0.000317576
0.00083956
-8.97593e-05
0.000698649
0.00197258
0.000716064
0.000699997
0.000893981
0.0002413
0.000317326
-0.000165256
-0.000454256
-0.000236271
-0.00124624
-0.000139103
-0.00195574
-1.37639e-05
-0.00245986
0.000111167
-0.00271285
0.000190511
-0.00283094
0.000216016
-0.00284831
0.000220551
-0.00281353
0.000209749
-0.0027449
0.00020212
-0.00265464
0.000201552
-0.0025547
0.000204959
-0.00246013
0.000206189
-0.00238557
0.000201022
-0.0023356
0.000191335
-0.00230525
0.000181057
-0.00228438
0.00017362
-0.0022622
0.000170657
-0.00223081
0.000171671
-0.00218616
0.000175209
-0.00212699
0.000179855
-0.00205366
0.000184244
-0.00196761
0.000186868
-0.00187123
0.000186114
-0.0017681
0.000180404
-0.00166353
0.000168427
-0.00156528
0.000149618
-0.00148445
0.000124848
-0.00143533
9.6475e-05
-0.00143182
6.6501e-05
-0.00147864
3.83489e-05
-0.00154212
3.7886e-05
-0.00146041
0.000148748
-0.00104341
0.0004224
-0.000902688
0.000557765
0.000994053
-0.00407823
-0.0043281
-0.00368612
-0.00350142
-0.00372422
-0.0040189
-0.00421832
-0.0042951
-0.00424967
-0.00412775
-0.00398261
-0.00383443
-0.00369795
-0.00356958
-0.00344201
-0.00331113
-0.0031791
-0.0030524
-0.00293563
-0.00282948
-0.00273112
-0.00263609
-0.00254034
-0.00244128
-0.00233771
-0.00222977
-0.00211914
-0.00200907
-0.00190441
-0.00181131
-0.00173652
-0.00168598
-0.00166344
-0.00167081
-0.00170665
-0.00174306
-0.00166712
-0.00131429
-0.000823712
)
;

boundaryField
{
    floor
    {
        type            calculated;
        value           nonuniform List<scalar> 
29
(
0
0
0
0
0
0
0
0
0
0
0
0
0
0
0
0
0
0
0
0
9.2015e-06
2.3536e-05
3.55083e-05
4.50203e-05
4.29108e-06
6.66556e-06
1.49204e-05
2.24329e-05
2.24762e-05
)
;
    }
    ceiling
    {
        type            calculated;
        value           nonuniform List<scalar> 
43
(
6.87813e-05
6.29453e-05
5.77446e-05
5.63593e-05
5.73393e-05
5.82202e-05
6.01285e-05
6.28343e-05
6.55572e-05
6.8417e-05
7.07021e-05
7.21966e-05
7.30932e-05
7.35752e-05
7.38004e-05
7.38989e-05
7.39834e-05
7.41361e-05
7.43861e-05
7.47162e-05
7.50825e-05
7.54367e-05
7.57394e-05
7.59649e-05
7.60979e-05
7.61302e-05
7.60551e-05
7.58664e-05
7.55609e-05
7.51455e-05
7.46483e-05
7.4139e-05
7.3755e-05
7.3696e-05
7.40239e-05
7.41155e-05
7.26423e-05
6.93951e-05
6.70192e-05
7.27673e-05
4.23583e-05
3.56289e-05
3.49322e-05
)
;
    }
    sWall
    {
        type            calculated;
        value           uniform -0.000150652;
    }
    nWall
    {
        type            calculated;
        value           nonuniform List<scalar> 6(5.52844e-05 5.40667e-05 5.05046e-05 5.91871e-05 7.56767e-05 9.74012e-05);
    }
    sideWalls
    {
        type            empty;
        value           nonuniform 0();
    }
    glass1
    {
        type            calculated;
        value           nonuniform List<scalar> 9(-3.51889e-05 -9.71397e-05 -0.000151473 -0.000199486 -0.000241597 -0.000278081 -0.000311938 -0.000350179 -0.000391573);
    }
    glass2
    {
        type            calculated;
        value           nonuniform List<scalar> 2(0.000313951 0.000336035);
    }
    sun
    {
        type            calculated;
        value           uniform 0;
    }
    heatsource1
    {
        type            calculated;
        value           nonuniform List<scalar> 3(2.01758e-07 2.0212e-07 2.02158e-07);
    }
    heatsource2
    {
        type            calculated;
        value           nonuniform List<scalar> 4(5.06838e-08 5.08403e-08 0 0);
    }
    Table_master
    {
        type            calculated;
        value           nonuniform List<scalar> 9(-1.51816e-07 -1.51976e-07 -1.52019e-07 -1.5204e-07 -1.52048e-07 -1.52045e-07 -1.52035e-07 -1.52002e-07 -1.51932e-07);
    }
    Table_slave
    {
        type            calculated;
        value           nonuniform List<scalar> 9(1.51575e-07 1.51588e-07 1.51566e-07 1.51548e-07 1.51547e-07 1.51563e-07 1.51596e-07 1.51647e-07 1.51722e-07);
    }
    inlet
    {
        type            calculated;
        value           uniform -0.00636836;
    }
    outlet
    {
        type            calculated;
        value           nonuniform List<scalar> 2(0.00415983 0.000186653);
    }
}


// ************************************************************************* //
