/*--------------------------------*- C++ -*----------------------------------*\
  =========                 |
  \\      /  F ield         | OpenFOAM: The Open Source CFD Toolbox
   \\    /   O peration     | Website:  https://openfoam.org
    \\  /    A nd           | Version:  6
     \\/     M anipulation  |
\*---------------------------------------------------------------------------*/
FoamFile
{
    version     2.0;
    format      ascii;
    class       volScalarField;
    location    "500";
    object      nut;
}
// * * * * * * * * * * * * * * * * * * * * * * * * * * * * * * * * * * * * * //

dimensions      [0 2 -1 0 0 0 0];

internalField   nonuniform List<scalar> 
459
(
0.000756939
0.000797882
0.000761106
0.000757516
0.000755795
0.000755127
0.000746007
0.000735343
0.000727785
0.000724864
0.000726536
0.000731881
0.00073955
0.000747629
0.000751066
0.000242835
0.000249161
0.000226367
0.00019768
0.000176599
0.000171857
0.000180639
0.000192758
0.000193466
0.00020348
0.000219739
0.000244219
0.000273729
0.00027733
0.00026985
0.000266953
0.000256613
0.000247934
0.000229526
0.0011844
0.00290196
0.00282235
0.00304558
0.00319983
0.00330217
0.00348372
0.00351583
0.00340208
0.00322923
0.00304193
0.00283895
0.00258173
0.00219054
0.00156798
0.000836335
0.000526107
0.000405329
0.000856941
0.000971432
0.000870616
0.000609614
0.000338086
0.000247369
0.000255683
0.000292328
0.000391604
0.000543003
0.000716702
0.000851564
0.000872127
0.000849171
0.00101361
0.000894137
0.000759892
0.000376232
0.00148431
0.00476525
0.00469152
0.00484174
0.00444453
0.00404166
0.00433592
0.00475044
0.00486329
0.00473009
0.00449447
0.00421264
0.00386523
0.00337313
0.00264847
0.00174821
0.000909858
0.000632848
0.00187851
0.00178081
0.00149931
0.00114033
0.000772382
0.000287432
0.000283046
0.00032553
0.000364319
0.000403264
0.000445766
0.000494889
0.000555713
0.000643707
0.00171611
0.00176725
0.00191211
0.000644943
0.00159812
0.00290363
0.00336762
0.0040597
0.00474349
0.00482482
0.00458035
0.00498249
0.00547881
0.00562118
0.00555941
0.00541619
0.00520281
0.00484418
0.00420671
0.00317054
0.00184315
0.000913097
0.00234873
0.00248642
0.00199399
0.00151073
0.0011248
0.000838053
0.000646373
0.000656149
0.000667519
0.000680369
0.000696906
0.000719252
0.000750059
0.000793723
0.000859033
0.00225414
0.00225143
0.00213241
0.000841005
0.00286205
0.00266743
0.00272361
0.00316118
0.0039778
0.00463223
0.00459644
0.0047822
0.00546009
0.00593088
0.00614475
0.00627399
0.00637214
0.00642265
0.00636835
0.00614061
0.00571275
0.00518273
0.00494335
0.00457958
0.0042276
0.00396309
0.00379812
0.00369801
0.00362762
0.00358221
0.00351421
0.00343731
0.00335564
0.00327235
0.00318943
0.00310648
0.00301658
0.00289982
0.0025612
0.00213469
0.00167595
0.00111619
0.00114365
0.00105626
0.00343052
0.00326035
0.00286036
0.00289738
0.00354338
0.00430933
0.00452779
0.00446488
0.00505601
0.00567668
0.00608998
0.00645348
0.00680474
0.00712359
0.00736733
0.00747293
0.00738235
0.00709808
0.00674317
0.00641236
0.00614273
0.00593137
0.00576409
0.00563137
0.00550983
0.00539109
0.00526843
0.00513962
0.00500458
0.00486438
0.00472025
0.00457323
0.00442357
0.00426844
0.00410338
0.00395016
0.00383953
0.00380087
0.00380673
0.00133038
0.0039808
0.00408749
0.00329028
0.00285905
0.00336243
0.00419435
0.00450949
0.00442394
0.00459436
0.005095
0.00550469
0.0059815
0.00652938
0.00708248
0.00758025
0.00795448
0.00813678
0.00811016
0.00794607
0.00773267
0.00751814
0.00731788
0.00713507
0.00696815
0.00681097
0.00665744
0.00650201
0.00634046
0.00617127
0.00599517
0.00581464
0.00563405
0.00545987
0.00529842
0.00515246
0.00502399
0.0049297
0.00497819
0.00545034
0.00154673
0.00462014
0.00527782
0.00467491
0.00298325
0.00352107
0.00448034
0.00475971
0.00462831
0.00458106
0.00465016
0.00483569
0.0052277
0.00579001
0.00645742
0.00715294
0.00777909
0.00823529
0.00847242
0.00853671
0.00849195
0.00838611
0.00824716
0.00809356
0.00793586
0.007778
0.00761864
0.00745371
0.00727907
0.00709222
0.00689237
0.0066803
0.00645866
0.0062325
0.00600887
0.00579704
0.00561517
0.00550609
0.00556123
0.0061783
0.00173834
0.00553941
0.0070676
0.011619
0.00386969
0.00354104
0.004875
0.00513885
0.00485259
0.00466283
0.00458008
0.00473219
0.00507153
0.00553581
0.00609473
0.0067226
0.00735594
0.00790727
0.00831427
0.00856964
0.00869949
0.008736
0.00870393
0.00862777
0.00852465
0.00840486
0.00827206
0.00812581
0.00796461
0.00778699
0.00759177
0.00737814
0.00714598
0.00689624
0.00663103
0.00635443
0.00607809
0.00584078
0.00574957
0.00595861
0.00169734
0.0196781
0.0107618
0.00361819
0.00488901
0.00524954
0.00514087
0.00508058
0.00517871
0.0054779
0.00592681
0.00644429
0.00695711
0.00742026
0.00781911
0.00815572
0.00843779
0.00866353
0.00883112
0.00894159
0.00899298
0.00899878
0.00896885
0.00890875
0.00882171
0.00871102
0.00857945
0.00842855
0.00825842
0.00806791
0.00785515
0.00761818
0.00735565
0.00706714
0.00675218
0.00640742
0.00601241
0.00534778
0.00157501
0.00809181
0.0107384
0.00720301
0.00556567
0.00490188
0.00470472
0.00482803
0.00521527
0.00581507
0.00654196
0.00728049
0.00791195
0.00835181
0.00862965
0.00880225
0.0089168
0.00899995
0.00906389
0.00911336
0.00914888
0.00917026
0.00917599
0.00915656
0.00910719
0.00903381
0.00894205
0.00883566
0.00871617
0.00858319
0.00843477
0.0082677
0.00807736
0.00785697
0.00759603
0.00727458
0.00682786
0.00578353
0.00186703
0.00112487
0.0015425
0.00464675
0.00429024
0.00381603
0.00337604
0.00301974
0.0027344
0.00250662
0.0023311
0.0022065
0.0021315
0.0021
0.00210054
0.00212015
0.00214107
0.00215503
0.00216028
0.00215837
0.00215153
0.00214162
0.00213007
0.00211744
0.00210405
0.00209069
0.00207749
0.00206365
0.0020489
0.00203326
0.0020168
0.00199961
0.00198166
0.00196283
0.00194284
0.00192108
0.00189643
0.00186678
0.00182608
0.0017253
0.00149179
)
;

boundaryField
{
    floor
    {
        type            nutkWallFunction;
        Cmu             0.09;
        kappa           0.41;
        E               9.8;
        value           nonuniform List<scalar> 
29
(
9.0959e-05
2.54497e-05
2.63365e-05
2.31257e-05
1.9023e-05
1.59558e-05
1.52579e-05
1.6544e-05
1.83037e-05
1.84095e-05
1.98582e-05
2.21847e-05
2.56405e-05
2.9745e-05
3.02426e-05
2.92087e-05
2.88066e-05
2.73701e-05
2.61586e-05
2.3571e-05
2.35709e-05
4.35867e-05
7.79173e-05
0.000101822
9.0959e-05
2.54496e-05
4.74254e-05
7.64137e-05
0.000110463
)
;
    }
    ceiling
    {
        type            nutkWallFunction;
        Cmu             0.09;
        kappa           0.41;
        E               9.8;
        value           nonuniform List<scalar> 
43
(
0.000135465
0.00018322
0.00050944
0.000473505
0.000425246
0.000379945
0.000342832
0.000312789
0.000288576
0.000269761
0.000256314
0.000248181
0.000244752
0.000244803
0.000246925
0.000249187
0.000250692
0.000251251
0.000251036
0.000250286
0.000249204
0.000247944
0.000246567
0.000245105
0.000243647
0.000242205
0.000240693
0.000239081
0.00023737
0.00023557
0.000233688
0.000231722
0.000229659
0.000227465
0.000225077
0.000222366
0.000219101
0.000214612
0.00020346
0.000177348
0.00059794
0.000746713
0.000845201
)
;
    }
    sWall
    {
        type            nutkWallFunction;
        Cmu             0.09;
        kappa           0.41;
        E               9.8;
        value           uniform 0.000135483;
    }
    nWall
    {
        type            nutkWallFunction;
        Cmu             0.09;
        kappa           0.41;
        E               9.8;
        value           nonuniform List<scalar> 6(0.000127329 0.000158998 0.000183471 0.000186708 0.000219124 0.000177357);
    }
    sideWalls
    {
        type            empty;
    }
    glass1
    {
        type            nutkWallFunction;
        Cmu             0.09;
        kappa           0.41;
        E               9.8;
        value           nonuniform List<scalar> 9(9.16652e-05 0.000142372 0.00017665 0.000189437 0.000326385 0.000385694 0.000442139 0.000506747 0.000598133);
    }
    glass2
    {
        type            nutkWallFunction;
        Cmu             0.09;
        kappa           0.41;
        E               9.8;
        value           nonuniform List<scalar> 2(0.00020481 0.000200275);
    }
    sun
    {
        type            nutkWallFunction;
        Cmu             0.09;
        kappa           0.41;
        E               9.8;
        value           nonuniform List<scalar> 
14
(
9.1677e-05
9.66442e-05
9.21833e-05
9.17458e-05
9.15356e-05
9.14544e-05
9.03435e-05
8.90425e-05
8.81189e-05
8.77616e-05
8.7966e-05
8.86193e-05
8.95555e-05
9.05405e-05
)
;
    }
    heatsource1
    {
        type            nutkWallFunction;
        Cmu             0.09;
        kappa           0.41;
        E               9.8;
        value           nonuniform List<scalar> 3(0.000134333 0.000137521 0.000127331);
    }
    heatsource2
    {
        type            nutkWallFunction;
        Cmu             0.09;
        kappa           0.41;
        E               9.8;
        value           nonuniform List<scalar> 4(0.000101276 6.30095e-05 6.30095e-05 0.00011008);
    }
    Table_master
    {
        type            nutkWallFunction;
        Cmu             0.09;
        kappa           0.41;
        E               9.8;
        value           nonuniform List<scalar> 9(3.16398e-05 3.10072e-05 3.67944e-05 4.19935e-05 4.71426e-05 5.26904e-05 5.90208e-05 6.67532e-05 7.77606e-05);
    }
    Table_slave
    {
        type            nutkWallFunction;
        Cmu             0.09;
        kappa           0.41;
        E               9.8;
        value           nonuniform List<scalar> 9(7.80771e-05 7.92879e-05 8.06937e-05 8.2279e-05 8.43141e-05 8.70554e-05 9.08185e-05 9.61214e-05 0.00010399);
    }
    inlet
    {
        type            calculated;
        value           uniform 0.0196781;
    }
    outlet
    {
        type            calculated;
        value           nonuniform List<scalar> 2(0.00112487 0.0015425);
    }
}


// ************************************************************************* //
