/*--------------------------------*- C++ -*----------------------------------*\
  =========                 |
  \\      /  F ield         | OpenFOAM: The Open Source CFD Toolbox
   \\    /   O peration     | Website:  https://openfoam.org
    \\  /    A nd           | Version:  6
     \\/     M anipulation  |
\*---------------------------------------------------------------------------*/
FoamFile
{
    version     2.0;
    format      ascii;
    class       volScalarField;
    location    "1600";
    object      epsilon;
}
// * * * * * * * * * * * * * * * * * * * * * * * * * * * * * * * * * * * * * //

dimensions      [0 2 -3 0 0 0 0];

internalField   nonuniform List<scalar> 
459
(
0.000509456
0.000675666
0.000729847
0.000846317
0.000966041
0.00109117
0.00122965
0.00135584
0.00143865
0.00145557
0.00139401
0.00125339
0.00104334
0.000780553
0.000511111
4.64921e-05
8.13394e-05
0.000123938
0.000134547
0.000125915
0.000111481
9.14521e-05
7.34835e-05
5.9381e-05
4.85643e-05
4.02205e-05
3.37065e-05
2.85311e-05
2.43977e-05
2.09794e-05
1.80108e-05
1.52342e-05
1.28822e-05
9.2927e-06
0.00121621
0.00167215
0.000637413
0.000628915
0.000666992
0.000730254
0.000824026
0.000931115
0.00101778
0.00105438
0.00102768
0.000940255
0.000808017
0.000650237
0.000519475
0.000657323
0.000200752
5.057e-05
0.000127246
0.000147996
0.000142665
0.000127106
0.000110245
0.000102981
8.2564e-05
6.42758e-05
5.00011e-05
3.9198e-05
3.10608e-05
2.48778e-05
2.02103e-05
1.67491e-05
1.45867e-05
1.35344e-05
2.26887e-05
1.70603e-05
0.00214253
0.00387502
0.000758041
0.000598224
0.000641969
0.000741649
0.000885274
0.00103997
0.0011554
0.00120055
0.00117326
0.00108083
0.000946194
0.000786024
0.000656922
0.000602089
0.000775711
0.000327146
0.000274099
0.000231329
0.000193521
0.000160705
0.000140658
0.00026752
0.000179016
0.000123878
8.87635e-05
6.57223e-05
5.01383e-05
3.9309e-05
3.16914e-05
2.63746e-05
1.96503e-05
1.59153e-05
3.52644e-05
2.40816e-05
0.0033785
0.00786746
0.00115327
0.00061099
0.000644263
0.00079395
0.00102595
0.00123705
0.00136355
0.00139482
0.00134921
0.00123271
0.00107256
0.000902452
0.000757275
0.000669367
0.000661893
0.00123497
0.00071938
0.000459085
0.000323628
0.000243344
0.000191155
0.000166672
0.000389561
0.000286872
0.000223071
0.000179575
0.000147798
0.000122941
0.000101971
8.31531e-05
6.50773e-05
3.72703e-05
2.31497e-05
4.99438e-05
3.1048e-05
0.00505735
0.0139357
0.00223232
0.000750132
0.000712759
0.000955327
0.00135472
0.00158933
0.00167962
0.00166663
0.00157869
0.00142436
0.00122129
0.000999259
0.000793942
0.000632542
0.000529059
0.000491802
0.00041899
0.000348347
0.000287586
0.000235982
0.000192894
0.000160711
0.000151963
0.000137005
0.000122307
0.000108356
9.52289e-05
8.27614e-05
7.09168e-05
5.9874e-05
4.9743e-05
3.76826e-05
2.71762e-05
4.06421e-05
3.23306e-05
5.64551e-05
0.000103884
0.000146769
0.00738224
0.0207413
0.0050121
0.00149765
0.00121508
0.00173432
0.00209015
0.00218862
0.00215789
0.00206313
0.00191014
0.00169197
0.00141781
0.00112086
0.000845755
0.000629782
0.000489007
0.000414214
0.000365912
0.000320865
0.000274132
0.000228807
0.000188431
0.000156308
0.000135762
0.000122538
0.000112351
0.00010259
9.22906e-05
8.11063e-05
6.9418e-05
5.80305e-05
4.77248e-05
3.85865e-05
3.20205e-05
3.51854e-05
3.43345e-05
4.32355e-05
0.000190586
0.00016415
0.0100054
0.0248527
0.0102754
0.00478738
0.00380509
0.00371295
0.00344075
0.00313577
0.00286639
0.00262496
0.00236437
0.00204509
0.00166757
0.00127163
0.000914298
0.000646053
0.000480487
0.000394384
0.000343666
0.000299051
0.000253474
0.000210408
0.000173882
0.000146584
0.000129611
0.000120305
0.000114354
0.000109141
0.000103531
9.63711e-05
8.68374e-05
7.63608e-05
6.60294e-05
5.6875e-05
5.238e-05
5.50806e-05
6.55387e-05
9.94191e-05
0.000234209
0.000229508
0.0105607
0.0263485
0.0151601
0.0107084
0.00825879
0.00637815
0.00509328
0.00427158
0.00374535
0.00335143
0.00295336
0.00247997
0.00194368
0.00140623
0.000941245
0.000623532
0.000445601
0.000357485
0.000304062
0.000259302
0.000217839
0.000182446
0.000155299
0.000137079
0.000127049
0.000122961
0.000122393
0.000124221
0.000128301
0.00013462
0.000141803
0.000147006
0.000153491
0.000165985
0.000193635
0.000278244
0.000493051
0.000930674
0.00294567
0.000899898
0.00974972
0.0161051
0.0127998
0.00982212
0.00768641
0.00633852
0.00553546
0.00505627
0.0046938
0.00426788
0.00366156
0.00288788
0.00207703
0.00134547
0.000758071
0.000487343
0.000360077
0.00029453
0.000251568
0.000216457
0.00018634
0.000162154
0.000144545
0.000133256
0.000127424
0.000125918
0.000128043
0.000134005
0.000144763
0.000161829
0.000187218
0.000224597
0.000279517
0.000364472
0.00049216
0.000672199
0.000890355
0.00109631
0.00125487
0.000787642
0.00307915
0.00483469
0.00634956
0.00680397
0.0068377
0.00651259
0.00578821
0.00470277
0.00331573
0.00202245
0.0012171
0.000739888
0.000475932
0.000346088
0.000280316
0.000242517
0.000215918
0.000194547
0.000176938
0.00016259
0.000150979
0.00014156
0.000133968
0.000128104
0.000124725
0.000125225
0.000131111
0.000144069
0.000166463
0.000201363
0.000253407
0.000328621
0.000431426
0.000556488
0.000677207
0.000750409
0.000747567
0.000503863
0.00238344
0.00684714
0.00751995
0.00642543
0.00554148
0.00456591
0.00349026
0.00249965
0.00168456
0.00107322
0.000696377
0.000486015
0.000377988
0.000326786
0.000303498
0.000293131
0.000288025
0.000284444
0.000280526
0.000275112
0.000267408
0.000257088
0.000244368
0.000230244
0.000216221
0.000204261
0.00019661
0.00019558
0.00020352
0.000223143
0.000258118
0.000312222
0.000386415
0.000473986
0.000546991
0.00063514
0.000725073
0.000548896
0.00255857
0.00243195
0.00258818
0.00339113
0.00314286
0.00291497
0.00269839
0.0023504
0.00191545
0.00147812
0.00109643
0.000799897
0.000598329
0.000472555
0.000394289
0.00034275
0.000305874
0.000277294
0.000253919
0.000234334
0.000217709
0.000203391
0.000190947
0.000180273
0.000171637
0.000165527
0.00016264
0.000163668
0.00016915
0.000179557
0.000195492
0.000217895
0.000248193
0.000288306
0.000339733
0.000405986
0.000437448
0.000406605
0.000344171
0.000291999
)
;

boundaryField
{
    floor
    {
        Cmu             0.09;
        kappa           0.41;
        E               9.8;
        type            epsilonWallFunction;
        value           nonuniform List<scalar> 
29
(
0.000511111
4.64921e-05
8.13394e-05
0.000123938
0.000134547
0.000125915
0.000111481
9.14521e-05
7.34835e-05
5.9381e-05
4.85643e-05
4.02205e-05
3.37065e-05
2.85311e-05
2.43977e-05
2.09794e-05
1.80108e-05
1.52342e-05
1.28822e-05
9.2927e-06
9.2927e-06
1.70603e-05
2.40816e-05
3.1048e-05
0.000511111
4.64921e-05
5.057e-05
0.000327146
0.00123497
)
;
    }
    ceiling
    {
        Cmu             0.09;
        kappa           0.41;
        E               9.8;
        type            epsilonWallFunction;
        value           nonuniform List<scalar> 
43
(
0.00255857
0.00243195
0.00258818
0.00339113
0.00314286
0.00291497
0.00269839
0.0023504
0.00191545
0.00147812
0.00109643
0.000799897
0.000598329
0.000472555
0.000394289
0.00034275
0.000305874
0.000277294
0.000253919
0.000234334
0.000217709
0.000203391
0.000190947
0.000180273
0.000171637
0.000165527
0.00016264
0.000163668
0.00016915
0.000179557
0.000195492
0.000217895
0.000248193
0.000288306
0.000339733
0.000405986
0.000437448
0.000406605
0.000344171
0.000291999
0.00974972
0.0161051
0.00238344
)
;
    }
    sWall
    {
        Cmu             0.09;
        kappa           0.41;
        E               9.8;
        type            epsilonWallFunction;
        value           uniform 0.00255857;
    }
    nWall
    {
        Cmu             0.09;
        kappa           0.41;
        E               9.8;
        type            epsilonWallFunction;
        value           nonuniform List<scalar> 6(0.000146769 0.00016415 0.000229508 0.000503863 0.000548896 0.000291999);
    }
    sideWalls
    {
        type            empty;
    }
    glass1
    {
        Cmu             0.09;
        kappa           0.41;
        E               9.8;
        type            epsilonWallFunction;
        value           nonuniform List<scalar> 9(0.000509456 0.00121621 0.00214253 0.0033785 0.00505735 0.00738224 0.0100054 0.0105607 0.00974972);
    }
    glass2
    {
        Cmu             0.09;
        kappa           0.41;
        E               9.8;
        type            epsilonWallFunction;
        value           nonuniform List<scalar> 2(0.000899898 0.000787642);
    }
    sun
    {
        Cmu             0.09;
        kappa           0.41;
        E               9.8;
        type            epsilonWallFunction;
        value           nonuniform List<scalar> 
14
(
0.000509456
0.000675666
0.000729847
0.000846317
0.000966041
0.00109117
0.00122965
0.00135584
0.00143865
0.00145557
0.00139401
0.00125339
0.00104334
0.000780553
)
;
    }
    heatsource1
    {
        Cmu             0.09;
        kappa           0.41;
        E               9.8;
        type            epsilonWallFunction;
        value           nonuniform List<scalar> 3(5.64551e-05 0.000103884 0.000146769);
    }
    heatsource2
    {
        Cmu             0.09;
        kappa           0.41;
        E               9.8;
        type            epsilonWallFunction;
        value           nonuniform List<scalar> 4(0.000657323 0.000200752 0.000200752 0.000775711);
    }
    Table_master
    {
        Cmu             0.09;
        kappa           0.41;
        E               9.8;
        type            epsilonWallFunction;
        value           nonuniform List<scalar> 9(0.00026752 0.000179016 0.000123878 8.87635e-05 6.57223e-05 5.01383e-05 3.9309e-05 3.16914e-05 2.63746e-05);
    }
    Table_slave
    {
        Cmu             0.09;
        kappa           0.41;
        E               9.8;
        type            epsilonWallFunction;
        value           nonuniform List<scalar> 9(0.000389561 0.000286872 0.000223071 0.000179575 0.000147798 0.000122941 0.000101971 8.31531e-05 6.50773e-05);
    }
    inlet
    {
        type            turbulentMixingLengthDissipationRateInlet;
        mixingLength    0.01;
        phi             phi;
        k               k;
        value           uniform 0.000101881;
    }
    outlet
    {
        type            zeroGradient;
    }
}


// ************************************************************************* //
