/*--------------------------------*- C++ -*----------------------------------*\
  =========                 |
  \\      /  F ield         | OpenFOAM: The Open Source CFD Toolbox
   \\    /   O peration     | Website:  https://openfoam.org
    \\  /    A nd           | Version:  6
     \\/     M anipulation  |
\*---------------------------------------------------------------------------*/
FoamFile
{
    version     2.0;
    format      ascii;
    class       volScalarField;
    location    "700";
    object      alphat;
}
// * * * * * * * * * * * * * * * * * * * * * * * * * * * * * * * * * * * * * //

dimensions      [1 -1 -1 0 0 0 0];

internalField   nonuniform List<scalar> 
459
(
0.000756725
0.00078232
0.000714435
0.000736138
0.000761242
0.000785472
0.000808945
0.000832383
0.000856939
0.000880286
0.000900527
0.000916885
0.000928741
0.000935328
0.000932373
0.000269807
0.00026931
0.000261068
0.000251171
0.000245329
0.000243529
0.000247389
0.000260623
0.000275287
0.000288187
0.000296645
0.000297117
0.000294628
0.000296765
0.000305704
0.000322583
0.000332722
0.000363102
0.000293948
0.00128442
0.00243943
0.001902
0.00260321
0.00288127
0.00311071
0.00332277
0.00350256
0.00362774
0.00370815
0.00372691
0.003649
0.00341366
0.00291487
0.00203428
0.00101559
0.000621459
0.000386986
0.00114452
0.00112363
0.000961859
0.000812548
0.000725638
0.000708081
0.000802902
0.000906697
0.000987762
0.00103683
0.00104736
0.00104874
0.00107878
0.00117678
0.00139552
0.00135845
0.0014734
0.000491673
0.00177294
0.00419907
0.00210296
0.00356271
0.0043573
0.00469398
0.00493578
0.00512077
0.00524605
0.00532238
0.00534276
0.00526978
0.00503286
0.00451336
0.00357455
0.00227234
0.00106139
0.0006282
0.0016512
0.00136059
0.000985835
0.000715684
0.000513714
0.000343493
0.000363203
0.000386494
0.000411374
0.000439667
0.000474307
0.000518859
0.000580213
0.000670002
0.00186311
0.00199599
0.00228601
0.00066677
0.00225124
0.00652826
0.00283889
0.00352275
0.00487841
0.00538828
0.00567102
0.00587357
0.00601994
0.00613898
0.00625855
0.00635353
0.00636046
0.00615721
0.00554739
0.004307
0.00245709
0.000992578
0.00230116
0.0027457
0.00225058
0.00173972
0.00131627
0.000948372
0.000658383
0.000649925
0.000645175
0.000643677
0.000646694
0.000655944
0.000674097
0.000705991
0.000761408
0.00211577
0.00211997
0.0020231
0.00078342
0.0027058
0.00913654
0.00474512
0.00371706
0.00466896
0.00532953
0.00573455
0.00600427
0.00617143
0.00633325
0.00655997
0.0068546
0.00719024
0.00749623
0.00766058
0.0075652
0.00714924
0.00646323
0.00598815
0.00541116
0.00494884
0.00462464
0.00436205
0.00411559
0.00389227
0.00374122
0.0035993
0.00345756
0.00331292
0.00316482
0.00301664
0.00287667
0.00275124
0.00263504
0.00232478
0.00199264
0.00167388
0.000903888
0.000838029
0.000698334
0.00313367
0.011539
0.00795001
0.00555208
0.0049641
0.00509526
0.00546991
0.00581768
0.00598876
0.00614795
0.00638118
0.00673222
0.00721942
0.00779871
0.00834945
0.00870391
0.00873158
0.00839265
0.00783998
0.0072559
0.0067748
0.0063992
0.00610106
0.0058527
0.00563104
0.00542608
0.00523225
0.00504478
0.00485572
0.00465282
0.00442003
0.00414161
0.00380746
0.00341195
0.0029624
0.00252453
0.00216052
0.00183043
0.00146952
0.000739503
0.0034854
0.0129341
0.0111582
0.00862556
0.00702129
0.00614881
0.00590891
0.00597328
0.00602079
0.00606394
0.00616203
0.0063773
0.00677169
0.00736825
0.00809421
0.00870968
0.00902024
0.00897158
0.00864738
0.00820677
0.00777406
0.00739271
0.0070688
0.00679192
0.00654627
0.00632224
0.00611794
0.00593216
0.00576164
0.00559867
0.00542844
0.00522617
0.00495521
0.00456964
0.0040374
0.00339502
0.00278463
0.00235686
0.00202217
0.00131464
0.00350203
0.0113159
0.0103242
0.010121
0.00902887
0.00792223
0.00718779
0.00674512
0.00645174
0.0062483
0.00614315
0.00616907
0.00636834
0.0067744
0.00736375
0.00799834
0.00848369
0.00869394
0.00863324
0.00839774
0.00809104
0.00777707
0.00748627
0.00722557
0.00699181
0.00678111
0.00659223
0.00642467
0.00627844
0.00615232
0.00604404
0.00594882
0.00585607
0.00573443
0.00550943
0.00505174
0.00427553
0.00353361
0.00317792
0.00153714
0.00334974
0.0038463
0.00893365
0.00979267
0.00922273
0.00839812
0.00764166
0.0070419
0.00659848
0.00628487
0.00610968
0.00608789
0.00621574
0.00647784
0.00684501
0.00726454
0.00765156
0.00791742
0.00802006
0.00797798
0.00784318
0.00766566
0.0074795
0.00729973
0.00713355
0.00698321
0.00684867
0.00672831
0.00662078
0.0065238
0.00643527
0.00635514
0.00628491
0.00622395
0.00616275
0.00607351
0.00589136
0.00549031
0.00498825
0.00167009
0.0200073
0.018375
0.0115323
0.0093534
0.00820469
0.00747093
0.006995
0.00671404
0.00659404
0.00659418
0.00667536
0.00679266
0.0069267
0.00707666
0.00723791
0.00739043
0.00750719
0.00756919
0.00758174
0.00756038
0.00752011
0.00746754
0.00741225
0.00735922
0.00730995
0.00726254
0.00721225
0.007155
0.00708916
0.00701451
0.00693088
0.00683696
0.00672851
0.00659392
0.00639777
0.00604139
0.00514674
0.00182206
0.00672259
0.0129418
0.010117
0.0085613
0.00769611
0.00721563
0.00698855
0.00694267
0.00702001
0.00716429
0.00732587
0.00747103
0.00758983
0.00768224
0.00775275
0.00780584
0.00784505
0.00787341
0.00789432
0.00791053
0.00792442
0.00793725
0.00795014
0.00796341
0.00797659
0.00798613
0.00797673
0.007943
0.0078881
0.00781361
0.00771743
0.00759299
0.00742851
0.00720495
0.00689004
0.00641588
0.00570475
0.00211236
0.00187861
0.00259233
0.00466069
0.00383463
0.00295399
0.00268009
0.0024363
0.00223435
0.00208321
0.00197681
0.00190703
0.00186588
0.00184579
0.00183976
0.00184116
0.00184569
0.00185066
0.00185458
0.00185672
0.00185702
0.00185574
0.00185343
0.00185067
0.00184799
0.0018455
0.00184323
0.00184108
0.00183879
0.00183695
0.00183459
0.00183057
0.00182441
0.0018158
0.00180412
0.00178817
0.00176569
0.0017327
0.00168319
0.00163777
0.00151931
)
;

boundaryField
{
    floor
    {
        type            compressible::alphatWallFunction;
        Prt             0.85;
        value           nonuniform List<scalar> 
29
(
0.000132919
3.27962e-05
3.27117e-05
3.13376e-05
2.96823e-05
2.87015e-05
2.83989e-05
2.90487e-05
3.12645e-05
3.3702e-05
3.58318e-05
3.72215e-05
3.72992e-05
3.68912e-05
3.7242e-05
3.87051e-05
4.14526e-05
4.30937e-05
4.797e-05
3.67855e-05
3.67849e-05
6.80919e-05
9.44614e-05
0.000111553
0.000132917
3.27957e-05
5.17678e-05
8.8723e-05
0.000141426
)
;
    }
    ceiling
    {
        type            compressible::alphatWallFunction;
        Prt             0.85;
        value           nonuniform List<scalar> 
43
(
0.0002617
0.000353611
0.000607075
0.000507578
0.000399043
0.000364649
0.000333711
0.000307831
0.000288297
0.000274454
0.000265332
0.000259936
0.000257296
0.000256503
0.000256687
0.000257282
0.000257935
0.00025845
0.00025873
0.000258769
0.0002586
0.000258296
0.000257932
0.000257578
0.00025725
0.000256951
0.000256666
0.000256364
0.00025612
0.000255809
0.000255278
0.000254466
0.000253331
0.000251792
0.000249687
0.000246718
0.000242354
0.000235789
0.000229747
0.000213904
0.000448252
0.000509069
0.000848435
)
;
    }
    sWall
    {
        type            compressible::alphatWallFunction;
        Prt             0.85;
        value           uniform 0.000260777;
    }
    nWall
    {
        type            compressible::alphatWallFunction;
        Prt             0.85;
        value           nonuniform List<scalar> 6(9.9014e-05 0.000105041 0.000185942 0.000253885 0.000291776 0.000213642);
    }
    sideWalls
    {
        type            empty;
    }
    glass1
    {
        type            compressible::alphatWallFunction;
        Prt             0.85;
        value           nonuniform List<scalar> 9(0.000105268 0.000178633 0.00024362 0.000305461 0.000363009 0.000416305 0.000459591 0.000461731 0.000443225);
    }
    glass2
    {
        type            compressible::alphatWallFunction;
        Prt             0.85;
        value           nonuniform List<scalar> 2(0.000215805 0.000233532);
    }
    sun
    {
        type            compressible::alphatWallFunction;
        Prt             0.85;
        value           nonuniform List<scalar> 
14
(
0.000107686
0.000111393
0.000101496
0.000104673
0.000108332
0.000111851
0.000115247
0.000118627
0.000122155
0.000125499
0.000128389
0.000130719
0.000132404
0.000133339
)
;
    }
    heatsource1
    {
        type            compressible::alphatWallFunction;
        Prt             0.85;
        value           nonuniform List<scalar> 3(0.000128807 0.000119378 9.90756e-05);
    }
    heatsource2
    {
        type            compressible::alphatWallFunction;
        Prt             0.85;
        value           nonuniform List<scalar> 4(0.000144615 8.7695e-05 8.7694e-05 0.000151037);
    }
    Table_master
    {
        type            compressible::alphatWallFunction;
        Prt             0.85;
        value           nonuniform List<scalar> 9(4.48239e-05 4.79811e-05 5.16831e-05 5.56057e-05 6.00298e-05 6.53969e-05 7.22277e-05 8.15162e-05 9.48954e-05);
    }
    Table_slave
    {
        type            compressible::alphatWallFunction;
        Prt             0.85;
        value           nonuniform List<scalar> 9(9.31807e-05 9.19275e-05 9.12229e-05 9.10006e-05 9.14482e-05 9.28196e-05 9.55038e-05 0.000100199 0.000108297);
    }
    inlet
    {
        type            fixedValue;
        value           uniform 1.94e-05;
    }
    outlet
    {
        type            zeroGradient;
    }
}


// ************************************************************************* //
