/*--------------------------------*- C++ -*----------------------------------*\
  =========                 |
  \\      /  F ield         | OpenFOAM: The Open Source CFD Toolbox
   \\    /   O peration     | Website:  https://openfoam.org
    \\  /    A nd           | Version:  6
     \\/     M anipulation  |
\*---------------------------------------------------------------------------*/
FoamFile
{
    version     2.0;
    format      ascii;
    class       volScalarField;
    location    "700";
    object      epsilon;
}
// * * * * * * * * * * * * * * * * * * * * * * * * * * * * * * * * * * * * * //

dimensions      [0 2 -3 0 0 0 0];

internalField   nonuniform List<scalar> 
459
(
0.000101091
0.000111463
8.48907e-05
9.28699e-05
0.000102703
0.000112829
0.000123253
0.000134282
0.000146522
0.000158827
0.000170032
0.000179456
0.000186491
0.000190464
0.000188633
4.52486e-06
4.4977e-06
4.09532e-06
3.64634e-06
3.39786e-06
3.32398e-06
3.48511e-06
4.07535e-06
4.80317e-06
5.51105e-06
6.01114e-06
6.04014e-06
5.88967e-06
6.01918e-06
6.58091e-06
7.73519e-06
8.49035e-06
1.10395e-05
5.86096e-06
0.000495214
0.00106361
0.000116064
6.93387e-05
6.99939e-05
7.42903e-05
7.94384e-05
8.55449e-05
9.31767e-05
0.000102134
0.00011216
0.000123522
0.000136593
0.000151796
0.000173748
0.000243738
5.57835e-05
1.33695e-05
1.23717e-05
1.13452e-05
9.82985e-06
8.91283e-06
8.48775e-06
8.41397e-06
1.02863e-05
1.24593e-05
1.43513e-05
1.5757e-05
1.688e-05
1.81343e-05
2.00242e-05
2.26504e-05
2.40099e-05
2.76147e-05
5.16391e-05
2.75144e-05
0.00130454
0.00369971
0.000328992
8.95226e-05
7.60505e-05
8.03072e-05
8.73905e-05
9.57398e-05
0.000105251
0.000115656
0.000126194
0.000136927
0.000148244
0.000160436
0.000174721
0.000200791
0.000278096
5.738e-05
3.1977e-05
2.12566e-05
1.74109e-05
1.57721e-05
1.42352e-05
9.37472e-06
1.10864e-05
1.33638e-05
1.61204e-05
1.96887e-05
2.4729e-05
3.23887e-05
4.53187e-05
6.98361e-05
5.05835e-05
6.88452e-05
0.000140489
6.88447e-05
0.00267479
0.00836906
0.000936069
0.00015988
0.000100748
0.000101051
0.000110032
0.000121651
0.000134724
0.000147829
0.000159177
0.00016909
0.00017862
0.000188021
0.000195636
0.000199145
0.000201668
0.000227208
5.97897e-05
4.13827e-05
3.48751e-05
3.58082e-05
4.0523e-05
4.94333e-05
6.64389e-05
6.39125e-05
6.2523e-05
6.20904e-05
6.29696e-05
6.57133e-05
7.13241e-05
8.19371e-05
0.000102788
6.04388e-05
7.69496e-05
0.000121409
0.000111979
0.00465063
0.0144492
0.00236301
0.000411355
0.000190636
0.000161782
0.000164502
0.000176642
0.000193668
0.000208504
0.000218139
0.000224667
0.00023143
0.0002399
0.000247067
0.000245091
0.000223957
0.000174271
0.000110313
7.53499e-05
6.17536e-05
5.7094e-05
5.55952e-05
5.4965e-05
5.39737e-05
5.1876e-05
5.02549e-05
4.92868e-05
4.91489e-05
5.01264e-05
5.2651e-05
5.73054e-05
6.44882e-05
7.30765e-05
8.8602e-05
0.000113521
0.000157532
0.000172176
0.0001372
7.93842e-05
0.00723303
0.0197923
0.00517032
0.00137055
0.00061894
0.000410763
0.000345216
0.000326525
0.000331789
0.000331252
0.000322468
0.000310882
0.000303187
0.000303315
0.000308796
0.000309245
0.000289619
0.000242327
0.000185434
0.000142447
0.000116696
0.000102142
9.4019e-05
8.90616e-05
8.51552e-05
8.16312e-05
7.87429e-05
7.6524e-05
7.50245e-05
7.44554e-05
7.52907e-05
7.84015e-05
8.50329e-05
9.61924e-05
0.000112331
0.00013446
0.000165513
0.000200434
0.000217334
9.4263e-05
0.00996357
0.0217659
0.00983394
0.00448964
0.00250204
0.00150484
0.00104132
0.000810519
0.000687449
0.000597309
0.000520429
0.000456082
0.000408128
0.000380042
0.000370873
0.000369241
0.000355605
0.000319281
0.00027009
0.000225039
0.000191702
0.000169233
0.000154881
0.000145679
0.000139187
0.00013418
0.000130265
0.0001272
0.000124824
0.000123195
0.000122764
0.00012457
0.0001304
0.000142447
0.000162655
0.000194041
0.000246333
0.000336869
0.000465863
0.000529966
0.0101236
0.0228453
0.0158968
0.0121519
0.00789268
0.00489901
0.00317862
0.00217825
0.00154269
0.00114668
0.000881035
0.000696881
0.000571001
0.000491018
0.000447953
0.00042942
0.000417095
0.000394758
0.000360286
0.000322897
0.000290483
0.000265663
0.000248181
0.000236493
0.000228644
0.000223224
0.000219432
0.000216705
0.000214498
0.000212542
0.000211149
0.000211275
0.000214632
0.000223678
0.000241654
0.000272967
0.000330638
0.000468789
0.000767036
0.000847543
0.00887917
0.0134237
0.0355271
0.0274166
0.017077
0.0104171
0.00646486
0.00413751
0.0027511
0.00188668
0.00134031
0.000995265
0.00077935
0.000648965
0.000575922
0.000539788
0.000522651
0.000509199
0.000491717
0.000470988
0.000450515
0.00043298
0.000419683
0.000410968
0.000405965
0.000403626
0.000403096
0.000403577
0.000403871
0.000403213
0.000401771
0.000400378
0.000400319
0.000403223
0.000411115
0.000425858
0.000445923
0.000483941
0.000802262
0.00108698
0.111239
0.0964732
0.026802
0.012529
0.00704123
0.00435104
0.00288156
0.00202846
0.00151905
0.00121252
0.00103359
0.000939442
0.000894313
0.000876026
0.000871055
0.000870949
0.000871098
0.000871254
0.000870769
0.000870027
0.000870182
0.00087376
0.000879974
0.000888083
0.000897474
0.0009073
0.000914778
0.000918448
0.000919055
0.000918044
0.00091683
0.000916437
0.000917058
0.000916743
0.000907715
0.000883736
0.00095832
0.00141144
0.0708151
0.041325
0.0165216
0.00859635
0.00530672
0.00370283
0.0028608
0.00241911
0.00220956
0.00213903
0.00214393
0.00217658
0.00221374
0.00224229
0.002257
0.00225803
0.00224975
0.00223756
0.0022278
0.00222445
0.00222899
0.00223968
0.00225549
0.00227498
0.00229692
0.00231957
0.00233575
0.00234156
0.00233838
0.0023285
0.00231305
0.00229116
0.00225939
0.00221072
0.00213624
0.00203177
0.00224716
0.0021993
0.00157651
0.00412339
0.0236387
0.0131764
0.00603057
0.00450951
0.00338909
0.00261472
0.00211934
0.00181094
0.00162584
0.00152281
0.00147411
0.00145963
0.00146291
0.00147363
0.00148547
0.00149479
0.0014998
0.00150035
0.00149705
0.00149124
0.00148434
0.00147763
0.0014714
0.00146571
0.00146027
0.00145455
0.00144987
0.001444
0.0014342
0.00141946
0.00139913
0.001372
0.00133561
0.00128555
0.00121451
0.00111302
0.00102491
0.000817712
)
;

boundaryField
{
    floor
    {
        Cmu             0.09;
        kappa           0.41;
        E               9.8;
        type            epsilonWallFunction;
        value           nonuniform List<scalar> 
29
(
0.000188633
4.52486e-06
4.4977e-06
4.09532e-06
3.64634e-06
3.39786e-06
3.32398e-06
3.48511e-06
4.07535e-06
4.80317e-06
5.51105e-06
6.01114e-06
6.04014e-06
5.88967e-06
6.01918e-06
6.58091e-06
7.73519e-06
8.49035e-06
1.10395e-05
5.86096e-06
5.86096e-06
2.75144e-05
6.88447e-05
0.000111979
0.000188633
4.52486e-06
1.33695e-05
5.738e-05
0.000227208
)
;
    }
    ceiling
    {
        Cmu             0.09;
        kappa           0.41;
        E               9.8;
        type            epsilonWallFunction;
        value           nonuniform List<scalar> 
43
(
0.00157651
0.00412339
0.0236387
0.0131764
0.00603057
0.00450951
0.00338909
0.00261472
0.00211934
0.00181094
0.00162584
0.00152281
0.00147411
0.00145963
0.00146291
0.00147363
0.00148547
0.00149479
0.0014998
0.00150035
0.00149705
0.00149124
0.00148434
0.00147763
0.0014714
0.00146571
0.00146027
0.00145455
0.00144987
0.001444
0.0014342
0.00141946
0.00139913
0.001372
0.00133561
0.00128555
0.00121451
0.00111302
0.00102491
0.000817712
0.00887917
0.0134237
0.0708151
)
;
    }
    sWall
    {
        Cmu             0.09;
        kappa           0.41;
        E               9.8;
        type            epsilonWallFunction;
        value           uniform 0.00157651;
    }
    nWall
    {
        Cmu             0.09;
        kappa           0.41;
        E               9.8;
        type            epsilonWallFunction;
        value           nonuniform List<scalar> 6(7.93842e-05 9.4263e-05 0.000529966 0.00141144 0.0021993 0.000817712);
    }
    sideWalls
    {
        type            empty;
    }
    glass1
    {
        Cmu             0.09;
        kappa           0.41;
        E               9.8;
        type            epsilonWallFunction;
        value           nonuniform List<scalar> 9(0.000101091 0.000495214 0.00130454 0.00267479 0.00465063 0.00723303 0.00996357 0.0101236 0.00887917);
    }
    glass2
    {
        Cmu             0.09;
        kappa           0.41;
        E               9.8;
        type            epsilonWallFunction;
        value           nonuniform List<scalar> 2(0.000847543 0.00108698);
    }
    sun
    {
        Cmu             0.09;
        kappa           0.41;
        E               9.8;
        type            epsilonWallFunction;
        value           nonuniform List<scalar> 
14
(
0.000101091
0.000111463
8.48907e-05
9.28699e-05
0.000102703
0.000112829
0.000123253
0.000134282
0.000146522
0.000158827
0.000170032
0.000179456
0.000186491
0.000190464
)
;
    }
    heatsource1
    {
        Cmu             0.09;
        kappa           0.41;
        E               9.8;
        type            epsilonWallFunction;
        value           nonuniform List<scalar> 3(0.000172176 0.0001372 7.93842e-05);
    }
    heatsource2
    {
        Cmu             0.09;
        kappa           0.41;
        E               9.8;
        type            epsilonWallFunction;
        value           nonuniform List<scalar> 4(0.000243738 5.57835e-05 5.57835e-05 0.000278096);
    }
    Table_master
    {
        Cmu             0.09;
        kappa           0.41;
        E               9.8;
        type            epsilonWallFunction;
        value           nonuniform List<scalar> 9(9.37472e-06 1.10864e-05 1.33638e-05 1.61204e-05 1.96887e-05 2.4729e-05 3.23887e-05 4.53187e-05 6.98361e-05);
    }
    Table_slave
    {
        Cmu             0.09;
        kappa           0.41;
        E               9.8;
        type            epsilonWallFunction;
        value           nonuniform List<scalar> 9(6.64389e-05 6.39125e-05 6.2523e-05 6.20904e-05 6.29696e-05 6.57133e-05 7.13241e-05 8.19371e-05 0.000102788);
    }
    inlet
    {
        type            turbulentMixingLengthDissipationRateInlet;
        mixingLength    0.01;
        phi             phi;
        k               k;
        value           uniform 3.77337e-06;
    }
    outlet
    {
        type            zeroGradient;
    }
}


// ************************************************************************* //
