/*--------------------------------*- C++ -*----------------------------------*\
  =========                 |
  \\      /  F ield         | OpenFOAM: The Open Source CFD Toolbox
   \\    /   O peration     | Website:  https://openfoam.org
    \\  /    A nd           | Version:  6
     \\/     M anipulation  |
\*---------------------------------------------------------------------------*/
FoamFile
{
    version     2.0;
    format      ascii;
    class       volScalarField;
    location    "570";
    object      epsilon;
}
// * * * * * * * * * * * * * * * * * * * * * * * * * * * * * * * * * * * * * //

dimensions      [0 2 -3 0 0 0 0];

internalField   nonuniform List<scalar> 
459
(
0.000260125
0.000334521
0.000351072
0.000403894
0.00045722
0.000511116
0.000567658
0.000630722
0.000685385
0.00072179
0.000729133
0.000698451
0.00062496
0.000509796
0.000372028
7.41875e-05
0.000176563
0.000152199
0.000129097
0.00011115
9.55522e-05
7.95543e-05
6.56515e-05
5.44563e-05
4.55927e-05
3.8575e-05
3.29288e-05
2.83059e-05
2.44331e-05
2.10792e-05
1.80181e-05
1.52164e-05
1.18982e-05
1.51726e-05
0.00067697
0.0010091
0.000310968
0.00029848
0.000309377
0.000328191
0.000357128
0.000399973
0.000447645
0.000488204
0.000508372
0.000498839
0.000457592
0.000392796
0.000332517
0.000426829
8.28914e-05
0.000185343
0.000380444
0.000195121
0.000134806
0.000103623
8.45723e-05
7.66747e-05
6.29641e-05
5.0833e-05
4.10627e-05
3.34027e-05
2.74204e-05
2.27286e-05
1.90809e-05
1.6555e-05
1.54962e-05
1.96274e-05
2.15598e-05
3.02013e-05
0.00126046
0.00253837
0.000387083
0.000278964
0.000284388
0.000310452
0.000352141
0.000410303
0.000475629
0.000530895
0.000562583
0.000563998
0.000534121
0.000479483
0.000416286
0.000367702
0.000386074
0.00035804
0.000258817
0.000183128
0.00013918
0.00011084
9.74478e-05
0.000198481
0.000135541
9.65258e-05
7.15198e-05
5.49116e-05
4.35151e-05
3.54896e-05
2.97915e-05
2.592e-05
2.05948e-05
2.19147e-05
2.95201e-05
3.95911e-05
0.00207699
0.00530549
0.000615374
0.000276874
0.000268288
0.000301458
0.000357831
0.000440829
0.000527673
0.000592208
0.000627173
0.00063154
0.000604113
0.000548586
0.000478011
0.00041197
0.000374192
0.000781295
0.000457952
0.000288365
0.000201329
0.000150969
0.000120426
0.000109534
0.000266348
0.000204044
0.000169875
0.000149314
0.000135054
0.000122719
0.000109242
9.64753e-05
8.25982e-05
5.03058e-05
3.59126e-05
5.08899e-05
5.63211e-05
0.0032106
0.00948191
0.00120331
0.000314155
0.000257991
0.000293936
0.000376451
0.000518815
0.000631633
0.000695703
0.000723561
0.000720642
0.000682239
0.000610388
0.000517254
0.000421957
0.000340895
0.000306867
0.000261051
0.000217354
0.000179706
0.000149564
0.000127255
0.000113232
0.00011461
0.000110784
0.000106836
0.00010278
9.79046e-05
9.14232e-05
8.28499e-05
7.3468e-05
6.44869e-05
5.31481e-05
4.25013e-05
5.52665e-05
5.9924e-05
8.24571e-05
7.82646e-05
6.83708e-05
0.00478892
0.0141106
0.00268722
0.000548928
0.000327148
0.00033797
0.000473673
0.000716962
0.000827998
0.000867906
0.000873902
0.000854437
0.000800608
0.000705822
0.000581216
0.000453966
0.000351016
0.000286756
0.000245809
0.00021378
0.000186637
0.000164381
0.000147757
0.000137286
0.000134071
0.000134363
0.000134715
0.000132944
0.000128188
0.000120252
0.00010917
9.4597e-05
7.98642e-05
6.65749e-05
5.50618e-05
5.50352e-05
6.21365e-05
6.91952e-05
0.000172901
0.000131011
0.00673705
0.0169769
0.00589307
0.00182385
0.00100517
0.000827039
0.00102782
0.00115026
0.00116538
0.00113723
0.00110036
0.00105384
0.00097551
0.000849489
0.000687374
0.000525484
0.000398368
0.000319669
0.000274312
0.000243882
0.000220914
0.000204195
0.000193928
0.000189953
0.000191457
0.000195096
0.000196371
0.000192633
0.000183604
0.000170963
0.000157029
0.000142721
0.000124401
0.000108661
9.7504e-05
9.19091e-05
9.35921e-05
0.000101352
0.000275118
0.00021494
0.0072974
0.020777
0.0107163
0.00642473
0.00406607
0.00290389
0.0023432
0.00196096
0.0016972
0.00152607
0.00142075
0.00133767
0.0012251
0.00105369
0.000839531
0.000635149
0.000481256
0.00039202
0.000345117
0.00031875
0.000303456
0.000295901
0.000295051
0.000299271
0.000305921
0.000310774
0.000308773
0.000296594
0.00027478
0.00024901
0.000228249
0.000218946
0.00022089
0.000225811
0.000248708
0.000286912
0.000349864
0.000428963
0.00159695
0.000425451
0.00683329
0.0118805
0.0098166
0.00728027
0.00537737
0.0040886
0.00318923
0.00257404
0.00218031
0.00195747
0.00183911
0.00174128
0.00158587
0.00134323
0.00105297
0.000806576
0.00063991
0.000566335
0.000535393
0.000523213
0.000520063
0.000523442
0.000532359
0.000544467
0.000555765
0.000560031
0.000549354
0.000516987
0.000462016
0.000394419
0.000334723
0.00030135
0.000301317
0.00033163
0.000390166
0.000483803
0.000614982
0.000781675
0.000964286
0.000523882
0.00461424
0.00618476
0.00485222
0.00390496
0.00325248
0.00284172
0.00263683
0.00256953
0.00254262
0.0024508
0.00221919
0.00186394
0.0014822
0.00127149
0.00117234
0.00114413
0.00114668
0.00115737
0.00116581
0.00117489
0.0011883
0.00120537
0.00122189
0.00122841
0.00120938
0.0011458
0.00102363
0.000848617
0.000661086
0.000516801
0.000429767
0.000394324
0.000413066
0.000483702
0.000596734
0.000729288
0.000884741
0.000886083
0.00294123
0.00431833
0.00388296
0.00369234
0.00386647
0.00408459
0.00432302
0.00457918
0.0047634
0.00475892
0.00446921
0.00402008
0.00355891
0.00326529
0.00312601
0.00308687
0.0030923
0.00310371
0.00310139
0.00309754
0.00310675
0.003135
0.00318279
0.00323921
0.00327482
0.00324049
0.00308142
0.00277237
0.00236056
0.00191454
0.00149698
0.00115817
0.000922455
0.00079105
0.000739499
0.000747683
0.00187064
0.00130062
0.00119279
0.00154411
0.00198717
0.00212778
0.00175887
0.00168632
0.00168811
0.00181137
0.00200408
0.00219681
0.00234677
0.00240887
0.0023577
0.00222895
0.00210328
0.00200638
0.00194118
0.00189823
0.00186544
0.00183623
0.00181483
0.00180019
0.00179056
0.00178437
0.00177589
0.00175466
0.00170721
0.00162274
0.00150235
0.00136675
0.00123053
0.0011035
0.000994622
0.000907763
0.000845331
0.000805317
0.000777451
0.000746191
0.00082037
0.000749163
)
;

boundaryField
{
    floor
    {
        Cmu             0.09;
        kappa           0.41;
        E               9.8;
        type            epsilonWallFunction;
        value           nonuniform List<scalar> 
29
(
0.000372028
7.41875e-05
0.000176563
0.000152199
0.000129097
0.00011115
9.55522e-05
7.95543e-05
6.56515e-05
5.44563e-05
4.55927e-05
3.8575e-05
3.29288e-05
2.83059e-05
2.44331e-05
2.10792e-05
1.80181e-05
1.52164e-05
1.18982e-05
1.51726e-05
1.51726e-05
3.02013e-05
3.95911e-05
5.63211e-05
0.000372028
7.41875e-05
0.000185343
0.00035804
0.000781295
)
;
    }
    ceiling
    {
        Cmu             0.09;
        kappa           0.41;
        E               9.8;
        type            epsilonWallFunction;
        value           nonuniform List<scalar> 
43
(
0.00119279
0.00154411
0.00198717
0.00212778
0.00175887
0.00168632
0.00168811
0.00181137
0.00200408
0.00219681
0.00234677
0.00240887
0.0023577
0.00222895
0.00210328
0.00200638
0.00194118
0.00189823
0.00186544
0.00183623
0.00181483
0.00180019
0.00179056
0.00178437
0.00177589
0.00175466
0.00170721
0.00162274
0.00150235
0.00136675
0.00123053
0.0011035
0.000994622
0.000907763
0.000845331
0.000805317
0.000777451
0.000746191
0.00082037
0.000749163
0.00683329
0.0118805
0.00294123
)
;
    }
    sWall
    {
        Cmu             0.09;
        kappa           0.41;
        E               9.8;
        type            epsilonWallFunction;
        value           uniform 0.00119279;
    }
    nWall
    {
        Cmu             0.09;
        kappa           0.41;
        E               9.8;
        type            epsilonWallFunction;
        value           nonuniform List<scalar> 6(6.83708e-05 0.000131011 0.00021494 0.000886083 0.00130062 0.000749163);
    }
    sideWalls
    {
        type            empty;
    }
    glass1
    {
        Cmu             0.09;
        kappa           0.41;
        E               9.8;
        type            epsilonWallFunction;
        value           nonuniform List<scalar> 9(0.000260125 0.00067697 0.00126046 0.00207699 0.0032106 0.00478892 0.00673705 0.0072974 0.00683329);
    }
    glass2
    {
        Cmu             0.09;
        kappa           0.41;
        E               9.8;
        type            epsilonWallFunction;
        value           nonuniform List<scalar> 2(0.000425451 0.000523882);
    }
    sun
    {
        Cmu             0.09;
        kappa           0.41;
        E               9.8;
        type            epsilonWallFunction;
        value           nonuniform List<scalar> 
14
(
0.000260125
0.000334521
0.000351072
0.000403894
0.00045722
0.000511116
0.000567658
0.000630722
0.000685385
0.00072179
0.000729133
0.000698451
0.00062496
0.000509796
)
;
    }
    heatsource1
    {
        Cmu             0.09;
        kappa           0.41;
        E               9.8;
        type            epsilonWallFunction;
        value           nonuniform List<scalar> 3(8.24571e-05 7.82646e-05 6.83708e-05);
    }
    heatsource2
    {
        Cmu             0.09;
        kappa           0.41;
        E               9.8;
        type            epsilonWallFunction;
        value           nonuniform List<scalar> 4(0.000426829 8.28914e-05 8.28914e-05 0.000386074);
    }
    Table_master
    {
        Cmu             0.09;
        kappa           0.41;
        E               9.8;
        type            epsilonWallFunction;
        value           nonuniform List<scalar> 9(0.000198481 0.000135541 9.65258e-05 7.15198e-05 5.49116e-05 4.35151e-05 3.54896e-05 2.97915e-05 2.592e-05);
    }
    Table_slave
    {
        Cmu             0.09;
        kappa           0.41;
        E               9.8;
        type            epsilonWallFunction;
        value           nonuniform List<scalar> 9(0.000266348 0.000204044 0.000169875 0.000149314 0.000135054 0.000122719 0.000109242 9.64753e-05 8.25982e-05);
    }
    inlet
    {
        type            turbulentMixingLengthDissipationRateInlet;
        mixingLength    0.01;
        phi             phi;
        k               k;
        value           uniform 3.01869e-05;
    }
    outlet
    {
        type            zeroGradient;
    }
}


// ************************************************************************* //
