// -*- C++ -*-
// File generated by PyFoam - sorry for the ugliness

FoamFile
{
 version 2.0;
 format ascii;
 class volScalarField;
 location "400";
 object T;
}

dimensions [ 0 0 0 1 0 0 0 ];

internalField nonuniform List<scalar> 459
(
  303.6
  303.342
  303.329
  303.325
  303.321
  303.317
  303.312
  303.307
  303.299
  303.288
  303.276
  303.264
  303.255
  303.249
  303.248
  303.33
  303.309
  303.301
  303.302
  303.305
  303.309
  303.312
  303.316
  303.319
  303.322
  303.325
  303.329
  303.332
  303.335
  303.338
  303.341
  303.345
  303.349
  303.366
  303.775
  303.385
  303.361
  303.364
  303.367
  303.368
  303.366
  303.361
  303.347
  303.326
  303.3
  303.275
  303.254
  303.24
  303.233
  303.23
  303.229
  303.33
  303.294
  303.288
  303.289
  303.293
  303.296
  303.297
  303.299
  303.3
  303.301
  303.302
  303.302
  303.303
  303.305
  303.307
  303.31
  303.315
  303.323
  303.351
  303.958
  303.435
  303.396
  303.407
  303.42
  303.431
  303.437
  303.434
  303.415
  303.379
  303.335
  303.292
  303.259
  303.238
  303.229
  303.227
  303.228
  303.272
  303.272
  303.279
  303.287
  303.295
  303.301
  303.301
  303.301
  303.301
  303.301
  303.301
  303.301
  303.301
  303.301
  303.301
  303.303
  303.307
  303.314
  303.343
  304.142
  303.498
  303.432
  303.447
  303.475
  303.501
  303.521
  303.524
  303.496
  303.44
  303.37
  303.307
  303.26
  303.233
  303.223
  303.224
  303.23
  303.24
  303.251
  303.267
  303.284
  303.3
  303.313
  303.323
  303.331
  303.338
  303.344
  303.35
  303.354
  303.358
  303.361
  303.362
  303.363
  303.343
  303.326
  303.319
  303.342
  304.32
  303.577
  303.473
  303.483
  303.519
  303.563
  303.603
  303.611
  303.569
  303.488
  303.392
  303.311
  303.255
  303.224
  303.216
  303.221
  303.233
  303.249
  303.268
  303.289
  303.31
  303.329
  303.345
  303.357
  303.368
  303.377
  303.384
  303.39
  303.393
  303.394
  303.393
  303.39
  303.383
  303.367
  303.345
  303.329
  303.339
  303.404
  303.449
  303.455
  304.481
  303.679
  303.545
  303.532
  303.565
  303.618
  303.674
  303.669
  303.604
  303.501
  303.39
  303.297
  303.235
  303.206
  303.204
  303.219
  303.242
  303.268
  303.295
  303.322
  303.347
  303.367
  303.384
  303.396
  303.406
  303.413
  303.42
  303.424
  303.425
  303.424
  303.419
  303.411
  303.401
  303.385
  303.364
  303.342
  303.34
  303.368
  303.384
  303.417
  304.627
  303.841
  303.708
  303.674
  303.686
  303.726
  303.748
  303.699
  303.593
  303.461
  303.337
  303.244
  303.191
  303.177
  303.192
  303.224
  303.262
  303.301
  303.336
  303.367
  303.391
  303.41
  303.424
  303.434
  303.442
  303.447
  303.451
  303.453
  303.453
  303.449
  303.441
  303.43
  303.418
  303.402
  303.382
  303.361
  303.351
  303.359
  303.368
  303.397
  304.841
  304.253
  304.106
  304.015
  303.964
  303.924
  303.823
  303.667
  303.488
  303.325
  303.205
  303.138
  303.123
  303.145
  303.191
  303.249
  303.305
  303.352
  303.391
  303.418
  303.437
  303.451
  303.461
  303.468
  303.473
  303.476
  303.477
  303.477
  303.475
  303.47
  303.463
  303.451
  303.439
  303.425
  303.409
  303.394
  303.389
  303.401
  303.419
  303.543
  305.146
  304.87
  304.612
  304.377
  304.163
  303.921
  303.614
  303.329
  303.118
  303
  302.965
  302.993
  303.062
  303.147
  303.233
  303.316
  303.377
  303.416
  303.443
  303.462
  303.475
  303.484
  303.491
  303.495
  303.498
  303.499
  303.499
  303.498
  303.496
  303.493
  303.492
  303.493
  303.495
  303.502
  303.516
  303.539
  303.57
  303.602
  303.624
  303.676
  296.449
  298.479
  299.727
  300.432
  301.054
  301.604
  302.068
  302.44
  302.728
  302.952
  303.142
  303.272
  303.354
  303.41
  303.447
  303.47
  303.486
  303.497
  303.505
  303.511
  303.515
  303.517
  303.519
  303.52
  303.521
  303.522
  303.523
  303.525
  303.527
  303.529
  303.534
  303.542
  303.556
  303.574
  303.597
  303.619
  303.637
  303.656
  297.108
  298.995
  300.358
  301.264
  301.84
  302.273
  302.615
  302.878
  303.074
  303.215
  303.318
  303.391
  303.439
  303.47
  303.491
  303.505
  303.514
  303.521
  303.526
  303.529
  303.532
  303.534
  303.536
  303.538
  303.54
  303.541
  303.543
  303.544
  303.546
  303.549
  303.553
  303.559
  303.568
  303.58
  303.596
  303.613
  303.61
  303.639
  299.71
  299.633
  299.628
  301.43
  302.233
  302.628
  302.864
  303.038
  303.171
  303.272
  303.348
  303.404
  303.444
  303.472
  303.49
  303.502
  303.51
  303.515
  303.519
  303.522
  303.525
  303.528
  303.53
  303.533
  303.535
  303.538
  303.541
  303.543
  303.546
  303.548
  303.551
  303.553
  303.557
  303.561
  303.566
  303.576
  303.585
  303.59
  303.592
  303.63
)
;

boundaryField
{
  floor
  {
    type wallHeatTransfer;
    Tinf uniform 305.2;
    alphaWall uniform 0.24;
    value nonuniform List<scalar> 29
(
  303.436
  303.687
  303.623
  303.593
  303.598
  303.608
  303.622
  303.639
  303.656
  303.674
  303.691
  303.707
  303.723
  303.738
  303.753
  303.767
  303.782
  303.798
  303.812
  303.85
  303.85
  303.765
  303.723
  303.698
  303.436
  303.687
  303.666
  303.481
  303.403
)
;
  }
  ceiling
  {
    type wallHeatTransfer;
    Tinf uniform 303.2;
    alphaWall uniform 0.24;
    value nonuniform List<scalar> 43
(
  299.958
  299.874
  299.862
  301.54
  302.295
  302.666
  302.887
  303.049
  303.173
  303.266
  303.335
  303.384
  303.419
  303.441
  303.454
  303.461
  303.466
  303.469
  303.471
  303.473
  303.474
  303.476
  303.479
  303.481
  303.484
  303.487
  303.49
  303.494
  303.497
  303.501
  303.505
  303.509
  303.514
  303.519
  303.526
  303.537
  303.546
  303.55
  303.549
  303.581
  305.056
  304.803
  297.499
)
;
  }
  sWall
  {
    type wallHeatTransfer;
    Tinf uniform 315.2;
    alphaWall uniform 0.36;
    value uniform 301.306;
  }
  nWall
  {
    type wallHeatTransfer;
    Tinf uniform 307.2;
    alphaWall uniform 0.36;
    value nonuniform List<scalar> 6
(
  304.161
  304.11
  304.036
  304.17
  304.148
  304.211
)
;
  }
  sideWalls
  {
    type empty;
  }
  glass1
  {
    type wallHeatTransfer;
    Tinf uniform 315.2;
    alphaWall uniform 4.3;
    value nonuniform List<scalar> 9
(
  311.559
  310.926
  310.526
  310.22
  309.965
  309.734
  309.563
  309.633
  309.857
)
;
  }
  glass2
  {
    type wallHeatTransfer;
    Tinf uniform 307.2;
    alphaWall uniform 4.3;
    value nonuniform List<scalar> 2
(
  305.823
  305.915
)
;
  }
  sun
  {
    type wallHeatTransfer;
    Tinf uniform 305.2;
    alphaWall uniform 0.24;
    value nonuniform List<scalar> 14
(
  303.771
  303.527
  303.513
  303.503
  303.494
  303.485
  303.477
  303.468
  303.457
  303.446
  303.435
  303.427
  303.424
  303.427
)
;
  }
  heatsource1
  {
    type fixedGradient;
    gradient uniform 0;
  }
  heatsource2
  {
    type fixedGradient;
    gradient uniform 0;
  }
  Table_master
  {
    type zeroGradient;
  }
  Table_slave
  {
    type zeroGradient;
  }
  inlet
  {
    type fixedValue;
    value uniform 293.15;
  }
  outlet
  {
    type zeroGradient;
  }
} 	// ************************************************************************* //

