/*--------------------------------*- C++ -*----------------------------------*\
  =========                 |
  \\      /  F ield         | OpenFOAM: The Open Source CFD Toolbox
   \\    /   O peration     | Website:  https://openfoam.org
    \\  /    A nd           | Version:  6
     \\/     M anipulation  |
\*---------------------------------------------------------------------------*/
FoamFile
{
    version     2.0;
    format      ascii;
    class       volScalarField;
    location    "140";
    object      epsilon;
}
// * * * * * * * * * * * * * * * * * * * * * * * * * * * * * * * * * * * * * //

dimensions      [0 2 -3 0 0 0 0];

internalField   nonuniform List<scalar> 
459
(
0.00307126
0.00444386
0.0041828
0.00343607
0.00272405
0.00216798
0.00174983
0.00142379
0.00116309
0.000950252
0.000772953
0.000621965
0.000489714
0.000368458
0.000261897
0.000114387
0.000219106
0.000192441
0.000161938
0.000134944
0.000110716
8.89963e-05
7.1961e-05
5.89579e-05
4.90265e-05
4.13695e-05
3.53683e-05
3.05437e-05
2.66336e-05
2.33194e-05
2.03252e-05
1.79304e-05
1.64657e-05
2.58365e-05
0.00499418
0.0106282
0.00597359
0.00377033
0.00258983
0.00190058
0.00145843
0.00115105
0.000922829
0.000744517
0.000599462
0.000477866
0.000374601
0.000286141
0.000218485
0.000227887
0.000142297
0.000297928
0.000646036
0.000277475
0.000177188
0.000131309
0.000103429
8.99443e-05
7.31078e-05
5.84401e-05
4.67553e-05
3.77049e-05
3.07224e-05
2.52789e-05
2.10775e-05
1.80056e-05
1.64107e-05
2.43407e-05
5.08369e-05
6.27202e-05
0.00588692
0.0146259
0.00634421
0.00332776
0.00203848
0.00141545
0.00107232
0.00085401
0.000695816
0.000569569
0.000462835
0.00037073
0.000292374
0.000227238
0.000179371
0.000155657
0.00014692
0.000261059
0.000374971
0.000219573
0.000163192
0.000131357
0.000115035
0.000223298
0.000148097
0.000103346
7.52322e-05
5.67051e-05
4.39981e-05
3.50284e-05
2.88056e-05
2.48458e-05
1.87291e-05
2.63541e-05
9.89437e-05
0.000103366
0.00577409
0.013503
0.00473441
0.00194337
0.00105443
0.000755128
0.000630417
0.000545782
0.000470955
0.000400085
0.000333416
0.000272759
0.000220399
0.000177565
0.000146901
0.00012621
0.000129172
0.000168308
0.000236587
0.000193293
0.00016525
0.000143317
0.000125042
0.000120141
0.000304466
0.000230178
0.000181029
0.000145063
0.000116609
9.27702e-05
7.20092e-05
5.34981e-05
3.62651e-05
1.94369e-05
2.76349e-05
0.000201572
0.00016651
0.00545682
0.00978818
0.00263055
0.000753913
0.000425597
0.000376865
0.000360376
0.000337649
0.0003071
0.000271755
0.000235208
0.000199881
0.000169441
0.000146469
0.000132394
0.000124469
0.000136947
0.000156425
0.000168713
0.000175425
0.000168798
0.000153299
0.000135533
0.000123026
0.000127956
0.000123474
0.000114464
0.00010264
8.91163e-05
7.46158e-05
5.95741e-05
4.45946e-05
2.90617e-05
1.87533e-05
2.56637e-05
0.000137088
0.000181044
0.000189709
0.000247232
0.000668951
0.00489981
0.00689545
0.00164964
0.000439332
0.000243996
0.000226631
0.000226954
0.000222589
0.000212415
0.000198435
0.000183047
0.000168356
0.000156603
0.000149786
0.000151087
0.000161006
0.000186447
0.000214623
0.000227144
0.000223859
0.000207553
0.000182934
0.000157352
0.000137211
0.00012493
0.000114696
0.00010365
9.11669e-05
7.76306e-05
6.358e-05
4.95559e-05
3.63115e-05
2.55854e-05
2.19029e-05
3.09382e-05
6.08172e-05
0.000127881
0.000271168
0.0011036
0.00166964
0.00417003
0.0050642
0.00127079
0.000450212
0.000228513
0.00019891
0.000198373
0.000201169
0.000203297
0.000204411
0.00020479
0.000204414
0.000204714
0.000208036
0.000217853
0.000236446
0.000263801
0.000293342
0.000301955
0.000287373
0.000255858
0.000217341
0.00018147
0.000153966
0.000133716
0.00011809
0.000103511
8.9148e-05
7.52963e-05
6.26428e-05
5.21827e-05
4.5377e-05
4.44022e-05
5.22454e-05
6.82887e-05
9.6689e-05
0.000172205
0.000765366
0.00359195
0.00409149
0.00333341
0.00374386
0.00144407
0.000943176
0.000400985
0.000313591
0.00030971
0.000323777
0.000343692
0.000365808
0.000388733
0.000401441
0.000405261
0.000404651
0.000404784
0.000412126
0.000429589
0.000443689
0.00043231
0.000393082
0.000340443
0.000288495
0.000246812
0.000213251
0.000186848
0.000165496
0.000147368
0.000132209
0.000120808
0.000114631
0.00011577
0.000126964
0.000151117
0.00018854
0.000233918
0.000281629
0.000412534
0.00167529
0.0129218
0.0103255
0.00224498
0.00234154
0.00222223
0.00241985
0.00107508
0.000795952
0.000776609
0.000814384
0.000875627
0.000947753
0.000980432
0.000984009
0.000970504
0.000949098
0.000922467
0.000895917
0.00087214
0.000842671
0.000791425
0.000716298
0.000639579
0.000578584
0.000525398
0.000479418
0.00044135
0.000410781
0.000387897
0.000374076
0.000371808
0.000384524
0.000416312
0.000471027
0.000550101
0.000651137
0.000787547
0.000877932
0.00100679
0.00284966
0.0176243
0.0140874
0.00304101
0.0042018
0.00286433
0.00244809
0.00240524
0.00245515
0.00255407
0.00259242
0.0025684
0.00250778
0.00244111
0.00238653
0.00232895
0.00226632
0.00220281
0.00213109
0.0020344
0.00190752
0.00180072
0.00171299
0.00163414
0.0015644
0.00150407
0.00145504
0.00142077
0.00140628
0.00141819
0.00146468
0.00155429
0.00169188
0.00187012
0.00206907
0.00222513
0.00233822
0.00253543
0.0040865
0.0126391
0.00826212
0.00753501
0.00990295
0.00857777
0.00748229
0.00717851
0.00720568
0.00721784
0.00709572
0.00686666
0.00660094
0.00637575
0.00625304
0.0061701
0.00609751
0.00603865
0.00597837
0.00586745
0.00566235
0.0054436
0.00524975
0.00508556
0.00494194
0.00481594
0.00471078
0.00463377
0.00459569
0.00461155
0.00470164
0.0048903
0.00519558
0.0055945
0.00594998
0.00605543
0.00602985
0.00590392
0.00600128
0.00683834
0.00475012
0.000631693
0.000361597
0.00126342
0.00362048
0.00430027
0.00425072
0.00410984
0.00400673
0.00391105
0.0037799
0.00361414
0.0034513
0.00334638
0.00333699
0.00335952
0.0033808
0.00339191
0.00338263
0.00334494
0.00330318
0.0032566
0.0032081
0.00316159
0.00311992
0.00308512
0.00305939
0.00304539
0.00304629
0.00306554
0.00310595
0.00316728
0.003241
0.00330228
0.00331995
0.00331513
0.00328544
0.00331519
0.00357619
0.0037036
0.00270821
)
;

boundaryField
{
    floor
    {
        Cmu             0.09;
        kappa           0.41;
        E               9.8;
        type            epsilonWallFunction;
        value           nonuniform List<scalar> 
29
(
0.000261897
0.000114387
0.000219106
0.000192441
0.000161938
0.000134944
0.000110716
8.89963e-05
7.1961e-05
5.89579e-05
4.90265e-05
4.13695e-05
3.53683e-05
3.05437e-05
2.66336e-05
2.33194e-05
2.03252e-05
1.79304e-05
1.64657e-05
2.58365e-05
2.58365e-05
6.27202e-05
0.000103366
0.00016651
0.000261897
0.000114387
0.000297928
0.000261059
0.000168308
)
;
    }
    ceiling
    {
        Cmu             0.09;
        kappa           0.41;
        E               9.8;
        type            epsilonWallFunction;
        value           nonuniform List<scalar> 
43
(
0.000631693
0.000361597
0.00126342
0.00362048
0.00430027
0.00425072
0.00410984
0.00400673
0.00391105
0.0037799
0.00361414
0.0034513
0.00334638
0.00333699
0.00335952
0.0033808
0.00339191
0.00338263
0.00334494
0.00330318
0.0032566
0.0032081
0.00316159
0.00311992
0.00308512
0.00305939
0.00304539
0.00304629
0.00306554
0.00310595
0.00316728
0.003241
0.00330228
0.00331995
0.00331513
0.00328544
0.00331519
0.00357619
0.0037036
0.00270821
0.00224498
0.00234154
0.00753501
)
;
    }
    sWall
    {
        Cmu             0.09;
        kappa           0.41;
        E               9.8;
        type            epsilonWallFunction;
        value           uniform 0.000631693;
    }
    nWall
    {
        Cmu             0.09;
        kappa           0.41;
        E               9.8;
        type            epsilonWallFunction;
        value           nonuniform List<scalar> 6(0.000668951 0.00166964 0.00409149 0.00826212 0.00475012 0.00270821);
    }
    sideWalls
    {
        type            empty;
    }
    glass1
    {
        Cmu             0.09;
        kappa           0.41;
        E               9.8;
        type            epsilonWallFunction;
        value           nonuniform List<scalar> 9(0.00307126 0.00499418 0.00588692 0.00577409 0.00545682 0.00489981 0.00417003 0.00333341 0.00224498);
    }
    glass2
    {
        Cmu             0.09;
        kappa           0.41;
        E               9.8;
        type            epsilonWallFunction;
        value           nonuniform List<scalar> 2(0.0103255 0.0140874);
    }
    sun
    {
        Cmu             0.09;
        kappa           0.41;
        E               9.8;
        type            epsilonWallFunction;
        value           nonuniform List<scalar> 
14
(
0.00307126
0.00444386
0.0041828
0.00343607
0.00272405
0.00216798
0.00174983
0.00142379
0.00116309
0.000950252
0.000772953
0.000621965
0.000489714
0.000368458
)
;
    }
    heatsource1
    {
        Cmu             0.09;
        kappa           0.41;
        E               9.8;
        type            epsilonWallFunction;
        value           nonuniform List<scalar> 3(0.000189709 0.000247232 0.000668951);
    }
    heatsource2
    {
        Cmu             0.09;
        kappa           0.41;
        E               9.8;
        type            epsilonWallFunction;
        value           nonuniform List<scalar> 4(0.000227887 0.000142297 0.000142297 0.00014692);
    }
    Table_master
    {
        Cmu             0.09;
        kappa           0.41;
        E               9.8;
        type            epsilonWallFunction;
        value           nonuniform List<scalar> 9(0.000223298 0.000148097 0.000103346 7.52322e-05 5.67051e-05 4.39981e-05 3.50284e-05 2.88056e-05 2.48458e-05);
    }
    Table_slave
    {
        Cmu             0.09;
        kappa           0.41;
        E               9.8;
        type            epsilonWallFunction;
        value           nonuniform List<scalar> 9(0.000304466 0.000230178 0.000181029 0.000145063 0.000116609 9.27702e-05 7.20092e-05 5.34981e-05 3.62651e-05);
    }
    inlet
    {
        type            turbulentMixingLengthDissipationRateInlet;
        mixingLength    0.01;
        phi             phi;
        k               k;
        value           uniform 3.01869e-05;
    }
    outlet
    {
        type            zeroGradient;
    }
}


// ************************************************************************* //
