/*--------------------------------*- C++ -*----------------------------------*\
  =========                 |
  \\      /  F ield         | OpenFOAM: The Open Source CFD Toolbox
   \\    /   O peration     | Website:  https://openfoam.org
    \\  /    A nd           | Version:  6
     \\/     M anipulation  |
\*---------------------------------------------------------------------------*/
FoamFile
{
    version     2.0;
    format      ascii;
    class       volScalarField;
    location    "140";
    object      T;
}
// * * * * * * * * * * * * * * * * * * * * * * * * * * * * * * * * * * * * * //

dimensions      [0 0 0 1 0 0 0];

internalField   nonuniform List<scalar> 
459
(
303.294
303.325
303.356
303.378
303.391
303.4
303.409
303.416
303.424
303.43
303.436
303.441
303.445
303.446
303.435
303.665
303.702
303.734
303.759
303.777
303.789
303.797
303.803
303.81
303.816
303.822
303.829
303.835
303.842
303.849
303.857
303.867
303.881
303.897
303.329
303.388
303.443
303.479
303.5
303.511
303.519
303.524
303.527
303.528
303.526
303.522
303.514
303.5
303.476
303.483
303.492
303.696
303.725
303.763
303.802
303.833
303.854
303.866
303.876
303.887
303.897
303.908
303.92
303.932
303.942
303.949
303.951
303.947
303.938
303.975
303.327
303.414
303.516
303.58
303.61
303.622
303.624
303.621
303.615
303.607
303.597
303.584
303.568
303.546
303.519
303.508
303.505
303.647
303.71
303.779
303.839
303.885
303.911
303.915
303.921
303.929
303.937
303.948
303.959
303.972
303.986
303.996
304.001
303.995
303.982
304.005
303.304
303.417
303.6
303.716
303.753
303.753
303.736
303.717
303.699
303.681
303.662
303.641
303.617
303.589
303.558
303.537
303.524
303.542
303.616
303.712
303.82
303.911
303.977
304.019
304.055
304.089
304.122
304.152
304.181
304.209
304.238
304.267
304.29
304.137
304.072
304.037
304.037
303.261
303.393
303.689
303.886
303.905
303.878
303.844
303.815
303.79
303.767
303.743
303.715
303.684
303.65
303.615
303.593
303.586
303.632
303.738
303.863
303.978
304.069
304.131
304.174
304.214
304.246
304.271
304.292
304.31
304.325
304.338
304.349
304.346
304.243
304.156
304.111
304.076
304.093
304.221
304.556
303.19
303.326
303.713
304.019
304.045
304.017
303.983
303.953
303.928
303.903
303.878
303.85
303.818
303.782
303.748
303.738
303.761
303.859
303.981
304.097
304.192
304.261
304.305
304.334
304.357
304.374
304.387
304.398
304.406
304.412
304.416
304.414
304.397
304.33
304.269
304.247
304.155
304.144
304.301
304.54
303.072
303.162
303.613
304.157
304.23
304.216
304.191
304.169
304.15
304.132
304.113
304.091
304.065
304.037
304.015
304.021
304.07
304.174
304.268
304.348
304.407
304.445
304.466
304.478
304.481
304.483
304.485
304.486
304.487
304.486
304.483
304.475
304.459
304.428
304.398
304.355
304.229
304.205
304.343
304.554
302.896
302.858
303.253
304.282
304.476
304.497
304.49
304.482
304.475
304.468
304.46
304.445
304.425
304.403
304.387
304.39
304.423
304.479
304.527
304.565
304.588
304.598
304.6
304.594
304.585
304.578
304.573
304.568
304.563
304.559
304.553
304.547
304.538
304.525
304.503
304.455
304.332
304.275
304.371
304.595
302.646
302.353
302.305
304.285
304.764
304.85
304.859
304.853
304.842
304.824
304.791
304.756
304.725
304.7
304.684
304.678
304.684
304.698
304.711
304.719
304.72
304.715
304.705
304.691
304.678
304.666
304.656
304.647
304.639
304.632
304.626
304.619
304.611
304.599
304.577
304.535
304.447
304.38
304.433
304.621
300.938
304.191
305.114
305.262
305.265
305.231
305.179
305.104
305.023
304.951
304.898
304.865
304.845
304.833
304.827
304.825
304.821
304.815
304.806
304.794
304.779
304.764
304.749
304.736
304.723
304.712
304.701
304.691
304.681
304.67
304.657
304.639
304.612
304.577
304.531
304.49
304.515
304.603
305.586
305.779
305.837
305.81
305.738
305.638
305.508
305.36
305.212
305.083
304.993
304.946
304.921
304.906
304.895
304.886
304.876
304.865
304.852
304.837
304.822
304.807
304.792
304.778
304.765
304.752
304.74
304.727
304.713
304.697
304.679
304.657
304.631
304.604
304.579
304.563
304.578
304.611
310.177
309.993
309.05
308.03
307.398
306.941
306.581
306.279
306.006
305.74
305.478
305.235
305.055
304.984
304.958
304.942
304.929
304.916
304.903
304.888
304.873
304.858
304.843
304.828
304.813
304.8
304.786
304.772
304.758
304.742
304.725
304.705
304.682
304.658
304.635
304.617
304.606
304.603
304.614
304.636
)
;

boundaryField
{
    floor
    {
        type            wallHeatTransfer;
        Tinf            uniform 297.65;
        alphaWall       uniform 0.24;
        value           nonuniform List<scalar> 
29
(
302.739
302.781
302.941
302.945
302.933
302.911
302.88
302.839
302.796
302.755
302.716
302.679
302.644
302.611
302.58
302.55
302.518
302.49
302.477
302.615
302.615
302.907
303.049
303.178
302.739
302.781
302.991
302.924
302.753
)
;
    }
    ceiling
    {
        type            wallHeatTransfer;
        Tinf            uniform 297.65;
        alphaWall       uniform 0.24;
        value           nonuniform List<scalar> 
43
(
308.949
308.602
308.118
307.391
306.826
306.394
306.051
305.764
305.504
305.25
304.998
304.765
304.592
304.525
304.502
304.488
304.476
304.464
304.45
304.435
304.419
304.403
304.387
304.371
304.356
304.342
304.329
304.316
304.304
304.291
304.277
304.261
304.241
304.219
304.198
304.18
304.171
304.177
304.191
304.175
302.301
302.032
305.188
)
;
    }
    sWall
    {
        type            wallHeatTransfer;
        Tinf            uniform 298.15;
        alphaWall       uniform 0.36;
        value           uniform 308.493;
    }
    nWall
    {
        type            wallHeatTransfer;
        Tinf            uniform 299.15;
        alphaWall       uniform 0.36;
        value           nonuniform List<scalar> 6(303.819 303.954 304.089 304.214 304.16 304.11);
    }
    sideWalls
    {
        type            empty;
    }
    glass1
    {
        type            wallHeatTransfer;
        Tinf            uniform 298.15;
        alphaWall       uniform 4.3;
        value           nonuniform List<scalar> 9(300.479 300.675 300.735 300.717 300.675 300.6 300.486 300.326 300.086);
    }
    glass2
    {
        type            wallHeatTransfer;
        Tinf            uniform 299.15;
        alphaWall       uniform 4.3;
        value           nonuniform List<scalar> 2(302.086 302.222);
    }
    sun
    {
        type            wallHeatTransfer;
        Tinf            uniform 297.65;
        alphaWall       uniform 0.24;
        value           nonuniform List<scalar> 
14
(
302.935
302.998
303.022
303.025
303.014
302.998
302.983
302.966
302.948
302.928
302.906
302.88
302.848
302.806
)
;
    }
    heatsource1
    {
        type            fixedGradient;
        gradient        uniform 0;
    }
    heatsource2
    {
        type            fixedGradient;
        gradient        uniform 0;
    }
    Table_master
    {
        type            zeroGradient;
    }
    Table_slave
    {
        type            zeroGradient;
    }
    inlet
    {
        type            fixedValue;
        value           uniform 299.15;
    }
    outlet
    {
        type            zeroGradient;
    }
}


// ************************************************************************* //
