/*--------------------------------*- C++ -*----------------------------------*\
  =========                 |
  \\      /  F ield         | OpenFOAM: The Open Source CFD Toolbox
   \\    /   O peration     | Website:  https://openfoam.org
    \\  /    A nd           | Version:  6
     \\/     M anipulation  |
\*---------------------------------------------------------------------------*/
FoamFile
{
    version     2.0;
    format      ascii;
    class       surfaceScalarField;
    location    "590";
    object      phi;
}
// * * * * * * * * * * * * * * * * * * * * * * * * * * * * * * * * * * * * * //

dimensions      [1 0 -1 0 0 0 0];

internalField   nonuniform List<scalar> 
852
(
-0.00243302
0.00247265
-0.00329071
0.00085767
-0.00400464
0.00071392
-0.00460464
0.000599984
-0.00506522
0.000460564
-0.00536735
0.000302111
-0.00548925
0.000121888
-0.00540494
-8.43304e-05
-0.00508873
-0.000316222
-0.00453745
-0.000551293
-0.00378256
-0.000754908
-0.00288401
-0.000898567
-0.00192045
-0.00096357
-0.000971396
-0.00094907
-0.00097499
0.000176622
-0.000181966
0.000318717
-0.000142103
0.000523345
-0.000204638
0.000652864
-0.000129532
0.000690768
-3.79179e-05
0.000674163
1.65907e-05
0.000660062
1.40863e-05
0.000668171
-8.12446e-06
0.000681659
-1.35053e-05
0.000692639
-1.09984e-05
0.000699827
-7.20591e-06
0.00070073
-9.22062e-07
0.000690168
1.05442e-05
0.000658163
3.19868e-05
0.000585331
7.28133e-05
0.000447334
0.000137978
0.000258618
0.000188697
-0.000163785
0.000422384
-0.000169997
-0.00178702
0.00436772
-0.00264724
0.00171788
-0.00339421
0.00146087
-0.0039937
0.00119945
-0.00445039
0.000917244
-0.00475642
0.000608121
-0.00489196
0.000257417
-0.0048303
-0.000146008
-0.00455073
-0.000595809
-0.00405911
-0.00104292
-0.0034017
-0.00141233
-0.00265215
-0.00164813
-0.00189848
-0.00171725
-0.00124413
-0.00160343
-0.000944126
-0.00127501
-0.000256187
-0.000688006
-0.000256258
-5.82891e-05
-0.000136797
0.000550999
-0.000751403
0.000780237
-0.00043389
0.000881977
-0.000231285
0.000899736
-5.56915e-05
0.000863655
5.26565e-05
0.000859493
1.82326e-05
0.000868502
-1.71505e-05
0.00087319
-1.82101e-05
0.000876676
-1.4502e-05
0.00088037
-1.09169e-05
0.000883269
-3.83788e-06
0.00088365
1.01453e-05
0.000878248
3.73703e-05
0.000842797
0.000108247
0.000692867
0.000287889
0.000415879
0.000465667
0.000285351
0.000552893
9.87382e-05
-0.00129192
0.0058262
-0.00204694
0.00247289
-0.00272649
0.0021404
-0.00325451
0.00172746
-0.00366601
0.00132872
-0.00395471
0.000896804
-0.0040949
0.000397595
-0.00404931
-0.000191611
-0.00378848
-0.000856655
-0.00332711
-0.00150431
-0.00272702
-0.00201244
-0.00206095
-0.00231421
-0.00140279
-0.00237542
-0.0008339
-0.00217234
-0.000408583
-0.00170035
-6.82577e-05
-0.00102835
-0.000324532
0.000861652
-0.00101754
0.000941354
-0.000831119
0.00113008
-0.000622626
0.00121594
-0.000317163
0.00119775
-3.75154e-05
0.00101261
0.000237783
0.00103098
0.00101397
0.000995893
0.000981528
0.000970747
0.000967046
0.000977327
0.00101483
0.00112322
0.000960712
0.000450375
0.000798591
0.00062777
0.000645257
0.000706209
0.000717804
-0.000936004
0.00697924
-0.00154807
0.00308494
-0.00203268
0.00262499
-0.00241277
0.00210753
-0.00272511
0.00164104
-0.0029591
0.00113078
-0.00308214
0.00052062
-0.00303713
-0.000236639
-0.00278041
-0.00111339
-0.00234679
-0.00193795
-0.0018196
-0.00253963
-0.00126099
-0.00287283
-0.000716884
-0.00291953
-0.000221258
-0.00266798
0.000236963
-0.00215858
0.000704457
-0.00149586
0.00129863
-0.000918726
0.00202959
-0.000749662
0.00191976
-0.000907714
0.00179276
-0.000704132
0.00165619
-0.000486074
0.0015799
-0.000240888
0.00156049
-1.81225e-05
0.0016712
0.000127058
0.00156148
0.000109552
0.00149103
7.02839e-05
0.00142641
6.4458e-05
0.00136215
6.40915e-05
0.00129622
6.5761e-05
0.00122265
7.33936e-05
0.00113119
9.12904e-05
0.0010053
0.000125723
0.000814044
0.000191085
0.00087633
0.00038807
0.000915714
0.000588368
0.000967424
0.000654479
0.00164996
-0.000675186
0.00791484
-0.00114993
0.00355967
-0.00132575
0.0028008
-0.00149852
0.00228028
-0.00165965
0.00180216
-0.001786
0.00125711
-0.00184855
0.000583151
-0.00176498
-0.000320224
-0.00149615
-0.00138223
-0.00111403
-0.00232007
-0.000706644
-0.00294703
-0.000309473
-0.00327
5.89437e-05
-0.00328796
0.000395448
-0.0030045
0.000726368
-0.00248952
0.00109141
-0.00186091
0.00147075
-0.00129809
0.00171537
-0.000994303
0.00161339
-0.000805744
0.00150285
-0.000593606
0.00139048
-0.000373715
0.0013122
-0.000162623
0.00127664
1.74219e-05
0.0012675
0.000136183
0.00121632
0.000160717
0.00114509
0.000141506
0.00108065
0.000128873
0.00102066
0.000124072
0.000961677
0.000124725
0.000901703
0.000133351
0.000839195
0.000153781
0.000775045
0.000189855
0.000722703
0.000243409
0.000768731
0.000342024
0.000939818
0.000417262
0.00137971
0.000214568
0.00224002
0.000789624
0.00107853
0.00116127
-0.000330993
0.0014093
-0.00037391
-0.000584757
0.00879708
-0.00091057
0.00388546
-0.000648169
0.00253838
-0.000556008
0.0021881
-0.000543325
0.00178946
-0.000523228
0.00123699
-0.000451541
0.000511445
-0.000248032
-0.000523752
3.93422e-05
-0.00166962
0.000315378
-0.00259611
0.000546638
-0.00317829
0.000725219
-0.00344858
0.000856927
-0.00341967
0.000968377
-0.00311596
0.00108107
-0.00260223
0.00120613
-0.00198599
0.00131863
-0.00141061
0.00131841
-0.000994097
0.0012096
-0.000696953
0.00107608
-0.000460094
0.000953675
-0.000251325
0.00086143
-7.0391e-05
0.000806565
7.22725e-05
0.000780641
0.000162091
0.000751163
0.00019018
0.000708675
0.000183976
0.000664894
0.000172637
0.000623649
0.0001653
0.000584872
0.000163484
0.000549211
0.000168995
0.000519036
0.000183937
0.000499193
0.00020968
0.000497457
0.000245127
0.000545671
0.000293791
0.000639727
0.000323187
0.000622264
0.000232011
0.000669311
0.000742558
0.000264069
0.00156649
-0.000400773
0.00207412
-0.000816816
-0.00072342
0.00985049
-0.000626529
0.00378856
0.000174642
0.00173719
0.000496578
0.00186615
0.000658894
0.00162712
0.000840808
0.00105506
0.00113761
0.000214619
0.00149467
-0.000880828
0.00174241
-0.00191738
0.00184522
-0.00269893
0.00184342
-0.00317648
0.00175836
-0.00336352
0.00161908
-0.00328039
0.00145966
-0.00295656
0.00130639
-0.00244898
0.00116955
-0.00184917
0.00104061
-0.0012817
0.000882086
-0.000835586
0.000708562
-0.000523445
0.000546916
-0.000298463
0.00041818
-0.000122603
0.000331643
1.61312e-05
0.000287993
0.000115907
0.000274374
0.000175694
0.000265782
0.000198756
0.000250666
0.000199075
0.000231273
0.000192011
0.000211539
0.000185017
0.000194299
0.000180705
0.000182905
0.00018037
0.000181818
0.000185005
0.00019597
0.000195508
0.000228274
0.000212804
0.000280594
0.000241452
0.000321078
0.000282684
0.000220598
0.000332471
0.00012459
0.000838546
-0.000103656
0.00179472
-0.000122718
0.00209316
-0.000979711
0.00190906
0.00830948
0.00240889
0.00328871
0.00234707
0.00179899
0.00241312
0.00180008
0.00255013
0.00149009
0.00282302
0.000782149
0.00324052
-0.000202911
0.00353627
-0.0011766
0.00358216
-0.00196327
0.0034076
-0.00252436
0.00308261
-0.00285148
0.00266519
-0.0029461
0.00220356
-0.00281876
0.00174147
-0.00249448
0.00131375
-0.00202128
0.000935849
-0.00147129
0.000618574
-0.000964448
0.000346447
-0.000563479
0.000126405
-0.00030342
-3.82795e-05
-0.000133793
-0.000149009
-1.18888e-05
-0.000207746
7.48527e-05
-0.000225698
0.000133842
-0.000222125
0.000172104
-0.000213994
0.000190606
-0.00020959
0.000194653
-0.000208872
0.000191275
-0.000208552
0.000184677
-0.00020459
0.000176725
-0.000192334
0.000168094
-0.000166402
0.000159055
-0.00012093
0.000150016
-5.048e-05
0.000142334
4.81484e-05
0.000142804
0.000159148
0.000171664
0.000229705
0.000261894
0.000411152
0.000657079
0.000733352
0.0014725
0.0015371
0.00128939
0.000308687
0.00868004
0.0119363
0.00987852
0.0038568
0.00872229
0.0029563
0.00793844
0.00227392
0.00742429
0.00129628
0.00690499
0.000316377
0.0062552
-0.000526818
0.00552929
-0.00123735
0.0047598
-0.00175486
0.00396371
-0.00205538
0.00315682
-0.00213919
0.00236336
-0.00202531
0.00161759
-0.00174873
0.000961937
-0.00136567
0.000416645
-0.000926032
5.53941e-06
-0.000553369
-0.000283967
-0.000273993
-0.00047924
-0.000108166
-0.000603001
-1.00498e-05
-0.000670595
5.56878e-05
-0.000696013
0.000100253
-0.000695326
0.000133136
-0.000679927
0.000156687
-0.000659455
0.000170115
-0.000639242
0.00017442
-0.000619979
0.000171992
-0.00059995
0.000164628
-0.000576399
0.000153153
-0.0005459
0.000137575
-0.000504267
0.000117401
-0.00044638
9.21096e-05
-0.000365746
6.16793e-05
-0.000249766
2.68028e-05
-8.2572e-05
4.44879e-06
0.000129606
4.96957e-05
0.000494988
0.000291676
0.00110983
0.000857635
0.00172927
0.00066993
0.00176918
0.00652214
0.00360746
0.00611671
0.00336173
0.00628053
0.00211012
0.0063175
0.00125932
0.00609787
0.000536031
0.00569415
-0.000123071
0.00512037
-0.000663553
0.00439254
-0.00102701
0.00355233
-0.00121516
0.00264977
-0.00123664
0.00174372
-0.00111929
0.000892535
-0.000897581
0.000161771
-0.000634944
-0.000375332
-0.000388966
-0.000705599
-0.000223128
-0.000892465
-8.71495e-05
-0.00100175
1.09766e-06
-0.00106071
4.88981e-05
-0.00108254
7.7492e-05
-0.0010812
9.88942e-05
-0.00106438
0.0001163
-0.00103737
0.000129653
-0.00100506
0.000137784
-0.000970937
0.00014028
-0.000936596
0.00013763
-0.000902418
0.000130429
-0.000868203
0.000118917
-0.000833482
0.000102833
-0.000797638
8.15359e-05
-0.000759934
5.43839e-05
-0.000719467
2.11909e-05
-0.000671097
-2.15878e-05
-0.00059831
-6.83602e-05
-0.000494973
-5.36623e-05
-0.000370565
0.000167247
-0.000171609
0.000658657
-8.21074e-05
0.000580408
0.00163776
0.00126146
0.00230917
0.00271589
0.00190731
0.0035314
0.00129462
0.00397096
0.000819786
0.00411008
0.000396925
0.00390843
7.86026e-05
0.00338441
-0.000139521
0.00269225
-0.000334836
0.00196106
-0.000483966
0.0012051
-0.000480724
0.000476519
-0.000390766
-0.000135488
-0.00028563
-0.00060033
-0.000170142
-0.000920277
-6.90506e-05
-0.00113609
-7.33812e-06
-0.00125406
3.0793e-05
-0.00130756
5.45794e-05
-0.00133157
7.28864e-05
-0.00133718
8.30798e-05
-0.00132839
9.00877e-05
-0.00130775
9.56391e-05
-0.00127778
9.96641e-05
-0.0012415
0.000101477
-0.00120188
0.000100638
-0.00116136
9.70873e-05
-0.00112184
9.08943e-05
-0.00108504
8.20916e-05
-0.00105292
7.06938e-05
-0.00102839
5.69874e-05
-0.00101603
4.1998e-05
-0.00102193
2.70693e-05
-0.00105844
1.48969e-05
-0.00113537
8.55059e-06
-0.00120813
1.9079e-05
-0.00115142
0.000110514
-0.000830878
0.000338093
-0.000762523
0.000512031
0.000812245
-0.00439425
-0.0051899
-0.00292809
-0.00106889
0.000175159
0.000941586
0.00128354
0.00130596
0.0011104
0.000720538
0.00018211
-0.000353724
-0.000799756
-0.00114081
-0.00136703
-0.00149323
-0.00155876
-0.00158688
-0.00159173
-0.00157863
-0.00155558
-0.00152569
-0.00149036
-0.00145104
-0.00140991
-0.00136958
-0.00133272
-0.00130194
-0.00127983
-0.00126897
-0.00127166
-0.0012892
-0.00132163
-0.00136641
-0.00141796
-0.00145928
-0.00140836
-0.00112762
-0.000671278
)
;

boundaryField
{
    floor
    {
        type            calculated;
        value           nonuniform List<scalar> 
29
(
0
0
0
0
0
0
0
0
0
0
0
0
0
0
0
0
0
0
0
0
6.19245e-06
1.65955e-05
2.61722e-05
3.52533e-05
3.58064e-06
5.334e-06
1.31085e-05
1.90745e-05
1.86886e-05
)
;
    }
    ceiling
    {
        type            calculated;
        value           nonuniform List<scalar> 
43
(
5.38235e-05
4.99186e-05
4.73708e-05
4.81176e-05
5.0583e-05
5.33691e-05
5.49822e-05
5.61947e-05
5.60524e-05
5.50303e-05
5.44196e-05
5.49719e-05
5.51967e-05
5.53717e-05
5.60503e-05
5.7118e-05
5.8172e-05
5.88883e-05
5.94076e-05
5.97624e-05
6.00119e-05
6.01797e-05
6.02819e-05
6.03279e-05
6.03251e-05
6.02808e-05
6.02019e-05
6.00939e-05
5.99615e-05
5.98103e-05
5.96525e-05
5.95186e-05
5.94816e-05
5.96537e-05
6.00752e-05
6.03748e-05
5.95721e-05
5.73402e-05
5.56621e-05
6.08565e-05
3.97779e-05
3.23917e-05
3.68297e-05
)
;
    }
    sWall
    {
        type            calculated;
        value           uniform -0.000198041;
    }
    nWall
    {
        type            calculated;
        value           nonuniform List<scalar> 6(4.26912e-05 4.21116e-05 4.01554e-05 4.92906e-05 6.29661e-05 8.00889e-05);
    }
    sideWalls
    {
        type            empty;
        value           nonuniform 0();
    }
    glass1
    {
        type            calculated;
        value           nonuniform List<scalar> 9(-3.96456e-05 -0.000108059 -0.00016658 -0.000217047 -0.000260434 -0.000297489 -0.000330006 -0.000368056 -0.000410352);
    }
    glass2
    {
        type            calculated;
        value           nonuniform List<scalar> 2(0.000248686 0.000268756);
    }
    sun
    {
        type            calculated;
        value           uniform 0;
    }
    heatsource1
    {
        type            calculated;
        value           nonuniform List<scalar> 3(2.03584e-07 2.03825e-07 2.04116e-07);
    }
    heatsource2
    {
        type            calculated;
        value           nonuniform List<scalar> 4(5.1019e-08 5.11407e-08 0 0);
    }
    Table_master
    {
        type            calculated;
        value           nonuniform List<scalar> 9(-1.53079e-07 -1.53115e-07 -1.53128e-07 -1.5314e-07 -1.53148e-07 -1.53153e-07 -1.53152e-07 -1.53142e-07 -1.5311e-07);
    }
    Table_slave
    {
        type            calculated;
        value           nonuniform List<scalar> 9(1.52795e-07 1.52869e-07 1.52897e-07 1.5292e-07 1.52943e-07 1.52964e-07 1.52989e-07 1.53019e-07 1.53064e-07);
    }
    inlet
    {
        type            calculated;
        value           uniform -0.00627279;
    }
    outlet
    {
        type            calculated;
        value           nonuniform List<scalar> 2(0.00453848 0.000745732);
    }
}


// ************************************************************************* //
