// -*- C++ -*-
// File generated by PyFoam - sorry for the ugliness

FoamFile
{
 version 2.0;
 format ascii;
 class volVectorField;
 location "1400";
 object U;
}

dimensions [ 0 1 -1 0 0 0 0 ];

internalField nonuniform List<vector> 459
(
  (0.346264 -0.156702 0)
  (0.268681 -0.149032 0)
  (0.400701 -0.0995304 0)
  (0.5026 -0.0655039 0)
  (0.549569 -0.0458183 0)
  (0.567134 -0.0327395 0)
  (0.572729 -0.0225882 0)
  (0.568874 -0.0137679 0)
  (0.555074 -0.00550538 0)
  (0.530719 0.00286703 0)
  (0.49493 0.0121077 0)
  (0.445907 0.0233827 0)
  (0.379846 0.0394184 0)
  (0.284694 0.0697703 0)
  (0.210386 0.150365 0)
  (0.018865 0.0110614 0)
  (-0.0252325 -0.00339963 0)
  (-0.0181528 -0.00462488 0)
  (-0.016997 -0.0033316 0)
  (-0.0150664 -0.00327387 0)
  (-0.0116201 -0.00511963 0)
  (-0.00498995 -0.00892025 0)
  (0.00329116 -0.00951102 0)
  (0.00966673 -0.00600219 0)
  (0.0136875 -0.00429674 0)
  (0.0161958 -0.00328597 0)
  (0.0182523 -0.00259691 0)
  (0.020214 -0.00219548 0)
  (0.0219069 -0.00189046 0)
  (0.0234197 -0.000994306 0)
  (0.0224118 0.000323575 0)
  (0.0212673 -0.000517239 0)
  (0.0251602 -0.000136641 0)
  (-0.0152116 0.00966579 0)
  (0.450698 -0.328614 0)
  (0.211736 -0.249514 0)
  (0.327589 -0.136843 0)
  (0.408969 -0.0698735 0)
  (0.44005 -0.0355942 0)
  (0.451806 -0.0135056 0)
  (0.457715 0.00482634 0)
  (0.45694 0.0208049 0)
  (0.447358 0.03538 0)
  (0.428394 0.0499357 0)
  (0.399589 0.0657982 0)
  (0.360671 0.0844586 0)
  (0.312927 0.108309 0)
  (0.259657 0.142193 0)
  (0.23001 0.201607 0)
  (0.201215 0.174555 0)
  (0.0949334 0.119411 0)
  (0.072028 0.00866312 0)
  (0.0333222 0.00621439 0)
  (0.0192008 0.00394559 0)
  (0.0118297 0.00302985 0)
  (0.00548618 0.00217478 0)
  (-0.00301896 -0.00156224 0)
  (-0.002727 -0.0102411 0)
  (-0.00563904 -0.0117969 0)
  (-0.00206102 -0.00541208 0)
  (0.000904845 -0.00304547 0)
  (0.00133818 -0.00241441 0)
  (0.000996884 -0.00221743 0)
  (0.000124049 -0.00205757 0)
  (-0.00159048 -0.00104122 0)
  (-0.00443898 0.00121224 0)
  (-0.00496682 0.00236243 0)
  (-0.00152046 -0.000121571 0)
  (0.00558366 0.00449636 0)
  (-0.0795319 0.0199298 0)
  (0.491039 -0.501785 0)
  (0.0810008 -0.338902 0)
  (0.220195 -0.182845 0)
  (0.281762 -0.103285 0)
  (0.295819 -0.0643048 0)
  (0.303372 -0.0373478 0)
  (0.310477 -0.0137361 0)
  (0.31506 0.00946574 0)
  (0.312844 0.0334017 0)
  (0.303265 0.0588373 0)
  (0.285917 0.0863416 0)
  (0.260848 0.116347 0)
  (0.229526 0.149267 0)
  (0.192928 0.185002 0)
  (0.164365 0.222674 0)
  (0.126042 0.185139 0)
  (0.0658138 0.140935 0)
  (0.0457535 -0.0130027 0)
  (-0.0106643 -0.00039518 0)
  (-0.00561254 0.00484721 0)
  (-0.00313047 0.00523909 0)
  (-0.00121177 0.00490455 0)
  (-0.000896217 0.0041711 0)
  (0.00406371 -0.00708696 0)
  (-0.015206 -0.0128421 0)
  (-0.0226184 -0.00911518 0)
  (-0.0265413 -0.00725163 0)
  (-0.0293675 -0.00580266 0)
  (-0.0315865 -0.00441519 0)
  (-0.0332659 -0.00305175 0)
  (-0.033681 -0.00173486 0)
  (-0.0313868 -0.000539287 0)
  (-0.0263411 0.00174981 0)
  (-0.0221195 0.00409328 0)
  (-0.0282871 0.00531602 0)
  (-0.0757031 0.00507188 0)
  (0.507128 -0.612582 0)
  (-0.0457861 -0.385363 0)
  (0.139811 -0.204079 0)
  (0.171218 -0.117139 0)
  (0.164398 -0.0746022 0)
  (0.169198 -0.0429735 0)
  (0.176785 -0.0150818 0)
  (0.184405 0.012258 0)
  (0.186961 0.0407665 0)
  (0.183965 0.0716483 0)
  (0.174854 0.105167 0)
  (0.159302 0.140991 0)
  (0.137776 0.178217 0)
  (0.109101 0.215025 0)
  (0.0833553 0.248744 0)
  (0.0508936 0.230052 0)
  (0.0183204 0.190541 0)
  (-0.0576623 0.0315446 0)
  (-0.0375567 0.00147054 0)
  (-0.0427007 0.00332925 0)
  (-0.0428691 0.00511273 0)
  (-0.0449285 0.0060666 0)
  (-0.0486864 0.00526853 0)
  (-0.0537641 0.00266449 0)
  (-0.0583777 -0.000274823 0)
  (-0.0592684 -0.00208561 0)
  (-0.0586161 -0.00333153 0)
  (-0.0564782 -0.00419539 0)
  (-0.0533119 -0.00482912 0)
  (-0.0493912 -0.00532203 0)
  (-0.0447794 -0.00573422 0)
  (-0.0392204 -0.00604735 0)
  (-0.0320531 -0.00596925 0)
  (-0.024594 -0.00528556 0)
  (-0.0142534 -0.00485692 0)
  (-0.00181553 -0.00542114 0)
  (-0.00494999 -0.00380098 0)
  (0.495169 -0.673139 0)
  (-0.134747 -0.414238 0)
  (0.087152 -0.215983 0)
  (0.0777137 -0.114957 0)
  (0.0491194 -0.0782714 0)
  (0.0585126 -0.0494077 0)
  (0.067183 -0.0223909 0)
  (0.0757632 0.00681537 0)
  (0.0793223 0.0394899 0)
  (0.0787867 0.0757441 0)
  (0.0736868 0.115021 0)
  (0.0634736 0.156402 0)
  (0.0482166 0.198639 0)
  (0.0261808 0.23987 0)
  (0.00801155 0.277019 0)
  (-0.0153147 0.265534 0)
  (-0.0258556 0.212804 0)
  (-0.0590852 0.0428106 0)
  (-0.0525868 0.00772034 0)
  (-0.0606168 0.00576923 0)
  (-0.063709 0.00733799 0)
  (-0.0649666 0.00849673 0)
  (-0.0653174 0.00823199 0)
  (-0.0652143 0.00639685 0)
  (-0.0646977 0.00350942 0)
  (-0.0637344 0.00044528 0)
  (-0.0623995 -0.0018903 0)
  (-0.0606094 -0.00359241 0)
  (-0.0584157 -0.00487834 0)
  (-0.0558977 -0.00599617 0)
  (-0.0530435 -0.00723816 0)
  (-0.0496353 -0.00894871 0)
  (-0.0451681 -0.0114405 0)
  (-0.0388368 -0.0147752 0)
  (-0.0295075 -0.0188111 0)
  (-0.0153434 -0.0239553 0)
  (0.00788294 -0.0275917 0)
  (0.037669 -0.0371465 0)
  (0.0793551 -0.0196351 0)
  (-0.0498411 0.0249255 0)
  (0.444409 -0.686292 0)
  (-0.175552 -0.425339 0)
  (0.0325304 -0.205417 0)
  (-0.0066628 -0.0859864 0)
  (-0.0454207 -0.0783587 0)
  (-0.0320362 -0.0568007 0)
  (-0.0261577 -0.0311749 0)
  (-0.0194504 0.000297951 0)
  (-0.0178006 0.0374678 0)
  (-0.0177192 0.0779797 0)
  (-0.0201614 0.121778 0)
  (-0.0258406 0.167847 0)
  (-0.0348236 0.214717 0)
  (-0.047631 0.259205 0)
  (-0.0548845 0.292612 0)
  (-0.0631249 0.278964 0)
  (-0.0572171 0.210472 0)
  (-0.0640626 0.053376 0)
  (-0.0616903 0.0165618 0)
  (-0.0672938 0.00979826 0)
  (-0.0690079 0.0085439 0)
  (-0.0684267 0.0079153 0)
  (-0.066587 0.00658707 0)
  (-0.0643255 0.00428899 0)
  (-0.0622053 0.0013801 0)
  (-0.0604155 -0.00150182 0)
  (-0.0590745 -0.00379537 0)
  (-0.0580494 -0.00548214 0)
  (-0.0573396 -0.00671109 0)
  (-0.0570328 -0.00772816 0)
  (-0.0572205 -0.00892145 0)
  (-0.0578631 -0.0108636 0)
  (-0.0586345 -0.0142465 0)
  (-0.0587425 -0.0196916 0)
  (-0.0568945 -0.0276053 0)
  (-0.0513857 -0.0386454 0)
  (-0.0409415 -0.0516425 0)
  (-0.0287905 -0.0608603 0)
  (0.0404748 -0.0184467 0)
  (-0.101554 0.0706864 0)
  (0.338324 -0.631114 0)
  (-0.184045 -0.392031 0)
  (-0.0717533 -0.177168 0)
  (-0.0840022 -0.0553707 0)
  (-0.137525 -0.0750623 0)
  (-0.125381 -0.0605701 0)
  (-0.120629 -0.0347015 0)
  (-0.115826 -0.00109564 0)
  (-0.111087 0.0372254 0)
  (-0.108551 0.0791521 0)
  (-0.106536 0.124571 0)
  (-0.105393 0.172516 0)
  (-0.105001 0.22099 0)
  (-0.104867 0.265064 0)
  (-0.0991206 0.292509 0)
  (-0.0913201 0.272948 0)
  (-0.0730866 0.193246 0)
  (-0.0650012 0.0568339 0)
  (-0.0633405 0.0209262 0)
  (-0.0648361 0.0112464 0)
  (-0.063597 0.00762592 0)
  (-0.06064 0.00542717 0)
  (-0.0569093 0.00340509 0)
  (-0.053193 0.00119594 0)
  (-0.0500516 -0.00111607 0)
  (-0.0479793 -0.0031953 0)
  (-0.0468132 -0.00480426 0)
  (-0.0464313 -0.00584713 0)
  (-0.0468593 -0.00633359 0)
  (-0.0483177 -0.00641144 0)
  (-0.0512204 -0.00647793 0)
  (-0.0560278 -0.00728511 0)
  (-0.0630182 -0.00980814 0)
  (-0.0719818 -0.0148945 0)
  (-0.0823624 -0.0232251 0)
  (-0.0930613 -0.0351816 0)
  (-0.100631 -0.048572 0)
  (-0.100798 -0.0519913 0)
  (-0.100306 -0.0142093 0)
  (-0.161358 0.118639 0)
  (0.177223 -0.493423 0)
  (-0.29461 -0.3091 0)
  (-0.281104 -0.162198 0)
  (-0.183441 -0.0304628 0)
  (-0.249705 -0.0855106 0)
  (-0.221245 -0.0720719 0)
  (-0.210514 -0.0429097 0)
  (-0.202694 -0.00658679 0)
  (-0.194559 0.033411 0)
  (-0.187863 0.0757581 0)
  (-0.17963 0.12077 0)
  (-0.169428 0.167869 0)
  (-0.156887 0.214796 0)
  (-0.141623 0.255678 0)
  (-0.121394 0.277128 0)
  (-0.0990556 0.252624 0)
  (-0.0719637 0.169041 0)
  (-0.0554592 0.0541447 0)
  (-0.0531053 0.0203801 0)
  (-0.0508639 0.00912705 0)
  (-0.046183 0.00393755 0)
  (-0.040305 0.000897304 0)
  (-0.0346984 -0.000947315 0)
  (-0.0301841 -0.0022579 0)
  (-0.027087 -0.00336624 0)
  (-0.025198 -0.00432667 0)
  (-0.0242901 -0.0050045 0)
  (-0.0241481 -0.00520159 0)
  (-0.0246668 -0.00473225 0)
  (-0.0259282 -0.00349479 0)
  (-0.0282773 -0.00157703 0)
  (-0.0321885 0.000622466 0)
  (-0.0391372 0.00202567 0)
  (-0.0512547 0.000574975 0)
  (-0.0707371 -0.00658235 0)
  (-0.0977631 -0.0213107 0)
  (-0.126786 -0.0423829 0)
  (-0.156633 -0.0685331 0)
  (-0.203421 -0.0959289 0)
  (-0.390251 -0.123203 0)
  (-0.0644768 -0.348097 0)
  (-0.618643 -0.299658 0)
  (-0.82291 -0.282324 0)
  (-0.229779 -0.149568 0)
  (-0.342074 -0.126542 0)
  (-0.289725 -0.0912134 0)
  (-0.275354 -0.0538974 0)
  (-0.267816 -0.0165294 0)
  (-0.25965 0.023125 0)
  (-0.249128 0.0648022 0)
  (-0.23407 0.107532 0)
  (-0.21365 0.151203 0)
  (-0.187571 0.193917 0)
  (-0.156315 0.230091 0)
  (-0.120935 0.247115 0)
  (-0.0855619 0.221828 0)
  (-0.0504622 0.142787 0)
  (-0.0265883 0.0479015 0)
  (-0.0240348 0.0176878 0)
  (-0.0197668 0.00630088 0)
  (-0.0115582 0.00078506 0)
  (-0.00506573 -0.00152761 0)
  (-0.000108304 -0.00213446 0)
  (0.00331857 -0.00216583 0)
  (0.00542212 -0.00219161 0)
  (0.00653609 -0.00230697 0)
  (0.00690963 -0.00237374 0)
  (0.00678145 -0.0021672 0)
  (0.0063735 -0.00144018 0)
  (0.00588851 2.10057e-05 0)
  (0.00552108 0.00231841 0)
  (0.00551064 0.0054434 0)
  (0.00593275 0.0090935 0)
  (0.0067172 0.0122402 0)
  (0.00768616 0.0131515 0)
  (0.0100605 0.0107328 0)
  (0.0113858 0.00520956 0)
  (0.0164134 -0.00380313 0)
  (0.043116 -0.0530399 0)
  (-0.259355 -0.165975 0)
  (-1.83117 -0.299865 0)
  (-0.101368 -0.268469 0)
  (-0.325683 -0.164185 0)
  (-0.308311 -0.098449 0)
  (-0.308523 -0.0446483 0)
  (-0.306939 -5.17201e-06 0)
  (-0.300144 0.0351079 0)
  (-0.287422 0.0645114 0)
  (-0.266873 0.095474 0)
  (-0.237063 0.128152 0)
  (-0.197927 0.161038 0)
  (-0.151033 0.189567 0)
  (-0.100141 0.203284 0)
  (-0.050811 0.182201 0)
  (-0.00172636 0.110986 0)
  (0.0297596 0.0414445 0)
  (0.0336827 0.0169449 0)
  (0.0377559 0.00442563 0)
  (0.0407817 -0.00238302 0)
  (0.0423914 -0.0042268 0)
  (0.0431792 -0.00385125 0)
  (0.0435307 -0.00290735 0)
  (0.0436154 -0.0020772 0)
  (0.0434696 -0.00146638 0)
  (0.0430932 -0.00091653 0)
  (0.0425363 -0.000199564 0)
  (0.0419341 0.000905589 0)
  (0.0415239 0.00257325 0)
  (0.0416617 0.00484285 0)
  (0.0426279 0.00729259 0)
  (0.0451115 0.0091851 0)
  (0.0492808 0.00942213 0)
  (0.0551298 0.00561797 0)
  (0.0623155 -0.0035165 0)
  (0.0688084 -0.0159308 0)
  (0.0738934 -0.0301527 0)
  (0.0867538 -0.059302 0)
  (-0.026427 -0.123126 0)
  (-0.295095 0.0285582 0)
  (-0.0160184 -0.240823 0)
  (-0.231916 -0.176645 0)
  (-0.282431 -0.151274 0)
  (-0.316819 -0.131238 0)
  (-0.332607 -0.10735 0)
  (-0.332153 -0.0742835 0)
  (-0.317567 -0.032915 0)
  (-0.290852 0.00372242 0)
  (-0.25107 0.0382562 0)
  (-0.198496 0.0716001 0)
  (-0.135517 0.101175 0)
  (-0.0674619 0.117483 0)
  (0.00920365 0.0945644 0)
  (0.0715881 0.0249195 0)
  (0.104963 -0.0345057 0)
  (0.112674 -0.0708299 0)
  (0.109555 -0.0894113 0)
  (0.10275 -0.0929942 0)
  (0.0959281 -0.0902065 0)
  (0.0906178 -0.0857205 0)
  (0.0869516 -0.0816217 0)
  (0.0844692 -0.0785572 0)
  (0.0826343 -0.0765029 0)
  (0.0810564 -0.0751857 0)
  (0.0795577 -0.0742867 0)
  (0.0781656 -0.073524 0)
  (0.0770869 -0.0726821 0)
  (0.0766839 -0.0716174 0)
  (0.0772034 -0.0702453 0)
  (0.0787142 -0.0687604 0)
  (0.0813017 -0.067975 0)
  (0.0843595 -0.0684582 0)
  (0.086601 -0.0699976 0)
  (0.0872936 -0.0721823 0)
  (0.0847393 -0.0733317 0)
  (0.10612 -0.0802977 0)
  (-0.00460131 -0.12802 0)
  (0.563134 0.213932 0)
  (0.227389 -0.210739 0)
  (-0.184014 0.292176 0)
  (-0.0213263 0.135314 0)
  (-0.185279 0.18882 0)
  (-0.246748 0.218831 0)
  (-0.289558 0.231771 0)
  (-0.314366 0.234156 0)
  (-0.322121 0.227432 0)
  (-0.311893 0.215245 0)
  (-0.283115 0.211074 0)
  (-0.236367 0.212831 0)
  (-0.173386 0.219665 0)
  (-0.0991455 0.230528 0)
  (-0.0109177 0.240977 0)
  (0.0809032 0.234102 0)
  (0.139246 0.230544 0)
  (0.171139 0.23898 0)
  (0.180759 0.251038 0)
  (0.178736 0.257902 0)
  (0.172677 0.254244 0)
  (0.166411 0.246056 0)
  (0.160347 0.237663 0)
  (0.154318 0.231115 0)
  (0.148353 0.226939 0)
  (0.142589 0.224884 0)
  (0.137164 0.224374 0)
  (0.132195 0.224758 0)
  (0.127781 0.225444 0)
  (0.123989 0.225969 0)
  (0.120839 0.225988 0)
  (0.118253 0.225185 0)
  (0.115957 0.223321 0)
  (0.113262 0.220318 0)
  (0.108825 0.215988 0)
  (0.100714 0.210118 0)
  (0.0862825 0.202596 0)
  (0.060366 0.192135 0)
  (0.117444 0.18264 0)
  (-0.352169 0.332175 0)
)
;

boundaryField
{
  floor
  {
    type noSlip;
  }
  ceiling
  {
    type noSlip;
  }
  sWall
  {
    type noSlip;
  }
  nWall
  {
    type noSlip;
  }
  sideWalls
  {
    type empty;
  }
  glass1
  {
    type noSlip;
  }
  glass2
  {
    type noSlip;
  }
  sun
  {
    type noSlip;
  }
  heatsource1
  {
    type noSlip;
  }
  heatsource2
  {
    type noSlip;
  }
  Table_master
  {
    type noSlip;
  }
  Table_slave
  {
    type noSlip;
  }
  inlet
  {
    type fixedValue;
    value uniform (0.1 0 0);
  }
  outlet
  {
    type zeroGradient;
  }
} 	// ************************************************************************* //

