// -*- C++ -*-
// File generated by PyFoam - sorry for the ugliness

FoamFile
{
 version 2.0;
 format ascii;
 class volScalarField;
 location "500";
 object T;
}

dimensions [ 0 0 0 1 0 0 0 ];

internalField nonuniform List<scalar> 459
(
  303.554
  303.29
  303.278
  303.275
  303.273
  303.269
  303.266
  303.261
  303.255
  303.246
  303.234
  303.221
  303.209
  303.2
  303.196
  303.24
  303.222
  303.215
  303.215
  303.216
  303.217
  303.218
  303.219
  303.22
  303.221
  303.221
  303.222
  303.223
  303.223
  303.223
  303.224
  303.224
  303.225
  303.238
  303.736
  303.333
  303.311
  303.315
  303.32
  303.323
  303.323
  303.32
  303.312
  303.295
  303.271
  303.244
  303.219
  303.199
  303.184
  303.175
  303.168
  303.238
  303.214
  303.208
  303.207
  303.206
  303.206
  303.205
  303.203
  303.201
  303.199
  303.197
  303.196
  303.194
  303.192
  303.191
  303.192
  303.194
  303.197
  303.221
  303.925
  303.383
  303.345
  303.357
  303.373
  303.386
  303.395
  303.397
  303.388
  303.362
  303.322
  303.276
  303.234
  303.204
  303.186
  303.178
  303.174
  303.199
  303.2
  303.203
  303.207
  303.21
  303.211
  303.209
  303.206
  303.203
  303.2
  303.197
  303.194
  303.191
  303.189
  303.186
  303.185
  303.185
  303.187
  303.213
  304.114
  303.444
  303.378
  303.395
  303.423
  303.451
  303.474
  303.487
  303.478
  303.439
  303.377
  303.306
  303.247
  303.207
  303.184
  303.177
  303.178
  303.184
  303.19
  303.2
  303.21
  303.218
  303.224
  303.228
  303.231
  303.234
  303.236
  303.238
  303.239
  303.239
  303.239
  303.237
  303.235
  303.216
  303.2
  303.19
  303.211
  304.295
  303.522
  303.415
  303.425
  303.46
  303.501
  303.542
  303.572
  303.562
  303.506
  303.42
  303.325
  303.25
  303.203
  303.179
  303.174
  303.178
  303.188
  303.2
  303.214
  303.227
  303.238
  303.246
  303.252
  303.257
  303.26
  303.263
  303.265
  303.265
  303.264
  303.261
  303.256
  303.249
  303.234
  303.214
  303.198
  303.206
  303.265
  303.303
  303.311
  304.456
  303.622
  303.481
  303.463
  303.491
  303.535
  303.589
  303.637
  303.617
  303.539
  303.432
  303.325
  303.241
  303.189
  303.168
  303.168
  303.18
  303.198
  303.217
  303.235
  303.251
  303.263
  303.272
  303.278
  303.282
  303.286
  303.288
  303.289
  303.288
  303.284
  303.278
  303.271
  303.261
  303.247
  303.228
  303.208
  303.206
  303.23
  303.243
  303.276
  304.599
  303.783
  303.638
  303.589
  303.588
  303.614
  303.667
  303.687
  303.637
  303.531
  303.402
  303.286
  303.202
  303.159
  303.149
  303.163
  303.188
  303.216
  303.243
  303.264
  303.28
  303.291
  303.299
  303.304
  303.307
  303.309
  303.31
  303.31
  303.308
  303.303
  303.294
  303.284
  303.272
  303.258
  303.24
  303.222
  303.214
  303.22
  303.228
  303.255
  304.813
  304.202
  304.042
  303.928
  303.857
  303.828
  303.813
  303.74
  303.608
  303.447
  303.297
  303.187
  303.126
  303.112
  303.13
  303.167
  303.21
  303.248
  303.279
  303.298
  303.31
  303.318
  303.323
  303.327
  303.329
  303.33
  303.33
  303.329
  303.326
  303.321
  303.313
  303.302
  303.29
  303.277
  303.264
  303.251
  303.248
  303.259
  303.278
  303.408
  305.117
  304.835
  304.572
  304.341
  304.157
  304.012
  303.854
  303.617
  303.372
  303.176
  303.057
  303.012
  303.023
  303.071
  303.135
  303.199
  303.258
  303.292
  303.313
  303.326
  303.335
  303.34
  303.344
  303.347
  303.348
  303.349
  303.349
  303.348
  303.346
  303.345
  303.344
  303.346
  303.35
  303.359
  303.375
  303.4
  303.433
  303.466
  303.489
  303.543
  296.925
  299.495
  300.932
  301.492
  301.743
  301.983
  302.217
  302.443
  302.652
  302.833
  302.982
  303.112
  303.213
  303.273
  303.309
  303.329
  303.341
  303.349
  303.355
  303.359
  303.362
  303.365
  303.367
  303.369
  303.371
  303.373
  303.375
  303.377
  303.38
  303.384
  303.39
  303.399
  303.414
  303.434
  303.458
  303.48
  303.495
  303.511
  297.554
  299.65
  300.726
  301.364
  301.774
  302.098
  302.384
  302.649
  302.883
  303.049
  303.166
  303.246
  303.296
  303.326
  303.343
  303.354
  303.361
  303.366
  303.37
  303.374
  303.377
  303.38
  303.383
  303.386
  303.388
  303.391
  303.393
  303.396
  303.399
  303.402
  303.407
  303.415
  303.425
  303.439
  303.454
  303.471
  303.466
  303.493
  299.692
  299.617
  299.613
  301.252
  301.964
  302.358
  302.639
  302.852
  303.002
  303.115
  303.198
  303.255
  303.295
  303.321
  303.338
  303.348
  303.355
  303.36
  303.364
  303.367
  303.371
  303.375
  303.378
  303.381
  303.385
  303.388
  303.391
  303.394
  303.397
  303.4
  303.403
  303.407
  303.411
  303.415
  303.422
  303.432
  303.442
  303.447
  303.447
  303.484
)
;

boundaryField
{
  floor
  {
    type wallHeatTransfer;
    Tinf uniform 305.2;
    alphaWall uniform 0.24;
    value nonuniform List<scalar> 29
(
  303.394
  303.633
  303.568
  303.542
  303.548
  303.559
  303.573
  303.588
  303.604
  303.62
  303.635
  303.649
  303.663
  303.676
  303.689
  303.702
  303.715
  303.729
  303.738
  303.772
  303.772
  303.669
  303.62
  303.591
  303.394
  303.633
  303.595
  303.424
  303.368
)
;
  }
  ceiling
  {
    type wallHeatTransfer;
    Tinf uniform 303.2;
    alphaWall uniform 0.24;
    value nonuniform List<scalar> 43
(
  299.939
  299.858
  299.846
  301.374
  302.045
  302.416
  302.68
  302.878
  303.018
  303.122
  303.198
  303.249
  303.284
  303.306
  303.318
  303.324
  303.328
  303.332
  303.335
  303.338
  303.341
  303.345
  303.348
  303.352
  303.355
  303.359
  303.362
  303.366
  303.369
  303.373
  303.377
  303.381
  303.385
  303.391
  303.398
  303.409
  303.418
  303.422
  303.421
  303.452
  305.028
  304.77
  297.907
)
;
  }
  sWall
  {
    type wallHeatTransfer;
    Tinf uniform 315.2;
    alphaWall uniform 0.36;
    value uniform 301.277;
  }
  nWall
  {
    type wallHeatTransfer;
    Tinf uniform 307.2;
    alphaWall uniform 0.36;
    value nonuniform List<scalar> 6
(
  304.037
  303.988
  303.916
  304.045
  304.024
  304.083
)
;
  }
  sideWalls
  {
    type empty;
  }
  glass1
  {
    type wallHeatTransfer;
    Tinf uniform 315.2;
    alphaWall uniform 4.3;
    value nonuniform List<scalar> 9
(
  311.671
  311.015
  310.596
  310.272
  310.001
  309.758
  309.568
  309.631
  309.851
)
;
  }
  glass2
  {
    type wallHeatTransfer;
    Tinf uniform 307.2;
    alphaWall uniform 4.3;
    value nonuniform List<scalar> 2
(
  305.762
  305.859
)
;
  }
  sun
  {
    type wallHeatTransfer;
    Tinf uniform 305.2;
    alphaWall uniform 0.24;
    value nonuniform List<scalar> 14
(
  303.738
  303.491
  303.478
  303.469
  303.461
  303.453
  303.445
  303.437
  303.428
  303.418
  303.407
  303.397
  303.391
  303.39
)
;
  }
  heatsource1
  {
    type fixedGradient;
    gradient uniform 0;
  }
  heatsource2
  {
    type fixedGradient;
    gradient uniform 0;
  }
  Table_master
  {
    type zeroGradient;
  }
  Table_slave
  {
    type zeroGradient;
  }
  inlet
  {
    type fixedValue;
    value uniform 293.15;
  }
  outlet
  {
    type zeroGradient;
  }
} 	// ************************************************************************* //

