/*--------------------------------*- C++ -*----------------------------------*\
  =========                 |
  \\      /  F ield         | OpenFOAM: The Open Source CFD Toolbox
   \\    /   O peration     | Website:  https://openfoam.org
    \\  /    A nd           | Version:  6
     \\/     M anipulation  |
\*---------------------------------------------------------------------------*/
FoamFile
{
    version     2.0;
    format      ascii;
    class       surfaceScalarField;
    location    "400";
    object      phi;
}
// * * * * * * * * * * * * * * * * * * * * * * * * * * * * * * * * * * * * * //

dimensions      [1 0 -1 0 0 0 0];

internalField   nonuniform List<scalar> 
852
(
-0.00286593
0.00292521
-0.00373381
0.000867926
-0.00448159
0.00074781
-0.00511486
0.000633316
-0.00560157
0.00048674
-0.00592087
0.000319342
-0.00604842
0.000127586
-0.0059552
-9.31821e-05
-0.00561518
-0.000339977
-0.00503096
-0.000584186
-0.00424444
-0.000786483
-0.00332481
-0.000919587
-0.00233801
-0.000986764
-0.00128081
-0.00105716
-0.00127906
-0.000594464
0.000597777
-0.000143819
-0.00045062
0.000488211
-0.000632005
0.000910961
-0.000422725
0.00116284
-0.000251854
0.00130328
-0.000140422
0.00137089
-6.75867e-05
0.00140296
-3.20384e-05
0.00141968
-1.67061e-05
0.00142804
-8.33059e-06
0.00143044
-2.37989e-06
0.00142732
3.14264e-06
0.001416
1.13373e-05
0.00138759
2.84355e-05
0.00132005
6.75597e-05
0.00117771
0.000142359
0.000950432
0.000227301
0.000700084
0.00025037
0.00070442
-0.00205455
0.00513899
-0.00297062
0.00178403
-0.00377171
0.00154894
-0.00440491
0.00126655
-0.00488532
0.000967195
-0.0052061
0.000640163
-0.00534447
0.000265994
-0.00526918
-0.000168434
-0.00495819
-0.000650934
-0.00442439
-0.00111794
-0.00372227
-0.00148856
-0.00292647
-0.00171534
-0.00211824
-0.00179496
-0.0014275
-0.00174787
-0.00119928
-0.00150724
-0.000340789
-0.000858508
-0.000340807
0.000669718
-6.29933e-05
0.00101156
-0.000792438
0.00117852
-0.00079894
0.00134856
-0.000592734
0.00147244
-0.000375712
0.00153316
-0.000201119
0.00153491
-6.93128e-05
0.00153533
-3.24365e-05
0.00153667
-1.80192e-05
0.00153797
-9.60584e-06
0.00153881
-3.19374e-06
0.00153881
3.15823e-06
0.00153691
1.32657e-05
0.00152922
3.61483e-05
0.00148706
0.000109736
0.00131118
0.000318261
0.00100708
0.000531421
0.00063363
0.000623842
0.00134896
-0.00145884
0.00684032
-0.0022893
0.00261453
-0.00301387
0.00227355
-0.00356257
0.00181529
-0.00398854
0.0013932
-0.00428626
0.000937925
-0.00442586
0.000405631
-0.00436219
-0.000232064
-0.00406152
-0.000951565
-0.00355293
-0.0016265
-0.00290901
-0.00213244
-0.00220832
-0.00241599
-0.00152848
-0.00247476
-0.000957278
-0.00231903
-0.000530875
-0.0019336
-9.51229e-05
-0.00129422
-0.000435894
0.00133638
-0.00138937
0.00156932
-0.00102534
0.00156564
-0.000795236
0.00158532
-0.000612382
0.00162214
-0.00041251
0.00161529
-0.000194241
0.00154615
0.00151389
0.00149605
0.00148662
0.0014836
0.00148694
0.00150038
0.0015367
0.00164662
0.00136357
0.00060133
0.00101454
0.000880467
0.000567933
0.00107048
0.00193334
-0.00104365
0.00819609
-0.00174748
0.00331841
-0.00223532
0.00276143
-0.00261365
0.00219366
-0.00292505
0.00170463
-0.00315743
0.00117035
-0.00327411
0.000522347
-0.00320553
-0.000300609
-0.00289661
-0.00126045
-0.00241638
-0.00210669
-0.0018567
-0.00269208
-0.00128779
-0.00298486
-0.000761987
-0.00300052
-0.000313086
-0.00276789
8.54275e-05
-0.00233207
0.000516349
-0.0017251
0.00118819
-0.0011077
0.00199578
-0.000797773
0.00154477
-0.000938327
0.00148795
-0.000968489
0.00147027
-0.000777536
0.00145986
-0.000601943
0.00148901
-0.000441636
0.0015753
-0.000280506
0.00172641
-0.000151245
0.00185204
-0.00012576
0.00196216
-0.000110251
0.00204922
-8.7188e-05
0.00209489
-4.58008e-05
0.00207552
1.92362e-05
0.00196809
0.000107305
0.00174396
0.000223999
0.00135213
0.000391695
0.0011945
0.000758985
0.00087026
0.00120473
0.000368486
0.00157227
0.00232324
-0.000747284
0.00931358
-0.00132595
0.00389711
-0.00144923
0.00288476
-0.00159225
0.00233671
-0.00173432
0.00184674
-0.00184546
0.00128153
-0.00189113
0.000568044
-0.00177234
-0.000419356
-0.00143631
-0.00159644
-0.00101656
-0.0025264
-0.000593938
-0.00311466
-0.000211473
-0.00336728
0.000107937
-0.00331989
0.000362171
-0.00302207
0.000576964
-0.00254682
0.000819176
-0.00196728
0.00111934
-0.00140783
0.00135226
-0.00103066
0.00131926
-0.000905304
0.00119472
-0.000843922
0.00112207
-0.000704856
0.0010867
-0.000566556
0.00109531
-0.000450221
0.00116007
-0.000345241
0.00128003
-0.000271188
0.00139508
-0.000240785
0.00150526
-0.000220408
0.00160322
-0.000185126
0.00167499
-0.000117543
0.00169807
-3.82525e-06
0.0016531
0.000152298
0.00153505
0.00034207
0.00135023
0.000576533
0.00118169
0.000927551
0.000994221
0.00139222
0.000587438
0.00197908
0.000385394
0.0025253
-0.00112131
0.00150652
-0.00156263
0.000441144
-0.00151285
-0.000658339
0.0103905
-0.00109903
0.00433784
-0.000720226
0.002506
-0.000534811
0.00215134
-0.000478919
0.00179089
-0.000433583
0.00123623
-0.000318691
0.000453187
-4.41e-05
-0.000693911
0.0002954
-0.00193591
0.000592113
-0.00282308
0.000811355
-0.00333386
0.000945578
-0.00350145
0.00100328
-0.00337754
0.0010102
-0.00302894
0.000992388
-0.00252897
0.000985569
-0.00196042
0.000995252
-0.00141748
0.000977862
-0.00101324
0.00087675
-0.000804166
0.000728934
-0.000696081
0.000624898
-0.000600797
0.000577081
-0.000518717
0.000581694
-0.000454812
0.000638247
-0.000401772
0.000732593
-0.000365513
0.000838846
-0.000347016
0.000948423
-0.000329963
0.00105719
-0.000293873
0.00115794
-0.000218265
0.00123574
-8.16109e-05
0.00127126
0.000116804
0.00126738
0.000345975
0.00123743
0.000606508
0.00123341
0.000931592
0.00130537
0.00132028
0.00145899
0.00182548
0.00189369
0.00209063
0.00213045
0.00126978
0.0017476
0.000824017
0.000294815
-0.000833989
0.0116851
-0.000791696
0.00429559
0.000242055
0.0014723
0.000731637
0.0016618
0.000942767
0.0015798
0.00115391
0.00102513
0.00152443
8.27104e-05
0.00196046
-0.00112989
0.00221531
-0.00219073
0.0023059
-0.00291364
0.00225325
-0.00328117
0.0020873
-0.00333546
0.00184221
-0.00313241
0.00155566
-0.00274235
0.00125955
-0.00223281
0.000983481
-0.00168432
0.000734864
-0.00116883
0.000519113
-0.000797463
0.000324591
-0.00060962
0.00016329
-0.000534758
5.73058e-05
-0.000494791
6.75354e-06
-0.000468144
1.56094e-06
-0.000449598
3.48908e-05
-0.00043508
9.54561e-05
-0.000426056
0.000170268
-0.000421806
0.000253653
-0.000413324
0.000347278
-0.000387476
0.000456761
-0.000327725
0.00058697
-0.000211796
0.000714571
-1.07737e-05
0.000828304
0.000232266
0.000949624
0.000485211
0.00112384
0.000757396
0.00140214
0.00104201
0.00185004
0.0013776
0.0025324
0.00140829
0.00306887
0.000733335
0.00313826
0.000754649
0.00350009
0.00243801
0.00976023
0.00300366
0.00372998
0.0031086
0.0013674
0.00323626
0.0015342
0.00335242
0.00146371
0.00364357
0.000734042
0.00408006
-0.000353721
0.00433199
-0.00138178
0.00430062
-0.00215932
0.00402435
-0.00263734
0.00357677
-0.00283357
0.00302595
-0.00278461
0.00242436
-0.00253078
0.00181879
-0.00213674
0.00123645
-0.00165044
0.000712788
-0.00116063
0.000256232
-0.000712246
-7.41254e-05
-0.000467084
-0.00029262
-0.000391105
-0.000436716
-0.00039064
-0.000532376
-0.00039911
-0.000592952
-0.000407546
-0.000627336
-0.000415192
-0.000640631
-0.000421762
-0.000638661
-0.000428004
-0.000627627
-0.000432818
-0.000609833
-0.000431096
-0.00058208
-0.000415207
-0.00053397
-0.000375812
-0.000443843
-0.000301899
-0.000276004
-0.000178589
-6.77655e-05
2.40504e-05
0.00015993
0.00025754
0.000442771
0.000474578
0.000796452
0.000688349
0.00127468
0.000899392
0.00180017
0.000882822
0.00199466
0.000538873
0.00115802
0.00159131
0.00492355
0.0103215
0.0140436
0.0123128
0.00309831
0.0108395
0.00300746
0.00974673
0.00255653
0.00899336
0.00148745
0.00821946
0.000420198
0.00731578
-0.000478096
0.00632371
-0.00116726
0.00530209
-0.00161572
0.00429152
-0.00182299
0.00331435
-0.00180743
0.00237645
-0.00159285
0.00151243
-0.00127269
0.000717848
-0.000855827
2.88416e-05
-0.000471596
-0.000457872
-0.000225512
-0.000730203
-0.000194733
-0.000897464
-0.000223823
-0.00102579
-0.000262294
-0.00113162
-0.000293258
-0.00122266
-0.000316489
-0.00130405
-0.000333771
-0.00137962
-0.000346174
-0.00145379
-0.000353811
-0.00153194
-0.000354641
-0.00161948
-0.000343539
-0.00172234
-0.000312325
-0.0018483
-0.00024983
-0.00200754
-0.00014263
-0.0022072
2.10903e-05
-0.00242971
0.000246583
-0.00271595
0.000543798
-0.00316948
0.000928136
-0.00388182
0.00140071
-0.0049131
0.0019307
-0.0063749
0.00234464
-0.00813937
0.00230336
-0.00761797
0.00106993
-0.00240011
0.00487054
0.00424954
0.0045367
0.00334099
0.00540548
0.00168745
0.00564885
0.0012438
0.00543832
0.000630448
0.00503612
-7.61168e-05
0.00445877
-0.000590073
0.00372781
-0.000884848
0.00289844
-0.000993677
0.00202742
-0.000936411
0.00112358
-0.000689004
0.000254846
-0.000403936
-0.000473841
-0.000127115
-0.000950966
5.55197e-06
-0.00118643
9.9771e-06
-0.00133533
-4.58117e-05
-0.00145798
-0.00010116
-0.00157596
-0.000144287
-0.00169405
-0.000175142
-0.00181403
-0.000196488
-0.00193725
-0.000210528
-0.00206499
-0.000218415
-0.00219866
-0.000220116
-0.00233934
-0.000213943
-0.00248668
-0.00019618
-0.00263789
-0.000161091
-0.0027865
-0.000101198
-0.00292165
-7.45079e-06
-0.00303095
0.000130413
-0.00311404
0.00032969
-0.0031852
0.000614978
-0.00325712
0.00100008
-0.00333053
0.00147414
-0.00335566
0.00195585
-0.00326966
0.00225866
-0.00289741
0.00193113
-0.00161659
-0.000210874
-0.00393901
-0.00061549
0.00491544
0.000908848
0.0018164
0.0014564
0.00113967
0.00182786
0.000872145
0.002011
0.00044715
0.00200625
-7.14285e-05
0.00173092
-0.000314771
0.00123347
-0.000387405
0.000575221
-0.000335428
-0.000183281
-0.000177876
-0.000894354
2.20932e-05
-0.00139236
9.40973e-05
-0.00162604
0.000106585
-0.00170506
8.45921e-05
-0.00174091
4.58469e-05
-0.0017919
5.19882e-06
-0.00186545
-2.75843e-05
-0.0019573
-5.24214e-05
-0.0020622
-7.02205e-05
-0.00217619
-8.24683e-05
-0.0022963
-9.03975e-05
-0.00241998
-9.47097e-05
-0.00254464
-9.54375e-05
-0.00266683
-9.17326e-05
-0.00278131
-8.16747e-05
-0.00288019
-6.21959e-05
-0.00295223
-2.91319e-05
-0.00298323
2.35688e-05
-0.00295932
0.000106522
-0.00285813
0.000228529
-0.00264749
0.000404359
-0.00230243
0.000655044
-0.00181216
0.000983886
-0.00115652
0.00130023
-0.000153697
0.00125586
0.00118497
0.000592491
0.00159332
-0.000619203
-0.00226032
-0.00771894
-0.0103573
-0.005401
-0.00356164
-0.0024047
-0.00151804
-0.00105806
-0.00111896
-0.00142705
-0.00181053
-0.00214361
-0.00232016
-0.00229749
-0.00220334
-0.00209712
-0.00201318
-0.00196818
-0.00196396
-0.00199262
-0.00204622
-0.00211768
-0.00220146
-0.00229322
-0.00238934
-0.00248621
-0.00257941
-0.00266258
-0.00272627
-0.0027569
-0.00273483
-0.00262979
-0.00240274
-0.00199986
-0.00134631
-0.000363945
0.000934664
0.00218876
0.00277937
0.00215816
)
;

boundaryField
{
    floor
    {
        type            calculated;
        value           nonuniform List<scalar> 
29
(
0
0
0
0
0
0
0
0
0
0
0
0
0
0
0
0
0
0
0
0
-4.31517e-06
-1.08935e-05
-1.64224e-05
-2.1388e-05
-1.71564e-06
-3.29017e-06
-8.92241e-06
-9.97154e-06
-9.78821e-06
)
;
    }
    ceiling
    {
        type            calculated;
        value           nonuniform List<scalar> 
43
(
-4.34273e-05
-4.21792e-05
-4.08809e-05
-2.29331e-05
-1.7162e-05
-1.42936e-05
-1.23937e-05
-1.00016e-05
-6.43304e-06
-3.86281e-06
-2.32762e-06
-1.31102e-06
-5.6025e-07
-4.15951e-08
3.8513e-07
6.75733e-07
8.65116e-07
1.00009e-06
1.1034e-06
1.19099e-06
1.26619e-06
1.33015e-06
1.38372e-06
1.42766e-06
1.46261e-06
1.48918e-06
1.50781e-06
1.51885e-06
1.52234e-06
1.51778e-06
1.50755e-06
1.49974e-06
1.4988e-06
1.51046e-06
1.54506e-06
1.64388e-06
1.77639e-06
1.90426e-06
2.03371e-06
2.93013e-06
1.11308e-05
7.84972e-06
-5.06011e-05
)
;
    }
    sWall
    {
        type            calculated;
        value           uniform -0.000264137;
    }
    nWall
    {
        type            calculated;
        value           nonuniform List<scalar> 6(-4.99664e-05 -6.00469e-05 -6.6989e-05 -7.76591e-05 -8.53532e-05 -0.000105075);
    }
    sideWalls
    {
        type            empty;
        value           nonuniform 0();
    }
    glass1
    {
        type            calculated;
        value           nonuniform List<scalar> 9(-5.92462e-05 -0.00015919 -0.000242463 -0.000312092 -0.000370182 -0.00041853 -0.000460578 -0.000513139 -0.000572346);
    }
    glass2
    {
        type            calculated;
        value           nonuniform List<scalar> 2(-0.000265429 -0.00029429);
    }
    sun
    {
        type            calculated;
        value           uniform 0;
    }
    heatsource1
    {
        type            calculated;
        value           nonuniform List<scalar> 3(2.04284e-07 2.04194e-07 2.04208e-07);
    }
    heatsource2
    {
        type            calculated;
        value           nonuniform List<scalar> 4(5.10892e-08 5.12313e-08 0 0);
    }
    Table_master
    {
        type            calculated;
        value           nonuniform List<scalar> 9(-1.53215e-07 -1.53262e-07 -1.53282e-07 -1.53297e-07 -1.53309e-07 -1.53317e-07 -1.5332e-07 -1.53315e-07 -1.53284e-07);
    }
    Table_slave
    {
        type            calculated;
        value           nonuniform List<scalar> 9(1.53113e-07 1.53098e-07 1.53064e-07 1.53038e-07 1.53026e-07 1.53032e-07 1.53047e-07 1.53092e-07 1.53179e-07);
    }
    inlet
    {
        type            calculated;
        value           uniform -0.006022;
    }
    outlet
    {
        type            calculated;
        value           nonuniform List<scalar> 2(0.00802646 0.0026805);
    }
}


// ************************************************************************* //
