/*--------------------------------*- C++ -*----------------------------------*\
  =========                 |
  \\      /  F ield         | OpenFOAM: The Open Source CFD Toolbox
   \\    /   O peration     | Website:  https://openfoam.org
    \\  /    A nd           | Version:  6
     \\/     M anipulation  |
\*---------------------------------------------------------------------------*/
FoamFile
{
    version     2.0;
    format      ascii;
    class       volScalarField;
    location    "1000";
    object      nut;
}
// * * * * * * * * * * * * * * * * * * * * * * * * * * * * * * * * * * * * * //

dimensions      [0 2 -1 0 0 0 0];

internalField   nonuniform List<scalar> 
459
(
0.00108214
0.00118258
0.00120471
0.0012627
0.00131641
0.0013667
0.00141604
0.00146404
0.00149773
0.00151161
0.00150064
0.00146177
0.00139482
0.00130533
0.001207
0.000475216
0.000580989
0.000653736
0.0006498
0.000627421
0.000597965
0.000560994
0.000524367
0.000491125
0.000461612
0.00043548
0.000412265
0.000391619
0.000373085
0.000356001
0.000339507
0.000322338
0.000309938
0.000282112
0.00147413
0.00361121
0.00345984
0.0040278
0.00458585
0.00514286
0.00563256
0.00600157
0.00633429
0.00660362
0.00677187
0.00679657
0.0066129
0.00605761
0.00453623
0.00123166
0.000722175
0.000513412
0.00107921
0.00149107
0.00178565
0.0019417
0.00193434
0.00155439
0.00134085
0.00118804
0.00107067
0.000977281
0.000901242
0.00083575
0.000774645
0.000715302
0.000662459
0.000616519
0.000722078
0.000367908
0.00180011
0.00493344
0.00429896
0.00539123
0.00593623
0.00633935
0.00665133
0.00690047
0.00717041
0.00745142
0.00770967
0.00789794
0.00796376
0.00782874
0.00728612
0.00561219
0.00122739
0.00102294
0.00147128
0.00188603
0.00225477
0.00250343
0.0024323
0.000803357
0.000709146
0.000633493
0.000572471
0.000522772
0.000481862
0.00044792
0.000419787
0.000396984
0.000427974
0.00049532
0.000812827
0.000425131
0.00211272
0.00630046
0.00431494
0.00571082
0.00619005
0.00635143
0.00645553
0.00658325
0.00679872
0.00708742
0.00741327
0.00771771
0.0079459
0.00803524
0.00791558
0.00733401
0.00534853
0.00146738
0.00181934
0.00234896
0.00285909
0.00326082
0.00350324
0.00327647
0.00090673
0.000825109
0.000766548
0.000721839
0.000683871
0.000649169
0.000615893
0.00058107
0.000540811
0.00050739
0.000519295
0.000928299
0.000469487
0.00243136
0.00805332
0.00474247
0.00550255
0.0061371
0.00617809
0.00612269
0.00619219
0.00638247
0.00667652
0.00704202
0.00739893
0.00767113
0.00779812
0.00775902
0.00751222
0.00688947
0.00570257
0.00529748
0.00516625
0.00512347
0.00509658
0.00504177
0.00484428
0.00408336
0.00371712
0.00350338
0.00333835
0.0031654
0.00291762
0.0025848
0.00218155
0.00173399
0.00128345
0.000946473
0.000952652
0.000631147
0.000578068
0.000700212
0.000786052
0.00276906
0.00996193
0.00651743
0.0054812
0.00595999
0.00617217
0.00603193
0.0060881
0.00623108
0.00649375
0.00686309
0.00725418
0.00755376
0.00767535
0.00760008
0.00737642
0.00708226
0.00678036
0.00661444
0.00649361
0.00635532
0.0061948
0.00601132
0.00577781
0.00543112
0.00511974
0.00484342
0.00457939
0.00431189
0.00402226
0.00365995
0.00321118
0.00267609
0.00208516
0.00156367
0.00117253
0.000882546
0.000748288
0.00106595
0.000820353
0.00307591
0.0112963
0.00911642
0.00705678
0.00668235
0.00659022
0.00636221
0.0062207
0.00626726
0.00652452
0.00693423
0.00737035
0.00768566
0.00777866
0.0076409
0.00737204
0.00714511
0.00707438
0.00709297
0.00703678
0.00685912
0.00659318
0.00627014
0.00590743
0.00552281
0.00516445
0.00483614
0.00453119
0.00425008
0.00399926
0.00377859
0.00347909
0.00306149
0.00255321
0.00206535
0.00163002
0.00130961
0.00121051
0.0012332
0.0009354
0.00313508
0.0100436
0.00892944
0.0082526
0.00763866
0.00693424
0.00639134
0.00618159
0.00632283
0.00673788
0.00728406
0.00778074
0.00806068
0.00804609
0.00777955
0.00743205
0.00723024
0.0072411
0.00725725
0.00704647
0.00666742
0.00619401
0.00568797
0.00520271
0.00477495
0.00441441
0.00410905
0.0038519
0.00364597
0.00349882
0.00341745
0.00337628
0.00316756
0.00284251
0.00255748
0.00241283
0.00250651
0.00288514
0.00353707
0.00146005
0.00305155
0.0036175
0.00401418
0.00410933
0.00419589
0.00443569
0.00491471
0.00563904
0.00652251
0.00741158
0.00814183
0.00855956
0.00856578
0.00821459
0.00769619
0.00735318
0.0071596
0.00699146
0.00670113
0.00623162
0.00565035
0.00504631
0.0044953
0.00403709
0.00367338
0.0033839
0.00314712
0.00294979
0.00278326
0.00263886
0.00250733
0.00238726
0.00229268
0.00222323
0.0021971
0.00220682
0.00219414
0.00210592
0.00196799
0.00137328
0.00147704
0.00305274
0.00500503
0.00662674
0.00788994
0.00884955
0.00945092
0.0096845
0.00958597
0.0091528
0.00847591
0.0076442
0.00694589
0.00651548
0.00616138
0.00572365
0.00518715
0.00461243
0.00406483
0.00358943
0.0032119
0.0029204
0.00269331
0.0025134
0.00237073
0.00226035
0.00217975
0.00212765
0.00210562
0.00211095
0.00212979
0.00215814
0.0021882
0.00219592
0.00214247
0.00201538
0.00182406
0.0011421
0.00198209
0.00514226
0.00768804
0.00867693
0.00917232
0.00932531
0.00911422
0.00860355
0.00789974
0.00710914
0.00636254
0.00569976
0.00516508
0.00470649
0.00424259
0.00378621
0.00338119
0.00305087
0.00279453
0.00259845
0.00243977
0.00230625
0.00219245
0.00210042
0.00203325
0.00199034
0.00197025
0.00197143
0.00199846
0.00204852
0.0021181
0.00219976
0.00227721
0.00233064
0.00231273
0.00233808
0.00237306
0.00116466
0.00177513
0.0018811
0.00195608
0.00210779
0.00203994
0.00195853
0.00190516
0.00182825
0.00171738
0.00157957
0.00142469
0.00126385
0.00110825
0.000975421
0.000875337
0.000804136
0.000753415
0.00071654
0.000689507
0.000670031
0.000656689
0.000648617
0.000645245
0.000646777
0.000653682
0.000665823
0.000682935
0.000705366
0.000733692
0.000768637
0.000809332
0.000855843
0.000908671
0.000968252
0.00103409
0.00111226
0.00113764
0.00110841
0.00104135
0.000970299
)
;

boundaryField
{
    floor
    {
        type            nutkWallFunction;
        Cmu             0.09;
        kappa           0.41;
        E               9.8;
        value           nonuniform List<scalar> 
29
(
0.000144815
5.65303e-05
6.99631e-05
7.90255e-05
7.85385e-05
7.57621e-05
7.20896e-05
6.74487e-05
6.28138e-05
5.85726e-05
5.47771e-05
5.13912e-05
4.83616e-05
4.5649e-05
4.31984e-05
4.09255e-05
3.87177e-05
3.64048e-05
3.47244e-05
3.09202e-05
3.09201e-05
4.25105e-05
5.00425e-05
5.5792e-05
0.000144815
5.65302e-05
6.14196e-05
0.000123421
0.000174472
)
;
    }
    ceiling
    {
        type            nutkWallFunction;
        Cmu             0.09;
        kappa           0.41;
        E               9.8;
        value           nonuniform List<scalar> 
43
(
0.000208643
0.000220286
0.000228484
0.000245065
0.000237744
0.000228892
0.000223065
0.00021463
0.000202395
0.000187063
0.000169653
0.000151348
0.000133388
0.000117829
0.000105945
9.73947e-05
9.12495e-05
8.67514e-05
8.34362e-05
8.10383e-05
7.93906e-05
7.8392e-05
7.79743e-05
7.81641e-05
7.90187e-05
8.0519e-05
8.26279e-05
8.53829e-05
8.88469e-05
9.30988e-05
9.80216e-05
0.000103613
0.00010992
0.000116983
0.00012473
0.000133856
0.000136803
0.000133409
0.000125581
0.000117226
0.000345512
0.000404008
0.000231191
)
;
    }
    sWall
    {
        type            nutkWallFunction;
        Cmu             0.09;
        kappa           0.41;
        E               9.8;
        value           uniform 0.0002087;
    }
    nWall
    {
        type            nutkWallFunction;
        Cmu             0.09;
        kappa           0.41;
        E               9.8;
        value           nonuniform List<scalar> 6(9.52092e-05 9.93508e-05 0.000113099 0.00013733 0.000139942 0.000117231);
    }
    sideWalls
    {
        type            empty;
    }
    glass1
    {
        type            nutkWallFunction;
        Cmu             0.09;
        kappa           0.41;
        E               9.8;
        value           nonuniform List<scalar> 9(0.000130452 0.000175453 0.000211843 0.000246066 0.000280394 0.000316258 0.000348454 0.000354632 0.000345936);
    }
    glass2
    {
        type            nutkWallFunction;
        Cmu             0.09;
        kappa           0.41;
        E               9.8;
        value           nonuniform List<scalar> 2(0.000173717 0.000163894);
    }
    sun
    {
        type            nutkWallFunction;
        Cmu             0.09;
        kappa           0.41;
        E               9.8;
        value           nonuniform List<scalar> 
14
(
0.00013035
0.000142
0.000144553
0.000151216
0.000157357
0.000163081
0.000168675
0.000174096
0.000177888
0.000179448
0.000178215
0.000173838
0.00016627
0.000156091
)
;
    }
    heatsource1
    {
        type            nutkWallFunction;
        Cmu             0.09;
        kappa           0.41;
        E               9.8;
        value           nonuniform List<scalar> 3(6.95982e-05 8.47511e-05 9.52091e-05);
    }
    heatsource2
    {
        type            nutkWallFunction;
        Cmu             0.09;
        kappa           0.41;
        E               9.8;
        value           nonuniform List<scalar> 4(0.000147648 8.74415e-05 8.74415e-05 0.000147157);
    }
    Table_master
    {
        type            nutkWallFunction;
        Cmu             0.09;
        kappa           0.41;
        E               9.8;
        value           nonuniform List<scalar> 9(9.73003e-05 8.5847e-05 7.65186e-05 6.88963e-05 6.26153e-05 5.73896e-05 5.30122e-05 4.93526e-05 4.63635e-05);
    }
    Table_slave
    {
        type            nutkWallFunction;
        Cmu             0.09;
        kappa           0.41;
        E               9.8;
        value           nonuniform List<scalar> 9(0.000109688 9.99217e-05 9.28454e-05 8.74e-05 8.2744e-05 7.84616e-05 7.43291e-05 6.99754e-05 6.49022e-05);
    }
    inlet
    {
        type            calculated;
        value           uniform 0.000100623;
    }
    outlet
    {
        type            calculated;
        value           nonuniform List<scalar> 2(0.00177513 0.0018811);
    }
}


// ************************************************************************* //
