/*--------------------------------*- C++ -*----------------------------------*\
  =========                 |
  \\      /  F ield         | OpenFOAM: The Open Source CFD Toolbox
   \\    /   O peration     | Website:  https://openfoam.org
    \\  /    A nd           | Version:  6
     \\/     M anipulation  |
\*---------------------------------------------------------------------------*/
FoamFile
{
    version     2.0;
    format      ascii;
    class       volScalarField;
    location    "900";
    object      nut;
}
// * * * * * * * * * * * * * * * * * * * * * * * * * * * * * * * * * * * * * //

dimensions      [0 2 -1 0 0 0 0];

internalField   nonuniform List<scalar> 
459
(
0.000970219
0.00104823
0.00105914
0.00110545
0.00114734
0.00118541
0.00122127
0.00125686
0.00128844
0.00130818
0.00131122
0.00129341
0.00125397
0.00119885
0.00113924
0.000421244
0.000514882
0.000549504
0.000529222
0.000503202
0.000475826
0.000447679
0.000421358
0.000397536
0.000376133
0.00035705
0.000339997
0.00032461
0.00031055
0.000297423
0.000284614
0.000271135
0.000265558
0.000246917
0.00135385
0.0029981
0.00277606
0.00321533
0.00361399
0.0040236
0.00441302
0.00473195
0.00498579
0.00520473
0.0053501
0.00536742
0.00517457
0.00460446
0.00324826
0.00114316
0.000798363
0.000550045
0.000882354
0.00110014
0.00123885
0.00129209
0.00127218
0.00110315
0.000987391
0.000898329
0.000826696
0.000765634
0.000711276
0.000662253
0.000617016
0.000575589
0.000541993
0.000507809
0.00061946
0.000346542
0.00168043
0.0041094
0.00332598
0.00431828
0.00473914
0.00504133
0.00526916
0.00544882
0.00562002
0.00581149
0.00599801
0.00614084
0.00619061
0.00607928
0.00569395
0.00461769
0.0011277
0.000936858
0.00122745
0.00143363
0.00158581
0.00167085
0.00161061
0.00062076
0.000558426
0.000507699
0.000466217
0.000432008
0.000403544
0.0003797
0.000359696
0.000343063
0.000366689
0.000413378
0.000693306
0.000410153
0.00200117
0.00543285
0.00325505
0.00457982
0.00500836
0.00512874
0.00516021
0.0052025
0.00530358
0.00547608
0.00569124
0.00591575
0.00610712
0.00620114
0.00616228
0.00580829
0.004559
0.00123158
0.00153204
0.00186234
0.00209562
0.00224041
0.00232135
0.00219673
0.000691847
0.000646403
0.000616475
0.000594996
0.000576107
0.000555701
0.000535497
0.000513127
0.000485409
0.000454493
0.000449143
0.000808358
0.000458738
0.00233064
0.00718258
0.00360752
0.00430874
0.00497196
0.00502559
0.00492131
0.00486418
0.00494363
0.00512318
0.00535801
0.00562346
0.00587141
0.00600442
0.00598469
0.00576264
0.00524089
0.00425538
0.00378235
0.00350589
0.00332501
0.00322329
0.00318465
0.00314277
0.00283813
0.00272627
0.00267774
0.00263423
0.00256435
0.00243833
0.00220734
0.00189952
0.0015404
0.0011604
0.000848897
0.00081843
0.000603739
0.000586938
0.000707554
0.000790209
0.00267924
0.00909477
0.00524336
0.00404907
0.00458798
0.00485566
0.00488851
0.004696
0.0048018
0.0049789
0.00521249
0.00548693
0.00573897
0.00588014
0.00583492
0.00557687
0.00514344
0.0046364
0.00425421
0.00398327
0.00379236
0.00367898
0.00362005
0.00358369
0.00352943
0.00349175
0.00345181
0.00339392
0.0033097
0.00319322
0.00299927
0.00270541
0.00231077
0.00183656
0.00138478
0.000991293
0.000791981
0.00070113
0.00102437
0.000821196
0.00301156
0.0105289
0.00792903
0.00538601
0.00471152
0.00470687
0.00487584
0.00487539
0.00491093
0.00502143
0.00523092
0.00550851
0.00576842
0.00589995
0.00581195
0.00548521
0.00499503
0.00451592
0.00420051
0.00401242
0.00385712
0.0037048
0.0035774
0.00350394
0.00347343
0.0034591
0.00343542
0.00339324
0.00333273
0.00325961
0.00317539
0.00298255
0.00265345
0.00222803
0.00180582
0.00139933
0.00113589
0.00106346
0.00110914
0.000910606
0.00308562
0.00975812
0.00842903
0.00741793
0.00653885
0.00598516
0.00562015
0.00527144
0.00510529
0.00515655
0.00538003
0.00568385
0.00594211
0.00602432
0.00583661
0.00538696
0.0047873
0.00428691
0.00403718
0.00380091
0.00352869
0.00330842
0.00318133
0.00312974
0.00311666
0.00311174
0.0030998
0.00308006
0.00305991
0.00305165
0.00306911
0.00309082
0.00287411
0.00256625
0.0022891
0.00214725
0.00224952
0.00266042
0.00338592
0.00145775
0.00301355
0.00360661
0.00406168
0.00426772
0.00437202
0.00437643
0.0043973
0.00454374
0.00483793
0.0052385
0.00567279
0.00604804
0.00624561
0.00615954
0.00572665
0.00504755
0.00434637
0.00388482
0.00353122
0.00317097
0.00289051
0.00273082
0.00265663
0.0026254
0.00260874
0.00259052
0.00256318
0.00252416
0.00247237
0.00240644
0.00232499
0.0022295
0.00214576
0.00208555
0.00207357
0.00210374
0.00211578
0.00205005
0.00192537
0.00137157
0.00178663
0.00337675
0.00424735
0.00479863
0.00530496
0.00576042
0.00614583
0.0064419
0.00664099
0.00669155
0.00646493
0.00591245
0.00501961
0.00409282
0.00345398
0.00301189
0.00261588
0.00233732
0.00218528
0.00211204
0.00207744
0.00205917
0.00204607
0.00203298
0.00201825
0.00200248
0.00198777
0.00197767
0.00197707
0.00199528
0.00201977
0.00205213
0.00208847
0.00210584
0.00206386
0.00194526
0.00176329
0.00113495
0.00208961
0.00435866
0.00551851
0.00594158
0.00633286
0.00668183
0.00669511
0.00657637
0.00643533
0.00613598
0.00533369
0.00433304
0.00343142
0.00277604
0.00230549
0.00197309
0.0017846
0.00168055
0.00162484
0.00159836
0.00158918
0.00159209
0.001605
0.00162727
0.00165882
0.00169956
0.00174864
0.00180357
0.00186527
0.00193938
0.00202443
0.00211612
0.00220188
0.00226416
0.00226136
0.00230173
0.00229784
0.00115358
0.00181261
0.00191815
0.00199607
0.00210772
0.00198584
0.00184024
0.00168472
0.00153185
0.00142648
0.00132589
0.00120804
0.00106944
0.000925982
0.000770997
0.000640966
0.000558729
0.000518965
0.000505379
0.000506326
0.000515476
0.000528949
0.000545088
0.000563586
0.000584352
0.000607404
0.000632845
0.000660875
0.000691841
0.000726344
0.000765443
0.000809927
0.000858819
0.000912853
0.000972845
0.00103908
0.00111866
0.00114785
0.00112201
0.00105236
0.000979131
)
;

boundaryField
{
    floor
    {
        type            nutkWallFunction;
        Cmu             0.09;
        kappa           0.41;
        E               9.8;
        value           nonuniform List<scalar> 
29
(
0.000136983
4.95354e-05
6.16061e-05
6.59971e-05
6.34284e-05
6.01155e-05
5.66068e-05
5.2973e-05
4.9549e-05
4.64267e-05
4.36011e-05
4.10644e-05
3.87827e-05
3.67113e-05
3.48073e-05
3.30195e-05
3.1265e-05
2.94074e-05
2.86356e-05
2.60383e-05
2.60382e-05
3.96625e-05
4.8086e-05
5.4407e-05
0.000136984
4.95353e-05
6.60681e-05
0.000113264
0.000147639
)
;
    }
    ceiling
    {
        type            nutkWallFunction;
        Cmu             0.09;
        kappa           0.41;
        E               9.8;
        value           nonuniform List<scalar> 
43
(
0.000212772
0.000224342
0.000232843
0.000245047
0.000231838
0.000215917
0.000198749
0.000181701
0.000169841
0.000158425
0.000144927
0.000128857
0.00011197
9.3379e-05
7.7439e-05
6.71598e-05
6.21251e-05
6.03948e-05
6.05164e-05
6.16833e-05
6.33963e-05
6.54412e-05
6.77758e-05
7.03855e-05
7.32693e-05
7.64366e-05
7.99084e-05
8.37233e-05
8.79501e-05
9.2711e-05
9.80931e-05
0.000103969
0.000110417
0.000117525
0.000125315
0.000134598
0.000137985
0.000134987
0.000126869
0.000118267
0.000341548
0.000402895
0.000242901
)
;
    }
    sWall
    {
        type            nutkWallFunction;
        Cmu             0.09;
        kappa           0.41;
        E               9.8;
        value           uniform 0.000212831;
    }
    nWall
    {
        type            nutkWallFunction;
        Cmu             0.09;
        kappa           0.41;
        E               9.8;
        value           nonuniform List<scalar> 6(9.57126e-05 9.94525e-05 0.000110153 0.000136498 0.000138658 0.000118273);
    }
    sideWalls
    {
        type            empty;
    }
    glass1
    {
        type            nutkWallFunction;
        Cmu             0.09;
        kappa           0.41;
        E               9.8;
        value           nonuniform List<scalar> 9(0.00011728 0.000161807 0.000198575 0.000233923 0.0002696 0.000306769 0.000341733 0.000349478 0.000341966);
    }
    glass2
    {
        type            nutkWallFunction;
        Cmu             0.09;
        kappa           0.41;
        E               9.8;
        value           nonuniform List<scalar> 2(0.000173457 0.000163698);
    }
    sun
    {
        type            nutkWallFunction;
        Cmu             0.09;
        kappa           0.41;
        E               9.8;
        value           nonuniform List<scalar> 
14
(
0.000117216
0.000126384
0.00012766
0.000133061
0.000137924
0.000142325
0.000146457
0.000150544
0.000154159
0.000156414
0.000156761
0.000154728
0.000150211
0.000143874
)
;
    }
    heatsource1
    {
        type            nutkWallFunction;
        Cmu             0.09;
        kappa           0.41;
        E               9.8;
        value           nonuniform List<scalar> 3(7.07126e-05 8.56522e-05 9.57123e-05);
    }
    heatsource2
    {
        type            nutkWallFunction;
        Cmu             0.09;
        kappa           0.41;
        E               9.8;
        value           nonuniform List<scalar> 4(0.000137433 9.66967e-05 9.66967e-05 0.000135642);
    }
    Table_master
    {
        type            nutkWallFunction;
        Cmu             0.09;
        kappa           0.41;
        E               9.8;
        value           nonuniform List<scalar> 9(7.49325e-05 6.71257e-05 6.06941e-05 5.53756e-05 5.09451e-05 4.72252e-05 4.40833e-05 4.1428e-05 3.92058e-05);
    }
    Table_slave
    {
        type            nutkWallFunction;
        Cmu             0.09;
        kappa           0.41;
        E               9.8;
        value           nonuniform List<scalar> 9(8.37212e-05 7.81164e-05 7.43996e-05 7.17188e-05 6.93514e-05 6.67832e-05 6.4229e-05 6.1387e-05 5.78444e-05);
    }
    inlet
    {
        type            calculated;
        value           uniform 0.000100623;
    }
    outlet
    {
        type            calculated;
        value           nonuniform List<scalar> 2(0.00181261 0.00191815);
    }
}


// ************************************************************************* //
