/*--------------------------------*- C++ -*----------------------------------*\
  =========                 |
  \\      /  F ield         | OpenFOAM: The Open Source CFD Toolbox
   \\    /   O peration     | Website:  https://openfoam.org
    \\  /    A nd           | Version:  6
     \\/     M anipulation  |
\*---------------------------------------------------------------------------*/
FoamFile
{
    version     2.0;
    format      ascii;
    class       surfaceScalarField;
    location    "600";
    object      phi;
}
// * * * * * * * * * * * * * * * * * * * * * * * * * * * * * * * * * * * * * //

dimensions      [1 0 -1 0 0 0 0];

internalField   nonuniform List<scalar> 
852
(
-0.00118775
0.00123039
0.00389378
-0.00508179
0.00750076
-0.00360725
0.00943558
-0.00193508
0.0105164
-0.00108106
0.0111389
-0.000622758
0.0114213
-0.000282671
0.0114186
2.40229e-06
0.0111674
0.000250927
0.0106732
0.000493963
0.00991491
0.000757976
0.00883151
0.00108314
0.00727516
0.00155609
0.00481931
0.00245559
0.00481956
-0.00114806
0.00114766
-0.00171395
0.000565609
-0.00172546
1.12239e-05
-0.00106908
-0.000656661
6.43935e-05
-0.00113375
0.0012535
-0.00118938
0.00195004
-0.000696804
0.00228732
-0.000337554
0.00250915
-0.000222096
0.00266734
-0.000158465
0.00274509
-7.80362e-05
0.00275841
-1.35894e-05
0.00272588
3.22469e-05
0.00264577
7.98171e-05
0.00249556
0.000149917
0.00223406
0.000261191
0.00180365
0.000430092
0.00109885
0.000704439
0.00109771
0.00547734
-0.00413098
0.00733599
-0.00694069
0.00854506
-0.00481659
0.00939974
-0.00279004
0.0099595
-0.0016411
0.0102694
-0.000932929
0.0103802
-0.000393748
0.0103045
7.78258e-05
0.0100351
0.000520063
0.00957059
0.000958158
0.00890573
0.00142255
0.00803711
0.00195149
0.00699727
0.00259566
0.00606351
0.00338908
0.00660203
0.00428078
0.00303312
0.0035686
0.00303282
-0.000512359
0.00165923
-0.000769024
0.000821982
-0.000506143
-0.000251955
0.000150322
-0.00131341
0.000869592
-0.00185328
0.00150381
-0.00182385
0.00172253
-0.000915782
0.00177863
-0.00039392
0.00183114
-0.000274891
0.00189122
-0.000218838
0.00189437
-8.14912e-05
0.00185035
3.01315e-05
0.00178623
9.60665e-05
0.00171324
0.000152494
0.00161015
0.000252694
0.00142245
0.00044855
0.00111661
0.000735588
0.000626417
0.00119425
0.00172119
0.00592423
-0.00987126
0.007021
-0.00803773
0.00706396
-0.00485984
0.00724547
-0.00297184
0.00744669
-0.00184262
0.00756221
-0.00104875
0.00761184
-0.000443682
0.0075876
0.000101776
0.00746658
0.000640777
0.00723438
0.00119007
0.00688584
0.0017708
0.00643451
0.00240254
0.00593067
0.00309922
0.00545465
0.00386482
0.00496745
0.00476772
0.00336688
0.00516891
0.00639945
-0.000130334
0.00178832
0.000278407
0.000412944
0.000759962
-0.000733814
0.00112588
-0.0016796
0.00147247
-0.00220013
0.00212618
-0.00247781
0.0012103
0.000816266
0.000541225
0.000322159
0.000240417
0.000270397
0.000366341
0.000518701
0.000771238
0.000816935
0.000402528
0.000752654
0.000799519
0.000472115
0.00147441
0.00218818
0.00333079
-0.0129479
0.00387681
-0.00858404
0.00402256
-0.00500591
0.00403115
-0.00298076
0.00403536
-0.00184714
0.00407758
-0.00109129
0.00418994
-0.000556344
0.00434072
-4.9314e-05
0.00446677
0.000514418
0.00453204
0.0011245
0.00452081
0.00178174
0.00444316
0.00247991
0.00432128
0.00322082
0.00417761
0.00400822
0.00409354
0.00485152
0.0040894
0.00517278
0.00528656
0.00520204
0.00189357
0.00339579
0.00185017
0.00183145
0.00181951
0.000443319
0.00197008
-0.000884654
0.00203519
-0.00174497
0.00190493
-0.00207012
0.0013028
-0.00187591
0.00217673
-0.00087431
0.00255996
-0.000383611
0.00273527
-0.000175696
0.00278842
-5.35256e-05
0.00274478
4.32501e-05
0.00261991
0.000124491
0.0024212
0.000198332
0.00213529
0.000285534
0.00171437
0.000420545
0.00140211
0.000714577
0.00108558
0.00111579
0.000772462
0.0017872
0.00295359
0.001168
-0.0137893
0.00135382
-0.00877018
0.00175741
-0.00540982
0.00136356
-0.00258723
0.001191
-0.00167489
0.0012446
-0.00114519
0.00142624
-0.000738281
0.00167114
-0.000294514
0.00192737
0.000257886
0.00214517
0.000906405
0.00232037
0.00160625
0.00247324
0.00232675
0.00262503
0.00306874
0.002817
0.00381597
0.00314144
0.00452681
0.00351982
0.00479413
0.00390476
0.00481685
0.00363216
0.00366814
0.0034425
0.00202086
0.00336723
0.000518337
0.0031936
-0.000711265
0.00290384
-0.00145544
0.00252299
-0.00168949
0.0021348
-0.00148793
0.00217738
-0.000917114
0.00222088
-0.000427336
0.00217622
-0.000131271
0.00206668
5.57871e-05
0.00192383
0.000185869
0.00176839
0.000279699
0.00160618
0.000360319
0.00143893
0.000452549
0.00127298
0.000586268
0.00117469
0.000812648
0.00115179
0.00113845
0.00138619
0.0015525
0.00226678
0.00207263
0.00112075
0.00114548
0.000521051
0.000599184
0.000540693
-3.75581e-05
-0.0133503
-0.000103921
-0.00870415
-0.000126012
-0.00538806
-0.000776738
-0.00193681
-0.000892495
-0.00155944
-0.000781647
-0.00125634
-0.00059661
-0.000923607
-0.000382684
-0.000508728
-0.000160004
3.49165e-05
6.99581e-05
0.000676152
0.000320276
0.00135564
0.000599221
0.00204752
0.000924634
0.00274305
0.00131995
0.00342039
0.00180334
0.00404315
0.00229692
0.0043003
0.00285709
0.00425642
0.00331905
0.00320594
0.00350714
0.00183254
0.00353061
0.000494629
0.00332537
-0.000506259
0.00292633
-0.00105662
0.00243263
-0.00119602
0.00195747
-0.001013
0.00165517
-0.000615049
0.00145129
-0.000223692
0.00126641
5.33617e-05
0.0011014
0.000220548
0.000968986
0.000318035
0.00086422
0.000384218
0.000783385
0.000440913
0.00072863
0.000507066
0.000710544
0.00060412
0.000758499
0.00076446
0.000895327
0.00100138
0.00115073
0.00129681
0.00152591
0.00169712
0.00143764
0.00123342
0.000963828
0.00107268
0.00152615
-0.000786102
-0.012086
-0.00157761
-0.00791298
-0.00211475
-0.00485126
-0.00259729
-0.00145457
-0.0026163
-0.00154073
-0.00249954
-0.00137339
-0.0023567
-0.00106672
-0.00221225
-0.00065346
-0.00203849
-0.000139123
-0.00181832
0.0004557
-0.00154553
0.00108258
-0.00121102
0.00171273
-0.00079939
0.00233115
-0.000291181
0.00291191
0.000326133
0.00342557
0.000982518
0.00364366
0.00171389
0.0035248
0.00233886
0.00258073
0.00271915
0.00145202
0.00278764
0.000425905
0.00254897
-0.000267818
0.00210379
-0.000611674
0.00157359
-0.00066606
0.00106057
-0.000500241
0.000652513
-0.000207262
0.000364888
6.36555e-05
0.000180433
0.000237536
7.42361e-05
0.000326467
1.44697e-05
0.000377529
-1.31164e-05
0.000411541
-1.33296e-05
0.000440871
1.47022e-05
0.000478786
7.52151e-05
0.000543362
0.00017739
0.00066204
0.000321912
0.000856607
0.000524788
0.00109366
0.000940597
0.001281
0.00135126
0.00082244
0.001202
0.00122162
0.00275165
-0.00305351
-0.00847528
-0.00508488
-0.00588196
-0.00499065
-0.00494582
-0.00474664
-0.00169889
-0.00436298
-0.00192469
-0.00410899
-0.00162767
-0.00396167
-0.00121434
-0.00385388
-0.000761527
-0.00372317
-0.000270106
-0.00353104
0.000263306
-0.00326252
0.000813789
-0.00290554
0.00135548
-0.00244906
0.0018744
-0.00188321
0.0023458
-0.00118323
0.00272533
-0.000398426
0.00285861
0.000444778
0.00268135
0.00109441
0.00193086
0.00144234
0.00110384
0.00144462
0.000423377
0.001166
1.05362e-05
0.000723835
-0.000169789
0.000224756
-0.00016728
-0.000236794
-3.90002e-05
-0.000568196
0.000123817
-0.000746111
0.000241245
-0.000819694
0.000310802
-0.000842877
0.000349344
-0.000835223
0.000369581
-0.000804271
0.000380305
-0.000753461
0.000389787
-0.000685137
0.000410194
-0.000603077
0.000461037
-0.000512918
0.000571612
-0.000425916
0.000769332
-0.000374508
0.00104198
-0.000425058
0.0013313
-0.0010349
0.00143205
-0.00155314
0.00173958
0.00128479
-0.00783484
-0.013714
-0.00913525
-0.00952497
-0.00631161
-0.00452287
-0.00556867
-0.00266796
-0.0053315
-0.00186515
-0.00526629
-0.00127984
-0.00524284
-0.000785272
-0.0051848
-0.000328426
-0.00504326
0.000121499
-0.00479393
0.000564183
-0.00443136
0.000992645
-0.00394958
0.00139236
-0.00334364
0.0017396
-0.00260828
0.00198971
-0.00180282
0.00205289
-0.000999662
0.00187793
-0.000458631
0.00138956
-0.000244001
0.000888926
-0.000329413
0.000508474
-0.00059189
0.000272672
-0.000922464
0.00016043
-0.00124451
0.000154398
-0.0014849
0.000201018
-0.00161539
0.000253939
-0.00166584
0.000291337
-0.00166733
0.00031194
-0.00163972
0.00032139
-0.00159431
0.000323848
-0.00153798
0.000323654
-0.00147696
0.000328454
-0.00141901
0.000351936
-0.00137441
0.000416118
-0.00135528
0.000552166
-0.001382
0.000795733
-0.00152012
0.00117981
-0.00189969
0.00171062
-0.00265617
0.00218828
-0.00297467
0.00205786
-0.00162678
-0.00577035
-0.00012964
-0.00577523
-0.00451834
-0.00587093
-0.00257261
-0.00609055
-0.00164587
-0.00627501
-0.0010957
-0.00638179
-0.000678806
-0.00639285
-0.000317677
-0.00629311
2.1456e-05
-0.00607298
0.000343756
-0.00572518
0.000644552
-0.00524811
0.000914992
-0.00464916
0.00114035
-0.00395145
0.0012917
-0.00322541
0.00132655
-0.00256924
0.00122144
-0.00215822
0.000978187
-0.00199884
0.000729183
-0.00202154
0.00053078
-0.0021393
0.000390032
-0.00228283
0.00030354
-0.00239526
0.000266404
-0.00245351
0.000258848
-0.00246131
0.000261328
-0.00243417
0.000263787
-0.0023859
0.000263275
-0.00232441
0.000259504
-0.00225386
0.000252917
-0.00217654
0.000245951
-0.00209371
0.000245244
-0.00200587
0.000263717
-0.00191178
0.000321644
-0.00180551
0.000445515
-0.00167485
0.000664696
-0.00150214
0.00100676
-0.00126601
0.0014742
-0.000916154
0.00183815
-0.000125215
0.00126665
-0.0017414
-0.000967163
0.000825497
-0.00427255
-0.00121332
-0.00576219
-0.00108334
-0.0065944
-0.000814023
-0.00710826
-0.000582203
-0.0074076
-0.000379829
-0.00752952
-0.000196108
-0.00748349
-2.49272e-05
-0.00729635
0.000156262
-0.00697005
0.0003179
-0.00651334
0.000457932
-0.00594534
0.000571988
-0.00530284
0.000648831
-0.00465025
0.000673571
-0.00406825
0.000639037
-0.0036434
0.000552922
-0.00337525
0.0004606
-0.00322454
0.000379629
-0.00314724
0.000312277
-0.00310478
0.000260615
-0.00306544
0.000226598
-0.00301291
0.00020585
-0.00294476
0.000192711
-0.002865
0.000183567
-0.00277872
0.000176532
-0.00269031
0.000170639
-0.00260354
0.000165682
-0.00252084
0.0001628
-0.00244123
0.000165173
-0.00235649
0.000178521
-0.00224659
0.000211286
-0.00207605
0.000274522
-0.00179277
0.000380985
-0.00132097
0.000534557
-0.000526044
0.000678899
0.000633854
0.000677923
0.00162307
0.000277096
-0.000107061
0.00356602
-0.00488329
-0.00409355
-0.0053487
-0.00647379
-0.00732911
-0.00795205
-0.00837213
-0.00860807
-0.00867245
-0.00855526
-0.00827629
-0.00785743
-0.00732492
-0.00671628
-0.00608394
-0.00548748
-0.00497873
-0.00456393
-0.00423166
-0.00396816
-0.00375749
-0.00358169
-0.00342723
-0.00328627
-0.00315468
-0.00303028
-0.00291192
-0.00279872
-0.00268873
-0.0025769
-0.0024525
-0.00229641
-0.00207843
-0.00175553
-0.0012807
-0.00066313
-4.76567e-05
0.000167842
)
;

boundaryField
{
    floor
    {
        type            calculated;
        value           nonuniform List<scalar> 
29
(
0
0
0
0
0
0
0
0
0
0
0
0
0
0
0
0
0
0
0
0
7.25496e-07
2.50208e-06
4.68206e-06
6.64257e-06
-5.08161e-07
1.18528e-07
4.92987e-07
9.55319e-07
-3.03963e-06
)
;
    }
    ceiling
    {
        type            calculated;
        value           nonuniform List<scalar> 
43
(
7.15404e-05
5.16316e-05
3.5365e-05
4.1447e-05
4.13608e-05
4.08993e-05
4.03333e-05
3.9842e-05
3.94207e-05
3.90391e-05
3.8651e-05
3.85067e-05
3.86339e-05
3.90395e-05
3.97468e-05
4.0777e-05
4.21165e-05
4.36879e-05
4.53158e-05
4.68761e-05
4.8278e-05
4.94335e-05
5.02912e-05
5.08691e-05
5.12299e-05
5.14485e-05
5.15959e-05
5.17362e-05
5.19341e-05
5.22593e-05
5.27842e-05
5.35705e-05
5.46491e-05
5.60025e-05
5.75634e-05
5.9229e-05
6.08493e-05
6.19888e-05
6.11744e-05
6.42972e-05
-6.27496e-07
-3.11381e-06
1.17616e-05
)
;
    }
    sWall
    {
        type            calculated;
        value           uniform -0.000132746;
    }
    nWall
    {
        type            calculated;
        value           nonuniform List<scalar> 6(-2.00616e-05 -2.19086e-05 -2.37943e-05 -1.09897e-05 -1.16283e-05 -3.99644e-06);
    }
    sideWalls
    {
        type            empty;
        value           nonuniform 0();
    }
    glass1
    {
        type            calculated;
        value           nonuniform List<scalar> 9(-4.29208e-05 -0.000116185 -0.000184192 -0.000254429 -0.000326809 -0.000401788 -0.00047846 -0.000557519 -0.000640122);
    }
    glass2
    {
        type            calculated;
        value           nonuniform List<scalar> 2(-8.6542e-05 -6.33132e-05);
    }
    sun
    {
        type            calculated;
        value           uniform 0;
    }
    heatsource1
    {
        type            calculated;
        value           nonuniform List<scalar> 3(2.00324e-07 2.00711e-07 2.00816e-07);
    }
    heatsource2
    {
        type            calculated;
        value           nonuniform List<scalar> 4(5.00842e-08 5.04826e-08 0 0);
    }
    Table_master
    {
        type            calculated;
        value           nonuniform List<scalar> 9(-1.51037e-07 -1.5132e-07 -1.51356e-07 -1.51276e-07 -1.51101e-07 -1.50979e-07 -1.50918e-07 -1.50861e-07 -1.50784e-07);
    }
    Table_slave
    {
        type            calculated;
        value           nonuniform List<scalar> 9(1.50865e-07 1.50722e-07 1.5062e-07 1.50564e-07 1.5053e-07 1.50512e-07 1.50524e-07 1.50562e-07 1.50628e-07);
    }
    inlet
    {
        type            calculated;
        value           uniform -0.00362537;
    }
    outlet
    {
        type            calculated;
        value           nonuniform List<scalar> 2(-0.00350516 0.00839723);
    }
}


// ************************************************************************* //
