// -*- C++ -*-
// File generated by PyFoam - sorry for the ugliness

FoamFile
{
 version 2.0;
 format ascii;
 class volVectorField;
 location "600";
 object U;
}

dimensions [ 0 1 -1 0 0 0 0 ];

internalField nonuniform List<vector> 459
(
  (0.0341132 0.102417 0)
  (0.102427 -0.213752 0)
  (0.239675 -0.157894 0)
  (0.359625 -0.103059 0)
  (0.435784 -0.0689156 0)
  (0.474643 -0.0481643 0)
  (0.491937 -0.0338709 0)
  (0.496609 -0.0230673 0)
  (0.490603 -0.0137034 0)
  (0.474535 -0.00485117 0)
  (0.447865 0.004414 0)
  (0.408957 0.0154297 0)
  (0.354028 0.0311397 0)
  (0.271104 0.0617075 0)
  (0.203505 0.146639 0)
  (-0.0538074 0.0249934 0)
  (-0.0705094 0.00088927 0)
  (-0.079824 -0.017011 0)
  (-0.0578297 -0.0329121 0)
  (-0.023347 -0.048514 0)
  (0.0370113 -0.0478456 0)
  (0.0674354 -0.0273476 0)
  (0.0911999 -0.0168786 0)
  (0.105309 -0.0128165 0)
  (0.113239 -0.0104487 0)
  (0.118029 -0.00796869 0)
  (0.120071 -0.00576718 0)
  (0.119521 -0.00398501 0)
  (0.116945 -0.00230574 0)
  (0.112119 -0.000213474 0)
  (0.103733 0.00291317 0)
  (0.0897575 0.0077366 0)
  (0.0660575 0.0162946 0)
  (0.0509092 0.0313266 0)
  (0.507319 -0.0421884 0)
  (0.247518 -0.223574 0)
  (0.313918 -0.178 0)
  (0.388426 -0.103994 0)
  (0.424821 -0.0560543 0)
  (0.440981 -0.0269376 0)
  (0.448283 -0.00598169 0)
  (0.449112 0.011382 0)
  (0.441489 0.0261465 0)
  (0.42571 0.0399568 0)
  (0.401546 0.0544161 0)
  (0.368776 0.0714528 0)
  (0.328456 0.0940425 0)
  (0.284512 0.127867 0)
  (0.257558 0.190623 0)
  (0.237373 0.16994 0)
  (0.141938 0.14157 0)
  (-0.0374796 0.059149 0)
  (-0.0340365 0.0307779 0)
  (-0.0311187 -0.00291866 0)
  (-0.0034494 -0.0462463 0)
  (0.0258585 -0.0711348 0)
  (0.0532342 -0.0713295 0)
  (0.0702885 -0.0361421 0)
  (0.0764157 -0.0149074 0)
  (0.0783901 -0.00834278 0)
  (0.079883 -0.00580659 0)
  (0.0822891 -0.00212506 0)
  (0.0822609 0.00152009 0)
  (0.0793822 0.00438059 0)
  (0.0759346 0.00702647 0)
  (0.0721964 0.010512 0)
  (0.0664873 0.016636 0)
  (0.0566788 0.0259937 0)
  (0.0373189 0.0412141 0)
  (0.0460828 0.0600875 0)
  (0.707066 -0.362729 0)
  (0.177118 -0.348113 0)
  (0.267315 -0.229386 0)
  (0.319945 -0.138062 0)
  (0.325292 -0.084502 0)
  (0.325546 -0.0503865 0)
  (0.327842 -0.0246783 0)
  (0.329316 -0.00190405 0)
  (0.326538 0.0207542 0)
  (0.319098 0.0437921 0)
  (0.306722 0.0680274 0)
  (0.28951 0.0946098 0)
  (0.268601 0.124989 0)
  (0.245363 0.160368 0)
  (0.225697 0.201394 0)
  (0.191672 0.188951 0)
  (0.138236 0.212159 0)
  (-0.0306102 0.0574876 0)
  (-0.00661435 0.0153374 0)
  (0.0272962 -0.0337253 0)
  (0.045897 -0.0709687 0)
  (0.0599324 -0.091954 0)
  (0.0742025 -0.0990652 0)
  (0.0806517 -0.070906 0)
  (0.0517169 -0.0402283 0)
  (0.0262906 -0.0240707 0)
  (0.0137183 -0.0150453 0)
  (0.00830679 -0.00538023 0)
  (0.0101536 0.000588558 0)
  (0.0144736 0.00318003 0)
  (0.0192132 0.00534302 0)
  (0.0273644 0.0104071 0)
  (0.0357566 0.0220104 0)
  (0.0363483 0.0362768 0)
  (0.021985 0.0601552 0)
  (0.0532003 0.0866955 0)
  (0.770298 -0.518757 0)
  (-0.0567481 -0.372807 0)
  (0.16037 -0.214686 0)
  (0.196788 -0.126604 0)
  (0.179559 -0.077474 0)
  (0.173937 -0.0439538 0)
  (0.176879 -0.0185337 0)
  (0.183644 0.00483829 0)
  (0.191178 0.0284188 0)
  (0.195712 0.0531099 0)
  (0.196946 0.0796431 0)
  (0.194976 0.108495 0)
  (0.19047 0.139993 0)
  (0.183925 0.173962 0)
  (0.181259 0.210138 0)
  (0.180532 0.222199 0)
  (0.184037 0.252214 0)
  (0.200941 0.19978 0)
  (0.058955 0.0870525 0)
  (0.0608783 0.0187064 0)
  (0.0847052 -0.0381885 0)
  (0.0916217 -0.076911 0)
  (0.0870532 -0.0947317 0)
  (0.0720732 -0.0951756 0)
  (0.0690565 -0.0524062 0)
  (0.0965946 -0.0304623 0)
  (0.11566 -0.019071 0)
  (0.122235 -0.0124447 0)
  (0.121614 -0.00776124 0)
  (0.117195 -0.00397514 0)
  (0.110028 -0.000684306 0)
  (0.0997106 0.00270917 0)
  (0.0861722 0.00687636 0)
  (0.0670602 0.0196056 0)
  (0.0539454 0.0392002 0)
  (0.0313851 0.0708189 0)
  (0.0671362 0.114741 0)
  (0.803422 -0.592898 0)
  (-0.252353 -0.382435 0)
  (0.109456 -0.224817 0)
  (0.0931642 -0.121855 0)
  (0.0518213 -0.0742013 0)
  (0.0494519 -0.0459786 0)
  (0.05644 -0.0260127 0)
  (0.0645297 -0.00564053 0)
  (0.0784987 0.0188224 0)
  (0.0888437 0.0460399 0)
  (0.0973248 0.0754505 0)
  (0.104387 0.106534 0)
  (0.110898 0.139012 0)
  (0.117573 0.172438 0)
  (0.129356 0.206112 0)
  (0.143572 0.221752 0)
  (0.159774 0.228336 0)
  (0.17528 0.158038 0)
  (0.142308 0.0910588 0)
  (0.144796 0.0284946 0)
  (0.145252 -0.0283614 0)
  (0.134568 -0.0668823 0)
  (0.118238 -0.0812808 0)
  (0.0996004 -0.0736561 0)
  (0.0907572 -0.0419211 0)
  (0.0935732 -0.0189876 0)
  (0.0958246 -0.00629878 0)
  (0.0931125 0.00127145 0)
  (0.0870487 0.0066429 0)
  (0.0802629 0.0106948 0)
  (0.0732941 0.0141798 0)
  (0.0661408 0.0180876 0)
  (0.0590664 0.0238632 0)
  (0.0530373 0.0346221 0)
  (0.0522121 0.0497953 0)
  (0.0479163 0.0741557 0)
  (0.0784773 0.113194 0)
  (0.085332 0.0825915 0)
  (0.0749184 0.0478413 0)
  (-0.155761 0.0304705 0)
  (0.782256 -0.599651 0)
  (-0.321963 -0.382482 0)
  (0.0577031 -0.232602 0)
  (-0.000170669 -0.0863789 0)
  (-0.0434921 -0.0649987 0)
  (-0.0376072 -0.0501779 0)
  (-0.0305822 -0.0358126 0)
  (-0.0232638 -0.0180438 0)
  (-0.0118084 0.00577572 0)
  (-0.0020607 0.0345826 0)
  (0.00869427 0.0656974 0)
  (0.0201305 0.0969735 0)
  (0.0331975 0.128657 0)
  (0.0481269 0.159933 0)
  (0.0680881 0.188958 0)
  (0.0887418 0.200908 0)
  (0.11289 0.198091 0)
  (0.137425 0.145246 0)
  (0.143924 0.0866056 0)
  (0.153232 0.0263949 0)
  (0.151438 -0.0240339 0)
  (0.137282 -0.0539689 0)
  (0.11654 -0.0629153 0)
  (0.0941632 -0.0549338 0)
  (0.0765521 -0.0341366 0)
  (0.0663611 -0.0152513 0)
  (0.0588929 -0.00262181 0)
  (0.0511606 0.00567642 0)
  (0.0447897 0.0111377 0)
  (0.0396207 0.0149471 0)
  (0.0355606 0.0181544 0)
  (0.0325459 0.0218295 0)
  (0.0307882 0.0272242 0)
  (0.0311424 0.036185 0)
  (0.0361864 0.0486314 0)
  (0.0395495 0.0644542 0)
  (0.0618365 0.0852948 0)
  (0.0671381 0.0521097 0)
  (0.0822999 0.0365134 0)
  (-0.102177 0.048872 0)
  (0.680678 -0.543867 0)
  (-0.29026 -0.345295 0)
  (-0.0622369 -0.208759 0)
  (-0.0721426 -0.0608331 0)
  (-0.119321 -0.0636182 0)
  (-0.11107 -0.0561471 0)
  (-0.105299 -0.0431683 0)
  (-0.0997581 -0.0252614 0)
  (-0.093244 -0.00219104 0)
  (-0.0836404 0.0248315 0)
  (-0.0731565 0.0533894 0)
  (-0.0599482 0.0824694 0)
  (-0.0437145 0.111395 0)
  (-0.0243364 0.139156 0)
  (0.00169452 0.16466 0)
  (0.0287806 0.174345 0)
  (0.0602571 0.169168 0)
  (0.0898677 0.126763 0)
  (0.109364 0.073117 0)
  (0.120553 0.0203224 0)
  (0.117877 -0.0176464 0)
  (0.102392 -0.0370237 0)
  (0.0801405 -0.0408478 0)
  (0.0564246 -0.0330025 0)
  (0.0359907 -0.0177863 0)
  (0.0211245 -0.0029524 0)
  (0.0106907 0.00729627 0)
  (0.00511261 0.012858 0)
  (0.0016875 0.0159736 0)
  (-0.000201688 0.0180557 0)
  (-0.000834985 0.0198846 0)
  (-0.000325992 0.0221704 0)
  (0.00136087 0.0257898 0)
  (0.00455997 0.0320298 0)
  (0.0106922 0.0414477 0)
  (0.0149525 0.0522071 0)
  (0.0359804 0.0633053 0)
  (0.0502181 0.0371758 0)
  (0.0855105 0.0385928 0)
  (-0.0779743 0.0870703 0)
  (0.508704 -0.425874 0)
  (-0.33677 -0.275057 0)
  (-0.259526 -0.209108 0)
  (-0.151217 -0.0583366 0)
  (-0.203004 -0.0744688 0)
  (-0.182386 -0.0659802 0)
  (-0.174382 -0.0504358 0)
  (-0.169706 -0.0312697 0)
  (-0.165238 -0.0089359 0)
  (-0.157555 0.0159451 0)
  (-0.147726 0.0416856 0)
  (-0.134138 0.067338 0)
  (-0.116493 0.0922589 0)
  (-0.0943219 0.115367 0)
  (-0.065809 0.134804 0)
  (-0.0344337 0.142806 0)
  (0.00377128 0.136331 0)
  (0.0361297 0.0972981 0)
  (0.0565288 0.0526963 0)
  (0.0634315 0.0150313 0)
  (0.0581602 -0.00803298 0)
  (0.0421875 -0.0181196 0)
  (0.0209869 -0.018245 0)
  (-0.000994581 -0.0106931 0)
  (-0.0192279 0.000226548 0)
  (-0.0299271 0.00839687 0)
  (-0.0345768 0.0130106 0)
  (-0.036425 0.0154138 0)
  (-0.0366863 0.0167716 0)
  (-0.0358225 0.0176333 0)
  (-0.0340467 0.0183756 0)
  (-0.0315023 0.0194669 0)
  (-0.028367 0.0216124 0)
  (-0.0247838 0.0259003 0)
  (-0.020981 0.0332774 0)
  (-0.0197294 0.0425589 0)
  (-0.00833616 0.0510696 0)
  (-0.00635015 0.0512075 0)
  (-0.0504005 0.0872356 0)
  (-0.298117 0.118672 0)
  (0.272014 -0.327095 0)
  (-0.547494 -0.300865 0)
  (-0.651875 -0.310708 0)
  (-0.185853 -0.152129 0)
  (-0.268389 -0.103327 0)
  (-0.236406 -0.0768513 0)
  (-0.229484 -0.0548962 0)
  (-0.228137 -0.0347488 0)
  (-0.22693 -0.0146619 0)
  (-0.222419 0.006627 0)
  (-0.213883 0.0288156 0)
  (-0.200576 0.0504276 0)
  (-0.182229 0.070758 0)
  (-0.158454 0.0886785 0)
  (-0.12874 0.102057 0)
  (-0.095016 0.106011 0)
  (-0.0581138 0.0973766 0)
  (-0.0288813 0.0697224 0)
  (-0.0129013 0.0405682 0)
  (-0.0111487 0.0188602 0)
  (-0.0198865 0.00680487 0)
  (-0.0324715 0.00187531 0)
  (-0.0474999 0.00264426 0)
  (-0.0605157 0.00638446 0)
  (-0.0683676 0.010092 0)
  (-0.0719663 0.0125687 0)
  (-0.0728117 0.0138907 0)
  (-0.0721003 0.0144423 0)
  (-0.0704411 0.0145213 0)
  (-0.0681776 0.0143604 0)
  (-0.06558 0.0143172 0)
  (-0.0629642 0.0150435 0)
  (-0.0607402 0.0175969 0)
  (-0.0593668 0.0233896 0)
  (-0.0595282 0.0336907 0)
  (-0.0622971 0.0486924 0)
  (-0.0658449 0.0660842 0)
  (-0.0834212 0.0755736 0)
  (-0.139421 0.0654053 0)
  (-0.270799 0.00610031 0)
  (-1.24509 -0.299405 0)
  (-0.0995147 -0.206107 0)
  (-0.2559 -0.118907 0)
  (-0.261811 -0.0747567 0)
  (-0.269363 -0.0446066 0)
  (-0.275447 -0.0206509 0)
  (-0.278094 -0.00030304 0)
  (-0.276038 0.0172751 0)
  (-0.268998 0.0319937 0)
  (-0.256602 0.0460087 0)
  (-0.238579 0.0589221 0)
  (-0.214949 0.0697456 0)
  (-0.186247 0.076762 0)
  (-0.154541 0.0773168 0)
  (-0.123325 0.0700762 0)
  (-0.100214 0.0552516 0)
  (-0.0883724 0.0411641 0)
  (-0.086274 0.0310029 0)
  (-0.0902326 0.024968 0)
  (-0.0964661 0.0225809 0)
  (-0.102362 0.0231419 0)
  (-0.106136 0.0250886 0)
  (-0.107405 0.0271866 0)
  (-0.106807 0.028963 0)
  (-0.105044 0.0304715 0)
  (-0.102586 0.0318744 0)
  (-0.0996754 0.0332721 0)
  (-0.0964446 0.0347547 0)
  (-0.0929773 0.0364489 0)
  (-0.0893326 0.0385487 0)
  (-0.0855115 0.0413998 0)
  (-0.0813045 0.0457335 0)
  (-0.0760039 0.0530156 0)
  (-0.0680476 0.0654045 0)
  (-0.0553766 0.0837376 0)
  (-0.0448184 0.0996225 0)
  (-0.0575161 0.0885735 0)
  (-0.00308449 -0.116171 0)
  (-0.146314 0.0276083 0)
  (-0.105125 -0.162967 0)
  (-0.225655 -0.124304 0)
  (-0.271951 -0.104878 0)
  (-0.299808 -0.0924672 0)
  (-0.316869 -0.0817692 0)
  (-0.325739 -0.0706799 0)
  (-0.327227 -0.0578707 0)
  (-0.321823 -0.0423594 0)
  (-0.31055 -0.0287547 0)
  (-0.293336 -0.0175254 0)
  (-0.270735 -0.00897184 0)
  (-0.243918 -0.00393981 0)
  (-0.215129 -0.00362657 0)
  (-0.18776 -0.00857966 0)
  (-0.166043 -0.01827 0)
  (-0.151456 -0.0292912 0)
  (-0.1429 -0.0402292 0)
  (-0.138447 -0.0505887 0)
  (-0.136195 -0.0596788 0)
  (-0.134576 -0.0668951 0)
  (-0.132585 -0.0725336 0)
  (-0.129894 -0.0772177 0)
  (-0.126602 -0.0814816 0)
  (-0.122926 -0.0857275 0)
  (-0.119079 -0.0902413 0)
  (-0.115242 -0.0951522 0)
  (-0.111566 -0.100286 0)
  (-0.108115 -0.104972 0)
  (-0.104734 -0.107862 0)
  (-0.100841 -0.106945 0)
  (-0.0951095 -0.0999414 0)
  (-0.0850981 -0.0851703 0)
  (-0.0673045 -0.0627207 0)
  (-0.0388546 -0.0364215 0)
  (0.00136374 -0.0207105 0)
  (0.0402669 -0.0766455 0)
  (0.0295056 -0.199288 0)
  (0.710923 0.156291 0)
  (-0.067212 -0.353713 0)
  (-0.284133 0.175073 0)
  (-0.200575 0.138527 0)
  (-0.261521 0.137667 0)
  (-0.302957 0.143144 0)
  (-0.334509 0.147195 0)
  (-0.356876 0.149778 0)
  (-0.371094 0.150805 0)
  (-0.377584 0.150135 0)
  (-0.375991 0.147734 0)
  (-0.367077 0.147486 0)
  (-0.351608 0.149613 0)
  (-0.330536 0.153872 0)
  (-0.305254 0.160119 0)
  (-0.277822 0.168231 0)
  (-0.250873 0.178077 0)
  (-0.226943 0.189427 0)
  (-0.207073 0.201927 0)
  (-0.191052 0.215205 0)
  (-0.178316 0.228609 0)
  (-0.168175 0.24118 0)
  (-0.159855 0.252177 0)
  (-0.15269 0.261545 0)
  (-0.146253 0.269711 0)
  (-0.140303 0.277238 0)
  (-0.13471 0.284661 0)
  (-0.129407 0.292414 0)
  (-0.12436 0.300776 0)
  (-0.119528 0.309775 0)
  (-0.114801 0.319053 0)
  (-0.109881 0.327742 0)
  (-0.104099 0.334532 0)
  (-0.0961943 0.338117 0)
  (-0.0843459 0.338109 0)
  (-0.0669351 0.336165 0)
  (-0.0438857 0.336685 0)
  (-0.0167327 0.343157 0)
  (0.00791346 0.389439 0)
  (0.0130314 0.524705 0)
)
;

boundaryField
{
  floor
  {
    type noSlip;
  }
  ceiling
  {
    type noSlip;
  }
  sWall
  {
    type noSlip;
  }
  nWall
  {
    type noSlip;
  }
  sideWalls
  {
    type empty;
  }
  glass1
  {
    type noSlip;
  }
  glass2
  {
    type noSlip;
  }
  sun
  {
    type noSlip;
  }
  heatsource1
  {
    type noSlip;
  }
  heatsource2
  {
    type noSlip;
  }
  Table_master
  {
    type noSlip;
  }
  Table_slave
  {
    type noSlip;
  }
  inlet
  {
    type fixedValue;
    value uniform (0.212132 -0.212132 0);
  }
  outlet
  {
    type zeroGradient;
  }
} 	// ************************************************************************* //

