/*--------------------------------*- C++ -*----------------------------------*\
  =========                 |
  \\      /  F ield         | OpenFOAM: The Open Source CFD Toolbox
   \\    /   O peration     | Website:  https://openfoam.org
    \\  /    A nd           | Version:  6
     \\/     M anipulation  |
\*---------------------------------------------------------------------------*/
FoamFile
{
    version     2.0;
    format      ascii;
    class       surfaceScalarField;
    location    "30";
    object      phi;
}
// * * * * * * * * * * * * * * * * * * * * * * * * * * * * * * * * * * * * * //

dimensions      [1 0 -1 0 0 0 0];

internalField   nonuniform List<scalar> 
852
(
-0.000825734
0.000821362
0.000375151
-0.00120171
0.00246226
-0.00208728
0.00413136
-0.00166923
0.00530845
-0.00117723
0.00610515
-0.000796865
0.00661788
-0.000512968
0.00690839
-0.000290819
0.00701206
-0.000104089
0.0069366
7.49015e-05
0.00665838
0.000277467
0.00611739
0.000539985
0.00518247
0.000933573
0.00350854
0.00167209
0.00350297
0.000176285
-0.000182162
8.93839e-05
8.68546e-05
-1.92742e-06
9.12708e-05
-2.79809e-06
8.38219e-07
4.08828e-05
-4.37089e-05
8.68661e-05
-4.60121e-05
0.000105847
-1.90154e-05
0.00010602
-2.1375e-07
0.00010222
3.75523e-06
9.82723e-05
3.90197e-06
9.56287e-05
2.5973e-06
9.20675e-05
3.51444e-06
8.36325e-05
8.388e-06
5.6354e-05
2.72307e-05
-1.57541e-05
7.20597e-05
-0.000128049
0.000112244
-0.000253903
0.000125805
-0.000329844
7.58994e-05
-0.00033576
4.77584e-05
0.000762266
0.00136187
-0.00251619
0.00273367
-0.00345912
0.00391242
-0.00284789
0.00476297
-0.00202765
0.00532303
-0.00135681
0.00566102
-0.000850875
0.00582706
-0.00045685
0.00584707
-0.000124178
0.00572763
0.000194104
0.00546835
0.000536277
0.00506525
0.000942286
0.00453229
0.00146529
0.00405591
0.00214665
0.00460902
0.00294734
0.00213183
0.00247409
0.00212858
-0.000251973
5.58981e-05
-0.000182446
1.72956e-05
-8.28823e-05
-8.31752e-06
-1.65471e-05
-6.55146e-05
3.8526e-05
-9.87968e-05
8.85399e-05
-9.60399e-05
0.000104173
-3.46641e-05
0.000103035
9.07478e-07
0.000102338
4.43402e-06
0.000101645
4.5782e-06
0.000100754
3.47118e-06
9.97597e-05
4.49207e-06
9.77863e-05
1.03435e-05
9.78926e-05
2.7103e-05
9.31702e-05
7.67558e-05
0.00010694
9.84466e-05
9.05519e-05
0.000142164
0.000121111
4.5314e-05
-0.000229268
0.000395405
0.000350942
0.00145524
-0.00357622
0.0025775
-0.00458127
0.00336206
-0.00363219
0.00387166
-0.00253696
0.00418439
-0.00166926
0.00435637
-0.0010226
0.00442055
-0.000520844
0.00438994
-9.34989e-05
0.00427219
0.000311719
0.00407789
0.00073017
0.0038224
0.001197
0.00354005
0.00174635
0.00328526
0.00239955
0.00303824
0.00319178
0.00200669
0.00350251
0.00413216
-0.000349071
0.000384442
-0.000180715
-0.000151105
-4.25038e-05
-0.000146552
2.39867e-05
-0.00013202
6.12482e-05
-0.000136069
0.000117432
-0.000152233
8.29095e-05
8.39592e-05
8.85368e-05
9.32594e-05
9.68756e-05
0.000101513
0.000112001
0.000139246
0.000216141
0.000354439
-3.98657e-05
0.000463332
3.32562e-05
0.000436638
7.1993e-05
0.000185835
0.000623862
-0.000284877
0.00129465
-0.00424705
0.00208306
-0.00536946
0.0024853
-0.00403407
0.00267838
-0.00272965
0.00277589
-0.00176639
0.00282118
-0.00106757
0.00282383
-0.000523261
0.00278092
-5.05239e-05
0.00269439
0.000398091
0.00257207
0.000852016
0.00242481
0.00134336
0.00226995
0.0018998
0.00212539
0.0025421
0.00204343
0.0032711
0.00196445
0.00357838
0.00254133
0.00355229
0.000808835
0.00170577
0.000618194
0.0005745
0.000313402
0.000153531
0.000188787
-2.19836e-05
0.000136545
-7.97975e-05
0.000103659
-0.000103194
5.05306e-05
-9.9112e-05
9.80645e-05
-4.76896e-05
0.000118961
-2.1051e-05
0.000130534
-1.17262e-05
0.000139159
-8.77789e-06
0.000149994
-1.09874e-05
0.000168452
-1.86102e-05
0.000201298
-3.29991e-05
0.000257629
-5.64834e-05
0.000354966
-9.74905e-05
0.000436874
-0.000121778
0.000580613
-0.000110488
0.000657717
-5.1184e-06
0.000815662
0.000872557
-0.00115228
0.000918553
-0.004293
0.00127926
-0.00572993
0.00134312
-0.00409754
0.00131275
-0.00269886
0.00128161
-0.00173489
0.0012616
-0.00104728
0.00123812
-0.000499619
0.00120047
-1.29051e-05
0.00114773
0.000450555
0.00108348
0.000915662
0.00101714
0.00140869
0.000968777
0.00194666
0.000975221
0.0025336
0.00110519
0.00313855
0.00127059
0.00341012
0.00148558
0.00333476
0.00128275
0.00190703
0.000843191
0.00101346
0.000534601
0.000461928
0.000340575
0.000171982
0.000231385
2.93685e-05
0.000166149
-3.79696e-05
0.000125101
-5.80708e-05
0.000120353
-4.29473e-05
0.000126274
-2.69745e-05
0.000132427
-1.78825e-05
0.000138998
-1.53509e-05
0.000147464
-1.9455e-05
0.000159656
-3.08038e-05
0.000177337
-5.06818e-05
0.000201818
-8.09665e-05
0.000222851
-0.000118525
0.000242286
-0.000141216
0.000267953
-0.000136158
0.000308643
-4.58135e-05
0.000592038
0.00053226
-0.000265585
0.000857414
-0.000757216
0.000491438
-0.000778244
0.000290347
-0.00142553
6.76055e-05
-0.0040701
0.000184307
-0.00584641
9.24731e-05
-0.00400533
-1.78166e-05
-0.00258819
-8.81089e-05
-0.0016643
-0.000135788
-0.000999408
-0.000177205
-0.00045815
-0.000215133
2.48788e-05
-0.000247107
0.000482154
-0.000269661
0.000937536
-0.000270822
0.0014088
-0.000228087
0.00190247
-0.000105066
0.0024087
0.00014366
0.00288761
0.000438
0.0031135
0.000821762
0.00294916
0.000821846
0.00190597
0.000670999
0.00116391
0.000497925
0.00063486
0.000359296
0.000310559
0.000263259
0.000125383
0.000198667
2.6611e-05
0.00015722
-1.66316e-05
0.000138852
-2.45839e-05
0.00013304
-2.11658e-05
0.000132429
-1.72747e-05
0.000134154
-1.70778e-05
0.000137167
-2.24705e-05
0.000140755
-3.43938e-05
0.000143195
-5.31234e-05
0.000139434
-7.72076e-05
0.000119814
-9.89082e-05
7.75879e-05
-9.89923e-05
-8.78907e-06
-4.97847e-05
-0.000177726
0.000123119
-0.000252111
0.000606639
-0.00035524
0.000960541
-0.000460125
0.000596328
-0.00125939
-0.000488452
-0.00090834
-0.000996696
-0.00356167
-0.000965497
-0.00587747
-0.00101339
-0.00395718
-0.00110852
-0.00249278
-0.00119864
-0.00157398
-0.00127878
-0.000919175
-0.00134368
-0.000393283
-0.00138683
6.78249e-05
-0.00140282
0.00049774
-0.00138558
0.00091966
-0.00132285
0.00134515
-0.00119538
0.0017738
-0.000977116
0.00218898
-0.000634718
0.00254359
-0.000210727
0.00268796
0.000251903
0.0024854
0.000402972
0.00175435
0.000423586
0.00114307
0.000374719
0.000683634
0.000309767
0.000375471
0.0002511
0.000184031
0.000203925
7.37751e-05
0.000169389
1.78979e-05
0.000148577
-3.77643e-06
0.000137192
-9.7848e-06
0.000131047
-1.1133e-05
0.000127435
-1.3469e-05
0.000124511
-1.95492e-05
0.000120499
-3.03837e-05
0.000112777
-4.54038e-05
9.6911e-05
-6.13446e-05
6.72139e-05
-6.92139e-05
1.96547e-05
-5.14361e-05
-5.00176e-05
1.98842e-05
-0.000127114
0.000200211
-0.000105687
0.000585208
-6.64508e-05
0.000921303
2.22172e-06
0.000527659
-0.00127811
-0.00145006
0.000582977
-0.00183735
-0.00317432
-0.0017968
-0.00591802
-0.00169795
-0.00405592
-0.00183526
-0.00235528
-0.00200944
-0.00139967
-0.00215131
-0.000777261
-0.00224752
-0.000297143
-0.00229354
0.000113656
-0.00228718
0.00049104
-0.00222397
0.000855941
-0.0020947
0.0012152
-0.00188589
0.00156414
-0.00158117
0.00188328
-0.00116573
0.00212712
-0.000676052
0.00219737
-0.000193378
0.00200209
6.75377e-05
0.00149312
0.000193974
0.0010165
0.000236878
0.000640671
0.000236512
0.000375809
0.000217505
0.000203023
0.000192618
9.86526e-05
0.000168926
4.15833e-05
0.000150434
1.47106e-05
0.000136998
3.6471e-06
0.000127053
-1.19126e-06
0.00011891
-5.32967e-06
0.000110941
-1.15829e-05
0.000101491
-2.09371e-05
8.88035e-05
-3.27198e-05
7.14319e-05
-4.39764e-05
4.97957e-05
-4.75814e-05
2.96911e-05
-3.13352e-05
2.84102e-05
2.11611e-05
9.61235e-05
0.000132494
0.000356183
0.000325144
0.000824103
0.000453381
0.0011894
0.000162369
-0.000217014
0.000564574
-0.00263758
-0.00173461
-0.00682109
-0.00166532
-0.00412523
-0.00218049
-0.00183997
-0.0025628
-0.00101726
-0.00279622
-0.000543815
-0.00292552
-0.000167901
-0.00296704
0.000155038
-0.00292965
0.000453407
-0.00281529
0.000741243
-0.0026204
0.00101986
-0.00233888
0.00128209
-0.00196542
0.00150924
-0.00150308
0.0016642
-0.000991037
0.00168483
-0.00050863
0.00151935
-0.000185657
0.00116998
9.49679e-06
0.000821266
0.000114669
0.000535461
0.000162706
0.000327751
0.000177034
0.000188683
0.000172801
0.000102876
0.000160237
5.41415e-05
0.000145755
2.91869e-05
0.000132033
1.73637e-05
0.000119573
1.12644e-05
0.000107841
6.39776e-06
9.5787e-05
4.66279e-07
8.2211e-05
-7.36558e-06
6.63089e-05
-1.68224e-05
4.89052e-05
-2.65775e-05
3.40556e-05
-3.27367e-05
3.22662e-05
-2.95509e-05
6.66775e-05
-1.32553e-05
0.000184784
1.4383e-05
0.000477925
3.19996e-05
0.000976349
-4.5045e-05
0.00134866
-0.00020994
0.000989962
0.00153797
-0.00204373
-0.00138416
-0.00120325
-0.00253424
-0.000689789
-0.0030703
-0.000481117
-0.00334541
-0.00026868
-0.00346819
-4.51609e-05
-0.00348257
0.000169341
-0.00340298
0.000373665
-0.00323464
0.000572706
-0.00297816
0.000763122
-0.00263409
0.000937726
-0.00220697
0.0010818
-0.00171239
0.00116931
-0.00119133
0.00116352
-0.000711298
0.00103915
-0.000353933
0.000812524
-0.000115803
0.000583088
2.71529e-05
0.000392481
0.000106669
0.000248221
0.00014402
0.000151322
0.00015413
9.27584e-05
0.000149268
5.89963e-05
0.000137556
4.08922e-05
0.000123424
3.14897e-05
0.000108744
2.59381e-05
9.3872e-05
2.12632e-05
7.83188e-05
1.60131e-05
6.14253e-05
9.52153e-06
4.26943e-05
1.90207e-06
2.24147e-05
-6.30467e-06
3.66172e-06
-1.39906e-05
-7.0987e-06
-1.87974e-05
-9.21454e-07
-1.94393e-05
2.90025e-05
-1.55468e-05
7.62452e-05
-1.52473e-05
8.06734e-05
-4.94747e-05
-8.72756e-05
-4.19891e-05
0.000874156
-0.00202807
-5.89456e-05
-0.00288874
-0.00034249
-0.00333079
-0.000247643
-0.00367194
-0.000139915
-0.00388862
-5.19771e-05
-0.00396886
3.50684e-05
-0.00394154
0.000141978
-0.00381702
0.000249072
-0.00359621
0.000351788
-0.00328147
0.000448245
-0.0028782
0.000534303
-0.00239822
0.000601669
-0.00186548
0.00063642
-0.00132308
0.000621006
-0.000830823
0.000546811
-0.000447462
0.000429116
-0.000177519
0.000313119
-5.512e-07
0.000215497
9.92781e-05
0.00014838
0.00014129
0.0001093
0.00015194
8.20997e-05
0.00014609
6.4838e-05
0.000132476
5.44982e-05
0.000115679
4.8279e-05
9.76516e-05
4.3957e-05
7.89632e-05
3.99434e-05
5.97621e-05
3.52059e-05
4.01866e-05
2.90886e-05
1.93226e-05
2.27574e-05
-3.67274e-06
1.66819e-05
-2.8096e-05
1.04238e-05
-5.17142e-05
4.81188e-06
-7.05734e-05
-5.88594e-07
-7.43985e-05
-1.17289e-05
-5.9853e-05
-2.97975e-05
-0.000102017
-7.31243e-06
-0.000349171
0.000205168
0.000490522
-0.00389663
-0.0030827
-0.00321123
-0.00361945
-0.00393331
-0.00414063
-0.00426087
-0.00429442
-0.00422106
-0.00404056
-0.00375727
-0.00337739
-0.00291128
-0.00237756
-0.00180879
-0.00125507
-0.000775088
-0.000412287
-0.00016493
-1.47252e-05
6.87205e-05
0.000113361
0.000130978
0.000131443
0.000121635
0.000105648
8.53663e-05
6.10946e-05
3.21099e-05
-2.97243e-06
-4.4368e-05
-9.18344e-05
-0.000145578
-0.00020498
-0.000269854
-0.000345845
-0.000439581
-0.000510651
-0.000371648
)
;

boundaryField
{
    floor
    {
        type            calculated;
        value           nonuniform List<scalar> 
29
(
0
0
0
0
0
0
0
0
0
0
0
0
0
0
0
0
0
0
0
0
5.88563e-06
1.45973e-05
2.15211e-05
2.78829e-05
3.01251e-06
5.83127e-06
1.38862e-05
2.04686e-05
2.4626e-05
)
;
    }
    ceiling
    {
        type            calculated;
        value           nonuniform List<scalar> 
43
(
8.14137e-05
7.72936e-05
6.97055e-05
6.58166e-05
6.62732e-05
6.74475e-05
6.82761e-05
6.86176e-05
6.86025e-05
6.85418e-05
6.84463e-05
6.8311e-05
6.81286e-05
6.78923e-05
6.75963e-05
6.7235e-05
6.67997e-05
6.62938e-05
6.57473e-05
6.52799e-05
6.49224e-05
6.46475e-05
6.44717e-05
6.43606e-05
6.42936e-05
6.42534e-05
6.42262e-05
6.42023e-05
6.41777e-05
6.41578e-05
6.41394e-05
6.41344e-05
6.41537e-05
6.42e-05
6.42724e-05
6.42506e-05
6.39308e-05
6.37548e-05
6.61666e-05
7.6973e-05
4.14362e-05
2.77814e-05
4.34129e-05
)
;
    }
    sWall
    {
        type            calculated;
        value           uniform 4.06518e-05;
    }
    nWall
    {
        type            calculated;
        value           nonuniform List<scalar> 6(2.08364e-05 2.1032e-05 2.09467e-05 2.85367e-05 3.44687e-05 4.19078e-05);
    }
    sideWalls
    {
        type            empty;
        value           nonuniform 0();
    }
    glass1
    {
        type            calculated;
        value           nonuniform List<scalar> 9(2.98577e-06 1.02338e-05 1.52372e-05 1.12962e-05 -5.97611e-06 -1.78417e-05 -2.92549e-05 -4.16008e-05 -2.40547e-05);
    }
    glass2
    {
        type            calculated;
        value           nonuniform List<scalar> 2(0.000128307 0.000141688);
    }
    sun
    {
        type            calculated;
        value           uniform 0;
    }
    heatsource1
    {
        type            calculated;
        value           nonuniform List<scalar> 3(2.01511e-07 2.0157e-07 2.01637e-07);
    }
    heatsource2
    {
        type            calculated;
        value           nonuniform List<scalar> 4(5.03676e-08 5.0518e-08 0 0);
    }
    Table_master
    {
        type            calculated;
        value           nonuniform List<scalar> 9(-1.51371e-07 -1.5149e-07 -1.51506e-07 -1.5151e-07 -1.5151e-07 -1.51509e-07 -1.51505e-07 -1.51493e-07 -1.5142e-07);
    }
    Table_slave
    {
        type            calculated;
        value           nonuniform List<scalar> 9(1.51225e-07 1.51331e-07 1.51336e-07 1.51337e-07 1.51336e-07 1.51331e-07 1.5132e-07 1.51301e-07 1.51217e-07);
    }
    inlet
    {
        type            calculated;
        value           uniform -0.00631537;
    }
    outlet
    {
        type            calculated;
        value           nonuniform List<scalar> 2(0.00377476 -0.000891063);
    }
}


// ************************************************************************* //
