/*--------------------------------*- C++ -*----------------------------------*\
  =========                 |
  \\      /  F ield         | OpenFOAM: The Open Source CFD Toolbox
   \\    /   O peration     | Website:  https://openfoam.org
    \\  /    A nd           | Version:  6
     \\/     M anipulation  |
\*---------------------------------------------------------------------------*/
FoamFile
{
    version     2.0;
    format      ascii;
    class       surfaceScalarField;
    location    "100";
    object      phi;
}
// * * * * * * * * * * * * * * * * * * * * * * * * * * * * * * * * * * * * * //

dimensions      [1 0 -1 0 0 0 0];

internalField   nonuniform List<scalar> 
852
(
-0.00376565
0.00382008
-0.00500672
0.00124054
-0.00409554
-0.000911727
-0.0018557
-0.00224039
0.000566052
-0.00242232
0.00253984
-0.00197429
0.00391077
-0.00137141
0.00475984
-0.000849521
0.00519498
-0.000435579
0.00530168
-0.000107149
0.00513455
0.000166669
0.0047043
0.000429771
0.00395779
0.000746024
0.0026701
0.00128719
0.00267189
-0.0011063
0.00110835
-0.00151661
0.000410052
-0.00102957
-0.000487292
-0.000142611
-0.000887218
0.000752886
-0.000895751
0.00146616
-0.000713529
0.00189043
-0.000424526
0.00209229
-0.000202108
0.00220929
-0.00011726
0.00229129
-8.22526e-05
0.00234906
-5.80265e-05
0.00238775
-3.89434e-05
0.00240634
-1.88429e-05
0.00239069
1.53889e-05
0.00230501
8.5423e-05
0.00208701
0.000217744
0.00169056
0.000396194
0.001068
0.000622298
0.00107001
-0.00250561
0.00647953
-0.00326113
0.0019955
-0.00184476
-0.00232867
0.000135901
-0.00422161
0.00192958
-0.00421663
0.00334895
-0.00339424
0.00437919
-0.00240215
0.00501843
-0.00148921
0.00531976
-0.000737325
0.00535184
-0.000139637
0.00516168
0.000356413
0.00478471
0.000806302
0.00426154
0.00126872
0.0037514
0.00179685
0.00405528
0.00236754
0.00195645
0.00209832
0.00195598
-0.000498099
0.00161311
-0.000185194
9.68817e-05
0.00050976
-0.00118251
0.00107641
-0.00145414
0.00156377
-0.00138338
0.00195216
-0.00110219
0.00205082
-0.000523452
0.00207232
-0.000223856
0.00209403
-0.000139226
0.00211184
-0.000100327
0.00212384
-7.02786e-05
0.00213194
-4.73022e-05
0.00213599
-2.31519e-05
0.00212901
2.21032e-05
0.00207046
0.000143717
0.00182803
0.000459909
0.00141197
0.000811995
0.000841837
0.00119216
0.00191807
-0.00215298
0.00887591
-0.00131614
0.00115808
0.00066854
-0.00431373
0.00227734
-0.00583095
0.00347478
-0.00541473
0.00436752
-0.00428761
0.0049592
-0.00299437
0.00527691
-0.00180738
0.00536864
-0.000829444
0.00527199
-4.33456e-05
0.00502432
0.000603705
0.0046736
0.00115661
0.00428241
0.00165948
0.00392029
0.0021585
0.00357378
0.00271357
0.00252303
0.0031486
0.00447858
0.000928188
0.000696461
0.00175014
-0.000725348
0.00199881
-0.00143147
0.00221416
-0.00166978
0.00240772
-0.00157723
0.0026978
-0.00139255
0.00217422
0.00195026
0.00181092
0.00171049
0.00164011
0.0015927
0.00156945
0.00159144
0.00173505
0.0014223
0.000772381
0.00107768
0.00115634
0.000627335
0.00164222
0.00255562
-0.00105348
0.0102623
0.00130221
-0.00119833
0.00362686
-0.00663871
0.0047134
-0.00691793
0.00517381
-0.00587583
0.0053368
-0.00445133
0.00533196
-0.00299014
0.00521961
-0.0016955
0.00502841
-0.000638613
0.00475239
0.000232332
0.00442232
0.000933423
0.00409037
0.00148817
0.00380039
0.00194904
0.00358685
0.00237159
0.00350896
0.00279099
0.00364207
0.00301503
0.00506419
0.00305603
0.00354216
0.00153442
0.00376892
0.000469332
0.00359622
-0.000552986
0.00337251
-0.00120809
0.00314053
-0.00143812
0.00290989
-0.00134691
0.00254353
-0.00102651
0.00294396
-0.00040089
0.00305255
-0.000109052
0.00303305
1.90311e-05
0.00292959
0.000103
0.00275741
0.000171705
0.00252176
0.000235176
0.00221404
0.000307234
0.00180369
0.000409858
0.00121781
0.000585384
0.00102961
0.000960255
0.000783953
0.00140169
0.000508536
0.00191734
0.00307805
0.00515858
0.00552223
0.00772817
-0.0037677
0.00766724
-0.00657762
0.00710176
-0.00635283
0.00636055
-0.00513551
0.00555972
-0.00365147
0.00483347
-0.00226466
0.00425171
-0.00111428
0.00374462
-0.000131896
0.00331831
0.000658297
0.00302107
0.0012303
0.00284311
0.00166574
0.00277021
0.0020215
0.00281807
0.00232327
0.00304925
0.00255934
0.00346006
0.00260375
0.00405952
0.00245612
0.00408595
0.00150758
0.00414571
0.000409172
0.00396518
-0.000372834
0.00359809
-0.000841382
0.00316641
-0.00100681
0.00274782
-0.000928684
0.00239383
-0.000672874
0.0022818
-0.000289216
0.0021616
1.07987e-05
0.00199697
0.000183309
0.00181922
0.000280387
0.00163852
0.000352054
0.00145169
0.000421643
0.00125154
0.000507022
0.00103172
0.000629312
0.000813097
0.000803642
0.000701302
0.0010717
0.000698649
0.00140401
0.000748774
0.0018669
0.00148474
0.00234177
0.000387289
0.00109695
-0.000467835
0.000855216
-0.000427621
0.00910264
-0.00307637
0.0107807
-0.00544456
0.00926627
-0.00506281
0.00719396
-0.00428125
0.00534368
-0.00328685
0.00374782
-0.00205708
0.00252754
-0.0010454
0.00167501
-0.000262393
0.00119537
0.000347282
0.00105494
0.00079837
0.00108469
0.00120018
0.00119922
0.00155079
0.00138063
0.00183965
0.00164014
0.0020633
0.00200431
0.00219471
0.00244645
0.00216116
0.00298599
0.00191614
0.00331519
0.00117795
0.00331955
0.000404396
0.00309425
-0.00014794
0.00271735
-0.000464892
0.00227901
-0.000568872
0.00184923
-0.000499303
0.00148021
-0.000304238
0.00121917
-2.85667e-05
0.00102723
0.000202354
0.000874392
0.000335758
0.000741355
0.000413037
0.000624071
0.000468953
0.00052325
0.000522079
0.000444153
0.000585737
0.000398853
0.000674232
0.000403637
0.000798482
0.000511362
0.000963603
0.000767033
0.00114798
0.00115748
0.00147611
0.00170963
0.00178928
0.00174595
0.00106028
0.00167293
0.000927932
0.00129236
0.0067241
-0.0091768
0.00634981
-0.00507044
0.00467291
-0.00338664
0.00243545
-0.00204656
0.000670802
-0.00152556
-0.000466946
-0.000920997
-0.00100851
-0.000504463
-0.00115883
-0.000112499
-0.0010869
0.000274972
-0.000927301
0.000638388
-0.000704935
0.000977406
-0.000427783
0.00127321
-9.77957e-05
0.00150921
0.000286628
0.00167842
0.000725973
0.00175491
0.00119721
0.00168947
0.0016747
0.0014382
0.00192464
0.000927567
0.00189942
0.000429165
0.00168312
6.79244e-05
0.00135128
-0.000133477
0.000966865
-0.000184891
0.000585509
-0.000118375
0.000252355
2.84918e-05
1.98964e-05
0.00020347
-0.000116267
0.000338098
-0.000202129
0.000421205
-0.000261278
0.000471774
-0.000296972
0.000504242
-0.000301921
0.000526628
-0.000261087
0.000544508
-0.000152389
0.000565144
4.53442e-05
0.000600363
0.000337807
0.000670762
0.000722507
0.000762906
0.00121544
0.000982814
0.00186424
0.00114013
0.00225357
0.000670581
0.0022975
0.000883615
0.00364135
-0.00272203
-0.00570635
-0.00372224
-0.00407151
-0.00238065
-0.0047298
-0.00250936
-0.00191906
-0.00275164
-0.00128421
-0.00285121
-0.000822079
-0.00287657
-0.000479591
-0.00281551
-0.000173999
-0.00267127
0.000130321
-0.00246395
0.000430664
-0.00219725
0.000710277
-0.00187647
0.000952
-0.00150901
0.00114132
-0.00109894
0.00126789
-0.000657775
0.00131328
-0.000220001
0.00125123
0.000148909
0.00106881
0.000307924
0.000768073
0.000259255
0.000477355
6.74307e-05
0.000259276
-0.000202537
0.000136028
-0.000496888
0.000108998
-0.000766121
0.000150396
-0.000967241
0.000229153
-0.00108186
0.000317635
-0.001135
0.000390792
-0.00115246
0.000438226
-0.00114455
0.000463433
-0.00110984
0.000469105
-0.00103844
0.000454822
-0.000913806
0.000419464
-0.000716012
0.000366949
-0.000431
0.000314955
-5.89092e-05
0.00029828
0.000351242
0.000352363
0.000804219
0.000529453
0.00126656
0.000677413
0.00130182
0.000634934
0.000361218
0.00182381
0.00422076
-0.00472027
-0.00875578
-0.00541857
-0.008068
-0.00405857
-0.00327981
-0.00396525
-0.00137817
-0.00400267
-0.000785214
-0.00401329
-0.000469468
-0.00397315
-0.000214606
-0.00386923
2.59517e-05
-0.0036966
0.000257591
-0.00345776
0.000470993
-0.00316125
0.000655035
-0.00281957
0.000799179
-0.00244722
0.000895068
-0.00206726
0.000932837
-0.00171935
0.000902818
-0.00145605
0.000805
-0.00133977
0.000651274
-0.00135845
0.000495515
-0.00147076
0.000371078
-0.0016287
0.000293464
-0.00178542
0.000265207
-0.00191001
0.000274495
-0.00198734
0.000305991
-0.00201584
0.000345659
-0.0020071
0.000381578
-0.00197665
0.000407316
-0.00193594
0.000422274
-0.00189507
0.000427796
-0.00186767
0.000426986
-0.00187554
0.000426899
-0.00195095
0.000441917
-0.00213317
0.00049673
-0.00246223
0.00062689
-0.00298822
0.000877906
-0.00375396
0.00129475
-0.00490066
0.00182365
-0.00650957
0.00224337
-0.00663187
0.00194563
-0.00219967
-0.00126518
-0.000720573
-0.00376584
-0.000779857
-0.00446133
-0.000683316
-0.00475828
-0.000488828
-0.00490083
-0.000327456
-0.00494108
-0.00017487
-0.00489685
-1.877e-05
-0.00477594
0.000136193
-0.00458752
0.000282089
-0.00434193
0.000408954
-0.00405404
0.000510798
-0.00374251
0.000583024
-0.00343155
0.00062135
-0.0031519
0.000622634
-0.00293499
0.000587546
-0.00280669
0.000522422
-0.00275937
0.000447639
-0.00276858
0.000379745
-0.00280487
0.000329207
-0.00284058
0.000300383
-0.00285769
0.000291078
-0.00284821
0.000295995
-0.00281188
0.00030883
-0.00275426
0.00032346
-0.00268349
0.000336048
-0.00260771
0.000346009
-0.00253581
0.000355414
-0.00247811
0.000368797
-0.00244499
0.000393288
-0.00244324
0.000439662
-0.00247275
0.000525724
-0.0025259
0.000679542
-0.00258156
0.000933072
-0.00258805
0.00130076
-0.00251153
0.00174665
-0.00205339
0.00178475
-0.000555893
0.000447644
-0.00271451
-0.00333191
0.00260648
-0.00460117
0.000488775
-0.00526893
-1.61847e-05
-0.00563317
-0.000125188
-0.00583317
-0.00012803
-0.0059242
-8.43997e-05
-0.00592357
-1.99454e-05
-0.00584584
5.79251e-05
-0.00569876
0.000134468
-0.00549276
0.000202417
-0.00524161
0.000259104
-0.00496195
0.0003028
-0.00467316
0.000331989
-0.00439652
0.00034542
-0.00415217
0.000342612
-0.00395535
0.000325012
-0.00380718
0.00029889
-0.00369867
0.000270656
-0.0036157
0.000245667
-0.00354342
0.00022754
-0.00347038
0.000217479
-0.00338985
0.000214919
-0.00329954
0.000217985
-0.00320066
0.000224038
-0.00309605
0.000230905
-0.00298835
0.000237769
-0.00287875
0.000245267
-0.00276601
0.000255513
-0.00264536
0.000272078
-0.00250645
0.000300197
-0.00232976
0.000348478
-0.00208337
0.000432594
-0.00172062
0.000569782
-0.00113985
0.000719465
-0.000122715
0.000728988
0.00124183
0.000419693
0.00201971
-0.000330764
-0.00065085
-0.0075143
-0.00965729
-0.00706659
-0.00659831
-0.00663672
-0.00678416
-0.00693427
-0.0070406
-0.00708235
-0.00704616
-0.0069335
-0.00675315
-0.00651657
-0.00623692
-0.00592887
-0.00560836
-0.00529176
-0.00499396
-0.00472352
-0.0044825
-0.00426753
-0.0040716
-0.00388647
-0.0037045
-0.00351996
-0.0033298
-0.00313315
-0.00292998
-0.0027196
-0.0024992
-0.00226232
-0.00199726
-0.00168364
-0.00128537
-0.000749136
-6.2415e-05
0.000634038
0.00101905
0.000649223
)
;

boundaryField
{
    floor
    {
        type            calculated;
        value           nonuniform List<scalar> 
29
(
0
0
0
0
0
0
0
0
0
0
0
0
0
0
0
0
0
0
0
0
-2.2885e-06
-6.50939e-06
-1.05025e-05
-1.41884e-05
-2.2714e-06
-2.30032e-06
-6.93355e-06
-1.18064e-05
-1.28058e-05
)
;
    }
    ceiling
    {
        type            calculated;
        value           nonuniform List<scalar> 
43
(
1.73817e-05
1.58102e-05
1.51433e-05
1.98438e-05
2.15898e-05
2.16294e-05
2.14743e-05
2.13181e-05
2.12049e-05
2.11338e-05
2.1208e-05
2.14678e-05
2.19109e-05
2.2533e-05
2.33285e-05
2.42877e-05
2.53898e-05
2.65934e-05
2.78294e-05
2.90188e-05
3.00915e-05
3.10042e-05
3.17503e-05
3.23533e-05
3.2851e-05
3.32796e-05
3.36617e-05
3.40026e-05
3.4291e-05
3.45014e-05
3.45954e-05
3.45265e-05
3.4245e-05
3.37115e-05
3.29445e-05
3.21389e-05
3.19413e-05
3.4049e-05
3.82786e-05
4.40714e-05
-2.48735e-05
-3.7051e-05
4.36833e-06
)
;
    }
    sWall
    {
        type            calculated;
        value           uniform -0.000207068;
    }
    nWall
    {
        type            calculated;
        value           nonuniform List<scalar> 6(-4.08117e-05 -4.77581e-05 -5.20383e-05 -4.16821e-05 -4.45776e-05 -4.65769e-05);
    }
    sideWalls
    {
        type            empty;
        value           nonuniform 0();
    }
    glass1
    {
        type            calculated;
        value           nonuniform List<scalar> 9(-5.49092e-05 -0.000154335 -0.000243747 -0.000333578 -0.00041918 -0.0005018 -0.000624363 -0.0007493 -0.000961922);
    }
    glass2
    {
        type            calculated;
        value           nonuniform List<scalar> 2(-0.000218694 -0.000211968);
    }
    sun
    {
        type            calculated;
        value           uniform 0;
    }
    heatsource1
    {
        type            calculated;
        value           nonuniform List<scalar> 3(2.03548e-07 2.03541e-07 2.03257e-07);
    }
    heatsource2
    {
        type            calculated;
        value           nonuniform List<scalar> 4(5.10705e-08 5.13035e-08 0 0);
    }
    Table_master
    {
        type            calculated;
        value           nonuniform List<scalar> 9(-1.52821e-07 -1.53038e-07 -1.53089e-07 -1.53106e-07 -1.53105e-07 -1.5309e-07 -1.53064e-07 -1.53022e-07 -1.52931e-07);
    }
    Table_slave
    {
        type            calculated;
        value           nonuniform List<scalar> 9(1.5246e-07 1.52444e-07 1.52393e-07 1.52351e-07 1.52339e-07 1.52351e-07 1.52386e-07 1.52444e-07 1.52537e-07);
    }
    inlet
    {
        type            calculated;
        value           uniform -0.00608299;
    }
    outlet
    {
        type            calculated;
        value           nonuniform List<scalar> 2(0.00770333 0.00212654);
    }
}


// ************************************************************************* //
