// -*- C++ -*-
// File generated by PyFoam - sorry for the ugliness

FoamFile
{
 version 2.0;
 format ascii;
 class volVectorField;
 location "1700";
 object U;
}

dimensions [ 0 1 -1 0 0 0 0 ];

internalField nonuniform List<vector> 459
(
  (0.34056 -0.167768 0)
  (0.27697 -0.150396 0)
  (0.407049 -0.0998978 0)
  (0.506688 -0.0659629 0)
  (0.552663 -0.0463212 0)
  (0.569941 -0.0332506 0)
  (0.575433 -0.0231144 0)
  (0.571474 -0.0142812 0)
  (0.557593 -0.00597748 0)
  (0.533167 0.00246286 0)
  (0.497275 0.0117972 0)
  (0.448069 0.0231937 0)
  (0.3817 0.0393868 0)
  (0.286018 0.0699589 0)
  (0.211656 0.150864 0)
  (0.0216008 0.0103391 0)
  (-0.0235425 -0.0024918 0)
  (-0.0170063 -0.00384426 0)
  (-0.0167189 -0.00282854 0)
  (-0.0162877 -0.00290176 0)
  (-0.0143989 -0.00450832 0)
  (-0.00938877 -0.00765595 0)
  (-0.00381229 -0.0103765 0)
  (0.00513378 -0.00648561 0)
  (0.0099941 -0.00446065 0)
  (0.0132245 -0.00332547 0)
  (0.0159335 -0.00276039 0)
  (0.0185291 -0.00278393 0)
  (0.0210845 -0.00254799 0)
  (0.0230508 -0.00207299 0)
  (0.0229961 -0.00120392 0)
  (0.0219939 -0.00313867 0)
  (0.0261857 -0.00341937 0)
  (-0.0116683 0.00977445 0)
  (0.429422 -0.33415 0)
  (0.211801 -0.247309 0)
  (0.327151 -0.134478 0)
  (0.40733 -0.0682811 0)
  (0.438376 -0.0344259 0)
  (0.450378 -0.0126082 0)
  (0.456472 0.00551501 0)
  (0.455926 0.0213275 0)
  (0.44658 0.0357892 0)
  (0.427842 0.0502891 0)
  (0.399218 0.0661547 0)
  (0.360409 0.084879 0)
  (0.312688 0.108854 0)
  (0.259293 0.14292 0)
  (0.229875 0.202565 0)
  (0.200705 0.175318 0)
  (0.0936461 0.119202 0)
  (0.06648 0.00693123 0)
  (0.0310365 0.0056557 0)
  (0.018622 0.00410775 0)
  (0.0124412 0.00374236 0)
  (0.00684542 0.00368307 0)
  (-0.00143496 0.00128732 0)
  (-0.002944 -0.00762086 0)
  (-0.00464018 -0.0136038 0)
  (-0.000995879 -0.00773357 0)
  (0.00220328 -0.00452554 0)
  (0.00273845 -0.00331954 0)
  (0.0022325 -0.00291528 0)
  (0.00094217 -0.00259031 0)
  (-0.00253666 0.00024867 0)
  (-0.00650358 0.00394166 0)
  (-0.00967568 0.00687595 0)
  (-0.0146637 0.00610525 0)
  (-0.0295149 0.00916174 0)
  (-0.0755821 0.0145866 0)
  (0.462613 -0.504105 0)
  (0.0850241 -0.33775 0)
  (0.219548 -0.182478 0)
  (0.279536 -0.103228 0)
  (0.293827 -0.0643471 0)
  (0.301683 -0.0375699 0)
  (0.308952 -0.0141513 0)
  (0.313707 0.00895527 0)
  (0.311635 0.0329227 0)
  (0.302173 0.0584917 0)
  (0.284896 0.0862109 0)
  (0.259827 0.116496 0)
  (0.228426 0.14974 0)
  (0.19159 0.185808 0)
  (0.162973 0.223801 0)
  (0.124502 0.185674 0)
  (0.0635759 0.139946 0)
  (0.0312703 -0.0117415 0)
  (-0.00851466 -0.00118159 0)
  (-0.00439925 0.00362458 0)
  (-0.00123554 0.00456495 0)
  (0.00172554 0.00492654 0)
  (0.00240425 0.00508358 0)
  (0.0125244 -0.00129671 0)
  (-0.00508608 -0.013624 0)
  (-0.0168864 -0.0100821 0)
  (-0.021665 -0.00745278 0)
  (-0.0252261 -0.00570899 0)
  (-0.0279664 -0.00415175 0)
  (-0.0297639 -0.00261853 0)
  (-0.0290086 -0.000976268 0)
  (-0.0246128 0.0004577 0)
  (-0.0177108 0.00263682 0)
  (-0.00781981 0.00390647 0)
  (0.00214676 0.00224419 0)
  (-0.0407361 -0.00177146 0)
  (0.473764 -0.613106 0)
  (-0.0346679 -0.385794 0)
  (0.138647 -0.20422 0)
  (0.16881 -0.116599 0)
  (0.162468 -0.0741651 0)
  (0.167678 -0.0428932 0)
  (0.175525 -0.0152471 0)
  (0.183361 0.0119992 0)
  (0.186011 0.0404992 0)
  (0.183016 0.0714679 0)
  (0.173824 0.105183 0)
  (0.158099 0.141309 0)
  (0.136297 0.178915 0)
  (0.107146 0.216133 0)
  (0.0809926 0.250274 0)
  (0.0482804 0.230869 0)
  (0.0138443 0.187282 0)
  (-0.0588368 0.019032 0)
  (-0.0373099 0.000575656 0)
  (-0.0419458 0.00204841 0)
  (-0.0429051 0.00404446 0)
  (-0.0452688 0.00548348 0)
  (-0.0492538 0.00525082 0)
  (-0.0547145 0.00308847 0)
  (-0.0601394 0.000278589 0)
  (-0.0615832 -0.0017269 0)
  (-0.0614282 -0.00306223 0)
  (-0.0597171 -0.00400554 0)
  (-0.0568762 -0.00476106 0)
  (-0.0531362 -0.00544339 0)
  (-0.0484858 -0.00614764 0)
  (-0.042631 -0.00693872 0)
  (-0.0350967 -0.00772356 0)
  (-0.0273192 -0.00760587 0)
  (-0.0183744 -0.00740352 0)
  (-0.00740955 -0.0060017 0)
  (0.0198624 0.00818299 0)
  (0.458755 -0.673481 0)
  (-0.119035 -0.415723 0)
  (0.0839751 -0.214574 0)
  (0.0750334 -0.113507 0)
  (0.0474231 -0.0780691 0)
  (0.0575058 -0.0499131 0)
  (0.0665457 -0.0230914 0)
  (0.0753631 0.00620304 0)
  (0.0789121 0.0390863 0)
  (0.0782365 0.0755928 0)
  (0.0729093 0.115201 0)
  (0.0623592 0.157011 0)
  (0.0466464 0.199772 0)
  (0.023975 0.241579 0)
  (0.00516918 0.279168 0)
  (-0.01782 0.266297 0)
  (-0.0294426 0.209336 0)
  (-0.0597364 0.0390014 0)
  (-0.0538877 0.00725199 0)
  (-0.0618205 0.00513888 0)
  (-0.0652397 0.0067586 0)
  (-0.0667281 0.00826604 0)
  (-0.0671837 0.00851238 0)
  (-0.0670993 0.00710325 0)
  (-0.0666432 0.00435662 0)
  (-0.0658376 0.00120951 0)
  (-0.0647347 -0.00120185 0)
  (-0.06318 -0.00299833 0)
  (-0.0611988 -0.00440997 0)
  (-0.05885 -0.00569122 0)
  (-0.0561219 -0.007124 0)
  (-0.052885 -0.00903999 0)
  (-0.0489145 -0.0117553 0)
  (-0.0437803 -0.0152157 0)
  (-0.0366297 -0.0187575 0)
  (-0.0247186 -0.0229381 0)
  (-0.00357119 -0.0252158 0)
  (0.0256669 -0.0373963 0)
  (0.0688653 -0.0233656 0)
  (-0.0471706 0.0182006 0)
  (0.407459 -0.687146 0)
  (-0.160148 -0.427107 0)
  (0.0288501 -0.201931 0)
  (-0.00865069 -0.085107 0)
  (-0.0464989 -0.0789054 0)
  (-0.0327486 -0.0578191 0)
  (-0.0265741 -0.0321355 0)
  (-0.0197309 -0.000394644 0)
  (-0.0179288 0.0371469 0)
  (-0.0180135 0.0780386 0)
  (-0.0207065 0.122311 0)
  (-0.0267673 0.168959 0)
  (-0.0362389 0.216485 0)
  (-0.049573 0.261541 0)
  (-0.0571714 0.294909 0)
  (-0.0648803 0.279345 0)
  (-0.0594482 0.206721 0)
  (-0.0648766 0.0507507 0)
  (-0.0636194 0.0157268 0)
  (-0.0691273 0.00920816 0)
  (-0.0709284 0.00809835 0)
  (-0.0703926 0.00774203 0)
  (-0.0684836 0.00681382 0)
  (-0.0660469 0.00488889 0)
  (-0.0637393 0.00216675 0)
  (-0.0618453 -0.000707925 0)
  (-0.0604402 -0.00306108 0)
  (-0.0593715 -0.00485277 0)
  (-0.0585985 -0.00623562 0)
  (-0.0581812 -0.0074416 0)
  (-0.0582145 -0.00880386 0)
  (-0.0587482 -0.0108024 0)
  (-0.0596581 -0.0140251 0)
  (-0.060387 -0.0189323 0)
  (-0.0597091 -0.0257233 0)
  (-0.0556109 -0.0351088 0)
  (-0.045977 -0.0464909 0)
  (-0.0313193 -0.0556707 0)
  (0.0230694 -0.0250967 0)
  (-0.109997 0.0628794 0)
  (0.304064 -0.632221 0)
  (-0.174342 -0.393663 0)
  (-0.0727394 -0.174212 0)
  (-0.0855501 -0.0541211 0)
  (-0.138817 -0.0755922 0)
  (-0.126276 -0.0617267 0)
  (-0.12119 -0.0357939 0)
  (-0.116186 -0.00185937 0)
  (-0.11112 0.0369226 0)
  (-0.108619 0.0793902 0)
  (-0.106742 0.125418 0)
  (-0.105853 0.174044 0)
  (-0.105776 0.223203 0)
  (-0.105935 0.267711 0)
  (-0.10028 0.294719 0)
  (-0.0920186 0.272824 0)
  (-0.0740063 0.189291 0)
  (-0.0655154 0.054532 0)
  (-0.0647917 0.0200092 0)
  (-0.0663178 0.0106614 0)
  (-0.0650992 0.00717483 0)
  (-0.062078 0.00515785 0)
  (-0.0581838 0.00341526 0)
  (-0.0542152 0.00150408 0)
  (-0.0507661 -0.000610647 0)
  (-0.0483618 -0.00262576 0)
  (-0.046924 -0.00426882 0)
  (-0.046251 -0.00544113 0)
  (-0.0463136 -0.00615313 0)
  (-0.0472536 -0.00651844 0)
  (-0.0494028 -0.00682219 0)
  (-0.0532367 -0.00761448 0)
  (-0.0591511 -0.00970637 0)
  (-0.0672156 -0.0139184 0)
  (-0.0770097 -0.0208686 0)
  (-0.0873193 -0.0309347 0)
  (-0.0945968 -0.0425068 0)
  (-0.0948591 -0.0462936 0)
  (-0.0988825 -0.0157199 0)
  (-0.164907 0.0961898 0)
  (0.147118 -0.494129 0)
  (-0.290183 -0.310394 0)
  (-0.280801 -0.158819 0)
  (-0.184998 -0.0276992 0)
  (-0.251266 -0.0862126 0)
  (-0.222138 -0.0736916 0)
  (-0.21084 -0.044444 0)
  (-0.202641 -0.00765451 0)
  (-0.194255 0.0330047 0)
  (-0.18745 0.0760387 0)
  (-0.179208 0.121763 0)
  (-0.169056 0.169594 0)
  (-0.15658 0.217176 0)
  (-0.141364 0.25836 0)
  (-0.121094 0.279148 0)
  (-0.0984883 0.252187 0)
  (-0.0715487 0.165305 0)
  (-0.0551275 0.0523379 0)
  (-0.0535024 0.0195882 0)
  (-0.0513217 0.00854964 0)
  (-0.0465892 0.00339609 0)
  (-0.0405246 0.000457274 0)
  (-0.0347752 -0.00117674 0)
  (-0.0300483 -0.00226144 0)
  (-0.0266788 -0.00319941 0)
  (-0.0244898 -0.00408217 0)
  (-0.0232722 -0.00479896 0)
  (-0.0228005 -0.00517791 0)
  (-0.022945 -0.00505583 0)
  (-0.0237183 -0.00432808 0)
  (-0.0253426 -0.00302884 0)
  (-0.0283225 -0.00144807 0)
  (-0.033327 -0.000264576 0)
  (-0.0421956 -0.0010106 0)
  (-0.0571472 -0.00612204 0)
  (-0.0789264 -0.0178927 0)
  (-0.103683 -0.0369984 0)
  (-0.128872 -0.0638864 0)
  (-0.170861 -0.0968324 0)
  (-0.34264 -0.137385 0)
  (-0.0906489 -0.34709 0)
  (-0.619824 -0.298736 0)
  (-0.828994 -0.279113 0)
  (-0.230958 -0.147554 0)
  (-0.343523 -0.128202 0)
  (-0.290287 -0.0934881 0)
  (-0.275058 -0.055799 0)
  (-0.266992 -0.0179193 0)
  (-0.258601 0.0223551 0)
  (-0.247915 0.0648809 0)
  (-0.232721 0.108431 0)
  (-0.212158 0.152865 0)
  (-0.185908 0.196203 0)
  (-0.154488 0.232623 0)
  (-0.119016 0.248994 0)
  (-0.08359 0.221411 0)
  (-0.0484992 0.139665 0)
  (-0.0248945 0.0467321 0)
  (-0.0229878 0.0172913 0)
  (-0.0186816 0.00599708 0)
  (-0.0103738 0.000471864 0)
  (-0.00397759 -0.00177764 0)
  (0.00101989 -0.00225442 0)
  (0.00450019 -0.00215309 0)
  (0.00675778 -0.00207998 0)
  (0.00808189 -0.00215369 0)
  (0.00870326 -0.00226331 0)
  (0.00883305 -0.00222169 0)
  (0.00866149 -0.00182579 0)
  (0.00837198 -0.000889648 0)
  (0.00814656 0.000706193 0)
  (0.00819076 0.00293693 0)
  (0.00860353 0.00559447 0)
  (0.00955404 0.0080883 0)
  (0.0110348 0.0091936 0)
  (0.0136984 0.00801673 0)
  (0.0157886 0.00502972 0)
  (0.0203019 -0.00170079 0)
  (0.0381288 -0.0446705 0)
  (-0.211849 -0.150083 0)
  (-1.8583 -0.297514 0)
  (-0.0991899 -0.270112 0)
  (-0.325572 -0.168617 0)
  (-0.307679 -0.102571 0)
  (-0.307372 -0.0470877 0)
  (-0.305297 -0.000516065 0)
  (-0.298079 0.0359926 0)
  (-0.285128 0.0656592 0)
  (-0.264418 0.0969401 0)
  (-0.234368 0.130006 0)
  (-0.194897 0.163254 0)
  (-0.147654 0.19191 0)
  (-0.096595 0.205143 0)
  (-0.0472046 0.182208 0)
  (0.00271466 0.107683 0)
  (0.032549 0.0417632 0)
  (0.0363485 0.0177237 0)
  (0.0403789 0.00488257 0)
  (0.0431946 -0.0021402 0)
  (0.0445816 -0.00407485 0)
  (0.0452076 -0.00373637 0)
  (0.0454805 -0.00281759 0)
  (0.045576 -0.00203057 0)
  (0.045506 -0.00149672 0)
  (0.0452444 -0.00108344 0)
  (0.0448061 -0.000603132 0)
  (0.0442801 0.000109542 0)
  (0.0438475 0.00117044 0)
  (0.0437868 0.00260815 0)
  (0.0444808 0.00426333 0)
  (0.046185 0.00553937 0)
  (0.049396 0.00527229 0)
  (0.0542818 0.00188522 0)
  (0.0600915 -0.00528631 0)
  (0.0659892 -0.0152832 0)
  (0.0703064 -0.0275065 0)
  (0.0780366 -0.0545201 0)
  (-0.0160558 -0.119663 0)
  (-0.317527 0.025456 0)
  (-0.00471339 -0.243853 0)
  (-0.226478 -0.18198 0)
  (-0.277503 -0.158823 0)
  (-0.313053 -0.140083 0)
  (-0.329919 -0.116754 0)
  (-0.329954 -0.0831808 0)
  (-0.315231 -0.0391947 0)
  (-0.288216 -0.000599234 0)
  (-0.247965 0.0354778 0)
  (-0.194792 0.0700847 0)
  (-0.131176 0.100455 0)
  (-0.0627244 0.116485 0)
  (0.0161474 0.0895098 0)
  (0.0773492 0.0182696 0)
  (0.109346 -0.0406685 0)
  (0.116585 -0.0770477 0)
  (0.113005 -0.0954477 0)
  (0.10574 -0.0984186 0)
  (0.0985379 -0.0949895 0)
  (0.0930042 -0.0900216 0)
  (0.0892472 -0.0856351 0)
  (0.0867466 -0.082451 0)
  (0.0849107 -0.080402 0)
  (0.083309 -0.0791799 0)
  (0.0817278 -0.0784469 0)
  (0.0801502 -0.0779194 0)
  (0.0787138 -0.0773979 0)
  (0.0776641 -0.0767759 0)
  (0.0773014 -0.0760426 0)
  (0.0777998 -0.075318 0)
  (0.0790643 -0.0748721 0)
  (0.0806368 -0.0749936 0)
  (0.0817918 -0.0757688 0)
  (0.0821559 -0.0769309 0)
  (0.0801436 -0.0769784 0)
  (0.0990795 -0.0826369 0)
  (0.00842766 -0.140544 0)
  (0.507198 0.202329 0)
  (0.227969 -0.173045 0)
  (-0.136493 0.307845 0)
  (-0.00752164 0.148368 0)
  (-0.170374 0.200538 0)
  (-0.236606 0.236437 0)
  (-0.281371 0.251849 0)
  (-0.307724 0.255141 0)
  (-0.316708 0.247972 0)
  (-0.307265 0.233326 0)
  (-0.27861 0.227711 0)
  (-0.231543 0.228622 0)
  (-0.168136 0.235028 0)
  (-0.0937717 0.245746 0)
  (-0.00263351 0.25556 0)
  (0.0868448 0.248274 0)
  (0.144597 0.246004 0)
  (0.175749 0.25523 0)
  (0.185088 0.26728 0)
  (0.183039 0.273543 0)
  (0.176939 0.268688 0)
  (0.170554 0.259323 0)
  (0.164297 0.25008 0)
  (0.158015 0.243069 0)
  (0.151742 0.238758 0)
  (0.145621 0.236799 0)
  (0.139787 0.236526 0)
  (0.134342 0.237223 0)
  (0.129351 0.238269 0)
  (0.124833 0.239207 0)
  (0.12075 0.239746 0)
  (0.116974 0.239707 0)
  (0.113215 0.23892 0)
  (0.108894 0.237162 0)
  (0.103028 0.234197 0)
  (0.0941111 0.229921 0)
  (0.0798426 0.224291 0)
  (0.0550925 0.216407 0)
  (0.10772 0.209654 0)
  (-0.313415 0.369571 0)
)
;

boundaryField
{
  floor
  {
    type noSlip;
  }
  ceiling
  {
    type noSlip;
  }
  sWall
  {
    type noSlip;
  }
  nWall
  {
    type noSlip;
  }
  sideWalls
  {
    type empty;
  }
  glass1
  {
    type noSlip;
  }
  glass2
  {
    type noSlip;
  }
  sun
  {
    type noSlip;
  }
  heatsource1
  {
    type noSlip;
  }
  heatsource2
  {
    type noSlip;
  }
  Table_master
  {
    type noSlip;
  }
  Table_slave
  {
    type noSlip;
  }
  inlet
  {
    type fixedValue;
    value uniform (0.1 0 0);
  }
  outlet
  {
    type zeroGradient;
  }
} 	// ************************************************************************* //

