/*--------------------------------*- C++ -*----------------------------------*\
  =========                 |
  \\      /  F ield         | OpenFOAM: The Open Source CFD Toolbox
   \\    /   O peration     | Website:  https://openfoam.org
    \\  /    A nd           | Version:  6
     \\/     M anipulation  |
\*---------------------------------------------------------------------------*/
FoamFile
{
    version     2.0;
    format      ascii;
    class       volScalarField;
    location    "300";
    object      alphat;
}
// * * * * * * * * * * * * * * * * * * * * * * * * * * * * * * * * * * * * * //

dimensions      [1 -1 -1 0 0 0 0];

internalField   nonuniform List<scalar> 
459
(
0.00112643
0.00123649
0.00126687
0.00133159
0.00139277
0.00145217
0.00151376
0.00156579
0.00159921
0.00160676
0.00158251
0.00152312
0.00142526
0.00126911
0.000992165
0.000689361
0.000876572
0.000853592
0.000835207
0.000814359
0.00078511
0.000737953
0.000688178
0.000642393
0.000601582
0.00056549
0.000533597
0.000505025
0.000478913
0.000454265
0.000429712
0.000405456
0.000375446
0.00041251
0.00151282
0.00373781
0.00359065
0.00417622
0.00477274
0.00535625
0.0058158
0.00623294
0.00661969
0.00693897
0.00714584
0.00720059
0.0070572
0.0066086
0.00506945
0.00120365
0.000856349
0.000980674
0.0030005
0.0028105
0.00303233
0.00319676
0.00308685
0.00228003
0.00191536
0.00167162
0.00149083
0.00134914
0.0012277
0.00111965
0.00101843
0.000921163
0.000839071
0.000841303
0.000794225
0.000525309
0.00183302
0.00505661
0.00443628
0.00539979
0.00587156
0.00622808
0.00651351
0.00683032
0.00721199
0.00763862
0.00804707
0.00837406
0.00853344
0.00839593
0.00760306
0.00536129
0.0012157
0.00111393
0.00254361
0.00325508
0.00383747
0.00418487
0.00383788
0.00102335
0.000889246
0.000784204
0.000701712
0.000636181
0.000583732
0.000541507
0.000507887
0.000482898
0.00054986
0.000720996
0.000914199
0.000580397
0.00213812
0.00633453
0.00441984
0.00559255
0.00586308
0.00594171
0.00605806
0.00628936
0.00665931
0.00716684
0.00771693
0.00823485
0.00860469
0.00875678
0.00855917
0.00756581
0.00449787
0.00144483
0.00220991
0.00308893
0.00406524
0.00485665
0.00527791
0.00474319
0.00112903
0.0010233
0.000952859
0.000903373
0.000865431
0.000831646
0.000796058
0.000760129
0.000718467
0.000689566
0.000744242
0.00104495
0.000653796
0.00244825
0.00797149
0.00470949
0.00539722
0.00569339
0.00561884
0.00563259
0.0058281
0.00618462
0.00674615
0.00736277
0.00792966
0.00835114
0.00858641
0.00861218
0.00832593
0.00745489
0.00654747
0.00643209
0.00661091
0.00682332
0.00694472
0.00690105
0.00653074
0.00534508
0.00481455
0.00453247
0.00435177
0.00420344
0.0040428
0.00380955
0.00339361
0.00283093
0.00220945
0.00169674
0.00153822
0.00109523
0.000733647
0.000715953
0.000677341
0.00277789
0.00979263
0.00625192
0.00533629
0.0056769
0.00560152
0.00557517
0.00571418
0.00604175
0.00658121
0.00723356
0.00783849
0.00826822
0.00848121
0.00852555
0.00848731
0.0084244
0.00841398
0.00846593
0.00846491
0.00835258
0.00811705
0.00777127
0.00732341
0.00677423
0.0063449
0.00602877
0.00578517
0.00558338
0.00539282
0.0051703
0.00483483
0.00434006
0.00370618
0.00303318
0.00250828
0.00195226
0.00150204
0.00160846
0.000826046
0.00308556
0.0111257
0.00877027
0.00662003
0.00630786
0.00607651
0.00583448
0.00581983
0.00611885
0.00670084
0.00741501
0.00806248
0.00849674
0.00868415
0.00872027
0.00877512
0.00895477
0.00916678
0.00923618
0.00909264
0.00876227
0.00830157
0.00777213
0.00723764
0.00675847
0.0063857
0.0061037
0.00588554
0.00571437
0.00556981
0.00541506
0.00521204
0.00493248
0.00451026
0.00398111
0.0034423
0.0028562
0.00227606
0.00209721
0.000971364
0.0031543
0.0101692
0.00882164
0.0078994
0.00718489
0.00639419
0.0059201
0.00591337
0.00635651
0.00711201
0.00794455
0.00862647
0.00903417
0.00917404
0.00917876
0.0091945
0.00925668
0.0092582
0.00910055
0.00876001
0.00827945
0.00773782
0.00720468
0.00673965
0.00636862
0.00608042
0.00584381
0.00563933
0.00546645
0.00532458
0.00518567
0.00501414
0.00483844
0.00469449
0.0043939
0.00405184
0.00364475
0.00297596
0.00314023
0.00119925
0.00307866
0.00367671
0.00424705
0.00436905
0.00442205
0.0046287
0.00509784
0.00587736
0.00692138
0.00802969
0.00894135
0.00950858
0.00973253
0.0096848
0.00948152
0.00913301
0.00878939
0.00851254
0.0082378
0.00791462
0.00754245
0.00717605
0.00684672
0.00657112
0.00633448
0.00610946
0.00587106
0.00560701
0.00532326
0.00503338
0.00471899
0.00431661
0.00382653
0.00337378
0.00302164
0.0027184
0.00245809
0.00224248
0.00209861
0.00129819
0.00239959
0.00418063
0.00527652
0.00632057
0.00732341
0.00833543
0.00928206
0.00997201
0.0102611
0.0101988
0.00986865
0.00932395
0.00880981
0.00843738
0.00819816
0.00803641
0.00790533
0.00778362
0.00766424
0.00754234
0.00741123
0.0072738
0.00711824
0.00692985
0.00668681
0.00636476
0.00594855
0.00544821
0.00490221
0.00433708
0.0037919
0.00331868
0.00294648
0.00268865
0.00251298
0.00236738
0.00227388
0.00157579
0.002273
0.00452558
0.00646554
0.00768276
0.00875255
0.0096977
0.0104805
0.010822
0.0106014
0.0100618
0.00946333
0.00899201
0.00868579
0.00852522
0.00846257
0.00845313
0.00846628
0.00848582
0.00850388
0.00851251
0.0084996
0.00845639
0.00839119
0.00831785
0.00821734
0.00804917
0.00776198
0.00732048
0.00675617
0.00609185
0.00537845
0.00468587
0.00406963
0.00356504
0.00317247
0.00289132
0.00374464
0.00180504
0.0016869
0.00183006
0.00198487
0.00204246
0.00202822
0.00213407
0.00222528
0.00228786
0.00230805
0.00228081
0.00223276
0.00217083
0.00211136
0.00206914
0.0020442
0.0020317
0.00202671
0.0020253
0.00202497
0.00202437
0.00202272
0.00201983
0.00201624
0.00201311
0.00201003
0.00200312
0.00198838
0.00196166
0.00192172
0.00187274
0.00181456
0.00175243
0.0016915
0.00163626
0.00159086
0.00155665
0.00152911
0.0015006
0.00155313
0.00150346
)
;

boundaryField
{
    floor
    {
        type            compressible::alphatWallFunction;
        Prt             0.85;
        value           nonuniform List<scalar> 
29
(
0.000141556
9.79761e-05
0.00012514
0.00012185
0.00011921
0.000116206
0.000111975
0.000105113
9.7811e-05
9.10377e-05
8.49501e-05
7.95235e-05
7.46923e-05
7.03332e-05
6.63221e-05
6.25102e-05
5.86866e-05
5.48812e-05
5.01314e-05
5.59835e-05
5.59828e-05
7.34287e-05
8.17693e-05
9.27308e-05
0.000141554
9.7975e-05
0.000139938
0.000158612
0.000203942
)
;
    }
    ceiling
    {
        type            compressible::alphatWallFunction;
        Prt             0.85;
        value           nonuniform List<scalar> 
43
(
0.000236205
0.000255116
0.00027539
0.000282951
0.000281139
0.000294891
0.00030668
0.000314739
0.000317337
0.000313843
0.000307667
0.000299683
0.000291993
0.00028652
0.000283281
0.000281656
0.000281007
0.000280825
0.000280783
0.000280704
0.000280489
0.000280114
0.000279647
0.000279238
0.000278837
0.000277938
0.000276016
0.00027253
0.00026731
0.00026089
0.000253241
0.000245044
0.000236974
0.000229629
0.000223573
0.000218995
0.000215304
0.000211474
0.000218525
0.00021186
0.000414725
0.000488451
0.00031263
)
;
    }
    sWall
    {
        type            compressible::alphatWallFunction;
        Prt             0.85;
        value           uniform 0.000235111;
    }
    nWall
    {
        type            compressible::alphatWallFunction;
        Prt             0.85;
        value           nonuniform List<scalar> 6(9.57934e-05 0.000117455 0.000138178 0.00022108 0.000251503 0.000211382);
    }
    sideWalls
    {
        type            empty;
    }
    glass1
    {
        type            compressible::alphatWallFunction;
        Prt             0.85;
        value           nonuniform List<scalar> 9(0.000157124 0.000209328 0.000251529 0.000291045 0.000330635 0.000372163 0.000410487 0.000419077 0.000409857);
    }
    glass2
    {
        type            compressible::alphatWallFunction;
        Prt             0.85;
        value           nonuniform List<scalar> 2(0.00016929 0.000182859);
    }
    sun
    {
        type            compressible::alphatWallFunction;
        Prt             0.85;
        value           nonuniform List<scalar> 
14
(
0.000160365
0.000175565
0.000179736
0.000188583
0.000196902
0.00020494
0.000213234
0.000220211
0.000224679
0.000225686
0.000222445
0.000214486
0.000201296
0.000180032
)
;
    }
    heatsource1
    {
        type            compressible::alphatWallFunction;
        Prt             0.85;
        value           nonuniform List<scalar> 3(0.000104248 0.000101658 9.5981e-05);
    }
    heatsource2
    {
        type            compressible::alphatWallFunction;
        Prt             0.85;
        value           nonuniform List<scalar> 4(0.00017079 0.000122011 0.000122009 0.000172447);
    }
    Table_master
    {
        type            compressible::alphatWallFunction;
        Prt             0.85;
        value           nonuniform List<scalar> 9(0.000145704 0.000126714 0.000111604 9.95676e-05 8.98842e-05 8.20457e-05 7.56719e-05 7.05528e-05 6.67202e-05);
    }
    Table_slave
    {
        type            compressible::alphatWallFunction;
        Prt             0.85;
        value           nonuniform List<scalar> 9(0.000160466 0.0001457 0.000135763 0.000128732 0.00012331 0.000118458 0.000113322 0.000108109 0.000102027);
    }
    inlet
    {
        type            fixedValue;
        value           uniform 1.94e-05;
    }
    outlet
    {
        type            zeroGradient;
    }
}


// ************************************************************************* //
