/*--------------------------------*- C++ -*----------------------------------*\
  =========                 |
  \\      /  F ield         | OpenFOAM: The Open Source CFD Toolbox
   \\    /   O peration     | Website:  https://openfoam.org
    \\  /    A nd           | Version:  6
     \\/     M anipulation  |
\*---------------------------------------------------------------------------*/
FoamFile
{
    version     2.0;
    format      ascii;
    class       volVectorField;
    location    "300";
    object      U;
}
// * * * * * * * * * * * * * * * * * * * * * * * * * * * * * * * * * * * * * //

dimensions      [0 1 -1 0 0 0 0];

internalField   nonuniform List<vector> 
459
(
(0.0254108 0.0746149 0)
(-0.145846 0.0228953 0)
(-0.168979 0.0150988 0)
(-0.195533 0.00929137 0)
(-0.213252 0.00287476 0)
(-0.220781 -0.0039896 0)
(-0.216285 -0.0112787 0)
(-0.199766 -0.0188436 0)
(-0.172432 -0.0254771 0)
(-0.137375 -0.0299062 0)
(-0.0989288 -0.0313387 0)
(-0.0617183 -0.0296033 0)
(-0.0303643 -0.0246399 0)
(-0.00921332 -0.0148378 0)
(0.0600609 0.00577959 0)
(-0.115187 0.00308522 0)
(0.0365967 -0.0049099 0)
(0.0213751 -0.00886596 0)
(0.0299612 -0.0107011 0)
(0.043781 -0.0098585 0)
(0.0557881 -0.00764401 0)
(0.0635555 -0.00441213 0)
(0.0673482 -0.00251675 0)
(0.0685908 -0.00183763 0)
(0.0688139 -0.0016055 0)
(0.0687143 -0.00143708 0)
(0.0683391 -0.00121836 0)
(0.0675075 -0.000849645 0)
(0.0658317 -9.28615e-05 0)
(0.062451 0.00161233 0)
(0.0556632 0.00522443 0)
(0.0465098 0.0106303 0)
(-0.0201074 0.0214706 0)
(0.127578 -0.0102835 0)
(0.17247 0.152865 0)
(-0.135624 0.0609239 0)
(-0.13698 0.0464595 0)
(-0.164494 0.0344426 0)
(-0.18229 0.0205564 0)
(-0.190288 0.00473467 0)
(-0.186524 -0.0129597 0)
(-0.171242 -0.0308146 0)
(-0.146257 -0.0456348 0)
(-0.114996 -0.0547576 0)
(-0.0816628 -0.056988 0)
(-0.050059 -0.0527106 0)
(-0.0234148 -0.0429221 0)
(-0.00366892 -0.0286181 0)
(0.0167246 -0.00602495 0)
(0.0195725 0.00884862 0)
(0.0148103 0.0192523 0)
(-0.142884 0.00086119 0)
(0.0358218 -0.0241802 0)
(0.0324893 -0.023468 0)
(0.0421467 -0.0220352 0)
(0.0534899 -0.0186686 0)
(0.0625403 -0.0137187 0)
(0.0671529 -0.00555195 0)
(0.0681853 -0.00064222 0)
(0.0681007 0.00127147 0)
(0.0682043 0.00202737 0)
(0.0684799 0.00251419 0)
(0.068661 0.00297261 0)
(0.0686796 0.00365909 0)
(0.0684821 0.00506954 0)
(0.0674654 0.00837819 0)
(0.0628861 0.0169377 0)
(0.0560544 0.0263431 0)
(-0.00316603 0.0375679 0)
(0.171678 0.0206339 0)
(0.307886 0.228814 0)
(-0.148246 0.0963855 0)
(-0.104199 0.0749358 0)
(-0.131035 0.0539423 0)
(-0.147388 0.0310871 0)
(-0.155005 0.00528404 0)
(-0.150588 -0.0232827 0)
(-0.134886 -0.0514427 0)
(-0.110976 -0.0735438 0)
(-0.0828237 -0.0857958 0)
(-0.0544615 -0.0871453 0)
(-0.0285148 -0.0789614 0)
(-0.00713301 -0.0632687 0)
(0.00901731 -0.0413531 0)
(0.0206743 -0.0162888 0)
(0.0266249 0.00698236 0)
(0.0242631 0.0363134 0)
(-0.0621444 -0.0214595 0)
(0.0385168 -0.036992 0)
(0.0513469 -0.0376154 0)
(0.0565189 -0.0329121 0)
(0.0626015 -0.0272633 0)
(0.0681239 -0.0226767 0)
(0.070244 -0.0169388 0)
(0.0656286 -0.0110095 0)
(0.0619358 -0.00791667 0)
(0.0607415 -0.00623939 0)
(0.0607352 -0.00516461 0)
(0.0611546 -0.00431985 0)
(0.0620427 -0.00343968 0)
(0.0641464 -0.00202353 0)
(0.0692113 0.00240146 0)
(0.0702083 0.0223097 0)
(0.0662139 0.0379843 0)
(0.00918829 0.0538892 0)
(0.198542 0.0519493 0)
(0.431218 0.290116 0)
(-0.176044 0.127633 0)
(-0.0693875 0.0996618 0)
(-0.0948887 0.0712199 0)
(-0.107571 0.0414701 0)
(-0.112782 0.00651843 0)
(-0.104569 -0.0334978 0)
(-0.0868878 -0.0718998 0)
(-0.0643143 -0.0998546 0)
(-0.0404933 -0.113585 0)
(-0.0187357 -0.11305 0)
(0.000470706 -0.10079 0)
(0.0158204 -0.0802192 0)
(0.0279583 -0.0550266 0)
(0.0389844 -0.0273481 0)
(0.051315 -0.000841082 0)
(0.0668023 0.0220852 0)
(0.0941407 -0.0450356 0)
(0.0940392 -0.0379667 0)
(0.0863096 -0.0399778 0)
(0.0760482 -0.0388738 0)
(0.0692255 -0.0339546 0)
(0.065735 -0.0280587 0)
(0.063097 -0.0214723 0)
(0.0641087 -0.0130167 0)
(0.0713307 -0.00920114 0)
(0.0775483 -0.00720581 0)
(0.0818755 -0.00605831 0)
(0.0852695 -0.00515333 0)
(0.0878928 -0.00411475 0)
(0.089 -0.00252863 0)
(0.0867014 0.000213708 0)
(0.0787478 0.00469281 0)
(0.070816 0.0261144 0)
(0.0726666 0.0455563 0)
(0.0257283 0.0662991 0)
(0.213561 0.101321 0)
(0.539432 0.337624 0)
(-0.211305 0.152788 0)
(-0.0343111 0.114503 0)
(-0.0561531 0.0817061 0)
(-0.0630922 0.0478254 0)
(-0.0626108 0.00527377 0)
(-0.0450297 -0.0464961 0)
(-0.0255866 -0.0922436 0)
(-0.00672194 -0.122134 0)
(0.010113 -0.13417 0)
(0.0226958 -0.129906 0)
(0.0325429 -0.114506 0)
(0.0400879 -0.0916964 0)
(0.0464589 -0.065099 0)
(0.0533567 -0.0379857 0)
(0.0630255 -0.0144097 0)
(0.0766826 -0.000477989 0)
(0.0872595 -0.00982039 0)
(0.0863317 -0.0188788 0)
(0.0772103 -0.0258608 0)
(0.068015 -0.0281439 0)
(0.0607008 -0.026599 0)
(0.0553463 -0.0230454 0)
(0.0517617 -0.0178654 0)
(0.0514142 -0.0104826 0)
(0.0542854 -0.00660937 0)
(0.0576484 -0.00526305 0)
(0.0608454 -0.00475633 0)
(0.0640764 -0.00410073 0)
(0.0672477 -0.00260636 0)
(0.0699925 0.000548493 0)
(0.0716595 0.00599668 0)
(0.0714863 0.0144648 0)
(0.0714224 0.0292249 0)
(0.0798007 0.0454689 0)
(0.0649002 0.0602753 0)
(0.149147 0.09848 0)
(0.138381 0.08032 0)
(0.114816 0.0606739 0)
(-0.112078 0.0643095 0)
(0.619878 0.377028 0)
(-0.247032 0.16923 0)
(-0.00657305 0.112455 0)
(-0.0151823 0.0836542 0)
(-0.0133715 0.0501289 0)
(0.00471687 -0.0044162 0)
(0.0289327 -0.0656926 0)
(0.0462482 -0.110648 0)
(0.0576577 -0.136292 0)
(0.0636943 -0.143893 0)
(0.0654514 -0.136581 0)
(0.0644565 -0.118704 0)
(0.0620096 -0.0945069 0)
(0.0595854 -0.0679736 0)
(0.0587111 -0.0425538 0)
(0.0607244 -0.0218368 0)
(0.0655498 -0.0100542 0)
(0.0680311 -0.0112937 0)
(0.0645024 -0.0168312 0)
(0.057046 -0.0204588 0)
(0.0490901 -0.021528 0)
(0.0419964 -0.020606 0)
(0.0363026 -0.0183707 0)
(0.0324425 -0.0150568 0)
(0.0311306 -0.0111117 0)
(0.0322699 -0.00910094 0)
(0.0346079 -0.00866358 0)
(0.0375229 -0.00866227 0)
(0.0408662 -0.00829058 0)
(0.0445631 -0.00689331 0)
(0.0485507 -0.00359899 0)
(0.0533072 0.0026722 0)
(0.0576036 0.012018 0)
(0.0623675 0.0243705 0)
(0.0714803 0.0369226 0)
(0.0710837 0.0427081 0)
(0.0969992 0.0610787 0)
(0.0947651 0.0521521 0)
(0.104954 0.0535518 0)
(-0.124627 0.0943617 0)
(0.66894 0.412271 0)
(-0.266089 0.156227 0)
(0.0181732 0.0705718 0)
(0.0374468 0.0619503 0)
(0.052556 0.0321401 0)
(0.0876197 -0.029893 0)
(0.111844 -0.0860265 0)
(0.123186 -0.123073 0)
(0.123975 -0.140945 0)
(0.116891 -0.1424 0)
(0.104785 -0.131014 0)
(0.0903171 -0.110974 0)
(0.0756568 -0.0864374 0)
(0.0626465 -0.0612051 0)
(0.052693 -0.0383214 0)
(0.0465666 -0.020599 0)
(0.0437506 -0.0104028 0)
(0.0411852 -0.00874428 0)
(0.0364682 -0.0110718 0)
(0.0299829 -0.0133199 0)
(0.0230582 -0.0144377 0)
(0.0166152 -0.0144723 0)
(0.0112749 -0.0137205 0)
(0.00758183 -0.0124443 0)
(0.00602788 -0.0111445 0)
(0.00646575 -0.0108874 0)
(0.00811365 -0.0114413 0)
(0.0104411 -0.0120754 0)
(0.0132414 -0.0122013 0)
(0.0165103 -0.011338 0)
(0.0204731 -0.00885342 0)
(0.0256708 -0.00364367 0)
(0.0337044 0.00541161 0)
(0.0418553 0.0163887 0)
(0.0514671 0.0270211 0)
(0.0564628 0.0333807 0)
(0.0681486 0.0471781 0)
(0.0727139 0.0564531 0)
(0.113199 0.0767537 0)
(-0.107768 0.148844 0)
(0.765706 0.41345 0)
(-0.0655402 0.128967 0)
(0.0915797 -0.00852532 0)
(0.147956 -0.0320519 0)
(0.174672 -0.053417 0)
(0.200682 -0.0832942 0)
(0.210656 -0.109768 0)
(0.204603 -0.126031 0)
(0.18599 -0.130512 0)
(0.159462 -0.124182 0)
(0.129582 -0.109272 0)
(0.0998264 -0.0887538 0)
(0.0725893 -0.0659233 0)
(0.0497053 -0.044044 0)
(0.0323033 -0.0254586 0)
(0.0206937 -0.0121821 0)
(0.0138381 -0.00508792 0)
(0.00918052 -0.00364753 0)
(0.00439865 -0.00499965 0)
(-0.00119314 -0.00676703 0)
(-0.00702115 -0.00805929 0)
(-0.012447 -0.00888184 0)
(-0.0169648 -0.00946208 0)
(-0.0201608 -0.00997928 0)
(-0.0218524 -0.0106928 0)
(-0.0222618 -0.0118852 0)
(-0.0218551 -0.0133382 0)
(-0.0209769 -0.0146226 0)
(-0.0198269 -0.0153608 0)
(-0.0185009 -0.0153116 0)
(-0.0168603 -0.0143386 0)
(-0.014308 -0.0120896 0)
(-0.00922013 -0.00758497 0)
(0.00278392 0.000349669 0)
(0.0126128 0.0082674 0)
(0.0190357 0.0128141 0)
(0.0279354 0.0206543 0)
(0.0357413 0.0276403 0)
(0.110436 0.0825533 0)
(-0.363763 0.214097 0)
(0.898813 0.405006 0)
(0.428483 0.280365 0)
(0.431778 0.178371 0)
(0.444319 0.10721 0)
(0.419251 0.0536601 0)
(0.372262 -0.000359342 0)
(0.322019 -0.0447029 0)
(0.271026 -0.0720418 0)
(0.218352 -0.0824217 0)
(0.166442 -0.0796199 0)
(0.118726 -0.0681421 0)
(0.0770385 -0.0518817 0)
(0.042264 -0.0342794 0)
(0.015348 -0.0185557 0)
(-0.00373151 -0.00626231 0)
(-0.0151114 0.000736857 0)
(-0.0215465 0.00338123 0)
(-0.0256002 0.0032276 0)
(-0.0292082 0.00192533 0)
(-0.0331264 0.00048371 0)
(-0.037339 -0.000823672 0)
(-0.0413783 -0.00209555 0)
(-0.0449287 -0.00341829 0)
(-0.0478318 -0.0048008 0)
(-0.0501662 -0.006322 0)
(-0.0521145 -0.00804067 0)
(-0.0538633 -0.00978426 0)
(-0.0555601 -0.0112817 0)
(-0.0574213 -0.0122807 0)
(-0.059928 -0.0125924 0)
(-0.0638447 -0.0119764 0)
(-0.0700028 -0.0095523 0)
(-0.079232 -0.00335687 0)
(-0.0908649 0.00801627 0)
(-0.10458 0.0240811 0)
(-0.127532 0.0461821 0)
(-0.159068 0.0762057 0)
(-0.200044 0.111058 0)
(-0.267857 0.142916 0)
(-0.529043 0.159854 0)
(-0.218237 0.0555057 0)
(0.106446 0.0295244 0)
(0.180642 -0.0180093 0)
(0.167697 -0.0433166 0)
(0.15489 -0.0515128 0)
(0.135008 -0.0522998 0)
(0.10495 -0.0477665 0)
(0.0699147 -0.0393405 0)
(0.0356331 -0.0282131 0)
(0.00455365 -0.0152071 0)
(-0.0205378 -0.00292869 0)
(-0.0370226 0.00464003 0)
(-0.0469389 0.00909981 0)
(-0.0519234 0.011016 0)
(-0.0545302 0.0113888 0)
(-0.0563816 0.0109204 0)
(-0.0582497 0.010171 0)
(-0.0603303 0.00941899 0)
(-0.062502 0.00861895 0)
(-0.0648584 0.00760376 0)
(-0.0674803 0.00625024 0)
(-0.070431 0.00507133 0)
(-0.0738616 0.00419715 0)
(-0.0778851 0.00372308 0)
(-0.0825185 0.0040109 0)
(-0.087652 0.00554847 0)
(-0.0930666 0.00887725 0)
(-0.0986354 0.0143096 0)
(-0.104452 0.021096 0)
(-0.110804 0.0274051 0)
(-0.117163 0.0330277 0)
(-0.122667 0.0402733 0)
(-0.127209 0.0517041 0)
(-0.130354 0.0691898 0)
(-0.129645 0.0921709 0)
(-0.122239 0.107964 0)
(-0.111501 0.0741651 0)
(-0.15661 -0.168896 0)
(-0.150113 0.109992 0)
(0.0961529 0.011338 0)
(0.0851231 -0.0619407 0)
(0.0611929 -0.0740728 0)
(0.0407009 -0.0714833 0)
(0.0195537 -0.0682322 0)
(-0.00464412 -0.0656353 0)
(-0.0271788 -0.0647122 0)
(-0.0466227 -0.0634838 0)
(-0.0609299 -0.0636934 0)
(-0.0694383 -0.0656758 0)
(-0.0736345 -0.0682952 0)
(-0.0756593 -0.0711811 0)
(-0.0761955 -0.0741465 0)
(-0.0760852 -0.0769901 0)
(-0.0758814 -0.0797696 0)
(-0.0758733 -0.0825214 0)
(-0.0761662 -0.085241 0)
(-0.0768007 -0.0879211 0)
(-0.0778534 -0.0904409 0)
(-0.0794571 -0.0926643 0)
(-0.0817073 -0.0947185 0)
(-0.0845968 -0.0969823 0)
(-0.0882752 -0.100262 0)
(-0.093001 -0.104806 0)
(-0.098897 -0.110487 0)
(-0.105683 -0.116383 0)
(-0.112572 -0.120544 0)
(-0.118527 -0.121966 0)
(-0.122757 -0.117904 0)
(-0.124615 -0.106762 0)
(-0.122611 -0.0883739 0)
(-0.114106 -0.0628902 0)
(-0.0960695 -0.0321194 0)
(-0.0672051 -0.00139204 0)
(-0.0313119 0.0129876 0)
(0.0756318 -0.0966754 0)
(-0.109174 -0.163573 0)
(0.27902 -0.152775 0)
(-0.246664 -0.0560105 0)
(-0.161691 0.191024 0)
(-0.0633247 0.208582 0)
(-0.0791289 0.239079 0)
(-0.0824682 0.234973 0)
(-0.092985 0.23178 0)
(-0.103414 0.231404 0)
(-0.111955 0.234742 0)
(-0.117138 0.240788 0)
(-0.118201 0.247005 0)
(-0.116361 0.255531 0)
(-0.11269 0.265046 0)
(-0.108236 0.273143 0)
(-0.103876 0.279694 0)
(-0.100067 0.284798 0)
(-0.0970653 0.288732 0)
(-0.0949372 0.291906 0)
(-0.0936746 0.294621 0)
(-0.0932403 0.297039 0)
(-0.0936129 0.299231 0)
(-0.094769 0.301089 0)
(-0.0966378 0.302472 0)
(-0.0991248 0.303478 0)
(-0.102105 0.304796 0)
(-0.10544 0.307866 0)
(-0.108923 0.313311 0)
(-0.1123 0.321273 0)
(-0.115256 0.330735 0)
(-0.117361 0.339314 0)
(-0.118161 0.346558 0)
(-0.116857 0.350126 0)
(-0.112108 0.349146 0)
(-0.102051 0.344396 0)
(-0.0848354 0.337465 0)
(-0.0603844 0.331892 0)
(-0.031555 0.333254 0)
(0.0100534 0.344032 0)
(0.119364 0.41938 0)
(-0.277168 0.438574 0)
)
;

boundaryField
{
    floor
    {
        type            noSlip;
    }
    ceiling
    {
        type            noSlip;
    }
    sWall
    {
        type            noSlip;
    }
    nWall
    {
        type            noSlip;
    }
    sideWalls
    {
        type            empty;
    }
    glass1
    {
        type            noSlip;
    }
    glass2
    {
        type            noSlip;
    }
    sun
    {
        type            noSlip;
    }
    heatsource1
    {
        type            noSlip;
    }
    heatsource2
    {
        type            noSlip;
    }
    Table_master
    {
        type            noSlip;
    }
    Table_slave
    {
        type            noSlip;
    }
    inlet
    {
        type            fixedValue;
        value           uniform (0.2 0 0);
    }
    outlet
    {
        type            zeroGradient;
    }
}


// ************************************************************************* //
