/*--------------------------------*- C++ -*----------------------------------*\
  =========                 |
  \\      /  F ield         | OpenFOAM: The Open Source CFD Toolbox
   \\    /   O peration     | Website:  https://openfoam.org
    \\  /    A nd           | Version:  6
     \\/     M anipulation  |
\*---------------------------------------------------------------------------*/
FoamFile
{
    version     2.0;
    format      ascii;
    class       surfaceScalarField;
    location    "290";
    object      phi;
}
// * * * * * * * * * * * * * * * * * * * * * * * * * * * * * * * * * * * * * //

dimensions      [1 0 -1 0 0 0 0];

internalField   nonuniform List<scalar> 
852
(
0.00164656
-0.00165376
0.00238503
-0.000738576
0.00354822
-0.0011633
0.00439444
-0.000846326
0.00484904
-0.000454711
0.00504582
-0.000196893
0.00507875
-3.30362e-05
0.00499434
8.42972e-05
0.00481617
0.000178054
0.0045553
0.00026076
0.00420631
0.000348874
0.00374045
0.000465745
0.00308656
0.00065378
0.00204582
0.00104063
0.00204175
-9.11378e-05
8.53419e-05
-0.000380064
0.000288795
2.15398e-05
-0.000401733
0.000655805
-0.000634395
0.00115219
-0.000496513
0.00148527
-0.000333211
0.00167573
-0.000190592
0.00177669
-0.000101092
0.00184118
-6.46213e-05
0.00188772
-4.6668e-05
0.00192053
-3.29478e-05
0.00193956
-1.91588e-05
0.00193842
9.98599e-07
0.00189998
3.83049e-05
0.00178649
0.000113359
0.00153339
0.000252971
0.00108174
0.000451514
0.00027193
0.00080967
0.000263722
0.000810048
-0.00248428
0.00184104
-0.00176967
0.00289967
-0.00222205
0.00354429
-0.00149106
0.00388833
-0.000798873
0.00402884
-0.000337513
0.00403078
-3.50916e-05
0.0039349
0.000180061
0.00377159
0.000341242
0.00355764
0.000474592
0.00329827
0.000608132
0.00299323
0.000770668
0.00265404
0.000992855
0.00240065
0.00129389
0.00275613
0.00168617
0.00132048
0.00143548
0.00132031
-7.20712e-05
0.000144726
0.000405011
-0.000188419
0.000897654
-0.000894505
0.00124911
-0.000985983
0.0015337
-0.000781224
0.00171756
-0.000517202
0.00175724
-0.000230403
0.00176996
-0.000113948
0.00178224
-7.7038e-05
0.00179272
-5.72787e-05
0.00180077
-4.11276e-05
0.00180668
-2.52032e-05
0.00180782
-2.76894e-07
0.00179659
4.93961e-05
0.00173498
0.000174842
0.00149236
0.00049545
0.00110587
0.000837863
0.000662989
0.00125242
0.000905411
0.000352015
-0.00286968
0.00121009
-0.00262786
0.00206314
-0.00307523
0.00250703
-0.00193508
0.00269956
-0.000991532
0.00274155
-0.000379618
0.00269115
1.51832e-05
0.00259746
0.000273627
0.00249108
0.000447501
0.00238051
0.000585042
0.00226694
0.000721582
0.00215501
0.00088248
0.00206132
0.00108642
0.00200916
0.00134593
0.00197188
0.00172334
0.00142913
0.00197811
0.00274932
0.000146228
-2.15467e-05
0.00127293
-0.00131525
0.00167623
-0.00129794
0.00182918
-0.00113906
0.00192923
-0.000881401
0.00200701
-0.000595117
0.00177663
0.00166271
0.00158569
0.00152843
0.00148732
0.00146214
0.00146188
0.0015113
0.00168616
0.00138663
0.000794841
0.0011179
0.00110646
0.00083014
0.00154004
0.00170307
9.60355e-06
-0.00292544
0.000452904
-0.00307128
0.00105333
-0.00367578
0.00135666
-0.00223854
0.0013977
-0.00103271
0.00133178
-0.000313826
0.00126218
8.46525e-05
0.00123393
0.000301755
0.00123764
0.000443662
0.00125876
0.000563798
0.0012917
0.000688516
0.00133969
0.000834371
0.0014121
0.0010139
0.00151966
0.00123824
0.00170797
0.00153491
0.00199466
0.0016913
0.00301246
0.00173141
0.00243299
0.000552693
0.00289244
-0.000481122
0.00251276
-0.000935687
0.00233232
-0.00111762
0.00220062
-0.00100748
0.00209791
-0.000778828
0.00199334
-0.000490681
0.00214253
-0.000149478
0.00214899
-6.74585e-06
0.00208547
6.32351e-05
0.00197695
0.000108229
0.00183193
0.000144724
0.00165215
0.000179487
0.00143227
0.000219586
0.00115551
0.000276463
0.000775257
0.00037996
0.000868719
0.000701239
0.000909303
0.00106573
0.000999008
0.00145019
0.00266092
-0.000378406
-0.00260529
-0.000427896
-0.0030219
2.37815e-05
-0.0041276
0.000279514
-0.00249442
0.00022395
-0.000977285
0.000144504
-0.000234515
0.000134286
9.47392e-05
0.000184011
0.0002519
0.000268725
0.000358821
0.000375411
0.000456984
0.000501808
0.000561992
0.000653304
0.00068275
0.000843073
0.000824003
0.00109762
0.000983576
0.00147737
0.00115504
0.0019624
0.00120615
0.00257959
0.00111409
0.00282179
0.000310376
0.00271572
-0.000375175
0.00249659
-0.000716679
0.00221699
-0.000838156
0.0019666
-0.000757227
0.00175438
-0.000566739
0.00158898
-0.000325417
0.00151252
-7.31578e-05
0.0014085
9.71282e-05
0.00128246
0.00018914
0.00114642
0.00024413
0.00100323
0.000287772
0.000851406
0.000331164
0.000689589
0.00038126
0.000521447
0.000444462
0.000393447
0.000507815
0.000466923
0.000627621
0.000759143
0.000773372
0.00149388
0.000715321
0.00264315
0.0015115
0.00121158
0.00143123
-0.000106485
0.00131772
-0.00014888
-0.000758906
-0.00191577
-0.00113552
-0.0026454
-0.000829902
-0.00443335
-0.000584151
-0.00274032
-0.000567717
-0.000993863
-0.000568984
-0.000233387
-0.000535284
6.09042e-05
-0.000467864
0.000184347
-0.000368402
0.000259226
-0.000239004
0.000327454
-7.74963e-05
0.000400355
0.000121878
0.000483247
0.000366841
0.000578913
0.00067332
0.000676971
0.00106806
0.000760173
0.00152035
0.000753737
0.00202915
0.000605166
0.00220808
0.00013132
0.00210479
-0.000272017
0.00188713
-0.000499147
0.00160355
-0.000554707
0.00132129
-0.000475113
0.00107081
-0.000316392
0.000864385
-0.000119137
0.000711029
8.0055e-05
0.000590064
0.00021795
0.00048073
0.000298329
0.000372568
0.000352146
0.000262635
0.000397561
0.000152135
0.000441518
4.8926e-05
0.000484324
-2.57535e-05
0.000518995
-3.62688e-05
0.000518184
0.000104234
0.000486973
0.000383338
0.000494125
0.000654772
0.000443745
0.000875211
0.00129092
0.00043645
0.00186985
-0.000319636
0.00207366
-0.000509822
-0.00101718
-0.000976924
-0.00170268
-0.00196001
-0.00136545
-0.0047707
-0.00105241
-0.00305352
-0.000954828
-0.0010916
-0.000919062
-0.000269295
-0.000887302
2.9004e-05
-0.00083188
0.000128785
-0.000745737
0.000172945
-0.000627545
0.000209126
-0.000476115
0.000248789
-0.000286591
0.000293589
-4.91761e-05
0.000341365
0.00023905
0.000388613
0.000575546
0.000423547
0.000929267
0.000399886
0.00124988
0.000284423
0.00133396
4.71045e-05
0.001225
-0.000163189
0.00100648
-0.000280766
0.000736809
-0.000285179
0.000464993
-0.000203442
0.000219849
-7.13933e-05
2.43067e-05
7.62594e-05
-0.000103955
0.000208169
-0.000186272
0.000300121
-0.000254494
0.000366403
-0.000320394
0.000417899
-0.000383259
0.000460277
-0.000435314
0.000493425
-0.000462947
0.000511809
-0.000447865
0.000503764
-0.000380727
0.000450898
-0.000262168
0.000368268
-0.000108229
0.00034004
-4.56598e-06
0.000339937
0.000184534
0.00110168
2.86647e-05
0.00202557
-0.000174764
0.00227694
-0.000722977
-0.000998943
-6.22413e-05
-0.0017317
-0.00122734
-0.00146656
-0.00503595
-0.00105012
-0.00347012
-0.00102598
-0.00111589
-0.00107164
-0.000223778
-0.00109323
5.04388e-05
-0.0010725
0.000107917
-0.00101506
0.000115358
-0.000925572
0.000119492
-0.000806455
0.000129529
-0.000658157
0.000145148
-0.000480735
0.000163802
-0.000274906
0.000182644
-4.61932e-05
0.000194695
0.0001704
0.000183154
0.0003207
0.000133983
0.000327703
3.99599e-05
0.000209056
-4.4686e-05
6.45348e-06
-7.83095e-05
-0.000228332
-5.05414e-05
-0.000450644
1.87217e-05
-0.000627545
0.000105358
-0.000742392
0.000190956
-0.000804741
0.000270367
-0.000841261
0.00033649
-0.00086549
0.000390482
-0.000880938
0.000433197
-0.00088365
0.000462839
-0.000865107
0.000474732
-0.000815068
0.00046162
-0.000726338
0.000414884
-0.000606069
0.000330479
-0.000469442
0.000231491
-0.000304892
0.000175341
-0.000172057
0.000206954
0.000211834
0.000717643
0.000580269
0.00165699
0.00140669
0.00145037
0.000459189
-0.000189995
-0.00146021
-0.000597966
-0.00589828
-0.000455582
-0.00361265
-0.000944619
-0.000627006
-0.00121599
4.74423e-05
-0.00131904
0.000153335
-0.00134034
0.000129062
-0.00131838
9.32414e-05
-0.00126897
6.99299e-05
-0.00119939
5.98018e-05
-0.00111384
5.94478e-05
-0.00101615
6.59691e-05
-0.000911102
7.74461e-05
-0.000807592
9.10386e-05
-0.000724975
0.000100389
-0.000688743
9.76034e-05
-0.000726331
7.73981e-05
-0.000830846
5.96785e-05
-0.000973493
6.41853e-05
-0.00111632
9.21329e-05
-0.00123036
0.000132612
-0.00130423
0.00017907
-0.00134178
0.000228355
-0.00134925
0.000277683
-0.00133614
0.000323222
-0.00130783
0.000362027
-0.00126525
0.00039046
-0.00120639
0.00040383
-0.00112813
0.000396315
-0.00102809
0.000361427
-0.000907374
0.000294014
-0.00077299
0.000195942
-0.000626732
8.50801e-05
-0.000442054
-9.49063e-06
-0.00023345
-1.80182e-06
0.000200739
0.000283306
0.000870035
0.000987551
0.00153374
0.00078652
0.00175152
0.0024395
-0.00193851
-0.000301392
-0.000871889
-0.00127991
0.000351352
-0.00157929
0.00034667
-0.00166248
0.000236361
-0.00168102
0.000147453
-0.00167705
8.91092e-05
-0.00166298
5.57071e-05
-0.00164288
3.95446e-05
-0.00161884
3.52517e-05
-0.00159296
3.9932e-05
-0.00156776
5.20965e-05
-0.00154685
6.99676e-05
-0.00153622
8.96066e-05
-0.00154359
0.000104823
-0.00157726
0.000110912
-0.00163124
0.000113504
-0.00168819
0.000120973
-0.00173169
0.00013548
-0.00175407
0.000154832
-0.00175315
0.000177997
-0.00172961
0.000204655
-0.00168538
0.000233305
-0.00162345
0.000261135
-0.00154632
0.000284744
-0.00145617
0.000300144
-0.00135539
0.000302901
-0.00124748
0.00028825
-0.0011379
0.000251689
-0.00103474
0.000190701
-0.00094703
0.000108074
-0.000877799
1.56933e-05
-0.000809557
-7.78871e-05
-0.000729855
-8.16576e-05
-0.000613069
0.000166367
-0.000323731
0.000698061
-0.000103202
0.000565839
0.00160339
-0.00191207
-7.28406e-05
-0.00257613
-0.000207978
-0.00232011
9.51656e-05
-0.00215422
0.000180623
-0.00206976
0.000151736
-0.00203084
0.000108375
-0.00201849
7.66003e-05
-0.00202059
5.76476e-05
-0.0020296
4.83923e-05
-0.0020408
4.62917e-05
-0.00205091
4.98836e-05
-0.00205736
5.83855e-05
-0.00205847
7.09274e-05
-0.00205462
8.55972e-05
-0.00204906
9.91017e-05
-0.00204675
0.000108444
-0.00204797
0.000114567
-0.00204752
0.000120364
-0.00203939
0.000127195
-0.00201985
0.000135128
-0.00198646
0.000144455
-0.00193728
0.000155309
-0.00187108
0.000166953
-0.00178789
0.00017779
-0.00168904
0.000185732
-0.00157745
0.000188395
-0.00145801
0.000183303
-0.00133812
0.000168201
-0.00122839
0.000141807
-0.00114305
0.000105207
-0.00109821
6.30748e-05
-0.00110444
2.17661e-05
-0.001182
-4.81619e-07
-0.00127316
9.34853e-06
-0.00121423
0.00010728
-0.000849508
0.000333184
-0.000753337
0.000469513
0.000792583
-0.00339287
-0.00224791
-0.0023931
-0.00266873
-0.00264077
-0.00252713
-0.00244228
-0.00240071
-0.00239089
-0.00240006
-0.00241855
-0.00243925
-0.00245645
-0.00246524
-0.00246155
-0.00244326
-0.00241153
-0.00237058
-0.00232368
-0.00227118
-0.00221207
-0.00214523
-0.00206922
-0.00198247
-0.00188411
-0.00177487
-0.00165752
-0.00153723
-0.0014216
-0.00132052
-0.00124516
-0.0012057
-0.00120778
-0.00125091
-0.00131642
-0.00137235
-0.00132978
-0.0010595
-0.000651835
)
;

boundaryField
{
    floor
    {
        type            calculated;
        value           nonuniform List<scalar> 
29
(
0
0
0
0
0
0
0
0
0
0
0
0
0
0
0
0
0
0
0
0
8.07042e-06
2.11623e-05
3.23437e-05
4.10201e-05
3.94997e-06
5.66276e-06
1.25522e-05
1.99076e-05
2.66582e-05
)
;
    }
    ceiling
    {
        type            calculated;
        value           nonuniform List<scalar> 
43
(
8.69404e-05
8.27604e-05
7.21893e-05
6.7485e-05
6.70389e-05
6.68224e-05
6.6721e-05
6.66424e-05
6.66198e-05
6.66534e-05
6.67274e-05
6.68235e-05
6.6924e-05
6.70131e-05
6.70829e-05
6.71412e-05
6.72139e-05
6.73312e-05
6.75018e-05
6.77088e-05
6.79247e-05
6.81244e-05
6.82876e-05
6.83972e-05
6.84361e-05
6.8386e-05
6.82273e-05
6.79415e-05
6.75168e-05
6.6956e-05
6.62887e-05
6.55895e-05
6.50013e-05
6.4733e-05
6.48713e-05
6.51243e-05
6.45521e-05
6.27475e-05
6.16908e-05
6.75653e-05
4.01329e-05
4.27946e-05
4.62451e-05
)
;
    }
    sWall
    {
        type            calculated;
        value           uniform 7.07375e-05;
    }
    nWall
    {
        type            calculated;
        value           nonuniform List<scalar> 6(4.20343e-05 4.11494e-05 3.82356e-05 4.47742e-05 5.73132e-05 7.30246e-05);
    }
    sideWalls
    {
        type            empty;
        value           nonuniform 0();
    }
    glass1
    {
        type            calculated;
        value           nonuniform List<scalar> 9(7.09605e-06 2.03642e-05 3.32736e-05 4.60543e-05 5.81573e-05 6.92788e-05 7.82384e-05 8.41704e-05 8.75364e-05);
    }
    glass2
    {
        type            calculated;
        value           nonuniform List<scalar> 2(0.000224367 0.000241245);
    }
    sun
    {
        type            calculated;
        value           uniform 0;
    }
    heatsource1
    {
        type            calculated;
        value           nonuniform List<scalar> 3(2.04335e-07 2.04765e-07 2.04839e-07);
    }
    heatsource2
    {
        type            calculated;
        value           nonuniform List<scalar> 4(5.13646e-08 5.15268e-08 0 0);
    }
    Table_master
    {
        type            calculated;
        value           nonuniform List<scalar> 9(-1.53721e-07 -1.53825e-07 -1.53852e-07 -1.53863e-07 -1.53864e-07 -1.53858e-07 -1.53845e-07 -1.53808e-07 -1.53732e-07);
    }
    Table_slave
    {
        type            calculated;
        value           nonuniform List<scalar> 9(1.53486e-07 1.53508e-07 1.53484e-07 1.53481e-07 1.53493e-07 1.53518e-07 1.53554e-07 1.53601e-07 1.53669e-07);
    }
    inlet
    {
        type            calculated;
        value           uniform -0.00639932;
    }
    outlet
    {
        type            calculated;
        value           nonuniform List<scalar> 2(0.00323502 -0.00122788);
    }
}


// ************************************************************************* //
