/*--------------------------------*- C++ -*----------------------------------*\
  =========                 |
  \\      /  F ield         | OpenFOAM: The Open Source CFD Toolbox
   \\    /   O peration     | Website:  https://openfoam.org
    \\  /    A nd           | Version:  6
     \\/     M anipulation  |
\*---------------------------------------------------------------------------*/
FoamFile
{
    version     2.0;
    format      ascii;
    class       volScalarField;
    location    "1300";
    object      alphat;
}
// * * * * * * * * * * * * * * * * * * * * * * * * * * * * * * * * * * * * * //

dimensions      [1 -1 -1 0 0 0 0];

internalField   nonuniform List<scalar> 
459
(
0.00144112
0.00159236
0.00164137
0.00173059
0.00181972
0.00191451
0.0019919
0.00203818
0.00204384
0.00200099
0.00187262
0.00169794
0.00151435
0.0013214
0.00113433
0.000647101
0.000758189
0.00088915
0.000966849
0.000977103
0.000953627
0.000894837
0.000831779
0.000774871
0.000725244
0.000682102
0.000644498
0.000611408
0.000582055
0.000555404
0.000529993
0.000503743
0.000477462
0.000432559
0.0018989
0.00493185
0.00485542
0.0056398
0.00639976
0.00696348
0.00744931
0.00785047
0.0081365
0.00827999
0.00819462
0.00777558
0.00708388
0.00573161
0.00379187
0.00136518
0.00110509
0.000633896
0.00159911
0.00257506
0.00338586
0.0038715
0.00380522
0.00265806
0.00219197
0.00189187
0.00167587
0.00151233
0.00138415
0.00128213
0.00119025
0.00109231
0.000997078
0.000911569
0.00096026
0.000498251
0.00227231
0.00671164
0.00601977
0.00695616
0.00740922
0.00774124
0.00806369
0.00841278
0.00879359
0.00916775
0.00937733
0.00929113
0.00893466
0.0081524
0.00662265
0.00425153
0.00132809
0.000824501
0.00168104
0.00279409
0.00399137
0.00483481
0.0046133
0.00121977
0.00106023
0.000931646
0.000828854
0.000746243
0.000679211
0.000624318
0.000580072
0.000547206
0.000616989
0.000739531
0.00110019
0.000543087
0.00262442
0.0083609
0.00625721
0.00723052
0.00739076
0.00751227
0.007681
0.00796959
0.00840783
0.00892291
0.0092663
0.00938707
0.00927925
0.00891054
0.00804412
0.00643714
0.00346675
0.00149193
0.00179852
0.00270122
0.00405403
0.00541107
0.00630583
0.00585545
0.00138641
0.00125428
0.00115203
0.00106897
0.000996019
0.000927251
0.000858829
0.000787598
0.000707998
0.000650437
0.000714448
0.0012568
0.000577401
0.00297989
0.0104285
0.00703445
0.00750635
0.00756475
0.00747657
0.00746302
0.00769357
0.00815829
0.00868856
0.00908592
0.00924195
0.0091782
0.00895803
0.00853474
0.00774739
0.00637823
0.00565263
0.00612989
0.00693337
0.00780225
0.00846879
0.00876699
0.00846037
0.0068439
0.00596463
0.00537762
0.00481874
0.00423609
0.0036234
0.00298506
0.00233871
0.00171501
0.00119652
0.000952079
0.00120359
0.000712412
0.000674639
0.00081281
0.000913898
0.00335402
0.012713
0.00940798
0.00849302
0.00820607
0.0077365
0.00749879
0.00765477
0.00813787
0.00871247
0.00912531
0.00925076
0.00914982
0.00899421
0.00892131
0.00888755
0.00877692
0.00903869
0.00975409
0.0103517
0.0107058
0.0107741
0.0105586
0.0100434
0.00916297
0.00830363
0.00749208
0.00669231
0.0058861
0.00505634
0.00420374
0.00334474
0.00252007
0.0018114
0.00138857
0.00127191
0.000968487
0.000858419
0.00124229
0.00095673
0.00367186
0.0141952
0.0124514
0.0103717
0.00897263
0.00794088
0.00754278
0.0077427
0.00833468
0.00899426
0.00942176
0.00950929
0.00941416
0.00948291
0.00993706
0.0105006
0.0110023
0.0115817
0.0121262
0.0123162
0.0121956
0.0118146
0.0112286
0.010477
0.00958465
0.00868604
0.00782495
0.00700204
0.00619848
0.00538982
0.00459969
0.00383078
0.00309678
0.0024241
0.00196191
0.00167811
0.00142216
0.0013871
0.00144652
0.001115
0.00372064
0.0119575
0.0110025
0.00937595
0.00800178
0.00728903
0.00730681
0.00791011
0.00879259
0.00956663
0.00995444
0.00998569
0.0100441
0.0107921
0.0115281
0.0120466
0.0124542
0.0127914
0.0129333
0.0127374
0.0122365
0.0115086
0.0106226
0.00963284
0.00861146
0.0076494
0.00677023
0.00597234
0.00525607
0.00465659
0.00417858
0.00375905
0.00337629
0.00297869
0.00274737
0.00272285
0.00294928
0.00352994
0.00439709
0.0017046
0.00361277
0.00423946
0.0045151
0.00460694
0.00499152
0.00589695
0.00720606
0.0086437
0.00984209
0.0104618
0.010485
0.0106261
0.0111432
0.0117616
0.0121784
0.0123997
0.0125087
0.0124714
0.0121965
0.0116369
0.0108283
0.00984084
0.00874211
0.00760325
0.00649391
0.00547188
0.00457424
0.00384258
0.00330581
0.00294244
0.00271746
0.00259198
0.00252694
0.00250628
0.00252054
0.00254884
0.00253537
0.00243163
0.0022697
0.00158871
0.00138727
0.00360816
0.00729139
0.00972887
0.0111081
0.011691
0.011672
0.0110963
0.0105614
0.0105605
0.0109144
0.0111405
0.0111875
0.0111241
0.0109409
0.0105696
0.00996126
0.00912791
0.00813904
0.00708864
0.00606567
0.00513868
0.00434652
0.0037038
0.00321271
0.00286578
0.00264268
0.00251592
0.00246215
0.00246324
0.00250397
0.00256988
0.0026409
0.00268563
0.00266924
0.00259396
0.00239732
0.00134515
0.00245237
0.00863458
0.0109007
0.0111804
0.0107667
0.010025
0.0092527
0.00868464
0.00836547
0.00823261
0.0081238
0.00799241
0.00785748
0.00769201
0.00743847
0.00704747
0.00651248
0.00587977
0.00522796
0.00463078
0.00413012
0.00373393
0.00342914
0.00319564
0.00301387
0.00286834
0.00275035
0.00265992
0.00260408
0.00259108
0.0026231
0.00268992
0.00276715
0.00282823
0.00279761
0.00285749
0.00287173
0.00137496
0.0021711
0.00232151
0.00241738
0.0025801
0.00235229
0.00217054
0.00202666
0.00187156
0.00171444
0.00157493
0.00146973
0.00139853
0.00135075
0.00131625
0.00128703
0.00125688
0.00122171
0.00118029
0.0011345
0.00108823
0.00104537
0.00100838
0.000977909
0.000953434
0.000934104
0.000919483
0.000909947
0.000906749
0.000911777
0.000927059
0.00095425
0.000994428
0.00104811
0.00111499
0.00119428
0.00128094
0.0012983
0.00124536
0.00117776
0.00110495
)
;

boundaryField
{
    floor
    {
        type            compressible::alphatWallFunction;
        Prt             0.85;
        value           nonuniform List<scalar> 
29
(
0.000161055
9.13877e-05
0.000107702
0.000126574
0.000137615
0.000139067
0.000135749
0.000127393
0.000118358
0.000110134
0.000102904
9.65697e-05
9.10091e-05
8.60834e-05
8.16866e-05
7.76708e-05
7.38197e-05
6.98171e-05
6.57834e-05
5.88259e-05
5.88252e-05
6.89748e-05
7.58043e-05
8.09842e-05
0.000161053
9.13866e-05
8.94251e-05
0.000117281
0.000209868
)
;
    }
    ceiling
    {
        type            compressible::alphatWallFunction;
        Prt             0.85;
        value           nonuniform List<scalar> 
43
(
0.000299465
0.000318655
0.000330879
0.000351703
0.00032272
0.000299368
0.000280727
0.000260468
0.000239759
0.000221197
0.000207082
0.000197466
0.000190983
0.000186286
0.000182297
0.000178169
0.000173339
0.000167628
0.000161288
0.000154849
0.000148857
0.000143662
0.000139366
0.000135903
0.00013316
0.00013108
0.00012972
0.000129261
0.000129973
0.000132142
0.000135994
0.000141666
0.000149204
0.000158534
0.000169514
0.000181421
0.000183795
0.000176542
0.000167232
0.000157142
0.000480364
0.000556431
0.000335101
)
;
    }
    sWall
    {
        type            compressible::alphatWallFunction;
        Prt             0.85;
        value           uniform 0.000298382;
    }
    nWall
    {
        type            compressible::alphatWallFunction;
        Prt             0.85;
        value           nonuniform List<scalar> 6(0.00012992 0.000135991 0.000158177 0.000189879 0.00019393 0.000156826);
    }
    sideWalls
    {
        type            empty;
    }
    glass1
    {
        type            compressible::alphatWallFunction;
        Prt             0.85;
        value           nonuniform List<scalar> 9(0.000198074 0.000258128 0.000306064 0.00035058 0.000394946 0.000441092 0.000479931 0.000486003 0.000473139);
    }
    glass2
    {
        type            compressible::alphatWallFunction;
        Prt             0.85;
        value           nonuniform List<scalar> 2(0.000236722 0.000221472);
    }
    sun
    {
        type            compressible::alphatWallFunction;
        Prt             0.85;
        value           nonuniform List<scalar> 
14
(
0.000203047
0.000223346
0.000229882
0.000241726
0.000253491
0.000265935
0.000276045
0.000282068
0.000282803
0.000277225
0.000260423
0.00023739
0.000212889
0.000186784
)
;
    }
    heatsource1
    {
        type            compressible::alphatWallFunction;
        Prt             0.85;
        value           nonuniform List<scalar> 3(9.55779e-05 0.000115738 0.000130224);
    }
    heatsource2
    {
        type            compressible::alphatWallFunction;
        Prt             0.85;
        value           nonuniform List<scalar> 4(0.000192899 0.000157144 0.000157143 0.000187843);
    }
    Table_master
    {
        type            compressible::alphatWallFunction;
        Prt             0.85;
        value           nonuniform List<scalar> 9(0.000173019 0.000150883 0.00013276 0.000118062 0.000106092 9.62619e-05 8.81241e-05 8.15009e-05 7.65407e-05);
    }
    Table_slave
    {
        type            compressible::alphatWallFunction;
        Prt             0.85;
        value           nonuniform List<scalar> 9(0.000195794 0.000177766 0.000163666 0.000152107 0.000141869 0.000132138 0.00012237 0.000112103 0.000100497);
    }
    inlet
    {
        type            fixedValue;
        value           uniform 1.94e-05;
    }
    outlet
    {
        type            zeroGradient;
    }
}


// ************************************************************************* //
