/*--------------------------------*- C++ -*----------------------------------*\
  =========                 |
  \\      /  F ield         | OpenFOAM: The Open Source CFD Toolbox
   \\    /   O peration     | Website:  https://openfoam.org
    \\  /    A nd           | Version:  6
     \\/     M anipulation  |
\*---------------------------------------------------------------------------*/
FoamFile
{
    version     2.0;
    format      ascii;
    class       volScalarField;
    location    "200";
    object      alphat;
}
// * * * * * * * * * * * * * * * * * * * * * * * * * * * * * * * * * * * * * //

dimensions      [1 -1 -1 0 0 0 0];

internalField   nonuniform List<scalar> 
459
(
0.00159184
0.00178569
0.00195843
0.00185087
0.00156533
0.00132787
0.00109892
0.000975341
0.000882052
0.00080851
0.000758873
0.000725374
0.000700952
0.000682683
0.000667018
0.000374376
0.000398239
0.000380423
0.000328917
0.00029085
0.00027397
0.000272569
0.000274837
0.000260444
0.000241341
0.00022766
0.000230795
0.000271341
0.000300984
0.000368313
0.000462101
0.000513834
0.000497323
0.000439005
0.00163211
0.00312961
0.00458122
0.00631504
0.00668
0.00616041
0.00503226
0.00366429
0.00308125
0.00319418
0.00328517
0.00307431
0.00273852
0.0022851
0.00162123
0.000721682
0.000530311
0.000453991
0.00131721
0.00136202
0.00140014
0.00126404
0.000988968
0.000815694
0.000726772
0.000582766
0.000426914
0.000316584
0.000299235
0.000401559
0.000619273
0.00100035
0.00156835
0.00162291
0.00165359
0.000568079
0.00244725
0.00310466
0.00345357
0.00395455
0.00485473
0.00560697
0.00592762
0.00571389
0.00440223
0.00385317
0.00419418
0.00406145
0.00357788
0.00296085
0.00222069
0.00146874
0.000811637
0.000790709
0.00264984
0.00233974
0.00215762
0.00177329
0.0012808
0.000512002
0.00041519
0.000354035
0.000305808
0.000267214
0.000345273
0.000475863
0.000586649
0.000718943
0.00176682
0.00168322
0.00133455
0.000712011
0.00381344
0.00433285
0.00424099
0.00411695
0.00432842
0.00491605
0.00559514
0.00604931
0.00559861
0.00467676
0.00496746
0.00512309
0.00466267
0.00396413
0.00308624
0.00215798
0.00144766
0.00114687
0.00270004
0.00278128
0.00276153
0.00234843
0.00184839
0.00128014
0.000814178
0.000821427
0.000831959
0.000842854
0.000854407
0.000868272
0.000888274
0.00091954
0.000972705
0.00242611
0.00324233
0.00336637
0.00115915
0.00413599
0.00519471
0.00488076
0.00446128
0.00437063
0.00474947
0.00545015
0.00615026
0.00616532
0.00559296
0.00581273
0.00635518
0.00629647
0.00604135
0.00570294
0.00527244
0.00480649
0.00443035
0.00430104
0.0043743
0.00441273
0.00434016
0.004207
0.00407938
0.00398449
0.003976
0.00395979
0.00393338
0.00390819
0.00390379
0.00394028
0.00402711
0.00416488
0.00435927
0.00446794
0.00436792
0.00366375
0.0016057
0.00143872
0.00126163
0.00438292
0.00572429
0.00517867
0.00449505
0.00432831
0.00466753
0.00540931
0.00624005
0.00644029
0.00603898
0.00637269
0.00710875
0.00729417
0.00729672
0.00726387
0.00717112
0.0069955
0.00675137
0.00647791
0.00620133
0.00595656
0.00577175
0.00564032
0.00553683
0.00543401
0.00531757
0.00517645
0.00501586
0.00485677
0.00473221
0.00467035
0.00467663
0.00472702
0.00477554
0.00479773
0.00473268
0.0043712
0.00358539
0.00272352
0.00133938
0.00464379
0.00562517
0.00442777
0.00429349
0.00429297
0.00468838
0.00546165
0.00630536
0.00653157
0.00621881
0.00655296
0.00736438
0.00766738
0.0077892
0.00788203
0.00791886
0.00786169
0.00769734
0.0074432
0.00714805
0.0068754
0.00666807
0.0065242
0.00641485
0.0063028
0.00616184
0.00597695
0.00574419
0.00547859
0.00521503
0.00498624
0.00480691
0.00466804
0.00453179
0.0043428
0.00403227
0.00353723
0.00291155
0.00228233
0.00130637
0.00498616
0.00549183
0.00445245
0.00402491
0.00450073
0.00494174
0.00561776
0.00634274
0.00654446
0.00628354
0.00651629
0.00721034
0.0075634
0.00773697
0.00787822
0.00797199
0.00798505
0.00789609
0.00771144
0.00747153
0.00723702
0.00705702
0.0069477
0.006897
0.00687513
0.00684699
0.006778
0.00664135
0.00643181
0.00617833
0.00588998
0.00553835
0.00512011
0.0046587
0.00418581
0.00373569
0.00333786
0.00294636
0.00257059
0.0015887
0.00554683
0.00648314
0.00830814
0.00413885
0.0047949
0.00558341
0.00599363
0.00649841
0.00664178
0.00634206
0.00627897
0.00665579
0.00699956
0.00718282
0.00730891
0.00739897
0.00744008
0.00741143
0.00730563
0.00714246
0.00696496
0.00681961
0.00673992
0.00674385
0.00683495
0.00699665
0.00718759
0.0073568
0.00745476
0.00742917
0.00729223
0.00710772
0.0069394
0.00685184
0.00683076
0.00658993
0.00569658
0.00483154
0.00472223
0.0017916
0.0135232
0.00691256
0.00443822
0.00641636
0.00664544
0.00689094
0.0068616
0.00639345
0.00609736
0.00608046
0.00614751
0.00617562
0.00618814
0.00620016
0.00620885
0.00619876
0.00615435
0.00607306
0.00596986
0.00587129
0.00580732
0.005808
0.00590268
0.00611495
0.00644543
0.00685649
0.00725971
0.0075144
0.00761045
0.00758083
0.00748375
0.00738127
0.00729813
0.00717751
0.00678328
0.00587547
0.0054492
0.00175811
0.00561435
0.00377008
0.006047
0.00658345
0.00668563
0.00671185
0.00630732
0.00572578
0.00528797
0.00502066
0.004831
0.00465775
0.00452009
0.00442135
0.00435498
0.00430917
0.00427046
0.00422849
0.00418018
0.00413065
0.00409193
0.00408166
0.00412314
0.00424561
0.00447962
0.00484308
0.0053091
0.0057767
0.00615343
0.00638983
0.00648595
0.00646738
0.00635543
0.00613054
0.00555829
0.00470113
0.0044061
0.00154457
0.00267292
0.00324392
0.00394919
0.00190748
0.00188004
0.00205929
0.00208753
0.0020206
0.00189007
0.00176209
0.00165155
0.00155642
0.00147404
0.00140354
0.00134167
0.00128648
0.00123678
0.00119172
0.00115061
0.0011128
0.00107779
0.0010453
0.00101537
0.000988357
0.000965083
0.000946943
0.000936063
0.000935333
0.000949585
0.000989967
0.0010553
0.00113554
0.00121348
0.00127217
0.00130022
0.00129122
0.00126623
0.00123038
0.00123456
0.00117276
)
;

boundaryField
{
    floor
    {
        type            compressible::alphatWallFunction;
        Prt             0.85;
        value           nonuniform List<scalar> 
29
(
9.43069e-05
4.96354e-05
5.33974e-05
5.05715e-05
4.23194e-05
3.61188e-05
3.33375e-05
3.31079e-05
3.34876e-05
3.11034e-05
2.79042e-05
2.55885e-05
2.61115e-05
3.29037e-05
3.77882e-05
4.86442e-05
6.33544e-05
7.12997e-05
6.87715e-05
5.97663e-05
5.97655e-05
7.95188e-05
0.000100919
0.00016449
9.43058e-05
4.96347e-05
6.21248e-05
0.000112423
0.000162748
)
;
    }
    ceiling
    {
        type            compressible::alphatWallFunction;
        Prt             0.85;
        value           nonuniform List<scalar> 
43
(
0.000363553
0.000434918
0.000521309
0.00026521
0.000261617
0.00028501
0.000288672
0.000279967
0.000262912
0.000246066
0.000231408
0.000218708
0.000207639
0.000198113
0.000189707
0.000182173
0.000175358
0.000169152
0.000163466
0.000158216
0.000153337
0.000148794
0.000144593
0.00014079
0.000137504
0.000134936
0.000133393
0.000133289
0.00013531
0.000141016
0.000150191
0.00016137
0.000172144
0.000180205
0.000184042
0.000182811
0.00017939
0.000174469
0.000175042
0.000166521
0.000711728
0.000820665
0.000719608
)
;
    }
    sWall
    {
        type            compressible::alphatWallFunction;
        Prt             0.85;
        value           uniform 0.000362451;
    }
    nWall
    {
        type            compressible::alphatWallFunction;
        Prt             0.85;
        value           nonuniform List<scalar> 6(0.000178394 0.000189022 0.000184523 0.000245149 0.000216743 0.000166182);
    }
    sideWalls
    {
        type            empty;
    }
    glass1
    {
        type            compressible::alphatWallFunction;
        Prt             0.85;
        value           nonuniform List<scalar> 9(0.000218453 0.000223951 0.000329048 0.000497872 0.000536645 0.000566115 0.000597073 0.000637473 0.000703137);
    }
    glass2
    {
        type            compressible::alphatWallFunction;
        Prt             0.85;
        value           nonuniform List<scalar> 2(0.000221228 0.000248038);
    }
    sun
    {
        type            compressible::alphatWallFunction;
        Prt             0.85;
        value           nonuniform List<scalar> 
14
(
0.000223338
0.000249053
0.000271727
0.000257629
0.000219753
0.000187675
0.000156132
0.000138801
0.000125545
0.000114977
0.00010778
0.000102891
9.93094e-05
9.66198e-05
)
;
    }
    heatsource1
    {
        type            compressible::alphatWallFunction;
        Prt             0.85;
        value           nonuniform List<scalar> 3(0.000225298 0.000202874 0.000178771);
    }
    heatsource2
    {
        type            compressible::alphatWallFunction;
        Prt             0.85;
        value           nonuniform List<scalar> 4(0.000102488 7.3974e-05 7.3973e-05 0.000115554);
    }
    Table_master
    {
        type            compressible::alphatWallFunction;
        Prt             0.85;
        value           nonuniform List<scalar> 9(7.11755e-05 5.62014e-05 4.65167e-05 3.87256e-05 3.23665e-05 4.50735e-05 6.56217e-05 8.24774e-05 0.000102092);
    }
    Table_slave
    {
        type            compressible::alphatWallFunction;
        Prt             0.85;
        value           nonuniform List<scalar> 9(0.00011595 0.000116997 0.000118515 0.000120083 0.000121743 0.000123732 0.000126593 0.000131049 0.000138584);
    }
    inlet
    {
        type            fixedValue;
        value           uniform 1.94e-05;
    }
    outlet
    {
        type            zeroGradient;
    }
}


// ************************************************************************* //
