/*--------------------------------*- C++ -*----------------------------------*\
  =========                 |
  \\      /  F ield         | OpenFOAM: The Open Source CFD Toolbox
   \\    /   O peration     | Website:  https://openfoam.org
    \\  /    A nd           | Version:  6
     \\/     M anipulation  |
\*---------------------------------------------------------------------------*/
FoamFile
{
    version     2.0;
    format      ascii;
    class       surfaceScalarField;
    location    "900";
    object      phi;
}
// * * * * * * * * * * * * * * * * * * * * * * * * * * * * * * * * * * * * * //

dimensions      [1 0 -1 0 0 0 0];

internalField   nonuniform List<scalar> 
852
(
-0.00293595
0.00299218
-0.00397402
0.00103808
-0.00476251
0.000788483
-0.00537936
0.000616857
-0.00579546
0.000416098
-0.00598825
0.000192789
-0.00593594
-5.23095e-05
-0.00562096
-0.000314983
-0.00505539
-0.000565572
-0.0042908
-0.00076459
-0.00340761
-0.000883183
-0.00249456
-0.000913057
-0.00162644
-0.000868113
-0.000825427
-0.000801015
-0.000823989
-0.000674407
0.000677089
-0.000343312
-0.000331095
0.000264704
-0.000608016
0.000737634
-0.00047293
0.00105094
-0.00031331
0.00124536
-0.000194413
0.00135088
-0.000105527
0.00140327
-5.23847e-05
0.00143285
-2.95828e-05
0.00145087
-1.80219e-05
0.00146089
-1.00208e-05
0.00146399
-3.09195e-06
0.00145811
5.8736e-06
0.00143491
2.32073e-05
0.00137196
6.29501e-05
0.00123144
0.000140512
0.000998666
0.000232779
0.000706807
0.000291858
0.000710414
-0.00209426
0.00523784
-0.00309903
0.00204285
-0.00390428
0.00159374
-0.00450788
0.00122045
-0.00491411
0.000822329
-0.00510947
0.000388151
-0.00506879
-9.29889e-05
-0.00477749
-0.000606287
-0.00425865
-0.00108442
-0.00357336
-0.00144988
-0.00280366
-0.00165288
-0.00203006
-0.00168665
-0.00132486
-0.00157331
-0.000776415
-0.00134946
-0.000572939
-0.00102747
-7.78464e-05
-0.000495144
-7.78976e-05
0.000380254
0.000304467
0.000804254
-0.000755095
0.00105251
-0.000856277
0.00126091
-0.000681328
0.00141578
-0.000468178
0.00150606
-0.000284697
0.00151988
-0.000119342
0.00152358
-5.60858e-05
0.0015281
-3.41033e-05
0.00153192
-2.18373e-05
0.00153443
-1.2539e-05
0.00153566
-4.32163e-06
0.00153475
6.79199e-06
0.00152808
2.98696e-05
0.00148689
0.000104145
0.00131202
0.000315379
0.00100969
0.000535112
0.00062816
0.000673385
0.00134786
-0.00146561
0.006935
-0.00232855
0.00290579
-0.00303658
0.00230177
-0.00354743
0.0017313
-0.00389694
0.00117184
-0.00406725
0.000558461
-0.00401377
-0.000146472
-0.00371422
-0.000905835
-0.00321323
-0.00158541
-0.00258641
-0.0020767
-0.00191547
-0.00232383
-0.00126462
-0.0023375
-0.000684719
-0.00215321
-0.000227406
-0.00180678
7.7117e-05
-0.00133199
0.000278032
-0.000696058
0.000200134
0.00148289
-0.00117042
0.00169679
-0.000969002
0.00167627
-0.000835759
0.00167693
-0.00068198
0.00169862
-0.000489867
0.00170982
-0.000295897
0.00159063
0.00153469
0.00150074
0.00147906
0.00146667
0.0014625
0.00146945
0.00149947
0.00160377
0.00132354
0.000595608
0.000982752
0.000875903
0.000549198
0.00110694
0.00191123
-0.00102355
0.00825833
-0.00170524
0.00358748
-0.00216625
0.00276278
-0.00249317
0.00205822
-0.00271653
0.00139519
-0.00280442
0.00064635
-0.00268222
-0.000268669
-0.00233724
-0.00125082
-0.00185264
-0.00207001
-0.00131166
-0.00261767
-0.000781535
-0.00285395
-0.000297977
-0.00282106
0.000121143
-0.00257233
0.000470603
-0.00215624
0.000777385
-0.00163877
0.00114574
-0.00106442
0.0019048
-0.000558927
0.00244053
-0.000528463
0.00203886
-0.000768748
0.00191248
-0.00084262
0.00180325
-0.000726531
0.00171033
-0.000589058
0.00166011
-0.000439653
0.0016404
-0.000276185
0.00175386
-0.000113608
0.00182601
-7.23096e-05
0.00188471
-5.88488e-05
0.00193026
-4.57045e-05
0.00194872
-1.86101e-05
0.00191895
2.96208e-05
0.00181622
0.000102574
0.00160817
0.0002079
0.00124074
0.00036727
0.00111047
0.000725877
0.000824542
0.00116183
0.000387841
0.00154364
0.00231765
-0.000717673
0.00933373
-0.00123396
0.00410377
-0.00132073
0.00284955
-0.00137214
0.00210963
-0.00139297
0.00141603
-0.00130383
0.000557204
-0.00102408
-0.000548417
-0.00061557
-0.00165933
-0.000183863
-0.00250172
0.000204616
-0.00300615
0.000523039
-0.00317237
0.000768741
-0.00306676
0.000954594
-0.00275818
0.00110881
-0.00231045
0.00126193
-0.00179189
0.00146551
-0.001268
0.00174984
-0.000843258
0.00188759
-0.000666217
0.0017905
-0.000671654
0.00161634
-0.000668464
0.00147014
-0.000580325
0.00135102
-0.000469936
0.00126975
-0.000358392
0.00123937
-0.000245806
0.00128085
-0.000155082
0.00132857
-0.000120033
0.00138137
-0.000111644
0.00143577
-0.000100111
0.00148125
-6.40822e-05
0.00149827
1.25985e-05
0.00146629
0.000134551
0.00137326
0.000300925
0.00121979
0.000520748
0.00108586
0.000859807
0.000942238
0.00130545
0.000623957
0.00186192
0.000553092
0.00238851
-0.000968027
0.00152092
-0.0014312
0.000462972
-0.00138423
-0.00062641
0.0103668
-0.000979575
0.00445693
-0.000552739
0.00242272
-0.000186837
0.00174373
9.49326e-05
0.00113426
0.00048471
0.000167426
0.000982983
-0.00104669
0.0014035
-0.00207985
0.00168925
-0.00278746
0.00183607
-0.00315298
0.00187349
-0.00320979
0.00182992
-0.00302318
0.00173552
-0.00266379
0.00162639
-0.00220132
0.00153557
-0.00170107
0.00148874
-0.00122116
0.00148006
-0.000834581
0.00142587
-0.000612019
0.00128222
-0.000528011
0.00109255
-0.00047879
0.000925902
-0.000413678
0.000799108
-0.000343142
0.000718082
-0.000277366
0.000690288
-0.000218011
0.000712697
-0.000177491
0.00076113
-0.000168466
0.000824836
-0.00017535
0.000899129
-0.000174404
0.000978423
-0.000143377
0.00105094
-5.99193e-05
0.00109909
8.6406e-05
0.00111834
0.000281669
0.00111667
0.000522419
0.00114141
0.000835067
0.00124023
0.00120663
0.00142648
0.00167568
0.00186916
0.00194583
0.00213019
0.00125989
0.00174144
0.000851715
0.000413764
-0.000680258
0.0114979
-0.000558663
0.00433534
0.000577308
0.00128675
0.00137338
0.000947658
0.00205916
0.000448475
0.00276038
-0.000533795
0.00330364
-0.00158995
0.00358986
-0.00236608
0.00362387
-0.00282147
0.00345109
-0.0029802
0.00313362
-0.00289232
0.00273256
-0.00262213
0.00230112
-0.00223235
0.00188597
-0.00178616
0.00152252
-0.00133763
0.00122692
-0.000925567
0.000997709
-0.000605367
0.000799752
-0.000414062
0.000600396
-0.000328656
0.000410851
-0.000289244
0.000256075
-0.000258902
0.000145755
-0.000232822
8.09489e-05
-0.00021256
6.19627e-05
-0.000199025
8.21949e-05
-0.000197724
0.000126706
-0.000212977
0.000186153
-0.000234796
0.000259489
-0.00024774
0.000350817
-0.000234705
0.000465061
-0.000174163
0.000590241
-3.87743e-05
0.000715713
0.000156197
0.000852239
0.000385893
0.00103762
0.000649683
0.00132009
0.000924173
0.00176112
0.00123464
0.00242744
0.00127952
0.00296836
0.000718957
0.00299127
0.000828813
0.00346618
0.00259517
0.00940726
0.0033008
0.00362971
0.00370462
0.000882925
0.00439569
0.000256589
0.00521118
-0.000367013
0.00583923
-0.00116185
0.0060592
-0.00180992
0.00590014
-0.00220702
0.00543888
-0.00236021
0.0047676
-0.00230892
0.00398165
-0.00210637
0.00316502
-0.0018055
0.00237911
-0.00144645
0.00167289
-0.00107993
0.0010791
-0.000743837
0.000604221
-0.00045069
0.000253677
-0.000254822
-9.93886e-07
-0.000159391
-0.000196566
-0.000133083
-0.000349895
-0.000135916
-0.000465756
-0.000143041
-0.000546487
-0.000152091
-0.000595628
-0.00016342
-0.000616665
-0.000177987
-0.000616194
-0.000198195
-0.000604331
-0.00022484
-0.000586892
-0.000252235
-0.000562962
-0.00027167
-0.000524246
-0.000273421
-0.000452096
-0.000246313
-0.000317598
-0.000173273
-0.000136039
-2.53617e-05
7.77415e-05
0.000172112
0.00034695
0.000380474
0.000683239
0.000587884
0.00112729
0.000790588
0.0016164
0.000790405
0.00182521
0.000510146
0.00108591
0.00156812
0.00480137
0.00996066
0.0135823
0.0124536
0.00201164
0.0117475
0.000962695
0.0110915
0.000289012
0.0102105
-0.000280915
0.00906487
-0.000664242
0.00775913
-0.000901275
0.00638746
-0.000988536
0.00502341
-0.000944873
0.00373401
-0.000816974
0.00257192
-0.0006434
0.00155797
-0.000432502
0.000716676
-0.000238637
5.49355e-05
-8.20964e-05
-0.000411215
1.54603e-05
-0.000698994
3.29569e-05
-0.000877134
1.87487e-05
-0.00100321
-7.00483e-06
-0.00110444
-3.46887e-05
-0.00118716
-6.03206e-05
-0.00125407
-8.51792e-05
-0.00130876
-0.000108734
-0.00135534
-0.000131404
-0.00140031
-0.000153228
-0.00145208
-0.00017307
-0.00151823
-0.000186087
-0.0016059
-0.000183996
-0.00172369
-0.000155634
-0.00188196
-8.80379e-05
-0.00208649
3.12526e-05
-0.0023242
0.000212356
-0.00262142
0.00046933
-0.00305975
0.000818796
-0.00373087
0.001259
-0.00470162
0.00176134
-0.00608849
0.00217727
-0.00777337
0.00219503
-0.00730213
0.00109689
-0.00222498
0.00467798
0.00351136
0.00379061
0.00185006
0.0041718
-9.21771e-05
0.0041782
-0.00028731
0.00377432
-0.000260368
0.00314366
-0.000270615
0.00239281
-0.000237686
0.00158964
-0.0001417
0.00077628
-3.61441e-06
4.99446e-06
0.000127885
-0.00063359
0.000206082
-0.00108484
0.000212618
-0.00137137
0.000204433
-0.00153465
0.000178739
-0.00163707
0.000135373
-0.0017105
9.21752e-05
-0.00177175
5.42528e-05
-0.00182961
2.31694e-05
-0.00188876
-1.17131e-06
-0.00195098
-2.29614e-05
-0.00201699
-4.27201e-05
-0.00208861
-5.97905e-05
-0.00216901
-7.28239e-05
-0.00226083
-8.12492e-05
-0.00236502
-8.1899e-05
-0.00248051
-6.85076e-05
-0.00260333
-3.28117e-05
-0.00272582
3.44491e-05
-0.00283589
0.00014133
-0.00293025
0.000306709
-0.00301659
0.000555677
-0.00310031
0.000902515
-0.00317711
0.00133581
-0.00320181
0.00178605
-0.00312214
0.0020976
-0.00275883
0.00183172
-0.00149742
-0.000164527
-0.00365043
-0.000538912
0.00411503
0.000297033
0.00101411
-8.17101e-05
0.000286566
-0.000455541
8.6521e-05
-0.000785385
6.94761e-05
-0.00114544
8.94378e-05
-0.00151128
0.000128159
-0.00183023
0.000177246
-0.00205575
0.000221905
-0.00218171
0.000253849
-0.00223861
0.000262975
-0.00226374
0.000237756
-0.0022621
0.00020279
-0.00225025
0.000166889
-0.0022471
0.000132225
-0.00225749
0.000102566
-0.00228112
7.78809e-05
-0.00231551
5.75574e-05
-0.00235748
4.07995e-05
-0.00240819
2.7746e-05
-0.00246665
1.5739e-05
-0.00253084
4.39875e-06
-0.00259813
-5.53306e-06
-0.00266629
-1.30888e-05
-0.00273162
-1.65652e-05
-0.00278731
-1.28224e-05
-0.00282246
2.34483e-06
-0.00282685
3.8837e-05
-0.00279034
0.00010482
-0.00269133
0.000207704
-0.00249856
0.000362905
-0.00218528
0.000589232
-0.00173233
0.000882856
-0.00111163
0.00116534
-0.000152306
0.00113827
0.00114283
0.000536584
0.00158059
-0.000602282
-0.00199101
-0.00722871
-0.0101298
-0.00597199
-0.00493793
-0.00464021
-0.00454678
-0.00447302
-0.00438129
-0.00425244
-0.00407587
-0.00385586
-0.00360507
-0.00334626
-0.00311372
-0.00291704
-0.00275697
-0.00263212
-0.00253737
-0.00246763
-0.00241847
-0.00238625
-0.00236722
-0.00236029
-0.00236473
-0.00237909
-0.00240093
-0.00242613
-0.00244741
-0.00245333
-0.0024225
-0.00232542
-0.00212518
-0.00176945
-0.00118711
-0.000310892
0.000848026
0.00197984
0.00250973
0.00190037
)
;

boundaryField
{
    floor
    {
        type            calculated;
        value           nonuniform List<scalar> 
29
(
0
0
0
0
0
0
0
0
0
0
0
0
0
0
0
0
0
0
0
0
-3.60691e-06
-9.28908e-06
-1.41653e-05
-1.85819e-05
-1.43806e-06
-2.68117e-06
-7.63254e-06
-8.00122e-06
-7.2606e-06
)
;
    }
    ceiling
    {
        type            calculated;
        value           nonuniform List<scalar> 
43
(
-4.54227e-05
-4.41014e-05
-4.27916e-05
-1.99422e-05
-1.11609e-05
-6.90428e-06
-4.28107e-06
-2.29957e-06
-6.90545e-07
6.77625e-07
1.90191e-06
3.05185e-06
4.17227e-06
5.21388e-06
6.10533e-06
6.82108e-06
7.37931e-06
7.81095e-06
8.14305e-06
8.39482e-06
8.58244e-06
8.71713e-06
8.80516e-06
8.84357e-06
8.8253e-06
8.75199e-06
8.62899e-06
8.46278e-06
8.2572e-06
8.0122e-06
7.74317e-06
7.46027e-06
7.17308e-06
6.8936e-06
6.63942e-06
6.42619e-06
6.45537e-06
6.69285e-06
7.08472e-06
8.31455e-06
1.10985e-05
8.04961e-06
-6.47553e-05
)
;
    }
    sWall
    {
        type            calculated;
        value           uniform -0.00027492;
    }
    nWall
    {
        type            calculated;
        value           nonuniform List<scalar> 6(-4.71783e-05 -5.65489e-05 -6.11528e-05 -7.19692e-05 -7.88335e-05 -9.89572e-05);
    }
    sideWalls
    {
        type            empty;
        value           nonuniform 0();
    }
    glass1
    {
        type            calculated;
        value           nonuniform List<scalar> 9(-5.62349e-05 -0.000151403 -0.000231541 -0.000299779 -0.000357731 -0.000406621 -0.000450894 -0.000504515 -0.000564503);
    }
    glass2
    {
        type            calculated;
        value           nonuniform List<scalar> 2(-0.000249283 -0.000275783);
    }
    sun
    {
        type            calculated;
        value           uniform 0;
    }
    heatsource1
    {
        type            calculated;
        value           nonuniform List<scalar> 3(2.03958e-07 2.03915e-07 2.03932e-07);
    }
    heatsource2
    {
        type            calculated;
        value           nonuniform List<scalar> 4(5.10982e-08 5.12203e-08 0 0);
    }
    Table_master
    {
        type            calculated;
        value           nonuniform List<scalar> 9(-1.52968e-07 -1.53049e-07 -1.53079e-07 -1.53098e-07 -1.53112e-07 -1.53121e-07 -1.53125e-07 -1.53119e-07 -1.53086e-07);
    }
    Table_slave
    {
        type            calculated;
        value           nonuniform List<scalar> 9(1.52846e-07 1.52872e-07 1.52855e-07 1.52841e-07 1.52836e-07 1.52839e-07 1.52855e-07 1.52897e-07 1.52977e-07);
    }
    inlet
    {
        type            calculated;
        value           uniform -0.0061777;
    }
    outlet
    {
        type            calculated;
        value           nonuniform List<scalar> 2(0.00754905 0.0029452);
    }
}


// ************************************************************************* //
