/*--------------------------------*- C++ -*----------------------------------*\
  =========                 |
  \\      /  F ield         | OpenFOAM: The Open Source CFD Toolbox
   \\    /   O peration     | Website:  https://openfoam.org
    \\  /    A nd           | Version:  6
     \\/     M anipulation  |
\*---------------------------------------------------------------------------*/
FoamFile
{
    version     2.0;
    format      ascii;
    class       volScalarField;
    location    "1200";
    object      nut;
}
// * * * * * * * * * * * * * * * * * * * * * * * * * * * * * * * * * * * * * //

dimensions      [0 2 -1 0 0 0 0];

internalField   nonuniform List<scalar> 
459
(
0.00105503
0.0011505
0.0011702
0.00122567
0.0012767
0.00132404
0.0013698
0.0014169
0.00145218
0.00147034
0.00146616
0.00143595
0.00137974
0.00130384
0.00122172
0.000463245
0.000572224
0.000637132
0.000625437
0.000599783
0.000569087
0.000533867
0.000499894
0.000469187
0.000441881
0.000417637
0.000396027
0.000376802
0.00035946
0.000343397
0.000327805
0.000311453
0.000299969
0.000273509
0.00144447
0.0034711
0.00330457
0.00384577
0.00437142
0.00490224
0.00538575
0.00573838
0.00606026
0.00632808
0.00650148
0.0065292
0.00633526
0.00573956
0.00416762
0.00124125
0.000779547
0.000511309
0.0010361
0.00139803
0.00164162
0.00175751
0.00174183
0.001436
0.00125154
0.00111658
0.0010115
0.000926974
0.00085758
0.000796213
0.000738884
0.000683627
0.000635147
0.000592481
0.000695773
0.000360721
0.00177051
0.00474614
0.00408295
0.00517399
0.00571267
0.00611056
0.00641721
0.00664795
0.0068948
0.00715666
0.00740466
0.00758843
0.00765409
0.00753222
0.007042
0.00556656
0.00120434
0.00104302
0.00144865
0.00180103
0.0020939
0.00227695
0.00220094
0.000762731
0.00067617
0.000606564
0.000550261
0.000504258
0.000466269
0.000434651
0.000408331
0.000386813
0.000414984
0.000477065
0.000777954
0.000418033
0.00208531
0.00610932
0.0040794
0.00549553
0.00600891
0.00618362
0.00627409
0.00636715
0.00654516
0.00679891
0.00710535
0.00739973
0.00762944
0.0077461
0.00766666
0.00718348
0.00555185
0.0014509
0.00180331
0.00229375
0.00272188
0.00302796
0.00319561
0.00298293
0.000856964
0.000782655
0.000729607
0.000689336
0.000655154
0.000623615
0.000593371
0.000561598
0.000524573
0.000492279
0.000500595
0.000883484
0.000462124
0.00240728
0.00787068
0.00450103
0.00525704
0.00596879
0.00604658
0.00597861
0.00598048
0.00613599
0.006386
0.00673094
0.00708036
0.00736584
0.00752024
0.00750756
0.00728337
0.00670158
0.00548946
0.00503951
0.00483915
0.00471989
0.0046304
0.00454441
0.00437043
0.00373318
0.00343274
0.00326145
0.0031283
0.00298305
0.00276586
0.00246387
0.00209148
0.00167288
0.00124261
0.000914286
0.00090904
0.000614079
0.000574219
0.000696293
0.000780193
0.0027487
0.00978723
0.00626761
0.00517218
0.00568793
0.00595494
0.00583742
0.00586193
0.00598847
0.00621557
0.00654802
0.00692601
0.00724432
0.00740514
0.00736211
0.00713458
0.0067883
0.00639292
0.00612571
0.00591731
0.00571705
0.00552874
0.00535379
0.0051647
0.00489811
0.00466249
0.0044508
0.00424299
0.00402616
0.00378526
0.00346897
0.00306342
0.00256753
0.00200787
0.00150481
0.00111877
0.000846208
0.000722685
0.00103604
0.000812095
0.00306167
0.0111449
0.00888596
0.00672092
0.00628993
0.0063142
0.00616875
0.00604058
0.00604882
0.00624427
0.00660063
0.00701915
0.00736128
0.00750613
0.00740685
0.00711661
0.00678027
0.0065432
0.00641959
0.00628036
0.00606827
0.00580471
0.00551425
0.00521498
0.00492163
0.00466019
0.00442111
0.0041944
0.00397958
0.00378262
0.00360326
0.00333181
0.00293704
0.00245103
0.00198068
0.00155491
0.00124484
0.00114547
0.0011689
0.00091371
0.00312387
0.00999322
0.00884013
0.00811821
0.00760739
0.00697892
0.00639138
0.00607886
0.00610087
0.00641221
0.00689447
0.00738686
0.00772015
0.0077761
0.00754516
0.00713607
0.00675812
0.00656308
0.00646282
0.00620792
0.00581602
0.00536854
0.00493447
0.00455998
0.00425727
0.00401172
0.00380218
0.00362107
0.00347259
0.00336637
0.00331246
0.00328634
0.00306265
0.00273764
0.00244832
0.00229362
0.00236795
0.0027302
0.00339506
0.00144167
0.00304202
0.0036131
0.00402396
0.00415755
0.00421489
0.00436982
0.00472348
0.00531045
0.006083
0.00691249
0.0076431
0.00813425
0.00826646
0.00800603
0.00747452
0.00691606
0.00655867
0.0062715
0.00591577
0.00542081
0.00485945
0.00433743
0.00391349
0.00359176
0.00334647
0.00314831
0.00297789
0.00282631
0.00268898
0.00256098
0.00243648
0.00231693
0.00221958
0.00214739
0.0021215
0.00213599
0.00213345
0.00205861
0.00193038
0.00136069
0.00153234
0.00310345
0.00471523
0.00610084
0.0072353
0.00817248
0.00883748
0.00917842
0.0092004
0.00892735
0.00833148
0.00751786
0.00667705
0.00604098
0.00557642
0.00508892
0.00454321
0.00400202
0.00353013
0.00316701
0.00289739
0.00269205
0.00252805
0.00239176
0.00227743
0.00218384
0.00211169
0.00206244
0.00203953
0.00204252
0.00205832
0.0020846
0.00211503
0.00212657
0.00208051
0.00196168
0.00178118
0.00113528
0.00199644
0.00493058
0.00729244
0.00822694
0.00877864
0.00903445
0.00895412
0.00856119
0.00792898
0.00715434
0.00633883
0.00559537
0.0049563
0.00441041
0.00390272
0.00344729
0.00308548
0.00281918
0.00262482
0.00246902
0.00233458
0.00221532
0.00211631
0.00203705
0.0019779
0.00193927
0.00192069
0.00191987
0.00194338
0.00198931
0.00205458
0.00213268
0.00220851
0.00226185
0.00224984
0.00228254
0.00233069
0.00115771
0.00177493
0.00188094
0.00195627
0.00210068
0.00202859
0.00193904
0.00188045
0.00180738
0.00170592
0.00157753
0.00142879
0.0012699
0.0011132
0.000971323
0.000858496
0.000778346
0.000724314
0.000688317
0.000664401
0.000648814
0.00063944
0.000634969
0.000635304
0.000640611
0.000649915
0.000663424
0.000681404
0.000704208
0.000732385
0.000766918
0.000806881
0.000852212
0.000903496
0.000961296
0.00102537
0.00110087
0.00112837
0.00110129
0.00103488
0.000965672
)
;

boundaryField
{
    floor
    {
        type            nutkWallFunction;
        Cmu             0.09;
        kappa           0.41;
        E               9.8;
        value           nonuniform List<scalar> 
29
(
0.000146511
5.49866e-05
6.8861e-05
7.6967e-05
7.55139e-05
7.23152e-05
6.84659e-05
6.40179e-05
5.96931e-05
5.57525e-05
5.22213e-05
4.9063e-05
4.62281e-05
4.36896e-05
4.13854e-05
3.92384e-05
3.71418e-05
3.4929e-05
3.33658e-05
2.97333e-05
2.97332e-05
4.15535e-05
4.91149e-05
5.4842e-05
0.000146511
5.49865e-05
6.11506e-05
0.000125775
0.000172611
)
;
    }
    ceiling
    {
        type            nutkWallFunction;
        Cmu             0.09;
        kappa           0.41;
        E               9.8;
        value           nonuniform List<scalar> 
43
(
0.00020862
0.000220268
0.000228504
0.000244292
0.000236505
0.000226759
0.000220354
0.000212329
0.000201122
0.000186833
0.000170116
0.00015204
0.000133963
0.000117344
0.000103928
9.42738e-05
8.76997e-05
8.32879e-05
8.03416e-05
7.84146e-05
7.72533e-05
7.66987e-05
7.67405e-05
7.73992e-05
7.85521e-05
8.02224e-05
8.24392e-05
8.52406e-05
8.86873e-05
9.28901e-05
9.77259e-05
0.000103177
0.000109304
0.000116162
0.000123708
0.000132532
0.000135728
0.00013258
0.000124824
0.000116679
0.000344523
0.000403564
0.000232761
)
;
    }
    sWall
    {
        type            nutkWallFunction;
        Cmu             0.09;
        kappa           0.41;
        E               9.8;
        value           uniform 0.000208678;
    }
    nWall
    {
        type            nutkWallFunction;
        Cmu             0.09;
        kappa           0.41;
        E               9.8;
        value           nonuniform List<scalar> 6(9.44997e-05 9.83555e-05 0.000110522 0.000136539 0.000139138 0.000116685);
    }
    sideWalls
    {
        type            empty;
    }
    glass1
    {
        type            nutkWallFunction;
        Cmu             0.09;
        kappa           0.41;
        E               9.8;
        value           nonuniform List<scalar> 9(0.000127276 0.0001721 0.00020857 0.000243089 0.000277818 0.000314113 0.00034697 0.000353467 0.000344943);
    }
    glass2
    {
        type            nutkWallFunction;
        Cmu             0.09;
        kappa           0.41;
        E               9.8;
        value           nonuniform List<scalar> 2(0.000171642 0.000162462);
    }
    sun
    {
        type            nutkWallFunction;
        Cmu             0.09;
        kappa           0.41;
        E               9.8;
        value           nonuniform List<scalar> 
14
(
0.000127184
0.00013829
0.00014057
0.000146964
0.000152819
0.000158226
0.000163432
0.000168771
0.000172758
0.000174805
0.000174334
0.000170925
0.00016456
0.000155921
)
;
    }
    heatsource1
    {
        type            nutkWallFunction;
        Cmu             0.09;
        kappa           0.41;
        E               9.8;
        value           nonuniform List<scalar> 3(6.91146e-05 8.42702e-05 9.44997e-05);
    }
    heatsource2
    {
        type            nutkWallFunction;
        Cmu             0.09;
        kappa           0.41;
        E               9.8;
        value           nonuniform List<scalar> 4(0.000148751 9.44232e-05 9.44232e-05 0.000144507);
    }
    Table_master
    {
        type            nutkWallFunction;
        Cmu             0.09;
        kappa           0.41;
        E               9.8;
        value           nonuniform List<scalar> 9(9.23801e-05 8.17944e-05 7.31647e-05 6.60964e-05 6.02554e-05 5.53822e-05 5.12885e-05 4.78521e-05 4.50219e-05);
    }
    Table_slave
    {
        type            nutkWallFunction;
        Cmu             0.09;
        kappa           0.41;
        E               9.8;
        value           nonuniform List<scalar> 9(0.000103744 9.4796e-05 8.83472e-05 8.34146e-05 7.92008e-05 7.52891e-05 7.15158e-05 6.75263e-05 6.28422e-05);
    }
    inlet
    {
        type            calculated;
        value           uniform 0.000100623;
    }
    outlet
    {
        type            calculated;
        value           nonuniform List<scalar> 2(0.00177493 0.00188094);
    }
}


// ************************************************************************* //
