/*--------------------------------*- C++ -*----------------------------------*\
  =========                 |
  \\      /  F ield         | OpenFOAM: The Open Source CFD Toolbox
   \\    /   O peration     | Website:  https://openfoam.org
    \\  /    A nd           | Version:  6
     \\/     M anipulation  |
\*---------------------------------------------------------------------------*/
FoamFile
{
    version     2.0;
    format      ascii;
    class       volScalarField;
    location    "200";
    object      alphat;
}
// * * * * * * * * * * * * * * * * * * * * * * * * * * * * * * * * * * * * * //

dimensions      [1 -1 -1 0 0 0 0];

internalField   nonuniform List<scalar> 
459
(
0.000834982
0.000859292
0.000790434
0.00082015
0.000852205
0.000882427
0.000910918
0.000938423
0.000966068
0.000994138
0.0010175
0.00103467
0.00104456
0.00104652
0.00103636
0.000407094
0.000449597
0.000452554
0.000351468
0.000283228
0.000264573
0.00025153
0.000254031
0.000276339
0.000304675
0.000334456
0.000360603
0.000377932
0.000389448
0.000420082
0.000471115
0.000511222
0.000500406
0.000438352
0.00141888
0.00249063
0.0018294
0.00240648
0.00262641
0.00285013
0.00308166
0.00330126
0.00348069
0.00359892
0.00365725
0.00361673
0.00341317
0.00294324
0.00210412
0.00111164
0.00074732
0.000518816
0.00132785
0.00150062
0.00139116
0.00106505
0.000637213
0.00036383
0.000397751
0.00055132
0.000765193
0.000985697
0.00118577
0.00135028
0.00148762
0.00162878
0.00177027
0.00169173
0.00167054
0.000537836
0.00193378
0.00411417
0.00193146
0.00340698
0.00390796
0.00416052
0.00437652
0.00456077
0.00470498
0.00480154
0.00485077
0.00481008
0.00460805
0.00413848
0.00330637
0.00220342
0.00117426
0.000926988
0.00255318
0.00235659
0.00199565
0.00155968
0.00109872
0.000350306
0.000352108
0.000392904
0.0004341
0.000476761
0.000523304
0.000577952
0.000646825
0.000741226
0.00179316
0.00166252
0.00131141
0.000732798
0.00242052
0.00614846
0.00216825
0.00356847
0.00455087
0.00481084
0.00497618
0.00511663
0.00524086
0.00534558
0.00545681
0.00555697
0.0055821
0.00540869
0.00484996
0.00374859
0.00227893
0.00123388
0.00286111
0.00326391
0.00293584
0.00238205
0.00181689
0.00124479
0.000790852
0.000784022
0.000780877
0.000779357
0.000780596
0.000787468
0.000804389
0.00083967
0.000912155
0.00239883
0.00305536
0.00310122
0.00108962
0.00287075
0.00834109
0.00287266
0.00322189
0.00468145
0.00499212
0.00510186
0.00518277
0.00526573
0.00536415
0.00553868
0.00581654
0.00617746
0.00656472
0.00687606
0.00698798
0.00681946
0.00639142
0.00613443
0.00569456
0.00527693
0.00491134
0.00458991
0.0043085
0.00406392
0.00390408
0.0037419
0.00358454
0.00345709
0.00339048
0.00340364
0.00349553
0.00364511
0.00383031
0.00394199
0.00388471
0.00333689
0.00149445
0.00133863
0.00117499
0.00329036
0.0102886
0.00428501
0.00290631
0.00426831
0.00477181
0.0049172
0.0049665
0.00497982
0.00499546
0.00514656
0.00544915
0.00591051
0.00651425
0.00717595
0.00774259
0.00804058
0.00798094
0.00766188
0.00723514
0.00682879
0.00648894
0.0062072
0.0059522
0.00568284
0.00537882
0.0050377
0.00468153
0.00435801
0.00412585
0.00401628
0.00401255
0.0040631
0.00410694
0.00411762
0.00405832
0.00378237
0.00312699
0.0023917
0.0012355
0.00368268
0.0116888
0.00679339
0.003561
0.00326992
0.00391047
0.00443323
0.00470617
0.00474114
0.00465445
0.00471353
0.00489229
0.00522363
0.00574941
0.00644664
0.00717991
0.00774578
0.00800279
0.00795808
0.00774386
0.00749182
0.00726666
0.00707696
0.00689946
0.00669433
0.00642826
0.00608012
0.00564803
0.00517274
0.00473813
0.00441171
0.00419841
0.00406018
0.00393775
0.00377332
0.00351348
0.00310897
0.00259582
0.00205763
0.00120772
0.00377533
0.011927
0.00896467
0.006452
0.00459629
0.00392508
0.00416654
0.00458038
0.00460579
0.0045023
0.00445411
0.00448353
0.00460522
0.00485798
0.00529263
0.00590356
0.00655868
0.00707343
0.00732829
0.00738787
0.0073585
0.0073111
0.00727637
0.00725491
0.00722968
0.00717527
0.00705129
0.00680545
0.0064167
0.00595443
0.00550964
0.00507963
0.00465542
0.00423393
0.00382106
0.00344093
0.00305459
0.00270671
0.00238424
0.00149447
0.00366032
0.00438968
0.00517578
0.0052463
0.00487056
0.00441196
0.00411616
0.00399443
0.00394919
0.00395721
0.00399226
0.00403937
0.00409917
0.00419092
0.00435488
0.00463862
0.0050487
0.00551062
0.00591552
0.00621621
0.00642704
0.00658442
0.0067198
0.00685278
0.00699712
0.0071656
0.0073566
0.00752646
0.00757383
0.00742154
0.00709446
0.00673714
0.0064656
0.00633637
0.006271
0.00587352
0.00500661
0.00426286
0.00429785
0.00171247
0.00494159
0.00663538
0.00567375
0.00509208
0.00469421
0.00441992
0.0042253
0.00407561
0.00395854
0.00386542
0.00379148
0.0037389
0.00371933
0.00375486
0.00387136
0.00408021
0.0043623
0.00467823
0.00499001
0.00527535
0.00552949
0.00576105
0.00598823
0.00623782
0.00653916
0.00690075
0.00726132
0.00748408
0.00749434
0.00732091
0.00707699
0.00686043
0.00668448
0.00650272
0.00599762
0.00510741
0.00473657
0.00168614
0.00338483
0.00688126
0.00584851
0.00525724
0.00482908
0.00449703
0.0042366
0.0040245
0.00381959
0.00363504
0.00347888
0.00335668
0.00327375
0.00323686
0.00325476
0.0033363
0.00348584
0.00369824
0.00395697
0.00423717
0.00451141
0.00476383
0.00498801
0.00518642
0.00537073
0.00555136
0.00574039
0.00593872
0.00608919
0.00613375
0.00606636
0.0059231
0.00572871
0.00542972
0.00485968
0.004025
0.00391529
0.00149623
0.0022127
0.00252685
0.00288945
0.00300475
0.00263582
0.00239471
0.00219836
0.00202854
0.00187829
0.00174475
0.00163076
0.00153002
0.00143923
0.00135688
0.00128254
0.00121653
0.00115959
0.00111257
0.00107613
0.00105048
0.00103519
0.00102906
0.00103053
0.00103684
0.0010457
0.00105583
0.00106661
0.001079
0.00109517
0.00111781
0.00114673
0.0011787
0.00120716
0.00122369
0.00121989
0.00119408
0.00116215
0.0011208
0.00113724
0.00109124
)
;

boundaryField
{
    floor
    {
        type            compressible::alphatWallFunction;
        Prt             0.85;
        value           nonuniform List<scalar> 
29
(
0.000147415
5.47963e-05
6.14332e-05
6.18919e-05
4.59711e-05
3.48869e-05
3.17978e-05
2.96196e-05
3.00353e-05
3.37427e-05
3.83978e-05
4.32287e-05
4.74239e-05
5.0183e-05
5.20082e-05
5.68296e-05
6.47609e-05
7.0915e-05
6.92542e-05
5.96787e-05
5.96779e-05
7.49672e-05
0.000103973
0.000154857
0.000147413
5.47955e-05
7.20815e-05
0.000131949
0.000174825
)
;
    }
    ceiling
    {
        type            compressible::alphatWallFunction;
        Prt             0.85;
        value           nonuniform List<scalar> 
43
(
0.000304857
0.000345044
0.000390783
0.000405209
0.00035887
0.00032822
0.000303014
0.00028102
0.000261393
0.000243805
0.000228674
0.000215203
0.00020298
0.000191815
0.000181672
0.000172608
0.000164744
0.000158215
0.000153133
0.000149543
0.000147396
0.000146534
0.000146736
0.000147618
0.000148859
0.000150276
0.000151783
0.000153512
0.000155768
0.000158919
0.000162934
0.00016736
0.000171288
0.000173565
0.000173043
0.000169485
0.000165072
0.000159336
0.000161618
0.000155221
0.000486233
0.000574547
0.000452324
)
;
    }
    sWall
    {
        type            compressible::alphatWallFunction;
        Prt             0.85;
        value           uniform 0.000303779;
    }
    nWall
    {
        type            compressible::alphatWallFunction;
        Prt             0.85;
        value           nonuniform List<scalar> 6(0.000166514 0.000174857 0.000171035 0.000235656 0.000210287 0.000154899);
    }
    sideWalls
    {
        type            empty;
    }
    glass1
    {
        type            compressible::alphatWallFunction;
        Prt             0.85;
        value           nonuniform List<scalar> 9(0.000115556 0.000195522 0.000263148 0.000325426 0.000381947 0.000433856 0.000481806 0.000493182 0.000479429);
    }
    glass2
    {
        type            compressible::alphatWallFunction;
        Prt             0.85;
        value           nonuniform List<scalar> 2(0.000208859 0.00023784);
    }
    sun
    {
        type            compressible::alphatWallFunction;
        Prt             0.85;
        value           nonuniform List<scalar> 
14
(
0.000118846
0.000122319
0.000112398
0.000116691
0.000121302
0.00012563
0.000129694
0.000133604
0.00013752
0.000141482
0.000144771
0.000147181
0.000148567
0.00014884
)
;
    }
    heatsource1
    {
        type            compressible::alphatWallFunction;
        Prt             0.85;
        value           nonuniform List<scalar> 3(0.000210378 0.000189288 0.000166836);
    }
    heatsource2
    {
        type            compressible::alphatWallFunction;
        Prt             0.85;
        value           nonuniform List<scalar> 4(0.000158046 0.000106244 0.000106243 0.00016673);
    }
    Table_master
    {
        type            compressible::alphatWallFunction;
        Prt             0.85;
        value           nonuniform List<scalar> 9(4.59209e-05 4.6207e-05 5.26968e-05 5.91622e-05 6.57753e-05 7.29052e-05 8.1176e-05 9.14637e-05 0.00010535);
    }
    Table_slave
    {
        type            compressible::alphatWallFunction;
        Prt             0.85;
        value           nonuniform List<scalar> 9(0.000112571 0.000111581 0.000111124 0.000110904 0.000111083 0.000112079 0.000114527 0.000119612 0.00012998);
    }
    inlet
    {
        type            fixedValue;
        value           uniform 1.94e-05;
    }
    outlet
    {
        type            zeroGradient;
    }
}


// ************************************************************************* //
