/*--------------------------------*- C++ -*----------------------------------*\
  =========                 |
  \\      /  F ield         | OpenFOAM: The Open Source CFD Toolbox
   \\    /   O peration     | Website:  https://openfoam.org
    \\  /    A nd           | Version:  6
     \\/     M anipulation  |
\*---------------------------------------------------------------------------*/
FoamFile
{
    version     2.0;
    format      ascii;
    class       volScalarField;
    location    "500";
    object      nut;
}
// * * * * * * * * * * * * * * * * * * * * * * * * * * * * * * * * * * * * * //

dimensions      [0 2 -1 0 0 0 0];

internalField   nonuniform List<scalar> 
459
(
0.00100086
0.00108437
0.00109709
0.00114633
0.00119125
0.00123239
0.00127151
0.0013108
0.00134415
0.00136414
0.00136562
0.00134437
0.00129966
0.00123777
0.00117057
0.000433887
0.000532597
0.000580119
0.000563276
0.000538197
0.000510601
0.000480837
0.000452525
0.000426867
0.000403893
0.000383339
0.000365027
0.000348577
0.000333575
0.000319548
0.000305803
0.00029128
0.000283778
0.000261847
0.00138985
0.00317208
0.00296108
0.00343388
0.00387267
0.00432138
0.00474352
0.00508004
0.00535984
0.00559943
0.00575892
0.00578371
0.00558933
0.00500012
0.00354402
0.00118207
0.000792666
0.000512608
0.000920928
0.00119687
0.00138075
0.00146496
0.00145526
0.00124089
0.00110251
0.000998016
0.000914764
0.000846462
0.000786995
0.000733308
0.000683121
0.000635394
0.000594461
0.000555576
0.00066923
0.000358542
0.00171911
0.00434682
0.00358561
0.00462621
0.00508911
0.0054229
0.00567558
0.00587267
0.00606674
0.00628035
0.00648798
0.00664891
0.00670553
0.00659127
0.00617751
0.00502808
0.00114897
0.000983187
0.00130821
0.00156625
0.00177472
0.00190568
0.00184791
0.000674738
0.000604249
0.000547171
0.000500682
0.000462452
0.000430689
0.000404091
0.000381805
0.000363436
0.000391044
0.000447421
0.000749634
0.000421522
0.00204024
0.00569606
0.00353676
0.00491324
0.00538222
0.00551955
0.00556299
0.00561715
0.00573412
0.00592642
0.00616737
0.00642199
0.00662762
0.00673227
0.00668725
0.00629492
0.00490058
0.00130248
0.00163093
0.00202997
0.00234356
0.00255835
0.0026837
0.00252533
0.00075308
0.000697561
0.00066007
0.000632768
0.000609287
0.000585129
0.000561544
0.000535925
0.000504856
0.000475595
0.000479117
0.000867513
0.000469642
0.00236883
0.00745825
0.00391755
0.00464686
0.00535318
0.00542223
0.00532303
0.00526324
0.00535293
0.00554369
0.00580409
0.00610816
0.00636987
0.00651283
0.00649564
0.00627513
0.00573337
0.00467033
0.00421635
0.0039839
0.00384572
0.0037705
0.00373439
0.00365238
0.00321011
0.00302662
0.0029325
0.00285495
0.00275642
0.00260309
0.0023429
0.00200551
0.00161828
0.00121571
0.000894882
0.0008782
0.000624093
0.000590496
0.000711811
0.000796446
0.00271583
0.00937251
0.00559655
0.00443109
0.00498121
0.00527311
0.00531639
0.00510914
0.00520555
0.00538252
0.00564124
0.00595014
0.00622721
0.00637616
0.00632979
0.00607941
0.00567668
0.00521819
0.00489798
0.00467628
0.00450907
0.00439147
0.00430421
0.00421221
0.00406901
0.00394768
0.00383574
0.00371668
0.00358136
0.00342283
0.00319373
0.00286571
0.00243796
0.0019334
0.00146076
0.0010638
0.000834801
0.000728337
0.00105413
0.000829555
0.00304168
0.0107783
0.00825473
0.00581447
0.00520757
0.00525246
0.00534908
0.00529429
0.00529225
0.00540826
0.00565623
0.0059793
0.0062684
0.00640462
0.00630915
0.00598785
0.00554822
0.00516898
0.00495681
0.00482105
0.00466969
0.00448686
0.00429123
0.00411657
0.00397555
0.0038646
0.00376118
0.00365402
0.00354214
0.0034305
0.00332042
0.00311727
0.00277945
0.00234011
0.00190243
0.0014877
0.00120633
0.00112762
0.00116946
0.000931366
0.00311131
0.00987913
0.00859455
0.00766657
0.00689618
0.00642879
0.00595129
0.00556271
0.00541529
0.00552571
0.00582612
0.00619295
0.00647923
0.00655366
0.00634709
0.0059
0.00537361
0.00500708
0.00485787
0.00463848
0.00432405
0.00400339
0.00374706
0.00357339
0.00346114
0.00337953
0.00330794
0.00324183
0.00318654
0.00315245
0.00315134
0.00316427
0.00297588
0.00267188
0.0023967
0.00225891
0.0023684
0.0027856
0.00349674
0.00147398
0.00303473
0.00362168
0.00407127
0.00426989
0.00437777
0.00439398
0.0044754
0.00472182
0.00514063
0.00567588
0.0062226
0.00665003
0.00683749
0.00669971
0.00622632
0.00556042
0.00500797
0.00464002
0.00430765
0.00389399
0.00349093
0.00319056
0.00299937
0.00288264
0.00280501
0.00274256
0.0026828
0.00262061
0.00255335
0.00247834
0.00239288
0.00229699
0.00221507
0.00215503
0.00214017
0.00216422
0.00216688
0.00209037
0.00195807
0.00138327
0.00173476
0.00332056
0.00432729
0.0050357
0.00570739
0.00630697
0.00682217
0.00720983
0.00741851
0.00736305
0.00700729
0.00634231
0.00544939
0.00461664
0.00407631
0.00364332
0.00318748
0.00278684
0.00251236
0.00234785
0.00225172
0.00219222
0.002151
0.00211871
0.00209136
0.00206798
0.00204937
0.00203787
0.00203729
0.00205668
0.00208268
0.00211525
0.0021494
0.00216152
0.00211136
0.00198355
0.00179115
0.00114072
0.00207263
0.00445822
0.00588896
0.00644902
0.006959
0.00736576
0.00744783
0.00736108
0.00708953
0.00640696
0.00548826
0.00453635
0.00374673
0.00315817
0.00268963
0.00229271
0.00201552
0.00184755
0.00174371
0.00168588
0.00165691
0.00164708
0.00165185
0.00166926
0.00169844
0.00173872
0.00178879
0.00184567
0.00191142
0.00198951
0.00207825
0.00217259
0.00225904
0.00232011
0.00231175
0.00234324
0.00232656
0.0011594
0.00180316
0.00190795
0.00198437
0.00209729
0.00198226
0.00184986
0.00172535
0.00160565
0.00150593
0.00139487
0.00126139
0.00111401
0.000950863
0.000796184
0.000672355
0.000590174
0.000544198
0.00052332
0.000518221
0.000522748
0.000533705
0.000548199
0.00056551
0.000585447
0.000607986
0.000633207
0.000661299
0.000692601
0.00072772
0.000767738
0.000813214
0.000863329
0.000918779
0.000980292
0.00104801
0.00112962
0.00115757
0.00113019
0.00105953
0.000984668
)
;

boundaryField
{
    floor
    {
        type            nutkWallFunction;
        Cmu             0.09;
        kappa           0.41;
        E               9.8;
        value           nonuniform List<scalar> 
29
(
0.00014061
5.11849e-05
6.38592e-05
6.98541e-05
6.77365e-05
6.45689e-05
6.10622e-05
5.72536e-05
5.36035e-05
5.02708e-05
4.72651e-05
4.45575e-05
4.21296e-05
3.99353e-05
3.79224e-05
3.60295e-05
3.41643e-05
3.21813e-05
3.1152e-05
2.81214e-05
2.81213e-05
4.12664e-05
4.95737e-05
5.5814e-05
0.00014061
5.11848e-05
6.1319e-05
0.000118744
0.000155763
)
;
    }
    ceiling
    {
        type            nutkWallFunction;
        Cmu             0.09;
        kappa           0.41;
        E               9.8;
        value           nonuniform List<scalar> 
43
(
0.00021173
0.000223225
0.000231567
0.000243916
0.000231447
0.000216974
0.000203255
0.000189959
0.000178798
0.000166269
0.000151059
0.000134052
0.000114923
9.64315e-05
8.13229e-05
7.11138e-05
6.53281e-05
6.26815e-05
6.20333e-05
6.26094e-05
6.40004e-05
6.58351e-05
6.80186e-05
7.05233e-05
7.33423e-05
7.64818e-05
7.99609e-05
8.38169e-05
8.81183e-05
9.29899e-05
9.84896e-05
0.000104509
0.000111122
0.000118404
0.000126359
0.000135871
0.00013911
0.000135937
0.000127708
0.00011892
0.000343756
0.000404436
0.000241054
)
;
    }
    sWall
    {
        type            nutkWallFunction;
        Cmu             0.09;
        kappa           0.41;
        E               9.8;
        value           uniform 0.000211788;
    }
    nWall
    {
        type            nutkWallFunction;
        Cmu             0.09;
        kappa           0.41;
        E               9.8;
        value           nonuniform List<scalar> 6(9.64667e-05 0.000100458 0.00011262 0.000137168 0.000139332 0.000118926);
    }
    sideWalls
    {
        type            empty;
    }
    glass1
    {
        type            nutkWallFunction;
        Cmu             0.09;
        kappa           0.41;
        E               9.8;
        value           nonuniform List<scalar> 9(0.000120904 0.000165905 0.000202875 0.000238185 0.000273698 0.000310638 0.000344879 0.000352156 0.000344178);
    }
    glass2
    {
        type            nutkWallFunction;
        Cmu             0.09;
        kappa           0.41;
        E               9.8;
        value           nonuniform List<scalar> 2(0.000175288 0.000165028);
    }
    sun
    {
        type            nutkWallFunction;
        Cmu             0.09;
        kappa           0.41;
        E               9.8;
        value           nonuniform List<scalar> 
14
(
0.000120829
0.000130606
0.000132088
0.000137807
0.000143
0.000147737
0.000152224
0.000156715
0.000160516
0.000162789
0.000162956
0.00016054
0.000155442
0.000148353
)
;
    }
    heatsource1
    {
        type            nutkWallFunction;
        Cmu             0.09;
        kappa           0.41;
        E               9.8;
        value           nonuniform List<scalar> 3(7.11584e-05 8.61737e-05 9.64662e-05);
    }
    heatsource2
    {
        type            nutkWallFunction;
        Cmu             0.09;
        kappa           0.41;
        E               9.8;
        value           nonuniform List<scalar> 4(0.000141936 9.60089e-05 9.60089e-05 0.000138108);
    }
    Table_master
    {
        type            nutkWallFunction;
        Cmu             0.09;
        kappa           0.41;
        E               9.8;
        value           nonuniform List<scalar> 9(8.16198e-05 7.28776e-05 6.57083e-05 5.98012e-05 5.48926e-05 5.07759e-05 4.72992e-05 4.43638e-05 4.19279e-05);
    }
    Table_slave
    {
        type            nutkWallFunction;
        Cmu             0.09;
        kappa           0.41;
        E               9.8;
        value           nonuniform List<scalar> 9(9.12086e-05 8.44262e-05 7.98101e-05 7.64287e-05 7.35065e-05 7.04857e-05 6.75219e-05 6.42851e-05 6.03342e-05);
    }
    inlet
    {
        type            calculated;
        value           uniform 0.000100623;
    }
    outlet
    {
        type            calculated;
        value           nonuniform List<scalar> 2(0.00180316 0.00190795);
    }
}


// ************************************************************************* //
