/*--------------------------------*- C++ -*----------------------------------*\
  =========                 |
  \\      /  F ield         | OpenFOAM: The Open Source CFD Toolbox
   \\    /   O peration     | Website:  https://openfoam.org
    \\  /    A nd           | Version:  6
     \\/     M anipulation  |
\*---------------------------------------------------------------------------*/
FoamFile
{
    version     2.0;
    format      ascii;
    class       surfaceScalarField;
    location    "500";
    object      phi;
}
// * * * * * * * * * * * * * * * * * * * * * * * * * * * * * * * * * * * * * //

dimensions      [1 0 -1 0 0 0 0];

internalField   nonuniform List<scalar> 
852
(
-0.00288741
0.00294486
-0.00383188
0.000944484
-0.00458872
0.00075685
-0.00521233
0.000623622
-0.00567413
0.000461815
-0.00595492
0.0002808
-0.00603233
7.74223e-05
-0.0058809
-0.000151413
-0.00548416
-0.000396725
-0.00485742
-0.000626736
-0.00405171
-0.000805692
-0.00314018
-0.000911518
-0.00218864
-0.000951526
-0.00119309
-0.000995536
-0.00119158
-0.000564489
0.000567471
-0.00013578
-0.000428694
0.000469327
-0.000605092
0.000881453
-0.00041211
0.0011309
-0.000249427
0.00127265
-0.000141743
0.00134273
-7.00608e-05
0.00137556
-3.28123e-05
0.00139188
-1.63086e-05
0.00139927
-7.3723e-06
0.00140044
-1.15364e-06
0.00139611
4.35113e-06
0.00138396
1.21633e-05
0.00135566
2.83198e-05
0.0012896
6.60745e-05
0.00115036
0.000139254
0.000928599
0.000221782
0.000679732
0.000248884
0.000683783
-0.00205992
0.00515909
-0.00301053
0.00189511
-0.00380008
0.00154642
-0.00441399
0.00123754
-0.00486464
0.000912476
-0.00514577
0.000561944
-0.00523512
0.000166782
-0.00510472
-0.000281802
-0.00474321
-0.000758215
-0.00417719
-0.00119275
-0.00346832
-0.00151455
-0.00269363
-0.00168619
-0.00193362
-0.00171152
-0.00130563
-0.00162352
-0.00112237
-0.00137483
-0.000333203
-0.000789204
-0.000333241
0.000619624
-4.41495e-05
0.000971058
-0.000780114
0.00114757
-0.00078159
0.00131542
-0.000579946
0.00143488
-0.000368866
0.00149444
-0.000201296
0.00149819
-7.37876e-05
0.00149899
-3.36022e-05
0.00150062
-1.7918e-05
0.00150206
-8.79755e-06
0.00150287
-1.94566e-06
0.00150276
4.4697e-06
0.00150082
1.41258e-05
0.00149347
3.56878e-05
0.00145232
0.000107243
0.00127964
0.000311948
0.00098232
0.000519117
0.000614203
0.00061702
0.00130813
-0.00144978
0.00684423
-0.00228877
0.00273411
-0.00299182
0.00224949
-0.00351499
0.00176072
-0.00390701
0.00130451
-0.00416331
0.00081826
-0.00425163
0.00025511
-0.00412532
-0.000408102
-0.00377201
-0.00111151
-0.00323668
-0.00172807
-0.00259329
-0.00215792
-0.00191762
-0.00236186
-0.00128257
-0.00234656
-0.000761709
-0.00214437
-0.000394805
-0.00174172
-2.63914e-05
-0.0011576
-0.000359619
0.00133376
-0.00136936
0.00155506
-0.0010014
0.00155303
-0.000779551
0.00156832
-0.000595223
0.00159647
-0.000397002
0.00158747
-0.00019228
0.00151385
0.00148042
0.00146267
0.00145404
0.00145227
0.00145691
0.0014712
0.00150706
0.00161447
0.00133505
0.000591386
0.000991567
0.000862617
0.000551258
0.00105735
0.0018747
-0.00102454
0.00817254
-0.00171232
0.0034219
-0.00217872
0.0027159
-0.00252618
0.00210819
-0.0027971
0.00157544
-0.00298238
0.00100356
-0.00303764
0.000310385
-0.00288295
-0.000562781
-0.00251872
-0.00147573
-0.0020218
-0.00222498
-0.00147372
-0.00270599
-0.000936587
-0.00289898
-0.000456083
-0.00282705
-5.09914e-05
-0.00254945
0.000303198
-0.00209589
0.000686333
-0.00154073
0.00132283
-0.0009961
0.00208076
-0.000749777
0.00163724
-0.000925826
0.00155977
-0.000923917
0.00151706
-0.000736827
0.00148537
-0.000563523
0.00149215
-0.000403766
0.00154715
-0.000247267
0.00167052
-0.000123503
0.00177232
-0.000101943
0.00186503
-9.28484e-05
0.00194314
-7.82479e-05
0.0019897
-4.66918e-05
0.00197997
9.59232e-06
0.00188763
9.21984e-05
0.00168138
0.000206119
0.0013088
0.00037244
0.0011646
0.0007356
0.000855719
0.00117152
0.000374653
0.00153843
0.00226934
-0.00072706
0.00926107
-0.00127249
0.00396734
-0.00137958
0.002823
-0.00147577
0.00220441
-0.00156487
0.00166454
-0.00161994
0.00105864
-0.00157804
0.000268495
-0.00133714
-0.000803664
-0.000960183
-0.00185267
-0.000543173
-0.00264198
-0.000149433
-0.00309972
0.000185989
-0.00323439
0.000450912
-0.00309197
0.000652862
-0.00275139
0.000833466
-0.00227649
0.00103781
-0.00174506
0.00129985
-0.00125812
0.00149979
-0.000949709
0.00143116
-0.000857177
0.00129292
-0.000785662
0.00119979
-0.00064369
0.00114005
-0.000503762
0.001121
-0.000384705
0.00115406
-0.000280311
0.0012423
-0.000211724
0.00133164
-0.000191265
0.00142323
-0.000184425
0.00151066
-0.00016567
0.00158077
-0.000116781
0.00161231
-2.19331e-05
0.00158358
0.000120944
0.00148399
0.000305728
0.00131692
0.000539523
0.00116457
0.000887967
0.000995054
0.00134105
0.000626748
0.00190675
0.000478532
0.00241757
-0.00103065
0.00150899
-0.00148667
0.000455835
-0.00143806
-0.000640973
0.010312
-0.00103915
0.00436553
-0.000651353
0.00243522
-0.000386075
0.00193914
-0.000238417
0.0015169
-0.000111433
0.000931672
0.000141882
1.51941e-05
0.000518576
-0.00118035
0.000865241
-0.00219933
0.00112717
-0.0029039
0.0012877
-0.00326023
0.00135352
-0.0033002
0.00134965
-0.00308809
0.00130033
-0.00270205
0.0012394
-0.00221555
0.0011975
-0.00170316
0.00118009
-0.00124069
0.0011395
-0.000909105
0.00101493
-0.000732597
0.000850698
-0.000621416
0.000723704
-0.000516681
0.000647059
-0.000427102
0.000621209
-0.000358838
0.000648081
-0.000307168
0.000715742
-0.00027937
0.000800363
-0.00027587
0.000893888
-0.000277933
0.00099233
-0.000264097
0.00108951
-0.000213947
0.00117319
-0.000105592
0.00122265
7.14983e-05
0.0012333
0.000295093
0.00121758
0.000555256
0.00122606
0.000879504
0.00130736
0.00125976
0.00147348
0.00174065
0.00189997
0.0019911
0.00214743
0.00126155
0.00175751
0.000845771
0.000377961
-0.000746182
0.0115115
-0.000673765
0.00429313
0.000375438
0.00138603
0.000975365
0.00133923
0.00135172
0.00114056
0.00177948
0.000503928
0.00226341
-0.000468727
0.00263844
-0.00155536
0.00284116
-0.00240203
0.00285934
-0.00292208
0.00271828
-0.00311917
0.00246015
-0.00304206
0.00213366
-0.00276158
0.00178198
-0.00235037
0.00144216
-0.00187572
0.00114178
-0.00140276
0.000887097
-0.000985998
0.000668232
-0.000690226
0.000459038
-0.000523388
0.000275805
-0.000438168
0.00014409
-0.00038495
6.79338e-05
-0.00035093
4.07432e-05
-0.000331632
5.64657e-05
-0.000322875
0.000102978
-0.000325866
0.000165994
-0.00033887
0.000239158
-0.000351081
0.000323652
-0.000348575
0.00042465
-0.000314929
0.0005471
-0.000228027
0.000677843
-5.9229e-05
0.000803466
0.000169485
0.000933791
0.000424947
0.00111291
0.000700406
0.00139081
0.00098187
0.00183221
0.00129927
0.00249681
0.00132652
0.0030328
0.000725579
0.0030667
0.000811886
0.00350858
0.00249774
0.00952009
0.00313105
0.00365983
0.00335606
0.00116103
0.00364994
0.00104536
0.00396704
0.000823477
0.0044412
2.97866e-05
0.00490196
-0.000929477
0.00506109
-0.00171448
0.00490567
-0.0022466
0.00449966
-0.00251606
0.0039224
-0.0025419
0.00325246
-0.00237211
0.00255925
-0.00206837
0.00189281
-0.00168391
0.0012868
-0.00126969
0.000769166
-0.000885118
0.000344882
-0.000561701
2.44174e-05
-0.000369747
-0.000209806
-0.00028915
-0.000374671
-0.000273287
-0.000485663
-0.000273942
-0.000555236
-0.000281342
-0.000593514
-0.000293338
-0.000607597
-0.000308777
-0.000605551
-0.000327896
-0.000595469
-0.000348937
-0.000580603
-0.000365931
-0.000558377
-0.000370785
-0.000519391
-0.000353899
-0.000443308
-0.000304094
-0.00029589
-0.000206632
-9.84577e-05
-2.79318e-05
0.000126211
0.000200294
0.000403215
0.000423418
0.000747481
0.00063762
0.00120304
0.000843721
0.00169694
0.000832642
0.00189613
0.000526407
0.00111884
0.0015892
0.00488623
0.010075
0.0137268
0.0123016
0.00258626
0.0111849
0.00216208
0.0103983
0.00161012
0.0097143
0.000713793
0.0088495
-6.46749e-05
0.00779845
-0.000663425
0.00664944
-0.00109759
0.00546989
-0.0013365
0.00430777
-0.00137977
0.00320739
-0.00127172
0.00220815
-0.00106911
0.0013283
-0.000804059
0.000570598
-0.000511974
-3.78704e-05
-0.000276636
-0.000466378
-0.000133178
-0.000731959
-0.00010415
-0.000903572
-0.000117521
-0.00103034
-0.000146502
-0.00112954
-0.000174728
-0.00121015
-0.00020072
-0.00127878
-0.000224684
-0.00134092
-0.000246626
-0.00140265
-0.000266145
-0.00147069
-0.000280888
-0.00155111
-0.000285493
-0.00165016
-0.000271724
-0.00177576
-0.000228274
-0.00193881
-0.000141037
-0.00214838
2.95798e-06
-0.00238708
0.000210781
-0.00268064
0.000493878
-0.00312512
0.000867908
-0.00381737
0.00132988
-0.00482177
0.00184814
-0.00625207
0.00226295
-0.00797803
0.00225239
-0.00747798
0.00108915
-0.00230476
0.0047949
0.00388021
0.00432073
0.00263622
0.00509073
0.00084009
0.00526161
0.000542894
0.00497343
0.000223491
0.00446193
-0.00015194
0.0037837
-0.000419359
0.00299304
-0.000545834
0.00214105
-0.00052778
0.00128917
-0.000419827
0.00048443
-0.000264366
-0.000230558
-8.90564e-05
-0.000784899
4.23819e-05
-0.00113953
7.80101e-05
-0.00133778
6.50873e-05
-0.00146534
2.34264e-05
-0.00156441
-1.84362e-05
-0.00165603
-5.48634e-05
-0.00174724
-8.35032e-05
-0.00184015
-0.000107791
-0.00193668
-0.000128144
-0.00203891
-0.000144373
-0.0021492
-0.00015584
-0.0022695
-0.000160575
-0.00240031
-0.000154666
-0.00253982
-0.000132195
-0.00268268
-8.5397e-05
-0.00281925
-4.45766e-06
-0.00293633
0.000120056
-0.00303011
0.000304576
-0.00311236
0.000576141
-0.00319238
0.000947951
-0.00326995
0.00140746
-0.00329984
0.00187805
-0.00322533
0.00218847
-0.00287173
0.0018988
-0.00159851
-0.000184046
-0.00382778
-0.000585656
0.00452245
0.000643417
0.00140713
0.000829595
0.000653899
0.00095581
0.000416672
0.00096177
0.000217531
0.00077063
3.92059e-05
0.000409238
-5.79579e-05
-8.20795e-05
-5.45023e-05
-0.000623433
1.35876e-05
-0.00112067
7.74186e-05
-0.00151033
0.000125317
-0.0017541
0.000154726
-0.00186924
0.00015754
-0.00192521
0.000133988
-0.00195928
9.91747e-05
-0.0019966
6.07669e-05
-0.00204315
2.81253e-05
-0.00210084
2.8468e-06
-0.00216819
-1.61344e-05
-0.00224471
-3.12583e-05
-0.00232941
-4.34274e-05
-0.00242087
-5.28958e-05
-0.00251722
-5.94767e-05
-0.00261552
-6.22537e-05
-0.00271088
-5.92907e-05
-0.00279558
-4.74783e-05
-0.00285834
-2.26233e-05
-0.00288436
2.15726e-05
-0.00286187
9.75844e-05
-0.00276921
0.000211937
-0.00257321
0.000380158
-0.00224737
0.000622125
-0.00177773
0.00093784
-0.00114267
0.001243
-0.000163626
0.00120944
0.00115877
0.00057642
0.00158253
-0.000607796
-0.00216238
-0.00744064
-0.0102463
-0.00568129
-0.00425154
-0.00358229
-0.00315429
-0.00292853
-0.00288363
-0.00293783
-0.00299014
-0.00297563
-0.0028983
-0.00277399
-0.00262112
-0.00246619
-0.00233541
-0.00223987
-0.00218301
-0.00215894
-0.00216025
-0.00218059
-0.00221607
-0.00226372
-0.00232083
-0.00238449
-0.00245089
-0.00251426
-0.00256575
-0.0025923
-0.00257455
-0.00248068
-0.00227235
-0.00189569
-0.00127697
-0.000342469
0.000897213
0.00210325
0.0026761
0.00206452
)
;

boundaryField
{
    floor
    {
        type            calculated;
        value           nonuniform List<scalar> 
29
(
0
0
0
0
0
0
0
0
0
0
0
0
0
0
0
0
0
0
0
0
-4.03367e-06
-1.01286e-05
-1.52944e-05
-1.99666e-05
-1.49667e-06
-2.96638e-06
-7.98725e-06
-8.52719e-06
-8.14394e-06
)
;
    }
    ceiling
    {
        type            calculated;
        value           nonuniform List<scalar> 
43
(
-4.52133e-05
-4.39069e-05
-4.25927e-05
-2.26049e-05
-1.53431e-05
-1.1311e-05
-8.21639e-06
-5.68186e-06
-3.74128e-06
-2.18194e-06
-9.05955e-07
1.0632e-07
1.02069e-06
1.86896e-06
2.6245e-06
3.22576e-06
3.64813e-06
3.91652e-06
4.07697e-06
4.16974e-06
4.2175e-06
4.24014e-06
4.24324e-06
4.22912e-06
4.19927e-06
4.15485e-06
4.09679e-06
4.02566e-06
3.94143e-06
3.84273e-06
3.73257e-06
3.62221e-06
3.51652e-06
3.42214e-06
3.35145e-06
3.33284e-06
3.42205e-06
3.58106e-06
3.80075e-06
4.80609e-06
1.11306e-05
7.99155e-06
-5.65998e-05
)
;
    }
    sWall
    {
        type            calculated;
        value           uniform -0.000272204;
    }
    nWall
    {
        type            calculated;
        value           nonuniform List<scalar> 6(-4.87942e-05 -5.84933e-05 -6.3907e-05 -7.54747e-05 -8.28497e-05 -0.000102646);
    }
    sideWalls
    {
        type            empty;
        value           nonuniform 0();
    }
    glass1
    {
        type            calculated;
        value           nonuniform List<scalar> 9(-5.74353e-05 -0.000154303 -0.000235343 -0.000303759 -0.000361458 -0.000409948 -0.000453262 -0.00050636 -0.000566026);
    }
    glass2
    {
        type            calculated;
        value           nonuniform List<scalar> 2(-0.000258795 -0.000286972);
    }
    sun
    {
        type            calculated;
        value           uniform 0;
    }
    heatsource1
    {
        type            calculated;
        value           nonuniform List<scalar> 3(2.04169e-07 2.04107e-07 2.04121e-07);
    }
    heatsource2
    {
        type            calculated;
        value           nonuniform List<scalar> 4(5.10601e-08 5.12054e-08 0 0);
    }
    Table_master
    {
        type            calculated;
        value           nonuniform List<scalar> 9(-1.53125e-07 -1.53183e-07 -1.53205e-07 -1.53221e-07 -1.53232e-07 -1.53239e-07 -1.53241e-07 -1.53236e-07 -1.53205e-07);
    }
    Table_slave
    {
        type            calculated;
        value           nonuniform List<scalar> 9(1.53018e-07 1.53024e-07 1.52997e-07 1.52975e-07 1.52963e-07 1.52968e-07 1.5298e-07 1.5302e-07 1.53101e-07);
    }
    inlet
    {
        type            calculated;
        value           uniform -0.00608887;
    }
    outlet
    {
        type            calculated;
        value           nonuniform List<scalar> 2(0.00775806 0.0028496);
    }
}


// ************************************************************************* //
