/*--------------------------------*- C++ -*----------------------------------*\
  =========                 |
  \\      /  F ield         | OpenFOAM: The Open Source CFD Toolbox
   \\    /   O peration     | Website:  https://openfoam.org
    \\  /    A nd           | Version:  6
     \\/     M anipulation  |
\*---------------------------------------------------------------------------*/
FoamFile
{
    version     2.0;
    format      ascii;
    class       volScalarField;
    location    "900";
    object      nut;
}
// * * * * * * * * * * * * * * * * * * * * * * * * * * * * * * * * * * * * * //

dimensions      [0 2 -1 0 0 0 0];

internalField   nonuniform List<scalar> 
459
(
0.00141025
0.00157735
0.00164806
0.0017547
0.00187437
0.00197646
0.00204031
0.00205514
0.00195398
0.00184333
0.00172195
0.00159076
0.00146559
0.00134011
0.00119827
0.000641786
0.000761601
0.000890168
0.000987047
0.00102989
0.00102231
0.000966265
0.000902244
0.000844428
0.000794223
0.000750627
0.000712477
0.000678482
0.0006475
0.000618309
0.000588964
0.000556736
0.000517192
0.000459411
0.00180392
0.00502116
0.00514457
0.00592564
0.00651659
0.00696452
0.00729278
0.00756039
0.00761427
0.0073081
0.00681255
0.00618777
0.00521154
0.00399124
0.00263944
0.0012998
0.00111707
0.000614901
0.00130093
0.00251812
0.0033464
0.00393398
0.00396392
0.00271537
0.00223385
0.00191947
0.00169309
0.00152602
0.00140389
0.00131822
0.00123954
0.00113271
0.00101919
0.00091796
0.000842311
0.00048757
0.00213205
0.00700878
0.00655805
0.00709313
0.00731287
0.00740427
0.00755683
0.00794491
0.00828155
0.00830232
0.00805555
0.00763302
0.00694621
0.00586667
0.00443667
0.00281883
0.00121007
0.000619263
0.00146003
0.00251064
0.00377386
0.00475237
0.00470053
0.00126935
0.00111374
0.000980493
0.000868501
0.000774384
0.000695571
0.00063089
0.000582936
0.000554328
0.000643663
0.000759804
0.000870925
0.000496429
0.00244709
0.0087662
0.00736151
0.00764951
0.00743194
0.00710313
0.00710817
0.00757734
0.00806242
0.008272
0.00818095
0.00790536
0.00747127
0.00674707
0.00564406
0.00416749
0.002281
0.00126922
0.00131394
0.00206239
0.00344834
0.00497901
0.00609082
0.00590194
0.0014328
0.00130467
0.00120246
0.00111856
0.00104277
0.000969313
0.000894511
0.000815331
0.000725938
0.0006406
0.000681854
0.000859535
0.000500972
0.00276479
0.010802
0.0087685
0.00856654
0.00771536
0.00692005
0.00688055
0.00739155
0.0079703
0.00825844
0.00820324
0.00795267
0.00762477
0.00717827
0.00648091
0.00548217
0.00425416
0.00386411
0.00439479
0.00546842
0.00673545
0.00780346
0.00842091
0.00836073
0.00696093
0.00608333
0.00547441
0.00483203
0.00415886
0.00346555
0.00276168
0.00206138
0.0013867
0.000875375
0.00072547
0.000834643
0.000558632
0.00048514
0.000542722
0.000627131
0.00308612
0.0128907
0.0112543
0.00970997
0.00787485
0.00685851
0.00683423
0.00744131
0.00811397
0.00844412
0.00838698
0.00816161
0.00798739
0.00783309
0.00755394
0.00714531
0.00676923
0.0071019
0.00815388
0.00918649
0.00996969
0.0103691
0.0103523
0.0099226
0.0090762
0.00817445
0.00721471
0.00621418
0.00519104
0.00416743
0.00316947
0.00223867
0.00143686
0.000912274
0.000787882
0.000855745
0.000673844
0.000615433
0.000856557
0.000646437
0.00330524
0.0138174
0.0129825
0.0097854
0.00753887
0.00662752
0.00684734
0.00767493
0.0084722
0.00883085
0.00882193
0.0088432
0.00910883
0.00922194
0.00922615
0.00926841
0.00952672
0.0102704
0.0111856
0.0117439
0.0119183
0.0117113
0.0111705
0.0103671
0.00935966
0.00826267
0.00713225
0.00599461
0.00487328
0.0038079
0.00284817
0.00204298
0.00142774
0.00105506
0.000978862
0.00103336
0.000935569
0.000930571
0.000871939
0.000713341
0.00331733
0.0106786
0.00949159
0.00738505
0.00615702
0.00610633
0.00695471
0.00814128
0.00903546
0.00938501
0.00969076
0.0102491
0.0105537
0.0106793
0.0108272
0.0111047
0.0115613
0.0121709
0.0126268
0.0126739
0.0123194
0.0116247
0.0106775
0.00956556
0.00838933
0.00722791
0.00609855
0.00501933
0.00402479
0.00315695
0.00244771
0.0019071
0.00152663
0.00130706
0.00126279
0.00137541
0.00146615
0.00154042
0.00219105
0.000914344
0.00320339
0.0036625
0.00381894
0.00380261
0.00443831
0.0058715
0.00761561
0.00902798
0.00967646
0.0101845
0.0106815
0.0110743
0.011193
0.011299
0.0115077
0.0118079
0.0121331
0.0123517
0.0122898
0.0118617
0.0110969
0.0100795
0.00891864
0.00773081
0.0065956
0.00554619
0.00457843
0.003694
0.00290827
0.00224014
0.00171146
0.00134957
0.00116231
0.00111521
0.00115203
0.0012278
0.00129651
0.00131428
0.00127992
0.000982389
0.000763151
0.00306912
0.0065711
0.0089671
0.0101588
0.0104122
0.0101467
0.0102831
0.0104374
0.010443
0.010461
0.0105715
0.0107368
0.0108745
0.0108838
0.0106573
0.0101343
0.00933825
0.00836422
0.0073313
0.00634367
0.00546491
0.00470825
0.0040547
0.00348194
0.00297944
0.00254421
0.00217416
0.00186703
0.00162339
0.00145
0.00135557
0.00133585
0.00136468
0.00140147
0.00141221
0.00133803
0.00108642
0.0022969
0.00936183
0.0102069
0.0100057
0.00935814
0.00874885
0.0083239
0.00804779
0.00785768
0.00777701
0.00779654
0.00786722
0.00793061
0.00792602
0.00779447
0.0074953
0.00703525
0.00647355
0.00589231
0.00535727
0.00489852
0.00451558
0.00419324
0.00391463
0.00366624
0.00343764
0.00321945
0.00300296
0.00278192
0.00255503
0.00232736
0.00211014
0.00191827
0.00176253
0.00163339
0.00161301
0.00205274
0.00117259
0.00139345
0.00187053
0.00221613
0.0023758
0.00206813
0.00188427
0.00174349
0.00162512
0.00154477
0.00149997
0.00147868
0.00147128
0.0014705
0.00147071
0.00146724
0.00145628
0.00143533
0.0014042
0.00136576
0.00132488
0.00128623
0.00125253
0.00122427
0.00120047
0.00117959
0.00116013
0.00114092
0.0011211
0.00110018
0.00107805
0.00105508
0.00103224
0.00101117
0.000994054
0.000982808
0.000977062
0.000968632
0.000960823
0.000966373
0.00097904
)
;

boundaryField
{
    floor
    {
        type            nutkWallFunction;
        Cmu             0.09;
        kappa           0.41;
        E               9.8;
        value           nonuniform List<scalar> 
29
(
0.000143811
7.75413e-05
9.22418e-05
0.000107711
0.000119194
0.000124232
0.000123342
0.000116742
0.000109148
0.000102236
9.61898e-05
9.09022e-05
8.62447e-05
8.20688e-05
7.82408e-05
7.46133e-05
7.09454e-05
6.68913e-05
6.18778e-05
5.44669e-05
5.44669e-05
5.80951e-05
5.9232e-05
5.98126e-05
0.000143811
7.75413e-05
7.41989e-05
7.47391e-05
0.00015195
)
;
    }
    ceiling
    {
        type            nutkWallFunction;
        Cmu             0.09;
        kappa           0.41;
        E               9.8;
        value           nonuniform List<scalar> 
43
(
0.000166513
0.000219607
0.000256835
0.000274055
0.000240918
0.000220853
0.000205345
0.0001922
0.000183219
0.000178191
0.000175798
0.000174966
0.000174881
0.000174906
0.000174516
0.000173282
0.000170917
0.000167396
0.000163035
0.000158381
0.000153966
0.000150105
0.000146857
0.000144117
0.000141708
0.000139458
0.000137231
0.000134931
0.000132498
0.000129917
0.000127231
0.000124553
0.000122076
0.000120056
0.000118725
0.000118041
0.000117039
0.000116118
0.000116782
0.000118282
0.000361241
0.000408529
0.000265224
)
;
    }
    sWall
    {
        type            nutkWallFunction;
        Cmu             0.09;
        kappa           0.41;
        E               9.8;
        value           uniform 0.000166534;
    }
    nWall
    {
        type            nutkWallFunction;
        Cmu             0.09;
        kappa           0.41;
        E               9.8;
        value           nonuniform List<scalar> 6(7.57038e-05 7.80969e-05 8.63339e-05 0.000130873 0.000140885 0.000118287);
    }
    sideWalls
    {
        type            empty;
    }
    glass1
    {
        type            nutkWallFunction;
        Cmu             0.09;
        kappa           0.41;
        E               9.8;
        value           nonuniform List<scalar> 9(0.00016822 0.000212253 0.000248145 0.000282048 0.000315774 0.000349475 0.000372248 0.000373512 0.000361714);
    }
    glass2
    {
        type            nutkWallFunction;
        Cmu             0.09;
        kappa           0.41;
        E               9.8;
        value           nonuniform List<scalar> 2(0.000110314 0.000118565);
    }
    sun
    {
        type            nutkWallFunction;
        Cmu             0.09;
        kappa           0.41;
        E               9.8;
        value           nonuniform List<scalar> 
14
(
0.000168012
0.000186799
0.000194685
0.000206509
0.000219686
0.000230854
0.000237805
0.000239412
0.000228397
0.000216276
0.000202888
0.000188301
0.000174262
0.000160053
)
;
    }
    heatsource1
    {
        type            nutkWallFunction;
        Cmu             0.09;
        kappa           0.41;
        E               9.8;
        value           nonuniform List<scalar> 3(5.77844e-05 6.51099e-05 7.57079e-05);
    }
    heatsource2
    {
        type            nutkWallFunction;
        Cmu             0.09;
        kappa           0.41;
        E               9.8;
        value           nonuniform List<scalar> 4(0.000155449 0.000134409 0.000134409 0.00014516);
    }
    Table_master
    {
        type            nutkWallFunction;
        Cmu             0.09;
        kappa           0.41;
        E               9.8;
        value           nonuniform List<scalar> 9(0.000151968 0.000134017 0.000118415 0.000105114 9.37797e-05 8.41645e-05 7.61782e-05 7.01971e-05 6.66003e-05);
    }
    Table_slave
    {
        type            nutkWallFunction;
        Cmu             0.09;
        kappa           0.41;
        E               9.8;
        value           nonuniform List<scalar> 9(0.00017057 0.000156019 0.000144297 0.00013459 0.000125749 0.000117108 0.00010823 9.87357e-05 8.78839e-05);
    }
    inlet
    {
        type            calculated;
        value           uniform 0.000100623;
    }
    outlet
    {
        type            calculated;
        value           nonuniform List<scalar> 2(0.00139345 0.00187053);
    }
}


// ************************************************************************* //
