/*--------------------------------*- C++ -*----------------------------------*\
  =========                 |
  \\      /  F ield         | OpenFOAM: The Open Source CFD Toolbox
   \\    /   O peration     | Website:  https://openfoam.org
    \\  /    A nd           | Version:  6
     \\/     M anipulation  |
\*---------------------------------------------------------------------------*/
FoamFile
{
    version     2.0;
    format      ascii;
    class       volScalarField;
    location    "300";
    object      epsilon;
}
// * * * * * * * * * * * * * * * * * * * * * * * * * * * * * * * * * * * * * //

dimensions      [0 2 -3 0 0 0 0];

internalField   nonuniform List<scalar> 
459
(
0.000123431
0.000138432
0.000131042
0.000144247
0.000156219
0.000166725
0.000175975
0.000184302
0.000192123
0.000200023
0.000206092
0.000209392
0.000209643
0.000207707
0.000203722
8.20187e-05
7.06538e-05
6.23333e-05
5.74334e-05
5.40285e-05
5.02368e-05
4.4998e-05
3.99289e-05
3.541e-05
3.13797e-05
2.78029e-05
2.46367e-05
2.18304e-05
1.93254e-05
1.70512e-05
1.4925e-05
1.28352e-05
1.15682e-05
9.00704e-06
0.000454346
0.00103256
0.000128237
0.000109778
0.000107855
0.000107819
0.000109216
0.000112903
0.000119801
0.000130725
0.000143105
0.000154941
0.000164155
0.000169982
0.000179061
0.000217255
0.000172839
0.000134156
7.29231e-05
5.57318e-05
4.8124e-05
4.25959e-05
3.80693e-05
3.60543e-05
3.17526e-05
2.77471e-05
2.40434e-05
2.07033e-05
1.77685e-05
1.52276e-05
1.30522e-05
1.13014e-05
1.03536e-05
1.02329e-05
3.09673e-05
2.03488e-05
0.00106283
0.00340396
0.000217505
0.000112519
0.000106968
0.000109454
0.000114693
0.000122949
0.000134422
0.000148788
0.000163749
0.000175431
0.000180929
0.000180965
0.000182818
0.0002019
0.000280884
0.000198832
7.28423e-05
6.10549e-05
5.03498e-05
4.31028e-05
4.05819e-05
8.74773e-05
6.03709e-05
4.41985e-05
3.40192e-05
2.726e-05
2.25475e-05
1.91437e-05
1.66686e-05
1.5006e-05
1.21173e-05
1.14033e-05
6.30114e-05
3.30517e-05
0.00210704
0.00810776
0.000486061
0.000127477
0.000113602
0.000120454
0.000130581
0.00014369
0.000160231
0.000180351
0.000201364
0.000215492
0.000217941
0.000209641
0.000196796
0.000191648
0.000217971
0.000290324
0.000138722
8.08869e-05
6.25985e-05
4.66144e-05
3.88351e-05
3.74145e-05
8.40203e-05
7.23354e-05
6.90772e-05
6.79989e-05
6.62497e-05
6.22068e-05
5.63054e-05
5.03003e-05
4.33751e-05
2.80363e-05
2.00797e-05
0.000118587
4.64035e-05
0.00371509
0.0153415
0.00119609
0.000164239
0.000119046
0.000127888
0.000143443
0.000164208
0.000191535
0.000226458
0.000263214
0.000285653
0.000287573
0.000271584
0.00024314
0.000209177
0.000178238
0.000145957
9.63008e-05
7.59503e-05
6.16345e-05
4.61756e-05
3.90801e-05
3.74975e-05
4.1559e-05
4.50628e-05
4.86399e-05
5.12436e-05
5.16236e-05
4.8858e-05
4.36186e-05
3.92229e-05
3.58713e-05
3.05846e-05
2.50658e-05
8.06791e-05
5.50673e-05
9.62396e-05
0.000161586
0.000223035
0.00602725
0.0229973
0.00306368
0.000328731
0.000146941
0.000140163
0.000154703
0.000180281
0.000220671
0.000286974
0.000351069
0.000381386
0.000378818
0.000352717
0.0003105
0.000256441
0.000194788
0.000133508
9.15133e-05
7.57186e-05
6.64204e-05
5.08507e-05
4.40014e-05
4.35926e-05
4.7844e-05
5.46105e-05
6.22539e-05
6.89905e-05
7.27697e-05
7.12413e-05
6.24028e-05
5.09362e-05
4.14278e-05
3.4019e-05
3.0043e-05
5.35967e-05
5.54065e-05
6.98777e-05
0.000302707
0.000253646
0.00919247
0.027212
0.00770506
0.00156332
0.000513622
0.000297394
0.000251319
0.000255652
0.000291699
0.000419677
0.000498636
0.00051476
0.00049089
0.000444698
0.000385117
0.00031442
0.000236228
0.000155966
9.88177e-05
8.02646e-05
7.70097e-05
6.09868e-05
5.383e-05
5.42074e-05
5.98102e-05
6.91324e-05
8.10269e-05
9.35327e-05
0.00010441
0.000110607
0.000107279
8.78097e-05
6.98384e-05
5.66461e-05
5.19548e-05
6.45221e-05
8.58918e-05
0.000151749
0.00038677
0.000350254
0.0102201
0.0345976
0.016724
0.00912878
0.00452744
0.00220484
0.00125045
0.000887085
0.000779214
0.000795704
0.000766842
0.000703607
0.000624519
0.000540677
0.000456307
0.000371233
0.000283609
0.000190497
0.000112626
8.75704e-05
9.29749e-05
7.79029e-05
6.96393e-05
7.01091e-05
7.67432e-05
8.79857e-05
0.000102983
0.000121238
0.000142407
0.000165749
0.000188915
0.000203148
0.000196584
0.000207518
0.00024864
0.000394311
0.000795941
0.00172136
0.00542137
0.00140587
0.00969189
0.0175231
0.0142052
0.0105722
0.00750327
0.00508533
0.00344088
0.00242389
0.00183391
0.0014216
0.00112989
0.000916713
0.00075376
0.000622332
0.00051043
0.000410541
0.000317211
0.000219168
0.000128787
9.70063e-05
0.00011535
0.000104987
9.41937e-05
9.25176e-05
9.77054e-05
0.000108086
0.000123281
0.0001439
0.000171532
0.000208789
0.00025933
0.000327905
0.000420278
0.000558443
0.000772644
0.00106689
0.00139934
0.00167486
0.00186452
0.0011042
0.00590175
0.00788455
0.00624202
0.00468202
0.00346351
0.0025831
0.00197081
0.00153493
0.00121525
0.000975562
0.00078993
0.000640774
0.000516975
0.000411946
0.000319786
0.000224492
0.000133193
0.000105844
0.000147286
0.000150927
0.000136256
0.000129841
0.000130552
0.000136131
0.000146132
0.000161024
0.000182115
0.000211955
0.000254906
0.000317742
0.000407549
0.000532452
0.000697267
0.000882321
0.00102954
0.00106217
0.000925243
0.000590625
0.00423922
0.0070707
0.00562357
0.00421616
0.00320823
0.00244994
0.0018786
0.0014506
0.00112782
0.000880458
0.000688373
0.000537043
0.000416461
0.000320062
0.000243179
0.000182638
0.00012812
0.000112555
0.000162656
0.000171334
0.000164048
0.000155587
0.000151183
0.000151542
0.000157525
0.000170248
0.000191117
0.00022214
0.000266337
0.000328395
0.000414034
0.000528627
0.000672616
0.000837012
0.000964229
0.00108211
0.00080159
0.000611892
0.00283525
0.00331026
0.00375303
0.00451372
0.00383437
0.00299803
0.00240159
0.00193511
0.00155527
0.00124579
0.00100599
0.000821144
0.000669827
0.000541966
0.000432737
0.000339991
0.00026277
0.000199744
0.000138833
0.000105364
0.000117223
0.000121434
0.000123398
0.000127735
0.000135128
0.000145656
0.000159594
0.00017742
0.00019998
0.000228882
0.00026735
0.000315925
0.000377134
0.000453593
0.00054845
0.00069266
0.000744949
0.000698119
0.000569695
0.000450193
)
;

boundaryField
{
    floor
    {
        Cmu             0.09;
        kappa           0.41;
        E               9.8;
        type            epsilonWallFunction;
        value           nonuniform List<scalar> 
29
(
0.000203722
8.20187e-05
7.06538e-05
6.23333e-05
5.74334e-05
5.40285e-05
5.02368e-05
4.4998e-05
3.99289e-05
3.541e-05
3.13797e-05
2.78029e-05
2.46367e-05
2.18304e-05
1.93254e-05
1.70512e-05
1.4925e-05
1.28352e-05
1.15682e-05
9.00704e-06
9.00704e-06
2.03488e-05
3.30517e-05
4.64035e-05
0.000203722
8.20187e-05
0.000134156
0.000198832
0.000290324
)
;
    }
    ceiling
    {
        Cmu             0.09;
        kappa           0.41;
        E               9.8;
        type            epsilonWallFunction;
        value           nonuniform List<scalar> 
43
(
0.00283525
0.00331026
0.00375303
0.00451372
0.00383437
0.00299803
0.00240159
0.00193511
0.00155527
0.00124579
0.00100599
0.000821144
0.000669827
0.000541966
0.000432737
0.000339991
0.00026277
0.000199744
0.000138833
0.000105364
0.000117223
0.000121434
0.000123398
0.000127735
0.000135128
0.000145656
0.000159594
0.00017742
0.00019998
0.000228882
0.00026735
0.000315925
0.000377134
0.000453593
0.00054845
0.00069266
0.000744949
0.000698119
0.000569695
0.000450193
0.00969189
0.0175231
0.00423922
)
;
    }
    sWall
    {
        Cmu             0.09;
        kappa           0.41;
        E               9.8;
        type            epsilonWallFunction;
        value           uniform 0.00283525;
    }
    nWall
    {
        Cmu             0.09;
        kappa           0.41;
        E               9.8;
        type            epsilonWallFunction;
        value           nonuniform List<scalar> 6(0.000223035 0.000253646 0.000350254 0.000590625 0.000611892 0.000450193);
    }
    sideWalls
    {
        type            empty;
    }
    glass1
    {
        Cmu             0.09;
        kappa           0.41;
        E               9.8;
        type            epsilonWallFunction;
        value           nonuniform List<scalar> 9(0.000123431 0.000454346 0.00106283 0.00210704 0.00371509 0.00602725 0.00919247 0.0102201 0.00969189);
    }
    glass2
    {
        Cmu             0.09;
        kappa           0.41;
        E               9.8;
        type            epsilonWallFunction;
        value           nonuniform List<scalar> 2(0.00140587 0.0011042);
    }
    sun
    {
        Cmu             0.09;
        kappa           0.41;
        E               9.8;
        type            epsilonWallFunction;
        value           nonuniform List<scalar> 
14
(
0.000123431
0.000138432
0.000131042
0.000144247
0.000156219
0.000166725
0.000175975
0.000184302
0.000192123
0.000200023
0.000206092
0.000209392
0.000209643
0.000207707
)
;
    }
    heatsource1
    {
        Cmu             0.09;
        kappa           0.41;
        E               9.8;
        type            epsilonWallFunction;
        value           nonuniform List<scalar> 3(9.62396e-05 0.000161586 0.000223035);
    }
    heatsource2
    {
        Cmu             0.09;
        kappa           0.41;
        E               9.8;
        type            epsilonWallFunction;
        value           nonuniform List<scalar> 4(0.000217255 0.000172839 0.000172839 0.000280884);
    }
    Table_master
    {
        Cmu             0.09;
        kappa           0.41;
        E               9.8;
        type            epsilonWallFunction;
        value           nonuniform List<scalar> 9(8.74773e-05 6.03709e-05 4.41985e-05 3.40192e-05 2.726e-05 2.25475e-05 1.91437e-05 1.66686e-05 1.5006e-05);
    }
    Table_slave
    {
        Cmu             0.09;
        kappa           0.41;
        E               9.8;
        type            epsilonWallFunction;
        value           nonuniform List<scalar> 9(8.40203e-05 7.23354e-05 6.90772e-05 6.79989e-05 6.62497e-05 6.22068e-05 5.63054e-05 5.03003e-05 4.33751e-05);
    }
    inlet
    {
        type            turbulentMixingLengthDissipationRateInlet;
        mixingLength    0.01;
        phi             phi;
        k               k;
        value           uniform 0.000101881;
    }
    outlet
    {
        type            zeroGradient;
    }
}


// ************************************************************************* //
