/*--------------------------------*- C++ -*----------------------------------*\
  =========                 |
  \\      /  F ield         | OpenFOAM: The Open Source CFD Toolbox
   \\    /   O peration     | Website:  https://openfoam.org
    \\  /    A nd           | Version:  6
     \\/     M anipulation  |
\*---------------------------------------------------------------------------*/
FoamFile
{
    version     2.0;
    format      ascii;
    class       volScalarField;
    location    "230";
    object      epsilon;
}
// * * * * * * * * * * * * * * * * * * * * * * * * * * * * * * * * * * * * * //

dimensions      [0 2 -3 0 0 0 0];

internalField   nonuniform List<scalar> 
459
(
0.000341698
0.000497886
0.000594725
0.000741388
0.000924085
0.00108777
0.00119608
0.001111
0.000971073
0.000821595
0.000680194
0.000557349
0.000455174
0.000359143
0.000267089
5.43485e-05
0.000109455
0.000157365
0.000188505
0.000185918
0.000171013
0.000143421
0.000117558
9.70128e-05
8.10764e-05
6.86239e-05
5.87613e-05
5.08102e-05
4.43095e-05
3.87438e-05
3.36817e-05
2.86853e-05
2.2338e-05
1.6506e-05
0.000656311
0.000735371
0.000469606
0.000527594
0.000655379
0.000768834
0.000826197
0.000770991
0.000647776
0.000524408
0.000424424
0.000353554
0.00030553
0.000267571
0.000225668
0.000293559
0.000194075
0.00012654
0.000318441
0.000190933
0.000162333
0.000147118
0.000134792
0.000136447
0.000112331
8.96027e-05
7.15486e-05
5.7641e-05
4.69792e-05
3.87218e-05
3.22919e-05
2.73363e-05
2.45746e-05
2.57536e-05
2.18836e-05
2.33775e-05
0.00104614
0.00132838
0.000574708
0.000594982
0.000713163
0.000770804
0.00080372
0.000771531
0.000648039
0.000506822
0.000392903
0.000313407
0.000260106
0.000223116
0.000192501
0.00019426
0.000221747
0.000157453
0.000415889
0.000233788
0.000179044
0.000154997
0.000147767
0.000326233
0.000221174
0.000153664
0.000110189
8.15987e-05
6.23093e-05
4.90253e-05
4.01272e-05
3.46276e-05
2.6129e-05
2.50148e-05
2.50324e-05
2.93801e-05
0.0015508
0.00237531
0.000853616
0.000770889
0.000837604
0.000821836
0.00085043
0.000830171
0.000691202
0.000516068
0.000376713
0.000285286
0.000228129
0.000192221
0.000168329
0.000160234
0.000172017
0.000230503
0.000215477
0.000182445
0.000170571
0.000167107
0.000161243
0.000163437
0.000439776
0.000334691
0.000264354
0.000213865
0.000173875
0.000140213
0.000110932
8.50392e-05
6.14483e-05
3.35323e-05
2.50586e-05
3.93399e-05
4.0287e-05
0.00219517
0.00389754
0.00143884
0.00113104
0.00103383
0.00094367
0.000978364
0.000957422
0.000780281
0.000545657
0.000363654
0.000253892
0.000195477
0.000166192
0.000152404
0.000149731
0.000168036
0.000189624
0.000184036
0.000193774
0.000206197
0.000209521
0.000199629
0.000182243
0.000180109
0.000169778
0.000159512
0.000147004
0.00013041
0.000110559
8.89703e-05
6.73455e-05
4.67217e-05
2.99306e-05
2.27346e-05
4.24996e-05
4.77393e-05
5.68965e-05
5.20225e-05
4.4118e-05
0.00296772
0.00559703
0.00262033
0.0017164
0.00128497
0.0011471
0.0011835
0.00114986
0.000906896
0.000581949
0.00034204
0.000214886
0.000164983
0.000149967
0.000151065
0.000164705
0.000198108
0.000233
0.000261803
0.000284029
0.000291222
0.000278328
0.000248763
0.000211553
0.000180713
0.000159551
0.000143765
0.000127338
0.000108342
8.77708e-05
6.73611e-05
4.90876e-05
3.42312e-05
2.55377e-05
2.23968e-05
3.589e-05
5.28064e-05
5.41402e-05
8.66154e-05
6.89629e-05
0.003502
0.00650653
0.00405082
0.00231874
0.00159916
0.0014241
0.00147117
0.00140791
0.00105595
0.000601925
0.000302256
0.000186129
0.000158836
0.000160259
0.000177596
0.000209349
0.000259601
0.000314
0.000356188
0.00037164
0.00035813
0.000319648
0.000267021
0.000211835
0.000166613
0.000139868
0.000120561
0.000102065
8.34764e-05
6.60406e-05
5.1233e-05
4.01062e-05
3.28998e-05
3.06281e-05
3.25996e-05
3.99976e-05
5.96023e-05
6.44711e-05
0.000133053
0.000102811
0.00347216
0.00603973
0.00377802
0.00244404
0.00184275
0.00176503
0.00185391
0.00172288
0.00118546
0.000558115
0.000292424
0.00021868
0.000207701
0.000220214
0.000248221
0.000292167
0.000354582
0.000410206
0.000439127
0.000426786
0.000377122
0.000309802
0.000242694
0.000187712
0.000149408
0.000124549
0.000105619
8.92145e-05
7.50629e-05
6.39743e-05
5.67444e-05
5.38482e-05
5.55018e-05
6.24853e-05
7.68245e-05
9.91254e-05
0.000145094
0.000241861
0.00046525
0.000126161
0.00312539
0.00434338
0.00310798
0.00219175
0.0019698
0.00219569
0.00233787
0.00201919
0.00113419
0.000563861
0.000394085
0.000353464
0.000354356
0.000372532
0.000402841
0.000443055
0.000486362
0.000512227
0.000504499
0.00046278
0.000398989
0.000332235
0.000274799
0.000231539
0.000201535
0.000180732
0.000165128
0.000152545
0.000141824
0.000132127
0.000123094
0.000115712
0.000113005
0.000119383
0.000138817
0.000174466
0.000229462
0.000303901
0.00038249
0.000356636
0.000294273
0.00133174
0.00255735
0.00316817
0.00271958
0.00150143
0.000938036
0.000770419
0.000737404
0.000742932
0.000756958
0.000773192
0.000790407
0.000805637
0.000812271
0.000801743
0.000772405
0.000730654
0.000685883
0.000645957
0.000614688
0.000592859
0.000579578
0.000573223
0.0005718
0.000572335
0.00057011
0.000558573
0.000530708
0.000482388
0.000417136
0.000349405
0.000301308
0.000290548
0.000317442
0.000376159
0.000471159
0.000740403
0.00532857
0.00910594
0.0077718
0.00516372
0.00313615
0.00202217
0.00166752
0.00160785
0.00163375
0.00166849
0.00169201
0.00170752
0.001724
0.00174767
0.0017785
0.00181007
0.00183266
0.00184065
0.00183527
0.00182313
0.00181142
0.00180622
0.00181237
0.0018332
0.00186962
0.00191882
0.00197219
0.00201339
0.00201789
0.00195571
0.00180092
0.00154971
0.00123944
0.000941467
0.000706675
0.000635827
0.00138635
0.00115922
0.00170491
0.00215153
0.00276761
0.0032302
0.00286089
0.00241261
0.00200097
0.00170447
0.00153803
0.00146279
0.00143447
0.00142893
0.00143552
0.00144854
0.00146312
0.00147376
0.00147499
0.00146342
0.00144033
0.00141086
0.00138103
0.0013553
0.00133596
0.0013236
0.0013177
0.00131688
0.00131888
0.00132032
0.00131653
0.00130168
0.00126967
0.00121573
0.00113867
0.00104269
0.00093612
0.000825727
0.000711281
0.000641611
0.000701056
0.000641786
)
;

boundaryField
{
    floor
    {
        Cmu             0.09;
        kappa           0.41;
        E               9.8;
        type            epsilonWallFunction;
        value           nonuniform List<scalar> 
29
(
0.000267089
5.43485e-05
0.000109455
0.000157365
0.000188505
0.000185918
0.000171013
0.000143421
0.000117558
9.70128e-05
8.10764e-05
6.86239e-05
5.87613e-05
5.08102e-05
4.43095e-05
3.87438e-05
3.36817e-05
2.86853e-05
2.2338e-05
1.6506e-05
1.6506e-05
2.33775e-05
2.93801e-05
4.0287e-05
0.000267089
5.43485e-05
0.00012654
0.000157453
0.000230503
)
;
    }
    ceiling
    {
        Cmu             0.09;
        kappa           0.41;
        E               9.8;
        type            epsilonWallFunction;
        value           nonuniform List<scalar> 
43
(
0.00170491
0.00215153
0.00276761
0.0032302
0.00286089
0.00241261
0.00200097
0.00170447
0.00153803
0.00146279
0.00143447
0.00142893
0.00143552
0.00144854
0.00146312
0.00147376
0.00147499
0.00146342
0.00144033
0.00141086
0.00138103
0.0013553
0.00133596
0.0013236
0.0013177
0.00131688
0.00131888
0.00132032
0.00131653
0.00130168
0.00126967
0.00121573
0.00113867
0.00104269
0.00093612
0.000825727
0.000711281
0.000641611
0.000701056
0.000641786
0.00312539
0.00434338
0.00532857
)
;
    }
    sWall
    {
        Cmu             0.09;
        kappa           0.41;
        E               9.8;
        type            epsilonWallFunction;
        value           uniform 0.00170491;
    }
    nWall
    {
        Cmu             0.09;
        kappa           0.41;
        E               9.8;
        type            epsilonWallFunction;
        value           nonuniform List<scalar> 6(4.4118e-05 6.89629e-05 0.000102811 0.000740403 0.00115922 0.000641786);
    }
    sideWalls
    {
        type            empty;
    }
    glass1
    {
        Cmu             0.09;
        kappa           0.41;
        E               9.8;
        type            epsilonWallFunction;
        value           nonuniform List<scalar> 9(0.000341698 0.000656311 0.00104614 0.0015508 0.00219517 0.00296772 0.003502 0.00347216 0.00312539);
    }
    glass2
    {
        Cmu             0.09;
        kappa           0.41;
        E               9.8;
        type            epsilonWallFunction;
        value           nonuniform List<scalar> 2(0.000126161 0.000356636);
    }
    sun
    {
        Cmu             0.09;
        kappa           0.41;
        E               9.8;
        type            epsilonWallFunction;
        value           nonuniform List<scalar> 
14
(
0.000341698
0.000497886
0.000594725
0.000741388
0.000924085
0.00108777
0.00119608
0.001111
0.000971073
0.000821595
0.000680194
0.000557349
0.000455174
0.000359143
)
;
    }
    heatsource1
    {
        Cmu             0.09;
        kappa           0.41;
        E               9.8;
        type            epsilonWallFunction;
        value           nonuniform List<scalar> 3(5.68965e-05 5.20225e-05 4.4118e-05);
    }
    heatsource2
    {
        Cmu             0.09;
        kappa           0.41;
        E               9.8;
        type            epsilonWallFunction;
        value           nonuniform List<scalar> 4(0.000293559 0.000194075 0.000194075 0.000221747);
    }
    Table_master
    {
        Cmu             0.09;
        kappa           0.41;
        E               9.8;
        type            epsilonWallFunction;
        value           nonuniform List<scalar> 9(0.000326233 0.000221174 0.000153664 0.000110189 8.15987e-05 6.23093e-05 4.90253e-05 4.01272e-05 3.46276e-05);
    }
    Table_slave
    {
        Cmu             0.09;
        kappa           0.41;
        E               9.8;
        type            epsilonWallFunction;
        value           nonuniform List<scalar> 9(0.000439776 0.000334691 0.000264354 0.000213865 0.000173875 0.000140213 0.000110932 8.50392e-05 6.14483e-05);
    }
    inlet
    {
        type            turbulentMixingLengthDissipationRateInlet;
        mixingLength    0.01;
        phi             phi;
        k               k;
        value           uniform 0.000101881;
    }
    outlet
    {
        type            zeroGradient;
    }
}


// ************************************************************************* //
