/*--------------------------------*- C++ -*----------------------------------*\
  =========                 |
  \\      /  F ield         | OpenFOAM: The Open Source CFD Toolbox
   \\    /   O peration     | Website:  https://openfoam.org
    \\  /    A nd           | Version:  6
     \\/     M anipulation  |
\*---------------------------------------------------------------------------*/
FoamFile
{
    version     2.0;
    format      ascii;
    class       surfaceScalarField;
    location    "200";
    object      phi;
}
// * * * * * * * * * * * * * * * * * * * * * * * * * * * * * * * * * * * * * //

dimensions      [1 0 -1 0 0 0 0];

internalField   nonuniform List<scalar> 
852
(
-0.00316746
0.00321408
-0.00258114
-0.000586151
-0.00143512
-0.00114586
-0.00134026
-9.47541e-05
-0.00202835
0.000688199
-0.00276624
0.000737997
-0.00299385
0.000227711
-0.00272825
-0.000265484
-0.0023014
-0.000426752
-0.00188357
-0.000417725
-0.0015268
-0.000356665
-0.00121327
-0.00031342
-0.000903442
-0.000309718
-0.000521003
-0.00038233
-0.000518298
-0.000652579
0.000656944
-0.000619043
-3.3505e-05
-0.000411148
-0.000207852
-0.00029488
-0.000116219
-0.000301413
6.57299e-06
-0.000376275
7.49012e-05
-0.000459836
8.36e-05
-0.000442373
-1.74215e-05
-0.000301156
-0.000141168
-8.9897e-05
-0.000211205
0.000286761
-0.000376596
0.000536733
-0.000249919
0.000667235
-0.00013045
0.000761708
-9.44232e-05
0.000830944
-6.91951e-05
0.000890678
-5.97052e-05
0.000955217
-6.4511e-05
0.000819871
0.000135376
0.000824287
0.00126667
0.00207986
0.00340167
-0.00272103
0.00403775
-0.00178182
0.00357093
0.000372185
0.0023915
0.00186775
0.00070467
0.00242496
-0.00101125
0.00194378
-0.00201611
0.000739478
-0.00197884
-0.000463918
-0.00178934
-0.000607123
-0.0015848
-0.0005611
-0.00135794
-0.000540178
-0.00108712
-0.00058043
-0.000787714
-0.000681624
-0.0005138
-0.000792102
0.000182235
-0.000695976
0.000182294
0.000844353
-0.000177009
0.000751674
5.92301e-05
0.000447605
9.62837e-05
0.000356957
-2.54818e-05
0.000447863
-8.42242e-05
0.000457045
6.58298e-05
0.000319988
0.000220761
0.000177694
0.00012497
9.54697e-05
-5.88662e-05
0.000102241
-0.000217902
0.000177278
-0.000451558
0.000226507
-0.000299085
0.000228372
-0.00013226
0.000178522
-4.45273e-05
0.000114261
-4.9116e-06
0.000186536
-0.000131955
0.000397636
-0.000275568
0.000413436
0.000119619
0.00124869
0.00678883
-0.00454134
0.00843134
-0.00436343
0.0080974
-0.00144777
0.00698407
0.00148563
0.00540735
0.00344458
0.00357051
0.00426191
0.0015685
0.0039459
-0.000367053
0.00267513
-0.00134244
0.00051156
-0.00156605
-0.000383407
-0.0016034
-0.000523648
-0.00156747
-0.000576
-0.00148317
-0.000664628
-0.00137413
-0.000790558
-0.00126349
-0.000902624
-0.00103694
-0.000922415
-0.000854533
-0.000387251
0.00022152
-0.000538686
0.000210784
-0.000512536
7.02596e-05
-0.00043185
-0.000106032
-0.000236369
-0.000279567
0.000340072
-0.000510474
0.000561113
0.000686352
0.000627748
0.000410099
-4.12186e-05
-0.000340081
-0.000472131
-0.000516451
-0.000521152
-0.000468357
-0.000184681
-0.000847006
0.00010314
-0.000993
0.000265661
0.000272822
0.00603302
-0.0103632
0.00748755
-0.00581786
0.0069967
-0.000956816
0.0060909
0.00239153
0.00490577
0.00462981
0.0034627
0.00570509
0.00189488
0.00551382
0.000420589
0.00414951
-0.000739934
0.00167216
-0.00131247
0.000189228
-0.00158072
-0.000255301
-0.00173221
-0.000424404
-0.00184271
-0.000554024
-0.00195327
-0.000679882
-0.00208009
-0.000775687
-0.00221188
-0.000790512
-0.00248125
-0.000585044
-0.00212107
-0.000349806
-0.0017898
-0.000109625
-0.00158083
1.9513e-06
-0.00144344
-6.69903e-05
-0.00136337
-0.000185978
-0.00132819
-0.000314606
-0.00145994
-0.000378592
-0.00116384
-0.000296117
-0.000884733
-0.000279122
-0.000605632
-0.000279119
-0.000328254
-0.000277395
-5.80677e-05
-0.000270203
0.000194334
-0.000252418
0.000419295
-0.000224981
0.000610003
-0.000190732
0.000746966
-0.000136989
0.000654114
-9.17088e-05
0.000653078
0.000104275
0.000544561
0.000374236
0.000831697
0.00311006
-0.0132098
0.00385908
-0.00656678
0.00375381
-0.000851434
0.00342355
0.0027219
0.00281168
0.00524179
0.00196956
0.00654731
0.00103524
0.00644824
0.000198276
0.00498655
-0.000548583
0.00241908
-0.00111413
0.000754869
-0.00144944
8.0101e-05
-0.00166079
-0.000212938
-0.00182183
-0.000392879
-0.0019664
-0.0005352
-0.00210603
-0.000635942
-0.0022381
-0.000658322
-0.0022657
-0.000557329
-0.00220762
-0.000407758
-0.00204184
-0.000275279
-0.00183438
-0.000205374
-0.00166975
-0.000231489
-0.00154933
-0.00030627
-0.00147047
-0.000393333
-0.00140305
-0.000445882
-0.00124591
-0.00045312
-0.00106263
-0.000462274
-0.000873475
-0.000468145
-0.000687402
-0.000463339
-0.000512279
-0.000445201
-0.000348538
-0.000416038
-0.000189808
-0.000383596
-2.09892e-05
-0.000359443
0.000191718
-0.000349599
0.000465029
-0.000364939
0.000913888
-0.000344534
0.00150635
-0.000218214
0.00251877
-0.000180753
0.00265259
-0.000134087
0.00202301
0.000629314
0.00206399
0.000807457
-0.0137014
0.00120132
-0.00696053
0.00142608
-0.00107608
0.000957256
0.00319084
0.000605479
0.00559368
0.000284418
0.00686848
-3.32827e-05
0.00676602
-0.000287143
0.00524048
-0.000627822
0.00275982
-0.000974654
0.00110179
-0.00123142
0.000336967
-0.00141026
-3.39966e-05
-0.00154666
-0.000256369
-0.00166771
-0.000414033
-0.00178216
-0.000521383
-0.0018781
-0.000562257
-0.0019079
-0.000527411
-0.00186842
-0.000447115
-0.0017705
-0.000373074
-0.00164155
-0.000334192
-0.00152548
-0.000347436
-0.00143567
-0.000395955
-0.00137172
-0.000457156
-0.00131159
-0.00050588
-0.00123057
-0.000534016
-0.00114059
-0.000552134
-0.00105359
-0.000555014
-0.000979256
-0.000537557
-0.000923483
-0.000500859
-0.000885052
-0.000454361
-0.0008553
-0.000413252
-0.000819619
-0.000395039
-0.000751855
-0.000417294
-0.000615957
-0.000500783
-0.000303665
-0.000656791
0.00036527
-0.00088713
0.00125647
-0.00107195
0.00172718
-0.000604821
0.0014542
0.000902263
0.00356307
-0.000512846
-0.0128223
-0.000244243
-0.00722902
-0.000425681
-0.000894517
-0.00130526
0.00407054
-0.00129536
0.00558389
-0.00106235
0.00663556
-0.000828859
0.0065326
-0.000659873
0.00507155
-0.0006811
0.00278111
-0.000797624
0.0012184
-0.000915297
0.000454738
-0.00101429
6.51017e-05
-0.00109764
-0.000172911
-0.00117604
-0.000335518
-0.00125328
-0.000444028
-0.00131842
-0.000496998
-0.00134941
-0.000496303
-0.00133546
-0.000460943
-0.00128727
-0.00042114
-0.00122242
-0.000398911
-0.00116418
-0.000405547
-0.00112409
-0.000435925
-0.0011032
-0.000477915
-0.00109245
-0.000516514
-0.00108454
-0.000541802
-0.00108685
-0.000549701
-0.00111149
-0.00053026
-0.00117207
-0.000476861
-0.00127874
-0.000394087
-0.00143298
-0.00030002
-0.00162559
-0.000220563
-0.00183899
-0.000181572
-0.00205328
-0.000202949
-0.00224562
-0.000308406
-0.00238061
-0.000521769
-0.00238046
-0.00088726
-0.00201217
-0.00144023
-0.000739095
-0.00187789
0.000637443
-0.000474316
0.00425292
-0.0027852
-0.00962544
-0.00390207
-0.00611204
-0.00343695
-0.00135952
-0.00349675
0.00413045
-0.00275885
0.00484609
-0.00193428
0.00581107
-0.00123072
0.00582911
-0.000724572
0.00456547
-0.000486665
0.00254327
-0.00042061
0.00115243
-0.00042123
0.000455455
-0.000438125
8.20991e-05
-0.000462031
-0.000148899
-0.000495021
-0.00030242
-0.000538608
-0.000400329
-0.000584381
-0.000451109
-0.000618371
-0.000462193
-0.00063172
-0.000447469
-0.000627837
-0.000424896
-0.000617134
-0.000409486
-0.000612842
-0.00040971
-0.000623333
-0.000425305
-0.000650613
-0.000450508
-0.000691455
-0.000475549
-0.000744268
-0.000488869
-0.00081568
-0.000478174
-0.000921113
-0.000424714
-0.00108598
-0.000311889
-0.00134056
-0.000139395
-0.00170757
6.70823e-05
-0.00219998
0.000271931
-0.00281439
0.000432902
-0.00351718
0.000499897
-0.00425427
0.000428723
-0.00496454
0.00018854
-0.00566339
-0.000188388
-0.00651441
-0.000589181
-0.00741432
-0.000977962
-0.00632005
-0.00156857
-0.0018159
-0.00918485
-0.0153016
-0.00990328
-0.00675771
-0.00578243
9.70892e-06
-0.003677
0.00274075
-0.00225462
0.00438877
-0.00116103
0.00473558
-0.000339771
0.00374427
0.000121408
0.00208215
0.000299877
0.000974045
0.000366493
0.000388933
0.000396921
5.17704e-05
0.000409766
-0.000161642
0.000401556
-0.000294104
0.00037145
-0.000370113
0.000326316
-0.000405861
0.000277227
-0.000412986
0.000232519
-0.000402639
0.000193704
-0.000385954
0.000156395
-0.000372047
0.000113258
-0.00036644
5.81856e-05
-0.0003701
-1.16282e-05
-0.000380563
-9.42409e-05
-0.000392808
-0.00018492
-0.000398067
-0.000278819
-0.000384158
-0.000370441
-0.000332982
-0.000456072
-0.000226154
-0.00053854
-5.68264e-05
-0.000634007
0.000162644
-0.000763281
0.000401291
-0.000935204
0.000604901
-0.00115671
0.000721472
-0.00145049
0.000722565
-0.00186437
0.000602486
-0.00242213
0.00036943
-0.0031064
9.5149e-05
-0.00378448
-0.000299825
-0.00343958
-0.00191342
-0.00498831
-0.00812425
0.00163432
-0.00577329
-0.00234115
-0.00352021
0.000487754
-0.00185494
0.00272359
-0.000520257
0.00340096
0.000579695
0.00264438
0.00118546
0.00147646
0.00144062
0.000718971
0.00154861
0.000281034
0.0015906
9.87669e-06
0.00159114
-0.000162078
0.00155645
-0.000259315
0.00149451
-0.00030807
0.00141484
-0.000326081
0.00132718
-0.00032521
0.00123885
-0.000314186
0.0011529
-0.000299884
0.00106826
-0.000287276
0.000981116
-0.000279162
0.000887171
-0.00027602
0.000783239
-0.000276496
0.000668389
-0.000277822
0.000545761
-0.000275308
0.000423658
-0.00026193
0.000317658
-0.000226864
0.000248255
-0.000156644
0.000231777
-4.02489e-05
0.000273889
0.000120626
0.000362289
0.00031298
0.000479674
0.000487599
0.000605581
0.000595642
0.000725468
0.00060275
0.000843309
0.000484717
0.0009955
0.000217311
0.00126275
-0.000172036
0.00168666
-0.000723663
0.00165376
-0.00188046
-0.00327367
-0.00149491
0.00312384
-0.00234478
-0.00149118
-0.00202863
0.00017169
-0.000825768
0.0015208
0.000657649
0.00191762
0.00192893
0.00137318
0.002629
0.000776479
0.00296339
0.000384667
0.00309784
0.000146684
0.00311507
-7.25928e-06
0.00304504
-9.19469e-05
0.00292744
-0.000141618
0.00278511
-0.000165638
0.00263294
-0.0001738
0.00248075
-0.000172905
0.00233397
-0.000167298
0.00219419
-0.000159981
0.00205999
-0.000152952
0.00192817
-0.00014721
0.00179511
-0.000142831
0.00165795
-0.000139196
0.00151547
-0.000135207
0.00136957
-0.000129273
0.00122701
-0.000119236
0.00110234
-0.000102063
0.00101942
-7.36026e-05
0.00100832
-2.90353e-05
0.00108236
4.668e-05
0.0012505
0.000144937
0.00149725
0.000240934
0.00178645
0.000306528
0.00207626
0.000313021
0.00232327
0.000237783
0.00247969
6.09632e-05
0.00250057
-0.000192836
0.00228836
-0.000511383
0.00142032
-0.00101235
-0.00177926
0.00354097
-0.00313357
-1.7608e-05
-0.00152517
-0.00137237
0.00013064
0.00203182
0.00338934
0.00415037
0.0045195
0.00465044
0.00462718
0.00451906
0.00436117
0.00417922
0.00398913
0.00380001
0.00361661
0.00344069
0.00327199
0.00310929
0.00295125
0.00279718
0.00264749
0.00250419
0.00237146
0.0022565
0.0021707
0.00213022
0.00216636
0.00230176
0.00253404
0.00283262
0.00313816
0.00336875
0.00342259
0.0032226
0.00270399
0.00168463
)
;

boundaryField
{
    floor
    {
        type            calculated;
        value           nonuniform List<scalar> 
29
(
0
0
0
0
0
0
0
0
0
0
0
0
0
0
0
0
0
0
0
0
-4.38289e-06
-1.09264e-05
-1.70926e-05
-1.43206e-05
-2.59593e-06
-4.34229e-06
-1.03447e-05
-1.11717e-05
-1.02393e-05
)
;
    }
    ceiling
    {
        type            calculated;
        value           nonuniform List<scalar> 
43
(
2.89404e-05
1.60796e-05
7.99373e-06
1.6478e-05
1.89817e-05
1.78799e-05
1.65294e-05
1.57369e-05
1.55478e-05
1.56338e-05
1.5839e-05
1.61002e-05
1.62719e-05
1.63728e-05
1.64119e-05
1.63957e-05
1.63289e-05
1.62154e-05
1.60583e-05
1.58598e-05
1.56199e-05
1.53365e-05
1.50049e-05
1.46176e-05
1.41657e-05
1.36396e-05
1.30311e-05
1.23385e-05
1.15699e-05
1.06576e-05
9.65486e-06
8.75259e-06
8.04798e-06
7.56037e-06
7.27916e-06
7.20513e-06
7.22412e-06
7.29343e-06
7.07354e-06
8.04408e-06
6.57831e-06
4.80427e-06
5.49312e-06
)
;
    }
    sWall
    {
        type            calculated;
        value           uniform -0.000158853;
    }
    nWall
    {
        type            calculated;
        value           nonuniform List<scalar> 6(-4.12444e-05 -4.4917e-05 -5.24337e-05 -6.08183e-05 -7.40425e-05 -0.000102617);
    }
    sideWalls
    {
        type            empty;
        value           nonuniform 0();
    }
    glass1
    {
        type            calculated;
        value           nonuniform List<scalar> 9(-4.64549e-05 -0.000132297 -0.000167506 -0.000211026 -0.000263425 -0.000315731 -0.000366089 -0.000411601 -0.000447051);
    }
    glass2
    {
        type            calculated;
        value           nonuniform List<scalar> 2(-0.000251238 -0.000267114);
    }
    sun
    {
        type            calculated;
        value           uniform 0;
    }
    heatsource1
    {
        type            calculated;
        value           nonuniform List<scalar> 3(2.03341e-07 2.0338e-07 2.03682e-07);
    }
    heatsource2
    {
        type            calculated;
        value           nonuniform List<scalar> 4(5.11622e-08 5.12686e-08 0 0);
    }
    Table_master
    {
        type            calculated;
        value           nonuniform List<scalar> 9(-1.53779e-07 -1.53866e-07 -1.53931e-07 -1.5401e-07 -1.54118e-07 -1.54062e-07 -1.53942e-07 -1.53867e-07 -1.53788e-07);
    }
    Table_slave
    {
        type            calculated;
        value           nonuniform List<scalar> 9(1.53004e-07 1.53108e-07 1.53196e-07 1.53283e-07 1.53369e-07 1.53387e-07 1.53324e-07 1.53255e-07 1.53198e-07);
    }
    inlet
    {
        type            calculated;
        value           uniform -0.000267663;
    }
    outlet
    {
        type            calculated;
        value           nonuniform List<scalar> 2(-0.0034109 0.00665861);
    }
}


// ************************************************************************* //
