/*--------------------------------*- C++ -*----------------------------------*\
  =========                 |
  \\      /  F ield         | OpenFOAM: The Open Source CFD Toolbox
   \\    /   O peration     | Website:  https://openfoam.org
    \\  /    A nd           | Version:  6
     \\/     M anipulation  |
\*---------------------------------------------------------------------------*/
FoamFile
{
    version     2.0;
    format      ascii;
    class       surfaceScalarField;
    location    "1100";
    object      phi;
}
// * * * * * * * * * * * * * * * * * * * * * * * * * * * * * * * * * * * * * //

dimensions      [1 0 -1 0 0 0 0];

internalField   nonuniform List<scalar> 
852
(
-0.00200095
0.00203221
-0.000427527
-0.0015726
0.00131728
-0.00174412
0.00172729
-0.000408829
0.0010381
0.00069073
-0.00014595
0.00118541
-0.00110628
0.000960469
-0.00157019
0.000463953
-0.0016208
5.06343e-05
-0.00153821
-8.2566e-05
-0.00141181
-0.000126398
-0.00123029
-0.000181508
-0.000962182
-0.000268104
-0.000571551
-0.000390627
-0.000574305
0.000150332
-0.000152769
8.4001e-05
6.63717e-05
4.01926e-05
4.38483e-05
3.356e-05
6.66809e-06
4.38677e-05
-1.02745e-05
6.7749e-05
-2.38443e-05
0.000105609
-3.78189e-05
0.000146779
-4.11237e-05
0.000184797
-3.79706e-05
0.000217448
-3.26007e-05
0.000239151
-2.16537e-05
0.000243306
-4.10592e-06
0.000220932
2.24258e-05
0.000172452
4.85389e-05
0.000133563
3.89588e-05
0.00011739
1.62565e-05
5.06461e-05
6.68302e-05
-0.000171879
0.000222606
-0.000174382
0.00180202
0.000318784
0.00379253
-0.00356263
0.0042876
-0.0022388
0.00397855
-9.92865e-05
0.00323372
0.0014363
0.00220584
0.00221408
0.000900371
0.00226644
-0.000342023
0.00170667
-0.00111421
0.000822877
-0.0013401
0.000143335
-0.00138543
-8.10692e-05
-0.00134888
-0.000218063
-0.00124443
-0.00037255
-0.00106533
-0.000569729
-0.000844938
-0.000794697
6.13307e-05
-0.000906307
6.13135e-05
-0.000206816
4.73194e-05
-0.000265728
0.000125322
-0.000354265
0.000132419
-0.000424573
7.70075e-05
-0.00045212
1.73044e-05
-0.000452871
-2.30586e-05
-0.000428149
-6.24974e-05
-0.000421156
-4.80683e-05
-0.000430499
-2.85758e-05
-0.000453411
-9.63076e-06
-0.000484563
9.56025e-06
-0.000517103
2.84998e-05
-0.00054566
5.10517e-05
-0.000571126
7.40797e-05
-0.000565689
3.35987e-05
-0.000417655
-0.000131701
-0.000244246
-0.000106497
-1.01891e-05
-1.13677e-05
-0.000191122
0.00586442
-0.0054341
0.00686402
-0.0045621
0.00651333
-0.001888
0.00578476
0.000629437
0.00479162
0.00242973
0.00359409
0.00341202
0.00229102
0.00356987
0.000982265
0.00301565
-0.000190927
0.00199615
-0.000883892
0.000836299
-0.00118257
0.000217593
-0.00131839
-8.22563e-05
-0.00137495
-0.000316001
-0.00139577
-0.000548905
-0.00140626
-0.000784199
-0.00131297
-0.00099959
-0.00125163
-0.000758691
0.000794527
-0.000883523
0.000250177
-0.000911082
0.000159989
-0.000931041
9.69699e-05
-0.000945915
3.21828e-05
-0.000919846
-4.91168e-05
-0.000982141
-0.00103
-0.00105837
-0.0010678
-0.00105802
-0.00102931
-0.000978046
-0.000903752
-0.000869942
-0.000502328
-0.000499256
-0.000181668
-0.000427094
7.50915e-05
-0.00026806
-0.000126283
0.00396754
-0.00925362
0.00483928
-0.00543384
0.00461838
-0.00166711
0.00428125
0.000966598
0.00376877
0.00294234
0.00303311
0.00414792
0.00215722
0.00444599
0.00122807
0.00394494
0.00031947
0.00290478
-0.000441716
0.00159744
-0.000879733
0.000655582
-0.00114686
0.00018485
-0.00133473
-0.000128151
-0.00150867
-0.000374974
-0.00171109
-0.000581765
-0.00197178
-0.00073889
-0.00247038
-0.000753001
-0.00230856
-0.000175522
-0.00165516
0.000141156
-0.00151432
0.000109361
-0.00149431
0.000139997
-0.00150912
0.000111791
-0.00153449
5.75816e-05
-0.00157976
-3.81808e-06
-0.00155825
-2.16133e-05
-0.00152166
-3.66985e-05
-0.00146932
-5.24464e-05
-0.00140371
-6.57115e-05
-0.0013232
-8.06092e-05
-0.00122307
-0.000100233
-0.00109523
-0.000127947
-0.000920272
-0.000175057
-0.000638725
-0.000281648
-0.000630008
-0.000507924
-0.000408408
-0.000648644
6.95806e-05
-0.000745997
-7.17949e-05
0.00177523
-0.0108428
0.00217419
-0.00583278
0.0023092
-0.0018021
0.00229905
0.000976792
0.00209854
0.00314295
0.0017776
0.00446903
0.00136705
0.00485671
0.000893193
0.00441888
0.00039065
0.0034073
-0.000137738
0.00212574
-0.000533658
0.00105146
-0.000799315
0.000450474
-0.0010004
7.29098e-05
-0.00117303
-0.000202354
-0.00135239
-0.000402416
-0.00156845
-0.000522824
-0.00183427
-0.000487167
-0.00176294
-0.000246837
-0.00158056
-4.11899e-05
-0.00149085
1.96727e-05
-0.00141193
6.10989e-05
-0.0013563
5.61842e-05
-0.00132042
2.17291e-05
-0.00130376
-2.04395e-05
-0.001275
-5.03271e-05
-0.00123867
-7.29893e-05
-0.00119786
-9.32106e-05
-0.00115159
-0.000111941
-0.00110005
-0.000132101
-0.00104314
-0.0001571
-0.000979276
-0.000191761
-0.00090735
-0.000246937
-0.000849009
-0.000339944
-0.000896647
-0.00046024
-0.00101173
-0.000533517
-0.00128836
-0.000469321
-0.00111824
-0.000241876
-0.000980936
-0.00013746
-0.00077354
-0.000207557
-0.000779592
0.000247717
-0.0108669
0.000500679
-0.00608569
0.000745438
-0.00204679
0.000430534
0.00129177
0.000388254
0.00318535
0.000445692
0.00441174
0.000465569
0.00483696
0.000404153
0.00448033
0.000280434
0.00353097
6.56134e-05
0.00234047
-0.000186653
0.00130365
-0.000385943
0.000649721
-0.000555148
0.000242081
-0.000711625
-4.59031e-05
-0.000871031
-0.000243028
-0.00104556
-0.000348307
-0.00119472
-0.000338012
-0.00121692
-0.000224625
-0.00115594
-0.00010216
-0.0011001
-3.61539e-05
-0.00103942
4.40729e-07
-0.000986182
2.96595e-06
-0.000946909
-1.75144e-05
-0.000920273
-4.7038e-05
-0.00089547
-7.50875e-05
-0.000868145
-0.000100269
-0.000838124
-0.000123186
-0.000805249
-0.000144767
-0.000770253
-0.000167049
-0.000734577
-0.000192728
-0.000700643
-0.000225648
-0.000675342
-0.000272191
-0.000677582
-0.000337657
-0.000729115
-0.000408662
-0.000821031
-0.000441557
-0.000897229
-0.00039308
-0.000834321
-0.000304744
-0.0006605
-0.000311241
-0.000435238
-0.00043278
-0.00122109
-0.000579015
-0.0100283
-0.000645995
-0.00601863
-0.000879514
-0.00181318
-0.00142337
0.00183572
-0.00117864
0.00294072
-0.000711266
0.00394447
-0.000294127
0.0044199
-5.17215e-06
0.0041914
0.000176472
0.00334927
0.000235357
0.00228149
0.000172517
0.00136642
7.9109e-05
0.000743076
-2.16955e-05
0.000342842
-0.000139266
7.16264e-05
-0.000270761
-0.000111567
-0.000405676
-0.000213419
-0.000512233
-0.000231474
-0.000556088
-0.000180781
-0.000546169
-0.000112083
-0.000520029
-6.229e-05
-0.000486749
-3.28282e-05
-0.000456849
-2.69154e-05
-0.000435069
-3.92668e-05
-0.000420301
-6.17695e-05
-0.000407967
-8.73789e-05
-0.00039507
-0.000113118
-0.000380527
-0.000137677
-0.000364216
-0.000161026
-0.000346775
-0.000184437
-0.000329614
-0.000209836
-0.00031545
-0.00023976
-0.0003101
-0.00027749
-0.000323131
-0.000324579
-0.000358855
-0.000372891
-0.000401143
-0.000399224
-0.000408998
-0.000385181
-0.000357379
-0.00035632
-0.000257417
-0.000411164
-6.2611e-05
-0.000627547
-0.00129041
-0.00242311
-0.00731301
-0.0035762
-0.00486545
-0.00340816
-0.00198113
-0.00324106
0.00166869
-0.0024932
0.00219295
-0.00160514
0.0030565
-0.000830513
0.00364533
-0.000250636
0.00361154
0.000171517
0.00292707
0.000437306
0.00201563
0.000544149
0.00125951
0.0005654
0.000721766
0.000543824
0.000364367
0.000486453
0.000128947
0.000401117
-2.62779e-05
0.000305246
-0.000117592
0.000223015
-0.000149283
0.000175438
-0.000133236
0.000160323
-9.69935e-05
0.000161401
-6.33836e-05
0.000169466
-4.09002e-05
0.000176662
-3.41057e-05
0.000178857
-4.14448e-05
0.000176093
-5.89762e-05
0.000170824
-8.20693e-05
0.000165098
-0.000107342
0.000159879
-0.000132401
0.000155201
-0.000156288
0.000150791
-0.000179966
0.000145815
-0.000204799
0.000138454
-0.00023234
0.000125323
-0.000264303
0.000102134
-0.000301337
6.91799e-05
-0.000339886
4.06548e-05
-0.000370651
4.36668e-05
-0.000388147
0.000100846
-0.000413457
0.00020902
-0.000519297
0.000365785
-0.000784273
-0.000960286
-0.00701855
-0.0119033
-0.00796582
-0.00591851
-0.00514639
-0.00115066
-0.00345415
0.000500793
-0.00214769
0.00175011
-0.00109073
0.00258842
-0.000291123
0.00281195
0.000314452
0.00232146
0.000720464
0.00160956
0.00095005
0.00102987
0.00106526
0.000606503
0.0011127
0.00031687
0.00111464
0.000126957
0.00108071
7.58405e-06
0.00102684
-6.3774e-05
0.000971661
-9.41608e-05
0.000929009
-9.06381e-05
0.000901115
-6.91484e-05
0.000882652
-4.49613e-05
0.000868705
-2.69835e-05
0.000854964
-2.03812e-05
0.000837996
-2.44778e-05
0.000817197
-3.81613e-05
0.000793619
-5.84598e-05
0.000768498
-8.21746e-05
0.000742346
-0.000106191
0.000714509
-0.000128385
0.000685229
-0.000150616
0.000654497
-0.000173998
0.000621577
-0.000199352
0.000584922
-0.000227584
0.000542685
-0.000259038
0.000494828
-0.000291972
0.00044595
-0.000321721
0.000402431
-0.00034458
0.000361986
-0.000372966
0.000307769
-0.000465038
0.000250976
-0.00072744
-0.00075004
-0.00622011
0.000672147
-0.00496428
-0.00240638
-0.00351497
-0.000948411
-0.0021811
0.000416314
-0.00104206
0.00144943
-0.000103209
0.00187312
0.000626133
0.0015921
0.00111668
0.00111898
0.00141896
0.000727554
0.00159221
0.000433206
0.00168237
0.000226661
0.00171819
9.1083e-05
0.00171532
1.03855e-05
0.00168799
-3.6509e-05
0.0016474
-5.36477e-05
0.00160489
-4.81929e-05
0.0015671
-3.14339e-05
0.00153519
-1.31124e-05
0.00150755
5.96243e-07
0.00148092
6.21006e-06
0.00145238
4.04397e-06
0.00142011
-5.89068e-06
0.00138321
-2.15454e-05
0.00134195
-4.08744e-05
0.00129723
-6.14236e-05
0.0012479
-7.89802e-05
0.00119473
-9.73739e-05
0.00113817
-0.000117356
0.00107806
-0.000139168
0.00101371
-0.000163162
0.000944125
-0.000189381
0.000868739
-0.000216522
0.000787758
-0.000240683
0.000697914
-0.000254683
0.000574075
-0.000249079
0.000327449
-0.000218369
-0.000166208
-0.000233742
-0.000924842
-0.000460005
0.00110377
-0.00175766
-0.00110851
-0.00206948
-0.000636322
-0.00171151
5.84421e-05
-0.000771571
0.000509546
0.000311171
0.000790397
0.00116629
0.000736979
0.00171085
0.00057441
0.00204086
0.000397525
0.00221695
0.000257074
0.00228719
0.000156373
0.00229001
8.82035e-05
0.00225531
4.50242e-05
0.00219534
2.33793e-05
0.00212763
1.39855e-05
0.00206654
1.28086e-05
0.0020182
1.6818e-05
0.00198234
2.26696e-05
0.001955
2.78577e-05
0.00192993
3.12223e-05
0.00190338
3.05461e-05
0.00187081
2.6662e-05
0.00182922
2.00498e-05
0.00177706
1.13098e-05
0.00171498
7.0096e-07
0.00164674
-1.06769e-05
0.00157269
-2.32458e-05
0.00149232
-3.68985e-05
0.00140508
-5.18523e-05
0.00131052
-6.8512e-05
0.00120868
-8.74678e-05
0.00110156
-0.000109331
0.000995355
-0.000134413
0.00090354
-0.000162811
0.000852719
-0.000198208
0.000888109
-0.000253713
0.000933605
-0.000279197
9.18362e-07
0.00368767
0.000581361
0.00162232
0.000443865
-0.000259827
-0.000268233
0.000174351
0.000896514
0.00156506
0.00207142
0.00240154
0.00259204
0.00268279
0.00270637
0.00268773
0.0026483
0.00260018
0.00255141
0.002507
0.00246869
0.00243572
0.00240623
0.00237618
0.00234239
0.00230214
0.00225334
0.00219412
0.00212376
0.00204108
0.00194499
0.0018342
0.001707
0.00156108
0.0013935
0.001201
0.000980169
0.00072388
0.000411797
7.32864e-05
)
;

boundaryField
{
    floor
    {
        type            calculated;
        value           nonuniform List<scalar> 
29
(
0
0
0
0
0
0
0
0
0
0
0
0
0
0
0
0
0
0
0
0
2.57602e-06
6.62546e-06
1.03209e-05
1.51518e-05
2.75784e-06
2.48064e-06
6.76467e-06
1.15194e-05
1.37433e-05
)
;
    }
    ceiling
    {
        type            calculated;
        value           nonuniform List<scalar> 
43
(
0.000205243
0.000186386
6.28872e-05
7.01404e-05
6.81766e-05
6.70377e-05
6.70054e-05
6.82528e-05
6.84488e-05
6.80443e-05
6.73914e-05
6.65453e-05
6.55742e-05
6.4562e-05
6.35919e-05
6.27253e-05
6.20166e-05
6.14864e-05
6.11202e-05
6.0884e-05
6.07338e-05
6.06249e-05
6.05261e-05
6.0412e-05
6.02742e-05
6.01178e-05
5.99543e-05
5.97391e-05
5.95099e-05
5.92728e-05
5.90289e-05
5.87827e-05
5.85432e-05
5.83261e-05
5.81581e-05
5.80782e-05
5.81351e-05
5.84174e-05
5.93566e-05
6.50546e-05
2.35614e-05
1.93848e-05
2.84457e-05
)
;
    }
    sWall
    {
        type            calculated;
        value           uniform -3.71692e-05;
    }
    nWall
    {
        type            calculated;
        value           nonuniform List<scalar> 6(5.89097e-06 6.29264e-06 6.74838e-06 8.63126e-06 7.88399e-06 9.18669e-06);
    }
    sideWalls
    {
        type            empty;
        value           nonuniform 0();
    }
    glass1
    {
        type            calculated;
        value           nonuniform List<scalar> 9(-3.02941e-05 -8.76273e-05 -0.000111339 -0.000147968 -0.000185974 -0.000223573 -0.000259513 -0.000292046 -0.000317937);
    }
    glass2
    {
        type            calculated;
        value           nonuniform List<scalar> 2(3.57012e-05 4.07679e-05);
    }
    sun
    {
        type            calculated;
        value           uniform 0;
    }
    heatsource1
    {
        type            calculated;
        value           nonuniform List<scalar> 3(1.98399e-07 1.98473e-07 1.98633e-07);
    }
    heatsource2
    {
        type            calculated;
        value           nonuniform List<scalar> 4(4.96952e-08 4.98254e-08 0 0);
    }
    Table_master
    {
        type            calculated;
        value           nonuniform List<scalar> 9(-1.49515e-07 -1.49475e-07 -1.49435e-07 -1.49398e-07 -1.49363e-07 -1.49325e-07 -1.49285e-07 -1.49237e-07 -1.49153e-07);
    }
    Table_slave
    {
        type            calculated;
        value           nonuniform List<scalar> 9(1.48732e-07 1.48742e-07 1.48755e-07 1.48772e-07 1.48793e-07 1.48818e-07 1.48849e-07 1.48888e-07 1.48911e-07);
    }
    inlet
    {
        type            calculated;
        value           uniform -0.000370429;
    }
    outlet
    {
        type            calculated;
        value           nonuniform List<scalar> 2(-0.00385514 0.00292048);
    }
}


// ************************************************************************* //
