/*--------------------------------*- C++ -*----------------------------------*\
  =========                 |
  \\      /  F ield         | OpenFOAM: The Open Source CFD Toolbox
   \\    /   O peration     | Website:  https://openfoam.org
    \\  /    A nd           | Version:  6
     \\/     M anipulation  |
\*---------------------------------------------------------------------------*/
FoamFile
{
    version     2.0;
    format      ascii;
    class       surfaceScalarField;
    location    "1500";
    object      phi;
}
// * * * * * * * * * * * * * * * * * * * * * * * * * * * * * * * * * * * * * //

dimensions      [1 0 -1 0 0 0 0];

internalField   nonuniform List<scalar> 
852
(
-0.00293589
0.00299215
-0.00397316
0.00103727
-0.00476162
0.000788462
-0.00537876
0.000617141
-0.00579542
0.000416659
-0.00598901
0.000193583
-0.00593767
-5.13362e-05
-0.00562373
-0.000313945
-0.00505906
-0.000564661
-0.00429508
-0.000763981
-0.0034121
-0.000882983
-0.00249882
-0.000913283
-0.00163001
-0.000868809
-0.000827684
-0.000802323
-0.000826245
-0.000674037
0.000676724
-0.000341549
-0.000332488
0.000267049
-0.000608598
0.000739679
-0.000472631
0.00105297
-0.00031329
0.00124747
-0.000194501
0.00135289
-0.000105416
0.001405
-5.21114e-05
0.00143419
-2.91924e-05
0.00145176
-1.75678e-05
0.00146145
-9.69408e-06
0.00146447
-3.01523e-06
0.00145861
5.86068e-06
0.00143543
2.3178e-05
0.00137242
6.30056e-05
0.00123163
0.000140792
0.000998381
0.00023325
0.000706781
0.000291599
0.000710393
-0.00209434
0.00523796
-0.00309872
0.00204164
-0.00390411
0.00159386
-0.00450801
0.00122104
-0.00491475
0.000823403
-0.00511083
0.000389665
-0.00507104
-9.11298e-05
-0.00478065
-0.000604327
-0.00426256
-0.00108275
-0.00357771
-0.00144883
-0.00280807
-0.00165263
-0.0020342
-0.00168715
-0.00132847
-0.00157454
-0.000779515
-0.00135128
-0.000576096
-0.00102966
-7.94582e-05
-0.000496689
-7.95094e-05
0.000382076
0.000302296
0.000806034
-0.000756447
0.0010541
-0.000856667
0.00126263
-0.000681157
0.00141743
-0.000468091
0.00150768
-0.000284754
0.00152151
-0.00011924
0.00152529
-5.58988e-05
0.0015298
-3.36951e-05
0.00153359
-2.13623e-05
0.00153605
-1.21507e-05
0.0015372
-4.17103e-06
0.00153637
6.69818e-06
0.00152973
2.98135e-05
0.00148847
0.000104266
0.00131326
0.000316004
0.00101049
0.000536022
0.000628496
0.00067359
0.00134819
-0.00146576
0.00693538
-0.00232849
0.00290437
-0.00303671
0.00230207
-0.00354786
0.00173219
-0.00389786
0.00117341
-0.00406888
0.000560687
-0.00401633
-0.000143687
-0.00371768
-0.000902973
-0.00321731
-0.00158313
-0.00259075
-0.00207539
-0.00191967
-0.00232371
-0.00126846
-0.00233837
-0.000688022
-0.00215497
-0.000230274
-0.00180903
7.46372e-05
-0.00133458
0.000276407
-0.000698459
0.000196898
0.00148336
-0.00117306
0.00169719
-0.000970272
0.00167677
-0.000836251
0.00167768
-0.000682065
0.00169951
-0.000489918
0.00171067
-0.000295912
0.00159158
0.00153583
0.00150229
0.00148108
0.00146909
0.00146507
0.00147192
0.00150189
0.0016063
0.00132533
0.000596974
0.000983934
0.000877422
0.000549746
0.00110778
0.00191212
-0.00102377
0.00825907
-0.00170545
0.00358606
-0.0021665
0.00276312
-0.00249365
0.00205933
-0.00271751
0.00139726
-0.00280624
0.000649418
-0.00268518
-0.00026474
-0.00234109
-0.00124706
-0.00185688
-0.00206735
-0.0013159
-0.00261636
-0.000785434
-0.00285417
-0.000301435
-0.00282237
0.000118186
-0.0025746
0.000468153
-0.00215899
0.000775311
-0.00164173
0.00114418
-0.00106733
0.00190282
-0.000561746
0.00244026
-0.000530173
0.00203765
-0.000770444
0.00191137
-0.000843988
0.00180256
-0.000727443
0.00171017
-0.000589672
0.0016604
-0.000440152
0.00164123
-0.000276741
0.00175529
-0.000114211
0.00182812
-7.2986e-05
0.00188749
-5.95155e-05
0.00193374
-4.6407e-05
0.00195293
-1.93391e-05
0.00192365
2.91194e-05
0.00182096
0.000102541
0.00161232
0.000208487
0.00124362
0.00036855
0.0011126
0.000727994
0.00082575
0.00116427
0.000388016
0.00154551
0.00231874
-0.000717948
0.00933491
-0.00123443
0.00410254
-0.00132106
0.00284975
-0.00137264
0.00211092
-0.00139395
0.00141857
-0.00130601
0.000561478
-0.00102767
-0.000543081
-0.000619853
-0.00165488
-0.00018817
-0.00249903
0.000200736
-0.00300527
0.000519733
-0.00317317
0.000765989
-0.00306862
0.000952236
-0.00276084
0.00110679
-0.00231354
0.00126016
-0.00179511
0.00146394
-0.0012711
0.00174823
-0.000846036
0.00188635
-0.000668299
0.00178921
-0.000673301
0.00161513
-0.00066991
0.00146927
-0.00058158
0.00135058
-0.000470981
0.00126973
-0.000359308
0.00123986
-0.000246863
0.00128196
-0.000156314
0.00133022
-0.000121252
0.00138344
-0.000112734
0.00143823
-0.000101195
0.00148406
-6.51656e-05
0.00150129
1.18821e-05
0.0014692
0.000134636
0.00137582
0.000301864
0.00122189
0.000522482
0.00108745
0.00086244
0.000943052
0.00130866
0.000623348
0.00186522
0.000550252
0.00239184
-0.000970802
0.00152085
-0.00143311
0.000462103
-0.00138613
-0.000626773
0.0103685
-0.000980467
0.00445624
-0.000553484
0.00242276
-0.000187939
0.00174538
9.33345e-05
0.0011373
0.000481456
0.000173357
0.000978544
-0.00104017
0.00139908
-0.00207542
0.00168544
-0.00278538
0.00183306
-0.00315289
0.00187113
-0.00321124
0.00182812
-0.00302561
0.00173411
-0.00266683
0.00162521
-0.00220464
0.0015345
-0.00170441
0.00148769
-0.00122429
0.00147894
-0.000837285
0.00142474
-0.000614095
0.00128106
-0.000529619
0.00109136
-0.000480213
0.000924802
-0.000415022
0.000798109
-0.000344288
0.000717241
-0.00027844
0.000689728
-0.00021935
0.00071245
-0.000179036
0.000761197
-0.000169999
0.00082517
-0.000176707
0.00089967
-0.000175695
0.000979141
-0.000144637
0.0010519
-6.08757e-05
0.00110018
8.6352e-05
0.00111946
0.000282592
0.00111773
0.000524203
0.00114227
0.000837908
0.0012407
0.00121023
0.00142619
0.00167973
0.00186817
0.00194985
0.00212807
0.00126095
0.00174008
0.000850096
0.000410514
-0.000681512
0.011501
-0.000560619
0.00433534
0.000575314
0.00128683
0.00137047
0.000950225
0.00205425
0.000453514
0.00275418
-0.000526572
0.00329838
-0.00158437
0.00358588
-0.00236292
0.00362113
-0.00282064
0.00344947
-0.00298122
0.00313283
-0.0028946
0.00273234
-0.00262513
0.00230121
-0.0022357
0.00188613
-0.00178956
0.00152258
-0.00134086
0.00122677
-0.00092848
0.000997264
-0.000607775
0.000798973
-0.000415803
0.000599235
-0.000329881
0.000409305
-0.000290282
0.000254198
-0.000259916
0.000143646
-0.000233736
7.88128e-05
-0.000213607
5.99672e-05
-0.000200504
8.0374e-05
-0.000199443
0.000125119
-0.000214744
0.000184815
-0.000236402
0.000258355
-0.000249235
0.000349927
-0.000236209
0.000464531
-0.00017548
0.000590122
-3.92397e-05
0.000715983
0.000156731
0.000852672
0.000387514
0.00103818
0.000652398
0.00132084
0.000927565
0.00176179
0.00123878
0.00242762
0.00128403
0.00296778
0.000720791
0.00299263
0.000825238
0.00346443
0.00259485
0.00941082
0.00329946
0.00363073
0.00370171
0.000884583
0.00439009
0.000261844
0.00520377
-0.00036016
0.00583341
-0.00115621
0.00605552
-0.00180648
0.00589844
-0.00220585
0.00543879
-0.00236098
0.00476869
-0.00231112
0.00398346
-0.00210937
0.00316717
-0.00180883
0.0023813
-0.00144983
0.00167484
-0.00108311
0.00108063
-0.000746644
0.000605172
-0.000453024
0.000253834
-0.000256438
-1.77475e-06
-0.000160194
-0.000198253
-0.000133403
-0.000352319
-0.000136217
-0.000468685
-0.000143549
-0.000549621
-0.0001528
-0.000598701
-0.000164527
-0.000619568
-0.000179637
-0.00061887
-0.00020014
-0.000606741
-0.000226873
-0.000589038
-0.000254106
-0.000564867
-0.000273406
-0.000525888
-0.000275189
-0.000453354
-0.000248013
-0.000318145
-0.000174449
-0.000135766
-2.56479e-05
7.88054e-05
0.000172943
0.000349091
0.000382113
0.000686714
0.000589942
0.00113238
0.000793118
0.00162325
0.000793158
0.00183255
0.000511485
0.0010893
0.00156849
0.00480333
0.00996438
0.0135871
0.0124559
0.00201571
0.0117485
0.000969302
0.0110928
0.000295504
0.0102134
-0.00027675
0.00906886
-0.000661984
0.00776392
-0.000900909
0.00639274
-0.000989803
0.00502888
-0.000947262
0.00373936
-0.000819854
0.00257691
-0.000646378
0.00156243
-0.000435352
0.000720369
-0.000241047
5.76743e-05
-8.39494e-05
-0.000409794
1.44443e-05
-0.00069904
3.28088e-05
-0.000878393
1.91589e-05
-0.00100538
-6.41394e-06
-0.00110726
-3.43427e-05
-0.00119032
-6.049e-05
-0.00125723
-8.58883e-05
-0.00131169
-0.000110067
-0.001358
-0.000133324
-0.00140275
-0.000155389
-0.00145437
-0.000175258
-0.00152045
-0.000188024
-0.00160818
-0.000185671
-0.00172621
-0.000157161
-0.00188499
-8.92285e-05
-0.00209015
3.07088e-05
-0.00232846
0.000212657
-0.00262603
0.000470518
-0.00306483
0.000820912
-0.00373694
0.00126205
-0.00470904
0.00176522
-0.00609723
0.00218135
-0.00778345
0.0021977
-0.00731033
0.00109536
-0.00223091
0.00467935
0.00351348
0.00379509
0.00185355
0.00417853
-8.79272e-05
0.00418528
-0.0002835
0.00378168
-0.00025839
0.00315122
-0.000270451
0.00240033
-0.000238906
0.00159691
-0.000143843
0.000783294
-6.24039e-06
1.13222e-05
0.000125593
-0.000628799
0.000204769
-0.00108197
0.000212129
-0.00137016
0.000204233
-0.00153456
0.00017885
-0.00163751
0.000135759
-0.00171117
9.28142e-05
-0.0017725
5.49141e-05
-0.00183038
2.35432e-05
-0.00188961
-1.25832e-06
-0.00195193
-2.35722e-05
-0.0020181
-4.38942e-05
-0.00209
-6.14242e-05
-0.0021709
-7.44884e-05
-0.00226331
-8.28535e-05
-0.00236814
-8.31946e-05
-0.0024843
-6.95123e-05
-0.00260779
-3.36717e-05
-0.00273085
3.38401e-05
-0.00284123
0.000141087
-0.00293554
0.000306969
-0.00302164
0.000556617
-0.00310498
0.000904252
-0.00318136
0.00133842
-0.00320538
0.00178924
-0.00312439
0.00210035
-0.00275876
0.00183208
-0.00149665
-0.000166751
-0.0036555
-0.000540731
0.0041189
0.000296018
0.00101681
-7.99868e-05
0.000288078
-0.000450783
8.72961e-05
-0.000778622
6.94494e-05
-0.00113794
8.88666e-05
-0.00150413
0.000127287
-0.00182425
0.000176271
-0.00205152
0.00022103
-0.0021791
0.000253179
-0.00223702
0.000262687
-0.0022628
0.000237912
-0.00226167
0.000203098
-0.00225001
0.00016719
-0.00224668
0.000132427
-0.00225653
0.000102671
-0.00227949
7.78714e-05
-0.00231336
5.74172e-05
-0.00235512
4.05021e-05
-0.00240592
2.72225e-05
-0.00246479
1.49748e-05
-0.00252965
3.43439e-06
-0.00259774
-6.39557e-06
-0.00266687
-1.37219e-05
-0.0027331
-1.69625e-05
-0.00278952
-1.30981e-05
-0.00282526
2.06923e-06
-0.00282997
3.85526e-05
-0.00279357
0.00010469
-0.00269444
0.000207836
-0.00250123
0.000363407
-0.00218719
0.000590213
-0.00173332
0.000884555
-0.0011116
0.00116753
-0.000150848
0.0011396
0.00114538
0.000535856
0.00158223
-0.000603601
-0.00199433
-0.00723233
-0.0101331
-0.00597139
-0.00493462
-0.00463535
-0.00454112
-0.00446736
-0.00437617
-0.00424816
-0.00407253
-0.00385337
-0.00360321
-0.00334465
-0.00311192
-0.00291489
-0.0027545
-0.00262943
-0.00253454
-0.00246478
-0.00241572
-0.00238376
-0.00236521
-0.00235898
-0.00236433
-0.00237947
-0.00240187
-0.00242739
-0.00244889
-0.00245501
-0.00242441
-0.0023274
-0.00212697
-0.00177068
-0.0011873
-0.00030933
0.000851816
0.001985
0.00251421
0.00190357
)
;

boundaryField
{
    floor
    {
        type            calculated;
        value           nonuniform List<scalar> 
29
(
0
0
0
0
0
0
0
0
0
0
0
0
0
0
0
0
0
0
0
0
-3.61203e-06
-9.301e-06
-1.41837e-05
-1.86064e-05
-1.43953e-06
-2.68682e-06
-7.64753e-06
-8.01186e-06
-7.27033e-06
)
;
    }
    ceiling
    {
        type            calculated;
        value           nonuniform List<scalar> 
43
(
-4.54261e-05
-4.41036e-05
-4.2793e-05
-1.99658e-05
-1.11895e-05
-6.93456e-06
-4.3099e-06
-2.32763e-06
-7.19503e-07
6.4584e-07
1.86666e-06
3.01377e-06
4.13325e-06
5.17801e-06
6.07528e-06
6.7954e-06
7.35341e-06
7.7817e-06
8.10944e-06
8.35768e-06
8.54427e-06
8.67131e-06
8.74996e-06
8.77764e-06
8.75085e-06
8.67654e-06
8.55859e-06
8.398e-06
8.19522e-06
7.95012e-06
7.68139e-06
7.4004e-06
7.11579e-06
6.83602e-06
6.58655e-06
6.38018e-06
6.41355e-06
6.64866e-06
7.03468e-06
8.26287e-06
1.10892e-05
8.03975e-06
-6.4687e-05
)
;
    }
    sWall
    {
        type            calculated;
        value           uniform -0.000274895;
    }
    nWall
    {
        type            calculated;
        value           nonuniform List<scalar> 6(-4.71832e-05 -5.65634e-05 -6.12861e-05 -7.20561e-05 -7.89452e-05 -9.90219e-05);
    }
    sideWalls
    {
        type            empty;
        value           nonuniform 0();
    }
    glass1
    {
        type            calculated;
        value           nonuniform List<scalar> 9(-5.62569e-05 -0.000151474 -0.000231654 -0.000299922 -0.000357888 -0.000406779 -0.000451038 -0.00050466 -0.000564649);
    }
    glass2
    {
        type            calculated;
        value           nonuniform List<scalar> 2(-0.000249592 -0.000276089);
    }
    sun
    {
        type            calculated;
        value           uniform 0;
    }
    heatsource1
    {
        type            calculated;
        value           nonuniform List<scalar> 3(2.03962e-07 2.03918e-07 2.03935e-07);
    }
    heatsource2
    {
        type            calculated;
        value           nonuniform List<scalar> 4(5.10986e-08 5.12208e-08 0 0);
    }
    Table_master
    {
        type            calculated;
        value           nonuniform List<scalar> 9(-1.5297e-07 -1.53051e-07 -1.5308e-07 -1.531e-07 -1.53114e-07 -1.53124e-07 -1.53127e-07 -1.53121e-07 -1.53088e-07);
    }
    Table_slave
    {
        type            calculated;
        value           nonuniform List<scalar> 9(1.52849e-07 1.52874e-07 1.52857e-07 1.52842e-07 1.52837e-07 1.52841e-07 1.52856e-07 1.52898e-07 1.52978e-07);
    }
    inlet
    {
        type            calculated;
        value           uniform -0.00617712;
    }
    outlet
    {
        type            calculated;
        value           nonuniform List<scalar> 2(0.00755265 0.00294485);
    }
}


// ************************************************************************* //
