// -*- C++ -*-
// File generated by PyFoam - sorry for the ugliness

FoamFile
{
 version 2.0;
 format ascii;
 class volVectorField;
 location "100";
 object U;
}

dimensions [ 0 1 -1 0 0 0 0 ];

internalField nonuniform List<vector> 459
(
  (0.0116481 0.255507 0)
  (0.198487 -0.249613 0)
  (0.321089 -0.170699 0)
  (0.443388 -0.109327 0)
  (0.516972 -0.0735735 0)
  (0.549642 -0.0519505 0)
  (0.560472 -0.0367403 0)
  (0.558072 -0.0244834 0)
  (0.544165 -0.0135502 0)
  (0.518803 -0.00313118 0)
  (0.481514 0.00758005 0)
  (0.431193 0.0197303 0)
  (0.364972 0.0359341 0)
  (0.272243 0.0654104 0)
  (0.197683 0.143202 0)
  (0.0455957 0.0091856 0)
  (-0.0142327 -0.0140524 0)
  (0.0113693 -0.0159061 0)
  (0.0293593 -0.013633 0)
  (0.0443994 -0.0116643 0)
  (0.0567246 -0.00891 0)
  (0.0647497 -0.00455405 0)
  (0.0673956 -0.00218396 0)
  (0.0667024 -0.00143009 0)
  (0.0652812 -0.00127245 0)
  (0.0641442 -0.001238 0)
  (0.0632663 -0.00122138 0)
  (0.0624439 -0.00115569 0)
  (0.0614342 -0.000893038 0)
  (0.0597118 -0.000114957 0)
  (0.0562188 0.00160527 0)
  (0.0497744 0.00375519 0)
  (0.0429388 0.00635239 0)
  (-0.00780959 0.0217033 0)
  (0.584685 -0.215611 0)
  (0.319602 -0.278301 0)
  (0.376066 -0.18371 0)
  (0.446095 -0.0957573 0)
  (0.478811 -0.0458627 0)
  (0.491342 -0.0162957 0)
  (0.495673 0.00624381 0)
  (0.491264 0.0251896 0)
  (0.477261 0.0415961 0)
  (0.453323 0.0568723 0)
  (0.419151 0.0723449 0)
  (0.374873 0.0894701 0)
  (0.322219 0.110551 0)
  (0.265365 0.140316 0)
  (0.229905 0.194124 0)
  (0.20237 0.168353 0)
  (0.099763 0.11825 0)
  (0.100859 -0.00209803 0)
  (0.0250538 -0.0101388 0)
  (0.019701 -0.0159371 0)
  (0.0297841 -0.0183004 0)
  (0.0404703 -0.018722 0)
  (0.0505771 -0.0157238 0)
  (0.0581394 -0.00426674 0)
  (0.0591038 0.00205595 0)
  (0.0579568 0.00385423 0)
  (0.0573651 0.00404882 0)
  (0.0573236 0.00387497 0)
  (0.057368 0.00364384 0)
  (0.0573468 0.00354745 0)
  (0.0572391 0.00390661 0)
  (0.0566188 0.005409 0)
  (0.0536719 0.00987677 0)
  (0.046083 0.0144037 0)
  (0.0431701 0.0188475 0)
  (-0.0482653 0.0451918 0)
  (0.669276 -0.46759 0)
  (0.148295 -0.376617 0)
  (0.263048 -0.221433 0)
  (0.320242 -0.12427 0)
  (0.329408 -0.0739521 0)
  (0.333922 -0.0418361 0)
  (0.339237 -0.0150566 0)
  (0.342092 0.0113463 0)
  (0.338361 0.0383105 0)
  (0.326973 0.0659031 0)
  (0.307319 0.0942146 0)
  (0.279588 0.12338 0)
  (0.245534 0.15368 0)
  (0.207081 0.185134 0)
  (0.175171 0.217212 0)
  (0.136057 0.18289 0)
  (0.078037 0.148558 0)
  (0.0713045 -0.0127865 0)
  (-0.0183347 -0.0185144 0)
  (0.00184195 -0.0254615 0)
  (0.0151195 -0.028927 0)
  (0.0263285 -0.0302571 0)
  (0.0357573 -0.0308291 0)
  (0.0487015 -0.0184492 0)
  (0.0454812 -0.010279 0)
  (0.042312 -0.00676889 0)
  (0.0425652 -0.00531915 0)
  (0.0439838 -0.00461883 0)
  (0.0451936 -0.00424618 0)
  (0.0461265 -0.0039353 0)
  (0.0473184 -0.0032934 0)
  (0.0497929 -0.000431415 0)
  (0.0493958 0.0136036 0)
  (0.0401625 0.0238544 0)
  (0.0476674 0.0319972 0)
  (-0.086502 0.068514 0)
  (0.707217 -0.617077 0)
  (-0.0707402 -0.402674 0)
  (0.158659 -0.216424 0)
  (0.19185 -0.125566 0)
  (0.17897 -0.0784053 0)
  (0.180614 -0.043402 0)
  (0.187202 -0.0128965 0)
  (0.195704 0.0169802 0)
  (0.199592 0.0478821 0)
  (0.19766 0.0805657 0)
  (0.189195 0.114702 0)
  (0.174068 0.149466 0)
  (0.153071 0.18369 0)
  (0.126113 0.215626 0)
  (0.101334 0.243004 0)
  (0.0719206 0.226582 0)
  (0.0471191 0.199318 0)
  (-0.027571 0.101335 0)
  (-0.0433569 -0.00974164 0)
  (-0.0286598 -0.0304678 0)
  (-0.0114913 -0.0389547 0)
  (0.000638635 -0.0398412 0)
  (0.00834072 -0.0385679 0)
  (0.0105088 -0.0365461 0)
  (0.0172602 -0.0210469 0)
  (0.0344543 -0.015529 0)
  (0.0490192 -0.012592 0)
  (0.0606554 -0.0105456 0)
  (0.0699715 -0.00859852 0)
  (0.0766687 -0.00630865 0)
  (0.0797384 -0.00339792 0)
  (0.0771061 0.000564132 0)
  (0.0674961 0.00591624 0)
  (0.0535238 0.0218791 0)
  (0.0389916 0.0370188 0)
  (0.0552067 0.0500053 0)
  (-0.122541 0.0883512 0)
  (0.714628 -0.690089 0)
  (-0.223856 -0.419932 0)
  (0.111385 -0.229076 0)
  (0.0907929 -0.126542 0)
  (0.0550137 -0.0824313 0)
  (0.0600709 -0.0495807 0)
  (0.0672107 -0.0209781 0)
  (0.0762016 0.00977984 0)
  (0.0813734 0.0448052 0)
  (0.0827867 0.0832521 0)
  (0.0798059 0.123415 0)
  (0.0721048 0.163616 0)
  (0.0599869 0.20221 0)
  (0.0426228 0.237348 0)
  (0.028012 0.266786 0)
  (0.00799075 0.259906 0)
  (-0.000387202 0.22483 0)
  (-0.0431062 0.0865282 0)
  (-0.0303217 -0.0155549 0)
  (-0.0269074 -0.0428096 0)
  (-0.0189293 -0.0494713 0)
  (-0.0108374 -0.0484674 0)
  (-0.00391335 -0.0446499 0)
  (0.00148417 -0.038497 0)
  (0.0107739 -0.0268591 0)
  (0.0229837 -0.0209576 0)
  (0.0343446 -0.017703 0)
  (0.0444245 -0.0150143 0)
  (0.0532285 -0.0117661 0)
  (0.0604294 -0.00706543 0)
  (0.0652903 -0.000177434 0)
  (0.0664387 0.00847249 0)
  (0.0631424 0.0188307 0)
  (0.0564775 0.0333341 0)
  (0.0450277 0.0498786 0)
  (0.0654814 0.0692275 0)
  (-0.0232769 0.0993098 0)
  (0.0472736 0.0319962 0)
  (-0.0609028 -0.0333833 0)
  (-0.274208 -0.0563569 0)
  (0.669463 -0.702758 0)
  (-0.274271 -0.428617 0)
  (0.0599169 -0.229016 0)
  (-0.00223352 -0.0935628 0)
  (-0.0453947 -0.0769374 0)
  (-0.0362832 -0.0539545 0)
  (-0.0323144 -0.0284995 0)
  (-0.0271328 0.00308728 0)
  (-0.0242326 0.041391 0)
  (-0.0219694 0.0833444 0)
  (-0.0214808 0.127175 0)
  (-0.0233228 0.171056 0)
  (-0.0276359 0.213173 0)
  (-0.0351023 0.251026 0)
  (-0.0390741 0.279261 0)
  (-0.046491 0.272631 0)
  (-0.0410497 0.226127 0)
  (-0.0528094 0.0861326 0)
  (-0.0327974 -0.0134111 0)
  (-0.0318781 -0.047593 0)
  (-0.0274473 -0.0559403 0)
  (-0.0214386 -0.0551926 0)
  (-0.0153526 -0.0508589 0)
  (-0.00956521 -0.0447869 0)
  (-0.0020648 -0.0369554 0)
  (0.00709972 -0.0314908 0)
  (0.0159216 -0.0278857 0)
  (0.0243518 -0.0246518 0)
  (0.0323749 -0.020693 0)
  (0.039983 -0.0147933 0)
  (0.0469481 -0.00565486 0)
  (0.0527579 0.00672665 0)
  (0.0551686 0.0205982 0)
  (0.0560954 0.0362391 0)
  (0.0543958 0.0534863 0)
  (0.0750143 0.0753878 0)
  (0.0541114 0.0932305 0)
  (0.0946319 0.066384 0)
  (0.116994 0.0444677 0)
  (-0.126886 -0.00527528 0)
  (0.548517 -0.645966 0)
  (-0.251101 -0.395267 0)
  (-0.0615887 -0.197945 0)
  (-0.082563 -0.0615728 0)
  (-0.140018 -0.0714166 0)
  (-0.132412 -0.055771 0)
  (-0.130085 -0.0306249 0)
  (-0.126594 0.00230062 0)
  (-0.123091 0.0403613 0)
  (-0.118899 0.0820351 0)
  (-0.114118 0.12614 0)
  (-0.109189 0.170911 0)
  (-0.104467 0.214209 0)
  (-0.100141 0.252402 0)
  (-0.0923584 0.277497 0)
  (-0.0849533 0.268171 0)
  (-0.0676184 0.211872 0)
  (-0.058748 0.0771107 0)
  (-0.0408858 -0.0168901 0)
  (-0.0391033 -0.0509195 0)
  (-0.0360713 -0.0606529 0)
  (-0.0313986 -0.0608007 0)
  (-0.0264073 -0.056403 0)
  (-0.0218942 -0.0504544 0)
  (-0.0171095 -0.0443212 0)
  (-0.0117744 -0.0393746 0)
  (-0.0063742 -0.0355937 0)
  (-0.000899267 -0.0323012 0)
  (0.0048253 -0.0285563 0)
  (0.0110756 -0.0231499 0)
  (0.0184073 -0.0142909 0)
  (0.0285012 -0.000352699 0)
  (0.0378605 0.0155422 0)
  (0.0458725 0.0311374 0)
  (0.0535929 0.0463709 0)
  (0.0746019 0.0643316 0)
  (0.0876432 0.0716667 0)
  (0.119625 0.0500009 0)
  (0.15913 0.0436824 0)
  (-0.0332945 0.0950182 0)
  (0.35816 -0.507641 0)
  (-0.332375 -0.312255 0)
  (-0.284375 -0.182878 0)
  (-0.183308 -0.0360237 0)
  (-0.253982 -0.0778734 0)
  (-0.231517 -0.0633913 0)
  (-0.224089 -0.0360574 0)
  (-0.218354 -0.0019477 0)
  (-0.210917 0.0360046 0)
  (-0.203346 0.0765125 0)
  (-0.193131 0.119053 0)
  (-0.180254 0.162386 0)
  (-0.164931 0.204344 0)
  (-0.147399 0.240621 0)
  (-0.126454 0.26203 0)
  (-0.104723 0.249475 0)
  (-0.0781096 0.187148 0)
  (-0.0580164 0.0613004 0)
  (-0.0428184 -0.022457 0)
  (-0.0425639 -0.0531248 0)
  (-0.0415556 -0.0638183 0)
  (-0.0388946 -0.0649584 0)
  (-0.0358189 -0.0602862 0)
  (-0.0337682 -0.0536727 0)
  (-0.0325471 -0.0474937 0)
  (-0.0316423 -0.0425292 0)
  (-0.0310018 -0.0387696 0)
  (-0.0304916 -0.0357703 0)
  (-0.0298297 -0.0328732 0)
  (-0.0285361 -0.0292834 0)
  (-0.0258425 -0.024047 0)
  (-0.0200705 -0.0161146 0)
  (-0.00431484 -0.00422737 0)
  (0.009124 0.00972059 0)
  (0.0208863 0.0189188 0)
  (0.0400275 0.0267661 0)
  (0.0576478 0.0199869 0)
  (0.07615 -0.00606682 0)
  (0.135444 0.0425247 0)
  (-0.420959 0.21048 0)
  (0.0840389 -0.36745 0)
  (-0.63561 -0.312133 0)
  (-0.8122 -0.302076 0)
  (-0.234055 -0.145055 0)
  (-0.349798 -0.11346 0)
  (-0.303912 -0.0794197 0)
  (-0.293671 -0.0446415 0)
  (-0.28821 -0.00937763 0)
  (-0.280402 0.0274527 0)
  (-0.269555 0.0654569 0)
  (-0.253571 0.10444 0)
  (-0.232002 0.143876 0)
  (-0.205041 0.182005 0)
  (-0.173511 0.214666 0)
  (-0.138609 0.232763 0)
  (-0.103896 0.218932 0)
  (-0.0700198 0.156468 0)
  (-0.0434273 0.0433365 0)
  (-0.0293829 -0.0270852 0)
  (-0.0353803 -0.0531699 0)
  (-0.0392676 -0.0646042 0)
  (-0.0409065 -0.0669436 0)
  (-0.0412598 -0.0617062 0)
  (-0.0426736 -0.0532611 0)
  (-0.0460454 -0.0457695 0)
  (-0.0505048 -0.0400291 0)
  (-0.0557735 -0.0357242 0)
  (-0.0618075 -0.0322081 0)
  (-0.0687711 -0.028655 0)
  (-0.0770539 -0.024064 0)
  (-0.087315 -0.0172248 0)
  (-0.100213 -0.00688206 0)
  (-0.115438 0.00772498 0)
  (-0.130126 0.0247194 0)
  (-0.153682 0.0434791 0)
  (-0.189336 0.062824 0)
  (-0.239875 0.079002 0)
  (-0.296881 0.0894386 0)
  (-0.364801 0.0943773 0)
  (-0.626147 0.0948483 0)
  (-1.73553 -0.31633 0)
  (-0.119545 -0.248593 0)
  (-0.342787 -0.139103 0)
  (-0.326765 -0.0827942 0)
  (-0.329758 -0.0411086 0)
  (-0.331096 -0.00643226 0)
  (-0.325954 0.0245547 0)
  (-0.313368 0.0545686 0)
  (-0.29239 0.0852088 0)
  (-0.262451 0.116402 0)
  (-0.223886 0.147037 0)
  (-0.178345 0.173967 0)
  (-0.129229 0.18949 0)
  (-0.0821276 0.178387 0)
  (-0.0395372 0.124943 0)
  (2.51473e-05 0.0254265 0)
  (0.0090126 -0.0312249 0)
  (-0.00905493 -0.0514637 0)
  (-0.0227581 -0.0624794 0)
  (-0.0326024 -0.0658209 0)
  (-0.0390838 -0.059897 0)
  (-0.0448323 -0.0487075 0)
  (-0.0533468 -0.0390549 0)
  (-0.0630944 -0.0320409 0)
  (-0.07324 -0.0267013 0)
  (-0.0835347 -0.0220393 0)
  (-0.0938635 -0.0171449 0)
  (-0.104043 -0.011191 0)
  (-0.113677 -0.00340591 0)
  (-0.121896 0.00696927 0)
  (-0.127663 0.020643 0)
  (-0.132011 0.0388578 0)
  (-0.136217 0.0601522 0)
  (-0.141095 0.0801643 0)
  (-0.14341 0.0889827 0)
  (-0.125576 0.0660622 0)
  (-0.0778594 -0.0285673 0)
  (-0.281374 -0.208068 0)
  (-0.247939 0.0865089 0)
  (-0.0927188 -0.220545 0)
  (-0.272377 -0.126198 0)
  (-0.316853 -0.0859795 0)
  (-0.343449 -0.059179 0)
  (-0.35502 -0.0358557 0)
  (-0.353529 -0.0116583 0)
  (-0.339936 0.0132461 0)
  (-0.314527 0.0374942 0)
  (-0.276806 0.0617564 0)
  (-0.227084 0.0861451 0)
  (-0.167646 0.109567 0)
  (-0.103755 0.126954 0)
  (-0.042704 0.123061 0)
  (0.0235342 0.0664936 0)
  (0.063933 -5.28811e-05 0)
  (0.0660592 -0.0316997 0)
  (0.0447917 -0.0443237 0)
  (0.0194323 -0.0497764 0)
  (-0.00405371 -0.0530946 0)
  (-0.0235112 -0.0492918 0)
  (-0.0366294 -0.0376591 0)
  (-0.0502106 -0.0286492 0)
  (-0.06377 -0.0231033 0)
  (-0.0757466 -0.0192933 0)
  (-0.0861365 -0.0161579 0)
  (-0.0949167 -0.0129371 0)
  (-0.101819 -0.00895097 0)
  (-0.106207 -0.00341722 0)
  (-0.10712 0.0047072 0)
  (-0.103378 0.0163822 0)
  (-0.0937137 0.0326052 0)
  (-0.078019 0.0527037 0)
  (-0.0573038 0.0718335 0)
  (-0.0348099 0.082827 0)
  (0.00586559 0.0670517 0)
  (0.14245 -0.00353705 0)
  (-0.207825 -0.119118 0)
  (0.793862 0.152309 0)
  (-0.0317254 -0.321187 0)
  (-0.250313 0.0956646 0)
  (-0.135952 -0.0100845 0)
  (-0.255594 0.0256656 0)
  (-0.308937 0.0452434 0)
  (-0.342366 0.0565064 0)
  (-0.358818 0.0634806 0)
  (-0.360019 0.0679143 0)
  (-0.346233 0.0724567 0)
  (-0.317364 0.0790704 0)
  (-0.272918 0.0876622 0)
  (-0.212988 0.0983481 0)
  (-0.141047 0.111194 0)
  (-0.0668283 0.124495 0)
  (0.0386719 0.119732 0)
  (0.100161 0.0962516 0)
  (0.135256 0.0866567 0)
  (0.136954 0.0812786 0)
  (0.119689 0.072862 0)
  (0.0957459 0.0577319 0)
  (0.0647035 0.0259418 0)
  (0.0157336 -0.0068686 0)
  (-0.0211515 -0.0025477 0)
  (-0.0403027 0.00452222 0)
  (-0.0561841 0.00767725 0)
  (-0.0681859 0.0093516 0)
  (-0.0775578 0.0104925 0)
  (-0.0847183 0.0115403 0)
  (-0.0895029 0.0127656 0)
  (-0.0910913 0.0144155 0)
  (-0.0878243 0.016986 0)
  (-0.076922 0.0218304 0)
  (-0.0566324 0.0299855 0)
  (-0.0282551 0.041935 0)
  (0.0215974 0.0579735 0)
  (0.0648669 0.0589272 0)
  (0.107562 0.0433414 0)
  (0.165919 0.0123826 0)
  (-0.207611 -0.0454833 0)
)
;

boundaryField
{
  floor
  {
    type noSlip;
  }
  ceiling
  {
    type noSlip;
  }
  sWall
  {
    type noSlip;
  }
  nWall
  {
    type noSlip;
  }
  sideWalls
  {
    type empty;
  }
  glass1
  {
    type noSlip;
  }
  glass2
  {
    type noSlip;
  }
  sun
  {
    type noSlip;
  }
  heatsource1
  {
    type noSlip;
  }
  heatsource2
  {
    type noSlip;
  }
  Table_master
  {
    type noSlip;
  }
  Table_slave
  {
    type noSlip;
  }
  inlet
  {
    type fixedValue;
    value uniform (0.1 0 0);
  }
  outlet
  {
    type zeroGradient;
  }
} 	// ************************************************************************* //

