/*--------------------------------*- C++ -*----------------------------------*\
  =========                 |
  \\      /  F ield         | OpenFOAM: The Open Source CFD Toolbox
   \\    /   O peration     | Website:  https://openfoam.org
    \\  /    A nd           | Version:  6
     \\/     M anipulation  |
\*---------------------------------------------------------------------------*/
FoamFile
{
    version     2.0;
    format      ascii;
    class       volScalarField;
    location    "1400";
    object      alphat;
}
// * * * * * * * * * * * * * * * * * * * * * * * * * * * * * * * * * * * * * //

dimensions      [1 -1 -1 0 0 0 0];

internalField   nonuniform List<scalar> 
459
(
0.000836963
0.00087578
0.000860412
0.000889556
0.000915118
0.000937082
0.000956295
0.000973669
0.000990173
0.00100648
0.00101839
0.00102462
0.00102485
0.00102082
0.00101308
0.000555898
0.000558239
0.000562338
0.000572645
0.000575705
0.000567488
0.000544104
0.000517679
0.000493203
0.000470767
0.000450024
0.00043074
0.00041269
0.000395599
0.00037905
0.000362421
0.000344598
0.000331075
0.000302425
0.00127866
0.00213199
0.00181426
0.00213343
0.00230059
0.00247384
0.00264437
0.00279861
0.00291642
0.0029802
0.00299637
0.00293159
0.00273789
0.00234873
0.00170711
0.00104185
0.000947694
0.000715926
0.00157321
0.00214805
0.00241677
0.00241952
0.00222447
0.0016775
0.00146893
0.00132141
0.00119789
0.00109017
0.000995038
0.000909081
0.000827086
0.000744079
0.000670589
0.000608662
0.000713181
0.000385708
0.00168369
0.00321608
0.00199714
0.00302301
0.0032911
0.00347155
0.00360989
0.0037145
0.00379108
0.00383534
0.00385366
0.00381304
0.00366941
0.00336287
0.00282542
0.00206011
0.00115116
0.000868057
0.00272345
0.00315756
0.00305597
0.00282636
0.0023396
0.000647202
0.000568897
0.000509085
0.000464386
0.000430432
0.000403784
0.000382332
0.000365211
0.000353118
0.000412355
0.000488687
0.000812302
0.000449766
0.00210099
0.00484434
0.00198739
0.0033598
0.00381836
0.00397448
0.00405668
0.00410398
0.00413856
0.00416778
0.004198
0.00421097
0.00417683
0.00405232
0.00375451
0.00313723
0.00210395
0.00116142
0.00322527
0.00337436
0.00320225
0.00289041
0.0025964
0.002184
0.000603066
0.000589431
0.000592596
0.000598596
0.0006006
0.000593825
0.00057591
0.000556442
0.00053182
0.00051265
0.00051637
0.000944434
0.000508682
0.00252833
0.00699541
0.00253883
0.0031496
0.00401464
0.00420893
0.00426115
0.00426434
0.00425913
0.00427209
0.00431214
0.00437263
0.00442358
0.00444534
0.00442358
0.00434601
0.0041884
0.00385738
0.00361688
0.00326032
0.00290452
0.00259373
0.00238144
0.00227638
0.0021412
0.00220632
0.00228456
0.00233858
0.00235167
0.00231124
0.00219789
0.00193524
0.00159384
0.00123559
0.000938817
0.000944033
0.000682758
0.000666665
0.000803576
0.000896341
0.00296753
0.00931361
0.00448695
0.00289527
0.00364712
0.00409959
0.00428445
0.00433797
0.00431114
0.00426254
0.00430647
0.00439555
0.00447421
0.00452085
0.00452226
0.00446238
0.00429404
0.00395298
0.00351298
0.00309615
0.00273866
0.00245366
0.00229582
0.00226902
0.00234291
0.00246869
0.00258759
0.00267619
0.00272362
0.00272412
0.00267437
0.00251014
0.00222236
0.00182914
0.00142973
0.00108628
0.000882188
0.000782833
0.00114675
0.000929811
0.00339833
0.0112147
0.00803589
0.00457119
0.00340299
0.00330573
0.00366578
0.00405525
0.00433026
0.00423938
0.00430458
0.00439091
0.00445748
0.00448804
0.0044679
0.00438021
0.00418475
0.00385108
0.00345168
0.00308001
0.00273503
0.00244584
0.00229555
0.00227547
0.00233959
0.00244593
0.00255766
0.00265518
0.00272614
0.00276914
0.00279003
0.00277907
0.00257519
0.00222027
0.0018388
0.0014722
0.00122032
0.00115226
0.00121391
0.00102081
0.00350079
0.0110039
0.0093584
0.0078957
0.00611676
0.004808
0.00422686
0.00415631
0.00432804
0.00436314
0.00437292
0.00439216
0.00440698
0.00439303
0.00432786
0.00419628
0.00398803
0.00370772
0.00340048
0.00311461
0.00279133
0.00249088
0.00233265
0.00229764
0.00233024
0.00239376
0.00246514
0.00253458
0.00260144
0.00267392
0.00276727
0.00289328
0.00296474
0.00266831
0.00241461
0.00230479
0.00244709
0.00293046
0.003775
0.00164421
0.00342211
0.00412367
0.00483049
0.0051509
0.00520234
0.00495773
0.00465701
0.00444431
0.00434181
0.00429468
0.00429585
0.00430815
0.00429809
0.00424032
0.00412087
0.00394054
0.00371707
0.00348166
0.00326532
0.00308054
0.0028244
0.0025342
0.00236831
0.00230623
0.00229774
0.00231103
0.00232818
0.00234094
0.00234675
0.00234525
0.00233567
0.00231666
0.0022894
0.00226552
0.00228181
0.00233375
0.00235927
0.00229508
0.00216138
0.00155492
0.00305104
0.00586549
0.00558551
0.00536063
0.00513633
0.00494576
0.00480185
0.00467588
0.00454789
0.00440847
0.00424542
0.00404948
0.00381933
0.00356776
0.00332893
0.00314793
0.00303447
0.00296686
0.00281578
0.00258897
0.00242523
0.00232335
0.0022627
0.00222704
0.00220469
0.00218895
0.00217812
0.00217474
0.00218382
0.00221067
0.00225447
0.00230111
0.00235074
0.00238163
0.00235248
0.00224731
0.00206908
0.0013136
0.00287997
0.00642524
0.00604838
0.00570585
0.00542432
0.00517688
0.00493389
0.00469852
0.00441735
0.00409744
0.0037701
0.00345126
0.00315295
0.00289645
0.00273211
0.00272009
0.00279995
0.00291676
0.00297646
0.00290276
0.00277704
0.0026341
0.0025002
0.00239024
0.00230971
0.00225897
0.00223624
0.00223853
0.00226021
0.00228842
0.00234294
0.00242041
0.00250136
0.00256569
0.00255848
0.00262553
0.0027036
0.00133949
0.00226421
0.0024807
0.00265147
0.00281676
0.002646
0.00249612
0.00228368
0.002102
0.0019276
0.00175852
0.0016107
0.00148193
0.00136129
0.00124274
0.00112274
0.00100067
0.000883671
0.000792502
0.000746172
0.000746535
0.000744211
0.000731899
0.000719653
0.000712709
0.000714201
0.000724845
0.000744032
0.000770827
0.000804596
0.000845424
0.000894616
0.000955728
0.00102351
0.00109644
0.00117428
0.00126633
0.00129494
0.00126399
0.00119186
0.0011136
)
;

boundaryField
{
    floor
    {
        type            compressible::alphatWallFunction;
        Prt             0.85;
        value           nonuniform List<scalar> 
29
(
0.00014417
7.77742e-05
7.81209e-05
7.87352e-05
8.02864e-05
8.07459e-05
7.95082e-05
7.59743e-05
7.19581e-05
6.82152e-05
6.47635e-05
6.15537e-05
5.85527e-05
5.57281e-05
5.3039e-05
5.04207e-05
4.77748e-05
4.49212e-05
4.2743e-05
3.80895e-05
3.80889e-05
5.14738e-05
6.15109e-05
7.05822e-05
0.000144168
7.77733e-05
0.000101564
0.000123588
0.000164851
)
;
    }
    ceiling
    {
        type            compressible::alphatWallFunction;
        Prt             0.85;
        value           nonuniform List<scalar> 
43
(
0.000311387
0.000338989
0.000360628
0.000381565
0.000360079
0.000341088
0.000313946
0.000290513
0.00026781
0.000245585
0.00022596
0.000208702
0.000192381
0.000176182
0.000159604
0.000142528
0.00012593
0.000112814
0.000106079
0.000106133
0.000105793
0.000103995
0.000102205
0.00010119
0.000101411
0.000102973
0.000105778
0.00010968
0.000114573
0.000120457
0.000127501
0.000136188
0.000145747
0.00015595
0.000166754
0.000179426
0.000183343
0.000179107
0.000169184
0.000158343
0.000457027
0.000542537
0.000389268
)
;
    }
    sWall
    {
        type            compressible::alphatWallFunction;
        Prt             0.85;
        value           uniform 0.000310255;
    }
    nWall
    {
        type            compressible::alphatWallFunction;
        Prt             0.85;
        value           nonuniform List<scalar> 6(0.000127431 0.000132191 0.000145039 0.000185566 0.000189093 0.000158022);
    }
    sideWalls
    {
        type            empty;
    }
    glass1
    {
        type            compressible::alphatWallFunction;
        Prt             0.85;
        value           nonuniform List<scalar> 9(0.000115968 0.000176887 0.000230795 0.00028497 0.000339348 0.000394293 0.000447414 0.000460067 0.000450644);
    }
    glass2
    {
        type            compressible::alphatWallFunction;
        Prt             0.85;
        value           nonuniform List<scalar> 2(0.000228794 0.000216974);
    }
    sun
    {
        type            compressible::alphatWallFunction;
        Prt             0.85;
        value           nonuniform List<scalar> 
14
(
0.000119155
0.000124706
0.000122505
0.000126675
0.000130318
0.000133439
0.000136162
0.000138619
0.000140948
0.000143245
0.000144919
0.000145794
0.000145826
0.000145258
)
;
    }
    heatsource1
    {
        type            compressible::alphatWallFunction;
        Prt             0.85;
        value           nonuniform List<scalar> 3(9.44048e-05 0.000114409 0.000127728);
    }
    heatsource2
    {
        type            compressible::alphatWallFunction;
        Prt             0.85;
        value           nonuniform List<scalar> 4(0.000148298 0.000135028 0.000135027 0.000163528);
    }
    Table_master
    {
        type            compressible::alphatWallFunction;
        Prt             0.85;
        value           nonuniform List<scalar> 9(9.15182e-05 7.98117e-05 7.07353e-05 6.38647e-05 5.85896e-05 5.44123e-05 5.10235e-05 4.83012e-05 4.63683e-05);
    }
    Table_slave
    {
        type            compressible::alphatWallFunction;
        Prt             0.85;
        value           nonuniform List<scalar> 9(8.49466e-05 8.29031e-05 8.33776e-05 8.42768e-05 8.45767e-05 8.35615e-05 8.08704e-05 7.79341e-05 7.42021e-05);
    }
    inlet
    {
        type            fixedValue;
        value           uniform 1.94e-05;
    }
    outlet
    {
        type            zeroGradient;
    }
}


// ************************************************************************* //
