/*--------------------------------*- C++ -*----------------------------------*\
  =========                 |
  \\      /  F ield         | OpenFOAM: The Open Source CFD Toolbox
   \\    /   O peration     | Website:  https://openfoam.org
    \\  /    A nd           | Version:  6
     \\/     M anipulation  |
\*---------------------------------------------------------------------------*/
FoamFile
{
    version     2.0;
    format      ascii;
    class       volScalarField;
    location    "1900";
    object      nut;
}
// * * * * * * * * * * * * * * * * * * * * * * * * * * * * * * * * * * * * * //

dimensions      [0 2 -1 0 0 0 0];

internalField   nonuniform List<scalar> 
459
(
0.00100825
0.0010935
0.00110739
0.00115763
0.00120353
0.00124567
0.00128587
0.00132639
0.00136041
0.00138069
0.00138201
0.00136014
0.00131427
0.0012506
0.0011811
0.000437071
0.000538272
0.000589631
0.00057336
0.000547836
0.000519443
0.000488748
0.00045959
0.000433213
0.000409638
0.000388582
0.00036981
0.000352988
0.000337675
0.000323377
0.000309382
0.000294598
0.000286349
0.000263572
0.00139673
0.003211
0.00300493
0.00348592
0.00393618
0.00439611
0.00482753
0.00516873
0.00545628
0.00570264
0.00586787
0.0058976
0.00570698
0.0051189
0.00364166
0.00119626
0.000788803
0.000490375
0.000927476
0.001219
0.00141035
0.00149703
0.00148565
0.00126277
0.00111925
0.0010112
0.000925385
0.000855182
0.000794954
0.000740591
0.000689736
0.000641229
0.000599491
0.00056068
0.000673083
0.000358293
0.00172519
0.0043978
0.00364966
0.00469528
0.00516896
0.00551219
0.00577291
0.00597595
0.00617807
0.00639997
0.00661624
0.0067858
0.0068481
0.00673811
0.00632267
0.00515937
0.00115471
0.000998694
0.001328
0.00159458
0.00180999
0.00194381
0.00188347
0.000687855
0.000615147
0.000556311
0.000508419
0.000469058
0.000436377
0.000409028
0.000386128
0.000367263
0.000394647
0.000452029
0.000753935
0.000420107
0.00204521
0.00574794
0.00360605
0.00498677
0.00546312
0.00560609
0.00565542
0.00571509
0.00583955
0.00604064
0.0062924
0.00655985
0.00677264
0.00688441
0.00684133
0.00644142
0.00500947
0.0013285
0.00165819
0.00206731
0.0023925
0.00261431
0.00274019
0.00257545
0.000768261
0.000709843
0.000669846
0.000640433
0.000615231
0.00058999
0.000565429
0.000538909
0.000506971
0.000477327
0.000482082
0.000868853
0.000467408
0.00237276
0.00750974
0.00399205
0.00472278
0.0054327
0.00550474
0.00541096
0.00535518
0.00545271
0.00565145
0.00592356
0.00624392
0.00651232
0.00666166
0.0066476
0.00642814
0.00587977
0.00479307
0.00433804
0.00410606
0.00396457
0.00388079
0.003833
0.00373828
0.00327511
0.00307818
0.0029754
0.00289184
0.00278791
0.00262425
0.00235869
0.00201687
0.00162542
0.00121841
0.000896852
0.000882929
0.000620993
0.000586568
0.000708148
0.000792541
0.00271897
0.00942456
0.00568449
0.00452287
0.00506591
0.00535623
0.00536411
0.00520525
0.00530588
0.00548956
0.00576075
0.00608422
0.00637301
0.00652814
0.0064835
0.0062349
0.00583769
0.00538656
0.00507201
0.00484787
0.00467027
0.00453875
0.00443953
0.00433821
0.0041835
0.00405068
0.0039279
0.0037985
0.00365303
0.00348371
0.00324071
0.00289991
0.00246042
0.00194585
0.00146763
0.00107357
0.000835707
0.000725812
0.00104877
0.000825235
0.00304307
0.0108242
0.00833813
0.00593278
0.00534461
0.00539435
0.00545804
0.00539534
0.00539158
0.0055169
0.00578227
0.00612421
0.00642724
0.00656913
0.00647331
0.00615263
0.00572314
0.00536121
0.00515877
0.00501766
0.00485447
0.00466152
0.00445634
0.00426843
0.00411057
0.0039826
0.00386322
0.00374125
0.00361592
0.00349251
0.00337205
0.00315692
0.00280823
0.00235968
0.00191561
0.00149919
0.00121204
0.00112885
0.00116677
0.000926405
0.00311169
0.00989103
0.00862643
0.0077308
0.00699943
0.00652946
0.00602479
0.00563531
0.00550323
0.00563996
0.00597034
0.00636243
0.00666306
0.00673923
0.00652752
0.0060788
0.00556744
0.00522227
0.00507624
0.00484727
0.00452169
0.0041852
0.00390731
0.00371046
0.00357686
0.00347651
0.00338822
0.0033072
0.00323888
0.00319386
0.00318398
0.00318943
0.00299175
0.00268242
0.00240348
0.00226153
0.00236256
0.00276664
0.00346755
0.00146608
0.00303444
0.00361898
0.00406355
0.00425522
0.00435988
0.00438727
0.00449582
0.00478004
0.00524623
0.00583183
0.00641831
0.00686699
0.00705637
0.00690451
0.00641532
0.00574914
0.005223
0.00486455
0.00452432
0.00409661
0.0036718
0.00334365
0.00312523
0.00298518
0.00288798
0.0028086
0.00273385
0.00265845
0.00257982
0.00249526
0.00240185
0.00230039
0.00221438
0.00215109
0.00213355
0.00215567
0.00215767
0.00208212
0.00195104
0.00137788
0.00170491
0.00328714
0.00434918
0.00512283
0.00585298
0.00651278
0.00708041
0.00750083
0.00770045
0.00761704
0.00722982
0.00653365
0.00562647
0.00481771
0.00428951
0.00384434
0.00337529
0.00295493
0.00265558
0.00246618
0.00234793
0.00226905
0.00221056
0.00216278
0.00212181
0.0020869
0.00205909
0.00204074
0.00203562
0.00205152
0.00207511
0.00210604
0.00213918
0.00215113
0.00210192
0.001976
0.00178641
0.00113901
0.00205606
0.00451075
0.00604555
0.00666848
0.00722106
0.00763991
0.00775144
0.00766994
0.0072821
0.00656287
0.00565283
0.00473597
0.00397311
0.00338542
0.00290036
0.0024926
0.00220451
0.00202293
0.00190255
0.00182347
0.00177393
0.00174459
0.00173101
0.00173135
0.0017449
0.00177111
0.00180881
0.00185519
0.00191317
0.00198513
0.00206935
0.00216053
0.00224494
0.00230442
0.00229549
0.00232728
0.00232571
0.0011584
0.00195641
0.00193976
0.00198074
0.00209621
0.00198474
0.00185955
0.00174874
0.0016408
0.00154266
0.00143093
0.0012997
0.00114636
0.000983088
0.000830666
0.000709007
0.000626272
0.000577547
0.000552719
0.000543289
0.000543682
0.000550801
0.000562275
0.000576822
0.000594243
0.00061452
0.000637739
0.00066409
0.000693905
0.000727776
0.000766761
0.000811197
0.000860347
0.000914917
0.000975618
0.00104253
0.00112265
0.00115074
0.00112358
0.00105377
0.000980106
)
;

boundaryField
{
    floor
    {
        type            nutkWallFunction;
        Cmu             0.09;
        kappa           0.41;
        E               9.8;
        value           nonuniform List<scalar> 
29
(
0.000141827
5.15984e-05
6.4578e-05
7.10463e-05
6.90047e-05
6.57878e-05
6.21877e-05
5.82681e-05
5.45164e-05
5.10967e-05
4.80179e-05
4.52491e-05
4.27646e-05
4.05242e-05
3.84729e-05
3.65465e-05
3.46502e-05
3.26347e-05
3.15045e-05
2.83601e-05
2.836e-05
4.12325e-05
4.93883e-05
5.55257e-05
0.000141827
5.15984e-05
5.84775e-05
0.00012057
0.000158731
)
;
    }
    ceiling
    {
        type            nutkWallFunction;
        Cmu             0.09;
        kappa           0.41;
        E               9.8;
        value           nonuniform List<scalar> 
43
(
0.000228608
0.000226711
0.000231172
0.0002438
0.00023172
0.00021804
0.000205843
0.000193877
0.00018292
0.00017035
0.000155442
0.000137806
0.00011873
0.000100587
8.58263e-05
7.56171e-05
6.95296e-05
6.64042e-05
6.52128e-05
6.52628e-05
6.6163e-05
6.76105e-05
6.94405e-05
7.16245e-05
7.41568e-05
7.70441e-05
8.03054e-05
8.39769e-05
8.81251e-05
9.28713e-05
9.82465e-05
0.000104152
0.000110663
0.000117853
0.000125718
0.000135062
0.00013832
0.00013517
0.000127035
0.000118383
0.000343728
0.000404161
0.000239254
)
;
    }
    sWall
    {
        type            nutkWallFunction;
        Cmu             0.09;
        kappa           0.41;
        E               9.8;
        value           uniform 0.000228668;
    }
    nWall
    {
        type            nutkWallFunction;
        Cmu             0.09;
        kappa           0.41;
        E               9.8;
        value           nonuniform List<scalar> 6(9.59946e-05 9.99388e-05 0.000112031 0.00013697 0.000139217 0.000118388);
    }
    sideWalls
    {
        type            empty;
    }
    glass1
    {
        type            nutkWallFunction;
        Cmu             0.09;
        kappa           0.41;
        E               9.8;
        value           nonuniform List<scalar> 9(0.000121776 0.000166687 0.000203549 0.000238725 0.000274119 0.000310971 0.000345025 0.000352196 0.000344149);
    }
    glass2
    {
        type            nutkWallFunction;
        Cmu             0.09;
        kappa           0.41;
        E               9.8;
        value           nonuniform List<scalar> 2(0.000174398 0.000164416);
    }
    sun
    {
        type            nutkWallFunction;
        Cmu             0.09;
        kappa           0.41;
        E               9.8;
        value           nonuniform List<scalar> 
14
(
0.000121698
0.000131671
0.000133288
0.000139115
0.000144415
0.000149262
0.000153867
0.000158493
0.000162365
0.000164668
0.000164817
0.000162334
0.00015711
0.000149826
)
;
    }
    heatsource1
    {
        type            nutkWallFunction;
        Cmu             0.09;
        kappa           0.41;
        E               9.8;
        value           nonuniform List<scalar> 3(7.06659e-05 8.57249e-05 9.59942e-05);
    }
    heatsource2
    {
        type            nutkWallFunction;
        Cmu             0.09;
        kappa           0.41;
        E               9.8;
        value           nonuniform List<scalar> 4(0.000143573 9.55419e-05 9.55419e-05 0.000138773);
    }
    Table_master
    {
        type            nutkWallFunction;
        Cmu             0.09;
        kappa           0.41;
        E               9.8;
        value           nonuniform List<scalar> 9(8.32335e-05 7.42363e-05 6.68615e-05 6.07881e-05 5.57436e-05 5.15151e-05 4.79459e-05 4.49341e-05 4.24358e-05);
    }
    Table_slave
    {
        type            nutkWallFunction;
        Cmu             0.09;
        kappa           0.41;
        E               9.8;
        value           nonuniform List<scalar> 9(9.30521e-05 8.59315e-05 8.10162e-05 7.73793e-05 7.42469e-05 7.10942e-05 6.80105e-05 6.46625e-05 6.06034e-05);
    }
    inlet
    {
        type            calculated;
        value           uniform 0.000100623;
    }
    outlet
    {
        type            calculated;
        value           nonuniform List<scalar> 2(0.00195641 0.00193976);
    }
}


// ************************************************************************* //
