/*--------------------------------*- C++ -*----------------------------------*\
  =========                 |
  \\      /  F ield         | OpenFOAM: The Open Source CFD Toolbox
   \\    /   O peration     | Website:  https://openfoam.org
    \\  /    A nd           | Version:  6
     \\/     M anipulation  |
\*---------------------------------------------------------------------------*/
FoamFile
{
    version     2.0;
    format      ascii;
    class       volScalarField;
    location    "430";
    object      epsilon;
}
// * * * * * * * * * * * * * * * * * * * * * * * * * * * * * * * * * * * * * //

dimensions      [0 2 -3 0 0 0 0];

internalField   nonuniform List<scalar> 
459
(
0.000246542
0.000325908
0.000355904
0.000413626
0.000472835
0.000535133
0.000604775
0.000675583
0.000733811
0.000765959
0.000757827
0.000699175
0.00058456
0.000376864
0.000189164
4.62461e-05
0.000115224
0.000112387
0.000110325
0.000105015
9.57078e-05
8.05979e-05
6.61811e-05
5.44437e-05
4.5176e-05
3.78542e-05
3.20667e-05
2.73978e-05
2.35368e-05
2.02311e-05
1.72474e-05
1.4435e-05
1.07574e-05
9.71227e-06
0.000571412
0.000784938
0.000300661
0.000296788
0.000310762
0.000336564
0.000378658
0.00043416
0.000489541
0.000527614
0.000533172
0.000499672
0.000432557
0.000340909
0.000238384
0.000354586
0.000141225
0.000148583
0.000276546
0.000148729
0.000113304
9.44352e-05
8.2392e-05
8.00116e-05
6.58527e-05
5.26668e-05
4.20491e-05
3.37556e-05
2.73709e-05
2.24345e-05
1.86157e-05
1.58827e-05
1.45308e-05
1.68271e-05
1.57831e-05
2.02806e-05
0.000998639
0.00177938
0.00033664
0.000269072
0.000279943
0.00031321
0.000367047
0.00043718
0.000505123
0.000552939
0.000568515
0.000545543
0.000487399
0.000404654
0.000324027
0.000286883
0.000353419
0.000237467
0.00020545
0.000157223
0.000127196
0.000106231
9.79378e-05
0.000211881
0.000141762
9.86911e-05
7.15289e-05
5.37857e-05
4.18306e-05
3.35657e-05
2.77972e-05
2.39407e-05
1.88375e-05
1.89662e-05
2.1246e-05
2.71992e-05
0.00156888
0.00357048
0.000474198
0.000256939
0.000259947
0.000301745
0.000373864
0.000466755
0.000544362
0.000596411
0.000617591
0.000598702
0.000536971
0.000458083
0.00038467
0.000333359
0.000306779
0.000569708
0.000361963
0.000245694
0.000182629
0.000144238
0.00011939
0.000111733
0.000285156
0.000215096
0.000175383
0.000150626
0.00013319
0.000118545
0.000104288
9.09033e-05
7.67152e-05
4.62588e-05
3.20093e-05
3.73164e-05
3.95569e-05
0.0023437
0.00635029
0.000856219
0.000273139
0.000245731
0.000300129
0.000422904
0.000552524
0.000631913
0.000680148
0.000698701
0.000670197
0.000594292
0.000492481
0.000393618
0.00031838
0.000272858
0.000252882
0.000226307
0.000199673
0.000173926
0.000150117
0.000129485
0.000114195
0.000114029
0.000107793
0.0001018
9.6203e-05
9.03667e-05
8.35371e-05
7.52977e-05
6.66298e-05
5.82614e-05
4.75682e-05
3.74719e-05
4.33813e-05
4.33521e-05
6.04493e-05
5.9296e-05
5.48888e-05
0.00342348
0.00959986
0.00187928
0.000436337
0.000292726
0.000339775
0.000595988
0.000733605
0.000790489
0.000820847
0.000825818
0.000781448
0.000677489
0.000538674
0.000404401
0.000304523
0.000247952
0.000224862
0.000213007
0.000199618
0.000182817
0.000164007
0.000145482
0.000129842
0.000120862
0.000116747
0.000114528
0.000111827
0.000107573
0.000101233
9.24164e-05
8.06321e-05
6.86047e-05
5.75362e-05
4.75789e-05
4.59239e-05
4.83682e-05
5.38053e-05
0.000163219
0.000118265
0.00476439
0.0117406
0.00415159
0.00139569
0.000846184
0.000848089
0.00102427
0.00105476
0.00104292
0.0010356
0.00101637
0.000941552
0.000794347
0.000608469
0.000435228
0.000313762
0.000252
0.000232001
0.000225753
0.000217194
0.000203683
0.000187511
0.000171792
0.000159499
0.000153127
0.00015163
0.000150979
0.000148406
0.000143354
0.000136574
0.000128876
0.000119728
0.000106466
9.4654e-05
8.61027e-05
8.19916e-05
8.29685e-05
9.11806e-05
0.00025954
0.000201748
0.00517528
0.0145199
0.00753887
0.00448739
0.00298661
0.00231541
0.00185366
0.0015598
0.00140399
0.00133942
0.00128457
0.00115874
0.000942903
0.00069471
0.000479075
0.000343327
0.000283191
0.000267172
0.000262919
0.000256004
0.000245621
0.00023487
0.000226344
0.000221691
0.000220917
0.000221473
0.000219439
0.000212521
0.000201558
0.000190506
0.000184503
0.000186789
0.000196142
0.000206807
0.000233077
0.000276211
0.000345618
0.00042649
0.00154886
0.000422286
0.00488964
0.00852079
0.0064727
0.00480998
0.00362673
0.00281227
0.00224549
0.00191235
0.00177165
0.0017298
0.0016483
0.00143078
0.00109632
0.000774001
0.000530089
0.00041968
0.000381261
0.000371471
0.00036806
0.000365955
0.000364515
0.000365365
0.000368255
0.000372884
0.000377532
0.000377974
0.000369054
0.000347453
0.000314721
0.000279241
0.000253613
0.000247404
0.000264409
0.0003038
0.000366037
0.000458581
0.000582811
0.000735332
0.000901605
0.000495441
0.001733
0.00220569
0.00225944
0.00216855
0.00216267
0.00224049
0.00234917
0.00236999
0.00216077
0.00171845
0.00117615
0.000881649
0.000761524
0.000727304
0.000724243
0.000732269
0.000743354
0.000753812
0.000765877
0.00078277
0.000797749
0.000810525
0.000820219
0.000819693
0.000798427
0.000745869
0.000657759
0.000544878
0.00043577
0.000361146
0.000322688
0.000321002
0.000357521
0.000431413
0.000533911
0.000641343
0.000746441
0.000704112
0.00101442
0.00253445
0.00312816
0.00356654
0.00389756
0.00404165
0.00417156
0.00408764
0.00360685
0.00293719
0.00233829
0.00199608
0.00183533
0.00179058
0.00180472
0.00184629
0.00189896
0.00195399
0.00200519
0.00204672
0.00208116
0.00211469
0.00215393
0.00218889
0.00219717
0.00214761
0.0020132
0.00179378
0.00152692
0.0012444
0.000989283
0.000790829
0.000662727
0.000601818
0.000587786
0.000606445
0.00138453
0.000975054
0.000913324
0.00107205
0.0012207
0.00169492
0.00174517
0.00165229
0.00162614
0.00178366
0.00190632
0.0019346
0.00183322
0.00167244
0.0015148
0.00139358
0.0013254
0.00129226
0.00127756
0.0012709
0.00126619
0.00126028
0.00125225
0.00124358
0.00123671
0.0012315
0.00122096
0.00119844
0.00115661
0.00109179
0.00100939
0.000922571
0.000835572
0.000758328
0.000695249
0.000648833
0.000619926
0.000605955
0.000596846
0.000572933
0.000586385
0.000539789
)
;

boundaryField
{
    floor
    {
        Cmu             0.09;
        kappa           0.41;
        E               9.8;
        type            epsilonWallFunction;
        value           nonuniform List<scalar> 
29
(
0.000189164
4.62461e-05
0.000115224
0.000112387
0.000110325
0.000105015
9.57078e-05
8.05979e-05
6.61811e-05
5.44437e-05
4.5176e-05
3.78542e-05
3.20667e-05
2.73978e-05
2.35368e-05
2.02311e-05
1.72474e-05
1.4435e-05
1.07574e-05
9.71227e-06
9.71227e-06
2.02806e-05
2.71992e-05
3.95569e-05
0.000189164
4.62461e-05
0.000148583
0.000237467
0.000569708
)
;
    }
    ceiling
    {
        Cmu             0.09;
        kappa           0.41;
        E               9.8;
        type            epsilonWallFunction;
        value           nonuniform List<scalar> 
43
(
0.000913324
0.00107205
0.0012207
0.00169492
0.00174517
0.00165229
0.00162614
0.00178366
0.00190632
0.0019346
0.00183322
0.00167244
0.0015148
0.00139358
0.0013254
0.00129226
0.00127756
0.0012709
0.00126619
0.00126028
0.00125225
0.00124358
0.00123671
0.0012315
0.00122096
0.00119844
0.00115661
0.00109179
0.00100939
0.000922571
0.000835572
0.000758328
0.000695249
0.000648833
0.000619926
0.000605955
0.000596846
0.000572933
0.000586385
0.000539789
0.00488964
0.00852079
0.00101442
)
;
    }
    sWall
    {
        Cmu             0.09;
        kappa           0.41;
        E               9.8;
        type            epsilonWallFunction;
        value           uniform 0.000913324;
    }
    nWall
    {
        Cmu             0.09;
        kappa           0.41;
        E               9.8;
        type            epsilonWallFunction;
        value           nonuniform List<scalar> 6(5.48888e-05 0.000118265 0.000201748 0.000704112 0.000975054 0.000539789);
    }
    sideWalls
    {
        type            empty;
    }
    glass1
    {
        Cmu             0.09;
        kappa           0.41;
        E               9.8;
        type            epsilonWallFunction;
        value           nonuniform List<scalar> 9(0.000246542 0.000571412 0.000998639 0.00156888 0.0023437 0.00342348 0.00476439 0.00517528 0.00488964);
    }
    glass2
    {
        Cmu             0.09;
        kappa           0.41;
        E               9.8;
        type            epsilonWallFunction;
        value           nonuniform List<scalar> 2(0.000422286 0.000495441);
    }
    sun
    {
        Cmu             0.09;
        kappa           0.41;
        E               9.8;
        type            epsilonWallFunction;
        value           nonuniform List<scalar> 
14
(
0.000246542
0.000325908
0.000355904
0.000413626
0.000472835
0.000535133
0.000604775
0.000675583
0.000733811
0.000765959
0.000757827
0.000699175
0.00058456
0.000376864
)
;
    }
    heatsource1
    {
        Cmu             0.09;
        kappa           0.41;
        E               9.8;
        type            epsilonWallFunction;
        value           nonuniform List<scalar> 3(6.04493e-05 5.9296e-05 5.48888e-05);
    }
    heatsource2
    {
        Cmu             0.09;
        kappa           0.41;
        E               9.8;
        type            epsilonWallFunction;
        value           nonuniform List<scalar> 4(0.000354586 0.000141225 0.000141225 0.000353419);
    }
    Table_master
    {
        Cmu             0.09;
        kappa           0.41;
        E               9.8;
        type            epsilonWallFunction;
        value           nonuniform List<scalar> 9(0.000211881 0.000141762 9.86911e-05 7.15289e-05 5.37857e-05 4.18306e-05 3.35657e-05 2.77972e-05 2.39407e-05);
    }
    Table_slave
    {
        Cmu             0.09;
        kappa           0.41;
        E               9.8;
        type            epsilonWallFunction;
        value           nonuniform List<scalar> 9(0.000285156 0.000215096 0.000175383 0.000150626 0.00013319 0.000118545 0.000104288 9.09033e-05 7.67152e-05);
    }
    inlet
    {
        type            turbulentMixingLengthDissipationRateInlet;
        mixingLength    0.01;
        phi             phi;
        k               k;
        value           uniform 0.000101881;
    }
    outlet
    {
        type            zeroGradient;
    }
}


// ************************************************************************* //
