// -*- C++ -*-
// File generated by PyFoam - sorry for the ugliness

FoamFile
{
 version 2.0;
 format ascii;
 class volVectorField;
 location "1900";
 object U;
}

dimensions [ 0 1 -1 0 0 0 0 ];

internalField nonuniform List<vector> 459
(
  (0.346469 -0.156136 0)
  (0.268251 -0.148951 0)
  (0.400352 -0.099504 0)
  (0.502346 -0.065476 0)
  (0.549357 -0.0457893 0)
  (0.566933 -0.0327106 0)
  (0.572529 -0.0225589 0)
  (0.568674 -0.0137392 0)
  (0.554874 -0.00547864 0)
  (0.530518 0.00289027 0)
  (0.494732 0.0121257 0)
  (0.445717 0.0233931 0)
  (0.379674 0.0394175 0)
  (0.284561 0.06975 0)
  (0.210269 0.150302 0)
  (0.0190334 0.0111307 0)
  (-0.0253729 -0.0033842 0)
  (-0.0182594 -0.00462752 0)
  (-0.0170954 -0.00334564 0)
  (-0.015129 -0.00327572 0)
  (-0.0116571 -0.0050995 0)
  (-0.00501856 -0.00895307 0)
  (0.00332189 -0.00958956 0)
  (0.00968407 -0.00608378 0)
  (0.013703 -0.00436072 0)
  (0.0162266 -0.00333819 0)
  (0.0182942 -0.002639 0)
  (0.0202705 -0.00221738 0)
  (0.0219921 -0.00191171 0)
  (0.0235444 -0.00104055 0)
  (0.0227272 0.000238804 0)
  (0.0215183 -0.000437822 0)
  (0.0253726 1.77208e-05 0)
  (-0.0151799 0.00975469 0)
  (0.451641 -0.328316 0)
  (0.211735 -0.249591 0)
  (0.327587 -0.136943 0)
  (0.40901 -0.0699428 0)
  (0.440087 -0.0356448 0)
  (0.451828 -0.0135435 0)
  (0.457725 0.00479869 0)
  (0.456934 0.0207852 0)
  (0.447335 0.0353656 0)
  (0.428355 0.0499232 0)
  (0.399536 0.0657835 0)
  (0.360609 0.0844367 0)
  (0.312861 0.108274 0)
  (0.259595 0.142136 0)
  (0.229934 0.201516 0)
  (0.201154 0.174477 0)
  (0.094921 0.119369 0)
  (0.0723146 0.00866825 0)
  (0.033398 0.00623169 0)
  (0.019246 0.00397061 0)
  (0.0118545 0.00299867 0)
  (0.00550092 0.00209647 0)
  (-0.00292638 -0.00150081 0)
  (-0.0027795 -0.0102324 0)
  (-0.0057098 -0.0118459 0)
  (-0.00211381 -0.00541387 0)
  (0.000803491 -0.00302719 0)
  (0.00124953 -0.00239782 0)
  (0.000900867 -0.00222647 0)
  (3.10262e-05 -0.00208526 0)
  (-0.00159113 -0.00114719 0)
  (-0.00433729 0.000980971 0)
  (-0.00481436 0.00199926 0)
  (-0.00162229 -0.000629711 0)
  (0.00833082 0.00391537 0)
  (-0.0796919 0.0207176 0)
  (0.49231 -0.501632 0)
  (0.080829 -0.338921 0)
  (0.22021 -0.182842 0)
  (0.28184 -0.103274 0)
  (0.295883 -0.0642917 0)
  (0.303419 -0.0373269 0)
  (0.310514 -0.0137055 0)
  (0.315085 0.00950249 0)
  (0.312857 0.033438 0)
  (0.303267 0.0588669 0)
  (0.285908 0.0863585 0)
  (0.260831 0.116345 0)
  (0.229504 0.149241 0)
  (0.192909 0.184946 0)
  (0.164342 0.222584 0)
  (0.126031 0.185067 0)
  (0.0658364 0.140904 0)
  (0.046102 -0.0129917 0)
  (-0.0107848 -0.000304189 0)
  (-0.00571667 0.00491363 0)
  (-0.00326304 0.00524306 0)
  (-0.00137798 0.00486662 0)
  (-0.00107055 0.00416149 0)
  (0.00399746 -0.00694335 0)
  (-0.0153175 -0.0128313 0)
  (-0.0227616 -0.00907178 0)
  (-0.0266588 -0.00720299 0)
  (-0.0294566 -0.00578116 0)
  (-0.0316705 -0.004425 0)
  (-0.0333856 -0.0030879 0)
  (-0.0339158 -0.00179877 0)
  (-0.0317578 -0.00063849 0)
  (-0.0268728 0.00161185 0)
  (-0.0231566 0.00396192 0)
  (-0.0302237 0.00559469 0)
  (-0.078073 0.00595513 0)
  (0.508627 -0.612509 0)
  (-0.0462886 -0.385301 0)
  (0.139852 -0.204041 0)
  (0.171306 -0.117145 0)
  (0.164466 -0.0746092 0)
  (0.169245 -0.0429654 0)
  (0.176818 -0.0150613 0)
  (0.184425 0.0122852 0)
  (0.186973 0.0407966 0)
  (0.183969 0.0716758 0)
  (0.174853 0.105184 0)
  (0.159299 0.140989 0)
  (0.137774 0.17819 0)
  (0.109109 0.214964 0)
  (0.0833718 0.248647 0)
  (0.0509238 0.229961 0)
  (0.0184117 0.19054 0)
  (-0.0576346 0.0320981 0)
  (-0.0376822 0.00158427 0)
  (-0.0428365 0.00341987 0)
  (-0.0429839 0.00515498 0)
  (-0.0450295 0.00605802 0)
  (-0.0487626 0.0052287 0)
  (-0.0537835 0.00262115 0)
  (-0.0583369 -0.000310041 0)
  (-0.059185 -0.00210769 0)
  (-0.0584944 -0.00335025 0)
  (-0.056318 -0.00421543 0)
  (-0.0531115 -0.0048529 0)
  (-0.0491481 -0.00535064 0)
  (-0.0444917 -0.00576618 0)
  (-0.0388857 -0.00607575 0)
  (-0.0316681 -0.00597376 0)
  (-0.0242181 -0.00527976 0)
  (-0.0138472 -0.00486663 0)
  (-0.00136245 -0.00543601 0)
  (-0.00635857 -0.00412382 0)
  (0.496813 -0.673071 0)
  (-0.135466 -0.414119 0)
  (0.0872929 -0.216009 0)
  (0.0778162 -0.115006 0)
  (0.0491837 -0.078267 0)
  (0.0585407 -0.0493703 0)
  (0.0671903 -0.0223421 0)
  (0.0757554 0.00686318 0)
  (0.0793111 0.0395322 0)
  (0.0787759 0.0757779 0)
  (0.0736779 0.11504 0)
  (0.0634695 0.156398 0)
  (0.0482211 0.198604 0)
  (0.0262016 0.239797 0)
  (0.00804618 0.276903 0)
  (-0.0152779 0.265429 0)
  (-0.0257888 0.212796 0)
  (-0.0590829 0.0430197 0)
  (-0.052604 0.007821 0)
  (-0.0606361 0.005835 0)
  (-0.063718 0.00735803 0)
  (-0.064968 0.00846867 0)
  (-0.0653097 0.0081677 0)
  (-0.0651889 0.00631903 0)
  (-0.0646457 0.0034359 0)
  (-0.0636473 0.000378748 0)
  (-0.0622736 -0.00195501 0)
  (-0.0604424 -0.00365921 0)
  (-0.0582056 -0.00494991 0)
  (-0.0556429 -0.00607249 0)
  (-0.0527422 -0.00731625 0)
  (-0.0492824 -0.00902392 0)
  (-0.0447511 -0.0115086 0)
  (-0.0383441 -0.0148363 0)
  (-0.0289172 -0.0188543 0)
  (-0.0146649 -0.0239351 0)
  (0.0087482 -0.0274855 0)
  (0.0385624 -0.0367402 0)
  (0.0798512 -0.0190989 0)
  (-0.0498008 0.0254674 0)
  (0.446083 -0.686204 0)
  (-0.176254 -0.425206 0)
  (0.0327058 -0.205534 0)
  (-0.00659426 -0.0860132 0)
  (-0.0453817 -0.0783151 0)
  (-0.0320227 -0.0567337 0)
  (-0.0261606 -0.0311057 0)
  (-0.0194758 0.000356191 0)
  (-0.0178272 0.0375111 0)
  (-0.0177416 0.0780122 0)
  (-0.0201789 0.121792 0)
  (-0.0258496 0.167833 0)
  (-0.0348203 0.214666 0)
  (-0.0476108 0.259113 0)
  (-0.0548537 0.292485 0)
  (-0.063097 0.278859 0)
  (-0.0571805 0.210477 0)
  (-0.0640481 0.053545 0)
  (-0.0616477 0.0166702 0)
  (-0.0672489 0.00986125 0)
  (-0.0689607 0.00856142 0)
  (-0.0683832 0.00788693 0)
  (-0.0665505 0.00652045 0)
  (-0.0642924 0.00420007 0)
  (-0.0621676 0.0012839 0)
  (-0.0603609 -0.00159757 0)
  (-0.0590019 -0.00389102 0)
  (-0.0579568 -0.00558086 0)
  (-0.057228 -0.00681469 0)
  (-0.0569053 -0.00783591 0)
  (-0.0570807 -0.00903133 0)
  (-0.0577111 -0.010975 0)
  (-0.0584631 -0.0143613 0)
  (-0.0585378 -0.0198133 0)
  (-0.056638 -0.0277289 0)
  (-0.0510633 -0.0387579 0)
  (-0.0405505 -0.0517124 0)
  (-0.0282931 -0.0607847 0)
  (0.0413667 -0.0181405 0)
  (-0.10093 0.0711029 0)
  (0.339882 -0.631025 0)
  (-0.184479 -0.391915 0)
  (-0.0716804 -0.177259 0)
  (-0.0839495 -0.0554084 0)
  (-0.137476 -0.0750136 0)
  (-0.125358 -0.0604938 0)
  (-0.120619 -0.0346254 0)
  (-0.115817 -0.00103091 0)
  (-0.111112 0.0372731 0)
  (-0.108576 0.0791812 0)
  (-0.106558 0.124576 0)
  (-0.105408 0.17249 0)
  (-0.105005 0.220925 0)
  (-0.104859 0.264958 0)
  (-0.0991067 0.292378 0)
  (-0.091309 0.27285 0)
  (-0.0730739 0.193272 0)
  (-0.0649841 0.0569862 0)
  (-0.063284 0.0210274 0)
  (-0.0647691 0.0113064 0)
  (-0.0635293 0.00764775 0)
  (-0.0605816 0.00540926 0)
  (-0.0568656 0.00335007 0)
  (-0.0531602 0.00111433 0)
  (-0.0500349 -0.00121018 0)
  (-0.0479795 -0.00329344 0)
  (-0.0468224 -0.0049039 0)
  (-0.0464518 -0.00594711 0)
  (-0.0468991 -0.00643158 0)
  (-0.0483917 -0.00650446 0)
  (-0.0513478 -0.00656669 0)
  (-0.056224 -0.00737864 0)
  (-0.063288 -0.00991765 0)
  (-0.0723133 -0.015025 0)
  (-0.0827344 -0.023377 0)
  (-0.0934477 -0.0353548 0)
  (-0.100994 -0.0487426 0)
  (-0.101067 -0.0520627 0)
  (-0.100253 -0.0139518 0)
  (-0.160995 0.119752 0)
  (0.178594 -0.493363 0)
  (-0.294785 -0.309005 0)
  (-0.281061 -0.16229 0)
  (-0.183383 -0.030537 0)
  (-0.249641 -0.0854441 0)
  (-0.221221 -0.0719697 0)
  (-0.210514 -0.0428105 0)
  (-0.202711 -0.00650472 0)
  (-0.194584 0.0334663 0)
  (-0.187891 0.0757863 0)
  (-0.179656 0.120769 0)
  (-0.169451 0.167835 0)
  (-0.156906 0.214723 0)
  (-0.141638 0.255566 0)
  (-0.121408 0.276995 0)
  (-0.0990704 0.252532 0)
  (-0.0719776 0.169071 0)
  (-0.0554581 0.0542622 0)
  (-0.0530605 0.0204618 0)
  (-0.0508045 0.00918173 0)
  (-0.0461248 0.00396679 0)
  (-0.0402583 0.000896379 0)
  (-0.034669 -0.000979541 0)
  (-0.0301848 -0.00231267 0)
  (-0.0271126 -0.00343458 0)
  (-0.0252478 -0.00440196 0)
  (-0.0243638 -0.00508012 0)
  (-0.0242494 -0.00526975 0)
  (-0.0248046 -0.00478309 0)
  (-0.0261194 -0.00351722 0)
  (-0.0285487 -0.00156356 0)
  (-0.0325651 0.000668048 0)
  (-0.0396826 0.00207664 0)
  (-0.0520297 0.000580421 0)
  (-0.0717762 -0.00667075 0)
  (-0.099042 -0.0214961 0)
  (-0.128216 -0.042581 0)
  (-0.158199 -0.0686023 0)
  (-0.205095 -0.0956618 0)
  (-0.39241 -0.122224 0)
  (-0.063288 -0.348102 0)
  (-0.618555 -0.299639 0)
  (-0.822587 -0.282384 0)
  (-0.229734 -0.149574 0)
  (-0.342005 -0.12643 0)
  (-0.289702 -0.091085 0)
  (-0.275365 -0.0537854 0)
  (-0.267844 -0.0164354 0)
  (-0.259681 0.0231963 0)
  (-0.24916 0.0648381 0)
  (-0.234102 0.107534 0)
  (-0.213683 0.151168 0)
  (-0.187607 0.193845 0)
  (-0.156356 0.229982 0)
  (-0.120982 0.246986 0)
  (-0.0856113 0.221734 0)
  (-0.0505165 0.142801 0)
  (-0.0266326 0.0479744 0)
  (-0.02403 0.0177354 0)
  (-0.0197502 0.0063354 0)
  (-0.0115541 0.000806753 0)
  (-0.00506447 -0.00152675 0)
  (-0.000120197 -0.00215509 0)
  (0.00328868 -0.00220425 0)
  (0.00537116 -0.00224159 0)
  (0.00646099 -0.0023624 0)
  (0.00680831 -0.00242791 0)
  (0.00665246 -0.0022111 0)
  (0.00621616 -0.00146121 0)
  (0.00570225 3.83256e-05 0)
  (0.00530576 0.00238758 0)
  (0.00527904 0.00557152 0)
  (0.00567904 0.00928056 0)
  (0.00643079 0.0124548 0)
  (0.00734644 0.0133471 0)
  (0.00968598 0.0108548 0)
  (0.0109763 0.00520069 0)
  (0.0160663 -0.00391896 0)
  (0.0432868 -0.0534679 0)
  (-0.261844 -0.166747 0)
  (-1.83 -0.299882 0)
  (-0.101447 -0.268307 0)
  (-0.325678 -0.163962 0)
  (-0.308317 -0.0982567 0)
  (-0.308543 -0.0445353 0)
  (-0.306973 2.29171e-05 0)
  (-0.300188 0.0350772 0)
  (-0.287467 0.0644766 0)
  (-0.266915 0.0954302 0)
  (-0.237106 0.128092 0)
  (-0.197977 0.160956 0)
  (-0.151098 0.189461 0)
  (-0.100222 0.203159 0)
  (-0.0509036 0.1821 0)
  (-0.00185769 0.111008 0)
  (0.0296599 0.0414318 0)
  (0.0336082 0.0169288 0)
  (0.0376842 0.00442994 0)
  (0.0407328 -0.0023787 0)
  (0.0423529 -0.00423519 0)
  (0.0431423 -0.00387321 0)
  (0.043487 -0.00294033 0)
  (0.0435574 -0.00211739 0)
  (0.0433921 -0.00150934 0)
  (0.0429933 -0.000956597 0)
  (0.0424137 -0.000228407 0)
  (0.0417922 0.000900247 0)
  (0.0413705 0.00260705 0)
  (0.04151 0.004928 0)
  (0.0424947 0.00740692 0)
  (0.0450129 0.00934349 0)
  (0.0492234 0.00960177 0)
  (0.055093 0.00579584 0)
  (0.0623347 -0.00344074 0)
  (0.0688525 -0.0159754 0)
  (0.0739909 -0.0302867 0)
  (0.0871241 -0.0595123 0)
  (-0.026912 -0.12327 0)
  (-0.294461 0.0289498 0)
  (-0.0164507 -0.240615 0)
  (-0.232136 -0.176362 0)
  (-0.282595 -0.150896 0)
  (-0.316917 -0.130801 0)
  (-0.332647 -0.106886 0)
  (-0.332162 -0.0738374 0)
  (-0.317573 -0.0325876 0)
  (-0.290858 0.00396145 0)
  (-0.251085 0.0384248 0)
  (-0.198529 0.0717078 0)
  (-0.135579 0.101233 0)
  (-0.0675562 0.117516 0)
  (0.00902382 0.0946784 0)
  (0.0714046 0.0251474 0)
  (0.1048 -0.034211 0)
  (0.112534 -0.0704891 0)
  (0.109456 -0.0890775 0)
  (0.102688 -0.0927021 0)
  (0.0958878 -0.0899592 0)
  (0.0905831 -0.0855071 0)
  (0.0869102 -0.0814288 0)
  (0.0844142 -0.078374 0)
  (0.082563 -0.0763216 0)
  (0.0809693 -0.075001 0)
  (0.0794579 -0.0740947 0)
  (0.0780598 -0.0733202 0)
  (0.076987 -0.0724603 0)
  (0.0766103 -0.0713672 0)
  (0.0771575 -0.0699397 0)
  (0.078711 -0.0683998 0)
  (0.0813563 -0.0675829 0)
  (0.0844977 -0.0680964 0)
  (0.0868014 -0.0696866 0)
  (0.0875173 -0.0719348 0)
  (0.0849574 -0.0731551 0)
  (0.106437 -0.0801995 0)
  (-0.00519188 -0.127471 0)
  (0.565374 0.214185 0)
  (0.226651 -0.212147 0)
  (-0.185612 0.290922 0)
  (-0.0218484 0.134758 0)
  (-0.185848 0.188185 0)
  (-0.247099 0.217975 0)
  (-0.289822 0.230823 0)
  (-0.314553 0.233176 0)
  (-0.322243 0.226475 0)
  (-0.311968 0.214404 0)
  (-0.283169 0.210304 0)
  (-0.23642 0.212103 0)
  (-0.173451 0.218961 0)
  (-0.0992262 0.229831 0)
  (-0.0110705 0.240282 0)
  (0.0807581 0.233395 0)
  (0.139092 0.22977 0)
  (0.170993 0.238139 0)
  (0.180624 0.250167 0)
  (0.178611 0.257058 0)
  (0.172559 0.253473 0)
  (0.166298 0.245358 0)
  (0.160238 0.23702 0)
  (0.154215 0.230503 0)
  (0.148256 0.226339 0)
  (0.142499 0.224283 0)
  (0.137083 0.223766 0)
  (0.132126 0.224139 0)
  (0.127729 0.224813 0)
  (0.123963 0.225322 0)
  (0.120853 0.225315 0)
  (0.118324 0.224461 0)
  (0.116108 0.222525 0)
  (0.113505 0.21944 0)
  (0.109149 0.215033 0)
  (0.101079 0.209075 0)
  (0.0866346 0.201454 0)
  (0.0606766 0.190863 0)
  (0.117746 0.181299 0)
  (-0.353698 0.330474 0)
)
;

boundaryField
{
  floor
  {
    type noSlip;
  }
  ceiling
  {
    type noSlip;
  }
  sWall
  {
    type noSlip;
  }
  nWall
  {
    type noSlip;
  }
  sideWalls
  {
    type empty;
  }
  glass1
  {
    type noSlip;
  }
  glass2
  {
    type noSlip;
  }
  sun
  {
    type noSlip;
  }
  heatsource1
  {
    type noSlip;
  }
  heatsource2
  {
    type noSlip;
  }
  Table_master
  {
    type noSlip;
  }
  Table_slave
  {
    type noSlip;
  }
  inlet
  {
    type fixedValue;
    value uniform (0.1 0 0);
  }
  outlet
  {
    type zeroGradient;
  }
} 	// ************************************************************************* //

