/*--------------------------------*- C++ -*----------------------------------*\
  =========                 |
  \\      /  F ield         | OpenFOAM: The Open Source CFD Toolbox
   \\    /   O peration     | Website:  https://openfoam.org
    \\  /    A nd           | Version:  6
     \\/     M anipulation  |
\*---------------------------------------------------------------------------*/
FoamFile
{
    version     2.0;
    format      ascii;
    class       volScalarField;
    location    "1000";
    object      nut;
}
// * * * * * * * * * * * * * * * * * * * * * * * * * * * * * * * * * * * * * //

dimensions      [0 2 -1 0 0 0 0];

internalField   nonuniform List<scalar> 
459
(
0.000792821
0.000836848
0.000828216
0.000856061
0.000880163
0.000900731
0.000918678
0.00093494
0.000950533
0.000964047
0.000971547
0.000971461
0.000963761
0.000951524
0.000937515
0.000554983
0.000512362
0.000480824
0.00045864
0.000441283
0.000424792
0.000406191
0.000388261
0.000371582
0.000356011
0.000341486
0.000327914
0.000315158
0.000303015
0.000291172
0.000279114
0.000265903
0.000257668
0.000237423
0.00117129
0.00216763
0.00191061
0.00221926
0.00241935
0.00262347
0.00282084
0.00299434
0.00311764
0.00318737
0.00320549
0.00313419
0.00291896
0.00248253
0.00174118
0.000950926
0.00085395
0.000687809
0.00100531
0.00123259
0.00138923
0.0014682
0.00144381
0.00120802
0.00106666
0.000955332
0.000865099
0.00078945
0.000724248
0.000666117
0.000611642
0.000558856
0.000514535
0.000474483
0.000567135
0.000319066
0.00150978
0.00312887
0.00217162
0.00309423
0.0033726
0.00355728
0.0036916
0.00378933
0.00385952
0.0039092
0.00394096
0.00392673
0.00382985
0.00360358
0.00315738
0.00232542
0.00102839
0.000802976
0.0017022
0.00207343
0.00220984
0.00222188
0.00194572
0.000529015
0.000471907
0.00042794
0.000393597
0.00036624
0.000344032
0.000325776
0.00031082
0.000299144
0.000332084
0.000383272
0.000637686
0.000375587
0.00185472
0.00449764
0.00213167
0.00338123
0.00378813
0.00390647
0.00394357
0.0039512
0.00396212
0.00398744
0.00402619
0.00405414
0.0040477
0.00399375
0.00385666
0.00347733
0.002458
0.000986204
0.00255611
0.00275144
0.00272286
0.0026621
0.00257346
0.00218944
0.000555148
0.000527192
0.000516956
0.000513307
0.000509412
0.000500319
0.000484854
0.000467671
0.000445628
0.000419947
0.000415547
0.000747233
0.000423103
0.00221028
0.00632062
0.00257839
0.00316676
0.00389826
0.00402418
0.00400211
0.00394155
0.00390656
0.00391804
0.00397483
0.00403309
0.00406275
0.0040618
0.00404654
0.00401934
0.00391881
0.00357398
0.00333927
0.00308991
0.00286055
0.00271142
0.00262498
0.00252159
0.00223602
0.0021979
0.00220921
0.00221497
0.00219261
0.00212802
0.00198602
0.00173888
0.00142698
0.00108874
0.000805
0.000767948
0.000568785
0.000562066
0.000681346
0.000761034
0.00258071
0.00830486
0.00428171
0.0029353
0.00352755
0.00386834
0.00396318
0.00392776
0.00384709
0.00384516
0.0039333
0.00401379
0.00405218
0.00404444
0.00401814
0.00400601
0.0039776
0.00379982
0.00346805
0.00311567
0.0028026
0.00260515
0.00253053
0.00252865
0.00254916
0.00259887
0.00263936
0.00265351
0.00263591
0.00258512
0.00250029
0.00231987
0.00203969
0.00166808
0.00129203
0.000943691
0.000759195
0.000669403
0.000975457
0.000788441
0.0029416
0.00989384
0.00726062
0.00439043
0.00342317
0.00327528
0.0034903
0.00375579
0.00380375
0.00386762
0.00395798
0.00402524
0.00404664
0.00401318
0.0039546
0.00391536
0.00388453
0.00375866
0.00347532
0.00308656
0.00271932
0.00250816
0.00245165
0.00247651
0.00253111
0.00258808
0.00262658
0.00263994
0.00263228
0.00260948
0.00257918
0.00253299
0.00233827
0.00202073
0.00168161
0.00134226
0.00111124
0.00102847
0.00103533
0.000863613
0.00302673
0.00952041
0.00819787
0.00705033
0.00565761
0.0046155
0.00413936
0.00408198
0.00408364
0.00405849
0.00405751
0.00406476
0.00404116
0.00396215
0.0038659
0.00381187
0.0037991
0.00372106
0.00346275
0.00303335
0.0026495
0.00245935
0.00240978
0.00241823
0.00244163
0.00246038
0.002467
0.00246404
0.00246154
0.00247285
0.00251145
0.00258405
0.00262564
0.00239159
0.00217958
0.00206984
0.00213751
0.00239512
0.00310046
0.00135739
0.00296064
0.00355586
0.00418251
0.00447183
0.00456725
0.00443073
0.00424244
0.0041186
0.00404588
0.00404008
0.00406038
0.00405942
0.003993
0.00384764
0.00371047
0.00366464
0.0036975
0.00366406
0.00338845
0.00292754
0.00258584
0.0024315
0.00237367
0.00234766
0.00232587
0.00229633
0.00225507
0.00220493
0.00215286
0.00210494
0.00206243
0.00202186
0.00198112
0.00194829
0.00194445
0.00197086
0.00198374
0.00193529
0.00182241
0.00127108
0.00254398
0.00504466
0.00489492
0.00477735
0.00466061
0.00457262
0.00450637
0.00441566
0.00429395
0.00412563
0.00388841
0.00359441
0.00342645
0.00344227
0.00356331
0.00356316
0.00322047
0.00281844
0.00258452
0.00246913
0.00239623
0.00233174
0.00226489
0.00219322
0.00211744
0.00204075
0.00196948
0.00191288
0.00188049
0.00187862
0.00190195
0.0019353
0.00197715
0.00201405
0.00201706
0.00196208
0.00175179
0.00102649
0.00241524
0.0055227
0.00531668
0.00509002
0.00489087
0.00472835
0.00454828
0.00433328
0.00401522
0.00365032
0.00325022
0.00285479
0.0028726
0.00314756
0.00349336
0.0036132
0.00339113
0.00314816
0.00298935
0.0028882
0.00280483
0.00271693
0.00261615
0.00250286
0.00238311
0.00226602
0.00216101
0.00207533
0.00201192
0.00196884
0.00196819
0.00199927
0.00204318
0.00207436
0.00207021
0.00205655
0.00155771
0.00104914
0.00191334
0.00208094
0.00222128
0.00237496
0.00224802
0.00214278
0.00194825
0.0017765
0.00160175
0.00142986
0.00129354
0.00116778
0.00103764
0.000891126
0.000797718
0.000816589
0.000824517
0.000800558
0.000766226
0.000743137
0.000729637
0.000720298
0.00071202
0.000704039
0.000697078
0.000692694
0.000692708
0.000698734
0.00071195
0.000733254
0.00076382
0.000805338
0.00085246
0.00090493
0.000961755
0.00102041
0.00103089
0.000920102
0.000892192
0.00108268
)
;

boundaryField
{
    floor
    {
        type            nutkWallFunction;
        Cmu             0.09;
        kappa           0.41;
        E               9.8;
        value           nonuniform List<scalar> 
29
(
0.000113351
6.66815e-05
6.12772e-05
5.72425e-05
5.43849e-05
5.21372e-05
4.99915e-05
4.75583e-05
4.51993e-05
4.29924e-05
4.09205e-05
3.89773e-05
3.71518e-05
3.5427e-05
3.37766e-05
3.21585e-05
3.05019e-05
2.86761e-05
2.75321e-05
2.46978e-05
2.46977e-05
3.5958e-05
4.35265e-05
4.97756e-05
0.000113351
6.66815e-05
8.32233e-05
9.72519e-05
0.000119102
)
;
    }
    ceiling
    {
        type            nutkWallFunction;
        Cmu             0.09;
        kappa           0.41;
        E               9.8;
        value           nonuniform List<scalar> 
43
(
0.000223862
0.00024211
0.000257272
0.000273865
0.000260274
0.000248935
0.000227799
0.000208938
0.000189542
0.000170236
0.000154743
0.000140286
0.000125138
0.000107819
9.66201e-05
9.88986e-05
9.98497e-05
9.69582e-05
9.28011e-05
8.99935e-05
8.83474e-05
8.72065e-05
8.61939e-05
8.52162e-05
8.43627e-05
8.38248e-05
8.38271e-05
8.45676e-05
8.61883e-05
8.87929e-05
9.2514e-05
9.75403e-05
0.000103208
0.000109477
0.000116218
0.000123129
0.000124359
0.000111282
0.000107959
0.000130416
0.000336051
0.00039773
0.000277941
)
;
    }
    sWall
    {
        type            nutkWallFunction;
        Cmu             0.09;
        kappa           0.41;
        E               9.8;
        value           uniform 0.000223922;
    }
    nWall
    {
        type            nutkWallFunction;
        Cmu             0.09;
        kappa           0.41;
        E               9.8;
        value           nonuniform List<scalar> 6(9.2176e-05 9.54996e-05 0.000104548 0.00012385 0.000126504 0.000130424);
    }
    sideWalls
    {
        type            empty;
    }
    glass1
    {
        type            nutkWallFunction;
        Cmu             0.09;
        kappa           0.41;
        E               9.8;
        value           nonuniform List<scalar> 9(9.60319e-05 0.000140837 0.000179486 0.000217881 0.000256652 0.00029634 0.000334431 0.000343352 0.000336448);
    }
    glass2
    {
        type            nutkWallFunction;
        Cmu             0.09;
        kappa           0.41;
        E               9.8;
        value           nonuniform List<scalar> 2(0.000162089 0.000152234);
    }
    sun
    {
        type            nutkWallFunction;
        Cmu             0.09;
        kappa           0.41;
        E               9.8;
        value           nonuniform List<scalar> 
14
(
9.60317e-05
0.000101338
0.000100301
0.000103644
0.000106528
0.000108981
0.000111117
0.000113048
0.000114896
0.000116494
0.00011738
0.00011737
0.000116459
0.000115011
)
;
    }
    heatsource1
    {
        type            nutkWallFunction;
        Cmu             0.09;
        kappa           0.41;
        E               9.8;
        value           nonuniform List<scalar> 3(6.75845e-05 8.24328e-05 9.21767e-05);
    }
    heatsource2
    {
        type            nutkWallFunction;
        Cmu             0.09;
        kappa           0.41;
        E               9.8;
        value           nonuniform List<scalar> 4(0.000114938 0.000103386 0.000103386 0.000124064);
    }
    Table_master
    {
        type            nutkWallFunction;
        Cmu             0.09;
        kappa           0.41;
        E               9.8;
        value           nonuniform List<scalar> 9(6.3404e-05 5.61053e-05 5.0411e-05 4.5912e-05 4.22925e-05 3.93288e-05 3.68739e-05 3.48494e-05 3.32602e-05);
    }
    Table_slave
    {
        type            nutkWallFunction;
        Cmu             0.09;
        kappa           0.41;
        E               9.8;
        value           nonuniform List<scalar> 9(6.6712e-05 6.31734e-05 6.18721e-05 6.14074e-05 6.09111e-05 5.97503e-05 5.77701e-05 5.55606e-05 5.27112e-05);
    }
    inlet
    {
        type            calculated;
        value           uniform 0.000100623;
    }
    outlet
    {
        type            calculated;
        value           nonuniform List<scalar> 2(0.00191334 0.00208094);
    }
}


// ************************************************************************* //
