// -*- C++ -*-
// File generated by PyFoam - sorry for the ugliness

FoamFile
{
 version 2.0;
 format ascii;
 class volVectorField;
 location "1600";
 object U;
}

dimensions [ 0 1 -1 0 0 0 0 ];

internalField nonuniform List<vector> 459
(
  (0.0684467 0.0725959 0)
  (-0.14292 0.0119688 0)
  (-0.146278 0.0122613 0)
  (-0.16991 0.0105149 0)
  (-0.190656 0.00777225 0)
  (-0.207933 0.00462527 0)
  (-0.221057 0.00109265 0)
  (-0.229308 -0.00293412 0)
  (-0.231739 -0.00761026 0)
  (-0.227088 -0.0131922 0)
  (-0.213927 -0.0200859 0)
  (-0.189999 -0.028586 0)
  (-0.154172 -0.0400652 0)
  (-0.114282 -0.0576107 0)
  (-0.0996032 -0.0819165 0)
  (0.0168142 0.0054585 0)
  (-0.0168815 -0.00874246 0)
  (-0.00418493 -0.0133723 0)
  (0.0129887 -0.0145184 0)
  (0.0284151 -0.015519 0)
  (0.0444156 -0.0138224 0)
  (0.0569104 -0.00794475 0)
  (0.0627772 -0.00445537 0)
  (0.0638054 -0.00300967 0)
  (0.0628849 -0.0022608 0)
  (0.0615675 -0.00168934 0)
  (0.0600872 -0.00123269 0)
  (0.058379 -0.000846784 0)
  (0.0563461 -0.000389827 0)
  (0.0536239 0.000433207 0)
  (0.0493541 0.00196935 0)
  (0.0426453 0.00365099 0)
  (0.036946 0.00501495 0)
  (-0.00918202 0.0181664 0)
  (0.257801 0.154295 0)
  (-0.15311 0.0384065 0)
  (-0.125157 0.038149 0)
  (-0.152637 0.0346994 0)
  (-0.17393 0.0300404 0)
  (-0.191613 0.0246656 0)
  (-0.205327 0.0183812 0)
  (-0.214524 0.0108609 0)
  (-0.218346 0.00175201 0)
  (-0.215518 -0.00923247 0)
  (-0.205694 -0.0216406 0)
  (-0.188082 -0.0350571 0)
  (-0.163786 -0.0501686 0)
  (-0.138127 -0.0686845 0)
  (-0.116546 -0.0849892 0)
  (-0.0846934 -0.0708662 0)
  (-0.0496145 -0.0489606 0)
  (0.0794295 0.0157838 0)
  (0.01099 0.000182367 0)
  (0.00777283 -0.0116196 0)
  (0.0161812 -0.0189653 0)
  (0.0267149 -0.023942 0)
  (0.0380555 -0.0233933 0)
  (0.0483584 -0.00923024 0)
  (0.0504117 -0.000876905 0)
  (0.0494217 0.00233963 0)
  (0.0485729 0.00361656 0)
  (0.0482124 0.00427105 0)
  (0.0479254 0.00456556 0)
  (0.0476076 0.00471698 0)
  (0.0473058 0.00508509 0)
  (0.0466404 0.00633077 0)
  (0.0439471 0.0100449 0)
  (0.0370905 0.0131294 0)
  (0.0368178 0.0148604 0)
  (-0.0476818 0.0380656 0)
  (0.424971 0.23427 0)
  (-0.190556 0.0695138 0)
  (-0.0976655 0.0647297 0)
  (-0.128863 0.0557 0)
  (-0.148006 0.0470213 0)
  (-0.164388 0.037562 0)
  (-0.177597 0.0266496 0)
  (-0.187113 0.0138065 0)
  (-0.192006 -0.00125106 0)
  (-0.190751 -0.0183948 0)
  (-0.183281 -0.0372904 0)
  (-0.169946 -0.0567147 0)
  (-0.152678 -0.0757305 0)
  (-0.134579 -0.0930944 0)
  (-0.115688 -0.103514 0)
  (-0.093685 -0.100435 0)
  (-0.0914049 -0.102572 0)
  (0.0774651 0.00321969 0)
  (-0.000999469 -0.0018833 0)
  (0.00238431 -0.0125837 0)
  (0.0103821 -0.0249017 0)
  (0.0187784 -0.0340601 0)
  (0.0260553 -0.0392719 0)
  (0.0404523 -0.0246904 0)
  (0.0335416 -0.012935 0)
  (0.0265852 -0.00765544 0)
  (0.0261475 -0.00513683 0)
  (0.0283043 -0.00372757 0)
  (0.0305414 -0.00301993 0)
  (0.0326076 -0.00267969 0)
  (0.0349563 -0.00221659 0)
  (0.0382958 0.000361511 0)
  (0.0391821 0.0144674 0)
  (0.0312086 0.02209 0)
  (0.042076 0.0256081 0)
  (-0.0842377 0.0573262 0)
  (0.566982 0.300385 0)
  (-0.238013 0.102047 0)
  (-0.064997 0.0882375 0)
  (-0.100919 0.0743603 0)
  (-0.115565 0.0634866 0)
  (-0.128847 0.0519199 0)
  (-0.140279 0.038376 0)
  (-0.149277 0.0220514 0)
  (-0.154722 0.00240987 0)
  (-0.154608 -0.0204092 0)
  (-0.148826 -0.0449659 0)
  (-0.138923 -0.0688185 0)
  (-0.127245 -0.0897199 0)
  (-0.116347 -0.10551 0)
  (-0.107541 -0.113091 0)
  (-0.104336 -0.110479 0)
  (-0.113191 -0.0921721 0)
  (-0.100359 -0.0306892 0)
  (-0.0522769 -0.0200079 0)
  (-0.0308704 -0.0149935 0)
  (-0.0115428 -0.0227408 0)
  (0.000246425 -0.0331135 0)
  (0.00581163 -0.0405137 0)
  (0.00417122 -0.0430204 0)
  (0.00688289 -0.0225167 0)
  (0.026041 -0.016749 0)
  (0.0413985 -0.0140198 0)
  (0.0541348 -0.0123006 0)
  (0.0653551 -0.0107216 0)
  (0.0747351 -0.00869991 0)
  (0.0809244 -0.00573979 0)
  (0.0815252 -0.00152916 0)
  (0.074785 0.00448922 0)
  (0.0600955 0.0201232 0)
  (0.043769 0.0335803 0)
  (0.0541292 0.0435031 0)
  (-0.106759 0.0743183 0)
  (0.682213 0.354036 0)
  (-0.283574 0.133368 0)
  (-0.0306677 0.102812 0)
  (-0.0695612 0.0869788 0)
  (-0.0786634 0.0752104 0)
  (-0.0872748 0.0625696 0)
  (-0.0952447 0.0473668 0)
  (-0.102052 0.0285114 0)
  (-0.106587 0.00520329 0)
  (-0.105949 -0.0223996 0)
  (-0.100345 -0.0515636 0)
  (-0.0924988 -0.078015 0)
  (-0.0845838 -0.0988585 0)
  (-0.0783502 -0.112541 0)
  (-0.0746417 -0.118082 0)
  (-0.0741991 -0.115147 0)
  (-0.0742489 -0.100072 0)
  (-0.064964 -0.0655444 0)
  (-0.0459972 -0.0454348 0)
  (-0.0272004 -0.0362505 0)
  (-0.0119276 -0.0369437 0)
  (-0.00257049 -0.0413628 0)
  (0.00178772 -0.0437421 0)
  (0.00251328 -0.0404077 0)
  (0.00839118 -0.0273948 0)
  (0.0192975 -0.0214529 0)
  (0.0300153 -0.0187915 0)
  (0.0401548 -0.0171438 0)
  (0.0498893 -0.0151232 0)
  (0.0588523 -0.011509 0)
  (0.0661096 -0.00499049 0)
  (0.0703971 0.00484733 0)
  (0.0694599 0.0171153 0)
  (0.0637997 0.0326572 0)
  (0.0526757 0.047919 0)
  (0.0653824 0.0637956 0)
  (-0.00901947 0.0856802 0)
  (0.0464678 0.035017 0)
  (-0.0527124 -0.0290601 0)
  (-0.259192 -0.0513577 0)
  (0.758129 0.401126 0)
  (-0.320533 0.158948 0)
  (-0.00508677 0.101218 0)
  (-0.0336229 0.0933349 0)
  (-0.0376125 0.0827263 0)
  (-0.0416583 0.0690752 0)
  (-0.0452943 0.052849 0)
  (-0.0482928 0.0327917 0)
  (-0.0500499 0.0072053 0)
  (-0.0454613 -0.0247373 0)
  (-0.0389447 -0.0577047 0)
  (-0.0332736 -0.0850535 0)
  (-0.0295193 -0.104475 0)
  (-0.0283366 -0.115676 0)
  (-0.0297464 -0.118819 0)
  (-0.0331309 -0.113824 0)
  (-0.0355944 -0.0992307 0)
  (-0.0325691 -0.0767424 0)
  (-0.0240515 -0.0590711 0)
  (-0.0142064 -0.0488154 0)
  (-0.00619953 -0.0458885 0)
  (-0.00175211 -0.046435 0)
  (-0.000428336 -0.0456917 0)
  (-0.000584846 -0.0414862 0)
  (0.00196667 -0.0338659 0)
  (0.00775631 -0.0296043 0)
  (0.0145089 -0.0277517 0)
  (0.0217387 -0.0266407 0)
  (0.029435 -0.0249011 0)
  (0.0374322 -0.0210549 0)
  (0.0454452 -0.0132149 0)
  (0.0535196 0.000221286 0)
  (0.0585862 0.017138 0)
  (0.0604113 0.035196 0)
  (0.0591216 0.0523876 0)
  (0.0741287 0.070978 0)
  (0.0585901 0.0834664 0)
  (0.0898336 0.0632491 0)
  (0.109638 0.0430633 0)
  (-0.116676 -0.00206493 0)
  (0.783636 0.443576 0)
  (-0.335281 0.151185 0)
  (0.0125347 0.0564749 0)
  (0.0191288 0.0879539 0)
  (0.016738 0.0922175 0)
  (0.0130152 0.0756011 0)
  (0.0123815 0.0552501 0)
  (0.0135024 0.033169 0)
  (0.0155615 0.00440855 0)
  (0.0279256 -0.0319226 0)
  (0.0341466 -0.0642376 0)
  (0.0357604 -0.0886661 0)
  (0.0336762 -0.104709 0)
  (0.0284695 -0.112973 0)
  (0.0209231 -0.114125 0)
  (0.0121647 -0.108512 0)
  (0.00421187 -0.0960628 0)
  (-0.00020569 -0.0789729 0)
  (-0.000685113 -0.0633991 0)
  (0.000296909 -0.0528393 0)
  (0.000757191 -0.0480729 0)
  (-0.000638061 -0.0465706 0)
  (-0.00347683 -0.0444176 0)
  (-0.00651276 -0.0405931 0)
  (-0.00775955 -0.036294 0)
  (-0.00678372 -0.0338932 0)
  (-0.00447583 -0.0331064 0)
  (-0.00124705 -0.0329338 0)
  (0.00294301 -0.0321917 0)
  (0.0080075 -0.029477 0)
  (0.0143733 -0.0227947 0)
  (0.0229531 -0.00960871 0)
  (0.0362354 0.0104915 0)
  (0.0455876 0.0298089 0)
  (0.0534649 0.0460131 0)
  (0.071594 0.0616176 0)
  (0.0844806 0.0665847 0)
  (0.111266 0.0498783 0)
  (0.147806 0.0444187 0)
  (-0.0376965 0.0911721 0)
  (0.879356 0.457284 0)
  (-0.112564 0.131884 0)
  (0.0865048 -0.0234889 0)
  (0.138184 0.0192961 0)
  (0.122069 0.0548593 0)
  (0.104987 0.0517323 0)
  (0.100483 0.0340579 0)
  (0.101827 0.01163 0)
  (0.10888 -0.0169302 0)
  (0.117401 -0.0441359 0)
  (0.11761 -0.0676324 0)
  (0.111046 -0.0854741 0)
  (0.0999689 -0.0970309 0)
  (0.0860222 -0.10242 0)
  (0.0705861 -0.102 0)
  (0.0549075 -0.0961844 0)
  (0.0403114 -0.0856421 0)
  (0.0282611 -0.0721624 0)
  (0.0192509 -0.0589616 0)
  (0.0121885 -0.0488879 0)
  (0.00586448 -0.0434087 0)
  (-0.0012354 -0.0410873 0)
  (-0.008342 -0.0387085 0)
  (-0.0148134 -0.0358267 0)
  (-0.0198447 -0.0335903 0)
  (-0.0233343 -0.0328885 0)
  (-0.0257698 -0.0333227 0)
  (-0.0275437 -0.0341161 0)
  (-0.0288146 -0.0344303 0)
  (-0.0294654 -0.0333524 0)
  (-0.0289602 -0.0297635 0)
  (-0.0259039 -0.0224718 0)
  (-0.0153816 -0.0103637 0)
  (0.00594954 0.00746493 0)
  (0.0188104 0.0195495 0)
  (0.0377044 0.0260128 0)
  (0.0553219 0.0185718 0)
  (0.0738402 -0.00373997 0)
  (0.131069 0.0398983 0)
  (-0.382755 0.194394 0)
  (1.00927 0.426809 0)
  (0.47863 0.28296 0)
  (0.491742 0.195813 0)
  (0.486781 0.171073 0)
  (0.410504 0.152235 0)
  (0.339471 0.120691 0)
  (0.297402 0.0843827 0)
  (0.273212 0.0485085 0)
  (0.256517 0.0141648 0)
  (0.23414 -0.01827 0)
  (0.209487 -0.0447808 0)
  (0.184122 -0.0638384 0)
  (0.158639 -0.0757626 0)
  (0.133545 -0.0814521 0)
  (0.109374 -0.0816905 0)
  (0.0865809 -0.0770904 0)
  (0.0656176 -0.0685025 0)
  (0.0471005 -0.0575781 0)
  (0.0314492 -0.046709 0)
  (0.0183277 -0.0381701 0)
  (0.00689116 -0.0333186 0)
  (-0.00479494 -0.0310976 0)
  (-0.0150647 -0.0289918 0)
  (-0.024426 -0.0268672 0)
  (-0.0327327 -0.0257229 0)
  (-0.0402269 -0.0258346 0)
  (-0.0473803 -0.0266702 0)
  (-0.0546806 -0.0274912 0)
  (-0.0626222 -0.0275377 0)
  (-0.071738 -0.0259323 0)
  (-0.0826299 -0.0214802 0)
  (-0.0957319 -0.0127624 0)
  (-0.110321 0.00110388 0)
  (-0.123333 0.0186749 0)
  (-0.140334 0.0373 0)
  (-0.16965 0.0560316 0)
  (-0.213305 0.073015 0)
  (-0.263828 0.0865833 0)
  (-0.328764 0.0961364 0)
  (-0.580635 0.101556 0)
  (-0.489718 -0.00695029 0)
  (0.176583 0.122516 0)
  (0.252938 0.137946 0)
  (0.248291 0.12195 0)
  (0.249212 0.0922888 0)
  (0.249651 0.0572572 0)
  (0.24486 0.0244372 0)
  (0.234667 -0.00245485 0)
  (0.217824 -0.0234227 0)
  (0.196404 -0.0390362 0)
  (0.171995 -0.0498612 0)
  (0.146204 -0.0562147 0)
  (0.120388 -0.0582331 0)
  (0.0954113 -0.0560082 0)
  (0.0717464 -0.0501041 0)
  (0.0499648 -0.0421396 0)
  (0.0309932 -0.0343854 0)
  (0.0153955 -0.028686 0)
  (0.00208657 -0.025689 0)
  (-0.0105541 -0.0241386 0)
  (-0.0216904 -0.0219634 0)
  (-0.0322409 -0.0194217 0)
  (-0.0422772 -0.0175884 0)
  (-0.0521883 -0.0166055 0)
  (-0.0622948 -0.0158847 0)
  (-0.0727086 -0.0146574 0)
  (-0.0833484 -0.0122468 0)
  (-0.0939774 -0.00818709 0)
  (-0.104275 -0.00221946 0)
  (-0.113776 0.00586016 0)
  (-0.121149 0.0165877 0)
  (-0.125879 0.0322647 0)
  (-0.128845 0.0516671 0)
  (-0.131547 0.0706041 0)
  (-0.131516 0.0808526 0)
  (-0.114068 0.0640939 0)
  (-0.0750333 -0.0172699 0)
  (-0.259096 -0.186726 0)
  (-0.216336 0.170825 0)
  (0.116836 0.111639 0)
  (0.0926283 0.0920753 0)
  (0.115586 0.0913798 0)
  (0.146336 0.0736694 0)
  (0.16904 0.0451033 0)
  (0.181382 0.018161 0)
  (0.183294 -0.00321384 0)
  (0.177083 -0.018547 0)
  (0.163255 -0.029228 0)
  (0.144171 -0.0364225 0)
  (0.122072 -0.0406584 0)
  (0.0988369 -0.0422206 0)
  (0.0758737 -0.0415573 0)
  (0.0540271 -0.0399132 0)
  (0.0337831 -0.0384387 0)
  (0.0163132 -0.0367392 0)
  (0.00335957 -0.0358241 0)
  (-0.00638529 -0.0370151 0)
  (-0.0149148 -0.0393523 0)
  (-0.0238763 -0.0412991 0)
  (-0.0328392 -0.0429761 0)
  (-0.0417428 -0.0447855 0)
  (-0.0509918 -0.046875 0)
  (-0.0609101 -0.0490727 0)
  (-0.0714569 -0.0508752 0)
  (-0.0821211 -0.0514374 0)
  (-0.0918736 -0.0495873 0)
  (-0.0991549 -0.0437762 0)
  (-0.102199 -0.0318338 0)
  (-0.100375 -0.0141141 0)
  (-0.0927109 0.00713317 0)
  (-0.0785686 0.0302975 0)
  (-0.0585483 0.0508732 0)
  (-0.0358397 0.062653 0)
  (0.00286141 0.0477895 0)
  (0.139236 -0.0184118 0)
  (-0.194232 -0.0983273 0)
  (0.066303 -0.254524 0)
  (-0.331981 -0.0921992 0)
  (-0.267163 0.0872251 0)
  (-0.13652 0.0347509 0)
  (-0.0989293 0.0453653 0)
  (-0.0331601 0.0646688 0)
  (0.0416431 0.0612858 0)
  (0.0812989 0.0475277 0)
  (0.109403 0.0381481 0)
  (0.121691 0.0344422 0)
  (0.121216 0.0338302 0)
  (0.111159 0.0350049 0)
  (0.0946079 0.0383311 0)
  (0.0741128 0.0447326 0)
  (0.0516465 0.055804 0)
  (0.0293266 0.0736345 0)
  (0.0103493 0.0973387 0)
  (-0.00220051 0.117059 0)
  (-0.00950013 0.124118 0)
  (-0.0157225 0.126143 0)
  (-0.0223703 0.127695 0)
  (-0.028984 0.129521 0)
  (-0.0351118 0.131874 0)
  (-0.0404679 0.134322 0)
  (-0.0452164 0.13663 0)
  (-0.0496351 0.138889 0)
  (-0.0538955 0.141128 0)
  (-0.0580368 0.142987 0)
  (-0.061986 0.143642 0)
  (-0.0654835 0.141934 0)
  (-0.0678021 0.136514 0)
  (-0.0674426 0.125901 0)
  (-0.0615004 0.114303 0)
  (-0.0475232 0.107179 0)
  (-0.0258045 0.106049 0)
  (0.0120857 0.108527 0)
  (0.0480249 0.108465 0)
  (0.0832237 0.101191 0)
  (0.154619 0.0828318 0)
  (-0.259048 0.0444759 0)
)
;

boundaryField
{
  floor
  {
    type noSlip;
  }
  ceiling
  {
    type noSlip;
  }
  sWall
  {
    type noSlip;
  }
  nWall
  {
    type noSlip;
  }
  sideWalls
  {
    type empty;
  }
  glass1
  {
    type noSlip;
  }
  glass2
  {
    type noSlip;
  }
  sun
  {
    type noSlip;
  }
  heatsource1
  {
    type noSlip;
  }
  heatsource2
  {
    type noSlip;
  }
  Table_master
  {
    type noSlip;
  }
  Table_slave
  {
    type noSlip;
  }
  inlet
  {
    type fixedValue;
    value uniform (0.212132 -0.212132 0);
  }
  outlet
  {
    type zeroGradient;
  }
} 	// ************************************************************************* //

