/*--------------------------------*- C++ -*----------------------------------*\
  =========                 |
  \\      /  F ield         | OpenFOAM: The Open Source CFD Toolbox
   \\    /   O peration     | Website:  https://openfoam.org
    \\  /    A nd           | Version:  6
     \\/     M anipulation  |
\*---------------------------------------------------------------------------*/
FoamFile
{
    version     2.0;
    format      ascii;
    class       surfaceScalarField;
    location    "500";
    object      phi;
}
// * * * * * * * * * * * * * * * * * * * * * * * * * * * * * * * * * * * * * //

dimensions      [1 0 -1 0 0 0 0];

internalField   nonuniform List<scalar> 
852
(
-0.0028966
0.00295369
-0.00386212
0.00096553
-0.00462598
0.00076387
-0.00524938
0.000623414
-0.00570405
0.000454675
-0.00597025
0.000266211
-0.00602564
5.54036e-05
-0.00584567
-0.000179963
-0.00541815
-0.000427508
-0.00476482
-0.000653328
-0.00394221
-0.000822598
-0.00302689
-0.00091531
-0.0020874
-0.000939477
-0.00112554
-0.000961849
-0.00112407
-0.00059419
0.000597082
-0.000183694
-0.000410484
0.000427294
-0.000610976
0.000854904
-0.000427598
0.00111767
-0.000262755
0.00126892
-0.00015124
0.00134535
-7.64202e-05
0.00138218
-3.68109e-05
0.00140145
-1.92621e-05
0.00141127
-9.80704e-06
0.0014145
-3.2168e-06
0.00141191
2.60122e-06
0.00140128
1.06406e-05
0.0013742
2.70943e-05
0.00130879
6.54278e-05
0.00116894
0.000139866
0.000943908
0.000225041
0.000683868
0.000260054
0.00068779
-0.00206557
0.00517268
-0.00302712
0.00192709
-0.00381913
0.00155589
-0.00443115
0.00123544
-0.00487419
0.000897732
-0.00514075
0.000532774
-0.00520785
0.000122516
-0.00504908
-0.00033872
-0.00465831
-0.000818272
-0.0040688
-0.00124283
-0.00334634
-0.00154505
-0.00256938
-0.00169226
-0.00181793
-0.00169091
-0.00120438
-0.0015754
-0.0010178
-0.00131064
-0.000281729
-0.000736112
-0.00028177
0.000562944
4.21882e-05
0.000942001
-0.00078953
0.00113713
-0.000806098
0.00131328
-0.000603737
0.0014382
-0.000387656
0.00150166
-0.000214689
0.00150684
-8.15892e-05
0.00150823
-3.81947e-05
0.0015104
-2.14125e-05
0.00151226
-1.16614e-05
0.00151342
-4.35802e-06
0.0015136
2.43271e-06
0.00151185
1.24007e-05
0.0015046
3.43591e-05
0.00146327
0.000106768
0.0012895
0.000313656
0.000990047
0.000524503
0.000617271
0.000632843
0.00131494
-0.0014513
0.00685814
-0.00229399
0.00276979
-0.00299645
0.00225836
-0.00351646
0.00175545
-0.00390074
0.00128203
-0.00414224
0.000774283
-0.004206
0.000186285
-0.00404794
-0.000496775
-0.00366552
-0.00120068
-0.003111
-0.00179735
-0.00246005
-0.00219599
-0.00178713
-0.00236517
-0.00116135
-0.00231668
-0.000652128
-0.00208461
-0.000299164
-0.0016636
3.35382e-05
-0.0010688
-0.000248222
0.00139507
-0.00134461
0.00160799
-0.00100244
0.00159708
-0.000795185
0.00160567
-0.000612315
0.00162893
-0.000410907
0.00161817
-0.000203911
0.00153674
0.00149871
0.00147747
0.00146597
0.00146178
0.00146438
0.00147694
0.00151147
0.0016184
0.00133783
0.000594244
0.000993679
0.000868665
0.000552549
0.00107399
0.00188245
-0.00102262
0.0081832
-0.00170733
0.00345451
-0.0021706
0.00272164
-0.0025126
0.00209747
-0.00277513
0.00154457
-0.00294564
0.000944798
-0.00296789
0.000208549
-0.00277373
-0.000690928
-0.00238227
-0.00159213
-0.00187394
-0.00230567
-0.00132688
-0.00274304
-0.000799113
-0.00289294
-0.000330307
-0.00278548
6.44779e-05
-0.00247939
0.000409949
-0.00200906
0.000791302
-0.00145015
0.00145618
-0.000913089
0.00217545
-0.000711456
0.00173491
-0.000904054
0.00164534
-0.000912862
0.00158665
-0.000736487
0.00154098
-0.000566635
0.00153571
-0.000405622
0.00157776
-0.000245951
0.00169406
-0.000116445
0.00178637
-9.24517e-05
0.00186929
-8.30544e-05
0.00193834
-6.91917e-05
0.0019772
-3.90043e-05
0.00196207
1.49852e-05
0.00186717
9.47665e-05
0.001661
0.000206023
0.00129102
0.000369848
0.00115268
0.000732591
0.000851051
0.00117031
0.000382115
0.00154294
0.00228411
-0.000723802
0.00926712
-0.00126103
0.00399175
-0.00136153
0.00282215
-0.00144566
0.00218161
-0.00152216
0.00162108
-0.00156516
0.000987805
-0.00147051
0.000113905
-0.00118468
-0.000976747
-0.000790432
-0.00198637
-0.000375193
-0.0027209
6.3425e-06
-0.00312457
0.000323934
-0.00321052
0.000570568
-0.00303211
0.000760482
-0.00266929
0.000935515
-0.00218408
0.00113927
-0.00165389
0.00140576
-0.00117958
0.00159306
-0.000898746
0.00151468
-0.000825662
0.00136709
-0.000765257
0.00126147
-0.000630858
0.00118845
-0.000493603
0.00115621
-0.000373369
0.00117624
-0.000265973
0.00125344
-0.000193627
0.00133251
-0.000171514
0.00141472
-0.000165251
0.00149417
-0.000148627
0.00155824
-0.00010307
0.00158593
-1.2685e-05
0.00155584
0.000124869
0.00145746
0.000304414
0.00129347
0.000533848
0.00114613
0.000879945
0.000983905
0.00133255
0.000629579
0.00189728
0.000500564
0.00241314
-0.00101514
0.00151551
-0.00147311
0.000457784
-0.00142496
-0.000637276
0.010313
-0.00102413
0.00437862
-0.000626202
0.00242423
-0.000334269
0.00188969
-0.000150188
0.00143701
3.21118e-05
0.000805516
0.000336935
-0.000190908
0.000721747
-0.00136155
0.0010609
-0.00232551
0.00130306
-0.00296305
0.0014374
-0.00325891
0.00147828
-0.00325139
0.00145356
-0.00300738
0.00138845
-0.00260417
0.00131839
-0.00211402
0.00127271
-0.0016082
0.00125488
-0.00116173
0.00120895
-0.000852806
0.00107764
-0.000694347
0.000905872
-0.000593477
0.000768909
-0.000493884
0.000680797
-0.000405479
0.000643261
-0.000335821
0.000659158
-0.000281857
0.000717605
-0.000252061
0.000794528
-0.000248424
0.000881481
-0.000252192
0.000974307
-0.000241441
0.00106682
-0.00019557
0.00114702
-9.28731e-05
0.00119525
7.66556e-05
0.00120717
0.0002925
0.00119409
0.000546944
0.00120609
0.000867954
0.00129163
0.00124703
0.00146278
0.00172614
0.00189236
0.00198358
0.00214225
0.00126563
0.00175191
0.000848139
0.00038492
-0.000730249
0.0114954
-0.000648078
0.00429646
0.000418169
0.00135799
0.00105908
0.00124879
0.00148584
0.00101026
0.00197213
0.000319243
0.0024919
-0.000710671
0.00286653
-0.00173618
0.00304261
-0.00250158
0.00302457
-0.00294501
0.00284564
-0.00307996
0.0025538
-0.00295955
0.00220062
-0.00265419
0.00182972
-0.00223327
0.00147915
-0.00176344
0.00117451
-0.00130355
0.000921247
-0.000908456
0.000703308
-0.000634857
0.000493117
-0.000484145
0.000306035
-0.000406384
0.000167932
-0.00035577
8.4216e-05
-0.00032175
4.9817e-05
-0.00030141
5.95753e-05
-0.000291603
0.000101782
-0.000294255
0.000161645
-0.000308275
0.000232196
-0.00032273
0.000314254
-0.000323486
0.000412856
-0.000294159
0.00053292
-0.000212925
0.000661173
-5.15842e-05
0.000785263
0.000168422
0.000915793
0.000416427
0.00109542
0.000688343
0.00137371
0.000968748
0.00181424
0.00128562
0.00247822
0.00131961
0.0030144
0.000729469
0.00304576
0.000816791
0.00349395
0.00251616
0.00948454
0.00316441
0.00364822
0.00342703
0.00109538
0.00379342
0.000882403
0.00422663
0.000577062
0.00477774
-0.000231857
0.00519672
-0.00112964
0.00529404
-0.00183349
0.00507707
-0.0022846
0.00461385
-0.00248179
0.00398722
-0.00245333
0.00327881
-0.00225113
0.00255854
-0.00193392
0.001874
-0.00154872
0.00126218
-0.00115162
0.000746055
-0.000787416
0.000332712
-0.000495102
2.2309e-05
-0.000324444
-0.000207051
-0.000254773
-0.000371537
-0.000241885
-0.000484054
-0.000243241
-0.000555319
-0.000250473
-0.000594517
-0.0002622
-0.000608486
-0.000277621
-0.000605473
-0.000297256
-0.000594147
-0.000319588
-0.000578211
-0.000338654
-0.000555296
-0.000346389
-0.000516121
-0.000333321
-0.000440671
-0.000288363
-0.000295926
-0.000196316
-0.000102911
-2.45802e-05
0.000117832
0.000195697
0.000392022
0.000414166
0.000734121
0.000626662
0.00118751
0.000832245
0.00168247
0.000824667
0.0018868
0.000525149
0.001118
0.0015856
0.00486809
0.0100383
0.0136785
0.0123325
0.00244143
0.0113274
0.00188742
0.0105965
0.00130801
0.0098898
0.00047485
0.00897234
-0.00021218
0.00787
-0.000731145
0.0066716
-0.00108621
0.00544313
-0.00125331
0.00424068
-0.00125088
0.0031144
-0.00112484
0.00210356
-0.00092307
0.00121698
-0.000662137
0.000469226
-0.000403851
-0.000115134
-0.000203044
-0.000516692
-9.35324e-05
-0.000766374
-7.47486e-05
-0.000930766
-9.03681e-05
-0.00105282
-0.000119815
-0.00114785
-0.0001482
-0.00122461
-0.000173706
-0.00128919
-0.000197603
-0.00134691
-0.000219892
-0.00140401
-0.000240134
-0.00146757
-0.000256018
-0.00154396
-0.000262257
-0.00163958
-0.000250752
-0.00176253
-0.000210354
-0.00192366
-0.000127223
-0.0021309
1.09314e-05
-0.00236775
0.000212285
-0.0026607
0.00048866
-0.00310253
0.00085601
-0.00378801
0.00131216
-0.00478241
0.00182666
-0.00620035
0.00224262
-0.00791532
0.00224013
-0.00742592
0.00109621
-0.00227397
0.00477216
0.00377851
0.00423069
0.00242886
0.00494822
0.000590441
0.0050993
0.000323736
0.00478287
0.000104236
0.00422985
-0.00017814
0.00352046
-0.00037682
0.00270886
-0.000441711
0.00185887
-0.000400888
0.00102629
-0.000292251
0.000245718
-0.00014249
-0.000431125
1.47186e-05
-0.000931336
9.6371e-05
-0.00124214
0.000107772
-0.00141851
8.28513e-05
-0.00153246
3.92117e-05
-0.00162161
-1.2078e-06
-0.00170502
-3.63852e-05
-0.0017879
-6.53086e-05
-0.00187345
-8.81429e-05
-0.00196291
-0.000108134
-0.00205807
-0.000124714
-0.00216122
-0.000136981
-0.00227435
-0.000142866
-0.00239815
-0.000138446
-0.00253103
-0.000117861
-0.00266799
-7.33835e-05
-0.00280013
4.93276e-06
-0.00291491
0.00012572
-0.00300828
0.000305667
-0.00309104
0.000571438
-0.00317157
0.000936551
-0.00324857
0.00138917
-0.00327721
0.00185531
-0.00320265
0.00216807
-0.00285058
0.00188806
-0.00158022
-0.000174136
-0.00377961
-0.000579644
0.00441662
0.000543317
0.00130588
0.000589065
0.000544679
0.000595827
0.000316969
0.000534119
0.000165947
0.000313159
4.28285e-05
-6.40175e-05
3.71582e-07
-0.000534689
2.89731e-05
-0.00100869
7.3122e-05
-0.00142073
0.000119799
-0.0017221
0.000158896
-0.00188761
0.000180235
-0.00196516
0.000173938
-0.00200449
0.000147112
-0.00203251
0.000110882
-0.00206674
7.34605e-05
-0.00210908
4.11453e-05
-0.00216231
1.68568e-05
-0.00222487
-2.73242e-06
-0.00229518
-1.78246e-05
-0.00237307
-3.02271e-05
-0.00245747
-4.03022e-05
-0.00254664
-4.77989e-05
-0.00263773
-5.17652e-05
-0.0027259
-5.02646e-05
-0.00280354
-4.02088e-05
-0.00285943
-1.74759e-05
-0.00287923
2.47413e-05
-0.00285252
9.90266e-05
-0.00275773
0.000210891
-0.00256221
0.000375925
-0.00223932
0.000613682
-0.00177352
0.000923378
-0.00114159
0.0012234
-0.000167224
0.00119372
0.00115196
0.000568889
0.00158336
-0.000605516
-0.00211444
-0.0073706
-0.0102059
-0.0057464
-0.00441836
-0.00385923
-0.003532
-0.00335888
-0.00331132
-0.00330808
-0.00327773
-0.00320445
-0.00308557
-0.00292858
-0.00275117
-0.00258088
-0.0024381
-0.00233204
-0.00226373
-0.00222795
-0.00221659
-0.00222489
-0.00224831
-0.00228413
-0.00233
-0.00238333
-0.00244055
-0.00249618
-0.00254165
-0.00256427
-0.00254453
-0.00245035
-0.00224415
-0.00187275
-0.00126346
-0.000344349
0.000874853
0.0020643
0.00262875
0.00201852
)
;

boundaryField
{
    floor
    {
        type            calculated;
        value           nonuniform List<scalar> 
29
(
0
0
0
0
0
0
0
0
0
0
0
0
0
0
0
0
0
0
0
0
-3.90844e-06
-9.86947e-06
-1.49405e-05
-1.95352e-05
-1.46288e-06
-2.87974e-06
-8.0388e-06
-8.25919e-06
-7.80697e-06
)
;
    }
    ceiling
    {
        type            calculated;
        value           nonuniform List<scalar> 
43
(
-4.54481e-05
-4.41371e-05
-4.28234e-05
-2.21551e-05
-1.44368e-05
-1.02444e-05
-7.1562e-06
-4.72838e-06
-2.85528e-06
-1.36483e-06
-1.41108e-07
9.2982e-07
1.91533e-06
2.8393e-06
3.66475e-06
4.3399e-06
4.83423e-06
5.16753e-06
5.3803e-06
5.50908e-06
5.58003e-06
5.60691e-06
5.60631e-06
5.58165e-06
5.535e-06
5.46794e-06
5.38181e-06
5.27754e-06
5.15531e-06
5.01359e-06
4.85766e-06
4.6998e-06
4.54515e-06
4.40093e-06
4.28079e-06
4.20812e-06
4.27965e-06
4.45683e-06
4.72251e-06
5.78802e-06
1.11893e-05
8.06511e-06
-5.84796e-05
)
;
    }
    sWall
    {
        type            calculated;
        value           uniform -0.000273573;
    }
    nWall
    {
        type            calculated;
        value           nonuniform List<scalar> 6(-4.83429e-05 -5.79615e-05 -6.32531e-05 -7.45587e-05 -8.18018e-05 -0.000101693);
    }
    sideWalls
    {
        type            empty;
        value           nonuniform 0();
    }
    glass1
    {
        type            calculated;
        value           nonuniform List<scalar> 9(-5.70785e-05 -0.000153423 -0.000234145 -0.000302431 -0.000360112 -0.000408628 -0.000452116 -0.000505285 -0.00056498);
    }
    glass2
    {
        type            calculated;
        value           nonuniform List<scalar> 2(-0.000256128 -0.000283849);
    }
    sun
    {
        type            calculated;
        value           uniform 0;
    }
    heatsource1
    {
        type            calculated;
        value           nonuniform List<scalar> 3(2.04104e-07 2.04049e-07 2.04064e-07);
    }
    heatsource2
    {
        type            calculated;
        value           nonuniform List<scalar> 4(5.10611e-08 5.12033e-08 0 0);
    }
    Table_master
    {
        type            calculated;
        value           nonuniform List<scalar> 9(-1.53075e-07 -1.53137e-07 -1.53161e-07 -1.53177e-07 -1.53189e-07 -1.53197e-07 -1.53199e-07 -1.53194e-07 -1.53163e-07);
    }
    Table_slave
    {
        type            calculated;
        value           nonuniform List<scalar> 9(1.52965e-07 1.52976e-07 1.52953e-07 1.52933e-07 1.52923e-07 1.52928e-07 1.52941e-07 1.52982e-07 1.53063e-07);
    }
    inlet
    {
        type            calculated;
        value           uniform -0.00610926;
    }
    outlet
    {
        type            calculated;
        value           nonuniform List<scalar> 2(0.00768962 0.00287939);
    }
}


// ************************************************************************* //
