/*--------------------------------*- C++ -*----------------------------------*\
  =========                 |
  \\      /  F ield         | OpenFOAM: The Open Source CFD Toolbox
   \\    /   O peration     | Website:  https://openfoam.org
    \\  /    A nd           | Version:  6
     \\/     M anipulation  |
\*---------------------------------------------------------------------------*/
FoamFile
{
    version     2.0;
    format      ascii;
    class       volScalarField;
    location    "1300";
    object      nut;
}
// * * * * * * * * * * * * * * * * * * * * * * * * * * * * * * * * * * * * * //

dimensions      [0 2 -1 0 0 0 0];

internalField   nonuniform List<scalar> 
459
(
0.00114177
0.00125544
0.00128938
0.00135505
0.00141679
0.00147653
0.00153831
0.00158816
0.00161757
0.00162051
0.00159305
0.00153209
0.00143287
0.00127937
0.00104378
0.000512375
0.000613619
0.000709279
0.000738355
0.000726028
0.000699566
0.000654621
0.000607685
0.000565196
0.000527917
0.000495299
0.000466655
0.000441238
0.000418626
0.000397994
0.000378247
0.000357797
0.000338145
0.000303519
0.00152146
0.00383773
0.00374204
0.0043681
0.00500236
0.00560879
0.00606903
0.00647211
0.0068218
0.00708701
0.00724253
0.00726383
0.00710988
0.00668281
0.00545477
0.00123748
0.000862849
0.000519725
0.00124536
0.00181911
0.00226581
0.00253423
0.00252407
0.00187703
0.00157058
0.00136284
0.00120888
0.00108987
0.000995154
0.000918894
0.000848733
0.000777706
0.000711725
0.000654778
0.00071202
0.000366456
0.00183387
0.00522302
0.00468454
0.00568795
0.00621419
0.00661052
0.00691088
0.00721643
0.00754941
0.00788578
0.00819313
0.008434
0.00853098
0.00839604
0.00776256
0.00580115
0.00130191
0.000937713
0.00153091
0.0021607
0.0027696
0.00320419
0.00311952
0.000932854
0.000813514
0.000717374
0.000640098
0.000577545
0.000526426
0.000484293
0.000449794
0.000422488
0.000456609
0.00052721
0.000794032
0.00040896
0.00213094
0.0065485
0.00473969
0.00595495
0.00630089
0.00643964
0.00657235
0.00679554
0.00711144
0.00749199
0.0078982
0.00827896
0.00851852
0.00860799
0.00845728
0.00765831
0.00460818
0.00151019
0.00183802
0.00246171
0.00321049
0.0038983
0.00435341
0.00409274
0.00105915
0.000954447
0.000875634
0.000812461
0.000759942
0.000713105
0.000668372
0.000622801
0.000572338
0.000528689
0.000534652
0.000879286
0.000444599
0.00243427
0.00824515
0.0051598
0.0058368
0.00621119
0.00620203
0.00623889
0.00641398
0.00671697
0.00712065
0.00756698
0.0079629
0.0082306
0.0083456
0.00831515
0.00806602
0.00727869
0.00630838
0.00605416
0.00610929
0.00625946
0.00637314
0.00636501
0.00607964
0.00499597
0.00441645
0.00404633
0.00375589
0.00344598
0.00309485
0.00269194
0.00223825
0.0017497
0.00126962
0.000928065
0.000931717
0.000584698
0.000542267
0.000663952
0.000745318
0.00275845
0.0101267
0.00694662
0.0060189
0.00633932
0.00626944
0.0062589
0.00633755
0.0065792
0.00698711
0.00746883
0.00789051
0.00814579
0.00821012
0.00814957
0.00806755
0.00801479
0.00802294
0.00811842
0.00818175
0.00814053
0.00798416
0.00772008
0.00733563
0.00677422
0.00626048
0.00581173
0.00539113
0.00495094
0.00447645
0.00395312
0.00336978
0.00273024
0.00207139
0.001527
0.00117063
0.000841313
0.000698742
0.000985064
0.000773878
0.00304959
0.0114193
0.0095277
0.00768819
0.00726499
0.00681031
0.00647541
0.00641312
0.00665142
0.00712148
0.00767158
0.00812434
0.00835797
0.00836682
0.00827864
0.00829975
0.00856072
0.0089411
0.00920041
0.00922449
0.00903205
0.00868798
0.00824774
0.0077428
0.00718822
0.00664571
0.00613027
0.0056348
0.00515518
0.00469739
0.00424043
0.0037438
0.00319191
0.00260066
0.00207677
0.00164179
0.0012954
0.00114395
0.00109442
0.000860916
0.00310405
0.00995152
0.00899013
0.00813837
0.00727752
0.00657765
0.00626705
0.00639313
0.00688154
0.00756728
0.00823054
0.00867489
0.0088159
0.00872637
0.00863728
0.00880015
0.00921294
0.00955595
0.00961846
0.00940653
0.00899443
0.00845302
0.00783684
0.00718716
0.0065401
0.00592716
0.00535574
0.00482975
0.00436518
0.00398692
0.00370805
0.00347286
0.00315461
0.00276931
0.00245788
0.00226833
0.00223356
0.00238627
0.00303359
0.00132514
0.00302262
0.00357042
0.00390321
0.00398097
0.0041732
0.00467345
0.00549981
0.00656626
0.0076953
0.00866546
0.00927428
0.00942779
0.00922838
0.00897963
0.0090451
0.00919531
0.00929016
0.00922186
0.00894871
0.00848993
0.00789445
0.00721348
0.0064971
0.00579295
0.00513227
0.00452675
0.0039764
0.00348599
0.00306536
0.00271913
0.00244517
0.00224289
0.00209808
0.00199936
0.0019545
0.00195493
0.00195506
0.00190694
0.00179642
0.00124528
0.00128039
0.0029659
0.00577152
0.00782886
0.00925508
0.0101653
0.0105834
0.0105543
0.0101931
0.00960131
0.00898905
0.00860188
0.00845456
0.00829501
0.00801261
0.00759842
0.00706524
0.00644952
0.00580443
0.00517984
0.00460597
0.00409048
0.00362943
0.00321506
0.00284653
0.00253209
0.00228211
0.00210172
0.00198639
0.00192135
0.00189666
0.00190333
0.0019315
0.00196093
0.00195788
0.0018937
0.00168818
0.0010194
0.00189512
0.00600656
0.00856952
0.00962864
0.00998364
0.00988268
0.00942836
0.00877296
0.00809297
0.00748669
0.00698649
0.006595
0.00624806
0.00589059
0.00551915
0.00513681
0.00475071
0.00437943
0.00404147
0.00374409
0.00348281
0.00324773
0.00302979
0.00282378
0.00262901
0.00244854
0.00228779
0.00215315
0.00205044
0.00198371
0.00195467
0.00195887
0.00198126
0.001995
0.00197481
0.00197138
0.0015611
0.0010473
0.00175498
0.00186493
0.00194216
0.00213118
0.00207641
0.00202188
0.00196426
0.00186857
0.0017392
0.00159153
0.00144019
0.00130171
0.00119162
0.00111175
0.00105472
0.00101202
0.000977352
0.000946948
0.000919163
0.000893698
0.000870574
0.000849617
0.000830528
0.000813182
0.00079787
0.000785405
0.000776989
0.00077391
0.000777214
0.000787518
0.000805055
0.00082992
0.000862247
0.0009021
0.000948384
0.000996672
0.0010079
0.000898051
0.000885635
0.00110194
)
;

boundaryField
{
    floor
    {
        type            nutkWallFunction;
        Cmu             0.09;
        kappa           0.41;
        E               9.8;
        value           nonuniform List<scalar> 
29
(
0.000125874
6.12843e-05
7.40419e-05
8.5861e-05
8.94138e-05
8.79089e-05
8.46687e-05
7.91315e-05
7.33e-05
6.79738e-05
6.32602e-05
5.91022e-05
5.54226e-05
5.21339e-05
4.91879e-05
4.64823e-05
4.38759e-05
4.11582e-05
3.85276e-05
3.3843e-05
3.38429e-05
4.23107e-05
4.79217e-05
5.25691e-05
0.000125874
6.12843e-05
6.22207e-05
0.000113373
0.000179293
)
;
    }
    ceiling
    {
        type            nutkWallFunction;
        Cmu             0.09;
        kappa           0.41;
        E               9.8;
        value           nonuniform List<scalar> 
43
(
0.00020643
0.000218525
0.000226976
0.000247619
0.000241727
0.000235819
0.000229548
0.00021908
0.000204828
0.000188414
0.000171417
0.00015569
0.000143052
0.000133801
0.00012715
0.000122143
0.00011806
0.000114466
0.00011117
0.000108139
0.000105378
0.000102868
0.000100576
9.84876e-05
9.66397e-05
9.51321e-05
9.41125e-05
9.37391e-05
9.41395e-05
9.53871e-05
9.75062e-05
0.000100502
0.00010438
0.000109139
0.000114635
0.000120337
0.000121658
0.000108657
0.000107177
0.000132662
0.000342499
0.000399186
0.000221682
)
;
    }
    sWall
    {
        type            nutkWallFunction;
        Cmu             0.09;
        kappa           0.41;
        E               9.8;
        value           uniform 0.000206487;
    }
    nWall
    {
        type            nutkWallFunction;
        Cmu             0.09;
        kappa           0.41;
        E               9.8;
        value           nonuniform List<scalar> 6(9.02614e-05 9.37328e-05 0.000104221 0.000123017 0.000126288 0.00013267);
    }
    sideWalls
    {
        type            empty;
    }
    glass1
    {
        type            nutkWallFunction;
        Cmu             0.09;
        kappa           0.41;
        E               9.8;
        value           nonuniform List<scalar> 9(0.000137402 0.000180787 0.000215568 0.000248043 0.000280706 0.000315141 0.000345709 0.000351401 0.000342916);
    }
    glass2
    {
        type            nutkWallFunction;
        Cmu             0.09;
        kappa           0.41;
        E               9.8;
        value           nonuniform List<scalar> 2(0.000158412 0.000149272);
    }
    sun
    {
        type            nutkWallFunction;
        Cmu             0.09;
        kappa           0.41;
        E               9.8;
        value           nonuniform List<scalar> 
14
(
0.000137284
0.000150385
0.000154271
0.000161759
0.000168761
0.000175505
0.000182447
0.000188026
0.000191309
0.000191636
0.000188572
0.000181749
0.00017058
0.000153129
)
;
    }
    heatsource1
    {
        type            nutkWallFunction;
        Cmu             0.09;
        kappa           0.41;
        E               9.8;
        value           nonuniform List<scalar> 3(6.5081e-05 8.02857e-05 9.02625e-05);
    }
    heatsource2
    {
        type            nutkWallFunction;
        Cmu             0.09;
        kappa           0.41;
        E               9.8;
        value           nonuniform List<scalar> 4(0.000148318 0.000104448 0.000104448 0.0001557);
    }
    Table_master
    {
        type            nutkWallFunction;
        Cmu             0.09;
        kappa           0.41;
        E               9.8;
        value           nonuniform List<scalar> 9(0.000112791 9.85239e-05 8.68519e-05 7.73351e-05 6.95302e-05 6.30751e-05 5.76968e-05 5.32495e-05 4.96991e-05);
    }
    Table_slave
    {
        type            nutkWallFunction;
        Cmu             0.09;
        kappa           0.41;
        E               9.8;
        value           nonuniform List<scalar> 9(0.000127662 0.000115349 0.000105979 9.8397e-05 9.20412e-05 8.63291e-05 8.08317e-05 7.51856e-05 6.88748e-05);
    }
    inlet
    {
        type            calculated;
        value           uniform 0.000100623;
    }
    outlet
    {
        type            calculated;
        value           nonuniform List<scalar> 2(0.00175498 0.00186493);
    }
}


// ************************************************************************* //
