/*--------------------------------*- C++ -*----------------------------------*\
  =========                 |
  \\      /  F ield         | OpenFOAM: The Open Source CFD Toolbox
   \\    /   O peration     | Website:  https://openfoam.org
    \\  /    A nd           | Version:  6
     \\/     M anipulation  |
\*---------------------------------------------------------------------------*/
FoamFile
{
    version     2.0;
    format      ascii;
    class       surfaceScalarField;
    location    "1300";
    object      phi;
}
// * * * * * * * * * * * * * * * * * * * * * * * * * * * * * * * * * * * * * //

dimensions      [1 0 -1 0 0 0 0];

internalField   nonuniform List<scalar> 
852
(
-0.00300392
0.0030588
-0.00415346
0.00114948
-0.00498741
0.000833897
-0.00558966
0.000602195
-0.00592805
0.000338334
-0.00597524
4.71432e-05
-0.00570734
-0.000267962
-0.0051291
-0.000578293
-0.00429874
-0.000830408
-0.00331608
-0.000982714
-0.00229395
-0.00102218
-0.00134468
-0.000949319
-0.000576569
-0.000768161
-0.000104268
-0.000472351
-0.000102833
-0.000818397
0.000820568
-0.00063075
-0.000187694
-4.0601e-05
-0.000590195
0.000523707
-0.000564354
0.000948373
-0.000424712
0.00124553
-0.000297205
0.00141962
-0.000174132
0.00150718
-8.76102e-05
0.00155913
-5.1997e-05
0.00159465
-3.55645e-05
0.0016187
-2.40909e-05
0.00163312
-1.44707e-05
0.00163607
-2.99723e-06
0.00161834
1.76847e-05
0.00155542
6.2877e-05
0.00140497
0.000150397
0.00114083
0.000264101
0.000764753
0.000376029
0.000767532
-0.00214916
0.00535648
-0.00322458
0.00222485
-0.00406296
0.00167221
-0.00465473
0.00119392
-0.00498998
0.000673526
-0.0050451
0.00010221
-0.00479646
-0.000516655
-0.00426285
-0.00111196
-0.00351786
-0.00157545
-0.00266529
-0.00183533
-0.00180432
-0.00188321
-0.00102228
-0.00173141
-0.000382616
-0.00140788
7.15314e-05
-0.000926547
0.000380759
-0.000412108
0.000361039
1.96189e-05
0.000360933
0.000112106
0.000714983
0.000564453
-0.000640088
0.000898798
-0.000924585
0.00117117
-0.00083677
0.00139611
-0.0006497
0.00155123
-0.000452367
0.00158458
-0.000207533
0.00159265
-9.57222e-05
0.00160155
-6.09403e-05
0.00160887
-4.29296e-05
0.00161375
-2.90176e-05
0.00161672
-1.74882e-05
0.00161714
-3.45958e-06
0.00161109
2.36889e-05
0.00156913
0.000104792
0.00139202
0.000327462
0.00107837
0.0005777
0.000662636
0.000791722
0.00143773
-0.00150087
0.00708541
-0.00240132
0.00312525
-0.00313486
0.0024057
-0.00363925
0.00169826
-0.00392342
0.000957639
-0.00395003
0.000128762
-0.00367723
-0.000789507
-0.00314938
-0.00163986
-0.00246512
-0.00225976
-0.00173147
-0.00256904
-0.0010234
-0.00259132
-0.000398458
-0.00235641
0.000117851
-0.00192423
0.000518283
-0.00132703
0.000778779
-0.000672651
0.000774631
2.37188e-05
0.00113551
0.00148197
-0.000759424
0.00174682
-0.000904983
0.00176122
-0.000939027
0.00178084
-0.000856431
0.00182298
-0.000691891
0.00189612
-0.000525542
0.00168869
0.00159308
0.00153225
0.00148943
0.00146052
0.00144314
0.00143979
0.00146358
0.00156848
0.00130987
0.000586027
0.000987339
0.00090019
0.000562757
0.00121626
0.00201231
-0.00103826
0.00842001
-0.00172547
0.00381241
-0.00220399
0.00288416
-0.00252692
0.00202114
-0.00268578
0.00111645
-0.00260006
4.2986e-05
-0.0022351
-0.00115452
-0.00170025
-0.00217476
-0.00110407
-0.002856
-0.000531619
-0.00314154
-1.83941e-05
-0.0031046
0.00041487
-0.00278972
0.000771218
-0.00228063
0.00109011
-0.00164596
0.0013861
-0.000968692
0.00173463
-0.000324852
0.00270794
0.000162156
0.00285772
-0.000143207
0.00259058
-0.000492334
0.00240565
-0.000720094
0.00221182
-0.000745239
0.00204097
-0.000685629
0.0019152
-0.000566163
0.00178223
-0.000392609
0.00192752
-0.000145477
0.00198273
-5.54093e-05
0.00200528
-2.27334e-05
0.00200494
1.43484e-07
0.00197594
2.88114e-05
0.00190694
6.88152e-05
0.00177949
0.00012726
0.00156349
0.000215811
0.00120364
0.000359659
0.00108089
0.000708736
0.000824717
0.00115633
0.000445721
0.00159521
0.00247372
-0.000717482
0.00949217
-0.00121222
0.00430709
-0.0012972
0.00296909
-0.00132972
0.00205361
-0.00123844
0.00102512
-0.000911542
-0.000283967
-0.000423548
-0.00164257
7.69466e-05
-0.00267531
0.000505961
-0.00328508
0.000841822
-0.00347746
0.00108701
-0.00334985
0.00126906
-0.00297182
0.00141442
-0.00242603
0.00155788
-0.00178946
0.00173296
-0.00114381
0.00198722
-0.000579158
0.0023563
-0.000206964
0.00243184
-0.00021879
0.00232652
-0.000387066
0.00211912
-0.000512728
0.00190706
-0.000533222
0.00171103
-0.000489641
0.00154776
-0.000402935
0.00143388
-0.00027876
0.00142636
-0.000138002
0.00142729
-5.6372e-05
0.00142571
-2.11898e-05
0.00142324
2.5795e-06
0.00141574
3.62764e-05
0.00139263
9.18985e-05
0.00134036
0.000179498
0.00124614
0.00031
0.00110698
0.000498779
0.000998111
0.000817573
0.000892065
0.00126233
0.000653985
0.00183325
0.000692908
0.00243476
-0.000899933
0.0015926
-0.00137147
0.000471299
-0.00132763
-0.000612703
0.0105089
-0.000921267
0.0046156
-0.000460622
0.00250839
-1.88108e-05
0.00161174
0.0005087
0.000497553
0.00115233
-0.000927652
0.00168943
-0.00217973
0.00204095
-0.00302689
0.00221085
-0.00345504
0.0022468
-0.00351347
0.00218037
-0.00328347
0.00205627
-0.00284777
0.00191884
-0.00228864
0.00180726
-0.00167793
0.00175097
-0.00108756
0.0017674
-0.000595633
0.00183741
-0.000277004
0.00181352
-0.000194943
0.00167599
-0.000249573
0.00147455
-0.000311325
0.00127034
-0.000329048
0.00108671
-0.000306051
0.000936707
-0.000252969
0.000835436
-0.000177523
0.00079545
-9.80483e-05
0.000790129
-5.10832e-05
0.000803312
-3.44047e-05
0.000830969
-2.51092e-05
0.000867085
1.29842e-07
0.000902292
5.66616e-05
0.000929919
0.000151841
0.000948205
0.000291684
0.000959353
0.0004876
0.00100523
0.00077166
0.00113158
0.00113595
0.00135042
0.00161438
0.00181455
0.00197059
0.00207367
0.00133345
0.00168388
0.00086105
0.00040936
-0.00062843
0.0115861
-0.000434941
0.00442206
0.000820615
0.00125278
0.00183773
0.000594578
0.00278259
-0.000447355
0.00354816
-0.00169328
0.00396894
-0.00260056
0.00405741
-0.00311541
0.0038816
-0.00327928
0.00352559
-0.00315751
0.00306492
-0.00282285
0.00257001
-0.0023529
0.00210137
-0.00182004
0.00170069
-0.00127728
0.00139313
-0.000780035
0.00119
-0.000392529
0.00106877
-0.000155812
0.000953908
-8.01169e-05
0.000806093
-0.000101793
0.000636956
-0.000142224
0.000471014
-0.00016314
0.000324459
-0.000159529
0.000208279
-0.000136821
0.000133324
-0.000102599
0.000105256
-7.00106e-05
0.000111447
-5.73039e-05
0.000139645
-6.26313e-05
0.000186716
-7.22086e-05
0.000255906
-6.90877e-05
0.000344977
-3.24373e-05
0.000445294
5.14955e-05
0.000559498
0.000177451
0.000697787
0.000349281
0.000890278
0.000579139
0.00118397
0.000842228
0.00163113
0.00116718
0.00229877
0.0013029
0.00282002
0.000812165
0.00286462
0.000816411
0.00333263
0.00273302
0.00935561
0.00352872
0.00362631
0.00418464
0.000596805
0.00528528
-0.000506111
0.00619078
-0.00135291
0.00654901
-0.00205157
0.00643445
-0.00248606
0.0059477
-0.00262872
0.00520339
-0.00253503
0.00431753
-0.0022717
0.0033885
-0.00189386
0.00249965
-0.00146409
0.00171531
-0.00103573
0.00106958
-0.000631572
0.000583476
-0.000293959
0.000263948
-7.30305e-05
7.6541e-05
3.1566e-05
-4.69671e-05
4.33605e-05
-0.000158893
1.0101e-05
-0.000274033
-2.71145e-05
-0.000385336
-5.18676e-05
-0.000482688
-6.22067e-05
-0.000557945
-6.15935e-05
-0.000604624
-5.59481e-05
-0.000621255
-5.34076e-05
-0.000616644
-6.19417e-05
-0.000599112
-8.01901e-05
-0.000570349
-0.000100998
-0.000524326
-0.000115137
-0.000446625
-0.000110165
-0.000328061
-6.70948e-05
-0.000176099
2.54625e-05
1.83592e-05
0.000154795
0.000281052
0.000316416
0.000625322
0.000497927
0.00109772
0.000694756
0.00164146
0.000759132
0.00183303
0.000620555
0.000923954
0.00172546
0.00448924
0.00990601
0.0135236
0.0124722
0.00164822
0.0118134
0.00015264
0.01094
-0.000479565
0.0097751
-0.000886768
0.0083696
-0.00108062
0.00684444
-0.00110362
0.00530916
-0.000999787
0.00385371
-0.000816293
0.00253475
-0.000574923
0.00140151
-0.000330885
0.000477031
-0.000111272
-0.000211205
5.66441e-05
-0.000643309
0.000138121
-0.000868985
0.000152619
-0.000977865
0.000140417
-0.00104367
0.000109136
-0.00110331
6.97175e-05
-0.00116536
3.49005e-05
-0.00122819
1.0941e-05
-0.00128712
-3.30664e-06
-0.0013372
-1.15425e-05
-0.00137583
-1.73367e-05
-0.00140548
-2.37818e-05
-0.00143491
-3.25402e-05
-0.0014742
-4.09233e-05
-0.00153273
-4.24939e-05
-0.00162004
-2.78555e-05
-0.00174407
1.38399e-05
-0.00190361
9.24237e-05
-0.00209716
0.000218986
-0.00235462
0.00041223
-0.00272977
0.000691534
-0.00330036
0.00106848
-0.00414587
0.00154024
-0.00540166
0.0020149
-0.00704987
0.00226873
-0.0069793
0.00165486
-0.00223399
0.00463119
0.00325569
0.00351951
0.00126426
0.00367342
-0.000633508
0.00347831
-0.000691663
0.00287666
-0.000478969
0.00207183
-0.000298791
0.00117861
-0.000106578
0.000275387
8.69257e-05
-0.000523254
0.000223712
-0.00112025
0.000266097
-0.00150532
0.000273781
-0.00171583
0.000267128
-0.00181988
0.000242146
-0.00187434
0.000207052
-0.00190505
0.000171104
-0.0019322
0.000136262
-0.00196654
0.000104031
-0.00200876
7.70925e-05
-0.0020547
5.68566e-05
-0.00210049
4.24632e-05
-0.00214446
3.23991e-05
-0.00218734
2.55255e-05
-0.00223183
2.06765e-05
-0.00228244
1.80525e-05
-0.00234315
1.97606e-05
-0.00241518
2.95142e-05
-0.00249589
5.28268e-05
-0.00257938
9.7308e-05
-0.00265998
0.000172992
-0.00273737
0.000296352
-0.0028094
0.000484233
-0.00287282
0.000754923
-0.00291828
0.00111392
-0.00290827
0.0015302
-0.00280025
0.00190685
-0.00223575
0.00170421
-0.00076196
0.000181039
-0.002926
-0.000295692
0.00362331
0.000291819
0.000676741
-0.000450853
0.000109188
-0.0011592
1.66912e-05
-0.00171757
7.94065e-05
-0.00216862
0.000152262
-0.00249359
0.000218388
-0.0026786
0.000271919
-0.0027555
0.000300597
-0.00277842
0.000288997
-0.00276127
0.000256614
-0.00271551
0.00022135
-0.00266152
0.000188124
-0.00261389
0.000159398
-0.002579
0.000136199
-0.00255996
0.0001172
-0.0025571
0.000101139
-0.00256783
8.78096e-05
-0.00258837
7.73706e-05
-0.00261559
6.96597e-05
-0.00264745
6.424e-05
-0.00268243
6.04819e-05
-0.00271937
5.76007e-05
-0.00275666
5.5315e-05
-0.0027913
5.43815e-05
-0.00281866
5.68455e-05
-0.0028322
6.63424e-05
-0.00282315
8.82411e-05
-0.00277972
0.000129537
-0.00268285
0.000199452
-0.0025077
0.000309058
-0.00222665
0.000473842
-0.00181182
0.00069907
-0.00119778
0.000916129
-0.000116423
0.000825465
0.00164024
-5.24757e-05
0.00318516
-0.0013639
0.000335446
-0.00692793
-0.0098173
-0.00615443
-0.0054631
-0.00534795
-0.00532932
-0.00525047
-0.00510078
-0.00488671
-0.00462075
-0.00432767
-0.00404767
-0.00380135
-0.00359137
-0.00341545
-0.00326895
-0.00314622
-0.00304298
-0.00295625
-0.00288326
-0.00282107
-0.00276693
-0.00271851
-0.00267412
-0.00263288
-0.00259414
-0.00255649
-0.00251644
-0.00246687
-0.00239526
-0.00228211
-0.0020987
-0.00180526
-0.00134656
-0.000662145
0.000239773
0.00105097
0.000982737
-0.000398103
)
;

boundaryField
{
    floor
    {
        type            calculated;
        value           nonuniform List<scalar> 
29
(
0
0
0
0
0
0
0
0
0
0
0
0
0
0
0
0
0
0
0
0
-2.82257e-06
-7.60931e-06
-1.18664e-05
-1.57292e-05
-1.47899e-06
-2.2175e-06
-6.56631e-06
-7.60873e-06
-6.6211e-06
)
;
    }
    ceiling
    {
        type            calculated;
        value           nonuniform List<scalar> 
43
(
-4.20158e-05
-4.0805e-05
-3.95523e-05
-1.45999e-05
-5.95879e-06
-1.94676e-06
5.50412e-07
2.55472e-06
4.31162e-06
5.93609e-06
7.49882e-06
8.979e-06
1.02792e-05
1.13448e-05
1.21926e-05
1.2875e-05
1.3446e-05
1.39453e-05
1.4394e-05
1.4799e-05
1.51639e-05
1.54949e-05
1.57993e-05
1.60809e-05
1.63364e-05
1.65527e-05
1.67084e-05
1.678e-05
1.67492e-05
1.66082e-05
1.63608e-05
1.60184e-05
1.55975e-05
1.51196e-05
1.46245e-05
1.41861e-05
1.42451e-05
1.57308e-05
1.69143e-05
1.61509e-05
1.17037e-05
8.62672e-06
-7.19343e-05
)
;
    }
    sWall
    {
        type            calculated;
        value           uniform -0.000272143;
    }
    nWall
    {
        type            calculated;
        value           nonuniform List<scalar> 6(-4.4071e-05 -5.31465e-05 -5.86859e-05 -6.99744e-05 -7.63115e-05 -7.88283e-05);
    }
    sideWalls
    {
        type            empty;
        value           nonuniform 0();
    }
    glass1
    {
        type            calculated;
        value           nonuniform List<scalar> 9(-5.49296e-05 -0.000148581 -0.000228112 -0.000296398 -0.000354729 -0.00040404 -0.000448883 -0.000502559 -0.00056215);
    }
    glass2
    {
        type            calculated;
        value           nonuniform List<scalar> 2(-0.000232687 -0.000256093);
    }
    sun
    {
        type            calculated;
        value           uniform 0;
    }
    heatsource1
    {
        type            calculated;
        value           nonuniform List<scalar> 3(2.03453e-07 2.03448e-07 2.03469e-07);
    }
    heatsource2
    {
        type            calculated;
        value           nonuniform List<scalar> 4(5.10635e-08 5.11292e-08 0 0);
    }
    Table_master
    {
        type            calculated;
        value           nonuniform List<scalar> 9(-1.52653e-07 -1.5277e-07 -1.52806e-07 -1.52827e-07 -1.52841e-07 -1.52847e-07 -1.52849e-07 -1.52837e-07 -1.52796e-07);
    }
    Table_slave
    {
        type            calculated;
        value           nonuniform List<scalar> 9(1.52514e-07 1.52554e-07 1.52546e-07 1.52543e-07 1.52541e-07 1.52549e-07 1.52572e-07 1.52617e-07 1.52693e-07);
    }
    inlet
    {
        type            calculated;
        value           uniform -0.00623868;
    }
    outlet
    {
        type            calculated;
        value           nonuniform List<scalar> 2(0.00724209 0.00293018);
    }
}


// ************************************************************************* //
