// -*- C++ -*-
// File generated by PyFoam - sorry for the ugliness

FoamFile
{
 version 2.0;
 format ascii;
 class volScalarField;
 location "1300";
 object T;
}

dimensions [ 0 0 0 1 0 0 0 ];

internalField nonuniform List<scalar> 459
(
  304.082
  303.825
  303.816
  303.815
  303.814
  303.812
  303.81
  303.808
  303.805
  303.799
  303.791
  303.78
  303.769
  303.757
  303.748
  303.721
  303.708
  303.704
  303.702
  303.699
  303.697
  303.695
  303.693
  303.691
  303.688
  303.686
  303.684
  303.681
  303.679
  303.676
  303.674
  303.671
  303.667
  303.673
  304.264
  303.867
  303.847
  303.853
  303.86
  303.864
  303.867
  303.868
  303.865
  303.857
  303.842
  303.82
  303.794
  303.768
  303.744
  303.726
  303.715
  303.716
  303.709
  303.704
  303.7
  303.697
  303.693
  303.688
  303.684
  303.679
  303.674
  303.669
  303.665
  303.66
  303.656
  303.653
  303.65
  303.648
  303.646
  303.66
  304.45
  303.915
  303.879
  303.891
  303.907
  303.921
  303.932
  303.939
  303.941
  303.931
  303.908
  303.873
  303.832
  303.792
  303.759
  303.736
  303.722
  303.715
  303.71
  303.707
  303.705
  303.702
  303.699
  303.693
  303.687
  303.681
  303.675
  303.669
  303.663
  303.658
  303.653
  303.648
  303.644
  303.641
  303.639
  303.653
  304.631
  303.974
  303.908
  303.924
  303.949
  303.975
  303.998
  304.016
  304.024
  304.013
  303.98
  303.929
  303.87
  303.814
  303.77
  303.74
  303.724
  303.718
  303.714
  303.713
  303.712
  303.711
  303.71
  303.709
  303.707
  303.706
  303.705
  303.705
  303.704
  303.702
  303.7
  303.697
  303.694
  303.674
  303.656
  303.643
  303.651
  304.803
  304.048
  303.942
  303.949
  303.979
  304.014
  304.05
  304.082
  304.1
  304.09
  304.046
  303.977
  303.9
  303.83
  303.775
  303.74
  303.723
  303.716
  303.715
  303.717
  303.719
  303.72
  303.721
  303.721
  303.721
  303.722
  303.722
  303.722
  303.722
  303.72
  303.716
  303.711
  303.704
  303.69
  303.67
  303.651
  303.648
  303.694
  303.729
  303.738
  304.954
  304.145
  304.005
  303.982
  304.004
  304.038
  304.079
  304.126
  304.158
  304.145
  304.088
  304.004
  303.913
  303.833
  303.774
  303.737
  303.72
  303.715
  303.717
  303.722
  303.727
  303.731
  303.733
  303.735
  303.736
  303.738
  303.738
  303.739
  303.738
  303.735
  303.73
  303.722
  303.713
  303.7
  303.682
  303.661
  303.652
  303.668
  303.678
  303.706
  305.085
  304.301
  304.162
  304.102
  304.085
  304.096
  304.125
  304.171
  304.195
  304.17
  304.098
  304.001
  303.901
  303.817
  303.758
  303.725
  303.713
  303.714
  303.722
  303.73
  303.738
  303.743
  303.747
  303.749
  303.752
  303.753
  303.754
  303.754
  303.753
  303.749
  303.743
  303.733
  303.722
  303.708
  303.692
  303.675
  303.663
  303.664
  303.669
  303.692
  305.288
  304.702
  304.55
  304.427
  304.334
  304.284
  304.269
  304.271
  304.243
  304.17
  304.063
  303.948
  303.846
  303.769
  303.723
  303.703
  303.704
  303.715
  303.729
  303.741
  303.75
  303.756
  303.76
  303.764
  303.766
  303.768
  303.769
  303.768
  303.766
  303.763
  303.758
  303.749
  303.736
  303.724
  303.712
  303.7
  303.693
  303.699
  303.713
  303.828
  305.574
  305.308
  305.032
  304.808
  304.637
  304.513
  304.425
  304.346
  304.218
  304.067
  303.923
  303.808
  303.728
  303.685
  303.672
  303.68
  303.7
  303.723
  303.741
  303.753
  303.762
  303.768
  303.772
  303.776
  303.779
  303.781
  303.782
  303.782
  303.782
  303.781
  303.78
  303.781
  303.784
  303.79
  303.802
  303.821
  303.847
  303.874
  303.895
  303.948
  297.362
  301.119
  302.581
  303.126
  303.353
  303.424
  303.464
  303.487
  303.505
  303.527
  303.556
  303.593
  303.635
  303.675
  303.713
  303.736
  303.752
  303.763
  303.77
  303.776
  303.781
  303.786
  303.79
  303.793
  303.796
  303.799
  303.801
  303.804
  303.806
  303.81
  303.814
  303.821
  303.832
  303.847
  303.865
  303.883
  303.898
  303.919
  298.2
  301.053
  302.098
  302.684
  302.977
  303.116
  303.204
  303.294
  303.381
  303.46
  303.534
  303.604
  303.663
  303.702
  303.729
  303.746
  303.758
  303.766
  303.773
  303.779
  303.785
  303.79
  303.795
  303.8
  303.804
  303.808
  303.812
  303.815
  303.818
  303.822
  303.826
  303.831
  303.839
  303.849
  303.86
  303.873
  303.878
  303.899
  300.503
  300.417
  300.412
  302.078
  302.58
  302.862
  303.049
  303.188
  303.326
  303.442
  303.532
  303.598
  303.645
  303.68
  303.704
  303.72
  303.732
  303.74
  303.746
  303.752
  303.757
  303.763
  303.768
  303.773
  303.778
  303.783
  303.789
  303.794
  303.799
  303.804
  303.809
  303.814
  303.819
  303.824
  303.83
  303.838
  303.845
  303.843
  303.882
  303.968
)
;

boundaryField
{
  floor
  {
    type wallHeatTransfer;
    Tinf uniform 305.2;
    alphaWall uniform 0.24;
    value nonuniform List<scalar> 29
(
  303.901
  304.033
  303.974
  303.973
  303.977
  303.983
  303.989
  303.998
  304.007
  304.015
  304.024
  304.032
  304.04
  304.047
  304.055
  304.063
  304.071
  304.08
  304.084
  304.108
  304.108
  304.027
  303.987
  303.963
  303.901
  304.033
  303.94
  303.9
  303.874
)
;
  }
  ceiling
  {
    type wallHeatTransfer;
    Tinf uniform 303.2;
    alphaWall uniform 0.24;
    value nonuniform List<scalar> 43
(
  300.692
  300.6
  300.587
  302.146
  302.618
  302.884
  303.06
  303.188
  303.315
  303.419
  303.5
  303.558
  303.6
  303.629
  303.649
  303.66
  303.667
  303.671
  303.675
  303.679
  303.683
  303.688
  303.692
  303.696
  303.699
  303.703
  303.707
  303.711
  303.716
  303.721
  303.728
  303.734
  303.742
  303.749
  303.758
  303.767
  303.774
  303.766
  303.799
  303.887
  305.463
  305.223
  298.491
)
;
  }
  sWall
  {
    type wallHeatTransfer;
    Tinf uniform 315.2;
    alphaWall uniform 0.36;
    value uniform 302.003;
  }
  nWall
  {
    type wallHeatTransfer;
    Tinf uniform 307.2;
    alphaWall uniform 0.36;
    value nonuniform List<scalar> 6
(
  304.406
  304.364
  304.306
  304.432
  304.406
  304.452
)
;
  }
  sideWalls
  {
    type empty;
  }
  glass1
  {
    type wallHeatTransfer;
    Tinf uniform 315.2;
    alphaWall uniform 4.3;
    value nonuniform List<scalar> 9
(
  312.031
  311.361
  310.925
  310.584
  310.301
  310.052
  309.856
  309.914
  310.122
)
;
  }
  glass2
  {
    type wallHeatTransfer;
    Tinf uniform 307.2;
    alphaWall uniform 4.3;
    value nonuniform List<scalar> 2
(
  305.978
  306.064
)
;
  }
  sun
  {
    type wallHeatTransfer;
    Tinf uniform 305.2;
    alphaWall uniform 0.24;
    value nonuniform List<scalar> 14
(
  304.217
  303.982
  303.974
  303.969
  303.964
  303.959
  303.954
  303.95
  303.944
  303.938
  303.93
  303.921
  303.912
  303.905
)
;
  }
  heatsource1
  {
    type fixedGradient;
    gradient uniform 0;
  }
  heatsource2
  {
    type fixedGradient;
    gradient uniform 0;
  }
  Table_master
  {
    type zeroGradient;
  }
  Table_slave
  {
    type zeroGradient;
  }
  inlet
  {
    type fixedValue;
    value uniform 293.15;
  }
  outlet
  {
    type zeroGradient;
  }
} 	// ************************************************************************* //

