/*--------------------------------*- C++ -*----------------------------------*\
  =========                 |
  \\      /  F ield         | OpenFOAM: The Open Source CFD Toolbox
   \\    /   O peration     | Website:  https://openfoam.org
    \\  /    A nd           | Version:  6
     \\/     M anipulation  |
\*---------------------------------------------------------------------------*/
FoamFile
{
    version     2.0;
    format      ascii;
    class       volScalarField;
    location    "1200";
    object      nut;
}
// * * * * * * * * * * * * * * * * * * * * * * * * * * * * * * * * * * * * * //

dimensions      [0 2 -1 0 0 0 0];

internalField   nonuniform List<scalar> 
459
(
0.0010006
0.00108972
0.00111175
0.00116537
0.00121434
0.00125962
0.00130319
0.0013475
0.00138611
0.0014117
0.00141885
0.00140277
0.00136181
0.00130061
0.00123063
0.000462481
0.000584537
0.000642419
0.000622934
0.000592099
0.000558108
0.000523209
0.000491203
0.00046292
0.000438186
0.000416604
0.000397715
0.000381024
0.000366201
0.000352608
0.000339406
0.000325245
0.000311162
0.000283148
0.00136725
0.00313184
0.00294279
0.00341924
0.00388164
0.00435568
0.00480375
0.00516506
0.00547626
0.00575504
0.00596267
0.00604395
0.00591436
0.00539006
0.00392953
0.00125829
0.000799354
0.000517931
0.0010443
0.0013573
0.0015387
0.00159873
0.00155803
0.00131775
0.00115956
0.00104161
0.000948596
0.000872495
0.000808863
0.000755435
0.000704574
0.000653
0.000605949
0.000565627
0.000624757
0.000339208
0.0016791
0.00426376
0.0035773
0.00455505
0.00504004
0.00540599
0.00568864
0.00591397
0.00614331
0.00640285
0.00667047
0.00690439
0.00704861
0.00703435
0.00669425
0.00546097
0.0012098
0.00106828
0.00143734
0.00173478
0.00194665
0.00204732
0.00195289
0.000734393
0.000653229
0.000587766
0.00053461
0.000490963
0.00045465
0.000424066
0.000398236
0.000376857
0.000400038
0.00045923
0.000692918
0.000378408
0.00198637
0.00555516
0.00351645
0.0048098
0.00528188
0.005451
0.00552264
0.00560506
0.00576123
0.00600365
0.00631211
0.00664519
0.00694644
0.00716896
0.00722343
0.00689148
0.00543058
0.00145431
0.00177953
0.00221471
0.00255782
0.00276002
0.00283267
0.00263528
0.000816064
0.000742075
0.000686076
0.000641496
0.000604472
0.000571859
0.000540876
0.000509119
0.000473093
0.000443496
0.000458095
0.000760255
0.000409394
0.00230633
0.00728412
0.00388567
0.00453142
0.00521906
0.00532156
0.00525693
0.00522841
0.00537373
0.00561746
0.00595395
0.00633783
0.00669225
0.00694531
0.00703733
0.0069054
0.00640305
0.00528674
0.00484033
0.00458922
0.00438179
0.00418692
0.0040095
0.00380978
0.00328263
0.00300769
0.00283747
0.00269926
0.00252866
0.00231103
0.00204115
0.0017242
0.00137297
0.00100407
0.000742936
0.000779625
0.000511094
0.000527409
0.000648099
0.000720535
0.00265006
0.00920046
0.00562121
0.00437588
0.00483796
0.00514066
0.00514015
0.00513068
0.00528538
0.00550958
0.00583168
0.00622939
0.00661432
0.0068766
0.00693681
0.00678008
0.00645745
0.0060587
0.00575603
0.0054752
0.00517311
0.0048819
0.00463779
0.00443947
0.00422364
0.00403921
0.00386878
0.00369372
0.00349572
0.00324386
0.00292798
0.00254151
0.00208771
0.0015917
0.00117573
0.000921039
0.000683121
0.00059543
0.000872713
0.000741019
0.00297412
0.0106162
0.00831793
0.00599371
0.00542841
0.00546272
0.00548647
0.00544104
0.00545633
0.00561594
0.00594224
0.00637534
0.00679119
0.00705098
0.00706651
0.0068459
0.00650405
0.00619393
0.00595807
0.00568848
0.00534991
0.00499731
0.00468097
0.00442386
0.00421579
0.00404032
0.00387062
0.00369574
0.00351779
0.00333961
0.00311734
0.00280759
0.00241098
0.00196184
0.00156482
0.0012427
0.000989129
0.000882341
0.000859092
0.000775829
0.00304375
0.0096839
0.0085026
0.00774626
0.00716201
0.00663174
0.00607959
0.00570577
0.00562037
0.00583287
0.00626958
0.00679175
0.00722936
0.00743013
0.00733024
0.00698432
0.00655941
0.00621399
0.00591627
0.00548004
0.00496998
0.00450224
0.00414017
0.00388435
0.00369617
0.00353356
0.0033732
0.00321555
0.00307423
0.00296486
0.00288732
0.00275501
0.00248824
0.00215931
0.00188782
0.00173361
0.00170946
0.00187912
0.00257226
0.00124819
0.00297094
0.00354537
0.00394209
0.00407937
0.0041478
0.0042279
0.0044364
0.00484987
0.00547472
0.00623569
0.00699719
0.00760523
0.00792384
0.00786099
0.0074592
0.00689447
0.00640076
0.00589146
0.00530773
0.00467739
0.00412456
0.00372204
0.00344814
0.00324741
0.00307265
0.00289465
0.00270285
0.0025024
0.00230584
0.00212377
0.00196037
0.00182541
0.00171648
0.00164641
0.00163103
0.00166457
0.00170358
0.00169743
0.00161991
0.00118405
0.00149472
0.00302036
0.00432321
0.00537443
0.00632829
0.00721402
0.00797027
0.00850802
0.00877009
0.00873112
0.0083838
0.00773222
0.0068857
0.00607123
0.00534873
0.00468169
0.00413016
0.00372301
0.00343108
0.00321708
0.00303761
0.00286313
0.00267921
0.0024821
0.00227679
0.00207613
0.00189854
0.00176192
0.00167365
0.00162456
0.00160836
0.00162285
0.00166289
0.00171122
0.00173579
0.00170648
0.00154798
0.000989084
0.0019158
0.00459842
0.00661243
0.00750563
0.00815286
0.00859691
0.00878343
0.008677
0.00830001
0.00769774
0.00694975
0.0061512
0.00537074
0.00466467
0.00412747
0.00380001
0.00362935
0.00353991
0.00347379
0.00339569
0.00328787
0.00314346
0.00296362
0.00275688
0.0025383
0.00232569
0.0021342
0.00197349
0.00185144
0.00177064
0.00173141
0.00172907
0.00174984
0.00176901
0.00176313
0.00180251
0.00146585
0.00101595
0.00170443
0.00180936
0.00188234
0.00202583
0.0019686
0.00190191
0.00186028
0.00181206
0.00174514
0.00165287
0.00153527
0.00140016
0.00126083
0.001133
0.00103174
0.000962771
0.000920898
0.000896274
0.000880293
0.000867425
0.000854785
0.000840561
0.000824378
0.000806903
0.000789602
0.000774552
0.000763929
0.000759324
0.000761463
0.000770454
0.000785679
0.000807179
0.000835223
0.000870183
0.000911486
0.000955364
0.000968776
0.000869352
0.000868411
0.00109589
)
;

boundaryField
{
    floor
    {
        type            nutkWallFunction;
        Cmu             0.09;
        kappa           0.41;
        E               9.8;
        value           nonuniform List<scalar> 
29
(
0.000147537
5.4879e-05
7.04007e-05
7.76139e-05
7.51927e-05
7.1344e-05
6.70736e-05
6.2656e-05
5.85726e-05
5.49366e-05
5.17341e-05
4.89212e-05
4.64441e-05
4.42426e-05
4.22771e-05
4.04657e-05
3.86976e-05
3.67909e-05
3.48834e-05
3.10547e-05
3.10546e-05
3.86675e-05
4.38929e-05
4.79749e-05
0.000147537
5.4879e-05
6.19924e-05
0.000128731
0.000172992
)
;
    }
    ceiling
    {
        type            nutkWallFunction;
        Cmu             0.09;
        kappa           0.41;
        E               9.8;
        value           nonuniform List<scalar> 
43
(
0.000200834
0.000212412
0.000220424
0.000236167
0.000229964
0.000222687
0.000218128
0.000212829
0.000205454
0.000195233
0.000182107
0.000166883
0.000151008
0.000136267
0.000124457
0.000116336
0.000111373
0.000108443
0.000106537
0.000104998
0.000103485
0.000101779
9.98334e-05
9.77277e-05
9.56375e-05
9.38148e-05
9.25257e-05
9.19664e-05
9.22266e-05
9.33184e-05
9.51637e-05
9.7762e-05
0.000101139
0.00010533
0.000110257
0.000115463
0.000117048
0.000105231
0.000105119
0.000131958
0.000337121
0.000396646
0.000223975
)
;
    }
    sWall
    {
        type            nutkWallFunction;
        Cmu             0.09;
        kappa           0.41;
        E               9.8;
        value           uniform 0.00020089;
    }
    nWall
    {
        type            nutkWallFunction;
        Cmu             0.09;
        kappa           0.41;
        E               9.8;
        value           nonuniform List<scalar> 6(8.72366e-05 8.97376e-05 9.39671e-05 0.00011945 0.000122612 0.000131966);
    }
    sideWalls
    {
        type            empty;
    }
    glass1
    {
        type            nutkWallFunction;
        Cmu             0.09;
        kappa           0.41;
        E               9.8;
        value           nonuniform List<scalar> 9(0.000120866 0.000163329 0.000198424 0.000232307 0.000266991 0.000303687 0.000337828 0.000345122 0.000337521);
    }
    glass2
    {
        type            nutkWallFunction;
        Cmu             0.09;
        kappa           0.41;
        E               9.8;
        value           nonuniform List<scalar> 2(0.000149604 0.000142217);
    }
    sun
    {
        type            nutkWallFunction;
        Cmu             0.09;
        kappa           0.41;
        E               9.8;
        value           nonuniform List<scalar> 
14
(
0.000120793
0.000131226
0.000133789
0.000140007
0.000145656
0.000150857
0.000155842
0.000160893
0.000165279
0.000168179
0.000168989
0.00016717
0.000162524
0.000155553
)
;
    }
    heatsource1
    {
        type            nutkWallFunction;
        Cmu             0.09;
        kappa           0.41;
        E               9.8;
        value           nonuniform List<scalar> 3(6.31967e-05 7.83256e-05 8.72385e-05);
    }
    heatsource2
    {
        type            nutkWallFunction;
        Cmu             0.09;
        kappa           0.41;
        E               9.8;
        value           nonuniform List<scalar> 4(0.000150709 9.68218e-05 9.68218e-05 0.000145138);
    }
    Table_master
    {
        type            nutkWallFunction;
        Cmu             0.09;
        kappa           0.41;
        E               9.8;
        value           nonuniform List<scalar> 9(8.89203e-05 7.89522e-05 7.08038e-05 6.41058e-05 5.85448e-05 5.38711e-05 4.98984e-05 4.65148e-05 4.36932e-05);
    }
    Table_slave
    {
        type            nutkWallFunction;
        Cmu             0.09;
        kappa           0.41;
        E               9.8;
        value           nonuniform List<scalar> 9(9.88179e-05 8.98551e-05 8.30018e-05 7.74986e-05 7.28929e-05 6.88075e-05 6.48998e-05 6.08657e-05 5.6251e-05);
    }
    inlet
    {
        type            calculated;
        value           uniform 0.000100623;
    }
    outlet
    {
        type            calculated;
        value           nonuniform List<scalar> 2(0.00170443 0.00180936);
    }
}


// ************************************************************************* //
