// -*- C++ -*-
// File generated by PyFoam - sorry for the ugliness

FoamFile
{
 version 2.0;
 format ascii;
 class volVectorField;
 location "1200";
 object U;
}

dimensions [ 0 1 -1 0 0 0 0 ];

internalField nonuniform List<vector> 459
(
  (0.0344756 0.0838252 0)
  (-0.162822 0.0247381 0)
  (-0.186633 0.0181429 0)
  (-0.217793 0.0132186 0)
  (-0.241862 0.00791405 0)
  (-0.25834 0.0023862 0)
  (-0.266172 -0.00353238 0)
  (-0.263733 -0.00997218 0)
  (-0.250388 -0.0169659 0)
  (-0.226453 -0.0238124 0)
  (-0.193519 -0.0295921 0)
  (-0.154189 -0.0337472 0)
  (-0.111518 -0.0366842 0)
  (-0.0711899 -0.0401935 0)
  (-0.0496347 -0.0457066 0)
  (-0.0011406 0.00584959 0)
  (-0.0144044 -0.019639 0)
  (0.013362 -0.0266942 0)
  (0.0321472 -0.0190415 0)
  (0.0481459 -0.0123269 0)
  (0.0587811 -0.00767534 0)
  (0.0643121 -0.00486964 0)
  (0.0668147 -0.00344954 0)
  (0.0680397 -0.00275725 0)
  (0.0688252 -0.00238681 0)
  (0.0693954 -0.00216727 0)
  (0.0697757 -0.00200748 0)
  (0.0699056 -0.00180363 0)
  (0.0695332 -0.00134125 0)
  (0.0679695 -0.000198728 0)
  (0.0638095 0.00222911 0)
  (0.0554342 0.00527203 0)
  (0.043723 0.00891502 0)
  (0.00205086 0.0217878 0)
  (0.208473 0.171543 0)
  (-0.152436 0.0643796 0)
  (-0.148746 0.052143 0)
  (-0.180311 0.0421918 0)
  (-0.2034 0.0313477 0)
  (-0.219406 0.0195278 0)
  (-0.22739 0.00613738 0)
  (-0.225537 -0.00917024 0)
  (-0.213281 -0.0255042 0)
  (-0.19144 -0.0406146 0)
  (-0.162059 -0.0521499 0)
  (-0.128301 -0.0585581 0)
  (-0.0938095 -0.0598388 0)
  (-0.0634625 -0.057285 0)
  (-0.0436145 -0.0506226 0)
  (-0.027206 -0.0276085 0)
  (-0.0100748 0.00548064 0)
  (0.0510967 0.0278654 0)
  (0.0382905 -0.0254537 0)
  (0.0459119 -0.032689 0)
  (0.0569495 -0.025354 0)
  (0.0653583 -0.0157818 0)
  (0.069978 -0.00778557 0)
  (0.0713155 -0.00297716 0)
  (0.0713058 -0.00053201 0)
  (0.0712298 0.000632997 0)
  (0.0713326 0.00124032 0)
  (0.0714734 0.00159353 0)
  (0.0715615 0.00186853 0)
  (0.0715843 0.0023078 0)
  (0.0714454 0.00330778 0)
  (0.070566 0.0058866 0)
  (0.0663871 0.0128921 0)
  (0.0560211 0.0196168 0)
  (0.0447151 0.0259255 0)
  (-0.0259659 0.0463368 0)
  (0.368721 0.256407 0)
  (-0.170942 0.102088 0)
  (-0.109839 0.0835924 0)
  (-0.139937 0.0655352 0)
  (-0.159374 0.0476398 0)
  (-0.173359 0.0285464 0)
  (-0.180664 0.00689835 0)
  (-0.178352 -0.0177329 0)
  (-0.165794 -0.0436014 0)
  (-0.144726 -0.0666967 0)
  (-0.117801 -0.0833208 0)
  (-0.0883933 -0.0913263 0)
  (-0.0595692 -0.0907636 0)
  (-0.0342781 -0.0825061 0)
  (-0.0152474 -0.0664229 0)
  (0.00014646 -0.0388052 0)
  (0.0114991 -0.000518265 0)
  (0.102852 -0.0543559 0)
  (0.0758677 -0.0522346 0)
  (0.0733503 -0.0438042 0)
  (0.0760319 -0.0323531 0)
  (0.0776337 -0.0204843 0)
  (0.0772534 -0.0104418 0)
  (0.0738861 -0.00904205 0)
  (0.0704445 -0.00693703 0)
  (0.0683902 -0.00578539 0)
  (0.0673735 -0.00512349 0)
  (0.0667978 -0.00472749 0)
  (0.0664104 -0.00446284 0)
  (0.0662696 -0.00415698 0)
  (0.0669143 -0.00337959 0)
  (0.0697843 -0.00010835 0)
  (0.0677244 0.0179853 0)
  (0.0546229 0.0320251 0)
  (0.0477269 0.0439712 0)
  (-0.050938 0.0730036 0)
  (0.512745 0.324381 0)
  (-0.207869 0.13523 0)
  (-0.0692775 0.109284 0)
  (-0.0977898 0.0842887 0)
  (-0.110477 0.0617374 0)
  (-0.119931 0.0375998 0)
  (-0.124669 0.00896354 0)
  (-0.1194 -0.0250282 0)
  (-0.104963 -0.060505 0)
  (-0.084628 -0.0905904 0)
  (-0.0613547 -0.110837 0)
  (-0.0381871 -0.119201 0)
  (-0.0167923 -0.116646 0)
  (0.00223536 -0.104095 0)
  (0.0181842 -0.0829693 0)
  (0.034535 -0.0554169 0)
  (0.0600076 -0.0279894 0)
  (0.0945764 -0.0165 0)
  (0.105275 -0.0445432 0)
  (0.0912339 -0.0456308 0)
  (0.0819955 -0.0378727 0)
  (0.0779389 -0.0284392 0)
  (0.0760014 -0.0183487 0)
  (0.0763613 -0.00735266 0)
  (0.0789276 -0.0039487 0)
  (0.0814205 -0.00345004 0)
  (0.0829049 -0.00311164 0)
  (0.0835114 -0.00269741 0)
  (0.0831463 -0.00202973 0)
  (0.0813596 -0.00099562 0)
  (0.0774797 0.00052836 0)
  (0.0705108 0.00281324 0)
  (0.0573368 0.00641179 0)
  (0.048803 0.0280611 0)
  (0.04105 0.0463975 0)
  (0.0484775 0.0630491 0)
  (-0.0750115 0.0977729 0)
  (0.635546 0.377081 0)
  (-0.251704 0.16253 0)
  (-0.0300214 0.122751 0)
  (-0.0551264 0.0938875 0)
  (-0.0589039 0.0690608 0)
  (-0.0613393 0.0424031 0)
  (-0.0607167 0.00862351 0)
  (-0.0472056 -0.034433 0)
  (-0.0299306 -0.0775926 0)
  (-0.0119274 -0.111271 0)
  (0.00504719 -0.13193 0)
  (0.0189193 -0.138031 0)
  (0.030028 -0.132551 0)
  (0.038897 -0.117906 0)
  (0.0466078 -0.0964638 0)
  (0.0553347 -0.0714085 0)
  (0.0678639 -0.048657 0)
  (0.0804384 -0.0395028 0)
  (0.0832866 -0.0435955 0)
  (0.0761854 -0.0401106 0)
  (0.0675401 -0.0323174 0)
  (0.0614212 -0.0240065 0)
  (0.0576673 -0.0160639 0)
  (0.0563713 -0.00887047 0)
  (0.0570158 -0.00426381 0)
  (0.0587788 -0.00211011 0)
  (0.0603264 -0.00101229 0)
  (0.0615812 9.14254e-05 0)
  (0.0625374 0.0018059 0)
  (0.0624896 0.00435638 0)
  (0.0609691 0.00788513 0)
  (0.0576113 0.0126911 0)
  (0.0516084 0.0195751 0)
  (0.0454089 0.0349012 0)
  (0.0386693 0.0548057 0)
  (0.056369 0.0776444 0)
  (-0.00634705 0.110978 0)
  (0.040441 0.0364333 0)
  (-0.0634904 -0.0373529 0)
  (-0.259501 -0.057927 0)
  (0.722096 0.421479 0)
  (-0.292385 0.181386 0)
  (-0.00195374 0.116602 0)
  (-0.012521 0.0927282 0)
  (-0.00507421 0.0695597 0)
  (0.00159594 0.0408347 0)
  (0.0152445 0.000382039 0)
  (0.0386387 -0.0505405 0)
  (0.0561845 -0.0943009 0)
  (0.0683434 -0.125168 0)
  (0.0751492 -0.141756 0)
  (0.0772786 -0.14488 0)
  (0.0760876 -0.136971 0)
  (0.07285 -0.120763 0)
  (0.0690395 -0.0992585 0)
  (0.066254 -0.0758247 0)
  (0.0655958 -0.0547646 0)
  (0.0651306 -0.0415526 0)
  (0.060745 -0.0362205 0)
  (0.0521491 -0.0312516 0)
  (0.0429833 -0.0248352 0)
  (0.036082 -0.0184278 0)
  (0.031912 -0.0127637 0)
  (0.0304409 -0.0080088 0)
  (0.0311037 -0.00491689 0)
  (0.0329893 -0.00373922 0)
  (0.0352289 -0.00323256 0)
  (0.0375913 -0.00234382 0)
  (0.0400091 -0.000322735 0)
  (0.0422697 0.00319136 0)
  (0.0435231 0.00811828 0)
  (0.0438548 0.0145517 0)
  (0.0433232 0.0230671 0)
  (0.0434416 0.0363717 0)
  (0.0434906 0.0549867 0)
  (0.0645051 0.0794426 0)
  (0.0508944 0.103233 0)
  (0.0858385 0.0719308 0)
  (0.110488 0.0445747 0)
  (-0.131659 -0.0117474 0)
  (0.768238 0.461988 0)
  (-0.311254 0.167152 0)
  (0.0212353 0.0645385 0)
  (0.0438135 0.0672132 0)
  (0.0613005 0.0577798 0)
  (0.0783367 0.0280058 0)
  (0.111023 -0.0216967 0)
  (0.135096 -0.0697968 0)
  (0.147934 -0.106798 0)
  (0.150363 -0.130295 0)
  (0.144191 -0.140425 0)
  (0.131713 -0.138738 0)
  (0.11549 -0.1278 0)
  (0.0977677 -0.110305 0)
  (0.0804855 -0.0892081 0)
  (0.0651258 -0.0674059 0)
  (0.0524866 -0.048011 0)
  (0.0419225 -0.0343074 0)
  (0.0314872 -0.0264656 0)
  (0.0210568 -0.0213437 0)
  (0.0120962 -0.0168472 0)
  (0.00591908 -0.0130327 0)
  (0.00261834 -0.010064 0)
  (0.00182637 -0.00782378 0)
  (0.00287347 -0.00651774 0)
  (0.00491062 -0.00615038 0)
  (0.00733123 -0.0059944 0)
  (0.0100088 -0.00534226 0)
  (0.0130255 -0.0035004 0)
  (0.0169924 0.000258267 0)
  (0.0213579 0.00584319 0)
  (0.0253475 0.0126356 0)
  (0.029645 0.0209501 0)
  (0.0357834 0.032192 0)
  (0.0432644 0.0468927 0)
  (0.0648636 0.0666164 0)
  (0.0787759 0.0798336 0)
  (0.108986 0.0583023 0)
  (0.149287 0.0430458 0)
  (-0.045031 0.0853145 0)
  (0.869641 0.465842 0)
  (-0.075377 0.146881 0)
  (0.103103 -0.0167207 0)
  (0.170952 -0.0296523 0)
  (0.18533 -0.0289997 0)
  (0.21035 -0.0490363 0)
  (0.237051 -0.0745906 0)
  (0.249141 -0.0973548 0)
  (0.245125 -0.114 0)
  (0.227914 -0.122722 0)
  (0.201425 -0.123021 0)
  (0.16951 -0.115729 0)
  (0.135731 -0.102582 0)
  (0.102706 -0.0852834 0)
  (0.0724717 -0.066169 0)
  (0.0462387 -0.0474133 0)
  (0.024836 -0.0312585 0)
  (0.00839593 -0.0202007 0)
  (-0.004839 -0.0142345 0)
  (-0.0144184 -0.0117028 0)
  (-0.0212649 -0.0103394 0)
  (-0.0255175 -0.00956158 0)
  (-0.0276388 -0.00912948 0)
  (-0.0281662 -0.0088624 0)
  (-0.0276464 -0.00878387 0)
  (-0.0266246 -0.00890285 0)
  (-0.0254498 -0.00902272 0)
  (-0.0241534 -0.00886321 0)
  (-0.0224944 -0.00804638 0)
  (-0.0198329 -0.00602951 0)
  (-0.0144651 -0.00220769 0)
  (-0.00753816 0.00305833 0)
  (-0.000514412 0.00896664 0)
  (0.00949161 0.0155132 0)
  (0.0211321 0.0222275 0)
  (0.0421442 0.0306265 0)
  (0.0640124 0.029179 0)
  (0.0855561 0.00576991 0)
  (0.147383 0.0446174 0)
  (-0.411264 0.190172 0)
  (1.01017 0.424695 0)
  (0.481267 0.282361 0)
  (0.496921 0.186946 0)
  (0.518296 0.122437 0)
  (0.496476 0.0793519 0)
  (0.462637 0.0375899 0)
  (0.423663 -0.00347239 0)
  (0.378775 -0.037788 0)
  (0.327741 -0.0615418 0)
  (0.272875 -0.0738694 0)
  (0.217369 -0.0761315 0)
  (0.163986 -0.0708689 0)
  (0.115046 -0.0607404 0)
  (0.0712625 -0.0472587 0)
  (0.0340884 -0.032768 0)
  (0.00326804 -0.0192154 0)
  (-0.0194173 -0.00948662 0)
  (-0.0331559 -0.00535039 0)
  (-0.0424925 -0.00442885 0)
  (-0.0490277 -0.00513732 0)
  (-0.0537272 -0.00628527 0)
  (-0.0569184 -0.00740334 0)
  (-0.0590078 -0.00833535 0)
  (-0.0603869 -0.00906189 0)
  (-0.0614357 -0.00965065 0)
  (-0.0625658 -0.0101411 0)
  (-0.0641671 -0.0104448 0)
  (-0.0665518 -0.0102997 0)
  (-0.0699409 -0.00922098 0)
  (-0.0744834 -0.00655354 0)
  (-0.0804406 -0.00166656 0)
  (-0.0868931 0.00506066 0)
  (-0.0949524 0.0135648 0)
  (-0.107357 0.0245086 0)
  (-0.126559 0.0384691 0)
  (-0.154491 0.0551207 0)
  (-0.195947 0.0715939 0)
  (-0.250985 0.085044 0)
  (-0.32647 0.0928051 0)
  (-0.581554 0.0858128 0)
  (-0.177331 0.0036393 0)
  (0.131201 0.0202934 0)
  (0.226549 -0.00204776 0)
  (0.219935 -0.0192398 0)
  (0.207221 -0.0279953 0)
  (0.188944 -0.0327007 0)
  (0.161761 -0.0344744 0)
  (0.12824 -0.0332771 0)
  (0.0916732 -0.0293882 0)
  (0.0547464 -0.0232962 0)
  (0.0199327 -0.0151975 0)
  (-0.0154433 -0.0044276 0)
  (-0.0407093 0.00362078 0)
  (-0.0578414 0.00873251 0)
  (-0.0681128 0.0111482 0)
  (-0.0739581 0.0117345 0)
  (-0.0777851 0.011562 0)
  (-0.0807891 0.0109519 0)
  (-0.0836614 0.0100576 0)
  (-0.0865228 0.00946898 0)
  (-0.0893902 0.00946652 0)
  (-0.0922481 0.0100528 0)
  (-0.0951129 0.0111251 0)
  (-0.0980631 0.0125266 0)
  (-0.101217 0.0140442 0)
  (-0.1047 0.0154258 0)
  (-0.108605 0.0164467 0)
  (-0.112812 0.0170754 0)
  (-0.116382 0.0187328 0)
  (-0.119403 0.0226492 0)
  (-0.121904 0.0298127 0)
  (-0.123875 0.0409907 0)
  (-0.125198 0.0564515 0)
  (-0.125294 0.0746392 0)
  (-0.122379 0.088962 0)
  (-0.109013 0.0834878 0)
  (-0.0845738 0.0263163 0)
  (-0.183317 -0.173929 0)
  (0.0019581 0.189936 0)
  (0.0585829 0.0736151 0)
  (0.0203167 0.0086348 0)
  (0.00918788 -0.00150536 0)
  (0.0057091 -0.00219724 0)
  (-0.000716673 -0.00643045 0)
  (-0.013963 -0.00984337 0)
  (-0.0314486 -0.0109138 0)
  (-0.0501271 -0.0107789 0)
  (-0.0672706 -0.0106846 0)
  (-0.0805747 -0.0115303 0)
  (-0.0886422 -0.014308 0)
  (-0.0928078 -0.0196662 0)
  (-0.0947519 -0.0264446 0)
  (-0.0953333 -0.0337969 0)
  (-0.0954877 -0.0408769 0)
  (-0.0958244 -0.0470187 0)
  (-0.0966833 -0.052172 0)
  (-0.0983282 -0.0563521 0)
  (-0.100952 -0.0600534 0)
  (-0.104446 -0.0634363 0)
  (-0.108573 -0.0663643 0)
  (-0.113038 -0.0685294 0)
  (-0.117473 -0.0694817 0)
  (-0.121461 -0.0687065 0)
  (-0.124596 -0.0657036 0)
  (-0.126565 -0.060009 0)
  (-0.127197 -0.051282 0)
  (-0.126337 -0.0402943 0)
  (-0.123215 -0.0271141 0)
  (-0.116744 -0.0116999 0)
  (-0.105675 0.00624618 0)
  (-0.0888723 0.0265823 0)
  (-0.0658774 0.046561 0)
  (-0.0385581 0.058015 0)
  (0.0160641 0.0296122 0)
  (0.144389 -0.0376728 0)
  (-0.0485225 -0.0815344 0)
  (-0.00143749 -0.302682 0)
  (-0.396153 -0.120573 0)
  (-0.288377 0.0618726 0)
  (-0.233052 -0.0120947 0)
  (-0.194064 -0.0134629 0)
  (-0.178757 0.00195096 0)
  (-0.172162 0.0150903 0)
  (-0.169372 0.0258964 0)
  (-0.167628 0.0359726 0)
  (-0.165227 0.0459033 0)
  (-0.161351 0.0562525 0)
  (-0.155666 0.0673601 0)
  (-0.148207 0.0792373 0)
  (-0.139494 0.0914217 0)
  (-0.130728 0.103407 0)
  (-0.122967 0.114809 0)
  (-0.116782 0.124975 0)
  (-0.112385 0.133523 0)
  (-0.109622 0.140521 0)
  (-0.108151 0.146343 0)
  (-0.10758 0.15136 0)
  (-0.107588 0.15611 0)
  (-0.107958 0.160696 0)
  (-0.108528 0.164869 0)
  (-0.10918 0.16813 0)
  (-0.109822 0.169812 0)
  (-0.110372 0.169269 0)
  (-0.110704 0.166077 0)
  (-0.110553 0.160162 0)
  (-0.109384 0.15195 0)
  (-0.106363 0.142849 0)
  (-0.100223 0.133935 0)
  (-0.0891051 0.126381 0)
  (-0.0712418 0.121436 0)
  (-0.0466146 0.120294 0)
  (-0.0169478 0.122927 0)
  (0.0207854 0.123581 0)
  (0.0611691 0.116803 0)
  (0.161704 0.0710557 0)
  (-0.51953 0.148755 0)
)
;

boundaryField
{
  floor
  {
    type noSlip;
  }
  ceiling
  {
    type noSlip;
  }
  sWall
  {
    type noSlip;
  }
  nWall
  {
    type noSlip;
  }
  sideWalls
  {
    type empty;
  }
  glass1
  {
    type noSlip;
  }
  glass2
  {
    type noSlip;
  }
  sun
  {
    type noSlip;
  }
  heatsource1
  {
    type noSlip;
  }
  heatsource2
  {
    type noSlip;
  }
  Table_master
  {
    type noSlip;
  }
  Table_slave
  {
    type noSlip;
  }
  inlet
  {
    type fixedValue;
    value uniform (0.277164 -0.114805 0);
  }
  outlet
  {
    type zeroGradient;
  }
} 	// ************************************************************************* //

