/*--------------------------------*- C++ -*----------------------------------*\
  =========                 |
  \\      /  F ield         | OpenFOAM: The Open Source CFD Toolbox
   \\    /   O peration     | Website:  https://openfoam.org
    \\  /    A nd           | Version:  6
     \\/     M anipulation  |
\*---------------------------------------------------------------------------*/
FoamFile
{
    version     2.0;
    format      ascii;
    class       volScalarField;
    location    "1300";
    object      alphat;
}
// * * * * * * * * * * * * * * * * * * * * * * * * * * * * * * * * * * * * * //

dimensions      [1 -1 -1 0 0 0 0];

internalField   nonuniform List<scalar> 
459
(
0.000907114
0.000961474
0.000962967
0.000996677
0.00102505
0.00104906
0.00106994
0.00108885
0.00110702
0.0011233
0.00113346
0.00113547
0.00112882
0.0011169
0.00110411
0.000669064
0.000641877
0.000613916
0.000586849
0.00056015
0.000533344
0.000507282
0.000481951
0.000457043
0.000432684
0.000409164
0.000386689
0.000365138
0.000343858
0.000321471
0.000295314
0.000261307
0.000256479
0.000257015
0.00131265
0.00229854
0.0020286
0.0023221
0.00252301
0.00273322
0.00294009
0.00312587
0.00326337
0.00334861
0.00338936
0.00334544
0.00315866
0.00274736
0.00200659
0.00112496
0.00100331
0.000806863
0.00114251
0.00134033
0.00143053
0.00144873
0.0014203
0.00128024
0.00115226
0.00103597
0.000932775
0.000841683
0.000759397
0.000682332
0.000609124
0.000546045
0.000499439
0.000430986
0.000564991
0.000414417
0.00167657
0.00323885
0.00228523
0.00314092
0.00339122
0.00357002
0.00369981
0.00379523
0.00386838
0.00392908
0.00398278
0.00399964
0.00394562
0.00379239
0.00348912
0.0028056
0.00121635
0.000918583
0.00155852
0.00187431
0.00202873
0.00207828
0.00191485
0.000586008
0.000520673
0.000472834
0.000436243
0.00040687
0.000382448
0.000361804
0.000344495
0.000330971
0.000359376
0.000372837
0.000632607
0.00049277
0.00205436
0.0046535
0.00216577
0.00342251
0.00373751
0.00383335
0.00385114
0.00384089
0.00384362
0.00387652
0.00393254
0.00397741
0.00398071
0.00393878
0.00387714
0.00377167
0.00339295
0.00107554
0.00170521
0.0022278
0.00252096
0.00267129
0.00273583
0.0023999
0.000627327
0.000588878
0.000604245
0.000648545
0.000692821
0.000719573
0.000719284
0.000695696
0.000660795
0.000549516
0.000474885
0.000875355
0.000554099
0.00245198
0.00663929
0.002472
0.00322833
0.00382276
0.00389266
0.00383539
0.00374577
0.00370306
0.00373474
0.00382144
0.00389768
0.00391591
0.00386329
0.00378218
0.00373258
0.00371928
0.0034103
0.00314751
0.00314068
0.00322388
0.00335342
0.00348365
0.00341924
0.00296455
0.00312743
0.00331141
0.00343281
0.00347553
0.00343229
0.00329103
0.00295658
0.00241261
0.00175141
0.00118567
0.000962154
0.000856116
0.000721848
0.000864376
0.000985239
0.00287337
0.0088684
0.00407722
0.00280789
0.00352827
0.00378736
0.00379832
0.00369124
0.00358274
0.00362738
0.00376816
0.00387717
0.0039014
0.00382176
0.00369355
0.00360377
0.00357661
0.00347947
0.00339172
0.00348339
0.00368618
0.00390306
0.00400966
0.00401905
0.00403039
0.00414818
0.00423543
0.00425831
0.00421757
0.00412357
0.00398614
0.00379275
0.00339499
0.00277181
0.00209971
0.0014326
0.00122867
0.00110444
0.00154388
0.00104633
0.00330625
0.0107107
0.00731274
0.00391686
0.00303821
0.00303227
0.00328806
0.0035349
0.00353704
0.0036691
0.00381703
0.00391433
0.0039178
0.00380347
0.0036341
0.00351798
0.00348322
0.0034489
0.00348908
0.00375117
0.00403951
0.00411694
0.004113
0.00415833
0.00424176
0.00430833
0.00431682
0.00427042
0.00419233
0.00410339
0.0040166
0.00395212
0.00385393
0.0034521
0.00290342
0.00234198
0.00206939
0.00206022
0.0020791
0.00130338
0.00342188
0.0106164
0.00878311
0.00703729
0.00539155
0.00429975
0.00384878
0.00386402
0.00391037
0.00393693
0.00398298
0.00401336
0.00395441
0.00376691
0.00354499
0.00342545
0.00341557
0.00342901
0.00359236
0.00393778
0.00406882
0.00401317
0.00398486
0.00402259
0.00406142
0.00405473
0.00400402
0.00393357
0.00386916
0.0038288
0.00382892
0.00389233
0.00401983
0.00406997
0.00384522
0.00383504
0.00421345
0.00465032
0.00524578
0.00178427
0.00336453
0.00410442
0.00463817
0.00484859
0.00479609
0.00453971
0.00428455
0.00414713
0.00407223
0.0040737
0.00410713
0.00409811
0.0039431
0.00363303
0.00335471
0.00327579
0.00331602
0.00335117
0.00362821
0.00385181
0.00382341
0.00373427
0.00370362
0.00370025
0.00368431
0.0036361
0.0035706
0.00350688
0.00345291
0.00340561
0.00335833
0.00330846
0.00326078
0.00322515
0.00319713
0.00316634
0.00305334
0.00282854
0.00257019
0.00163377
0.00240668
0.00417351
0.00461333
0.00467277
0.00462642
0.00458168
0.00454178
0.00447801
0.00436958
0.00416026
0.00375117
0.00325088
0.00297293
0.00303974
0.00312332
0.0031862
0.00335743
0.00341113
0.00336178
0.00333087
0.00332416
0.0033177
0.00330056
0.00327787
0.00324961
0.00323396
0.00323929
0.00326351
0.00329863
0.00333596
0.00336595
0.00338183
0.00338049
0.00335967
0.00329513
0.00318206
0.0027366
0.00132566
0.00258709
0.00482767
0.00516638
0.00509615
0.00496515
0.00481874
0.00464166
0.00438023
0.0039974
0.00351895
0.00288076
0.00235308
0.00231577
0.00268917
0.00282098
0.00272005
0.00265865
0.00260834
0.00259921
0.00262726
0.00267351
0.00272754
0.00278754
0.00285023
0.00289523
0.00290734
0.00294231
0.00301408
0.0031137
0.00321638
0.00330905
0.00339789
0.0034569
0.00346959
0.00340337
0.00307805
0.00221714
0.00135339
0.00223399
0.00236515
0.00247115
0.00262589
0.00249049
0.00232972
0.00213819
0.00196148
0.00178041
0.00161098
0.00146821
0.00132964
0.00117366
0.000841548
0.000681141
0.000658344
0.00062481
0.000603297
0.000594797
0.000600197
0.000612708
0.000628331
0.000644689
0.000660189
0.000673807
0.000685937
0.000701597
0.000729242
0.000766376
0.000814884
0.000877329
0.00095978
0.00106167
0.00116747
0.00127431
0.00136253
0.00134602
0.00121439
0.00113398
0.00132019
)
;

boundaryField
{
    floor
    {
        type            compressible::alphatWallFunction;
        Prt             0.85;
        value           nonuniform List<scalar> 
29
(
0.000156871
9.46671e-05
9.06348e-05
8.64684e-05
8.24135e-05
7.83911e-05
7.43284e-05
7.03547e-05
6.64676e-05
6.26202e-05
5.88327e-05
5.51507e-05
5.16074e-05
4.81848e-05
4.47788e-05
4.11641e-05
3.68962e-05
3.12708e-05
3.04771e-05
3.0574e-05
3.05735e-05
5.59871e-05
6.81373e-05
7.74801e-05
0.000156869
9.4666e-05
0.000114777
0.000130782
0.000152895
)
;
    }
    ceiling
    {
        type            compressible::alphatWallFunction;
        Prt             0.85;
        value           nonuniform List<scalar> 
43
(
0.00030734
0.000324169
0.0003377
0.000357444
0.0003403
0.000319792
0.00029515
0.000272195
0.000248438
0.000225962
0.000206821
0.000188045
0.000166646
0.000119953
9.65367e-05
9.31685e-05
8.81959e-05
8.4982e-05
8.37101e-05
8.45204e-05
8.63931e-05
8.87253e-05
9.11602e-05
9.34611e-05
9.54775e-05
9.72677e-05
9.95669e-05
0.000103615
0.000109025
0.000116047
0.000125016
0.000136746
0.000151084
0.000165807
0.00018052
0.000192552
0.000190306
0.000172286
0.000161168
0.00018679
0.000449912
0.000540189
0.000352333
)
;
    }
    sWall
    {
        type            compressible::alphatWallFunction;
        Prt             0.85;
        value           uniform 0.000306129;
    }
    nWall
    {
        type            compressible::alphatWallFunction;
        Prt             0.85;
        value           nonuniform List<scalar> 6(0.000140021 0.000148607 0.000184153 0.000187204 0.000190978 0.000186458);
    }
    sideWalls
    {
        type            empty;
    }
    glass1
    {
        type            compressible::alphatWallFunction;
        Prt             0.85;
        value           nonuniform List<scalar> 9(0.00012569 0.000181293 0.000229668 0.000278778 0.000329503 0.000382379 0.000435901 0.0004502 0.000443378);
    }
    glass2
    {
        type            compressible::alphatWallFunction;
        Prt             0.85;
        value           nonuniform List<scalar> 2(0.000247171 0.000227376);
    }
    sun
    {
        type            compressible::alphatWallFunction;
        Prt             0.85;
        value           nonuniform List<scalar> 
14
(
0.000129162
0.000136861
0.000137071
0.000141829
0.000145819
0.000149186
0.000152106
0.000154745
0.000157275
0.000159538
0.00016095
0.000161228
0.000160306
0.000158649
)
;
    }
    heatsource1
    {
        type            compressible::alphatWallFunction;
        Prt             0.85;
        value           nonuniform List<scalar> 3(0.000102527 0.000123161 0.000140346);
    }
    heatsource2
    {
        type            compressible::alphatWallFunction;
        Prt             0.85;
        value           nonuniform List<scalar> 4(0.000159887 0.000142882 0.00014288 0.000172523);
    }
    Table_master
    {
        type            compressible::alphatWallFunction;
        Prt             0.85;
        value           nonuniform List<scalar> 9(8.23847e-05 7.25015e-05 6.51669e-05 5.94929e-05 5.48933e-05 5.10361e-05 4.77506e-05 4.49768e-05 4.27968e-05);
    }
    Table_slave
    {
        type            compressible::alphatWallFunction;
        Prt             0.85;
        value           nonuniform List<scalar> 9(8.8559e-05 8.28092e-05 8.51233e-05 9.17349e-05 9.82834e-05 0.000102215 0.000102176 9.87118e-05 9.35617e-05);
    }
    inlet
    {
        type            fixedValue;
        value           uniform 1.94e-05;
    }
    outlet
    {
        type            zeroGradient;
    }
}


// ************************************************************************* //
