// -*- C++ -*-
// File generated by PyFoam - sorry for the ugliness

FoamFile
{
 version 2.0;
 format ascii;
 class volVectorField;
 location "900";
 object U;
}

dimensions [ 0 1 -1 0 0 0 0 ];

internalField nonuniform List<vector> 459
(
  (0.0332163 0.0853622 0)
  (-0.16591 0.0256004 0)
  (-0.190354 0.0178455 0)
  (-0.220946 0.0123857 0)
  (-0.243344 0.00641423 0)
  (-0.256735 0.000155514 0)
  (-0.259817 -0.00644956 0)
  (-0.251329 -0.0134095 0)
  (-0.231895 -0.0202957 0)
  (-0.20287 -0.0260728 0)
  (-0.167156 -0.0298984 0)
  (-0.128113 -0.0314947 0)
  (-0.0889539 -0.0313996 0)
  (-0.0544787 -0.0312957 0)
  (-0.0385496 -0.0329147 0)
  (-0.0022215 0.00729499 0)
  (-0.0219064 -0.0175828 0)
  (0.00194366 -0.0261744 0)
  (0.0226341 -0.0193374 0)
  (0.0382886 -0.0129661 0)
  (0.0497863 -0.00826733 0)
  (0.0565437 -0.00496388 0)
  (0.0598998 -0.00323731 0)
  (0.0614203 -0.00248582 0)
  (0.0622168 -0.00212659 0)
  (0.0627255 -0.0018987 0)
  (0.062994 -0.00170435 0)
  (0.0629509 -0.0014678 0)
  (0.0623849 -0.00101039 0)
  (0.0607277 4.3924e-05 0)
  (0.0567758 0.00224643 0)
  (0.0491979 0.00464677 0)
  (0.0413629 0.00670996 0)
  (-0.0105437 0.0203557 0)
  (0.205591 0.174396 0)
  (-0.154184 0.0669575 0)
  (-0.152345 0.0520727 0)
  (-0.183571 0.0407131 0)
  (-0.205426 0.0280095 0)
  (-0.218765 0.0139672 0)
  (-0.222285 -0.00168348 0)
  (-0.214506 -0.0185615 0)
  (-0.196566 -0.0346245 0)
  (-0.170194 -0.0473874 0)
  (-0.138531 -0.0550414 0)
  (-0.104972 -0.0570636 0)
  (-0.0727521 -0.0541198 0)
  (-0.0456779 -0.0477946 0)
  (-0.0284604 -0.0392001 0)
  (-0.0147289 -0.0194007 0)
  (-0.00738522 0.0125637 0)
  (0.0605024 0.0309409 0)
  (0.0319803 -0.0198962 0)
  (0.0388676 -0.0304457 0)
  (0.049588 -0.0257008 0)
  (0.0579634 -0.0176224 0)
  (0.0634616 -0.0102737 0)
  (0.0656105 -0.0042159 0)
  (0.0658995 -0.000863792 0)
  (0.0658039 0.000576817 0)
  (0.0658793 0.00124044 0)
  (0.0660362 0.00164952 0)
  (0.0661491 0.00202326 0)
  (0.0661731 0.00250699 0)
  (0.066056 0.00344531 0)
  (0.0652658 0.00573908 0)
  (0.0613759 0.0120737 0)
  (0.0515956 0.0174928 0)
  (0.0452371 0.0213379 0)
  (-0.0439158 0.0439799 0)
  (0.363489 0.260581 0)
  (-0.17 0.106193 0)
  (-0.113796 0.0837934 0)
  (-0.143564 0.0635692 0)
  (-0.162549 0.0427327 0)
  (-0.1745 0.02003 0)
  (-0.177328 -0.00534274 0)
  (-0.168674 -0.0323041 0)
  (-0.150703 -0.0572187 0)
  (-0.125909 -0.0760296 0)
  (-0.0977308 -0.0862868 0)
  (-0.0691702 -0.0877619 0)
  (-0.042553 -0.0815891 0)
  (-0.0201035 -0.0692841 0)
  (-0.00378771 -0.0519416 0)
  (0.00889513 -0.026204 0)
  (0.015772 0.00807324 0)
  (0.105406 -0.0400456 0)
  (0.0727623 -0.0434514 0)
  (0.0688672 -0.0394092 0)
  (0.0710863 -0.0314226 0)
  (0.0726445 -0.0222397 0)
  (0.0734541 -0.0145697 0)
  (0.0717367 -0.0118802 0)
  (0.0677977 -0.0085153 0)
  (0.0650937 -0.00669273 0)
  (0.0638788 -0.00565949 0)
  (0.0633459 -0.00501218 0)
  (0.0630844 -0.00455281 0)
  (0.0631407 -0.00410228 0)
  (0.0639857 -0.00330065 0)
  (0.0668292 -0.000175568 0)
  (0.0647973 0.0170561 0)
  (0.051533 0.0293087 0)
  (0.0509184 0.0379878 0)
  (-0.0732459 0.0691082 0)
  (0.505501 0.329698 0)
  (-0.203432 0.140798 0)
  (-0.0736454 0.110309 0)
  (-0.101171 0.0824599 0)
  (-0.114294 0.0557652 0)
  (-0.122279 0.0261355 0)
  (-0.121531 -0.00856987 0)
  (-0.109587 -0.0459962 0)
  (-0.0907247 -0.079039 0)
  (-0.0682138 -0.102366 0)
  (-0.0452351 -0.113687 0)
  (-0.0237038 -0.113834 0)
  (-0.00444854 -0.104648 0)
  (0.0120819 -0.0877043 0)
  (0.0255272 -0.0659885 0)
  (0.0398908 -0.0400535 0)
  (0.062075 -0.0136748 0)
  (0.0925714 -0.000862855 0)
  (0.100444 -0.0335411 0)
  (0.0869564 -0.0384982 0)
  (0.0784914 -0.0340652 0)
  (0.0744426 -0.0276735 0)
  (0.0718319 -0.0202494 0)
  (0.070644 -0.0116906 0)
  (0.0724512 -0.00687343 0)
  (0.0765946 -0.0054617 0)
  (0.0800386 -0.00466848 0)
  (0.0824005 -0.00404428 0)
  (0.0838606 -0.00322634 0)
  (0.0838541 -0.00196501 0)
  (0.0813137 -4.28398e-05 0)
  (0.0750085 0.00282232 0)
  (0.062161 0.0071568 0)
  (0.0512421 0.0274358 0)
  (0.0406015 0.0442987 0)
  (0.0538343 0.0579052 0)
  (-0.103462 0.0920075 0)
  (0.627432 0.383153 0)
  (-0.244221 0.169009 0)
  (-0.0346634 0.124943 0)
  (-0.0571712 0.0926275 0)
  (-0.0619088 0.0626821 0)
  (-0.0628157 0.0283234 0)
  (-0.0525642 -0.0147965 0)
  (-0.0349727 -0.0615447 0)
  (-0.0161356 -0.0993652 0)
  (0.00156565 -0.123618 0)
  (0.0162348 -0.132932 0)
  (0.0277167 -0.130076 0)
  (0.0365895 -0.118185 0)
  (0.0435436 -0.0997539 0)
  (0.0496938 -0.0774442 0)
  (0.0570286 -0.0538797 0)
  (0.0681381 -0.0344835 0)
  (0.0786309 -0.029489 0)
  (0.0802991 -0.035134 0)
  (0.0738178 -0.0337413 0)
  (0.0658813 -0.0286354 0)
  (0.0598727 -0.0229737 0)
  (0.0556854 -0.017204 0)
  (0.0535245 -0.01134 0)
  (0.0537392 -0.00627733 0)
  (0.0559723 -0.0039721 0)
  (0.0584474 -0.00314046 0)
  (0.0608513 -0.00242434 0)
  (0.0630707 -0.000897138 0)
  (0.0647208 0.00198743 0)
  (0.0646274 0.00633502 0)
  (0.0622139 0.0123058 0)
  (0.0567957 0.0205462 0)
  (0.050222 0.0359855 0)
  (0.0412148 0.0545692 0)
  (0.0621007 0.0751405 0)
  (-0.0168438 0.104366 0)
  (0.0453932 0.0341339 0)
  (-0.0613407 -0.0344566 0)
  (-0.268977 -0.0567317 0)
  (0.715048 0.427669 0)
  (-0.283524 0.187837 0)
  (-0.00565262 0.119792 0)
  (-0.011862 0.091721 0)
  (-0.00504965 0.0627447 0)
  (0.00481741 0.0220079 0)
  (0.0326548 -0.0315603 0)
  (0.0537376 -0.0799914 0)
  (0.0687264 -0.114895 0)
  (0.0774911 -0.134644 0)
  (0.0807486 -0.14034 0)
  (0.0799365 -0.13463 0)
  (0.0764293 -0.120559 0)
  (0.0716171 -0.10109 0)
  (0.0669718 -0.07913 0)
  (0.0638676 -0.0573724 0)
  (0.0632136 -0.0395231 0)
  (0.0627126 -0.0301461 0)
  (0.0586854 -0.0275959 0)
  (0.051092 -0.02525 0)
  (0.0429046 -0.0214902 0)
  (0.0364 -0.0174267 0)
  (0.0319927 -0.0135413 0)
  (0.0298377 -0.00988191 0)
  (0.029889 -0.00709072 0)
  (0.0316619 -0.00618395 0)
  (0.0342319 -0.00617241 0)
  (0.0372605 -0.0058695 0)
  (0.040581 -0.00431769 0)
  (0.043964 -0.000672989 0)
  (0.0469363 0.00532484 0)
  (0.0484668 0.0133602 0)
  (0.0487744 0.0236396 0)
  (0.0492821 0.0379594 0)
  (0.0485744 0.0559561 0)
  (0.0704972 0.0788751 0)
  (0.0524173 0.0974767 0)
  (0.091507 0.0684661 0)
  (0.114522 0.0446485 0)
  (-0.128326 -0.00741232 0)
  (0.76775 0.468268 0)
  (-0.302111 0.173271 0)
  (0.0219132 0.0677511 0)
  (0.0491679 0.063284 0)
  (0.0695522 0.0449242 0)
  (0.101079 -0.00144992 0)
  (0.133111 -0.0551505 0)
  (0.151812 -0.0966835 0)
  (0.158258 -0.123079 0)
  (0.154469 -0.135162 0)
  (0.143026 -0.135011 0)
  (0.126763 -0.125441 0)
  (0.108221 -0.109362 0)
  (0.0895586 -0.0896837 0)
  (0.0725309 -0.0690062 0)
  (0.0582644 -0.0494259 0)
  (0.0472882 -0.0335695 0)
  (0.0385377 -0.0238261 0)
  (0.0300414 -0.019332 0)
  (0.0214595 -0.0168122 0)
  (0.0138085 -0.0144278 0)
  (0.00805468 -0.0122363 0)
  (0.00437271 -0.0104053 0)
  (0.00273558 -0.00892866 0)
  (0.00295476 -0.00815764 0)
  (0.00451935 -0.00844675 0)
  (0.00681952 -0.00915837 0)
  (0.00964526 -0.0094331 0)
  (0.0130501 -0.0084204 0)
  (0.0171629 -0.0051336 0)
  (0.0229168 0.00137618 0)
  (0.0286078 0.0101882 0)
  (0.0340106 0.0205791 0)
  (0.0409579 0.0332222 0)
  (0.0487457 0.0479205 0)
  (0.0704994 0.0663952 0)
  (0.0840817 0.0748223 0)
  (0.115904 0.0527868 0)
  (0.155448 0.0441087 0)
  (-0.0364125 0.092625 0)
  (0.872474 0.469712 0)
  (-0.0647346 0.151962 0)
  (0.10965 -0.0135771 0)
  (0.181125 -0.0398065 0)
  (0.210094 -0.0509771 0)
  (0.241685 -0.0735463 0)
  (0.260033 -0.0961581 0)
  (0.261474 -0.112494 0)
  (0.247463 -0.120493 0)
  (0.222026 -0.120121 0)
  (0.189629 -0.112543 0)
  (0.154306 -0.0995677 0)
  (0.119217 -0.0829713 0)
  (0.086769 -0.0649142 0)
  (0.0585905 -0.0473299 0)
  (0.035329 -0.0314694 0)
  (0.0177433 -0.0194362 0)
  (0.00501916 -0.0126012 0)
  (-0.00473563 -0.00987104 0)
  (-0.0121306 -0.00902348 0)
  (-0.0179496 -0.00857335 0)
  (-0.0221518 -0.00834178 0)
  (-0.0248692 -0.00834842 0)
  (-0.0262673 -0.0086073 0)
  (-0.026588 -0.00925934 0)
  (-0.0262406 -0.0103569 0)
  (-0.0256046 -0.0115885 0)
  (-0.0247793 -0.0124976 0)
  (-0.0235997 -0.0125865 0)
  (-0.0216696 -0.011285 0)
  (-0.0180149 -0.0078714 0)
  (-0.00934188 -0.0016444 0)
  (-0.001056 0.00640544 0)
  (0.0094417 0.014571 0)
  (0.0211202 0.0216677 0)
  (0.0409162 0.0290587 0)
  (0.0600061 0.0226675 0)
  (0.0801067 -0.00455435 0)
  (0.138967 0.0390403 0)
  (-0.405014 0.202518 0)
  (1.0193 0.422971 0)
  (0.484922 0.279565 0)
  (0.499714 0.183298 0)
  (0.525639 0.112501 0)
  (0.506712 0.0618004 0)
  (0.46537 0.0148657 0)
  (0.417098 -0.0246845 0)
  (0.363988 -0.0521014 0)
  (0.306289 -0.0664091 0)
  (0.246883 -0.0694742 0)
  (0.189221 -0.0645963 0)
  (0.135925 -0.0549604 0)
  (0.0885397 -0.0425082 0)
  (0.04861 -0.0294046 0)
  (0.0162986 -0.0174597 0)
  (-0.00936091 -0.00780488 0)
  (-0.0248167 -0.00330174 0)
  (-0.0342767 -0.00214718 0)
  (-0.0406369 -0.00260589 0)
  (-0.0455145 -0.00358852 0)
  (-0.0494849 -0.0045965 0)
  (-0.0527027 -0.00559859 0)
  (-0.0552938 -0.00661553 0)
  (-0.0574261 -0.00766759 0)
  (-0.0593425 -0.00880113 0)
  (-0.0613882 -0.00999612 0)
  (-0.063907 -0.011047 0)
  (-0.0671912 -0.0115806 0)
  (-0.0715502 -0.0110666 0)
  (-0.0774095 -0.0088179 0)
  (-0.0853159 -0.00402342 0)
  (-0.0952362 0.00387704 0)
  (-0.105313 0.014363 0)
  (-0.120067 0.0276673 0)
  (-0.143229 0.0439405 0)
  (-0.177306 0.0621264 0)
  (-0.225669 0.0783616 0)
  (-0.281378 0.0900983 0)
  (-0.349467 0.0972645 0)
  (-0.609428 0.100357 0)
  (-0.152593 0.00265145 0)
  (0.122167 0.00354859 0)
  (0.202558 -0.0293885 0)
  (0.189286 -0.0403336 0)
  (0.173364 -0.0391865 0)
  (0.151495 -0.0349544 0)
  (0.122208 -0.0292566 0)
  (0.0885417 -0.0222476 0)
  (0.0539821 -0.0143924 0)
  (0.0192777 -0.0062856 0)
  (-0.0143888 0.00144259 0)
  (-0.0375486 0.00603397 0)
  (-0.0534679 0.00855654 0)
  (-0.0631368 0.00921482 0)
  (-0.0684186 0.00844776 0)
  (-0.0720492 0.00752031 0)
  (-0.0748913 0.0067374 0)
  (-0.0774324 0.0061273 0)
  (-0.0799889 0.00558866 0)
  (-0.0826682 0.00489048 0)
  (-0.0854605 0.00409425 0)
  (-0.0884484 0.00322647 0)
  (-0.091756 0.00234558 0)
  (-0.0955181 0.00157694 0)
  (-0.0998053 0.0011689 0)
  (-0.104617 0.00143105 0)
  (-0.109875 0.00268607 0)
  (-0.115403 0.00522432 0)
  (-0.120598 0.00955222 0)
  (-0.124712 0.0165788 0)
  (-0.128117 0.0274279 0)
  (-0.131028 0.0424843 0)
  (-0.134109 0.0609555 0)
  (-0.1378 0.0794369 0)
  (-0.139068 0.0883845 0)
  (-0.121719 0.0672634 0)
  (-0.0792858 -0.0230119 0)
  (-0.274114 -0.19829 0)
  (0.0136163 0.19502 0)
  (0.0417779 0.0710575 0)
  (0.000574579 0.00648454 0)
  (-0.0115939 -0.00164786 0)
  (-0.0241376 6.23954e-05 0)
  (-0.0385576 4.78465e-05 0)
  (-0.0546716 0.000902009 0)
  (-0.0703102 0.00301964 0)
  (-0.0829311 0.00511812 0)
  (-0.0902629 0.00558093 0)
  (-0.094851 0.00381225 0)
  (-0.0968945 -7.57545e-05 0)
  (-0.0973425 -0.00460675 0)
  (-0.0969 -0.00949223 0)
  (-0.0964714 -0.0147144 0)
  (-0.096634 -0.019807 0)
  (-0.0974241 -0.0244724 0)
  (-0.0987428 -0.0284343 0)
  (-0.100459 -0.0315011 0)
  (-0.102515 -0.0336141 0)
  (-0.104958 -0.0348969 0)
  (-0.107694 -0.0353096 0)
  (-0.110621 -0.0348053 0)
  (-0.113662 -0.033653 0)
  (-0.116693 -0.0318189 0)
  (-0.119472 -0.0290705 0)
  (-0.121619 -0.0249908 0)
  (-0.122649 -0.0189446 0)
  (-0.122141 -0.0110273 0)
  (-0.119228 -0.000938567 0)
  (-0.112543 0.0120502 0)
  (-0.100798 0.0285878 0)
  (-0.083546 0.0482078 0)
  (-0.0615488 0.0670245 0)
  (-0.0376505 0.0780651 0)
  (0.00206225 0.0622946 0)
  (0.143033 -0.00805793 0)
  (-0.204975 -0.108502 0)
  (-0.0435017 -0.319845 0)
  (-0.413101 -0.123044 0)
  (-0.301117 0.0647527 0)
  (-0.248742 -0.0173712 0)
  (-0.208759 -0.0231275 0)
  (-0.197124 -0.0121858 0)
  (-0.192532 -0.00251421 0)
  (-0.189107 0.00551477 0)
  (-0.184755 0.0130626 0)
  (-0.178518 0.0205725 0)
  (-0.170183 0.0281322 0)
  (-0.160027 0.0356591 0)
  (-0.149116 0.0429769 0)
  (-0.138618 0.0500393 0)
  (-0.129351 0.0570992 0)
  (-0.12163 0.0641368 0)
  (-0.115513 0.0711155 0)
  (-0.110837 0.077808 0)
  (-0.107362 0.0837938 0)
  (-0.104878 0.088667 0)
  (-0.1032 0.0921679 0)
  (-0.102176 0.0942109 0)
  (-0.10172 0.0948804 0)
  (-0.101785 0.0941329 0)
  (-0.102322 0.0919212 0)
  (-0.103246 0.0887487 0)
  (-0.104431 0.0848449 0)
  (-0.105653 0.0802988 0)
  (-0.106529 0.0751489 0)
  (-0.106392 0.0694457 0)
  (-0.103976 0.0644907 0)
  (-0.0974519 0.0611971 0)
  (-0.0844553 0.0604385 0)
  (-0.063174 0.0631604 0)
  (-0.0340209 0.0699056 0)
  (0.0115954 0.0798068 0)
  (0.0548414 0.0808646 0)
  (0.0957326 0.0680655 0)
  (0.161008 0.0423175 0)
  (-0.232249 -0.0078535 0)
)
;

boundaryField
{
  floor
  {
    type noSlip;
  }
  ceiling
  {
    type noSlip;
  }
  sWall
  {
    type noSlip;
  }
  nWall
  {
    type noSlip;
  }
  sideWalls
  {
    type empty;
  }
  glass1
  {
    type noSlip;
  }
  glass2
  {
    type noSlip;
  }
  sun
  {
    type noSlip;
  }
  heatsource1
  {
    type noSlip;
  }
  heatsource2
  {
    type noSlip;
  }
  Table_master
  {
    type noSlip;
  }
  Table_slave
  {
    type noSlip;
  }
  inlet
  {
    type fixedValue;
    value uniform (0.277164 -0.114805 0);
  }
  outlet
  {
    type zeroGradient;
  }
} 	// ************************************************************************* //

