/*--------------------------------*- C++ -*----------------------------------*\
  =========                 |
  \\      /  F ield         | OpenFOAM: The Open Source CFD Toolbox
   \\    /   O peration     | Website:  https://openfoam.org
    \\  /    A nd           | Version:  6
     \\/     M anipulation  |
\*---------------------------------------------------------------------------*/
FoamFile
{
    version     2.0;
    format      ascii;
    class       volScalarField;
    location    "200";
    object      nut;
}
// * * * * * * * * * * * * * * * * * * * * * * * * * * * * * * * * * * * * * //

dimensions      [0 2 -1 0 0 0 0];

internalField   nonuniform List<scalar> 
459
(
0.000719644
0.000739833
0.000680546
0.000706155
0.000733775
0.000759814
0.000784361
0.000808057
0.000831873
0.000856051
0.000876168
0.000890941
0.00089943
0.000901076
0.000892279
0.000349329
0.000385794
0.000388335
0.000301555
0.000242978
0.000226975
0.000215787
0.000217924
0.000237044
0.000261344
0.000286886
0.000309318
0.000324189
0.000334078
0.000360397
0.000404273
0.000438766
0.000429466
0.000376195
0.00122386
0.00214493
0.00157537
0.00207244
0.00226196
0.00245477
0.0026543
0.00284354
0.00299817
0.00310005
0.00315026
0.00311523
0.00293967
0.00253463
0.00181171
0.000956998
0.000643065
0.000445289
0.00113981
0.00128831
0.00119448
0.000914407
0.000546933
0.000312223
0.00034131
0.000473079
0.000656609
0.000845865
0.00101765
0.00115901
0.00127719
0.00139874
0.00152068
0.00145314
0.00143441
0.000461633
0.00166921
0.00354412
0.00166359
0.00293471
0.00336656
0.00358444
0.00377083
0.00392983
0.00405428
0.0041376
0.00417999
0.00414469
0.00397015
0.00356495
0.00284746
0.00189707
0.00101075
0.000796592
0.00219388
0.00202526
0.00171544
0.00134094
0.000944589
0.000300718
0.00030226
0.000337328
0.000372749
0.000409442
0.000449486
0.000496515
0.000555804
0.000637098
0.00154166
0.00142877
0.00112679
0.000629541
0.00209078
0.00529817
0.0018679
0.00307446
0.00392137
0.00414592
0.00428894
0.00441045
0.00451791
0.00460843
0.00470436
0.00479046
0.00481152
0.00466109
0.00417837
0.00322831
0.00196176
0.00106174
0.00246118
0.00280813
0.00252646
0.00205039
0.00156416
0.00107173
0.000680949
0.000675071
0.000672367
0.000671064
0.000672138
0.000678066
0.00069265
0.000723049
0.000785456
0.00206523
0.00263006
0.0026692
0.000937765
0.00248121
0.00718992
0.00247521
0.00277636
0.00403474
0.00430322
0.00439854
0.00446897
0.0045411
0.00462639
0.00477713
0.00501667
0.00532746
0.00566047
0.00592754
0.00602233
0.0058754
0.00550526
0.005283
0.00490394
0.00454447
0.00422983
0.00395311
0.00371076
0.00350011
0.00336243
0.00322276
0.00308727
0.00297758
0.0029203
0.00293175
0.00301103
0.00314
0.00329959
0.00339589
0.00334665
0.00287469
0.00128756
0.00115327
0.00101231
0.00284542
0.00887178
0.00369301
0.0025048
0.00367924
0.00411403
0.00424019
0.00428351
0.00429573
0.00430983
0.00444057
0.00470176
0.00509959
0.00561981
0.00618947
0.0066766
0.00693178
0.00687876
0.00660259
0.00623415
0.00588365
0.00559061
0.00534768
0.00512781
0.0048956
0.00463356
0.00433965
0.00403286
0.00375428
0.00355444
0.00346026
0.00345729
0.00350108
0.00353909
0.00354854
0.00349764
0.00325996
0.00269516
0.00206107
0.00106457
0.00318607
0.0100843
0.00585751
0.00306981
0.00281908
0.00337186
0.00382332
0.00405949
0.00409049
0.00401646
0.00406797
0.00422253
0.00450853
0.00496204
0.00556307
0.00619467
0.00668139
0.0069015
0.00686157
0.00667581
0.00645776
0.00626307
0.00609908
0.00594567
0.0057685
0.00553889
0.00523866
0.00486627
0.00445682
0.00408256
0.00380159
0.00361807
0.00349923
0.00339395
0.00325241
0.00302859
0.00268
0.00223767
0.00177363
0.0010407
0.00326854
0.0103031
0.00773938
0.00556723
0.00396483
0.00338565
0.00359423
0.0039518
0.00397459
0.00388597
0.00384483
0.00387052
0.0039757
0.00419387
0.00456884
0.00509566
0.00566019
0.00610319
0.00632183
0.00637209
0.00634579
0.00630408
0.0062734
0.00625421
0.00623182
0.00618429
0.00607686
0.00586455
0.00552933
0.00513104
0.00474801
0.00437777
0.00401248
0.00364946
0.00329378
0.00296625
0.00263336
0.0023336
0.00205571
0.00128866
0.00317201
0.00380049
0.00447856
0.00453658
0.00420914
0.00381126
0.00355488
0.00344937
0.00341011
0.00341695
0.00344721
0.00348792
0.00353955
0.00361873
0.00376017
0.00400492
0.00435855
0.00475671
0.00510543
0.00536407
0.00554512
0.00568007
0.00579605
0.00590996
0.00603366
0.00617813
0.00634198
0.0064876
0.00652771
0.00639604
0.00611401
0.00580614
0.00557228
0.00546105
0.00540476
0.0050623
0.00431532
0.00367453
0.00370507
0.0014767
0.00426508
0.00573374
0.0049029
0.00439963
0.00405535
0.00381807
0.00364977
0.00352031
0.00341905
0.00333851
0.00327453
0.00322899
0.00321196
0.00324247
0.00334286
0.0035229
0.00376609
0.00403837
0.00430696
0.00455264
0.00477133
0.00497046
0.00516576
0.0053803
0.00563939
0.00595034
0.00626035
0.00645158
0.00645978
0.0063099
0.00609947
0.00591272
0.00576101
0.0056043
0.00516901
0.00440186
0.00408239
0.00145343
0.00292186
0.00594544
0.00505341
0.00454232
0.00417214
0.00388506
0.00365991
0.00347656
0.00329941
0.00313987
0.00300486
0.00289919
0.00282743
0.00279543
0.00281073
0.00288098
0.0030099
0.00319306
0.00341615
0.00365769
0.003894
0.0041114
0.00430436
0.004475
0.0046334
0.00478856
0.00495089
0.00512117
0.00525019
0.00528799
0.00522943
0.00510563
0.00493786
0.00468003
0.00418864
0.00346921
0.00337469
0.00128979
0.00191065
0.00218144
0.00249451
0.00259574
0.00227719
0.00206889
0.0018992
0.00175244
0.00162259
0.00150718
0.00140866
0.00132159
0.00124312
0.00117194
0.00110769
0.00105063
0.0010014
0.000960742
0.000929221
0.000907022
0.000893762
0.000888415
0.000889618
0.000894993
0.000902571
0.000911233
0.00092046
0.000931052
0.000944904
0.000964326
0.000989147
0.00101659
0.00104102
0.00105516
0.00105181
0.00102949
0.00100191
0.000966212
0.000980332
0.000940751
)
;

boundaryField
{
    floor
    {
        type            nutkWallFunction;
        Cmu             0.09;
        kappa           0.41;
        E               9.8;
        value           nonuniform List<scalar> 
29
(
0.000107967
4.0058e-05
4.4903e-05
4.52383e-05
3.36101e-05
2.55126e-05
2.32561e-05
2.16649e-05
2.19679e-05
2.4675e-05
2.80742e-05
3.16015e-05
3.46647e-05
3.66794e-05
3.80127e-05
4.15357e-05
4.73338e-05
5.18336e-05
5.06194e-05
4.36266e-05
4.36266e-05
5.47952e-05
7.60278e-05
0.000113377
0.000107967
4.00579e-05
5.26865e-05
9.64877e-05
0.000127965
)
;
    }
    ceiling
    {
        type            nutkWallFunction;
        Cmu             0.09;
        kappa           0.41;
        E               9.8;
        value           nonuniform List<scalar> 
43
(
0.000223716
0.00025316
0.000286727
0.000297498
0.000263489
0.00024098
0.000222466
0.000206309
0.000191892
0.000178972
0.000167857
0.000157962
0.000148982
0.000140781
0.000133329
0.00012667
0.000120892
0.000116095
0.000112359
0.000109718
0.000108137
0.000107498
0.000107639
0.000108279
0.000109182
0.000110213
0.00011131
0.000112568
0.000114211
0.00011651
0.000119441
0.000122671
0.000125538
0.000127196
0.000126805
0.00012419
0.00012095
0.000116742
0.000118408
0.000113729
0.000358063
0.000422732
0.000331849
)
;
    }
    sWall
    {
        type            nutkWallFunction;
        Cmu             0.09;
        kappa           0.41;
        E               9.8;
        value           uniform 0.000223771;
    }
    nWall
    {
        type            nutkWallFunction;
        Cmu             0.09;
        kappa           0.41;
        E               9.8;
        value           nonuniform List<scalar> 6(0.000122181 0.000128308 0.000125515 0.000172916 0.000154329 0.000113734);
    }
    sideWalls
    {
        type            empty;
    }
    glass1
    {
        type            nutkWallFunction;
        Cmu             0.09;
        kappa           0.41;
        E               9.8;
        value           nonuniform List<scalar> 9(8.71028e-05 0.00014691 0.000197333 0.00024369 0.000285726 0.00032431 0.000359933 0.000368507 0.000358497);
    }
    glass2
    {
        type            nutkWallFunction;
        Cmu             0.09;
        kappa           0.41;
        E               9.8;
        value           nonuniform List<scalar> 2(0.000154243 0.000175596);
    }
    sun
    {
        type            nutkWallFunction;
        Cmu             0.09;
        kappa           0.41;
        E               9.8;
        value           nonuniform List<scalar> 
14
(
8.71317e-05
8.95971e-05
8.23343e-05
8.54798e-05
8.88572e-05
9.20276e-05
9.50045e-05
9.78678e-05
0.000100736
0.000103637
0.000106044
0.000107808
0.000108819
0.000109015
)
;
    }
    heatsource1
    {
        type            nutkWallFunction;
        Cmu             0.09;
        kappa           0.41;
        E               9.8;
        value           nonuniform List<scalar> 3(0.000154064 0.000138614 0.000122175);
    }
    heatsource2
    {
        type            nutkWallFunction;
        Cmu             0.09;
        kappa           0.41;
        E               9.8;
        value           nonuniform List<scalar> 4(0.00011565 7.77082e-05 7.77082e-05 0.000121986);
    }
    Table_master
    {
        type            nutkWallFunction;
        Cmu             0.09;
        kappa           0.41;
        E               9.8;
        value           nonuniform List<scalar> 9(3.35079e-05 3.3716e-05 3.84569e-05 4.31813e-05 4.80152e-05 5.32285e-05 5.92778e-05 6.68047e-05 7.69689e-05);
    }
    Table_slave
    {
        type            nutkWallFunction;
        Cmu             0.09;
        kappa           0.41;
        E               9.8;
        value           nonuniform List<scalar> 9(8.23869e-05 8.16628e-05 8.13293e-05 8.11684e-05 8.13006e-05 8.20306e-05 8.38239e-05 8.75483e-05 9.51355e-05);
    }
    inlet
    {
        type            calculated;
        value           uniform 3.3541e-05;
    }
    outlet
    {
        type            calculated;
        value           nonuniform List<scalar> 2(0.00191065 0.00218144);
    }
}


// ************************************************************************* //
