/*--------------------------------*- C++ -*----------------------------------*\
  =========                 |
  \\      /  F ield         | OpenFOAM: The Open Source CFD Toolbox
   \\    /   O peration     | Website:  https://openfoam.org
    \\  /    A nd           | Version:  6
     \\/     M anipulation  |
\*---------------------------------------------------------------------------*/
FoamFile
{
    version     2.0;
    format      ascii;
    class       surfaceScalarField;
    location    "360";
    object      phi;
}
// * * * * * * * * * * * * * * * * * * * * * * * * * * * * * * * * * * * * * //

dimensions      [1 0 -1 0 0 0 0];

internalField   nonuniform List<scalar> 
852
(
-0.00236839
0.00240214
-0.00330276
0.000934367
-0.0039975
0.000694726
-0.00450437
0.000506861
-0.00479256
0.000288178
-0.00483079
3.82297e-05
-0.00458642
-0.000244386
-0.00404736
-0.000539068
-0.00325471
-0.000792653
-0.00230286
-0.000951859
-0.0013186
-0.000984267
-0.000439927
-0.000878686
0.000169404
-0.000609341
0.000355372
-0.000185978
0.000352628
2.90445e-05
-3.28512e-05
0.000128075
-9.90471e-05
0.000428638
-0.000300579
0.000796088
-0.000367466
0.0011259
-0.000329831
0.00137868
-0.000252791
0.00151919
-0.000140534
0.00157648
-5.73028e-05
0.00160174
-2.5281e-05
0.00161344
-1.17227e-05
0.00161496
-1.53676e-06
0.00160647
8.47825e-06
0.00158393
2.25188e-05
0.00153391
4.99973e-05
0.00142394
0.000109951
0.00119761
0.000226308
0.000802488
0.000395101
0.000134208
0.000668258
0.000128774
-0.00174451
0.00423936
-0.00262705
0.00181689
-0.00333455
0.00140222
-0.00384326
0.00101557
-0.00413993
0.000584845
-0.00419636
9.46492e-05
-0.00398081
-0.000459942
-0.00349096
-0.00102893
-0.00278453
-0.00149909
-0.00196492
-0.00177148
-0.00115096
-0.00179823
-0.00044543
-0.00158423
9.6684e-05
-0.00115147
0.000504998
-0.000594302
0.00088297
-2.53539e-05
0.000556512
0.000326397
0.000556451
-0.000111804
7.01342e-05
0.000434593
-0.000645457
0.000807005
-0.000673004
0.00110195
-0.000662429
0.00134341
-0.000571298
0.00151929
-0.000428688
0.00156038
-0.000181647
0.00156922
-6.61563e-05
0.0015781
-3.41798e-05
0.00158541
-1.9047e-05
0.00158995
-6.09736e-06
0.00159179
6.61699e-06
0.00158994
2.43561e-05
0.00158
5.99096e-05
0.00152869
0.000161244
0.0013289
0.00042608
0.000986598
0.000737381
0.000596962
0.00105787
0.000711451
-0.00125939
0.00564268
-0.00200569
0.00256318
-0.00264243
0.00203895
-0.00309669
0.00146982
-0.00337435
0.000862502
-0.00343851
0.000158793
-0.00323292
-0.000665532
-0.00276502
-0.00149683
-0.00212078
-0.00214334
-0.00141073
-0.00248153
-0.000736226
-0.00247274
-0.00016535
-0.00215511
0.000282897
-0.00159972
0.000620565
-0.000931981
0.000846679
-0.000251479
0.000766079
0.000406987
0.00132252
0.000668788
-0.000612086
0.000947801
-0.000924482
0.00123074
-0.000955953
0.00140674
-0.00083845
0.00153534
-0.000699911
0.00169741
-0.000590774
0.0015159
0.00144988
0.00141584
0.00139693
0.00139096
0.00139771
0.0014222
0.00148225
0.00164362
0.00144221
0.000627474
0.00120054
0.000979032
0.000846868
0.00141152
0.00153587
-0.000902549
0.00673404
-0.00147417
0.0031348
-0.00192087
0.00248564
-0.00224591
0.00179486
-0.00245562
0.0010722
-0.0024918
0.000194971
-0.00225592
-0.000901427
-0.00179483
-0.00195793
-0.00122843
-0.00270974
-0.00065548
-0.00305448
-0.000144484
-0.00298374
0.000277188
-0.00257679
0.000624504
-0.00194705
0.000919486
-0.00122697
0.00118146
-0.000513465
0.00148019
0.000108248
0.00230851
0.000494186
0.00225874
3.68293e-05
0.00216305
-0.000516405
0.00193302
-0.000694462
0.00174146
-0.000764408
0.00162518
-0.00072218
0.00154841
-0.000623162
0.00142866
-0.000471045
0.00164407
-0.000215572
0.00176434
-0.000120446
0.00185573
-9.15626e-05
0.00193255
-7.69914e-05
0.00199125
-5.88805e-05
0.00201728
-2.61996e-05
0.00198376
3.33348e-05
0.00184978
0.000133804
0.00154746
0.000302149
0.00150854
0.000666365
0.00139534
0.00109222
0.00121266
0.00159417
0.00271937
-0.000643146
0.00760514
-0.00104625
0.00353789
-0.00118358
0.00262296
-0.00129923
0.0019105
-0.00137909
0.00115204
-0.00131267
0.000128544
-0.000989652
-0.00122445
-0.000554853
-0.00239273
-0.00011875
-0.00314585
0.000257257
-0.00343049
0.00055233
-0.00327882
0.000783179
-0.00280765
0.000978282
-0.00214217
0.00116236
-0.00141107
0.00137331
-0.00072443
0.00166031
-0.000178758
0.00203759
0.00011689
0.00213704
-6.26264e-05
0.00195938
-0.000338757
0.00176351
-0.000498602
0.00156523
-0.000566147
0.00140111
-0.000558075
0.00127451
-0.00049658
0.00119425
-0.000390806
0.00123385
-0.000255189
0.00128916
-0.000175782
0.00134514
-0.000147567
0.00140496
-0.000136833
0.00146689
-0.000120835
0.00152307
-8.24065e-05
0.00155703
-6.51139e-07
0.00155156
0.000139246
0.00151115
0.00034253
0.0015371
0.000640392
0.00166608
0.000963207
0.00212715
0.00113308
0.00329655
0.00154995
0.0021834
0.00111292
0.00133432
0.000848854
0.0013734
-0.000552121
0.00841893
-0.000787057
0.00377281
-0.000486282
0.00232217
-0.000285543
0.00170975
-0.000132275
0.000998765
0.000162135
-0.000165882
0.000562733
-0.00162506
0.000901546
-0.00273154
0.00112905
-0.00337334
0.00124615
-0.00354759
0.00128551
-0.00331818
0.00127549
-0.00279764
0.00125033
-0.00211702
0.00124295
-0.0014037
0.00128578
-0.000767282
0.00139904
-0.000292028
0.00155586
-3.99418e-05
0.0015658
-7.25871e-05
0.00143749
-0.000210463
0.00126605
-0.00032717
0.00108744
-0.00038756
0.000926622
-0.000397274
0.00079855
-0.00036853
0.00071914
-0.000311418
0.000706955
-0.000243029
0.000735193
-0.000204045
0.000783567
-0.000195968
0.000845396
-0.00019869
0.000918344
-0.000193812
0.00100115
-0.000165245
0.00109313
-9.26534e-05
0.00118521
4.7128e-05
0.00127401
0.000253709
0.00140541
0.000508955
0.00160536
0.000763231
0.00182774
0.000910674
0.00212528
0.00125239
0.00187799
0.00136019
0.00114476
0.00158205
0.00255884
-0.000618575
0.00932938
-0.000462712
0.00361694
0.000401886
0.00145757
0.000921481
0.00119014
0.00141107
0.000509162
0.00194469
-0.000699513
0.00230844
-0.00198881
0.00246569
-0.0028888
0.00242429
-0.00333193
0.00223036
-0.00335366
0.00194712
-0.00303496
0.00163146
-0.00248199
0.00133371
-0.00181929
0.0010936
-0.00116361
0.000940885
-0.000614588
0.000883131
-0.000234291
0.0008855
-4.23281e-05
0.000845063
-3.21676e-05
0.000742244
-0.000107662
0.000601651
-0.000186597
0.00044993
-0.00023586
0.000307938
-0.000255304
0.000192601
-0.000253218
0.000119322
-0.000238165
9.80364e-05
-0.000221771
0.000115847
-0.000221884
0.000156275
-0.000236425
0.000210741
-0.000253186
0.000277871
-0.000260972
0.000362937
-0.000250342
0.000478123
-0.00020787
0.00063218
-0.000106959
0.000809482
7.63763e-05
0.00100713
0.000311272
0.00122752
0.000542819
0.00141017
0.00072799
0.00163926
0.00102328
0.00176683
0.00123259
0.00152141
0.00182745
0.00412259
0.00190634
0.00774972
0.00247258
0.00305069
0.00265372
0.00127642
0.00305506
0.000788794
0.00366633
-0.000102126
0.00418387
-0.00121706
0.00431541
-0.00212034
0.00409608
-0.00266946
0.00362001
-0.00285586
0.00299308
-0.00272672
0.00231397
-0.00235586
0.00165663
-0.00182467
0.00108248
-0.00124515
0.000634472
-0.000715627
0.000337094
-0.000317233
0.00018051
-7.77287e-05
0.000112977
2.51838e-05
5.67504e-05
2.40373e-05
-2.78292e-05
-2.31042e-05
-0.000140823
-7.36263e-05
-0.000264704
-0.000112003
-0.000381663
-0.000138372
-0.000476458
-0.000158451
-0.000538515
-0.000176136
-0.000564554
-0.000195762
-0.000564056
-0.000222412
-0.000548332
-0.000252181
-0.000524828
-0.000276721
-0.000496717
-0.000289115
-0.000460539
-0.000286552
-0.000401034
-0.000267406
-0.000283156
-0.000224868
-8.40486e-05
-0.000122762
0.000159689
6.75052e-05
0.000401387
0.000301092
0.000592834
0.000536515
0.000808347
0.000807738
0.000999883
0.00104102
0.000585259
0.00224204
0.00488409
0.00808709
0.0111153
0.00966816
0.00272358
0.0090075
0.00144944
0.00841539
0.000489977
0.00760237
-0.000404029
0.00657296
-0.00109091
0.00541367
-0.00151015
0.00421172
-0.0016539
0.00304699
-0.001562
0.00198743
-0.00129631
0.00106797
-0.000905246
0.0003309
-0.000508111
-0.000179336
-0.000205422
-0.000478165
-1.84311e-05
-0.000624671
6.8752e-05
-0.000690815
9.13034e-05
-0.000740754
7.39509e-05
-0.000804597
4.07122e-05
-0.000886
7.74895e-06
-0.000976774
-2.12588e-05
-0.00106536
-4.98162e-05
-0.00114136
-8.24802e-05
-0.00120076
-0.000116767
-0.00124551
-0.000151047
-0.00128119
-0.000186768
-0.00131389
-0.000219509
-0.00135043
-0.000240216
-0.00140143
-0.000238147
-0.0014802
-0.000207812
-0.00160331
-0.000144325
-0.00177996
-4.82462e-05
-0.00201407
0.000111316
-0.00230328
0.000356689
-0.00270898
0.000706768
-0.00336018
0.00118769
-0.00438455
0.00183208
-0.00584048
0.00249693
-0.00607171
0.00247325
-0.000997928
0.00599186
0.00305055
0.00519214
0.0022492
0.00498674
0.000695436
0.00468186
-9.91051e-05
0.00406563
-0.000474662
0.00320992
-0.000654442
0.00223448
-0.000678478
0.00125561
-0.000583154
0.000351618
-0.000392365
-0.000388043
-0.000165626
-0.000893382
-2.80677e-06
-0.00118027
8.14355e-05
-0.00132056
0.000121824
-0.00137979
0.000127958
-0.00140851
0.000119996
-0.00143608
0.000101491
-0.00147323
7.7835e-05
-0.00151912
5.36014e-05
-0.00156956
2.91545e-05
-0.0016243
4.89441e-06
-0.0016846
-2.22189e-05
-0.00175166
-4.9739e-05
-0.00182868
-7.40568e-05
-0.00191676
-9.87185e-05
-0.00201516
-0.000121145
-0.0021214
-0.000134005
-0.00223532
-0.000124257
-0.00235591
-8.72451e-05
-0.00248502
-1.52448e-05
-0.00262207
8.8774e-05
-0.00275269
0.000241906
-0.00286798
0.000471951
-0.0029636
0.000802361
-0.00302522
0.00124928
-0.00301115
0.00181798
-0.00279076
0.00227652
-0.00123576
0.000918215
-0.00219136
0.000435667
0.00260314
0.00131604
0.00136885
0.00137958
0.000631916
0.00113819
0.000142286
0.000736783
-7.32725e-05
0.000213456
-0.000131152
-0.000367283
-9.77905e-05
-0.000926592
-2.38887e-05
-0.00137667
5.76693e-05
-0.00166169
0.000119357
-0.00180758
0.000143049
-0.00187442
0.000148242
-0.00189176
0.000139132
-0.00188733
0.000123504
-0.00187491
0.000107541
-0.00186465
9.1195e-05
-0.00186142
7.45719e-05
-0.00186604
5.8192e-05
-0.00187899
4.20679e-05
-0.00190022
2.60973e-05
-0.00193534
1.28665e-05
-0.00198665
1.53583e-06
-0.00205414
-6.5969e-06
-0.0021425
-1.03876e-05
-0.00225468
-8.99192e-06
-0.00238707
-1.64541e-06
-0.00252521
1.38461e-05
-0.00265203
3.9552e-05
-0.00274319
7.58804e-05
-0.00279177
0.000137325
-0.00277537
0.000225477
-0.00265517
0.000351728
-0.00238563
0.000532792
-0.0019024
0.00076602
-0.00101967
0.000935236
0.00042385
0.000832965
0.00140463
-6.25879e-05
-0.000743476
-0.00575586
-0.00699199
-0.0044102
-0.00306601
-0.00246254
-0.00235252
-0.00246022
-0.00262697
-0.00276164
-0.00282401
-0.00280653
-0.00272914
-0.00262962
-0.00252592
-0.00243192
-0.00235385
-0.00229188
-0.00224632
-0.00221741
-0.0022049
-0.00220853
-0.00222816
-0.00226105
-0.00230533
-0.00235781
-0.00241428
-0.00246972
-0.00251843
-0.00255249
-0.0025619
-0.00253622
-0.0024504
-0.00227769
-0.00197983
-0.00150173
-0.000790973
8.85182e-05
0.00086495
0.000746279
)
;

boundaryField
{
    floor
    {
        type            calculated;
        value           nonuniform List<scalar> 
29
(
0
0
0
0
0
0
0
0
0
0
0
0
0
0
0
0
0
0
0
0
5.40805e-06
1.42615e-05
2.24249e-05
2.91327e-05
2.73267e-06
3.78921e-06
8.80321e-06
1.34208e-05
1.29301e-05
)
;
    }
    ceiling
    {
        type            calculated;
        value           nonuniform List<scalar> 
43
(
2.38281e-05
2.21538e-05
2.13207e-05
2.4634e-05
2.83987e-05
3.22213e-05
3.43836e-05
3.55487e-05
3.68357e-05
3.84455e-05
4.01511e-05
4.19366e-05
4.34867e-05
4.45143e-05
4.51009e-05
4.54002e-05
4.55364e-05
4.5597e-05
4.56283e-05
4.56493e-05
4.56687e-05
4.56934e-05
4.57257e-05
4.57785e-05
4.58559e-05
4.60442e-05
4.642e-05
4.70366e-05
4.78703e-05
4.89309e-05
5.01755e-05
5.14782e-05
5.27392e-05
5.38359e-05
5.4669e-05
5.52312e-05
5.57177e-05
5.65054e-05
5.60553e-05
5.7869e-05
2.74522e-05
2.24462e-05
1.17649e-05
)
;
    }
    sWall
    {
        type            calculated;
        value           uniform -0.000169106;
    }
    nWall
    {
        type            calculated;
        value           nonuniform List<scalar> 6(-3.93018e-05 -4.07116e-05 -4.23575e-05 -4.23521e-05 -4.32861e-05 -5.50943e-05);
    }
    sideWalls
    {
        type            empty;
        value           nonuniform 0();
    }
    glass1
    {
        type            calculated;
        value           nonuniform List<scalar> 9(-3.37612e-05 -9.27171e-05 -0.000143928 -0.000188819 -0.000227957 -0.000261681 -0.000291884 -0.00032668 -0.000364822);
    }
    glass2
    {
        type            calculated;
        value           nonuniform List<scalar> 2(-0.000176267 -0.000189714);
    }
    sun
    {
        type            calculated;
        value           uniform 0;
    }
    heatsource1
    {
        type            calculated;
        value           nonuniform List<scalar> 3(2.02779e-07 2.03262e-07 2.03612e-07);
    }
    heatsource2
    {
        type            calculated;
        value           nonuniform List<scalar> 4(5.09865e-08 5.10697e-08 0 0);
    }
    Table_master
    {
        type            calculated;
        value           nonuniform List<scalar> 9(-1.52572e-07 -1.52691e-07 -1.52724e-07 -1.52744e-07 -1.52756e-07 -1.52759e-07 -1.52755e-07 -1.52738e-07 -1.52688e-07);
    }
    Table_slave
    {
        type            calculated;
        value           nonuniform List<scalar> 9(1.52459e-07 1.52477e-07 1.52443e-07 1.52412e-07 1.52386e-07 1.52373e-07 1.52372e-07 1.52385e-07 1.52436e-07);
    }
    inlet
    {
        type            calculated;
        value           uniform -0.00631882;
    }
    outlet
    {
        type            calculated;
        value           nonuniform List<scalar> 2(0.00590112 0.00121396);
    }
}


// ************************************************************************* //
