/*--------------------------------*- C++ -*----------------------------------*\
  =========                 |
  \\      /  F ield         | OpenFOAM: The Open Source CFD Toolbox
   \\    /   O peration     | Website:  https://openfoam.org
    \\  /    A nd           | Version:  6
     \\/     M anipulation  |
\*---------------------------------------------------------------------------*/
FoamFile
{
    version     2.0;
    format      ascii;
    class       surfaceScalarField;
    location    "1400";
    object      phi;
}
// * * * * * * * * * * * * * * * * * * * * * * * * * * * * * * * * * * * * * //

dimensions      [1 0 -1 0 0 0 0];

internalField   nonuniform List<scalar> 
852
(
0.00450737
-0.00447998
0.00863295
-0.00412547
0.0108535
-0.00222045
0.0120037
-0.00115013
0.012671
-0.000667111
0.0130158
-0.000344755
0.0130743
-5.83427e-05
0.0128762
0.000198247
0.012436
0.000440229
0.0117458
0.000690347
0.0107741
0.000971841
0.0094553
0.00131889
0.00764527
0.00181015
0.00493924
0.00270614
0.00493805
-0.000451265
0.000453725
-0.000484093
3.28732e-05
-0.000408871
-7.51739e-05
-0.000358119
-5.06978e-05
-0.000315198
-4.28594e-05
-0.000218217
-9.69176e-05
-1.63662e-05
-0.00020179
0.000186267
-0.000202582
0.000278186
-9.18738e-05
0.000340341
-6.21132e-05
0.000393896
-5.35125e-05
0.000442238
-4.82993e-05
0.000491563
-4.9281e-05
0.000534771
-4.31634e-05
0.00053475
6.29533e-08
0.000495805
3.89891e-05
0.000486989
8.86191e-06
0.00046489
2.21437e-05
0.000467127
0.00489071
-0.00929313
0.00743566
-0.00667031
0.00878893
-0.00357361
0.00960299
-0.00196407
0.0101168
-0.00118084
0.0104033
-0.000631108
0.0104868
-0.000141721
0.0103655
0.000319687
0.0100346
0.000771165
0.00948356
0.00124155
0.0087001
0.00175541
0.00768255
0.00233656
0.00647741
0.0030154
0.00538519
0.00379847
0.00571908
0.00460426
0.00218772
0.00353143
0.00218778
0.000666299
-0.000207675
0.000644042
5.51704e-05
0.00041152
0.000157391
0.000216014
0.00014486
4.90848e-05
0.00012413
-0.000123653
7.58777e-05
-0.000115457
-0.000209924
-3.53365e-05
-0.000282647
4.77903e-06
-0.000131943
2.13489e-05
-7.86384e-05
2.47939e-05
-5.69108e-05
1.68824e-05
-4.03391e-05
-1.14835e-05
-2.08644e-05
-6.47501e-05
1.01612e-05
-0.000113879
4.92522e-05
-0.000126286
5.14511e-05
-0.000103786
-1.36019e-05
-0.000134764
5.31623e-05
0.000338011
0.00354559
-0.0127135
0.00510558
-0.00823018
0.00588462
-0.00435253
0.00641555
-0.00249489
0.00679973
-0.00156491
0.00704826
-0.000879523
0.00718575
-0.000279098
0.00719939
0.000306158
0.00706095
0.000909723
0.00674778
0.00155483
0.00625283
0.00225048
0.00559391
0.0029956
0.00483383
0.00377559
0.00407678
0.00455563
0.00333741
0.00534375
0.00187579
0.00499317
0.00406368
-0.000127583
-7.60314e-05
-0.000136677
6.43183e-05
-8.50155e-05
0.000105783
-4.45122e-05
0.000104414
2.57479e-06
7.71079e-05
5.49988e-05
2.35293e-05
-0.000154728
-0.000437161
-0.000568893
-0.000647321
-0.000704017
-0.000744136
-0.000764776
-0.000754389
-0.000704903
-0.000605015
-4.83398e-05
-0.00064519
2.66935e-05
-0.00062002
2.81279e-05
-0.000277348
0.00212282
-0.0146644
0.0029623
-0.00906954
0.00339579
-0.0047859
0.00360565
-0.00270463
0.00381821
-0.00177735
0.00400457
-0.00106576
0.00416365
-0.000438067
0.00426065
0.000209264
0.00425163
0.000918858
0.00410827
0.0016983
0.00381934
0.00253952
0.0033897
0.00342536
0.00283545
0.00432994
0.00217013
0.00522107
0.00144985
0.00606414
0.000633944
0.00580919
-8.15792e-05
0.0047793
-0.000849905
0.000768734
-0.000973691
4.78233e-05
-0.000987464
7.8159e-05
-0.00101635
0.000134742
-0.00108374
0.000171873
-0.00117797
0.00017141
-0.00128455
0.000130194
-0.00135566
7.1055e-05
-0.00136457
8.8399e-06
-0.00133122
-3.34075e-05
-0.00126904
-6.22426e-05
-0.00118631
-8.27972e-05
-0.00108693
-9.94331e-05
-0.000970107
-0.000116885
-0.000830238
-0.000139926
-0.000659287
-0.000171003
-0.000477202
-0.000230317
-0.000176019
-0.00027437
0.000159576
-0.000307334
-0.000116995
0.000953781
-0.0154003
0.00132291
-0.00943855
0.0014436
-0.00490648
0.00122885
-0.00248977
0.00131325
-0.00186164
0.00148678
-0.00123918
0.0016633
-0.000614473
0.00178411
8.85685e-05
0.00181497
0.00088811
0.00174402
0.00176936
0.001562
0.00272166
0.00126356
0.00372391
0.000846448
0.00474717
0.000332646
0.00573499
-0.000150575
0.00654747
-0.000607891
0.00626661
-0.00071628
0.00488779
-0.00110151
0.00115405
-0.00134329
0.00028968
-0.0014435
0.000178456
-0.00149022
0.000181543
-0.00150696
0.000188691
-0.0015059
0.00017043
-0.001497
0.000121384
-0.00147924
5.33857e-05
-0.00145576
-1.45462e-05
-0.00142037
-6.87117e-05
-0.00137421
-0.000108314
-0.00131944
-0.000137467
-0.00125703
-0.000161755
-0.001185
-0.000188816
-0.00109581
-0.000229028
-0.000972289
-0.00029442
-0.000808917
-0.000393586
-0.000548566
-0.000534614
-0.000131824
-0.000723967
0.000630795
-0.000879507
0.00141561
-0.000784907
0.0013948
2.07131e-05
0.0014174
-1.62717e-05
-0.0151205
1.00454e-05
-0.00946474
-0.000259813
-0.0046365
-0.000786932
-0.00196254
-0.000780921
-0.00186754
-0.000642816
-0.00137718
-0.000502887
-0.000754291
-0.000421562
7.35506e-06
-0.000403524
0.000870185
-0.000440126
0.00180607
-0.000541683
0.00282333
-0.000715939
0.00389828
-0.000959451
0.0049908
-0.00123164
0.00600729
-0.00139323
0.00670917
-0.00145791
0.00633139
-0.00120858
0.00463855
-0.00134931
0.00129487
-0.00150666
0.000447114
-0.00157859
0.000250478
-0.00158935
0.000192386
-0.00156007
0.000159499
-0.00151055
0.000121001
-0.00145835
6.92778e-05
-0.00141342
8.54516e-06
-0.0013784
-4.94761e-05
-0.00135153
-9.5493e-05
-0.00133166
-0.000128092
-0.00131984
-0.000149185
-0.00131809
-0.000163413
-0.00132712
-0.00017969
-0.00134337
-0.000212687
-0.00135638
-0.000281307
-0.00134599
-0.000403877
-0.00127959
-0.000600919
-0.00111087
-0.000892584
-0.000720739
-0.00126954
4.34397e-05
-0.00154899
0.000621226
-0.000556973
0.00206541
-0.000985934
-0.0138271
-0.00165865
-0.0087919
-0.0022439
-0.00405114
-0.00288585
-0.00132047
-0.00293117
-0.00182211
-0.00282313
-0.00148512
-0.00269975
-0.000877553
-0.00259686
-9.54246e-05
-0.00252076
0.000794197
-0.00247304
0.00175847
-0.00244516
0.00279555
-0.00243367
0.0038869
-0.0024264
0.00498364
-0.00238191
0.00596291
-0.00220598
0.00653336
-0.00191397
0.00603949
-0.00144888
0.00417356
-0.0014479
0.00129397
-0.00148936
0.000488664
-0.00148462
0.000245829
-0.00143547
0.000143325
-0.00135731
8.14285e-05
-0.00126969
3.34737e-05
-0.00118996
-1.03639e-05
-0.00113006
-5.12611e-05
-0.00109296
-8.64823e-05
-0.00107551
-0.000112847
-0.0010764
-0.00012711
-0.00109838
-0.000127112
-0.00114842
-0.00011328
-0.00123659
-9.14192e-05
-0.00137236
-7.68269e-05
-0.00155776
-9.58104e-05
-0.0017818
-0.000179739
-0.00202172
-0.000360899
-0.00225199
-0.000662223
-0.00243407
-0.00108736
-0.0024464
-0.00153656
-0.00152214
-0.00148113
0.000574079
-0.00358885
-0.00988998
-0.00556702
-0.00681361
-0.00560623
-0.00401181
-0.00571259
-0.00121399
-0.00529095
-0.00224364
-0.00494615
-0.00182981
-0.00471731
-0.00110628
-0.00454371
-0.00026891
-0.00438842
0.00063902
-0.00422318
0.00159334
-0.00402121
0.00259369
-0.00376797
0.00363378
-0.00344989
0.00466568
-0.00304544
0.00555856
-0.00252607
0.0060141
-0.0019475
0.00546102
-0.00137257
0.00359871
-0.00126441
0.00118592
-0.00120975
0.000434096
-0.00112255
0.000158722
-0.00100048
2.13509e-05
-0.000866141
-5.28184e-05
-0.000747583
-8.49905e-05
-0.000659102
-9.87509e-05
-0.000601744
-0.000108523
-0.000570125
-0.000118006
-0.000558613
-0.000124262
-0.000563463
-0.000122163
-0.000584276
-0.000106202
-0.000625289
-7.21693e-05
-0.000697313
-1.92973e-05
-0.000824702
5.0659e-05
-0.00104695
0.000126529
-0.00140451
0.000177923
-0.00191353
0.000148218
-0.00257027
-5.38777e-06
-0.00342747
-0.000230065
-0.00447964
-0.00048429
-0.00449673
-0.00146394
-0.00381208
-0.0095259
-0.0163545
-0.0114614
-0.00890484
-0.00801152
-0.00466375
-0.00690528
-0.00334977
-0.0064178
-0.00231718
-0.00619049
-0.00133349
-0.00603295
-0.000426337
-0.00583857
0.000444748
-0.0055543
0.00130918
-0.00515867
0.00219817
-0.00463527
0.00311049
-0.00397792
0.00400845
-0.00319603
0.00477677
-0.00233319
0.00515137
-0.00150971
0.00463764
-0.000821145
0.00291024
-0.000639207
0.00100407
-0.000527949
0.000322936
-0.0003725
3.37111e-06
-0.000198943
-0.000152107
-5.89049e-05
-0.000192759
3.96486e-05
-0.000183447
0.000102935
-0.00016194
0.000139127
-0.000144617
0.000155308
-0.000134089
0.000157393
-0.000126249
0.000150635
-0.000115306
0.000139971
-9.5438e-05
0.000129788
-6.18852e-05
0.00012342
-1.28277e-05
0.000125152
4.90277e-05
0.000140656
0.000111125
0.000173479
0.000145199
0.000221005
0.000100792
0.000257834
-4.21164e-05
0.000273464
-0.000245594
0.000288939
-0.000499665
0.00013062
-0.00130552
-0.00355944
-0.00918712
0.000132246
-0.00727298
-0.00657778
-0.00694842
-0.00367422
-0.0069984
-0.00226709
-0.00702605
-0.00130572
-0.00695055
-0.000501737
-0.0067382
0.000232516
-0.00637415
0.00094524
-0.00581206
0.00163619
-0.0050343
0.00233284
-0.00404648
0.00302074
-0.00288524
0.00361564
-0.00166399
0.00393022
-0.000499247
0.003473
0.000390486
0.00202061
0.000643009
0.000751651
0.000779561
0.000186486
0.000886968
-0.000103934
0.000953691
-0.000218728
0.000985982
-0.00022495
0.000999909
-0.000197273
0.00100482
-0.000166747
0.00100379
-0.00014349
0.000997343
-0.000127544
0.000986204
-0.000115009
0.000972509
-0.000101509
0.000960526
-8.33539e-05
0.000956649
-5.79048e-05
0.000968047
-2.41222e-05
0.00100767
9.50743e-06
0.00108672
3.21766e-05
0.00120741
2.46214e-05
0.00135495
-4.66422e-05
0.00150818
-0.000195246
0.00166225
-0.000399561
0.00176703
-0.000604338
0.00143799
-0.00097638
-0.00209509
-0.000455028
0.000561415
-0.00399318
-0.00303951
-0.0057938
-0.00187348
-0.00686465
-0.00119614
-0.00745095
-0.000719306
-0.00763148
-0.000321107
-0.00746066
6.18095e-05
-0.00700412
0.00048881
-0.0062608
0.00089297
-0.00521965
0.0012918
-0.00389292
0.00169413
-0.00232239
0.00204522
-0.000572948
0.00218088
0.00109392
0.00180624
0.00211026
0.00100436
0.00245039
0.000411628
0.00251671
0.000120267
0.00242624
-1.33566e-05
0.00227378
-6.61665e-05
0.0021398
-9.08687e-05
0.00204103
-9.84028e-05
0.00197281
-9.8419e-05
0.00192427
-9.48491e-05
0.00188532
-8.84944e-05
0.00184983
-7.94202e-05
0.00181631
-6.7884e-05
0.00178751
-5.44506e-05
0.0017697
-3.99957e-05
0.00177186
-2.6175e-05
0.00179745
-1.59802e-05
0.00184569
-1.59619e-05
0.00191221
-4.1789e-05
0.00197233
-0.000106658
0.00199614
-0.000218952
0.00199159
-0.000394907
0.00205073
-0.000663378
0.00213977
-0.00106532
7.28021e-05
0.00475615
-0.000354588
0.00016005
-0.00293996
-0.00487468
-0.00613281
-0.0069141
-0.007297
-0.00729665
-0.00686887
-0.00603648
-0.00480473
-0.00316997
-0.00118328
0.000940442
0.00269192
0.003643
0.00400252
0.00407216
0.00401011
0.00389772
0.00376284
0.00362207
0.00348239
0.00334697
0.00321833
0.00309907
0.00299162
0.00289787
0.00281889
0.00275409
0.00269984
0.00264594
0.00256647
0.00242226
0.00216571
0.00173284
0.00103059
-7.40839e-05
)
;

boundaryField
{
    floor
    {
        type            calculated;
        value           nonuniform List<scalar> 
29
(
0
0
0
0
0
0
0
0
0
0
0
0
0
0
0
0
0
0
0
0
-2.19358e-06
-5.59695e-06
-4.48665e-06
-6.32963e-07
1.30553e-06
-2.41499e-06
-4.85616e-06
-4.00139e-06
-3.3297e-07
)
;
    }
    ceiling
    {
        type            calculated;
        value           nonuniform List<scalar> 
43
(
0.000107963
0.000101277
4.69454e-05
6.06323e-05
6.13428e-05
6.21116e-05
6.20906e-05
6.18974e-05
6.15764e-05
6.11315e-05
6.06967e-05
6.01548e-05
5.94765e-05
5.86401e-05
5.72644e-05
5.48742e-05
5.33819e-05
5.22162e-05
5.07387e-05
4.87947e-05
4.63289e-05
4.41169e-05
4.24678e-05
4.13662e-05
4.0675e-05
4.02422e-05
3.99404e-05
3.96776e-05
3.93984e-05
3.9081e-05
3.87301e-05
3.83705e-05
3.80414e-05
3.77879e-05
3.76551e-05
3.77044e-05
3.80625e-05
3.89757e-05
3.94551e-05
3.7719e-05
1.79574e-05
1.51669e-05
2.60023e-05
)
;
    }
    sWall
    {
        type            calculated;
        value           uniform -0.000107916;
    }
    nWall
    {
        type            calculated;
        value           nonuniform List<scalar> 6(-2.27062e-05 -2.66804e-05 -3.0708e-05 -2.62589e-05 -2.80192e-05 -3.89129e-05);
    }
    sideWalls
    {
        type            empty;
        value           nonuniform 0();
    }
    glass1
    {
        type            calculated;
        value           nonuniform List<scalar> 9(-2.72812e-05 -7.74456e-05 -0.000125147 -0.000171778 -0.000217813 -0.000263322 -0.000307408 -0.000348139 -0.000381908);
    }
    glass2
    {
        type            calculated;
        value           nonuniform List<scalar> 2(-0.000110476 -0.000121921);
    }
    sun
    {
        type            calculated;
        value           uniform 0;
    }
    heatsource1
    {
        type            calculated;
        value           nonuniform List<scalar> 3(2.01175e-07 2.01269e-07 2.01346e-07);
    }
    heatsource2
    {
        type            calculated;
        value           nonuniform List<scalar> 4(4.92042e-08 4.96085e-08 0 0);
    }
    Table_master
    {
        type            calculated;
        value           nonuniform List<scalar> 9(-1.5257e-07 -1.52517e-07 -1.5243e-07 -1.52365e-07 -1.52307e-07 -1.52252e-07 -1.52198e-07 -1.52143e-07 -1.52064e-07);
    }
    Table_slave
    {
        type            calculated;
        value           nonuniform List<scalar> 9(1.51253e-07 1.51237e-07 1.51226e-07 1.51229e-07 1.51245e-07 1.5127e-07 1.51304e-07 1.51348e-07 1.51381e-07);
    }
    inlet
    {
        type            calculated;
        value           uniform 0.000150196;
    }
    outlet
    {
        type            calculated;
        value           nonuniform List<scalar> 2(-0.00475592 0.00500978);
    }
}


// ************************************************************************* //
