/*--------------------------------*- C++ -*----------------------------------*\
  =========                 |
  \\      /  F ield         | OpenFOAM: The Open Source CFD Toolbox
   \\    /   O peration     | Website:  https://openfoam.org
    \\  /    A nd           | Version:  6
     \\/     M anipulation  |
\*---------------------------------------------------------------------------*/
FoamFile
{
    version     2.0;
    format      ascii;
    class       surfaceScalarField;
    location    "1300";
    object      phi;
}
// * * * * * * * * * * * * * * * * * * * * * * * * * * * * * * * * * * * * * //

dimensions      [1 0 -1 0 0 0 0];

internalField   nonuniform List<scalar> 
852
(
-0.00234476
0.00237498
-0.00229732
-4.72606e-05
-0.00185875
-0.000438422
-0.00198068
0.000122058
-0.00239418
0.000413628
-0.0026226
0.000228564
-0.00239953
-0.000222938
-0.00209713
-0.000302271
-0.0017925
-0.000304499
-0.00152288
-0.000269501
-0.00128045
-0.000242306
-0.00103288
-0.000247443
-0.000744978
-0.000287781
-0.000405697
-0.00033916
-0.000409916
0.000164227
-0.000167596
7.00249e-05
9.42693e-05
6.95357e-06
6.31294e-05
1.44432e-05
-7.43476e-06
5.24052e-05
-3.78956e-05
0.000118873
-6.6393e-05
0.000210305
-9.13504e-05
0.00029862
-8.82306e-05
0.00037131
-7.26061e-05
0.000431019
-5.96273e-05
0.000480378
-4.92775e-05
0.00051968
-3.92188e-05
0.000534776
-1.5012e-05
0.000521206
1.36501e-05
0.000483164
3.81189e-05
0.000398607
8.46315e-05
0.000226078
0.000172605
-0.000117822
0.000343979
-0.000121244
0.00167375
0.000783701
0.00305238
-0.00142563
0.0031787
-0.000564493
0.00244884
0.000852128
0.00116497
0.00169769
-0.000345383
0.00173913
-0.00147122
0.000903036
-0.00171213
-6.12221e-05
-0.00159852
-0.000417976
-0.00147999
-0.000387907
-0.00137715
-0.00034502
-0.00128561
-0.000338853
-0.00119108
-0.000382187
-0.00105317
-0.000476934
-0.000849306
-0.000613652
-0.000152844
-0.000696377
-0.000152709
-0.000165544
-1.09994e-05
-0.000121154
4.99438e-05
-0.000145733
8.77749e-05
-0.000187759
3.46656e-05
-0.000214737
-1.08455e-05
-0.00025418
-2.68738e-05
-0.000182604
-0.00016284
-0.000151701
-0.000119045
-0.000141675
-8.25452e-05
-0.000144113
-5.71016e-05
-0.00015882
-3.44862e-05
-0.000190805
-7.14979e-06
-0.000234814
2.90823e-05
-0.000277136
5.60645e-05
-0.000289294
5.03727e-05
-0.000222542
1.79784e-05
-0.000149465
9.96262e-05
1.34388e-05
0.000181176
-0.000116576
0.00489905
-0.00403123
0.00614237
-0.00266886
0.00573703
-0.00015902
0.00469247
0.00189687
0.00333451
0.00305583
0.00185636
0.00321745
0.000255906
0.00250364
-0.00083366
0.00102847
-0.00115147
-0.000100028
-0.00121623
-0.000323016
-0.00123526
-0.000325862
-0.00125665
-0.000317328
-0.00128562
-0.000353088
-0.00131344
-0.000448975
-0.00132235
-0.000604606
-0.00116783
-0.000850757
-0.00132039
-0.000653941
0.000627802
-0.000692
8.81002e-05
-0.000649003
4.48732e-05
-0.000629025
1.47887e-05
-0.000614141
-2.56269e-05
-0.000530759
-0.000110152
-0.000693373
-0.000812185
-0.000894485
-0.000951333
-0.000985558
-0.000992441
-0.000963089
-0.000906752
-0.000856102
-0.000513102
-0.000324887
-0.000164476
-0.000248867
7.80185e-05
-6.11913e-05
-5.22098e-05
0.00363954
-0.00756501
0.00472344
-0.00375263
0.00445195
0.000112582
0.00377814
0.00257081
0.00286979
0.00396431
0.00180582
0.00428156
0.000735907
0.00357368
-0.000207887
0.00197237
-0.00068482
0.000377031
-0.000875224
-0.000132477
-0.000972042
-0.000228909
-0.00106234
-0.000226898
-0.0011762
-0.000239086
-0.00132346
-0.000301572
-0.00150424
-0.000423687
-0.00175078
-0.000604064
-0.00232031
-0.000750706
-0.00214047
-0.000199465
-0.00157983
6.73001e-05
-0.00150768
1.61067e-05
-0.00152876
6.61029e-05
-0.00158085
6.70422e-05
-0.00164503
3.87151e-05
-0.00175718
2.16697e-06
-0.00176307
5.91904e-06
-0.00175441
-8.62265e-06
-0.00172777
-2.66111e-05
-0.00168436
-4.33772e-05
-0.00162239
-6.19387e-05
-0.00153743
-8.49237e-05
-0.00142207
-0.000115322
-0.00126093
-0.000161098
-0.00101298
-0.000247914
-0.000915853
-0.000421839
-0.000593918
-0.000570623
7.5458e-05
-0.000730388
3.00174e-06
0.00189985
-0.00933201
0.00249313
-0.0043458
0.0024062
0.000199602
0.00206807
0.00290904
0.00155695
0.00447556
0.000969624
0.00486902
0.000428403
0.00411502
-2.65646e-05
0.00242743
-0.000375817
0.00072641
-0.000560361
5.22017e-05
-0.00066935
-0.000119778
-0.000768993
-0.000127112
-0.000885772
-0.000122162
-0.00102762
-0.000159574
-0.00120071
-0.000250442
-0.00143722
-0.000367394
-0.0017908
-0.000396965
-0.00177265
-0.000217449
-0.00165752
-4.76598e-05
-0.00163822
-3.02025e-06
-0.00161409
4.21406e-05
-0.00160119
5.4316e-05
-0.00160356
4.12674e-05
-0.00161997
1.87492e-05
-0.00161362
-2.468e-07
-0.00159962
-2.24408e-05
-0.00158041
-4.56327e-05
-0.00155486
-6.87401e-05
-0.00152328
-9.33292e-05
-0.00148639
-0.000121619
-0.00144477
-0.000156747
-0.00140022
-0.00020545
-0.00136934
-0.000278605
-0.00142009
-0.000370888
-0.00154812
-0.000442393
-0.00188038
-0.000397931
-0.00166438
-0.000212794
-0.00149616
-0.000168204
-0.00127578
-0.000220361
-0.00129446
0.000521739
-0.00969349
0.000857812
-0.0046818
0.00081381
0.00024369
0.00044634
0.00327661
0.0001878
0.00473421
4.66957e-05
0.00501023
-1.65318e-05
0.00417835
-6.07384e-05
0.00247173
-0.000190914
0.000856717
-0.000298536
0.000159972
-0.000385805
-3.2355e-05
-0.000475424
-3.73396e-05
-0.000583361
-1.40694e-05
-0.000716783
-2.59941e-05
-0.000882536
-8.45258e-05
-0.00108852
-0.000161241
-0.00129981
-0.000185506
-0.00139143
-0.000125647
-0.00139223
-4.66857e-05
-0.00138829
-6.77938e-06
-0.00136825
2.22834e-05
-0.00134572
3.19732e-05
-0.00132881
2.45388e-05
-0.00131693
7.05971e-06
-0.00130264
-1.43477e-05
-0.00128597
-3.89239e-05
-0.00126673
-6.46699e-05
-0.00124429
-9.09889e-05
-0.00121888
-0.000118547
-0.00119163
-0.000148668
-0.00116468
-0.000183495
-0.00114305
-0.000226881
-0.00113908
-0.000282369
-0.00116784
-0.000341925
-0.00123419
-0.000375837
-0.00128847
-0.000343442
-0.00119903
-0.000302025
-0.000985644
-0.00038138
-0.000680083
-0.00052571
-0.00199374
-0.000306815
-0.00919942
-0.000118031
-0.00487056
-0.000313457
0.000439205
-0.000960656
0.00392391
-0.000956224
0.00472988
-0.000662324
0.00471644
-0.000327326
0.00384344
-7.72659e-05
0.00222178
-1.55985e-05
0.000795193
-4.35647e-05
0.000188106
-9.36777e-05
1.79321e-05
-0.000150796
1.99551e-05
-0.000221409
5.67201e-05
-0.000317452
7.02262e-05
-0.000447064
4.52657e-05
-0.000603949
-4.17483e-06
-0.000751348
-3.7921e-05
-0.000845995
-3.08099e-05
-0.000884066
-8.42141e-06
-0.000896957
6.30739e-06
-0.000890663
1.61839e-05
-0.000875202
1.67078e-05
-0.00085795
7.4829e-06
-0.000841827
-8.86613e-06
-0.000825982
-2.99933e-05
-0.000810013
-5.46914e-05
-0.00079308
-8.13991e-05
-0.000774569
-0.000109296
-0.000754175
-0.000138735
-0.000731845
-0.00017079
-0.000707913
-0.000207218
-0.000683878
-0.000250707
-0.000662542
-0.000303495
-0.000642421
-0.000361835
-0.000607795
-0.000410252
-0.000516732
-0.000434294
-0.00036512
-0.000453425
-0.000210819
-0.000535468
1.91859e-05
-0.000755502
-0.00199466
-0.00181981
-0.0071671
-0.00190897
-0.0047814
-0.00144274
-2.69614e-05
-0.00232528
0.00480655
-0.00188971
0.00429441
-0.00112274
0.00394958
-0.000423571
0.00314438
7.26599e-05
0.00172567
0.000244856
0.000623172
0.000266317
0.000166852
0.000251339
3.3127e-05
0.00023298
3.85272e-05
0.000212734
7.7171e-05
0.000179647
0.000103513
0.000120966
0.000104145
3.32992e-05
8.36967e-05
-6.16618e-05
5.72484e-05
-0.000133986
4.17254e-05
-0.000176561
3.43664e-05
-0.000198377
2.83367e-05
-0.000203942
2.19611e-05
-0.00019937
1.23475e-05
-0.000190231
-1.44422e-06
-0.000180354
-1.85306e-05
-0.000170492
-3.96406e-05
-0.000160884
-6.40832e-05
-0.00015162
-9.04457e-05
-0.000142908
-0.00011779
-0.0001345
-0.000146924
-0.000125731
-0.00017934
-0.000115747
-0.000216983
-0.000103677
-0.000262558
-8.76252e-05
-0.000319328
-5.95337e-05
-0.000389707
5.36062e-06
-0.000474927
0.000152623
-0.000581338
0.000430718
-0.000731301
0.000833637
-0.000938171
0.00115538
-0.00107703
-0.000973128
-0.00697085
-0.011784
-0.00718187
-0.00462905
-0.00433706
0.00196179
-0.00265149
0.00260893
-0.00128566
0.00258385
-0.000212728
0.00207156
0.000436795
0.00107632
0.000658799
0.000401398
0.000721768
0.000104151
0.000743346
1.18259e-05
0.000759407
2.27324e-05
0.000776675
6.01543e-05
0.000788878
9.15491e-05
0.000787748
0.000105507
0.000769121
0.000102554
0.000737367
8.92333e-05
0.000705417
7.39066e-05
0.000680705
5.93115e-05
0.000664063
4.52125e-05
0.000654758
3.14996e-05
0.000650091
1.72487e-05
0.000647301
1.58085e-06
0.000644684
-1.56797e-05
0.000642264
-3.69855e-05
0.000639168
-6.07522e-05
0.000634396
-8.54376e-05
0.000626419
-0.000109577
0.000615185
-0.000135455
0.000601359
-0.000165279
0.000585797
-0.000201187
0.000569436
-0.000245964
0.000553831
-0.000303492
0.000543411
-0.000379057
0.000549162
-0.00048045
0.000589896
-0.000621846
0.000694195
-0.000835376
0.000931581
-0.00117534
0.00135892
-0.00150415
0.000232633
-0.00673464
0.00210791
-0.00482426
5.13093e-05
-0.00254234
0.00032704
-0.000712193
0.00075379
0.000515786
0.000843723
0.0011233
0.000469032
0.00135944
0.000165563
0.00144429
1.9627e-05
0.00147578
-1.93278e-05
0.00149556
3.2811e-06
0.00151861
3.74019e-05
0.00154469
6.57573e-05
0.0015691
8.13697e-05
0.00158694
8.49747e-05
0.0015961
8.03338e-05
0.00159866
7.16085e-05
0.00159711
6.11252e-05
0.0015928
4.97782e-05
0.00158653
3.80339e-05
0.00157805
2.59836e-05
0.00156627
1.36224e-05
0.00155185
-1.0014e-06
0.00153441
-1.92915e-05
0.00151314
-3.92271e-05
0.00148747
-5.95061e-05
0.00145589
-7.77404e-05
0.00141872
-9.80268e-05
0.00137614
-0.000122446
0.00132789
-0.000152696
0.00127309
-0.000190912
0.00120981
-0.00023997
0.00113462
-0.000303621
0.00104105
-0.000386643
0.000914635
-0.000495194
0.000716144
-0.000636655
0.000346653
-0.00080562
-0.000393917
-0.000763366
-0.000194388
-5.82272e-05
0.00212481
0.00075343
-0.00075951
0.00107714
3.49914e-06
0.00154648
0.000284375
0.00210738
0.000282842
0.0024061
0.000170512
0.00248421
8.7759e-05
0.00245952
4.46723e-05
0.00240803
3.25288e-05
0.00237819
3.34716e-05
0.00237308
4.28451e-05
0.00238773
5.14201e-05
0.00241229
5.71177e-05
0.00243771
5.98576e-05
0.00245809
6.02493e-05
0.00247101
5.89682e-05
0.00247612
5.63104e-05
0.00247379
5.23911e-05
0.00246471
4.73924e-05
0.00244952
4.14569e-05
0.00242883
3.4592e-05
0.00240182
2.62927e-05
0.00236491
1.78985e-05
0.00231797
7.98815e-06
0.00226149
-2.75053e-06
0.00219831
-1.42804e-05
0.00212832
-2.77659e-05
0.00204976
-4.36149e-05
0.00195997
-6.26384e-05
0.00185527
-8.59472e-05
0.00173057
-0.000115011
0.00157891
-0.00015171
0.00139073
-0.000198214
0.00115289
-0.000257115
0.00085479
-0.000338313
0.000524185
-0.000474784
0.000158671
-0.000397633
-7.05764e-05
0.000711927
0.00266738
0.00469111
0.00383017
0.00373099
0.00391206
0.00409099
0.00415762
0.00414279
0.00408723
0.00402234
0.00396102
0.00391124
0.00387171
0.00383914
0.00381032
0.00378278
0.00375477
0.00372489
0.00369188
0.00365464
0.0036122
0.00356362
0.00350744
0.00344352
0.00337034
0.00328703
0.00319281
0.00308569
0.00296325
0.00282228
0.00265844
0.00246598
0.00223726
0.00196248
0.00162931
0.00121558
0.000666343
0.000193407
)
;

boundaryField
{
    floor
    {
        type            calculated;
        value           nonuniform List<scalar> 
29
(
0
0
0
0
0
0
0
0
0
0
0
0
0
0
0
0
0
0
0
0
3.50655e-06
8.88083e-06
1.37892e-05
2.04228e-05
4.33799e-06
3.43544e-06
9.0178e-06
1.52346e-05
1.97684e-05
)
;
    }
    ceiling
    {
        type            calculated;
        value           nonuniform List<scalar> 
43
(
0.000223877
0.000206637
0.000101383
0.000102095
0.000103384
0.000103753
0.000104249
0.000104199
0.000102928
0.000100585
9.77795e-05
9.51484e-05
9.29689e-05
9.12929e-05
9.00172e-05
8.89987e-05
8.81169e-05
8.72949e-05
8.64967e-05
8.57129e-05
8.49451e-05
8.41984e-05
8.34768e-05
8.27837e-05
8.21139e-05
8.14755e-05
8.0857e-05
8.02328e-05
7.96493e-05
7.91163e-05
7.86266e-05
7.81675e-05
7.7725e-05
7.7284e-05
7.68251e-05
7.63138e-05
7.56611e-05
7.46927e-05
7.55283e-05
8.13101e-05
3.67062e-05
3.16991e-05
4.11468e-05
)
;
    }
    sWall
    {
        type            calculated;
        value           uniform 0.000106619;
    }
    nWall
    {
        type            calculated;
        value           nonuniform List<scalar> 6(1.86934e-05 1.9411e-05 2.03288e-05 3.33184e-05 3.50679e-05 4.17334e-05);
    }
    sideWalls
    {
        type            empty;
        value           nonuniform 0();
    }
    glass1
    {
        type            calculated;
        value           nonuniform List<scalar> 9(-3.00191e-05 -8.22951e-05 -8.41615e-05 -0.000105593 -0.000132673 -0.000160095 -0.000187127 -0.000212454 -0.000232944);
    }
    glass2
    {
        type            calculated;
        value           nonuniform List<scalar> 2(0.000134071 0.000153385);
    }
    sun
    {
        type            calculated;
        value           uniform 0;
    }
    heatsource1
    {
        type            calculated;
        value           nonuniform List<scalar> 3(1.95808e-07 1.95847e-07 1.96021e-07);
    }
    heatsource2
    {
        type            calculated;
        value           nonuniform List<scalar> 4(4.93257e-08 4.94657e-08 0 0);
    }
    Table_master
    {
        type            calculated;
        value           nonuniform List<scalar> 9(-1.48756e-07 -1.48686e-07 -1.48608e-07 -1.48534e-07 -1.48462e-07 -1.48392e-07 -1.48317e-07 -1.48228e-07 -1.48089e-07);
    }
    Table_slave
    {
        type            calculated;
        value           nonuniform List<scalar> 9(1.47293e-07 1.47282e-07 1.47272e-07 1.47268e-07 1.47271e-07 1.4728e-07 1.47297e-07 1.47326e-07 1.47345e-07);
    }
    inlet
    {
        type            calculated;
        value           uniform -2.24753e-06;
    }
    outlet
    {
        type            calculated;
        value           nonuniform List<scalar> 2(-0.00104229 -0.0021618);
    }
}


// ************************************************************************* //
