// -*- C++ -*-
// File generated by PyFoam - sorry for the ugliness

FoamFile
{
 version 2.0;
 format ascii;
 class volScalarField;
 location "800";
 object T;
}

dimensions [ 0 0 0 1 0 0 0 ];

internalField nonuniform List<scalar> 459
(
  303.442
  303.183
  303.171
  303.167
  303.164
  303.16
  303.156
  303.15
  303.141
  303.13
  303.119
  303.11
  303.106
  303.106
  303.114
  303.223
  303.203
  303.195
  303.2
  303.205
  303.211
  303.216
  303.221
  303.226
  303.23
  303.235
  303.24
  303.245
  303.25
  303.255
  303.261
  303.267
  303.275
  303.297
  303.614
  303.225
  303.202
  303.204
  303.207
  303.208
  303.205
  303.196
  303.178
  303.154
  303.13
  303.11
  303.098
  303.094
  303.094
  303.091
  303.087
  303.224
  303.185
  303.18
  303.186
  303.193
  303.2
  303.203
  303.206
  303.208
  303.211
  303.213
  303.216
  303.218
  303.221
  303.225
  303.23
  303.238
  303.249
  303.282
  303.795
  303.276
  303.237
  303.248
  303.262
  303.272
  303.274
  303.263
  303.233
  303.191
  303.148
  303.115
  303.096
  303.089
  303.09
  303.092
  303.092
  303.171
  303.166
  303.173
  303.186
  303.2
  303.211
  303.211
  303.212
  303.212
  303.213
  303.214
  303.216
  303.217
  303.219
  303.221
  303.226
  303.232
  303.242
  303.277
  303.979
  303.338
  303.274
  303.292
  303.321
  303.347
  303.362
  303.347
  303.298
  303.229
  303.165
  303.118
  303.091
  303.085
  303.089
  303.096
  303.101
  303.113
  303.13
  303.153
  303.179
  303.203
  303.225
  303.243
  303.258
  303.271
  303.283
  303.294
  303.303
  303.311
  303.318
  303.324
  303.328
  303.296
  303.268
  303.256
  303.279
  304.158
  303.417
  303.318
  303.332
  303.374
  303.421
  303.452
  303.428
  303.352
  303.255
  303.171
  303.113
  303.084
  303.078
  303.088
  303.104
  303.12
  303.14
  303.164
  303.192
  303.221
  303.249
  303.274
  303.295
  303.314
  303.331
  303.345
  303.357
  303.366
  303.371
  303.372
  303.37
  303.363
  303.339
  303.304
  303.276
  303.28
  303.371
  303.423
  303.427
  304.32
  303.521
  303.392
  303.387
  303.432
  303.499
  303.522
  303.47
  303.37
  303.256
  303.158
  303.094
  303.067
  303.069
  303.091
  303.12
  303.15
  303.18
  303.213
  303.246
  303.278
  303.308
  303.333
  303.354
  303.372
  303.388
  303.401
  303.411
  303.418
  303.419
  303.415
  303.407
  303.394
  303.371
  303.337
  303.303
  303.291
  303.327
  303.348
  303.384
  304.472
  303.685
  303.557
  303.537
  303.563
  303.609
  303.574
  303.47
  303.333
  303.201
  303.101
  303.048
  303.038
  303.061
  303.104
  303.153
  303.199
  303.241
  303.28
  303.315
  303.347
  303.373
  303.395
  303.413
  303.429
  303.441
  303.451
  303.458
  303.462
  303.46
  303.452
  303.44
  303.423
  303.4
  303.37
  303.337
  303.317
  303.325
  303.336
  303.366
  304.689
  304.101
  303.96
  303.887
  303.848
  303.742
  303.569
  303.369
  303.188
  303.056
  302.986
  302.976
  303.009
  303.07
  303.145
  303.217
  303.276
  303.323
  303.361
  303.391
  303.416
  303.437
  303.454
  303.467
  303.478
  303.487
  303.492
  303.495
  303.494
  303.49
  303.482
  303.469
  303.453
  303.432
  303.409
  303.385
  303.373
  303.383
  303.4
  303.523
  305
  304.722
  304.47
  304.23
  303.93
  303.54
  303.19
  302.943
  302.811
  302.78
  302.825
  302.919
  303.026
  303.134
  303.244
  303.324
  303.375
  303.411
  303.438
  303.46
  303.477
  303.492
  303.503
  303.511
  303.517
  303.521
  303.521
  303.52
  303.517
  303.513
  303.509
  303.506
  303.506
  303.508
  303.518
  303.536
  303.564
  303.595
  303.618
  303.677
  296.162
  297.689
  298.939
  300.048
  300.919
  301.604
  302.128
  302.519
  302.822
  303.068
  303.213
  303.309
  303.376
  303.423
  303.457
  303.481
  303.5
  303.515
  303.527
  303.535
  303.541
  303.544
  303.546
  303.546
  303.546
  303.544
  303.543
  303.542
  303.541
  303.541
  303.543
  303.548
  303.557
  303.573
  303.593
  303.615
  303.637
  303.683
  296.811
  298.565
  300.203
  301.281
  301.95
  302.416
  302.75
  302.988
  303.156
  303.283
  303.369
  303.427
  303.467
  303.496
  303.517
  303.533
  303.545
  303.553
  303.56
  303.563
  303.566
  303.567
  303.567
  303.566
  303.565
  303.564
  303.563
  303.562
  303.562
  303.562
  303.563
  303.566
  303.572
  303.582
  303.594
  303.613
  303.636
  303.661
  299.759
  299.681
  299.675
  301.569
  302.386
  302.758
  302.972
  303.129
  303.248
  303.338
  303.406
  303.456
  303.492
  303.517
  303.534
  303.546
  303.555
  303.561
  303.564
  303.567
  303.568
  303.569
  303.569
  303.569
  303.569
  303.569
  303.569
  303.569
  303.57
  303.57
  303.57
  303.571
  303.572
  303.573
  303.576
  303.582
  303.59
  303.598
  303.657
  303.748
)
;

boundaryField
{
  floor
  {
    type wallHeatTransfer;
    Tinf uniform 305.2;
    alphaWall uniform 0.24;
    value nonuniform List<scalar> 29
(
  303.323
  303.591
  303.531
  303.496
  303.496
  303.506
  303.52
  303.538
  303.559
  303.579
  303.599
  303.618
  303.636
  303.654
  303.671
  303.688
  303.705
  303.724
  303.742
  303.784
  303.784
  303.705
  303.665
  303.642
  303.323
  303.591
  303.582
  303.404
  303.288
)
;
  }
  ceiling
  {
    type wallHeatTransfer;
    Tinf uniform 303.2;
    alphaWall uniform 0.24;
    value nonuniform List<scalar> 43
(
  300.003
  299.919
  299.906
  301.67
  302.438
  302.787
  302.987
  303.134
  303.245
  303.327
  303.388
  303.432
  303.462
  303.481
  303.494
  303.502
  303.508
  303.512
  303.513
  303.514
  303.514
  303.514
  303.513
  303.513
  303.513
  303.513
  303.514
  303.515
  303.517
  303.518
  303.52
  303.523
  303.526
  303.529
  303.534
  303.542
  303.549
  303.552
  303.602
  303.691
  304.917
  304.661
  297.225
)
;
  }
  sWall
  {
    type wallHeatTransfer;
    Tinf uniform 315.2;
    alphaWall uniform 0.36;
    value uniform 301.35;
  }
  nWall
  {
    type wallHeatTransfer;
    Tinf uniform 307.2;
    alphaWall uniform 0.36;
    value nonuniform List<scalar> 6
(
  304.131
  304.075
  303.998
  304.22
  304.193
  304.264
)
;
  }
  sideWalls
  {
    type empty;
  }
  glass1
  {
    type wallHeatTransfer;
    Tinf uniform 315.2;
    alphaWall uniform 4.3;
    value nonuniform List<scalar> 9
(
  311.416
  310.789
  310.396
  310.099
  309.851
  309.627
  309.464
  309.539
  309.769
)
;
  }
  glass2
  {
    type wallHeatTransfer;
    Tinf uniform 307.2;
    alphaWall uniform 4.3;
    value nonuniform List<scalar> 2
(
  305.823
  305.934
)
;
  }
  sun
  {
    type wallHeatTransfer;
    Tinf uniform 305.2;
    alphaWall uniform 0.24;
    value nonuniform List<scalar> 14
(
  303.623
  303.377
  303.363
  303.353
  303.344
  303.335
  303.326
  303.316
  303.305
  303.294
  303.286
  303.283
  303.287
  303.3
)
;
  }
  heatsource1
  {
    type fixedGradient;
    gradient uniform 0;
  }
  heatsource2
  {
    type fixedGradient;
    gradient uniform 0;
  }
  Table_master
  {
    type zeroGradient;
  }
  Table_slave
  {
    type zeroGradient;
  }
  inlet
  {
    type fixedValue;
    value uniform 293.15;
  }
  outlet
  {
    type zeroGradient;
  }
} 	// ************************************************************************* //

