/*--------------------------------*- C++ -*----------------------------------*\
  =========                 |
  \\      /  F ield         | OpenFOAM: The Open Source CFD Toolbox
   \\    /   O peration     | Website:  https://openfoam.org
    \\  /    A nd           | Version:  6
     \\/     M anipulation  |
\*---------------------------------------------------------------------------*/
FoamFile
{
    version     2.0;
    format      ascii;
    class       volScalarField;
    location    "590";
    object      epsilon;
}
// * * * * * * * * * * * * * * * * * * * * * * * * * * * * * * * * * * * * * //

dimensions      [0 2 -3 0 0 0 0];

internalField   nonuniform List<scalar> 
459
(
0.000217088
0.000283101
0.000305382
0.000353164
0.000401441
0.000451071
0.000504668
0.000563403
0.000615296
0.000651162
0.000659568
0.000630547
0.000558676
0.000440474
0.000193644
4.57259e-05
0.000119948
0.000110217
0.000101604
9.31809e-05
8.35087e-05
7.06715e-05
5.86783e-05
4.88374e-05
4.09703e-05
3.47022e-05
2.96726e-05
2.55606e-05
2.21183e-05
1.91372e-05
1.64145e-05
1.38067e-05
1.0296e-05
9.14632e-06
0.00052248
0.000745819
0.00026108
0.000255207
0.000264385
0.000281782
0.000310623
0.000352944
0.000400122
0.000440182
0.000459525
0.000448518
0.00040597
0.000342213
0.000248128
0.000316345
0.000106732
0.000135808
0.000267138
0.000143057
0.000105762
8.57573e-05
7.30889e-05
6.93147e-05
5.74087e-05
4.64273e-05
3.75006e-05
3.04414e-05
2.49507e-05
2.06533e-05
1.73038e-05
1.49342e-05
1.3866e-05
1.61949e-05
1.47922e-05
1.89875e-05
0.000934225
0.00175879
0.000298344
0.00023104
0.000235473
0.000256985
0.000293702
0.000345817
0.000404157
0.000453611
0.000482684
0.000483472
0.000453381
0.000399383
0.000327209
0.000285879
0.000338066
0.000244507
0.00019106
0.000144666
0.000115077
9.46526e-05
8.56763e-05
0.000181389
0.000124375
8.85454e-05
6.545e-05
5.00612e-05
3.95126e-05
3.20977e-05
2.6842e-05
2.32689e-05
1.84369e-05
1.85187e-05
1.96648e-05
2.51714e-05
0.00149453
0.00358744
0.000430666
0.000219617
0.00021527
0.000240733
0.000286703
0.000356006
0.000427157
0.000481651
0.000515981
0.000523954
0.000498598
0.00044281
0.000380432
0.00033278
0.000303131
0.000571258
0.00034682
0.00022915
0.000166367
0.000128789
0.000105143
9.71888e-05
0.000243531
0.00018754
0.000156269
0.000137119
0.000123645
0.000111917
9.95764e-05
8.77767e-05
7.49343e-05
4.57024e-05
3.17186e-05
3.47662e-05
3.65429e-05
0.0022638
0.00642245
0.000790853
0.000230744
0.000197788
0.000226298
0.000293674
0.000406076
0.000491908
0.000545531
0.00057927
0.000586268
0.000551077
0.000478675
0.000391877
0.000315049
0.000261037
0.000236199
0.000207209
0.000178975
0.000153105
0.00013071
0.000112628
0.000100117
0.000100983
9.7425e-05
9.39269e-05
9.03768e-05
8.61483e-05
8.05421e-05
7.31526e-05
6.51537e-05
5.74311e-05
4.7309e-05
3.74311e-05
4.17519e-05
4.04968e-05
5.68696e-05
5.65883e-05
5.37967e-05
0.00333895
0.00971918
0.00175296
0.000359843
0.000223602
0.000238343
0.000359998
0.000539783
0.000621209
0.000661428
0.000685988
0.000684847
0.000635781
0.000536445
0.000415908
0.000310606
0.00024158
0.000208138
0.000190494
0.000174739
0.00015829
0.000142138
0.000127934
0.000117317
0.000112799
0.000112093
0.000112132
0.000110869
0.000107541
0.000101804
9.33097e-05
8.14657e-05
6.92591e-05
5.79688e-05
4.77718e-05
4.53594e-05
4.65916e-05
5.19155e-05
0.000167777
0.000120007
0.00471209
0.0118757
0.00397703
0.00117732
0.000628036
0.000532046
0.00072045
0.000820298
0.000841015
0.000843913
0.000849236
0.00083428
0.00076211
0.000626621
0.000467615
0.000333619
0.000251836
0.000216252
0.000202037
0.000191171
0.000179154
0.000167289
0.000157694
0.000151934
0.000150925
0.000152727
0.00015362
0.000151587
0.000146662
0.000139974
0.000132393
0.000123085
0.000108943
9.61316e-05
8.67582e-05
8.19939e-05
8.23451e-05
9.05362e-05
0.000262824
0.000204993
0.00515701
0.0151139
0.00764007
0.00435418
0.00265506
0.00191188
0.0015717
0.00133448
0.00118286
0.00110941
0.00108559
0.00104948
0.000939354
0.000749257
0.000541806
0.000378295
0.000288215
0.000253332
0.000241723
0.000234574
0.000227584
0.000222383
0.000220405
0.000221662
0.000224885
0.000227248
0.000225348
0.000217675
0.000205885
0.000194649
0.000189356
0.00019262
0.000201964
0.00021179
0.000237594
0.000281288
0.000354213
0.000438504
0.00158925
0.00044299
0.00489058
0.00863708
0.00657534
0.00485853
0.00359235
0.00274606
0.00214012
0.00173379
0.00150937
0.00142784
0.00141306
0.00135622
0.00117775
0.000896266
0.000633881
0.000456549
0.000385636
0.000362217
0.000356853
0.000356691
0.000358133
0.000361904
0.000368547
0.00037658
0.000382941
0.000383186
0.000372554
0.000348568
0.000314013
0.000278508
0.000255219
0.000252435
0.000272173
0.000313308
0.000377993
0.000474333
0.000604241
0.000763214
0.000935447
0.000510847
0.00188738
0.00238617
0.00234617
0.00212123
0.00190706
0.00182577
0.00185109
0.00193268
0.00197588
0.00185245
0.00152392
0.00108964
0.000853654
0.000750885
0.000723996
0.000725685
0.000736841
0.000749559
0.000759626
0.000769331
0.000781683
0.000795067
0.000804722
0.000802484
0.000777543
0.000719913
0.000627064
0.000511889
0.00040593
0.000339201
0.000310571
0.000317331
0.000359974
0.000438159
0.000543526
0.00065158
0.000753066
0.000690124
0.00112119
0.00242149
0.00265084
0.0027313
0.00299855
0.0031833
0.00335071
0.00353741
0.00362358
0.00338168
0.00289541
0.00239116
0.00208033
0.0019377
0.00189641
0.00190625
0.00193316
0.00195735
0.00197136
0.0019826
0.00200315
0.00203513
0.00207435
0.00210729
0.00210887
0.00204643
0.00189437
0.00165652
0.00138195
0.00111055
0.000880187
0.00071178
0.000611781
0.000572898
0.000573983
0.00060103
0.00134141
0.00093648
0.000909421
0.00106275
0.00120551
0.00159567
0.00154826
0.00137248
0.00124321
0.00128446
0.00143778
0.001587
0.00167719
0.00165706
0.00153804
0.00141425
0.00132375
0.00126826
0.00123797
0.00121931
0.00120386
0.00118895
0.00117777
0.00117176
0.00116776
0.00116312
0.00115226
0.00112742
0.0010811
0.00101058
0.000922789
0.000835717
0.000754821
0.000687196
0.000635388
0.000600316
0.000582057
0.000577884
0.000577849
0.000560421
0.000564171
0.000518884
)
;

boundaryField
{
    floor
    {
        Cmu             0.09;
        kappa           0.41;
        E               9.8;
        type            epsilonWallFunction;
        value           nonuniform List<scalar> 
29
(
0.000193644
4.57259e-05
0.000119948
0.000110217
0.000101604
9.31809e-05
8.35087e-05
7.06715e-05
5.86783e-05
4.88374e-05
4.09703e-05
3.47022e-05
2.96726e-05
2.55606e-05
2.21183e-05
1.91372e-05
1.64145e-05
1.38067e-05
1.0296e-05
9.14632e-06
9.14632e-06
1.89875e-05
2.51714e-05
3.65429e-05
0.000193644
4.57259e-05
0.000135808
0.000244507
0.000571258
)
;
    }
    ceiling
    {
        Cmu             0.09;
        kappa           0.41;
        E               9.8;
        type            epsilonWallFunction;
        value           nonuniform List<scalar> 
43
(
0.000909421
0.00106275
0.00120551
0.00159567
0.00154826
0.00137248
0.00124321
0.00128446
0.00143778
0.001587
0.00167719
0.00165706
0.00153804
0.00141425
0.00132375
0.00126826
0.00123797
0.00121931
0.00120386
0.00118895
0.00117777
0.00117176
0.00116776
0.00116312
0.00115226
0.00112742
0.0010811
0.00101058
0.000922789
0.000835717
0.000754821
0.000687196
0.000635388
0.000600316
0.000582057
0.000577884
0.000577849
0.000560421
0.000564171
0.000518884
0.00489058
0.00863708
0.00112119
)
;
    }
    sWall
    {
        Cmu             0.09;
        kappa           0.41;
        E               9.8;
        type            epsilonWallFunction;
        value           uniform 0.000909421;
    }
    nWall
    {
        Cmu             0.09;
        kappa           0.41;
        E               9.8;
        type            epsilonWallFunction;
        value           nonuniform List<scalar> 6(5.37967e-05 0.000120007 0.000204993 0.000690124 0.00093648 0.000518884);
    }
    sideWalls
    {
        type            empty;
    }
    glass1
    {
        Cmu             0.09;
        kappa           0.41;
        E               9.8;
        type            epsilonWallFunction;
        value           nonuniform List<scalar> 9(0.000217088 0.00052248 0.000934225 0.00149453 0.0022638 0.00333895 0.00471209 0.00515701 0.00489058);
    }
    glass2
    {
        Cmu             0.09;
        kappa           0.41;
        E               9.8;
        type            epsilonWallFunction;
        value           nonuniform List<scalar> 2(0.00044299 0.000510847);
    }
    sun
    {
        Cmu             0.09;
        kappa           0.41;
        E               9.8;
        type            epsilonWallFunction;
        value           nonuniform List<scalar> 
14
(
0.000217088
0.000283101
0.000305382
0.000353164
0.000401441
0.000451071
0.000504668
0.000563403
0.000615296
0.000651162
0.000659568
0.000630547
0.000558676
0.000440474
)
;
    }
    heatsource1
    {
        Cmu             0.09;
        kappa           0.41;
        E               9.8;
        type            epsilonWallFunction;
        value           nonuniform List<scalar> 3(5.68696e-05 5.65883e-05 5.37967e-05);
    }
    heatsource2
    {
        Cmu             0.09;
        kappa           0.41;
        E               9.8;
        type            epsilonWallFunction;
        value           nonuniform List<scalar> 4(0.000316345 0.000106732 0.000106732 0.000338066);
    }
    Table_master
    {
        Cmu             0.09;
        kappa           0.41;
        E               9.8;
        type            epsilonWallFunction;
        value           nonuniform List<scalar> 9(0.000181389 0.000124375 8.85454e-05 6.545e-05 5.00612e-05 3.95126e-05 3.20977e-05 2.6842e-05 2.32689e-05);
    }
    Table_slave
    {
        Cmu             0.09;
        kappa           0.41;
        E               9.8;
        type            epsilonWallFunction;
        value           nonuniform List<scalar> 9(0.000243531 0.00018754 0.000156269 0.000137119 0.000123645 0.000111917 9.95764e-05 8.77767e-05 7.49343e-05);
    }
    inlet
    {
        type            turbulentMixingLengthDissipationRateInlet;
        mixingLength    0.01;
        phi             phi;
        k               k;
        value           uniform 0.000101881;
    }
    outlet
    {
        type            zeroGradient;
    }
}


// ************************************************************************* //
