/*--------------------------------*- C++ -*----------------------------------*\
  =========                 |
  \\      /  F ield         | OpenFOAM: The Open Source CFD Toolbox
   \\    /   O peration     | Website:  https://openfoam.org
    \\  /    A nd           | Version:  6
     \\/     M anipulation  |
\*---------------------------------------------------------------------------*/
FoamFile
{
    version     2.0;
    format      ascii;
    class       volScalarField;
    location    "1600";
    object      alphat;
}
// * * * * * * * * * * * * * * * * * * * * * * * * * * * * * * * * * * * * * //

dimensions      [1 -1 -1 0 0 0 0];

internalField   nonuniform List<scalar> 
459
(
0.00125246
0.00136935
0.00139487
0.0014619
0.00152396
0.00158204
0.00163896
0.00169469
0.00173409
0.00175082
0.00173898
0.00169491
0.00161841
0.00151597
0.00140361
0.000550422
0.000673486
0.000757116
0.000751691
0.000725396
0.000691145
0.000648508
0.000606361
0.000568108
0.000534119
0.000503999
0.000477225
0.000453406
0.000432007
0.000412267
0.000393197
0.000373335
0.000359088
0.000327038
0.00170553
0.00416597
0.00398775
0.00464183
0.00528449
0.00592755
0.00649584
0.00692341
0.00731028
0.00762504
0.00782373
0.00785639
0.00764664
0.00700316
0.0052346
0.00143074
0.000844132
0.000595769
0.00124931
0.00172306
0.00205976
0.00223578
0.00222492
0.00179103
0.00154552
0.0013696
0.00123446
0.00112688
0.00103915
0.000963443
0.000892914
0.000824635
0.000764012
0.000711308
0.00083299
0.000427069
0.00208206
0.00568995
0.00494717
0.00620611
0.00683511
0.00730283
0.00766696
0.00795719
0.00827143
0.00859868
0.00890075
0.00912281
0.00920427
0.00905612
0.00844072
0.0065132
0.00142157
0.00118967
0.00170595
0.00218119
0.00260114
0.00288189
0.0027974
0.000928348
0.000819929
0.000732862
0.000662621
0.000605403
0.000558286
0.00051917
0.000486715
0.000460367
0.000495758
0.000572594
0.000936461
0.000493758
0.00244303
0.00727369
0.0049619
0.0065689
0.00712325
0.00731451
0.00744019
0.00759116
0.00784185
0.00817627
0.00855533
0.00891048
0.00917919
0.00929185
0.00916349
0.0085038
0.00624044
0.00170237
0.00211048
0.0027211
0.00330417
0.00375843
0.00402864
0.00376493
0.0010473
0.000953534
0.000886419
0.000835308
0.000791945
0.000752234
0.000714113
0.000674136
0.000627786
0.000588518
0.000600948
0.00106899
0.00054542
0.00281084
0.00930753
0.00545763
0.00632516
0.00705995
0.00711496
0.00706067
0.00714244
0.0073639
0.00770303
0.0081272
0.00854272
0.00886218
0.00901547
0.00897707
0.00869803
0.00798343
0.00660114
0.00612478
0.00596247
0.00589981
0.00585546
0.00578215
0.00555182
0.00468665
0.00427227
0.00403236
0.00384759
0.00365256
0.0033711
0.00299023
0.00252663
0.00201056
0.00148934
0.00109749
0.00109809
0.000731636
0.000672162
0.000813931
0.000913681
0.00320059
0.0115214
0.00751776
0.00630255
0.00685599
0.00711015
0.00695937
0.00702663
0.0071932
0.00749623
0.00792271
0.00837682
0.0087279
0.00887456
0.00879278
0.00853621
0.00819328
0.00783459
0.00762887
0.0074724
0.0072954
0.00709626
0.00687765
0.00661049
0.00622167
0.00587529
0.0055676
0.0052714
0.00496896
0.0046402
0.0042269
0.00371295
0.00309807
0.00241666
0.00181289
0.00135463
0.00102207
0.000868989
0.00123809
0.000953625
0.00355483
0.013068
0.010536
0.00813382
0.00769455
0.00760411
0.00735034
0.00718893
0.00724052
0.00753433
0.00800628
0.00851221
0.00888217
0.00899588
0.00884076
0.00852837
0.00825649
0.00815796
0.00815904
0.00807346
0.00785126
0.0075352
0.00716344
0.00675549
0.00632739
0.00592852
0.00556008
0.00521489
0.0048948
0.00460872
0.00435664
0.00401459
0.0035364
0.0029528
0.00239146
0.00188888
0.00152247
0.001414
0.00144292
0.00109004
0.00362116
0.0116166
0.0103267
0.0095399
0.00884294
0.00803597
0.007404
0.00715249
0.00730635
0.00777947
0.0084091
0.00898727
0.00931836
0.00930808
0.00900169
0.00859214
0.00834076
0.00833008
0.00832565
0.00806336
0.00761617
0.00707136
0.00649832
0.00595412
0.00547515
0.00506937
0.00472305
0.00443053
0.0041969
0.00403129
0.00394101
0.00389566
0.00365903
0.00328884
0.0029659
0.00280883
0.00293212
0.00338275
0.00413723
0.00169896
0.00352148
0.00417927
0.0046426
0.00476068
0.00486028
0.00513126
0.00567589
0.00650441
0.00752069
0.00854865
0.009399
0.00989286
0.00991159
0.00951005
0.00890363
0.00847881
0.00823742
0.00802544
0.00767483
0.00712424
0.0064538
0.00576486
0.00514054
0.00462221
0.00420965
0.0038804
0.00361186
0.00339056
0.00320663
0.00304919
0.00290619
0.00277485
0.0026712
0.00259505
0.00256749
0.00257967
0.00256359
0.00245767
0.00229404
0.0015964
0.00176284
0.0036089
0.00583879
0.00769203
0.0091362
0.0102375
0.0109315
0.0112046
0.0110976
0.0106008
0.00981824
0.00884685
0.00801759
0.00749943
0.00708017
0.00656908
0.00594647
0.00528264
0.00465206
0.00410578
0.00367152
0.00333597
0.00307584
0.00287279
0.00271557
0.0025977
0.00251475
0.00246396
0.00244619
0.00245852
0.00248516
0.00252164
0.00255873
0.0025678
0.00250334
0.00235138
0.00212433
0.00132566
0.00235415
0.00603243
0.00897714
0.0100863
0.0106424
0.0108136
0.010569
0.00997909
0.00916402
0.00824115
0.0073666
0.00658893
0.00596206
0.00542938
0.00489276
0.00436414
0.00389435
0.00350987
0.00320923
0.00297659
0.00278719
0.00262897
0.00249709
0.00239526
0.00232479
0.00228373
0.00226951
0.00227885
0.00231752
0.00238195
0.00246812
0.00256743
0.00266081
0.00272495
0.00270416
0.00273044
0.00276726
0.00135193
0.00208763
0.00221255
0.00230065
0.00246244
0.00237542
0.00227482
0.00220984
0.0021194
0.00199046
0.00183056
0.00165069
0.00146359
0.00128177
0.00112542
0.0010072
0.000923301
0.000863975
0.000821268
0.000790275
0.000768196
0.000753327
0.000744668
0.00074161
0.000744412
0.000753564
0.000768559
0.000789263
0.000816056
0.000849597
0.000890866
0.000938778
0.000993402
0.00105534
0.00112508
0.00120208
0.00129347
0.00132312
0.001289
0.00121047
0.00112696
)
;

boundaryField
{
    floor
    {
        type            compressible::alphatWallFunction;
        Prt             0.85;
        value           nonuniform List<scalar> 
29
(
0.00019799
7.69252e-05
9.53081e-05
0.000107564
0.000106774
0.000102936
9.79108e-05
9.1613e-05
8.53377e-05
7.95957e-05
7.44535e-05
6.98626e-05
6.57527e-05
6.20719e-05
5.87442e-05
5.56557e-05
5.26541e-05
4.95077e-05
4.72377e-05
4.20871e-05
4.20865e-05
5.79735e-05
6.82941e-05
7.61683e-05
0.000197988
7.69243e-05
8.3752e-05
0.000168742
0.000238017
)
;
    }
    ceiling
    {
        type            compressible::alphatWallFunction;
        Prt             0.85;
        value           nonuniform List<scalar> 
43
(
0.000288414
0.000304557
0.000315885
0.000336691
0.000325635
0.000312765
0.000304417
0.000292744
0.000276003
0.000255071
0.000231281
0.000206226
0.000181531
0.000159976
0.000143448
0.000131582
0.000123115
0.000116978
0.0001125
0.000109298
0.000107135
0.000105873
0.000105426
0.000105835
0.000107169
0.000109351
0.000112355
0.000116228
0.000121055
0.000126964
0.000133783
0.000141508
0.000150207
0.000159933
0.000170591
0.000183139
0.000187188
0.000182529
0.000171748
0.000160198
0.000469215
0.00054922
0.000322572
)
;
    }
    sWall
    {
        type            compressible::alphatWallFunction;
        Prt             0.85;
        value           uniform 0.000287205;
    }
    nWall
    {
        type            compressible::alphatWallFunction;
        Prt             0.85;
        value           nonuniform List<scalar> 6(0.000129896 0.000135562 0.00015472 0.000187209 0.000190785 0.000159876);
    }
    sideWalls
    {
        type            empty;
    }
    glass1
    {
        type            compressible::alphatWallFunction;
        Prt             0.85;
        value           nonuniform List<scalar> 9(0.000173103 0.000233348 0.000282192 0.000328213 0.000374431 0.000422764 0.000466212 0.000474428 0.000462499);
    }
    glass2
    {
        type            compressible::alphatWallFunction;
        Prt             0.85;
        value           nonuniform List<scalar> 2(0.000236008 0.000222478);
    }
    sun
    {
        type            compressible::alphatWallFunction;
        Prt             0.85;
        value           nonuniform List<scalar> 
14
(
0.000177405
0.000193347
0.00019681
0.000205874
0.000214223
0.000222002
0.000229596
0.000237002
0.000242222
0.000244434
0.000242868
0.000237029
0.000226854
0.000213145
)
;
    }
    heatsource1
    {
        type            compressible::alphatWallFunction;
        Prt             0.85;
        value           nonuniform List<scalar> 3(9.52165e-05 0.000115904 0.000130199);
    }
    heatsource2
    {
        type            compressible::alphatWallFunction;
        Prt             0.85;
        value           nonuniform List<scalar> 4(0.000201783 0.000120253 0.000120252 0.00020054);
    }
    Table_master
    {
        type            compressible::alphatWallFunction;
        Prt             0.85;
        value           nonuniform List<scalar> 9(0.000132282 0.000116767 0.00010413 9.38041e-05 8.52936e-05 7.82111e-05 7.22748e-05 6.73067e-05 6.32428e-05);
    }
    Table_slave
    {
        type            compressible::alphatWallFunction;
        Prt             0.85;
        value           nonuniform List<scalar> 9(0.000149064 0.000135857 0.000126311 0.000118984 0.000112726 0.000106959 0.000101389 9.55079e-05 8.86362e-05);
    }
    inlet
    {
        type            fixedValue;
        value           uniform 1.94e-05;
    }
    outlet
    {
        type            zeroGradient;
    }
}


// ************************************************************************* //
