/*--------------------------------*- C++ -*----------------------------------*\
  =========                 |
  \\      /  F ield         | OpenFOAM: The Open Source CFD Toolbox
   \\    /   O peration     | Website:  https://openfoam.org
    \\  /    A nd           | Version:  6
     \\/     M anipulation  |
\*---------------------------------------------------------------------------*/
FoamFile
{
    version     2.0;
    format      ascii;
    class       volScalarField;
    location    "1600";
    object      nut;
}
// * * * * * * * * * * * * * * * * * * * * * * * * * * * * * * * * * * * * * //

dimensions      [0 2 -1 0 0 0 0];

internalField   nonuniform List<scalar> 
459
(
0.00107953
0.00117927
0.0012012
0.00125891
0.00131234
0.00136234
0.00141133
0.00145929
0.00149318
0.00150753
0.00149727
0.00145928
0.00139337
0.00130516
0.00120843
0.000474024
0.000579966
0.000651967
0.0006473
0.000624664
0.000595176
0.000558466
0.000522178
0.000489242
0.000459976
0.000434043
0.00041099
0.000390481
0.000372057
0.00035506
0.000338641
0.000321539
0.000309275
0.000281687
0.00147093
0.00358829
0.00343452
0.0039979
0.00455146
0.00510532
0.00559475
0.00596288
0.00629578
0.00656637
0.0067369
0.00676448
0.00658348
0.00602924
0.00450656
0.00123174
0.000726718
0.000513088
0.0010758
0.00148373
0.00177367
0.00192527
0.00191595
0.00154232
0.00133091
0.00117943
0.00106305
0.000970412
0.000894872
0.000829677
0.000768945
0.00071015
0.000657952
0.000612576
0.000717389
0.000367836
0.00179678
0.00490189
0.00426144
0.00534606
0.00588816
0.00629131
0.00660511
0.00685504
0.00712522
0.0074062
0.00766524
0.00785542
0.00792478
0.00779679
0.00726682
0.00560737
0.00122387
0.0010244
0.00146895
0.00187821
0.0022399
0.00248174
0.00240903
0.000799464
0.000706097
0.000631118
0.000570629
0.000521354
0.00048078
0.000447094
0.000419146
0.000396456
0.000426938
0.000493114
0.000806496
0.000425276
0.00210961
0.00626771
0.00427473
0.00565948
0.00613765
0.006303
0.0064117
0.00654177
0.00675705
0.0070438
0.00736867
0.00767306
0.00790336
0.00799978
0.00788913
0.00732126
0.00537275
0.00146572
0.00181717
0.00234308
0.00284532
0.00323669
0.00346957
0.00324258
0.000902027
0.00082129
0.000763502
0.000719495
0.000682158
0.000647962
0.000615132
0.000580701
0.000540777
0.000506913
0.000517585
0.000920675
0.000469783
0.0024287
0.00802253
0.00470257
0.00545027
0.00608419
0.0061325
0.0060865
0.00615697
0.0063468
0.00663716
0.00700047
0.00735655
0.00763041
0.00776179
0.00772864
0.00748862
0.00687369
0.00568387
0.00527406
0.00513469
0.00508113
0.00504328
0.00498044
0.00478227
0.0040372
0.00368038
0.00347381
0.00331471
0.00314674
0.00290428
0.00257615
0.00217672
0.00173208
0.00128298
0.000945347
0.000945801
0.000630185
0.000579095
0.000701342
0.00078731
0.00276699
0.00993437
0.00647937
0.00543181
0.00590951
0.00612971
0.00600074
0.00605837
0.00620041
0.00645931
0.00682435
0.00721346
0.00751447
0.00764023
0.00756993
0.00734951
0.00705485
0.00674661
0.00657009
0.00643596
0.00628406
0.006113
0.00592504
0.00569516
0.00536039
0.00506212
0.00479714
0.00454201
0.00428146
0.00399818
0.00364201
0.00319909
0.00266921
0.00208201
0.00156172
0.00116685
0.000880374
0.000748592
0.00106661
0.000821642
0.0030748
0.0112742
0.0090858
0.00701359
0.00663518
0.00655821
0.00633946
0.00619888
0.00624094
0.00649131
0.00689522
0.00732892
0.00764642
0.00774422
0.00761124
0.00734321
0.00711008
0.00702616
0.00702794
0.00695497
0.00676414
0.0064923
0.00617232
0.00582105
0.00545233
0.00510875
0.00479134
0.00449392
0.00421808
0.00397152
0.00375419
0.00345932
0.00304713
0.00254412
0.00206032
0.0016272
0.0013115
0.00121809
0.00124304
0.000939138
0.00313445
0.0100359
0.00891722
0.00823547
0.00763274
0.0069349
0.00638692
0.00616645
0.00629532
0.00669952
0.00723918
0.00773559
0.00802055
0.00801258
0.00775021
0.00739914
0.00718403
0.00717597
0.00717307
0.00694774
0.00656286
0.00609372
0.00560012
0.00513129
0.00471861
0.00436896
0.00407051
0.00381841
0.00361703
0.00347425
0.00339637
0.00335715
0.00315309
0.00283395
0.00255552
0.00242005
0.00252622
0.00291458
0.00356485
0.0014645
0.0030513
0.00361797
0.00401569
0.00411467
0.00419761
0.00442736
0.00489199
0.00560091
0.00647198
0.00735436
0.00808559
0.00851177
0.00853025
0.00818714
0.00766735
0.00730362
0.00709703
0.00691528
0.00661377
0.0061397
0.00556218
0.00496859
0.00443061
0.00398393
0.00362838
0.00334461
0.00311315
0.00292239
0.00276384
0.00262811
0.00250484
0.00239163
0.00230231
0.00223672
0.00221306
0.00222372
0.00221009
0.00211899
0.00197805
0.00137674
0.00148369
0.00305673
0.0049654
0.00655956
0.00780944
0.00876829
0.00937796
0.00962442
0.0095416
0.00912144
0.00845345
0.00761995
0.00690744
0.00646217
0.0061016
0.0056616
0.00512528
0.00455329
0.00400989
0.00353909
0.00316481
0.00287559
0.00265137
0.00247635
0.00234083
0.00223923
0.00216773
0.00212395
0.00210865
0.00211929
0.00214228
0.00217379
0.00220585
0.0022138
0.00215839
0.00202752
0.00183185
0.00114322
0.00198578
0.00511998
0.00765592
0.00862945
0.00912368
0.00928421
0.00908457
0.00858478
0.00788846
0.00709718
0.00634615
0.00567747
0.00513809
0.00467949
0.00421728
0.00376181
0.00335697
0.00302561
0.0027665
0.00256598
0.00240272
0.00226635
0.00215267
0.00206489
0.00200414
0.00196876
0.0019565
0.00196456
0.00199791
0.00205346
0.00212777
0.00221343
0.002294
0.00234939
0.00233158
0.00235438
0.00238612
0.00116583
0.00177704
0.00188289
0.00195782
0.00210832
0.00203928
0.00195544
0.00190101
0.00182422
0.00171397
0.00157679
0.0014222
0.00126122
0.00110468
0.000970024
0.000868175
0.000795888
0.000744768
0.000707966
0.000681257
0.00066223
0.000649417
0.000641956
0.000639324
0.000641744
0.000649638
0.000662569
0.000680422
0.000703525
0.000732446
0.000768029
0.00080934
0.000856439
0.000909843
0.000969988
0.00103639
0.00111521
0.00114081
0.00111141
0.00104371
0.000971827
)
;

boundaryField
{
    floor
    {
        type            nutkWallFunction;
        Cmu             0.09;
        kappa           0.41;
        E               9.8;
        value           nonuniform List<scalar> 
29
(
0.00014498
5.63769e-05
6.98348e-05
7.88066e-05
7.82288e-05
7.54194e-05
7.17408e-05
6.71301e-05
6.25356e-05
5.83314e-05
5.4566e-05
5.12043e-05
4.81947e-05
4.54991e-05
4.3062e-05
4.08e-05
3.86016e-05
3.62969e-05
3.46343e-05
3.0862e-05
3.08619e-05
4.25011e-05
5.00615e-05
5.58303e-05
0.00014498
5.63769e-05
6.13785e-05
0.000123592
0.000174284
)
;
    }
    ceiling
    {
        type            nutkWallFunction;
        Cmu             0.09;
        kappa           0.41;
        E               9.8;
        value           nonuniform List<scalar> 
43
(
0.000208854
0.000220482
0.000228673
0.000245122
0.000237672
0.000228554
0.000222611
0.000214186
0.000202017
0.000186751
0.000169371
0.000151046
0.000132973
0.000117192
0.000105089
9.63985e-05
9.01971e-05
8.57015e-05
8.24215e-05
8.00754e-05
7.8491e-05
7.75667e-05
7.72403e-05
7.75404e-05
7.85183e-05
8.01173e-05
8.23187e-05
8.51572e-05
8.86949e-05
9.3025e-05
9.80225e-05
0.000103684
0.00011006
0.000117188
0.000125
0.0001342
0.000137171
0.000133758
0.000125858
0.000117406
0.000345486
0.000404056
0.000231593
)
;
    }
    sWall
    {
        type            nutkWallFunction;
        Cmu             0.09;
        kappa           0.41;
        E               9.8;
        value           uniform 0.000208912;
    }
    nWall
    {
        type            nutkWallFunction;
        Cmu             0.09;
        kappa           0.41;
        E               9.8;
        value           nonuniform List<scalar> 6(9.53615e-05 9.9506e-05 0.000113542 0.00013746 0.000140078 0.000117412);
    }
    sideWalls
    {
        type            empty;
    }
    glass1
    {
        type            nutkWallFunction;
        Cmu             0.09;
        kappa           0.41;
        E               9.8;
        value           nonuniform List<scalar> 9(0.000130147 0.000175091 0.000211475 0.000245729 0.000280109 0.00031604 0.000348338 0.000354566 0.00034591);
    }
    glass2
    {
        type            nutkWallFunction;
        Cmu             0.09;
        kappa           0.41;
        E               9.8;
        value           nonuniform List<scalar> 2(0.00017422 0.000164287);
    }
    sun
    {
        type            nutkWallFunction;
        Cmu             0.09;
        kappa           0.41;
        E               9.8;
        value           nonuniform List<scalar> 
14
(
0.000130046
0.000141619
0.000144149
0.000150782
0.000156892
0.000162585
0.000168142
0.00017356
0.000177377
0.00017899
0.000177837
0.000173557
0.000166106
0.000156071
)
;
    }
    heatsource1
    {
        type            nutkWallFunction;
        Cmu             0.09;
        kappa           0.41;
        E               9.8;
        value           nonuniform List<scalar> 3(6.97271e-05 8.48899e-05 9.53613e-05);
    }
    heatsource2
    {
        type            nutkWallFunction;
        Cmu             0.09;
        kappa           0.41;
        E               9.8;
        value           nonuniform List<scalar> 4(0.000147658 8.79965e-05 8.79965e-05 0.000146753);
    }
    Table_master
    {
        type            nutkWallFunction;
        Cmu             0.09;
        kappa           0.41;
        E               9.8;
        value           nonuniform List<scalar> 9(9.68303e-05 8.54735e-05 7.62237e-05 6.86648e-05 6.24351e-05 5.72508e-05 5.29054e-05 4.92689e-05 4.62942e-05);
    }
    Table_slave
    {
        type            nutkWallFunction;
        Cmu             0.09;
        kappa           0.41;
        E               9.8;
        value           nonuniform List<scalar> 9(0.000109128 9.9462e-05 9.24756e-05 8.71135e-05 8.25333e-05 7.83121e-05 7.42343e-05 6.99292e-05 6.48981e-05);
    }
    inlet
    {
        type            calculated;
        value           uniform 0.000100623;
    }
    outlet
    {
        type            calculated;
        value           nonuniform List<scalar> 2(0.00177704 0.00188289);
    }
}


// ************************************************************************* //
