/*--------------------------------*- C++ -*----------------------------------*\
  =========                 |
  \\      /  F ield         | OpenFOAM: The Open Source CFD Toolbox
   \\    /   O peration     | Website:  https://openfoam.org
    \\  /    A nd           | Version:  6
     \\/     M anipulation  |
\*---------------------------------------------------------------------------*/
FoamFile
{
    version     2.0;
    format      ascii;
    class       volScalarField;
    location    "600";
    object      alphat;
}
// * * * * * * * * * * * * * * * * * * * * * * * * * * * * * * * * * * * * * //

dimensions      [1 -1 -1 0 0 0 0];

internalField   nonuniform List<scalar> 
459
(
0.000770196
0.000796697
0.000731722
0.000756085
0.000783684
0.000810293
0.00083599
0.000861459
0.000887804
0.000913654
0.000935954
0.000953647
0.000965912
0.000971907
0.000967245
0.000314429
0.000302999
0.000277925
0.000256951
0.000248028
0.000244832
0.000248476
0.00026253
0.000277195
0.000289543
0.000297153
0.0002966
0.000293153
0.000296954
0.000311149
0.000336753
0.000338798
0.000318185
0.000264936
0.00129987
0.00243525
0.00188771
0.0025393
0.00280216
0.00303678
0.00326446
0.00346829
0.00362339
0.00372874
0.00377199
0.00371515
0.00349341
0.00299586
0.00209939
0.00104965
0.000654328
0.000417164
0.00124399
0.00114328
0.000984663
0.000810199
0.000697722
0.000668028
0.000763502
0.000869802
0.000953723
0.00100718
0.00102602
0.00104323
0.00110115
0.00125085
0.00158841
0.00152819
0.00135277
0.000425474
0.00178521
0.00412371
0.00204873
0.00352115
0.00423601
0.0045564
0.00480482
0.00500727
0.00515765
0.0052598
0.00530844
0.00526428
0.00505345
0.00455386
0.00362616
0.00232274
0.0010957
0.000651147
0.00174793
0.00146555
0.00108389
0.000790511
0.000551614
0.000345536
0.000366241
0.00039205
0.000419969
0.000452008
0.000491376
0.000542406
0.000613377
0.000719271
0.00228695
0.00244753
0.00239074
0.00063895
0.00225815
0.00634053
0.00260143
0.00349809
0.00482772
0.00527132
0.00552319
0.00571877
0.0058764
0.00600601
0.00614266
0.00626248
0.00630006
0.00613021
0.00555155
0.00433391
0.00249819
0.00103568
0.00240957
0.00289107
0.00240297
0.00187878
0.00143382
0.00102371
0.00070155
0.000694728
0.000692917
0.000695453
0.000703568
0.000719077
0.0007449
0.000786687
0.000857582
0.00270397
0.00283566
0.00269207
0.000865017
0.00270798
0.0088282
0.00416066
0.00337031
0.00464791
0.00530112
0.00562776
0.00584394
0.00600047
0.00614428
0.00637281
0.00668563
0.00705292
0.00740502
0.00762838
0.00759834
0.00724838
0.00661516
0.00616912
0.00562403
0.00518667
0.00487254
0.00459555
0.00433973
0.00410944
0.00396442
0.00383362
0.00370847
0.00358758
0.00347434
0.00337834
0.00331429
0.00329504
0.00334172
0.00315287
0.00293504
0.00272582
0.00102175
0.000911214
0.000779994
0.00313543
0.0111613
0.00707058
0.00458286
0.00433659
0.004762
0.00522925
0.00557251
0.00574309
0.00588074
0.00612268
0.00649254
0.00700348
0.00762071
0.00823085
0.00865841
0.00877068
0.0085098
0.00801654
0.00747769
0.00702923
0.0066767
0.00639347
0.00615662
0.0059445
0.00575037
0.00556932
0.00539435
0.00521247
0.00500694
0.00476383
0.00448152
0.00416935
0.00382967
0.00346026
0.00309736
0.00273618
0.00226134
0.00177692
0.000783233
0.0035002
0.0126882
0.0105174
0.00756
0.00580794
0.00506999
0.00511576
0.00542811
0.00559444
0.00569619
0.00584313
0.00609226
0.00650564
0.00712072
0.00788683
0.00854783
0.00894464
0.00898978
0.00874767
0.00837303
0.00799223
0.00765072
0.0073557
0.00709959
0.00687001
0.00666303
0.00648265
0.00632916
0.00619326
0.00605181
0.00586494
0.00558477
0.00518317
0.00467481
0.00410409
0.00352159
0.00296251
0.00243193
0.00188808
0.00105104
0.00353545
0.011498
0.0104289
0.00978491
0.00827488
0.00702289
0.00636039
0.00608512
0.00594403
0.0058408
0.0058039
0.00587115
0.00608713
0.00649169
0.00707991
0.00773658
0.00828687
0.0085897
0.00862507
0.00847551
0.00823947
0.00797888
0.00772542
0.00748971
0.00727263
0.00707692
0.00691223
0.00678717
0.00670636
0.00666834
0.00665626
0.00662199
0.00647724
0.00613295
0.00557449
0.00486064
0.00409581
0.00343852
0.00295042
0.00162333
0.0033907
0.00392359
0.00786642
0.00867325
0.00829272
0.00760365
0.00696643
0.00647835
0.00612401
0.00587807
0.00575511
0.00575925
0.00589274
0.00614866
0.00651104
0.00694407
0.00737708
0.0077185
0.00790984
0.0079544
0.00789179
0.00776577
0.00761287
0.00745398
0.00729982
0.00715836
0.00703741
0.00694417
0.00688564
0.00686922
0.00690179
0.0069839
0.00709554
0.00718863
0.00721838
0.00715532
0.00694268
0.00639408
0.00574822
0.00174814
0.0172436
0.0165782
0.0107553
0.00874195
0.00765362
0.00695662
0.00649526
0.00620852
0.00606874
0.0060674
0.00616853
0.00632746
0.0065158
0.00672339
0.0069417
0.0071501
0.00732039
0.00743309
0.00748455
0.00748594
0.00745806
0.0074132
0.00736081
0.00730874
0.00726219
0.00722503
0.00720084
0.00719309
0.00720432
0.00723547
0.00728163
0.00732438
0.00733013
0.00725327
0.00703144
0.00655606
0.00550122
0.00183973
0.0062638
0.0125465
0.00987739
0.00831634
0.00739074
0.0068225
0.00650758
0.00639882
0.00645745
0.00662958
0.00685833
0.00709057
0.00728931
0.00743848
0.00753861
0.00759915
0.00763244
0.00764998
0.00766025
0.00766849
0.00767742
0.00768735
0.00769753
0.00770674
0.00771371
0.00771757
0.00771803
0.00771426
0.00769874
0.00766276
0.00760219
0.0075079
0.007362
0.00713308
0.00677293
0.0062026
0.00544142
0.0020415
0.00193035
0.00265573
0.00445542
0.00370456
0.00305279
0.00281843
0.00253592
0.00229386
0.00210426
0.00196278
0.00186331
0.00180179
0.00177106
0.00176257
0.0017673
0.00177751
0.00178789
0.00179551
0.00179934
0.00179959
0.00179727
0.0017935
0.00178919
0.00178508
0.0017815
0.00177844
0.00177572
0.00177306
0.0017701
0.00176637
0.00176187
0.00175603
0.00174755
0.00173544
0.00171861
0.00169486
0.00165932
0.00160301
0.00155366
0.00149427
)
;

boundaryField
{
    floor
    {
        type            compressible::alphatWallFunction;
        Prt             0.85;
        value           nonuniform List<scalar> 
29
(
0.00013784
4.01177e-05
3.82513e-05
3.41265e-05
3.06388e-05
2.91436e-05
2.86068e-05
2.92196e-05
3.15703e-05
3.40047e-05
3.60409e-05
3.72899e-05
3.7199e-05
3.66334e-05
3.72574e-05
3.95777e-05
4.37286e-05
4.40599e-05
4.07256e-05
3.19789e-05
3.19785e-05
5.7819e-05
9.03183e-05
0.000123288
0.000137839
4.01171e-05
5.65123e-05
9.21159e-05
0.000147467
)
;
    }
    ceiling
    {
        type            compressible::alphatWallFunction;
        Prt             0.85;
        value           nonuniform List<scalar> 
43
(
0.000268446
0.000361599
0.000582503
0.000491702
0.000411363
0.000382054
0.000346371
0.000315462
0.000291008
0.000272605
0.000259579
0.000251485
0.00024743
0.000246308
0.000246932
0.000248281
0.000249649
0.000250654
0.000251158
0.000251191
0.000250883
0.000250386
0.000249816
0.000249273
0.000248799
0.000248394
0.000248034
0.000247682
0.000247289
0.000246795
0.000246199
0.000245427
0.000244303
0.0002427
0.000240471
0.00023732
0.000232598
0.000225093
0.00021849
0.000210516
0.000453284
0.000518442
0.000795419
)
;
    }
    sWall
    {
        type            compressible::alphatWallFunction;
        Prt             0.85;
        value           uniform 0.000267505;
    }
    nWall
    {
        type            compressible::alphatWallFunction;
        Prt             0.85;
        value           nonuniform List<scalar> 6(0.000110906 0.000111382 0.000149463 0.000256179 0.000282548 0.000210246);
    }
    sideWalls
    {
        type            empty;
    }
    glass1
    {
        type            compressible::alphatWallFunction;
        Prt             0.85;
        value           nonuniform List<scalar> 9(0.000107102 0.000180588 0.000245068 0.000306167 0.000363092 0.000416319 0.000461186 0.000465602 0.000448046);
    }
    glass2
    {
        type            compressible::alphatWallFunction;
        Prt             0.85;
        value           nonuniform List<scalar> 2(0.000227168 0.000243711);
    }
    sun
    {
        type            compressible::alphatWallFunction;
        Prt             0.85;
        value           nonuniform List<scalar> 
14
(
0.000109626
0.000113456
0.000104008
0.000107562
0.000111572
0.000115422
0.000119126
0.000122784
0.000126554
0.00013024
0.00013341
0.000135918
0.000137653
0.0001385
)
;
    }
    heatsource1
    {
        type            compressible::alphatWallFunction;
        Prt             0.85;
        value           nonuniform List<scalar> 3(0.000145492 0.000129851 0.000110998);
    }
    heatsource2
    {
        type            compressible::alphatWallFunction;
        Prt             0.85;
        value           nonuniform List<scalar> 4(0.000149396 9.25804e-05 9.25793e-05 0.000155826);
    }
    Table_master
    {
        type            compressible::alphatWallFunction;
        Prt             0.85;
        value           nonuniform List<scalar> 9(4.51522e-05 4.84653e-05 5.25613e-05 5.69531e-05 6.19473e-05 6.80229e-05 7.5808e-05 8.64861e-05 0.000102144);
    }
    Table_slave
    {
        type            compressible::alphatWallFunction;
        Prt             0.85;
        value           nonuniform List<scalar> 9(9.95469e-05 9.8544e-05 9.82778e-05 9.86509e-05 9.98438e-05 0.000102119 0.000105894 0.000111969 0.000122189);
    }
    inlet
    {
        type            fixedValue;
        value           uniform 1.94e-05;
    }
    outlet
    {
        type            zeroGradient;
    }
}


// ************************************************************************* //
