/*--------------------------------*- C++ -*----------------------------------*\
  =========                 |
  \\      /  F ield         | OpenFOAM: The Open Source CFD Toolbox
   \\    /   O peration     | Website:  https://openfoam.org
    \\  /    A nd           | Version:  6
     \\/     M anipulation  |
\*---------------------------------------------------------------------------*/
FoamFile
{
    version     2.0;
    format      ascii;
    class       volScalarField;
    location    "300";
    object      epsilon;
}
// * * * * * * * * * * * * * * * * * * * * * * * * * * * * * * * * * * * * * //

dimensions      [0 2 -3 0 0 0 0];

internalField   nonuniform List<scalar> 
459
(
0.000444671
0.000576362
0.000602564
0.000691697
0.000781932
0.000873009
0.000968577
0.00106802
0.00114048
0.00116871
0.00113855
0.00104583
0.00090133
0.000732607
0.00057743
3.41557e-05
6.0513e-05
8.39165e-05
8.15307e-05
7.31546e-05
6.33043e-05
5.22587e-05
4.26522e-05
3.50064e-05
2.90277e-05
2.4337e-05
2.06427e-05
1.76962e-05
1.52994e-05
1.32977e-05
1.15499e-05
9.93681e-06
9.48933e-06
7.58686e-06
0.00115278
0.00167365
0.000545305
0.00052432
0.000548661
0.000588606
0.000646805
0.000723683
0.000796095
0.000841046
0.000839791
0.000785631
0.000685872
0.000563446
0.000479039
0.000592959
0.000130944
4.40226e-05
0.000100543
0.000103478
9.28834e-05
7.86094e-05
6.57706e-05
5.89517e-05
4.79745e-05
3.82717e-05
3.05506e-05
2.45698e-05
1.99714e-05
1.64352e-05
1.37165e-05
1.17404e-05
1.05098e-05
1.00219e-05
3.12026e-05
2.02824e-05
0.00212298
0.00414526
0.000696557
0.000509432
0.000532164
0.000596379
0.000690328
0.000807739
0.000915863
0.000981925
0.000988014
0.00093271
0.000828059
0.000693855
0.000578408
0.000508802
0.000576939
0.000338895
0.000232974
0.000170793
0.000129581
0.000101287
8.53085e-05
0.000154982
0.000106775
7.65406e-05
5.6934e-05
4.37576e-05
3.46029e-05
2.80606e-05
2.32981e-05
1.98567e-05
1.5342e-05
1.33514e-05
6.31778e-05
3.39439e-05
0.0034532
0.00858808
0.00113155
0.00053067
0.00053298
0.00062592
0.000772194
0.000952923
0.00109727
0.00117007
0.00116619
0.00109376
0.000969673
0.000807336
0.000661335
0.000553726
0.000520216
0.000978679
0.00053872
0.000315922
0.000208399
0.00014911
0.000113643
9.85219e-05
0.00022792
0.000174732
0.000143964
0.00012411
0.000108867
9.45365e-05
8.18893e-05
6.95992e-05
5.66212e-05
3.3436e-05
2.27626e-05
0.000116176
4.64693e-05
0.00527397
0.0152068
0.0022562
0.000657885
0.00056778
0.000691039
0.000949794
0.00122361
0.00138253
0.00143312
0.00139549
0.00128777
0.00112445
0.000926971
0.000728798
0.000556317
0.000428997
0.000369088
0.000291466
0.000224368
0.000172902
0.000135388
0.000108899
9.27443e-05
9.20421e-05
8.74432e-05
8.26509e-05
7.77965e-05
7.21882e-05
6.52337e-05
5.79265e-05
5.11096e-05
4.49756e-05
3.6123e-05
2.84512e-05
7.61472e-05
5.73157e-05
8.50832e-05
0.00014474
0.000207103
0.0077854
0.0224282
0.00503518
0.00130411
0.000882754
0.001009
0.00149187
0.00176033
0.0018397
0.00181107
0.0017123
0.00155197
0.00133379
0.00107718
0.000816611
0.000587496
0.000416328
0.000309654
0.000242618
0.000193072
0.000153613
0.000123757
0.000102779
9.01563e-05
8.55458e-05
8.47009e-05
8.4912e-05
8.4668e-05
8.27254e-05
7.7639e-05
6.82561e-05
5.80776e-05
4.89152e-05
4.07336e-05
3.59242e-05
5.31757e-05
5.82856e-05
6.835e-05
0.000268964
0.000242346
0.0106688
0.026715
0.010271
0.00419787
0.00285124
0.00273431
0.00282646
0.00273209
0.00255712
0.00236172
0.00214929
0.00189797
0.001594
0.00125377
0.000916836
0.000626063
0.000415502
0.000286679
0.000213358
0.000166657
0.000133025
0.000109503
9.48095e-05
8.80117e-05
8.77523e-05
9.15398e-05
9.71003e-05
0.000103305
0.00010902
0.000112095
0.000108769
9.59017e-05
8.34375e-05
7.36943e-05
7.14066e-05
8.49117e-05
0.00011574
0.000191589
0.00041845
0.000405361
0.0112934
0.0290239
0.0161473
0.0109435
0.00817365
0.0063638
0.0050214
0.00410865
0.00350129
0.00307037
0.00270407
0.002321
0.00188604
0.0014242
0.000987131
0.000621821
0.000376893
0.000238789
0.000169067
0.000131794
0.00010811
9.37444e-05
8.6918e-05
8.64187e-05
9.11093e-05
9.98339e-05
0.00011192
0.00012744
0.000146674
0.000169533
0.000194827
0.000216325
0.000229216
0.000260537
0.000328231
0.000520199
0.000991283
0.00182362
0.00485868
0.00135864
0.0104059
0.0173513
0.0138044
0.0104626
0.00804797
0.00643131
0.0053822
0.00470686
0.00423337
0.00381256
0.00334262
0.0027733
0.00211418
0.00146647
0.000909321
0.000463412
0.000255537
0.000163959
0.000120081
9.65745e-05
8.31299e-05
7.67957e-05
7.61187e-05
8.0207e-05
8.85247e-05
0.000100938
0.000117896
0.000140524
0.000170642
0.000210864
0.000264717
0.000336694
0.000434372
0.000573156
0.000772506
0.00103022
0.00130657
0.00152964
0.00170972
0.00106871
0.00398493
0.00607901
0.00687772
0.00689304
0.00658421
0.00608837
0.00539989
0.00454427
0.00358834
0.00255428
0.00148658
0.000809187
0.000430183
0.000229584
0.000136789
9.36534e-05
7.23703e-05
6.15708e-05
5.69535e-05
5.65032e-05
5.93783e-05
6.52983e-05
7.41928e-05
8.63085e-05
0.00010225
0.000123045
0.000150282
0.000186357
0.000234878
0.000301951
0.000393799
0.00051706
0.000673591
0.000844727
0.000981744
0.00102908
0.000929604
0.000583619
0.00310395
0.00665944
0.00725713
0.00584309
0.00511463
0.00435656
0.0034142
0.00247116
0.00167244
0.00106583
0.000610487
0.000330142
0.000179396
0.000104083
6.81469e-05
5.08564e-05
4.26705e-05
3.95375e-05
3.97117e-05
4.23686e-05
4.71489e-05
5.39229e-05
6.28718e-05
7.4409e-05
8.91957e-05
0.000108233
0.000133029
0.000165866
0.000210176
0.000270227
0.000351518
0.000458708
0.00059033
0.000739584
0.000837584
0.000916864
0.000830782
0.000610631
0.00215717
0.00255416
0.00287024
0.0035063
0.00307505
0.00257655
0.00226765
0.00194259
0.0015687
0.00118682
0.000840326
0.000557706
0.00034891
0.000213936
0.000137005
9.47902e-05
7.10209e-05
5.73839e-05
4.99931e-05
4.6902e-05
4.69802e-05
4.95665e-05
5.43874e-05
6.13711e-05
7.0387e-05
8.17534e-05
9.59524e-05
0.000113695
0.000136098
0.000165069
0.000202957
0.000250919
0.000311676
0.000388596
0.000484597
0.000628544
0.000656514
0.000595673
0.000488897
0.000383617
)
;

boundaryField
{
    floor
    {
        Cmu             0.09;
        kappa           0.41;
        E               9.8;
        type            epsilonWallFunction;
        value           nonuniform List<scalar> 
29
(
0.00057743
3.41557e-05
6.0513e-05
8.39165e-05
8.15307e-05
7.31546e-05
6.33043e-05
5.22587e-05
4.26522e-05
3.50064e-05
2.90277e-05
2.4337e-05
2.06427e-05
1.76962e-05
1.52994e-05
1.32977e-05
1.15499e-05
9.93681e-06
9.48933e-06
7.58686e-06
7.58686e-06
2.02824e-05
3.39439e-05
4.64693e-05
0.00057743
3.41557e-05
4.40226e-05
0.000338895
0.000978679
)
;
    }
    ceiling
    {
        Cmu             0.09;
        kappa           0.41;
        E               9.8;
        type            epsilonWallFunction;
        value           nonuniform List<scalar> 
43
(
0.00215717
0.00255416
0.00287024
0.0035063
0.00307505
0.00257655
0.00226765
0.00194259
0.0015687
0.00118682
0.000840326
0.000557706
0.00034891
0.000213936
0.000137005
9.47902e-05
7.10209e-05
5.73839e-05
4.99931e-05
4.6902e-05
4.69802e-05
4.95665e-05
5.43874e-05
6.13711e-05
7.0387e-05
8.17534e-05
9.59524e-05
0.000113695
0.000136098
0.000165069
0.000202957
0.000250919
0.000311676
0.000388596
0.000484597
0.000628544
0.000656514
0.000595673
0.000488897
0.000383617
0.0104059
0.0173513
0.00310395
)
;
    }
    sWall
    {
        Cmu             0.09;
        kappa           0.41;
        E               9.8;
        type            epsilonWallFunction;
        value           uniform 0.00215717;
    }
    nWall
    {
        Cmu             0.09;
        kappa           0.41;
        E               9.8;
        type            epsilonWallFunction;
        value           nonuniform List<scalar> 6(0.000207103 0.000242346 0.000405361 0.000583619 0.000610631 0.000383617);
    }
    sideWalls
    {
        type            empty;
    }
    glass1
    {
        Cmu             0.09;
        kappa           0.41;
        E               9.8;
        type            epsilonWallFunction;
        value           nonuniform List<scalar> 9(0.000444671 0.00115278 0.00212298 0.0034532 0.00527397 0.0077854 0.0106688 0.0112934 0.0104059);
    }
    glass2
    {
        Cmu             0.09;
        kappa           0.41;
        E               9.8;
        type            epsilonWallFunction;
        value           nonuniform List<scalar> 2(0.00135864 0.00106871);
    }
    sun
    {
        Cmu             0.09;
        kappa           0.41;
        E               9.8;
        type            epsilonWallFunction;
        value           nonuniform List<scalar> 
14
(
0.000444671
0.000576362
0.000602564
0.000691697
0.000781932
0.000873009
0.000968577
0.00106802
0.00114048
0.00116871
0.00113855
0.00104583
0.00090133
0.000732607
)
;
    }
    heatsource1
    {
        Cmu             0.09;
        kappa           0.41;
        E               9.8;
        type            epsilonWallFunction;
        value           nonuniform List<scalar> 3(8.50832e-05 0.00014474 0.000207103);
    }
    heatsource2
    {
        Cmu             0.09;
        kappa           0.41;
        E               9.8;
        type            epsilonWallFunction;
        value           nonuniform List<scalar> 4(0.000592959 0.000130944 0.000130944 0.000576939);
    }
    Table_master
    {
        Cmu             0.09;
        kappa           0.41;
        E               9.8;
        type            epsilonWallFunction;
        value           nonuniform List<scalar> 9(0.000154982 0.000106775 7.65406e-05 5.6934e-05 4.37576e-05 3.46029e-05 2.80606e-05 2.32981e-05 1.98567e-05);
    }
    Table_slave
    {
        Cmu             0.09;
        kappa           0.41;
        E               9.8;
        type            epsilonWallFunction;
        value           nonuniform List<scalar> 9(0.00022792 0.000174732 0.000143964 0.00012411 0.000108867 9.45365e-05 8.18893e-05 6.95992e-05 5.66212e-05);
    }
    inlet
    {
        type            turbulentMixingLengthDissipationRateInlet;
        mixingLength    0.01;
        phi             phi;
        k               k;
        value           uniform 0.000101881;
    }
    outlet
    {
        type            zeroGradient;
    }
}


// ************************************************************************* //
