/*--------------------------------*- C++ -*----------------------------------*\
  =========                 |
  \\      /  F ield         | OpenFOAM: The Open Source CFD Toolbox
   \\    /   O peration     | Website:  https://openfoam.org
    \\  /    A nd           | Version:  6
     \\/     M anipulation  |
\*---------------------------------------------------------------------------*/
FoamFile
{
    version     2.0;
    format      ascii;
    class       volScalarField;
    location    "800";
    object      nut;
}
// * * * * * * * * * * * * * * * * * * * * * * * * * * * * * * * * * * * * * //

dimensions      [0 2 -1 0 0 0 0];

internalField   nonuniform List<scalar> 
459
(
0.00244803
0.00236531
0.00227704
0.00219891
0.00213249
0.00207459
0.00202288
0.00197497
0.00192857
0.00188162
0.00183194
0.0017767
0.00171141
0.00162652
0.00151464
0.000223791
0.00023755
0.000245646
0.000229092
0.000211529
0.000196455
0.000176329
0.000164959
0.000159858
0.000164854
0.000176293
0.000193084
0.000215441
0.000241367
0.000254413
0.000271595
0.000286544
0.000310026
0.000278289
0.00277975
0.00306064
0.00307602
0.00298117
0.00292126
0.00290168
0.00290602
0.00289591
0.00286053
0.00279822
0.00270814
0.00258709
0.00242277
0.00217525
0.00183702
0.00143948
0.00125059
0.000348412
0.000536622
0.000638156
0.000736751
0.000797349
0.000655612
0.000268421
0.000208347
0.000218936
0.00027299
0.000365374
0.000490644
0.000641541
0.000807895
0.00095625
0.00118953
0.00114449
0.0010968
0.000344634
0.00298265
0.00340912
0.00313481
0.00282408
0.00270791
0.00271494
0.00278526
0.00286944
0.00293557
0.00296546
0.00294655
0.0028691
0.00272134
0.00247479
0.0021533
0.00185355
0.00125969
0.000554144
0.00143001
0.00139264
0.0012971
0.00112614
0.000884442
0.000305401
0.000221558
0.000236467
0.000267829
0.000300489
0.000336193
0.0003772
0.000426798
0.000491795
0.00134756
0.00123735
0.000945355
0.000506034
0.00313519
0.00368639
0.0028424
0.00230373
0.00229221
0.00249215
0.00273875
0.00292158
0.00302892
0.003069
0.00305604
0.0029903
0.0028588
0.00262967
0.00232965
0.00205267
0.00155383
0.000772845
0.00191895
0.00190719
0.00170332
0.00135798
0.00100291
0.00070951
0.000509297
0.000528718
0.000549481
0.000570718
0.000591461
0.000614926
0.000644739
0.000685923
0.000748948
0.00225824
0.00239071
0.00211158
0.000739972
0.00327095
0.00379189
0.00228282
0.00192515
0.00269864
0.00344148
0.00388847
0.00391935
0.0036368
0.0033664
0.00318399
0.00304937
0.00289866
0.00266487
0.0023621
0.00208616
0.00172544
0.00182802
0.00249515
0.00277216
0.00267655
0.00254883
0.00247549
0.00248583
0.0025851
0.00275207
0.00284893
0.0028741
0.00287369
0.00286451
0.00286471
0.00289289
0.00296516
0.00310603
0.00308846
0.00297542
0.0025448
0.00104095
0.000897048
0.000774786
0.00341014
0.00371486
0.00176229
0.00235517
0.00384765
0.00432879
0.00444333
0.00429713
0.00379118
0.00340215
0.00316243
0.0029967
0.00282367
0.00258476
0.0023144
0.00209846
0.00195166
0.00257043
0.00323139
0.00358701
0.00363783
0.00368466
0.00376264
0.00386951
0.00399108
0.00409566
0.00414297
0.00413859
0.00408506
0.00398385
0.0038499
0.00371018
0.00358527
0.00347171
0.00334132
0.00315938
0.00286504
0.00238838
0.00173225
0.000814391
0.00357374
0.00351484
0.00173744
0.0021581
0.00363791
0.00392567
0.00384891
0.00369177
0.00345011
0.00320544
0.00301349
0.00285497
0.00268483
0.00247611
0.00227277
0.00216769
0.0022545
0.00322982
0.00389598
0.00417898
0.00431823
0.00445123
0.00457698
0.0046902
0.00479293
0.00488111
0.0049519
0.00500182
0.00501093
0.00494798
0.00478885
0.00454336
0.00425282
0.00395053
0.00364036
0.00329504
0.00287267
0.00234944
0.00176363
0.0008402
0.00380438
0.00370618
0.00233353
0.00155005
0.00285129
0.00325265
0.00320225
0.00312597
0.00305543
0.00294588
0.00282805
0.00270742
0.00257113
0.00241744
0.00229512
0.00231227
0.00261338
0.00380622
0.00441019
0.00469754
0.00491379
0.00507573
0.0051898
0.0052634
0.00531708
0.00537284
0.0054475
0.00555069
0.00567808
0.00580112
0.00585994
0.00578785
0.0055692
0.00521244
0.00475155
0.00422133
0.00367788
0.00312345
0.00264885
0.00141435
0.0041942
0.0047733
0.00447601
0.00199913
0.00233099
0.00292609
0.00293997
0.00288271
0.00283934
0.00279581
0.00273824
0.00266744
0.00258072
0.0024852
0.00242885
0.00253569
0.00299586
0.00418367
0.00483244
0.00525354
0.0055281
0.00569688
0.00577115
0.00577981
0.00575761
0.00573754
0.00574394
0.00579621
0.00591065
0.00609613
0.00633724
0.00655579
0.00671565
0.0068027
0.00684935
0.00689263
0.00670744
0.00609683
0.00551137
0.00154956
0.00719331
0.00297237
0.00285228
0.003143
0.00315292
0.00311603
0.00305132
0.00299116
0.00295014
0.00291186
0.0028647
0.00280992
0.00278947
0.00294696
0.00353025
0.00442498
0.00521555
0.00576742
0.00611663
0.00631082
0.00637024
0.00633839
0.00626281
0.00618138
0.00612053
0.00609802
0.0061268
0.00621663
0.00636926
0.00656115
0.00676154
0.00693741
0.00702238
0.00692679
0.00659987
0.00599656
0.00493947
0.00157535
0.00327481
0.00271907
0.00373037
0.00355382
0.00341531
0.00325637
0.00310304
0.00295463
0.00289433
0.00288332
0.0028879
0.00288447
0.002886
0.00298398
0.00336495
0.00406016
0.00492357
0.00574555
0.00631222
0.00659228
0.00665319
0.00658948
0.00647973
0.00637435
0.0062985
0.00625959
0.00625458
0.00627547
0.00631226
0.00635302
0.00637957
0.00635754
0.00624853
0.00602186
0.00561996
0.00497727
0.00426937
0.00165319
0.00134267
0.00136405
0.00206743
0.00126138
0.00120419
0.0011806
0.0011793
0.00118361
0.00119236
0.00120405
0.00121429
0.00122546
0.00123704
0.00124657
0.00125008
0.00123479
0.001218
0.00121965
0.00124234
0.00128775
0.00135375
0.001416
0.00146058
0.00148485
0.0014926
0.00148966
0.00148137
0.00147163
0.00146263
0.0014551
0.00144865
0.00144214
0.00143403
0.00142281
0.00140703
0.00138431
0.00134897
0.00129009
0.00124194
0.00126897
)
;

boundaryField
{
    floor
    {
        type            nutkWallFunction;
        Cmu             0.09;
        kappa           0.41;
        E               9.8;
        value           nonuniform List<scalar> 
29
(
0.000179909
2.27682e-05
2.4713e-05
2.58498e-05
2.35193e-05
2.10214e-05
1.88544e-05
1.59245e-05
1.42482e-05
1.34915e-05
1.42333e-05
1.59195e-05
1.83669e-05
2.15804e-05
2.52503e-05
2.70782e-05
2.94644e-05
3.15223e-05
3.47335e-05
3.03888e-05
3.03887e-05
3.94023e-05
6.0468e-05
8.96139e-05
0.000179909
2.27681e-05
3.99009e-05
6.65769e-05
9.36107e-05
)
;
    }
    ceiling
    {
        type            nutkWallFunction;
        Cmu             0.09;
        kappa           0.41;
        E               9.8;
        value           nonuniform List<scalar> 
43
(
0.000160507
0.000162939
0.000240985
0.000151122
0.000144548
0.000141825
0.000141674
0.000142174
0.000143185
0.000144534
0.000145714
0.000147
0.000148333
0.000149428
0.000149828
0.000148068
0.000146133
0.000146322
0.00014893
0.000154137
0.00016167
0.000168736
0.000173775
0.000176511
0.000177384
0.000177052
0.000176117
0.000175018
0.000174002
0.000173151
0.000172421
0.000171685
0.000170768
0.000169498
0.00016771
0.000165131
0.000161114
0.000154392
0.000148871
0.000151975
0.00046298
0.000521126
0.000368895
)
;
    }
    sWall
    {
        type            nutkWallFunction;
        Cmu             0.09;
        kappa           0.41;
        E               9.8;
        value           uniform 0.000160537;
    }
    nWall
    {
        type            nutkWallFunction;
        Cmu             0.09;
        kappa           0.41;
        E               9.8;
        value           nonuniform List<scalar> 6(9.38476e-05 9.86392e-05 0.000101745 0.000186674 0.00019536 0.000151984);
    }
    sideWalls
    {
        type            empty;
    }
    glass1
    {
        type            nutkWallFunction;
        Cmu             0.09;
        kappa           0.41;
        E               9.8;
        value           nonuniform List<scalar> 9(0.000282282 0.000317511 0.000338838 0.000354771 0.000368885 0.00038329 0.000400147 0.000423778 0.000463399);
    }
    glass2
    {
        type            nutkWallFunction;
        Cmu             0.09;
        kappa           0.41;
        E               9.8;
        value           nonuniform List<scalar> 2(0.000168571 0.000183813);
    }
    sun
    {
        type            nutkWallFunction;
        Cmu             0.09;
        kappa           0.41;
        E               9.8;
        value           nonuniform List<scalar> 
14
(
0.000282018
0.000273158
0.000263671
0.000255244
0.000248056
0.000241771
0.000236141
0.000230911
0.000225834
0.000220684
0.000215218
0.000209122
0.00020189
0.000192444
)
;
    }
    heatsource1
    {
        type            nutkWallFunction;
        Cmu             0.09;
        kappa           0.41;
        E               9.8;
        value           nonuniform List<scalar> 3(0.00012556 0.00010855 9.38478e-05);
    }
    heatsource2
    {
        type            nutkWallFunction;
        Cmu             0.09;
        kappa           0.41;
        E               9.8;
        value           nonuniform List<scalar> 4(0.000171437 0.000149908 0.000149908 0.000150952);
    }
    Table_master
    {
        type            nutkWallFunction;
        Cmu             0.09;
        kappa           0.41;
        E               9.8;
        value           nonuniform List<scalar> 9(3.4101e-05 2.24571e-05 2.45653e-05 2.89435e-05 3.34312e-05 3.82649e-05 4.37358e-05 5.02528e-05 5.86515e-05);
    }
    Table_slave
    {
        type            nutkWallFunction;
        Cmu             0.09;
        kappa           0.41;
        E               9.8;
        value           nonuniform List<scalar> 9(6.08756e-05 6.3348e-05 6.59789e-05 6.86573e-05 7.12618e-05 7.41948e-05 7.79019e-05 8.29895e-05 9.07052e-05);
    }
    inlet
    {
        type            calculated;
        value           uniform 0.00719331;
    }
    outlet
    {
        type            calculated;
        value           nonuniform List<scalar> 2(0.00134267 0.00136405);
    }
}


// ************************************************************************* //
