/*--------------------------------*- C++ -*----------------------------------*\
  =========                 |
  \\      /  F ield         | OpenFOAM: The Open Source CFD Toolbox
   \\    /   O peration     | Website:  https://openfoam.org
    \\  /    A nd           | Version:  6
     \\/     M anipulation  |
\*---------------------------------------------------------------------------*/
FoamFile
{
    version     2.0;
    format      ascii;
    class       volScalarField;
    location    "420";
    object      epsilon;
}
// * * * * * * * * * * * * * * * * * * * * * * * * * * * * * * * * * * * * * //

dimensions      [0 2 -3 0 0 0 0];

internalField   nonuniform List<scalar> 
459
(
0.000119159
0.000167634
0.000197706
0.000236711
0.000280561
0.000334527
0.000389066
0.000437765
0.000468996
0.000437759
0.000365877
0.000290798
0.000214423
0.000157851
0.00011007
2.61606e-05
5.90161e-05
9.04943e-05
0.000100315
9.87762e-05
9.07415e-05
7.62435e-05
6.25541e-05
5.15319e-05
4.28974e-05
3.61061e-05
3.07049e-05
2.63874e-05
2.28389e-05
1.98047e-05
1.70584e-05
1.43656e-05
1.08969e-05
7.85403e-06
0.000218699
0.000254752
0.00015163
0.000158109
0.000177485
0.000212484
0.000255273
0.000294211
0.00031754
0.000304243
0.000255586
0.000205023
0.000161384
0.000131617
0.00010364
0.000159866
9.62128e-05
8.18609e-05
0.000177701
0.000101742
8.4096e-05
7.51204e-05
6.88325e-05
7.02205e-05
5.85339e-05
4.71244e-05
3.78191e-05
3.05099e-05
2.48207e-05
2.04129e-05
1.69662e-05
1.43761e-05
1.29694e-05
1.36754e-05
1.1353e-05
1.24145e-05
0.00033456
0.000439051
0.000148961
0.00014274
0.000165314
0.000205625
0.000251158
0.000290958
0.000318558
0.000315404
0.000274816
0.000223261
0.000176577
0.00013941
0.000109325
0.000107912
0.000135809
9.48635e-05
0.000137198
0.000102692
8.85423e-05
7.93167e-05
7.77846e-05
0.000182515
0.000122131
8.46547e-05
6.09574e-05
4.54899e-05
3.50545e-05
2.78801e-05
2.29484e-05
1.97502e-05
1.50047e-05
1.41676e-05
1.32402e-05
1.58042e-05
0.000477886
0.000771607
0.00017618
0.00014014
0.000165894
0.00021809
0.00026496
0.000306141
0.000340547
0.000343028
0.00030311
0.000244607
0.000190614
0.000148837
0.000117742
0.0001037
0.000108531
0.000179055
0.000140318
0.000114555
0.00010274
9.48812e-05
8.73887e-05
8.80504e-05
0.000245033
0.000184834
0.000147509
0.000121721
0.000102157
8.63826e-05
7.24828e-05
5.94811e-05
4.66047e-05
2.62219e-05
1.79558e-05
2.05161e-05
2.15585e-05
0.000665284
0.00130895
0.000270449
0.000157663
0.000192248
0.000266405
0.000308175
0.00035086
0.000390463
0.000392504
0.000342646
0.000267155
0.000198591
0.000149744
0.000118553
0.000104086
0.000109426
0.000125176
0.00012381
0.000123566
0.00012117
0.000114283
0.000103606
9.30958e-05
9.40082e-05
8.88219e-05
8.30306e-05
7.65688e-05
6.92673e-05
6.12053e-05
5.25601e-05
4.37949e-05
3.53388e-05
2.60196e-05
1.91879e-05
2.33297e-05
2.38002e-05
3.02632e-05
2.99533e-05
2.92372e-05
0.000921814
0.00199938
0.000552237
0.000253415
0.000313996
0.000368726
0.000390078
0.000428937
0.000472462
0.000468934
0.000397758
0.00029378
0.000202971
0.000144297
0.000115131
0.000108228
0.000120461
0.000139199
0.000151394
0.000155447
0.000150779
0.000138312
0.000121132
0.000103688
9.1555e-05
8.44343e-05
7.93854e-05
7.38927e-05
6.71895e-05
5.92631e-05
5.05709e-05
4.1875e-05
3.40066e-05
2.73355e-05
2.18908e-05
2.27388e-05
2.53984e-05
2.80521e-05
9.39078e-05
6.2881e-05
0.00120767
0.00250713
0.00120037
0.000679471
0.000606576
0.000540903
0.00051823
0.000551824
0.000597383
0.000578367
0.000470326
0.000324588
0.000206493
0.000141303
0.000119149
0.000123044
0.000143781
0.000168407
0.000183437
0.000184482
0.000173427
0.000153997
0.000131199
0.000110221
9.57094e-05
8.81151e-05
8.31529e-05
7.82637e-05
7.27272e-05
6.64188e-05
5.96285e-05
5.25758e-05
4.62906e-05
4.13363e-05
3.77884e-05
3.71392e-05
3.91725e-05
4.54056e-05
0.000145353
0.000105551
0.00128754
0.00295247
0.00175403
0.00126848
0.000943594
0.000747019
0.000690376
0.000733674
0.000781196
0.0007254
0.000553819
0.000351446
0.000209605
0.000155687
0.000145993
0.000157706
0.000181808
0.000204762
0.000213917
0.000206291
0.000187114
0.000163011
0.000139806
0.000121471
0.000109605
0.000102919
9.83832e-05
9.41883e-05
9.00248e-05
8.67966e-05
8.59471e-05
8.80077e-05
9.19609e-05
9.93187e-05
0.000115061
0.000137392
0.000174855
0.000225726
0.000926817
0.000220476
0.00122677
0.00199117
0.0015065
0.00113217
0.000883357
0.000807169
0.00087884
0.00100434
0.00104408
0.000890958
0.000609001
0.000355606
0.000250908
0.000218413
0.000216277
0.00022804
0.000244906
0.000256838
0.000256498
0.000243904
0.000224722
0.000204899
0.000188149
0.000175798
0.000167386
0.000161699
0.00015576
0.000147661
0.000136916
0.000125688
0.000118265
0.000119306
0.000132219
0.000156417
0.000193969
0.0002472
0.000317705
0.000404589
0.000499988
0.000278374
0.000233376
0.000484434
0.000828123
0.00122403
0.00151935
0.00158036
0.00134444
0.00083688
0.000550775
0.000437924
0.000403644
0.000398179
0.000403546
0.000412602
0.000421016
0.000424891
0.000423181
0.000418081
0.000412781
0.000409598
0.000408951
0.000409596
0.000409067
0.000404043
0.000392828
0.00037227
0.000338691
0.00029481
0.0002502
0.000212713
0.000188249
0.000183971
0.000202609
0.000243955
0.000302171
0.000363047
0.000418589
0.000425404
0.00148538
0.00578457
0.00546931
0.00440565
0.00331126
0.00240027
0.00170122
0.00121357
0.000992057
0.000907559
0.000886685
0.000888622
0.000900294
0.000919682
0.000946756
0.000978765
0.00101059
0.00103894
0.00106379
0.00108751
0.00111222
0.00113864
0.00116554
0.00118884
0.00119998
0.00118891
0.00114704
0.00106776
0.000950524
0.000807843
0.000661499
0.000532108
0.000436984
0.000380996
0.000355929
0.000356159
0.000794532
0.000587478
0.00132612
0.00161164
0.00196208
0.00279114
0.00239371
0.00191284
0.00157721
0.00132532
0.00111502
0.000949778
0.00084283
0.000787596
0.000763887
0.000757222
0.000758983
0.000763679
0.00076722
0.000767057
0.000762961
0.000756474
0.000749485
0.000743126
0.000737487
0.000731712
0.000724147
0.000712561
0.000694812
0.000669078
0.000634285
0.000591496
0.000544309
0.000497051
0.000453686
0.000417543
0.000390176
0.000370445
0.0003523
0.000330428
0.000342877
0.000325016
)
;

boundaryField
{
    floor
    {
        Cmu             0.09;
        kappa           0.41;
        E               9.8;
        type            epsilonWallFunction;
        value           nonuniform List<scalar> 
29
(
0.00011007
2.61606e-05
5.90161e-05
9.04943e-05
0.000100315
9.87762e-05
9.07415e-05
7.62435e-05
6.25541e-05
5.15319e-05
4.28974e-05
3.61061e-05
3.07049e-05
2.63874e-05
2.28389e-05
1.98047e-05
1.70584e-05
1.43656e-05
1.08969e-05
7.85403e-06
7.85403e-06
1.24145e-05
1.58042e-05
2.15585e-05
0.00011007
2.61606e-05
8.18609e-05
9.48635e-05
0.000179055
)
;
    }
    ceiling
    {
        Cmu             0.09;
        kappa           0.41;
        E               9.8;
        type            epsilonWallFunction;
        value           nonuniform List<scalar> 
43
(
0.00132612
0.00161164
0.00196208
0.00279114
0.00239371
0.00191284
0.00157721
0.00132532
0.00111502
0.000949778
0.00084283
0.000787596
0.000763887
0.000757222
0.000758983
0.000763679
0.00076722
0.000767057
0.000762961
0.000756474
0.000749485
0.000743126
0.000737487
0.000731712
0.000724147
0.000712561
0.000694812
0.000669078
0.000634285
0.000591496
0.000544309
0.000497051
0.000453686
0.000417543
0.000390176
0.000370445
0.0003523
0.000330428
0.000342877
0.000325016
0.00122677
0.00199117
0.00148538
)
;
    }
    sWall
    {
        Cmu             0.09;
        kappa           0.41;
        E               9.8;
        type            epsilonWallFunction;
        value           uniform 0.00132612;
    }
    nWall
    {
        Cmu             0.09;
        kappa           0.41;
        E               9.8;
        type            epsilonWallFunction;
        value           nonuniform List<scalar> 6(2.92372e-05 6.2881e-05 0.000105551 0.000425404 0.000587478 0.000325016);
    }
    sideWalls
    {
        type            empty;
    }
    glass1
    {
        Cmu             0.09;
        kappa           0.41;
        E               9.8;
        type            epsilonWallFunction;
        value           nonuniform List<scalar> 9(0.000119159 0.000218699 0.00033456 0.000477886 0.000665284 0.000921814 0.00120767 0.00128754 0.00122677);
    }
    glass2
    {
        Cmu             0.09;
        kappa           0.41;
        E               9.8;
        type            epsilonWallFunction;
        value           nonuniform List<scalar> 2(0.000220476 0.000278374);
    }
    sun
    {
        Cmu             0.09;
        kappa           0.41;
        E               9.8;
        type            epsilonWallFunction;
        value           nonuniform List<scalar> 
14
(
0.000119159
0.000167634
0.000197706
0.000236711
0.000280561
0.000334527
0.000389066
0.000437765
0.000468996
0.000437759
0.000365877
0.000290798
0.000214423
0.000157851
)
;
    }
    heatsource1
    {
        Cmu             0.09;
        kappa           0.41;
        E               9.8;
        type            epsilonWallFunction;
        value           nonuniform List<scalar> 3(3.02632e-05 2.99533e-05 2.92372e-05);
    }
    heatsource2
    {
        Cmu             0.09;
        kappa           0.41;
        E               9.8;
        type            epsilonWallFunction;
        value           nonuniform List<scalar> 4(0.000159866 9.62128e-05 9.62128e-05 0.000135809);
    }
    Table_master
    {
        Cmu             0.09;
        kappa           0.41;
        E               9.8;
        type            epsilonWallFunction;
        value           nonuniform List<scalar> 9(0.000182515 0.000122131 8.46547e-05 6.09574e-05 4.54899e-05 3.50545e-05 2.78801e-05 2.29484e-05 1.97502e-05);
    }
    Table_slave
    {
        Cmu             0.09;
        kappa           0.41;
        E               9.8;
        type            epsilonWallFunction;
        value           nonuniform List<scalar> 9(0.000245033 0.000184834 0.000147509 0.000121721 0.000102157 8.63826e-05 7.24828e-05 5.94811e-05 4.66047e-05);
    }
    inlet
    {
        type            turbulentMixingLengthDissipationRateInlet;
        mixingLength    0.01;
        phi             phi;
        k               k;
        value           uniform 0.000101881;
    }
    outlet
    {
        type            zeroGradient;
    }
}


// ************************************************************************* //
