/*--------------------------------*- C++ -*----------------------------------*\
  =========                 |
  \\      /  F ield         | OpenFOAM: The Open Source CFD Toolbox
   \\    /   O peration     | Website:  https://openfoam.org
    \\  /    A nd           | Version:  6
     \\/     M anipulation  |
\*---------------------------------------------------------------------------*/
FoamFile
{
    version     2.0;
    format      ascii;
    class       surfaceScalarField;
    location    "420";
    object      phi;
}
// * * * * * * * * * * * * * * * * * * * * * * * * * * * * * * * * * * * * * //

dimensions      [1 0 -1 0 0 0 0];

internalField   nonuniform List<scalar> 
852
(
-0.00161087
0.00162265
-0.00238108
0.000770206
-0.00287466
0.00049357
-0.00312838
0.000253718
-0.00311756
-1.08291e-05
-0.00280374
-0.000313826
-0.00217267
-0.000631081
-0.00126959
-0.000903084
-0.00022878
-0.00104082
0.000646183
-0.000874981
0.00123668
-0.000590514
0.00154095
-0.000304288
0.0015315
9.4351e-06
0.00112611
0.000405376
0.00112456
-0.000110172
0.0001077
-0.000143338
3.31301e-05
0.000204956
-0.000348327
0.000651324
-0.000446399
0.00103444
-0.000383146
0.00131343
-0.000279022
0.00146743
-0.000154038
0.00153515
-6.77546e-05
0.00156976
-3.46409e-05
0.00159011
-2.03828e-05
0.00160016
-1.00861e-05
0.00160045
-3.21247e-07
0.00158721
1.32044e-05
0.00154763
3.95387e-05
0.00145123
9.63608e-05
0.00124478
0.000206412
0.00087995
0.000364794
0.000283949
0.000595959
0.000280606
-0.00121979
0.00287588
-0.00188849
0.0014389
-0.00236401
0.000969082
-0.00262104
0.000510744
-0.00262594
-5.9315e-06
-0.00234904
-0.000590735
-0.00179765
-0.00118248
-0.00105601
-0.00164472
-0.000277249
-0.0018196
0.000419436
-0.00157169
0.000944581
-0.00111568
0.00126957
-0.000629296
0.00141468
-0.000135694
0.00146679
0.000353251
0.00176823
0.000823097
0.000902991
0.000865173
0.000902921
-6.39097e-05
0.000165947
0.000379993
-0.000410805
0.00072452
-0.000692884
0.00101906
-0.00074097
0.00126679
-0.000630901
0.00144311
-0.000455379
0.00148303
-0.000193982
0.00149171
-7.64714e-05
0.0015004
-4.33565e-05
0.00150764
-2.76628e-05
0.00151261
-1.50917e-05
0.00151534
-3.08088e-06
0.00151464
1.38694e-05
0.00150589
4.82555e-05
0.00145819
0.000144024
0.00126846
0.000396105
0.00094663
0.000686581
0.000539179
0.00100337
0.000810626
-0.000905307
0.00383447
-0.00144071
0.0019743
-0.0018565
0.00138487
-0.00209046
0.000744699
-0.00210289
6.48974e-06
-0.0018481
-0.000845531
-0.0013585
-0.00167209
-0.000740004
-0.00226322
-0.000130814
-0.0024288
0.000408855
-0.00211137
0.00083958
-0.00154642
0.001132
-0.000921742
0.00130784
-0.000311547
0.00140306
0.000258006
0.00143648
0.000789662
0.00108742
0.00121421
0.00199033
0.000422352
-0.000265178
0.000891428
-0.000879909
0.00118792
-0.000989399
0.00135488
-0.000907955
0.00147736
-0.000753413
0.00162002
-0.00059807
0.00142616
0.00134982
0.00130658
0.00127904
0.00126407
0.00126111
0.0012751
0.00132348
0.00146762
0.00125345
0.000610239
0.00101676
0.000923225
0.000686017
0.00133407
0.00148207
-0.000661782
0.00456775
-0.00103913
0.00235164
-0.00132746
0.00167318
-0.00149754
0.000914775
-0.00147722
-1.3833e-05
-0.00121132
-0.00111144
-0.000779703
-0.00210371
-0.000294486
-0.00274845
0.000143425
-0.00286673
0.000530671
-0.00249864
0.000844118
-0.0018599
0.00106461
-0.00114226
0.00121136
-0.000458323
0.00132167
0.00014768
0.00144721
0.000664094
0.00164164
0.00101977
0.00245687
0.00117507
0.0020647
0.000383486
0.0021093
-0.000309796
0.00188024
-0.000650874
0.00170759
-0.000816768
0.00159717
-0.000797561
0.0015206
-0.000676871
0.00140906
-0.000486564
0.00160796
-0.000199086
0.00169243
-8.46602e-05
0.00173486
-4.26233e-05
0.001752
-1.73233e-05
0.00174181
9.99631e-06
0.00169585
4.57687e-05
0.00159829
9.73697e-05
0.00142072
0.000177372
0.0011098
0.000310723
0.00109592
0.000624085
0.0010257
0.000993399
0.000913847
0.00144588
0.00237665
-0.000479169
0.00513499
-0.000701462
0.00257393
-0.000776041
0.00174775
-0.000817384
0.000956112
-0.000680225
-0.000150998
-0.000378133
-0.00141353
-2.98921e-05
-0.00245195
0.000276373
-0.00305471
0.000522368
-0.00311274
0.000730939
-0.00270724
0.000889588
-0.00201857
0.000994435
-0.00124714
0.00107204
-0.000535958
0.00116891
5.07821e-05
0.00133824
0.000494748
0.00160542
0.000752562
0.00199454
0.000785931
0.00208169
0.000296314
0.00196333
-0.000191456
0.00179034
-0.000477902
0.00158522
-0.000611676
0.00140088
-0.00061325
0.00124853
-0.000524559
0.0011383
-0.000376367
0.00113876
-0.00019958
0.00114427
-9.02123e-05
0.00114369
-4.2085e-05
0.00114356
-1.72381e-05
0.00114407
9.45042e-06
0.00113844
5.13548e-05
0.00111605
0.000119715
0.0010678
0.000225575
0.00100415
0.000374334
0.00102256
0.000605628
0.00115862
0.000857297
0.00160747
0.000996996
0.00262664
0.00135743
0.00169903
0.000927366
0.001047
0.00065178
0.00107656
-0.000397447
0.00563542
-0.000466341
0.00264281
-0.000221631
0.00150303
2.09989e-05
0.000713474
0.000338318
-0.000468323
0.000641854
-0.00171707
0.000850965
-0.00266106
0.000947248
-0.003151
0.000975055
-0.00314056
0.000958945
-0.00269115
0.000912154
-0.00197182
0.000852784
-0.0011878
0.00081545
-0.000498657
0.0008448
2.14035e-05
0.000969178
0.000370345
0.00117946
0.000542252
0.00145104
0.000514334
0.00154103
0.000206299
0.00145773
-0.000108181
0.00129915
-0.000319346
0.00110364
-0.000416204
0.00090899
-0.000418635
0.000739454
-0.000355063
0.00061493
-0.000251885
0.000554718
-0.000139412
0.000533707
-6.92457e-05
0.000533794
-4.22185e-05
0.000551688
-3.51783e-05
0.00058723
-2.61386e-05
0.000634756
3.78157e-06
0.000686876
6.7547e-05
0.000741512
0.000170891
0.000805183
0.000310616
0.00092242
0.000488344
0.00111523
0.000664442
0.00135567
0.000756511
0.00166515
0.00104791
0.00149465
0.00109783
0.000909938
0.00123645
0.00201734
-0.000361094
0.00611338
-0.000142681
0.00242439
0.00054833
0.000812015
0.00111244
0.000149354
0.00155891
-0.000914795
0.00180149
-0.00195965
0.00183273
-0.00269229
0.00168752
-0.0030058
0.00143323
-0.00288628
0.00113064
-0.0023886
0.000828279
-0.00166949
0.000570474
-0.000930041
0.000400157
-0.000328377
0.000358342
6.31865e-05
0.000441038
0.000287621
0.000603908
0.000379355
0.000783219
0.000334996
0.000839734
0.000149754
0.000773186
-4.16663e-05
0.000629755
-0.000175952
0.000449061
-0.00023555
0.00026455
-0.000234168
0.000102826
-0.000193385
-1.48701e-05
-0.000134237
-7.56135e-05
-7.87187e-05
-9.24102e-05
-5.24996e-05
-8.15383e-05
-5.31417e-05
-4.92411e-05
-6.75275e-05
6.2306e-06
-8.16628e-05
9.11922e-05
-8.12323e-05
0.000206754
-4.80677e-05
0.00034382
3.37728e-05
0.000496697
0.000157687
0.000679108
0.000305883
0.00088587
0.000457632
0.00106691
0.000575426
0.00130325
0.000811518
0.00145448
0.000946549
0.00130243
0.00138845
0.00335201
0.0012951
0.0049501
0.00180511
0.00191438
0.0022791
0.000338013
0.00288028
-0.00045183
0.00321467
-0.00124919
0.00321025
-0.00195522
0.00290544
-0.00238747
0.00238221
-0.00248257
0.00174832
-0.00225242
0.00109682
-0.00173713
0.000516513
-0.00108924
7.64755e-05
-0.000490053
-0.000167577
-8.43665e-05
-0.000231865
0.000127439
-0.000174769
0.000230492
-6.00955e-05
0.000264649
4.6307e-05
0.000228558
6.743e-05
0.000128593
-2.30353e-07
2.59518e-05
-0.000129929
-4.62991e-05
-0.000287099
-7.84287e-05
-0.000440902
-8.04166e-05
-0.000568815
-6.55245e-05
-0.000656541
-4.65638e-05
-0.000699816
-3.54991e-05
-0.000710732
-4.16388e-05
-0.000700893
-6.30368e-05
-0.000676384
-9.20924e-05
-0.000638276
-0.000119828
-0.000580763
-0.000138801
-0.000486654
-0.000142233
-0.000334646
-0.00011829
-0.000132145
-4.48675e-05
9.74666e-05
7.62181e-05
0.000322743
0.000232304
0.000491824
0.000406296
0.000683664
0.000619631
0.000846366
0.0007838
0.000453463
0.00178131
0.00392908
0.00508145
0.00698218
0.00649601
0.000824173
0.00611708
-7.28898e-05
0.00559023
-0.000722324
0.00479965
-0.00116463
0.00379191
-0.00137974
0.00267793
-0.00136859
0.00158487
-0.00115939
0.000583297
-0.000735616
-0.000182593
-0.00032341
-0.000641031
-3.16667e-05
-0.000832889
0.000107445
-0.00087243
0.000166937
-0.000836851
0.000194872
-0.000774543
0.000202298
-0.000729217
0.000183187
-0.000738702
0.00013803
-0.000801717
8.89154e-05
-0.000900163
5.20925e-05
-0.00101123
3.2587e-05
-0.00111563
2.39218e-05
-0.00119972
1.85072e-05
-0.00125756
1.12186e-05
-0.00129167
-1.44939e-06
-0.00131195
-2.14166e-05
-0.00132781
-4.72417e-05
-0.00134747
-7.24825e-05
-0.00138078
-8.65827e-05
-0.00143813
-8.15011e-05
-0.00152854
-5.18793e-05
-0.00166048
1.35947e-05
-0.00183561
0.000130213
-0.00207193
0.000312485
-0.00242078
0.000581103
-0.00297368
0.000959149
-0.00382532
0.00147123
-0.0050288
0.00198723
-0.00516672
0.00191918
-0.00110608
0.00610554
0.00120172
0.00546543
0.000567216
0.00465454
8.85626e-05
0.00362375
-0.000133854
0.00244076
-0.000196771
0.00122937
-0.000157248
8.79065e-05
-1.79793e-05
-0.000783785
0.000135998
-0.00126601
0.000158753
-0.00146914
0.000171408
-0.00152771
0.000165963
-0.00152451
0.000163682
-0.00149601
0.000166322
-0.00146292
0.00016916
-0.00144384
0.00016405
-0.00145311
0.000147237
-0.00148878
0.000124528
-0.0015396
0.00010286
-0.00159263
8.55555e-05
-0.00164018
7.14094e-05
-0.00167994
5.81985e-05
-0.0017131
4.43237e-05
-0.00174342
2.88038e-05
-0.00177563
1.0733e-05
-0.00181532
-7.61131e-06
-0.00186524
-2.26172e-05
-0.00192559
-2.62888e-05
-0.00199587
-1.12787e-05
-0.0020752
2.73928e-05
-0.0021607
9.90477e-05
-0.00224412
0.000213578
-0.002325
0.000393319
-0.00239476
0.000650808
-0.00243597
0.00100031
-0.0024122
0.0014474
-0.0021799
0.00175489
-0.000907385
0.000646618
-0.00198286
-0.000355419
0.00154768
-0.000491482
0.000703207
-0.000769012
0.000366025
-0.00108433
0.000181403
-0.00141924
0.000138076
-0.00173745
0.000160906
-0.00195554
0.000200038
-0.00205046
0.000230859
-0.00210001
0.000208236
-0.00210362
0.000174958
-0.00208282
0.000145111
-0.00204698
0.000127785
-0.00200213
0.000121409
-0.00195378
0.000120746
-0.00190927
0.000119488
-0.00187561
0.000113508
-0.00185436
0.000103216
-0.00184256
9.09925e-05
-0.00183587
7.88039e-05
-0.00183175
6.7226e-05
-0.00182997
5.63541e-05
-0.00183203
4.63212e-05
-0.00184062
3.73345e-05
-0.00185957
2.96169e-05
-0.00189248
2.52429e-05
-0.00194139
2.62354e-05
-0.0020008
3.30572e-05
-0.00205946
4.73305e-05
-0.00210681
7.46858e-05
-0.00212785
0.000120036
-0.00210119
0.000186861
-0.0019934
0.000285479
-0.00176794
0.000425301
-0.00136083
0.000593143
-0.000612228
0.000698756
0.000552143
0.000590466
0.00131751
-0.0001188
-0.000633813
-0.00531489
-0.00634517
-0.00481382
-0.00412763
-0.00378107
-0.00362168
-0.00350781
-0.00337313
-0.00320129
-0.00300044
-0.00282358
-0.00268083
-0.00256837
-0.00247345
-0.00238499
-0.00229724
-0.00221076
-0.0021303
-0.00206016
-0.00200227
-0.00195655
-0.00192238
-0.00189901
-0.00188561
-0.00188114
-0.00188439
-0.00189211
-0.00189904
-0.00189951
-0.00188622
-0.00184623
-0.00176165
-0.00161101
-0.00136249
-0.00097475
-0.000419649
0.000240579
0.000791833
0.00063402
)
;

boundaryField
{
    floor
    {
        type            calculated;
        value           nonuniform List<scalar> 
29
(
0
0
0
0
0
0
0
0
0
0
0
0
0
0
0
0
0
0
0
0
3.29792e-06
9.11483e-06
1.45292e-05
1.92215e-05
1.53377e-06
2.43015e-06
5.62254e-06
8.73851e-06
8.66293e-06
)
;
    }
    ceiling
    {
        type            calculated;
        value           nonuniform List<scalar> 
43
(
1.83359e-05
1.72113e-05
1.62485e-05
1.69373e-05
1.93912e-05
2.19463e-05
2.41476e-05
2.6162e-05
2.81321e-05
2.99415e-05
3.1315e-05
3.21432e-05
3.25825e-05
3.27947e-05
3.28868e-05
3.29241e-05
3.2948e-05
3.29783e-05
3.30115e-05
3.30315e-05
3.3024e-05
3.2985e-05
3.29223e-05
3.28535e-05
3.28047e-05
3.28088e-05
3.28987e-05
3.31074e-05
3.34654e-05
3.39843e-05
3.4642e-05
3.53928e-05
3.6173e-05
3.69007e-05
3.75081e-05
3.79897e-05
3.84749e-05
3.91593e-05
3.89579e-05
4.01053e-05
1.60796e-05
1.36425e-05
9.41118e-06
)
;
    }
    sWall
    {
        type            calculated;
        value           uniform -4.11775e-05;
    }
    nWall
    {
        type            calculated;
        value           nonuniform List<scalar> 6(-2.98189e-05 -3.08845e-05 -3.22802e-05 -3.06558e-05 -3.15914e-05 -3.99536e-05);
    }
    sideWalls
    {
        type            empty;
        value           nonuniform 0();
    }
    glass1
    {
        type            calculated;
        value           nonuniform List<scalar> 9(-1.17888e-05 -3.34593e-05 -5.32922e-05 -7.15008e-05 -8.80817e-05 -0.000102988 -0.000116873 -0.000131834 -0.000147435);
    }
    glass2
    {
        type            calculated;
        value           nonuniform List<scalar> 2(-0.000123656 -0.000131607);
    }
    sun
    {
        type            calculated;
        value           uniform 0;
    }
    heatsource1
    {
        type            calculated;
        value           nonuniform List<scalar> 3(2.06082e-07 2.06478e-07 2.06736e-07);
    }
    heatsource2
    {
        type            calculated;
        value           nonuniform List<scalar> 4(5.17183e-08 5.1836e-08 0 0);
    }
    Table_master
    {
        type            calculated;
        value           nonuniform List<scalar> 9(-1.54909e-07 -1.55028e-07 -1.5506e-07 -1.55077e-07 -1.55087e-07 -1.55091e-07 -1.55085e-07 -1.55067e-07 -1.55016e-07);
    }
    Table_slave
    {
        type            calculated;
        value           nonuniform List<scalar> 9(1.54767e-07 1.54787e-07 1.54763e-07 1.54747e-07 1.54739e-07 1.54735e-07 1.54746e-07 1.54777e-07 1.54838e-07);
    }
    inlet
    {
        type            calculated;
        value           uniform -0.00648308;
    }
    outlet
    {
        type            calculated;
        value           nonuniform List<scalar> 2(0.00533765 0.00101299);
    }
}


// ************************************************************************* //
