/*--------------------------------*- C++ -*----------------------------------*\
  =========                 |
  \\      /  F ield         | OpenFOAM: The Open Source CFD Toolbox
   \\    /   O peration     | Website:  https://openfoam.org
    \\  /    A nd           | Version:  6
     \\/     M anipulation  |
\*---------------------------------------------------------------------------*/
FoamFile
{
    version     2.0;
    format      ascii;
    class       volScalarField;
    location    "2100";
    object      T;
}
// * * * * * * * * * * * * * * * * * * * * * * * * * * * * * * * * * * * * * //

dimensions      [0 0 0 1 0 0 0];

internalField   nonuniform List<scalar> 
459
(
303.372
303.114
303.101
303.098
303.094
303.09
303.086
303.079
303.069
303.058
303.049
303.043
303.043
303.05
303.077
303.207
303.183
303.174
303.181
303.189
303.197
303.204
303.211
303.218
303.224
303.231
303.238
303.245
303.252
303.26
303.268
303.277
303.288
303.315
303.542
303.155
303.132
303.134
303.136
303.136
303.132
303.119
303.098
303.073
303.051
303.036
303.032
303.035
303.042
303.041
303.04
303.21
303.159
303.155
303.163
303.175
303.186
303.191
303.196
303.201
303.205
303.21
303.215
303.22
303.225
303.231
303.239
303.25
303.265
303.302
303.722
303.206
303.168
303.179
303.192
303.201
303.201
303.181
303.143
303.098
303.059
303.034
303.026
303.029
303.035
303.039
303.04
303.148
303.137
303.144
303.162
303.182
303.199
303.2
303.203
303.205
303.208
303.212
303.216
303.22
303.224
303.229
303.237
303.246
303.26
303.298
303.905
303.269
303.208
303.227
303.257
303.282
303.291
303.26
303.195
303.123
303.065
303.029
303.02
303.025
303.036
303.045
303.049
303.061
303.083
303.113
303.146
303.181
303.212
303.238
303.259
303.278
303.294
303.309
303.321
303.333
303.343
303.352
303.359
303.321
303.29
303.277
303.302
304.085
303.349
303.254
303.273
303.32
303.37
303.383
303.332
303.233
303.136
303.062
303.021
303.012
303.023
303.042
303.061
303.078
303.1
303.129
303.164
303.202
303.24
303.274
303.303
303.33
303.353
303.372
303.387
303.399
303.406
303.409
303.408
303.401
303.373
303.333
303.301
303.306
303.413
303.473
303.475
304.249
303.453
303.329
303.332
303.389
303.457
303.446
303.362
303.242
303.126
303.043
303.002
302.999
303.023
303.059
303.093
303.125
303.159
303.196
303.237
303.277
303.316
303.349
303.378
303.402
303.423
303.44
303.453
303.462
303.464
303.461
303.453
303.439
303.412
303.373
303.333
303.319
303.364
303.39
303.429
304.403
303.618
303.495
303.488
303.533
303.551
303.476
303.34
303.19
303.065
302.989
302.965
302.986
303.035
303.094
303.15
303.199
303.243
303.285
303.326
303.365
303.399
303.428
303.452
303.472
303.489
303.501
303.51
303.514
303.512
303.503
303.49
303.472
303.446
303.411
303.373
303.351
303.362
303.376
303.408
304.621
304.036
303.901
303.847
303.783
303.63
303.419
303.204
303.031
302.926
302.894
302.922
302.988
303.077
303.168
303.243
303.302
303.349
303.388
303.422
303.453
303.479
303.501
303.519
303.532
303.542
303.549
303.552
303.551
303.545
303.536
303.521
303.504
303.48
303.453
303.425
303.412
303.425
303.444
303.56
304.936
304.657
304.412
304.16
303.754
303.315
302.969
302.758
302.677
302.702
302.799
302.924
303.055
303.192
303.304
303.372
303.416
303.452
303.482
303.508
303.529
303.547
303.561
303.572
303.578
303.581
303.582
303.579
303.574
303.567
303.561
303.556
303.553
303.555
303.563
303.581
303.61
303.641
303.661
303.714
296.023
297.291
298.761
300.01
300.957
301.677
302.214
302.621
302.948
303.156
303.283
303.371
303.434
303.478
303.51
303.536
303.558
303.576
303.59
303.6
303.606
303.61
303.61
303.609
303.606
303.603
303.6
303.596
303.594
303.592
303.592
303.597
303.607
303.623
303.646
303.672
303.698
303.732
296.697
298.458
300.29
301.398
302.081
302.544
302.866
303.09
303.253
303.367
303.442
303.494
303.532
303.56
303.582
303.599
303.613
303.623
303.63
303.634
303.635
303.635
303.633
303.631
303.628
303.625
303.622
303.62
303.617
303.616
303.616
303.618
303.625
303.635
303.65
303.672
303.679
303.713
299.859
299.781
299.775
301.713
302.522
302.876
303.08
303.23
303.343
303.427
303.491
303.537
303.57
303.593
303.61
303.623
303.632
303.638
303.642
303.644
303.645
303.644
303.643
303.642
303.64
303.638
303.637
303.635
303.633
303.632
303.63
303.629
303.629
303.629
303.632
303.639
303.648
303.656
303.662
303.706
)
;

boundaryField
{
    floor
    {
        type            wallHeatTransfer;
        Tinf            uniform 305.2;
        alphaWall       uniform 0.24;
        value           nonuniform List<scalar> 
29
(
303.313
303.567
303.507
303.468
303.466
303.476
303.49
303.51
303.531
303.553
303.574
303.594
303.614
303.633
303.652
303.67
303.689
303.71
303.732
303.779
303.779
303.713
303.679
303.66
303.313
303.567
303.566
303.392
303.24
)
;
    }
    ceiling
    {
        type            wallHeatTransfer;
        Tinf            uniform 303.2;
        alphaWall       uniform 0.24;
        value           nonuniform List<scalar> 
43
(
300.095
300.011
299.999
301.804
302.565
302.897
303.088
303.228
303.332
303.409
303.465
303.505
303.531
303.55
303.563
303.572
303.578
303.582
303.584
303.584
303.583
303.582
303.58
303.578
303.576
303.575
303.574
303.573
303.573
303.574
303.574
303.576
303.577
303.58
303.585
303.594
303.602
303.609
303.612
303.648
304.856
304.599
297.119
)
;
    }
    sWall
    {
        type            wallHeatTransfer;
        Tinf            uniform 315.2;
        alphaWall       uniform 0.36;
        value           uniform 301.435;
    }
    nWall
    {
        type            wallHeatTransfer;
        Tinf            uniform 307.2;
        alphaWall       uniform 0.36;
        value           nonuniform List<scalar> 6(304.173 304.114 304.028 304.23 304.207 304.274);
    }
    sideWalls
    {
        type            empty;
    }
    glass1
    {
        type            wallHeatTransfer;
        Tinf            uniform 315.2;
        alphaWall       uniform 4.3;
        value           nonuniform List<scalar> 9(311.343 310.724 310.338 310.047 309.805 309.585 309.426 309.504 309.735);
    }
    glass2
    {
        type            wallHeatTransfer;
        Tinf            uniform 307.2;
        alphaWall       uniform 4.3;
        value           nonuniform List<scalar> 2(305.817 305.921);
    }
    sun
    {
        type            wallHeatTransfer;
        Tinf            uniform 305.2;
        alphaWall       uniform 0.24;
        value           nonuniform List<scalar> 
14
(
303.557
303.311
303.296
303.285
303.276
303.267
303.257
303.246
303.235
303.225
303.219
303.219
303.229
303.254
)
;
    }
    heatsource1
    {
        type            fixedGradient;
        gradient        uniform 0;
    }
    heatsource2
    {
        type            fixedGradient;
        gradient        uniform 0;
    }
    Table_master
    {
        type            zeroGradient;
    }
    Table_slave
    {
        type            zeroGradient;
    }
    inlet
    {
        type            fixedValue;
        value           uniform 293.15;
    }
    outlet
    {
        type            zeroGradient;
    }
}


// ************************************************************************* //
