/*--------------------------------*- C++ -*----------------------------------*\
  =========                 |
  \\      /  F ield         | OpenFOAM: The Open Source CFD Toolbox
   \\    /   O peration     | Website:  https://openfoam.org
    \\  /    A nd           | Version:  6
     \\/     M anipulation  |
\*---------------------------------------------------------------------------*/
FoamFile
{
    version     2.0;
    format      ascii;
    class       volScalarField;
    location    "1000";
    object      alphat;
}
// * * * * * * * * * * * * * * * * * * * * * * * * * * * * * * * * * * * * * //

dimensions      [1 -1 -1 0 0 0 0];

internalField   nonuniform List<scalar> 
459
(
0.000811049
0.000842232
0.000796876
0.000827318
0.000858611
0.000888437
0.000917184
0.000945704
0.00097524
0.00100318
0.00102604
0.00104139
0.00104637
0.00103769
0.00100869
0.000447974
0.000507571
0.000436037
0.000385197
0.000334278
0.000293581
0.000279268
0.000278237
0.000278705
0.000275645
0.000268437
0.000265086
0.000275721
0.000313145
0.000387943
0.000504656
0.000612433
0.000663264
0.000541401
0.00133931
0.00234682
0.00191267
0.00250052
0.00275697
0.0030087
0.00325871
0.00348829
0.00366996
0.0038121
0.00389506
0.0038744
0.00367602
0.0031798
0.00225072
0.00104734
0.000747761
0.000654713
0.00212918
0.00182159
0.00149626
0.00116331
0.000868857
0.000757844
0.000785302
0.000813751
0.000745664
0.000612969
0.000484637
0.000418092
0.000502846
0.000799345
0.00122426
0.00145537
0.00127895
0.000596813
0.0018222
0.00384138
0.00200897
0.0035547
0.00409164
0.00438128
0.00461938
0.00481636
0.00496858
0.0050866
0.00514743
0.00510232
0.00487017
0.00433459
0.0033967
0.00216242
0.00104513
0.000867041
0.00257823
0.00218874
0.00173256
0.00137126
0.00105161
0.000407149
0.00033355
0.000313995
0.000296964
0.000281537
0.000264983
0.000261995
0.000369129
0.000631716
0.00163682
0.0019988
0.00175675
0.000823387
0.00229799
0.00588026
0.00222844
0.00371474
0.00475862
0.00509405
0.00531946
0.00550719
0.00566529
0.00579836
0.00591869
0.00599056
0.00593212
0.00560774
0.0048493
0.00356805
0.0020338
0.00106472
0.00187294
0.00238772
0.00196348
0.00160291
0.00136718
0.00110926
0.000885925
0.000917758
0.000959168
0.00100772
0.00106195
0.00112092
0.0011897
0.00122507
0.00123757
0.00181297
0.0020983
0.00229773
0.00104505
0.00275605
0.00825011
0.00317396
0.00332042
0.00484282
0.00532167
0.00556763
0.00576542
0.00594312
0.00611329
0.00633406
0.00662101
0.0069186
0.00712058
0.00708815
0.00670356
0.00595147
0.0049353
0.00393982
0.00372099
0.00359459
0.00359592
0.00358633
0.0036038
0.00365789
0.00379327
0.00398473
0.00421721
0.00446468
0.00469287
0.00486432
0.00490816
0.00480318
0.00459237
0.00427089
0.00368155
0.00250261
0.00109045
0.000949909
0.00101997
0.00319849
0.0105294
0.00538812
0.0033392
0.00418107
0.00491564
0.00533576
0.00561956
0.00580604
0.00593218
0.0061723
0.00657713
0.00711259
0.0076934
0.00817212
0.00837244
0.00815489
0.00751607
0.00665486
0.00587271
0.00535289
0.00502387
0.00483155
0.0047198
0.00466408
0.00468202
0.00478683
0.00496268
0.00516885
0.00534885
0.00545059
0.00543771
0.00529593
0.00506677
0.00485517
0.00453104
0.00384391
0.00279158
0.00219798
0.00111246
0.00360491
0.0122107
0.00884397
0.00537565
0.00390659
0.00394344
0.00451276
0.00506912
0.00544249
0.00549357
0.00567377
0.00601121
0.00652747
0.00721496
0.00796632
0.00858192
0.00884976
0.00866487
0.00811346
0.00742533
0.00679746
0.00628991
0.00589334
0.0055771
0.00533058
0.0051837
0.00516621
0.00527021
0.0054413
0.00558638
0.00561769
0.00549944
0.00527438
0.00504157
0.00491867
0.00491843
0.00461021
0.00389311
0.00328618
0.0013299
0.00367665
0.0117042
0.0100389
0.00855269
0.00651296
0.00522782
0.00482799
0.00492188
0.0051819
0.00526816
0.00534418
0.00548327
0.00573822
0.00616988
0.00680505
0.00755114
0.00818312
0.00848543
0.0084079
0.00807531
0.0076544
0.00723246
0.0068272
0.00643987
0.00608085
0.00580212
0.00566795
0.00570436
0.00586536
0.00601337
0.00599978
0.00575024
0.00531761
0.00484014
0.00443576
0.00410734
0.00372368
0.00319766
0.00271296
0.00137751
0.00355589
0.00419912
0.0065039
0.00711471
0.00681331
0.00620562
0.00567903
0.00533475
0.00515605
0.00505521
0.00502784
0.00505168
0.00512938
0.00529155
0.00558968
0.00605444
0.00662273
0.00713382
0.00744747
0.00754118
0.00748006
0.00733328
0.00713668
0.00689555
0.00661363
0.00633454
0.00614507
0.00614029
0.00635121
0.00662168
0.00673347
0.00650555
0.00591662
0.00510898
0.00426132
0.00351667
0.0029496
0.00258574
0.00239698
0.00163644
0.0116354
0.0133319
0.00919291
0.00757517
0.00664709
0.00604453
0.0056378
0.00534642
0.00512389
0.00495871
0.00484743
0.0047967
0.00482578
0.00496257
0.00522203
0.00557115
0.00593151
0.00622011
0.00640313
0.00649267
0.00650887
0.0064626
0.006348
0.00619505
0.00606545
0.00605256
0.00626197
0.00672772
0.00732633
0.00777894
0.00798745
0.00807386
0.00805644
0.00773509
0.00699957
0.00608878
0.0052545
0.00174311
0.00563118
0.0125219
0.00946786
0.00785558
0.00687094
0.00618152
0.00567304
0.00529267
0.00500603
0.00476597
0.00458546
0.00447363
0.00443795
0.00448466
0.0046134
0.00478375
0.00496163
0.0051313
0.00528038
0.00540076
0.0054929
0.00556401
0.00562697
0.00569039
0.00576447
0.00586719
0.00602876
0.00628986
0.00666171
0.00707007
0.00739391
0.0075711
0.00755177
0.00727834
0.00668527
0.00561571
0.00489573
0.00163002
0.00230966
0.00334185
0.00435841
0.00355317
0.0034042
0.00306513
0.00273447
0.00245651
0.00222456
0.00202806
0.00186068
0.00172451
0.0016112
0.00151668
0.00143916
0.00137793
0.00133262
0.00130593
0.00129428
0.00129117
0.00129153
0.00129225
0.0012921
0.00129104
0.00129004
0.00128982
0.00129113
0.00129494
0.00130307
0.00131809
0.00134247
0.00137624
0.0014169
0.00146536
0.00152027
0.0015586
0.00153497
0.00147905
0.00143206
0.00129096
)
;

boundaryField
{
    floor
    {
        type            compressible::alphatWallFunction;
        Prt             0.85;
        value           nonuniform List<scalar> 
29
(
0.000143559
6.12472e-05
7.04467e-05
5.94124e-05
5.1429e-05
4.32835e-05
3.6645e-05
3.42755e-05
3.41021e-05
3.41791e-05
3.36747e-05
3.24775e-05
3.19116e-05
3.36583e-05
3.97738e-05
5.17496e-05
6.98917e-05
8.62153e-05
9.38377e-05
7.5578e-05
7.55771e-05
8.38673e-05
0.000117152
0.000148611
0.000143557
6.12464e-05
9.25616e-05
0.000123465
0.000151416
)
;
    }
    ceiling
    {
        type            compressible::alphatWallFunction;
        Prt             0.85;
        value           nonuniform List<scalar> 
43
(
0.000317373
0.000447046
0.000570697
0.000473052
0.000454762
0.000412776
0.000371364
0.000336144
0.000306428
0.000280994
0.000259118
0.000241162
0.000226101
0.000213447
0.000203002
0.000194709
0.000188543
0.000184899
0.000183304
0.000182876
0.000182922
0.000183018
0.000182993
0.000182846
0.000182705
0.000182671
0.000182844
0.000183355
0.000184454
0.000186488
0.000189788
0.000194355
0.000199844
0.00020638
0.00021378
0.000218946
0.000215781
0.000208274
0.000201945
0.000182778
0.00047347
0.000551653
0.000721554
)
;
    }
    sWall
    {
        type            compressible::alphatWallFunction;
        Prt             0.85;
        value           uniform 0.000316313;
    }
    nWall
    {
        type            compressible::alphatWallFunction;
        Prt             0.85;
        value           nonuniform List<scalar> 6(0.00014492 0.000157829 0.000187779 0.000243187 0.000228183 0.000182449);
    }
    sideWalls
    {
        type            empty;
    }
    glass1
    {
        type            compressible::alphatWallFunction;
        Prt             0.85;
        value           nonuniform List<scalar> 9(0.000112356 0.000185119 0.00024897 0.000310219 0.000368008 0.000422939 0.000472752 0.000481612 0.000467111);
    }
    glass2
    {
        type            compressible::alphatWallFunction;
        Prt             0.85;
        value           nonuniform List<scalar> 2(0.000193161 0.000227782);
    }
    sun
    {
        type            compressible::alphatWallFunction;
        Prt             0.85;
        value           nonuniform List<scalar> 
14
(
0.000115426
0.000119899
0.000113362
0.000117756
0.000122251
0.000126518
0.000130615
0.000134664
0.000138842
0.000142781
0.000145994
0.000148147
0.000148846
0.00014763
)
;
    }
    heatsource1
    {
        type            compressible::alphatWallFunction;
        Prt             0.85;
        value           nonuniform List<scalar> 3(0.000155041 0.000135303 0.000145225);
    }
    heatsource2
    {
        type            compressible::alphatWallFunction;
        Prt             0.85;
        value           nonuniform List<scalar> 4(0.00014907 0.000106304 0.000106303 0.000148763);
    }
    Table_master
    {
        type            compressible::alphatWallFunction;
        Prt             0.85;
        value           nonuniform List<scalar> 9(5.49593e-05 4.32452e-05 4.00758e-05 3.72951e-05 3.47575e-05 3.20129e-05 3.1481e-05 4.88357e-05 8.91496e-05);
    }
    Table_slave
    {
        type            compressible::alphatWallFunction;
        Prt             0.85;
        value           nonuniform List<scalar> 9(0.0001262 0.000130736 0.00013661 0.000143461 0.00015107 0.000159297 0.00016882 0.000173692 0.000175403);
    }
    inlet
    {
        type            fixedValue;
        value           uniform 1.94e-05;
    }
    outlet
    {
        type            zeroGradient;
    }
}


// ************************************************************************* //
