/*--------------------------------*- C++ -*----------------------------------*\
  =========                 |
  \\      /  F ield         | OpenFOAM: The Open Source CFD Toolbox
   \\    /   O peration     | Website:  https://openfoam.org
    \\  /    A nd           | Version:  6
     \\/     M anipulation  |
\*---------------------------------------------------------------------------*/
FoamFile
{
    version     2.0;
    format      ascii;
    class       volScalarField;
    location    "1000";
    object      nut;
}
// * * * * * * * * * * * * * * * * * * * * * * * * * * * * * * * * * * * * * //

dimensions      [0 2 -1 0 0 0 0];

internalField   nonuniform List<scalar> 
459
(
0.00070054
0.000726764
0.000687592
0.000713847
0.000740837
0.000766558
0.000791348
0.000815939
0.000841406
0.000865487
0.000885176
0.000898375
0.000902621
0.000895071
0.000869992
0.000385903
0.00043724
0.000375591
0.000331736
0.000287803
0.000252699
0.000240347
0.000239445
0.000239839
0.0002372
0.000230994
0.00022811
0.000237267
0.000269488
0.000333898
0.000434428
0.00052726
0.000570964
0.000466027
0.00115768
0.00202554
0.00165066
0.00215798
0.00237933
0.00259658
0.00281234
0.00301044
0.00316717
0.00328974
0.00336115
0.00334305
0.00317151
0.00274298
0.00194119
0.000903164
0.000644809
0.000564038
0.00183445
0.00156946
0.00128909
0.0010021
0.000748208
0.000652418
0.000675986
0.000700422
0.000641775
0.000527547
0.000417089
0.000359825
0.000432812
0.000688179
0.00105428
0.0012532
0.00110111
0.000513764
0.00157618
0.0033164
0.00173411
0.00306845
0.00353208
0.00378226
0.0039879
0.00415801
0.0042894
0.0043912
0.00444343
0.004404
0.00420292
0.00373987
0.00292989
0.00186475
0.000901105
0.000747107
0.00222179
0.00188624
0.00149312
0.0011817
0.000906113
0.000350619
0.000287218
0.000270374
0.0002557
0.0002424
0.000228127
0.000225528
0.000317748
0.000543987
0.00141036
0.00172181
0.00151308
0.000709286
0.00198903
0.00507819
0.00192394
0.0032073
0.00410893
0.00439893
0.00459392
0.00475632
0.00489301
0.00500794
0.0051116
0.00517304
0.00512155
0.00484012
0.00418403
0.00307738
0.00175348
0.000917752
0.00161425
0.00205814
0.00169256
0.00138177
0.00117856
0.000956212
0.000763689
0.000791121
0.00082681
0.00086866
0.0009154
0.000966218
0.0010255
0.00105598
0.00106674
0.00156267
0.00180848
0.00198023
0.000900605
0.00238691
0.00712726
0.00274089
0.00286742
0.00418261
0.00459678
0.00480985
0.00498131
0.0051353
0.00528258
0.0054733
0.00572074
0.00597677
0.00614957
0.00611942
0.00578515
0.00513416
0.00425626
0.00339711
0.0032084
0.00309946
0.00310062
0.00309228
0.00310724
0.00315378
0.0032704
0.00343537
0.00363571
0.00384895
0.00404558
0.0041933
0.00423102
0.00414046
0.00395863
0.00368135
0.00317317
0.00215687
0.000939761
0.000818582
0.000879053
0.00277151
0.00909997
0.00465444
0.00288427
0.0036118
0.00424698
0.00461071
0.00485674
0.00501868
0.0051283
0.00533617
0.00568601
0.00614817
0.00664874
0.00706029
0.00723072
0.00704022
0.00648658
0.00574193
0.00506633
0.00461757
0.00433347
0.00416731
0.00407065
0.00402233
0.00403754
0.00412766
0.00427903
0.00445654
0.0046115
0.00469905
0.00468783
0.0045655
0.00436781
0.0041852
0.00390554
0.00331306
0.00240591
0.0018942
0.000958733
0.00312503
0.0105593
0.00764457
0.00464543
0.00337567
0.0034078
0.00390035
0.00438193
0.0047055
0.0047505
0.0049069
0.00519896
0.00564523
0.00623897
0.00688717
0.0074172
0.00764614
0.00748394
0.00700572
0.00641015
0.00586717
0.00542838
0.00508552
0.00481208
0.00459885
0.00447162
0.00445599
0.00454515
0.00469216
0.00481681
0.0048435
0.00474138
0.00454724
0.00434639
0.00424025
0.00423979
0.0039738
0.00335552
0.00283224
0.00114619
0.0031894
0.0101345
0.00868894
0.00739946
0.0056327
0.0045205
0.00417467
0.0042561
0.00448142
0.00455667
0.00462294
0.00474355
0.00496418
0.00533739
0.00588623
0.0065304
0.00707524
0.00733458
0.00726556
0.00697647
0.00661148
0.00624591
0.00589496
0.00555964
0.00524885
0.00500739
0.00489069
0.00492108
0.00505896
0.00518577
0.00517348
0.00495804
0.0045849
0.00417316
0.00382441
0.00354114
0.00321029
0.00275679
0.00233901
0.00118783
0.00308753
0.0036432
0.00563878
0.00616507
0.00590076
0.00537244
0.00491538
0.00461677
0.00446186
0.00437442
0.00435066
0.00437124
0.00443841
0.00457861
0.00483632
0.00523798
0.00572887
0.00616989
0.00643985
0.00651953
0.0064654
0.00633733
0.00616631
0.00595689
0.0057123
0.00547015
0.00530532
0.00529969
0.00548001
0.00571185
0.00580713
0.00560997
0.00510198
0.00440562
0.00367479
0.00303276
0.00254383
0.00223013
0.00206741
0.00141161
0.0100188
0.0115357
0.00795763
0.00655738
0.00575368
0.0052318
0.00487956
0.00462722
0.00443449
0.00429142
0.00419498
0.00415095
0.00417596
0.00429411
0.00451832
0.00481995
0.00513112
0.00538005
0.00553752
0.00561408
0.00562716
0.00558619
0.00548615
0.00535292
0.00523977
0.00522723
0.00540635
0.00580644
0.00632098
0.00670972
0.00688857
0.00696259
0.00694735
0.0066702
0.00603599
0.0052506
0.00453097
0.00150317
0.00485383
0.0108272
0.00819155
0.00679815
0.00594648
0.00534991
0.00490982
0.00458057
0.00433243
0.0041246
0.0039683
0.00387143
0.00384044
0.00388074
0.00399198
0.00413918
0.00429282
0.00443926
0.0045678
0.00467142
0.00475055
0.00481142
0.00486515
0.00491917
0.00498225
0.00506988
0.00520806
0.00543188
0.00575105
0.00610163
0.00637944
0.00653102
0.00651341
0.00627699
0.0057652
0.00484271
0.00422173
0.00140567
0.00199893
0.00288601
0.00375899
0.00307142
0.00294494
0.00265225
0.00236628
0.0021258
0.00192508
0.00175503
0.00161016
0.0014923
0.00139422
0.00131241
0.00124529
0.00119229
0.00115304
0.0011299
0.00111977
0.00111702
0.00111727
0.00111783
0.00111761
0.0011166
0.00111563
0.00111532
0.00111632
0.00111945
0.00112628
0.00113903
0.00115983
0.00118869
0.00122347
0.00126497
0.00131203
0.00134481
0.00132419
0.00127577
0.00123507
0.00111335
)
;

boundaryField
{
    floor
    {
        type            nutkWallFunction;
        Cmu             0.09;
        kappa           0.41;
        E               9.8;
        value           nonuniform List<scalar> 
29
(
0.000105307
4.49041e-05
5.16434e-05
4.35571e-05
3.77028e-05
3.17288e-05
2.6861e-05
2.5123e-05
2.4995e-05
2.50507e-05
2.46809e-05
2.38039e-05
2.33894e-05
2.4669e-05
2.91484e-05
3.79201e-05
5.12086e-05
6.31638e-05
6.87381e-05
5.53684e-05
5.53683e-05
6.14409e-05
8.58547e-05
0.000108934
0.000105307
4.4904e-05
6.78485e-05
9.05004e-05
0.000111008
)
;
    }
    ceiling
    {
        type            nutkWallFunction;
        Cmu             0.09;
        kappa           0.41;
        E               9.8;
        value           nonuniform List<scalar> 
43
(
0.0002334
0.000328115
0.000418357
0.00034752
0.000334328
0.000303525
0.000273084
0.000247183
0.000225327
0.000206618
0.000190525
0.000177316
0.000166236
0.000156927
0.000149242
0.000143138
0.0001386
0.000135915
0.000134737
0.000134416
0.000134444
0.000134506
0.000134479
0.00013436
0.000134246
0.000134207
0.00013432
0.000134678
0.000135464
0.000136934
0.000139328
0.000142648
0.00014664
0.0001514
0.000156793
0.00016055
0.000158204
0.000152679
0.000148021
0.000133967
0.000349312
0.000406708
0.00052864
)
;
    }
    sWall
    {
        type            nutkWallFunction;
        Cmu             0.09;
        kappa           0.41;
        E               9.8;
        value           uniform 0.000233455;
    }
    nWall
    {
        type            nutkWallFunction;
        Cmu             0.09;
        kappa           0.41;
        E               9.8;
        value           nonuniform List<scalar> 6(0.000106388 0.000115848 0.000137805 0.000178501 0.000167503 0.000133975);
    }
    sideWalls
    {
        type            empty;
    }
    glass1
    {
        type            nutkWallFunction;
        Cmu             0.09;
        kappa           0.41;
        E               9.8;
        value           nonuniform List<scalar> 9(8.47477e-05 0.000139244 0.00018693 0.000232598 0.000275644 0.000316533 0.000353597 0.000360309 0.000349715);
    }
    glass2
    {
        type            nutkWallFunction;
        Cmu             0.09;
        kappa           0.41;
        E               9.8;
        value           nonuniform List<scalar> 2(0.000142677 0.000168208);
    }
    sun
    {
        type            nutkWallFunction;
        Cmu             0.09;
        kappa           0.41;
        E               9.8;
        value           nonuniform List<scalar> 
14
(
8.47831e-05
8.79942e-05
8.31952e-05
8.64167e-05
8.97133e-05
9.28417e-05
9.58451e-05
9.88135e-05
0.000101877
0.000104763
0.000107116
0.000108691
0.000109197
0.000108299
)
;
    }
    heatsource1
    {
        type            nutkWallFunction;
        Cmu             0.09;
        kappa           0.41;
        E               9.8;
        value           nonuniform List<scalar> 3(0.000113572 9.91064e-05 0.000106385);
    }
    heatsource2
    {
        type            nutkWallFunction;
        Cmu             0.09;
        kappa           0.41;
        E               9.8;
        value           nonuniform List<scalar> 4(0.000109266 7.79171e-05 7.7917e-05 0.000109023);
    }
    Table_master
    {
        type            nutkWallFunction;
        Cmu             0.09;
        kappa           0.41;
        E               9.8;
        value           nonuniform List<scalar> 9(4.02297e-05 3.16528e-05 2.93324e-05 2.72962e-05 2.54373e-05 2.34265e-05 2.30345e-05 3.57326e-05 6.52544e-05);
    }
    Table_slave
    {
        type            nutkWallFunction;
        Cmu             0.09;
        kappa           0.41;
        E               9.8;
        value           nonuniform List<scalar> 9(9.24686e-05 9.57906e-05 0.000100094 0.000105113 0.000110687 0.000116714 0.00012369 0.000127259 0.000128511);
    }
    inlet
    {
        type            calculated;
        value           uniform 3.3541e-05;
    }
    outlet
    {
        type            calculated;
        value           nonuniform List<scalar> 2(0.00199893 0.00288601);
    }
}


// ************************************************************************* //
