// -*- C++ -*-
// File generated by PyFoam - sorry for the ugliness

FoamFile
{
 version 2.0;
 format ascii;
 class volScalarField;
 location "300";
 object T;
}

dimensions [ 0 0 0 1 0 0 0 ];

internalField nonuniform List<scalar> 459
(
  302.355
  302.088
  302.069
  302.06
  302.052
  302.043
  302.033
  302.024
  302.019
  302.019
  302.025
  302.042
  302.061
  302.086
  302.126
  302.523
  302.469
  302.435
  302.439
  302.458
  302.479
  302.498
  302.517
  302.537
  302.556
  302.575
  302.595
  302.615
  302.635
  302.656
  302.679
  302.704
  302.737
  302.796
  302.519
  302.126
  302.089
  302.079
  302.069
  302.054
  302.031
  302.01
  301.996
  301.99
  301.995
  302.008
  302.025
  302.048
  302.079
  302.089
  302.111
  302.541
  302.406
  302.379
  302.392
  302.42
  302.449
  302.469
  302.488
  302.506
  302.525
  302.544
  302.563
  302.583
  302.603
  302.625
  302.649
  302.679
  302.719
  302.789
  302.695
  302.185
  302.13
  302.122
  302.114
  302.085
  302.043
  302.006
  301.981
  301.972
  301.975
  301.988
  302.005
  302.024
  302.048
  302.067
  302.089
  302.418
  302.34
  302.332
  302.366
  302.416
  302.461
  302.473
  302.489
  302.506
  302.525
  302.545
  302.565
  302.587
  302.609
  302.631
  302.656
  302.684
  302.722
  302.792
  302.875
  302.268
  302.195
  302.188
  302.175
  302.118
  302.049
  301.998
  301.966
  301.954
  301.958
  301.973
  301.993
  302.014
  302.037
  302.058
  302.08
  302.097
  302.138
  302.203
  302.285
  302.374
  302.458
  302.526
  302.581
  302.625
  302.662
  302.697
  302.73
  302.76
  302.789
  302.816
  302.841
  302.79
  302.755
  302.753
  302.804
  303.05
  302.384
  302.296
  302.283
  302.215
  302.123
  302.038
  301.976
  301.941
  301.931
  301.942
  301.966
  301.995
  302.024
  302.052
  302.08
  302.108
  302.147
  302.208
  302.293
  302.39
  302.49
  302.58
  302.657
  302.724
  302.775
  302.818
  302.854
  302.883
  302.904
  302.919
  302.927
  302.925
  302.883
  302.824
  302.792
  302.817
  303.042
  303.177
  303.158
  303.269
  302.564
  302.463
  302.342
  302.199
  302.069
  301.973
  301.916
  301.895
  301.903
  301.933
  301.977
  302.026
  302.073
  302.119
  302.162
  302.208
  302.273
  302.357
  302.456
  302.56
  302.659
  302.746
  302.817
  302.877
  302.923
  302.96
  302.988
  303.008
  303.021
  303.025
  303.019
  303.002
  302.959
  302.894
  302.841
  302.838
  302.949
  303.013
  303.078
  303.495
  303.018
  302.585
  302.243
  302.015
  301.883
  301.822
  301.811
  301.836
  301.887
  301.957
  302.037
  302.121
  302.202
  302.266
  302.323
  302.388
  302.471
  302.567
  302.667
  302.765
  302.853
  302.927
  302.985
  303.03
  303.066
  303.09
  303.107
  303.117
  303.12
  303.115
  303.1
  303.074
  303.028
  302.966
  302.907
  302.883
  302.924
  302.964
  303.019
  301.972
  301.65
  301.271
  301.28
  301.371
  301.492
  301.614
  301.731
  301.847
  301.97
  302.099
  302.226
  302.332
  302.414
  302.48
  302.545
  302.62
  302.71
  302.808
  302.898
  302.978
  303.046
  303.099
  303.139
  303.168
  303.187
  303.2
  303.206
  303.206
  303.201
  303.188
  303.169
  303.142
  303.099
  303.046
  302.996
  302.975
  303.005
  303.045
  303.198
  299.61
  298.098
  297.72
  300.917
  301.6
  301.875
  302.013
  302.126
  302.221
  302.307
  302.401
  302.497
  302.582
  302.656
  302.724
  302.794
  302.871
  302.955
  303.038
  303.11
  303.167
  303.211
  303.244
  303.266
  303.28
  303.286
  303.288
  303.284
  303.276
  303.263
  303.248
  303.233
  303.22
  303.213
  303.217
  303.239
  303.281
  303.327
  303.354
  303.424
  296.516
  301.454
  302.178
  302.351
  302.426
  302.481
  302.544
  302.614
  302.691
  302.767
  302.839
  302.906
  302.971
  303.037
  303.105
  303.172
  303.233
  303.282
  303.318
  303.342
  303.357
  303.364
  303.366
  303.362
  303.356
  303.346
  303.335
  303.323
  303.311
  303.301
  303.295
  303.294
  303.304
  303.326
  303.364
  303.414
  303.473
  303.551
  301.887
  302.449
  302.646
  302.718
  302.759
  302.798
  302.847
  302.904
  302.965
  303.026
  303.085
  303.142
  303.197
  303.251
  303.301
  303.347
  303.384
  303.412
  303.429
  303.438
  303.441
  303.438
  303.432
  303.424
  303.414
  303.404
  303.392
  303.381
  303.37
  303.36
  303.353
  303.349
  303.353
  303.365
  303.389
  303.433
  303.469
  303.529
  302.78
  302.715
  302.709
  302.981
  303.043
  303.074
  303.102
  303.136
  303.176
  303.218
  303.262
  303.305
  303.345
  303.382
  303.415
  303.444
  303.468
  303.487
  303.5
  303.507
  303.51
  303.508
  303.504
  303.498
  303.49
  303.482
  303.472
  303.462
  303.451
  303.44
  303.429
  303.418
  303.409
  303.401
  303.396
  303.398
  303.413
  303.435
  303.457
  303.523
)
;

boundaryField
{
  floor
  {
    type wallHeatTransfer;
    Tinf uniform 305.2;
    alphaWall uniform 0.24;
    value nonuniform List<scalar> 29
(
  302.478
  302.938
  302.845
  302.775
  302.759
  302.775
  302.798
  302.83
  302.865
  302.9
  302.934
  302.967
  303
  303.032
  303.063
  303.094
  303.127
  303.163
  303.208
  303.287
  303.287
  303.243
  303.225
  303.219
  302.478
  302.938
  302.963
  302.757
  302.35
)
;
  }
  ceiling
  {
    type wallHeatTransfer;
    Tinf uniform 303.2;
    alphaWall uniform 0.24;
    value nonuniform List<scalar> 43
(
  302.811
  302.749
  302.742
  302.997
  303.055
  303.084
  303.11
  303.141
  303.178
  303.217
  303.257
  303.295
  303.331
  303.364
  303.393
  303.418
  303.438
  303.453
  303.463
  303.467
  303.467
  303.464
  303.46
  303.454
  303.447
  303.44
  303.432
  303.424
  303.416
  303.407
  303.399
  303.391
  303.383
  303.378
  303.375
  303.378
  303.392
  303.411
  303.429
  303.485
  299.758
  298.285
  301.957
)
;
  }
  sWall
  {
    type wallHeatTransfer;
    Tinf uniform 315.2;
    alphaWall uniform 0.36;
    value uniform 304.12;
  }
  nWall
  {
    type wallHeatTransfer;
    Tinf uniform 307.2;
    alphaWall uniform 0.36;
    value nonuniform List<scalar> 6
(
  303.908
  303.82
  303.717
  304.088
  304.062
  304.124
)
;
  }
  sideWalls
  {
    type empty;
  }
  glass1
  {
    type wallHeatTransfer;
    Tinf uniform 315.2;
    alphaWall uniform 4.3;
    value nonuniform List<scalar> 9
(
  310.531
  309.907
  309.511
  309.203
  308.961
  308.959
  309.104
  308.125
  306.473
)
;
  }
  glass2
  {
    type wallHeatTransfer;
    Tinf uniform 307.2;
    alphaWall uniform 4.3;
    value nonuniform List<scalar> 2
(
  305.684
  305.819
)
;
  }
  sun
  {
    type wallHeatTransfer;
    Tinf uniform 305.2;
    alphaWall uniform 0.24;
    value nonuniform List<scalar> 14
(
  302.604
  302.338
  302.313
  302.295
  302.278
  302.263
  302.25
  302.243
  302.243
  302.251
  302.269
  302.306
  302.346
  302.403
)
;
  }
  heatsource1
  {
    type fixedGradient;
    gradient uniform 0;
  }
  heatsource2
  {
    type fixedGradient;
    gradient uniform 0;
  }
  Table_master
  {
    type zeroGradient;
  }
  Table_slave
  {
    type zeroGradient;
  }
  inlet
  {
    type fixedValue;
    value uniform 293.15;
  }
  outlet
  {
    type zeroGradient;
  }
} 	// ************************************************************************* //

