/*--------------------------------*- C++ -*----------------------------------*\
  =========                 |
  \\      /  F ield         | OpenFOAM: The Open Source CFD Toolbox
   \\    /   O peration     | Website:  https://openfoam.org
    \\  /    A nd           | Version:  6
     \\/     M anipulation  |
\*---------------------------------------------------------------------------*/
FoamFile
{
    version     2.0;
    format      ascii;
    class       volScalarField;
    location    "400";
    object      alphat;
}
// * * * * * * * * * * * * * * * * * * * * * * * * * * * * * * * * * * * * * //

dimensions      [1 -1 -1 0 0 0 0];

internalField   nonuniform List<scalar> 
459
(
0.00284192
0.00272945
0.00262235
0.00253048
0.00245314
0.00238613
0.00232657
0.0022715
0.00221829
0.00216456
0.00210779
0.00204477
0.00197029
0.00187343
0.00174583
0.000217676
0.000227961
0.000235951
0.0002233
0.000210737
0.000202219
0.000185558
0.000162918
0.00016227
0.00017084
0.000185933
0.000207115
0.000231676
0.000242726
0.000244714
0.000253622
0.000253693
0.000244834
0.000224836
0.00322028
0.00349614
0.00349947
0.00339133
0.00332696
0.00330893
0.00331809
0.00331101
0.00327419
0.00320544
0.00310371
0.00296555
0.00277743
0.00249464
0.00211005
0.00165771
0.0014425
0.000348101
0.000546468
0.000699124
0.000825058
0.000853435
0.000609977
0.000270143
0.000213856
0.000242443
0.000315536
0.000427328
0.000562828
0.000699707
0.000779427
0.000849863
0.00105308
0.000905454
0.000619399
0.00029712
0.00346278
0.00386917
0.00354872
0.00320119
0.0030757
0.00308942
0.00317355
0.00327279
0.00335061
0.0033862
0.00336535
0.00327735
0.00310944
0.00282971
0.00246578
0.00212777
0.00145274
0.000511694
0.00147694
0.00150119
0.00139638
0.00121924
0.00095994
0.000321903
0.000222827
0.000248671
0.000280305
0.000314277
0.000352329
0.000396933
0.000453291
0.00053697
0.00165073
0.00171515
0.00145826
0.000479931
0.00365095
0.004173
0.00322422
0.00262326
0.00262496
0.00286899
0.00316239
0.00337179
0.0034873
0.00352268
0.00349819
0.00341652
0.00326367
0.00300303
0.002664
0.0023548
0.0018138
0.000802634
0.00193122
0.0019884
0.00170858
0.00138077
0.00106691
0.000800522
0.000603423
0.000621898
0.000642214
0.000661538
0.000681144
0.00070427
0.000734721
0.00077815
0.00084614
0.00251797
0.00267855
0.00251128
0.000805213
0.00382217
0.00430797
0.00262829
0.00221361
0.00312266
0.00398814
0.00450809
0.00457143
0.0042326
0.00389277
0.00365754
0.00348756
0.00330915
0.00304291
0.0027027
0.00239408
0.00198858
0.0020086
0.00272301
0.00303991
0.00297066
0.00290992
0.00291474
0.00298746
0.00310638
0.00324579
0.00330623
0.00330619
0.00327662
0.00323192
0.00318917
0.0031679
0.00318707
0.00327243
0.00318495
0.00303511
0.00279861
0.00107929
0.000947457
0.000815189
0.0039995
0.00426019
0.00207403
0.00268045
0.00436457
0.00496243
0.00512919
0.00501096
0.00441771
0.00393597
0.00363246
0.0034275
0.00322505
0.00295326
0.00264756
0.00240003
0.0022085
0.00283166
0.00359161
0.00402741
0.0041426
0.00426218
0.00440928
0.00456636
0.0047074
0.0048058
0.00483415
0.00481033
0.00473218
0.00459523
0.00440333
0.00417478
0.00393564
0.00370055
0.00346023
0.00320162
0.00287958
0.00238461
0.00183111
0.000827926
0.00420765
0.00409734
0.00208024
0.00245797
0.00409692
0.00448582
0.00442663
0.00425501
0.00398609
0.00369107
0.00345526
0.00326463
0.00306742
0.00282882
0.00259411
0.0024615
0.00251855
0.00359395
0.00438127
0.00474613
0.00495477
0.00515494
0.00534188
0.00550277
0.00562709
0.00571535
0.00577173
0.0058015
0.00579469
0.00572703
0.00556504
0.00528507
0.00489966
0.00445657
0.00399681
0.003528
0.0030307
0.00249096
0.00190457
0.00100592
0.00449976
0.00439801
0.00284282
0.00181186
0.00321624
0.00370626
0.00367404
0.00358551
0.00350387
0.003376
0.00323562
0.00309348
0.0029356
0.00275692
0.00260787
0.00260473
0.00290497
0.00427712
0.00500347
0.0053803
0.00567574
0.00590724
0.00608042
0.00619874
0.00627181
0.00632281
0.00636986
0.00642649
0.00649844
0.00657814
0.00663468
0.00660686
0.00642056
0.00604314
0.00549825
0.00484794
0.00415082
0.00349624
0.00297592
0.00164228
0.00498611
0.00570039
0.00553822
0.00246352
0.00272225
0.00335986
0.00338264
0.00331168
0.00324818
0.00319463
0.00312589
0.00304231
0.0029402
0.00282468
0.00274511
0.00283831
0.00332813
0.00472561
0.00552414
0.0060836
0.00645536
0.00670059
0.00682599
0.00686122
0.00684715
0.00681707
0.00679388
0.00679406
0.00683042
0.00691252
0.00704282
0.00720688
0.00736156
0.00744399
0.00745504
0.00738235
0.00714537
0.00655123
0.00586828
0.00175648
0.00889289
0.00371428
0.00341781
0.00371323
0.00369768
0.00364006
0.00353986
0.00344352
0.00338072
0.00332692
0.00326473
0.00319156
0.00314956
0.00330138
0.00396074
0.00503415
0.00602886
0.00678622
0.00726279
0.00753485
0.00763052
0.00760619
0.00752002
0.00741652
0.00732449
0.00726025
0.00723194
0.00724288
0.00729255
0.00737356
0.00746466
0.00752824
0.00752155
0.00739826
0.00710399
0.00655282
0.00546583
0.00182614
0.00398067
0.00329394
0.00448942
0.00432456
0.00415184
0.00392192
0.00369061
0.00345253
0.003339
0.00329859
0.00328584
0.00326897
0.00325711
0.00335698
0.0038303
0.004698
0.00576718
0.00682576
0.00757265
0.00795383
0.00804852
0.00797661
0.00783901
0.00770044
0.00759302
0.00752562
0.00749309
0.0074833
0.0074816
0.00747272
0.00744024
0.00736452
0.00722105
0.00697384
0.00657358
0.00593959
0.00514118
0.0019893
0.00136601
0.00135761
0.00240746
0.00164859
0.00142994
0.00138887
0.00137938
0.00137824
0.00138396
0.0013958
0.001405
0.00141563
0.00142746
0.00143774
0.00144218
0.00142863
0.00141804
0.00143091
0.00146967
0.00153095
0.00161864
0.00170135
0.00176095
0.001794
0.00180537
0.0018025
0.00179226
0.00177966
0.00176763
0.00175724
0.00174813
0.0017391
0.00172858
0.00171496
0.00169656
0.00167063
0.00163163
0.00156833
0.00150806
0.00147583
)
;

boundaryField
{
    floor
    {
        type            compressible::alphatWallFunction;
        Prt             0.85;
        value           nonuniform List<scalar> 
29
(
0.000244063
2.39901e-05
2.57434e-05
2.70987e-05
2.49511e-05
2.28019e-05
2.13359e-05
1.84415e-05
1.4446e-05
1.43301e-05
1.58507e-05
1.85033e-05
2.21762e-05
2.63699e-05
2.82363e-05
2.8571e-05
3.00666e-05
3.00796e-05
2.85939e-05
2.52108e-05
2.52104e-05
3.72729e-05
6.62606e-05
0.000114659
0.000244061
2.39897e-05
4.55444e-05
7.11295e-05
0.000114295
)
;
    }
    ceiling
    {
        type            compressible::alphatWallFunction;
        Prt             0.85;
        value           nonuniform List<scalar> 
43
(
0.000193511
0.000192359
0.000330132
0.000231247
0.000201914
0.000196352
0.000195065
0.00019491
0.000195687
0.000197294
0.00019854
0.00019998
0.000201579
0.000202966
0.000203561
0.000201718
0.000200278
0.000202014
0.000207243
0.000215481
0.000227208
0.000238204
0.000246092
0.000250451
0.000251947
0.000251568
0.000250215
0.000248551
0.000246961
0.000245586
0.00024438
0.000243184
0.000241789
0.000239983
0.000237542
0.000234097
0.000228906
0.000220452
0.000212365
0.000208026
0.00064585
0.000729926
0.000525376
)
;
    }
    sWall
    {
        type            compressible::alphatWallFunction;
        Prt             0.85;
        value           uniform 0.000192716;
    }
    nWall
    {
        type            compressible::alphatWallFunction;
        Prt             0.85;
        value           nonuniform List<scalar> 6(0.000115984 0.000117826 0.000143086 0.00025438 0.000275742 0.000207752);
    }
    sideWalls
    {
        type            empty;
    }
    glass1
    {
        type            compressible::alphatWallFunction;
        Prt             0.85;
        value           nonuniform List<scalar> 9(0.000380682 0.000427571 0.000457322 0.000480259 0.000501022 0.000522428 0.000547436 0.000582349 0.000640038);
    }
    glass2
    {
        type            compressible::alphatWallFunction;
        Prt             0.85;
        value           nonuniform List<scalar> 2(0.000229634 0.000244754);
    }
    sun
    {
        type            compressible::alphatWallFunction;
        Prt             0.85;
        value           nonuniform List<scalar> 
14
(
0.00038498
0.000370828
0.000357298
0.000345646
0.000335803
0.000327248
0.000319623
0.000312554
0.000305706
0.000298773
0.000291429
0.00028325
0.00027355
0.000260872
)
;
    }
    heatsource1
    {
        type            compressible::alphatWallFunction;
        Prt             0.85;
        value           nonuniform List<scalar> 3(0.000153555 0.000135003 0.000116092);
    }
    heatsource2
    {
        type            compressible::alphatWallFunction;
        Prt             0.85;
        value           nonuniform List<scalar> 4(0.00023221 0.000203372 0.00020337 0.000204754);
    }
    Table_master
    {
        type            compressible::alphatWallFunction;
        Prt             0.85;
        value           nonuniform List<scalar> 9(4.1335e-05 2.48955e-05 2.92657e-05 3.45319e-05 4.00992e-05 4.62414e-05 5.3332e-05 6.21463e-05 7.49831e-05);
    }
    Table_slave
    {
        type            compressible::alphatWallFunction;
        Prt             0.85;
        value           nonuniform List<scalar> 9(8.5e-05 8.77596e-05 9.07827e-05 9.36471e-05 9.65431e-05 9.9946e-05 0.000104406 0.000110729 0.000120545);
    }
    inlet
    {
        type            fixedValue;
        value           uniform 1.94e-05;
    }
    outlet
    {
        type            zeroGradient;
    }
}


// ************************************************************************* //
