// -*- C++ -*-
// File generated by PyFoam - sorry for the ugliness

FoamFile
{
 version 2.0;
 format ascii;
 class volVectorField;
 location "400";
 object U;
}

dimensions [ 0 1 -1 0 0 0 0 ];

internalField nonuniform List<vector> 459
(
  (0.338404 -0.170552 0)
  (0.27893 -0.150566 0)
  (0.408278 -0.0998664 0)
  (0.507127 -0.0660119 0)
  (0.552775 -0.0464259 0)
  (0.570013 -0.0333944 0)
  (0.575577 -0.0232896 0)
  (0.571758 -0.014481 0)
  (0.558043 -0.00618771 0)
  (0.533797 0.00225777 0)
  (0.498072 0.0116141 0)
  (0.448987 0.0230532 0)
  (0.382653 0.0393196 0)
  (0.286853 0.0700336 0)
  (0.212491 0.151311 0)
  (0.0230049 0.00882986 0)
  (-0.0192225 -0.00132175 0)
  (-0.0130637 -0.00269832 0)
  (-0.0131329 -0.0020833 0)
  (-0.013185 -0.0023393 0)
  (-0.0116292 -0.00408874 0)
  (-0.00682855 -0.00737191 0)
  (-0.00139981 -0.00858403 0)
  (0.00704616 -0.00555505 0)
  (0.0116477 -0.00394792 0)
  (0.0148849 -0.00298839 0)
  (0.0175826 -0.00251 0)
  (0.02 -0.00256105 0)
  (0.0223461 -0.00229015 0)
  (0.023589 -0.00174381 0)
  (0.0221124 -0.000457524 0)
  (0.0206324 -0.00132485 0)
  (0.0220132 -0.000736768 0)
  (-0.0140992 0.00891044 0)
  (0.422823 -0.335349 0)
  (0.211768 -0.246321 0)
  (0.326679 -0.133596 0)
  (0.40635 -0.0677339 0)
  (0.437333 -0.0341087 0)
  (0.449437 -0.0124771 0)
  (0.455673 0.0054874 0)
  (0.455375 0.0211975 0)
  (0.446301 0.0355997 0)
  (0.427847 0.0500837 0)
  (0.399495 0.0659765 0)
  (0.36092 0.0847748 0)
  (0.313376 0.108878 0)
  (0.260087 0.143139 0)
  (0.230803 0.203112 0)
  (0.201611 0.175849 0)
  (0.0943783 0.119779 0)
  (0.0553932 0.00345998 0)
  (0.0262652 0.00373212 0)
  (0.0156836 0.00332111 0)
  (0.0102726 0.00350185 0)
  (0.00522439 0.0037798 0)
  (-0.00257744 0.000790285 0)
  (-0.00151624 -0.00837243 0)
  (-0.00475858 -0.0121804 0)
  (0.000492465 -0.00681427 0)
  (0.00214671 -0.00436223 0)
  (0.00236321 -0.00324446 0)
  (0.00179862 -0.00268328 0)
  (0.000522273 -0.00195957 0)
  (-0.00312824 0.00110845 0)
  (-0.00641666 0.00434791 0)
  (-0.00864269 0.00733015 0)
  (-0.0127422 0.00730643 0)
  (-0.0241358 0.00838851 0)
  (-0.0614744 0.0100375 0)
  (0.453901 -0.504306 0)
  (0.086311 -0.336926 0)
  (0.219114 -0.182008 0)
  (0.278516 -0.103004 0)
  (0.292842 -0.0643329 0)
  (0.300842 -0.0377791 0)
  (0.308267 -0.0145681 0)
  (0.313269 0.0083808 0)
  (0.311452 0.0322791 0)
  (0.302251 0.0578589 0)
  (0.285228 0.0856623 0)
  (0.260388 0.116103 0)
  (0.229174 0.149569 0)
  (0.192459 0.185915 0)
  (0.163914 0.224238 0)
  (0.125346 0.186259 0)
  (0.0642948 0.140772 0)
  (0.0179158 -0.010379 0)
  (-0.00828999 -0.000814126 0)
  (-0.00580652 0.00347738 0)
  (-0.00338618 0.0044222 0)
  (-0.000730037 0.00489787 0)
  (0.00034667 0.00461931 0)
  (0.00827718 -0.00560482 0)
  (-0.0101886 -0.0136083 0)
  (-0.0186128 -0.00983001 0)
  (-0.0236297 -0.0075241 0)
  (-0.0271444 -0.00578687 0)
  (-0.0297204 -0.00423311 0)
  (-0.0311503 -0.00275046 0)
  (-0.0299601 -0.00118632 0)
  (-0.0256457 5.3213e-05 0)
  (-0.019102 0.00238217 0)
  (-0.00995534 0.00425904 0)
  (-0.00310957 0.00307352 0)
  (-0.0115078 -0.000958375 0)
  (0.463603 -0.61277 0)
  (-0.031243 -0.385314 0)
  (0.138147 -0.203737 0)
  (0.167882 -0.116175 0)
  (0.161716 -0.0740713 0)
  (0.167191 -0.0431589 0)
  (0.175282 -0.0158119 0)
  (0.183379 0.0112754 0)
  (0.186252 0.0397071 0)
  (0.183448 0.0706721 0)
  (0.174438 0.104462 0)
  (0.158883 0.140753 0)
  (0.137222 0.178609 0)
  (0.108162 0.216147 0)
  (0.0820393 0.250663 0)
  (0.0491797 0.231639 0)
  (0.0148767 0.188688 0)
  (-0.0589115 0.0142 0)
  (-0.0382409 0.00145165 0)
  (-0.0429578 0.00265688 0)
  (-0.0450724 0.00452902 0)
  (-0.0480952 0.00555728 0)
  (-0.0523259 0.00490927 0)
  (-0.057786 0.00246712 0)
  (-0.0626424 -0.000182703 0)
  (-0.0637996 -0.0019144 0)
  (-0.0634833 -0.00312954 0)
  (-0.0617286 -0.00400644 0)
  (-0.0589181 -0.0047205 0)
  (-0.0552485 -0.00537459 0)
  (-0.050693 -0.00605072 0)
  (-0.0449601 -0.00679873 0)
  (-0.0375963 -0.00752153 0)
  (-0.0299315 -0.00750435 0)
  (-0.0214469 -0.00783199 0)
  (-0.0120781 -0.00740069 0)
  (0.0353485 0.00623707 0)
  (0.447722 -0.673132 0)
  (-0.114234 -0.415502 0)
  (0.0830652 -0.213562 0)
  (0.0742375 -0.112888 0)
  (0.0470791 -0.0782363 0)
  (0.0575897 -0.0505669 0)
  (0.0669185 -0.0240646 0)
  (0.0759486 0.00514083 0)
  (0.0796739 0.0380776 0)
  (0.0790764 0.0746227 0)
  (0.0738437 0.114328 0)
  (0.0633959 0.156323 0)
  (0.0477707 0.199358 0)
  (0.0251418 0.241523 0)
  (0.00634468 0.279599 0)
  (-0.0170293 0.267416 0)
  (-0.0286969 0.211159 0)
  (-0.0601524 0.0394501 0)
  (-0.0540787 0.00883785 0)
  (-0.0621517 0.00643596 0)
  (-0.0658116 0.00770441 0)
  (-0.0675089 0.00871994 0)
  (-0.0681796 0.00845536 0)
  (-0.0683298 0.00668506 0)
  (-0.0680611 0.00390489 0)
  (-0.0673847 0.000966548 0)
  (-0.0663441 -0.00127243 0)
  (-0.0648629 -0.00294532 0)
  (-0.0629734 -0.00427962 0)
  (-0.0607317 -0.00551695 0)
  (-0.058122 -0.00691996 0)
  (-0.0550112 -0.00879571 0)
  (-0.0511735 -0.0114459 0)
  (-0.0462559 -0.0148768 0)
  (-0.0397635 -0.0186919 0)
  (-0.0293096 -0.0233237 0)
  (-0.0103009 -0.0253835 0)
  (0.0187191 -0.0387092 0)
  (0.0631441 -0.0265091 0)
  (-0.0461636 0.0142119 0)
  (0.396313 -0.687071 0)
  (-0.155425 -0.427051 0)
  (0.0280689 -0.200333 0)
  (-0.00902154 -0.0847733 0)
  (-0.0464794 -0.0794392 0)
  (-0.0323765 -0.0587194 0)
  (-0.0259756 -0.0332066 0)
  (-0.0195813 -0.00160181 0)
  (-0.0168727 0.0359477 0)
  (-0.0169645 0.076925 0)
  (-0.0195822 0.121333 0)
  (-0.0255846 0.168193 0)
  (-0.0350251 0.216033 0)
  (-0.0484154 0.261547 0)
  (-0.0561321 0.295599 0)
  (-0.0642915 0.280879 0)
  (-0.0590476 0.209023 0)
  (-0.0653236 0.0520505 0)
  (-0.0636524 0.0171112 0)
  (-0.0689684 0.0104636 0)
  (-0.0706745 0.00909711 0)
  (-0.0701678 0.00834352 0)
  (-0.0684156 0.00698221 0)
  (-0.0662284 0.00474294 0)
  (-0.0641735 0.00194546 0)
  (-0.0624568 -0.000823254 0)
  (-0.0611562 -0.00304625 0)
  (-0.0601387 -0.0047331 0)
  (-0.0593835 -0.00604943 0)
  (-0.0589536 -0.00721961 0)
  (-0.0589406 -0.00855179 0)
  (-0.0593929 -0.0104827 0)
  (-0.0602091 -0.0135552 0)
  (-0.06095 -0.0182391 0)
  (-0.0606945 -0.0247886 0)
  (-0.0576741 -0.0337721 0)
  (-0.0492552 -0.0445555 0)
  (-0.0337725 -0.0535634 0)
  (0.012496 -0.0293747 0)
  (-0.117925 0.0656497 0)
  (0.293706 -0.632399 0)
  (-0.1712 -0.393812 0)
  (-0.0724438 -0.172768 0)
  (-0.0856749 -0.0536864 0)
  (-0.13881 -0.0762627 0)
  (-0.125858 -0.0628532 0)
  (-0.120469 -0.037101 0)
  (-0.115286 -0.00326772 0)
  (-0.110104 0.0355791 0)
  (-0.107575 0.0782152 0)
  (-0.105667 0.124416 0)
  (-0.104771 0.173277 0)
  (-0.10472 0.222797 0)
  (-0.104986 0.267863 0)
  (-0.0995171 0.295705 0)
  (-0.0916866 0.274789 0)
  (-0.0739179 0.19191 0)
  (-0.0658611 0.0557849 0)
  (-0.0647441 0.0211113 0)
  (-0.0660457 0.0117237 0)
  (-0.0646462 0.00808978 0)
  (-0.0615434 0.00580202 0)
  (-0.0576685 0.00374339 0)
  (-0.0538147 0.00157782 0)
  (-0.0504808 -0.000646372 0)
  (-0.048168 -0.00264352 0)
  (-0.046752 -0.00422793 0)
  (-0.0460352 -0.00535471 0)
  (-0.0459845 -0.00606005 0)
  (-0.0467236 -0.00645848 0)
  (-0.048549 -0.00680355 0)
  (-0.0518964 -0.00757195 0)
  (-0.0571886 -0.00948004 0)
  (-0.0646021 -0.0133286 0)
  (-0.0740009 -0.019768 0)
  (-0.084363 -0.029063 0)
  (-0.0920187 -0.0396791 0)
  (-0.0923253 -0.0436147 0)
  (-0.0988083 -0.0187662 0)
  (-0.177267 0.0664445 0)
  (0.137911 -0.494313 0)
  (-0.288549 -0.310553 0)
  (-0.280078 -0.157199 0)
  (-0.185164 -0.0266704 0)
  (-0.251508 -0.087131 0)
  (-0.221906 -0.0751607 0)
  (-0.210283 -0.0460303 0)
  (-0.201899 -0.00919547 0)
  (-0.193476 0.0316377 0)
  (-0.186646 0.0748617 0)
  (-0.178427 0.120788 0)
  (-0.16832 0.168884 0)
  (-0.155907 0.21687 0)
  (-0.140793 0.258688 0)
  (-0.120678 0.280413 0)
  (-0.0983941 0.25451 0)
  (-0.0716605 0.168075 0)
  (-0.0553795 0.0534712 0)
  (-0.0535308 0.0204564 0)
  (-0.051214 0.00938794 0)
  (-0.0463055 0.00414473 0)
  (-0.0401191 0.00100152 0)
  (-0.0341843 -0.00088887 0)
  (-0.0293505 -0.00217226 0)
  (-0.0259619 -0.00320538 0)
  (-0.023757 -0.00410741 0)
  (-0.0224909 -0.00482142 0)
  (-0.0219251 -0.00522138 0)
  (-0.0219216 -0.00517861 0)
  (-0.0224732 -0.00460667 0)
  (-0.0237513 -0.0035298 0)
  (-0.0261683 -0.00219352 0)
  (-0.0304067 -0.00120787 0)
  (-0.0376885 -0.00182179 0)
  (-0.0502261 -0.00614156 0)
  (-0.0687506 -0.0162082 0)
  (-0.090485 -0.033324 0)
  (-0.111518 -0.0589841 0)
  (-0.148978 -0.0934029 0)
  (-0.320122 -0.139634 0)
  (-0.0989081 -0.346637 0)
  (-0.62022 -0.298122 0)
  (-0.831099 -0.277677 0)
  (-0.231242 -0.146702 0)
  (-0.344081 -0.129642 0)
  (-0.290372 -0.0953302 0)
  (-0.274785 -0.0575363 0)
  (-0.266527 -0.019518 0)
  (-0.258173 0.020871 0)
  (-0.247538 0.0636729 0)
  (-0.232439 0.107493 0)
  (-0.211973 0.152231 0)
  (-0.185799 0.195995 0)
  (-0.154422 0.233071 0)
  (-0.118973 0.250418 0)
  (-0.0836713 0.223939 0)
  (-0.0486608 0.142497 0)
  (-0.0249091 0.0477991 0)
  (-0.0230069 0.0180577 0)
  (-0.0187591 0.00669769 0)
  (-0.0101824 0.00105161 0)
  (-0.00336735 -0.00139126 0)
  (0.001862 -0.00205846 0)
  (0.00544288 -0.00208201 0)
  (0.00776196 -0.00207383 0)
  (0.00913335 -0.00217728 0)
  (0.00981621 -0.00231075 0)
  (0.01003 -0.00231707 0)
  (0.009959 -0.0020248 0)
  (0.00977471 -0.00127708 0)
  (0.00964993 3.29626e-05 0)
  (0.00977432 0.0018936 0)
  (0.0102741 0.00407177 0)
  (0.0113038 0.00600685 0)
  (0.013084 0.00677949 0)
  (0.01548 0.00573702 0)
  (0.0178424 0.00370991 0)
  (0.0225829 -0.00170584 0)
  (0.0383186 -0.0419524 0)
  (-0.196184 -0.145778 0)
  (-1.86936 -0.29658 0)
  (-0.0982049 -0.270533 0)
  (-0.325962 -0.171168 0)
  (-0.30772 -0.105293 0)
  (-0.307361 -0.0491966 0)
  (-0.305254 -0.00176781 0)
  (-0.298052 0.0355347 0)
  (-0.285228 0.0652418 0)
  (-0.264722 0.0965832 0)
  (-0.234854 0.129785 0)
  (-0.195481 0.163304 0)
  (-0.148206 0.192468 0)
  (-0.096982 0.206557 0)
  (-0.0474718 0.184708 0)
  (0.00263353 0.110429 0)
  (0.033092 0.0431699 0)
  (0.0369258 0.0188755 0)
  (0.0410243 0.00600291 0)
  (0.0441353 -0.00138296 0)
  (0.0457026 -0.00358253 0)
  (0.0464114 -0.00340919 0)
  (0.0467178 -0.00260299 0)
  (0.0468285 -0.00190432 0)
  (0.0467717 -0.00144941 0)
  (0.0465343 -0.00112154 0)
  (0.046132 -0.000752645 0)
  (0.045642 -0.000203331 0)
  (0.0452237 0.000610501 0)
  (0.0451269 0.00168687 0)
  (0.0456849 0.00285695 0)
  (0.0472553 0.00361802 0)
  (0.0500315 0.00298583 0)
  (0.0541867 -0.000254459 0)
  (0.0592011 -0.00669393 0)
  (0.064658 -0.0156162 0)
  (0.0687047 -0.0267145 0)
  (0.0751075 -0.0525204 0)
  (-0.0132081 -0.118037 0)
  (-0.329491 0.0289096 0)
  (-0.000157045 -0.244485 0)
  (-0.22499 -0.183963 0)
  (-0.276081 -0.161634 0)
  (-0.312334 -0.143461 0)
  (-0.330002 -0.1206 0)
  (-0.330634 -0.0873266 0)
  (-0.316195 -0.042314 0)
  (-0.289455 -0.00300282 0)
  (-0.249415 0.0336126 0)
  (-0.196323 0.0687166 0)
  (-0.132571 0.0996874 0)
  (-0.0637418 0.116613 0)
  (0.0155081 0.0909811 0)
  (0.0776417 0.0191269 0)
  (0.110538 -0.0410882 0)
  (0.118135 -0.0782427 0)
  (0.114754 -0.097551 0)
  (0.107509 -0.100724 0)
  (0.100211 -0.0971506 0)
  (0.0945648 -0.0919273 0)
  (0.0907291 -0.0872939 0)
  (0.0881852 -0.0839166 0)
  (0.0863273 -0.0817365 0)
  (0.0847108 -0.0804428 0)
  (0.083106 -0.0796918 0)
  (0.0814747 -0.079195 0)
  (0.0799249 -0.0787501 0)
  (0.0786598 -0.0782499 0)
  (0.0779168 -0.0776822 0)
  (0.0778686 -0.077134 0)
  (0.0784459 -0.0767918 0)
  (0.0792923 -0.0768757 0)
  (0.0798484 -0.0774803 0)
  (0.0799242 -0.0783531 0)
  (0.0781025 -0.0780586 0)
  (0.0963982 -0.0833036 0)
  (0.0117742 -0.144019 0)
  (0.492499 0.199443 0)
  (0.222634 -0.161485 0)
  (-0.115411 0.305527 0)
  (-0.00130779 0.153444 0)
  (-0.165036 0.201908 0)
  (-0.233505 0.240497 0)
  (-0.279563 0.257255 0)
  (-0.306966 0.261312 0)
  (-0.316885 0.254469 0)
  (-0.308245 0.238821 0)
  (-0.280159 0.232621 0)
  (-0.233472 0.233169 0)
  (-0.1702 0.239355 0)
  (-0.0956433 0.250028 0)
  (-0.00489617 0.260239 0)
  (0.0862136 0.253327 0)
  (0.144934 0.251043 0)
  (0.177029 0.260415 0)
  (0.186968 0.272546 0)
  (0.185294 0.279284 0)
  (0.17931 0.274269 0)
  (0.172962 0.264384 0)
  (0.166708 0.254537 0)
  (0.16039 0.246991 0)
  (0.154034 0.242273 0)
  (0.147784 0.240043 0)
  (0.14178 0.239625 0)
  (0.136122 0.240278 0)
  (0.130867 0.241358 0)
  (0.126024 0.242388 0)
  (0.121532 0.243063 0)
  (0.11724 0.243205 0)
  (0.112852 0.24268 0)
  (0.10783 0.241307 0)
  (0.101292 0.238895 0)
  (0.0918809 0.235346 0)
  (0.0774676 0.230606 0)
  (0.0531763 0.223846 0)
  (0.103624 0.218479 0)
  (-0.300234 0.380417 0)
)
;

boundaryField
{
  floor
  {
    type noSlip;
  }
  ceiling
  {
    type noSlip;
  }
  sWall
  {
    type noSlip;
  }
  nWall
  {
    type noSlip;
  }
  sideWalls
  {
    type empty;
  }
  glass1
  {
    type noSlip;
  }
  glass2
  {
    type noSlip;
  }
  sun
  {
    type noSlip;
  }
  heatsource1
  {
    type noSlip;
  }
  heatsource2
  {
    type noSlip;
  }
  Table_master
  {
    type noSlip;
  }
  Table_slave
  {
    type noSlip;
  }
  inlet
  {
    type fixedValue;
    value uniform (0.1 0 0);
  }
  outlet
  {
    type zeroGradient;
  }
} 	// ************************************************************************* //

