/*--------------------------------*- C++ -*----------------------------------*\
  =========                 |
  \\      /  F ield         | OpenFOAM: The Open Source CFD Toolbox
   \\    /   O peration     | Website:  https://openfoam.org
    \\  /    A nd           | Version:  6
     \\/     M anipulation  |
\*---------------------------------------------------------------------------*/
FoamFile
{
    version     2.0;
    format      ascii;
    class       volScalarField;
    location    "500";
    object      epsilon;
}
// * * * * * * * * * * * * * * * * * * * * * * * * * * * * * * * * * * * * * //

dimensions      [0 2 -3 0 0 0 0];

internalField   nonuniform List<scalar> 
459
(
0.00166181
0.00509161
0.00447929
0.00395073
0.00354048
0.00320469
0.00291225
0.00264076
0.00237528
0.00210457
0.00181846
0.00150402
0.00113809
0.000604931
5.83776e-05
8.3466e-06
9.77616e-06
1.06575e-05
7.93533e-06
5.89859e-06
5.17241e-06
4.5566e-06
4.27189e-06
3.18963e-06
2.10252e-06
1.8714e-06
2.15699e-06
3.70962e-06
4.86884e-06
6.68192e-06
1.03508e-05
1.40798e-05
1.56982e-05
1.20866e-05
0.00716104
0.00615288
0.00480499
0.00369538
0.00295165
0.00246929
0.00214533
0.00192982
0.00178664
0.00168439
0.00158801
0.00144305
0.00120663
0.000736763
0.000154127
2.8026e-05
6.51464e-06
3.70027e-05
3.47258e-05
2.71366e-05
2.09071e-05
1.70537e-05
1.45051e-05
1.34931e-05
1.0993e-05
7.66164e-06
4.76632e-06
3.14497e-06
2.74442e-06
4.67417e-06
9.11409e-06
1.54478e-05
2.51936e-05
3.72068e-05
6.03933e-05
3.21747e-05
0.00927394
0.00791345
0.00521991
0.00344596
0.00254363
0.00208261
0.00178274
0.00158998
0.00147599
0.00141517
0.00137218
0.00127888
0.00108683
0.00068566
0.00022651
4.51575e-05
2.92914e-05
0.000136354
9.65499e-05
4.4753e-05
3.33481e-05
2.81372e-05
2.54315e-05
3.1079e-05
2.00974e-05
1.39275e-05
9.80702e-06
6.94305e-06
5.02339e-06
7.14189e-06
2.11472e-05
4.29212e-05
4.62796e-05
6.15387e-05
7.19218e-05
5.3161e-05
0.0106195
0.00963213
0.00482433
0.00239981
0.0014905
0.00116104
0.00108799
0.00110027
0.00112969
0.00115754
0.00116097
0.00108496
0.000899403
0.000607142
0.000235135
6.77084e-05
9.35451e-05
0.000182477
0.000156316
4.73231e-05
3.65004e-05
3.562e-05
3.78207e-05
4.37782e-05
6.07192e-05
7.23393e-05
8.46671e-05
9.73886e-05
0.000110964
0.00012704
0.000140958
0.000152507
0.000158409
0.000113734
0.000120457
0.000177851
0.000237242
0.0117797
0.0113464
0.00376064
0.00127121
0.000648661
0.000526876
0.000661307
0.000791253
0.000885235
0.000947238
0.00095251
0.000877138
0.000740221
0.000537978
0.000198162
5.3909e-05
4.40477e-05
4.74347e-05
3.95698e-05
3.08212e-05
3.11504e-05
3.38513e-05
3.80373e-05
4.39263e-05
5.19738e-05
6.1918e-05
7.4063e-05
8.89348e-05
0.000107021
0.000129162
0.000155072
0.000186325
0.000227404
0.000269422
0.000314948
0.00034829
0.000378682
0.000657814
0.000508933
0.000345701
0.0129981
0.012821
0.00293871
0.000612719
0.000413147
0.000420959
0.000522723
0.00062916
0.000713342
0.000764025
0.000764507
0.000710306
0.000622022
0.000451393
0.000138572
4.37894e-05
3.44115e-05
3.41599e-05
3.43583e-05
3.53118e-05
3.76643e-05
4.12335e-05
4.63354e-05
5.34616e-05
6.3198e-05
7.61925e-05
9.32808e-05
0.000115509
0.000144213
0.000181338
0.00022988
0.000294682
0.000382701
0.000499605
0.000650636
0.000833133
0.00092539
0.000882725
0.000649088
0.000545159
0.0145528
0.0139473
0.00448574
0.000567912
0.000399473
0.000389339
0.000450048
0.00052311
0.000585376
0.000622147
0.000623172
0.000590096
0.000526067
0.00035172
0.000101291
4.62789e-05
4.3262e-05
4.62089e-05
4.94217e-05
5.20827e-05
5.43652e-05
5.71966e-05
6.16453e-05
6.88053e-05
7.98027e-05
9.58666e-05
0.000118362
0.000148855
0.000189182
0.000241923
0.000311421
0.000404133
0.000526652
0.000680128
0.000851542
0.00100242
0.00106333
0.00101628
0.000642882
0.000563889
0.0170009
0.0180795
0.0121323
0.000689278
0.000411093
0.000366112
0.000405528
0.000457312
0.000502128
0.0005282
0.000528687
0.000503258
0.000438711
0.000259316
9.11545e-05
6.68467e-05
7.21187e-05
7.8898e-05
8.38384e-05
8.57845e-05
8.63011e-05
8.69221e-05
8.92643e-05
9.49791e-05
0.000105779
0.000123578
0.000150566
0.000188907
0.000239575
0.000300693
0.000367166
0.000432634
0.000492968
0.00054845
0.000603479
0.000667815
0.000741915
0.000823867
0.000895897
0.000736674
0.0221354
0.0317108
0.0486084
0.00591114
0.000619208
0.00040612
0.000406098
0.000438015
0.000468224
0.000484054
0.000477816
0.000445718
0.00037017
0.000206532
0.000117563
0.000122353
0.000139763
0.000149594
0.00015094
0.000148691
0.000145017
0.000141536
0.000139777
0.000141372
0.000148065
0.000161771
0.00018488
0.00022075
0.000274059
0.000346401
0.000439388
0.000552438
0.000682852
0.000826742
0.000974192
0.00109808
0.00122353
0.00143506
0.00186376
0.00112889
0.115816
0.0182615
0.00128884
0.000540627
0.000475883
0.00048363
0.000501935
0.000508939
0.000493464
0.000452656
0.000380438
0.000235633
0.000212401
0.000249918
0.000277412
0.000286551
0.000284131
0.000276146
0.000266465
0.000257215
0.000249633
0.000244724
0.000243538
0.000247158
0.000256535
0.000272337
0.000297361
0.00033508
0.000389575
0.000461507
0.000546979
0.000639154
0.000732401
0.000825968
0.000856442
0.000767696
0.00123049
0.00114571
0.0174817
0.00184919
0.00131335
0.000583289
0.000489197
0.000482423
0.00049723
0.000505349
0.000490837
0.000441605
0.000335704
0.000281992
0.000334705
0.000418722
0.000482642
0.000516978
0.000528213
0.000525661
0.00051683
0.000506562
0.000497537
0.000490949
0.000486868
0.000484269
0.000481279
0.000471787
0.000453794
0.00043366
0.000421807
0.000425371
0.000443353
0.000467224
0.000484313
0.000483317
0.000455821
0.000442172
0.00115507
0.000829456
0.00181954
0.00304865
0.0068888
0.000609256
0.000517884
0.000523875
0.000573477
0.000629701
0.000668176
0.000689062
0.00068131
0.00061256
0.000511696
0.000432919
0.000381665
0.000357451
0.000349115
0.000347255
0.000346547
0.000344664
0.000341217
0.000336768
0.000332161
0.000328209
0.000325606
0.000324903
0.000326522
0.000334527
0.000348858
0.000368795
0.000393591
0.000421716
0.000449536
0.000469915
0.000471991
0.000443657
0.000407174
0.000364503
0.000377813
0.000321522
)
;

boundaryField
{
    floor
    {
        Cmu             0.09;
        kappa           0.41;
        E               9.8;
        type            epsilonWallFunction;
        value           nonuniform List<scalar> 
29
(
5.83776e-05
8.3466e-06
9.77616e-06
1.06575e-05
7.93533e-06
5.89859e-06
5.17241e-06
4.5566e-06
4.27189e-06
3.18963e-06
2.10252e-06
1.8714e-06
2.15699e-06
3.70962e-06
4.86884e-06
6.68192e-06
1.03508e-05
1.40798e-05
1.56982e-05
1.20866e-05
1.20866e-05
3.21747e-05
5.3161e-05
0.000237242
5.83776e-05
8.3466e-06
3.70027e-05
0.000136354
0.000182477
)
;
    }
    ceiling
    {
        Cmu             0.09;
        kappa           0.41;
        E               9.8;
        type            epsilonWallFunction;
        value           nonuniform List<scalar> 
43
(
0.00181954
0.00304865
0.0068888
0.000609256
0.000517884
0.000523875
0.000573477
0.000629701
0.000668176
0.000689062
0.00068131
0.00061256
0.000511696
0.000432919
0.000381665
0.000357451
0.000349115
0.000347255
0.000346547
0.000344664
0.000341217
0.000336768
0.000332161
0.000328209
0.000325606
0.000324903
0.000326522
0.000334527
0.000348858
0.000368795
0.000393591
0.000421716
0.000449536
0.000469915
0.000471991
0.000443657
0.000407174
0.000364503
0.000377813
0.000321522
0.0221354
0.0317108
0.0174817
)
;
    }
    sWall
    {
        Cmu             0.09;
        kappa           0.41;
        E               9.8;
        type            epsilonWallFunction;
        value           uniform 0.00181954;
    }
    nWall
    {
        Cmu             0.09;
        kappa           0.41;
        E               9.8;
        type            epsilonWallFunction;
        value           nonuniform List<scalar> 6(0.000345701 0.000545159 0.000563889 0.00114571 0.000829456 0.000321522);
    }
    sideWalls
    {
        type            empty;
    }
    glass1
    {
        Cmu             0.09;
        kappa           0.41;
        E               9.8;
        type            epsilonWallFunction;
        value           nonuniform List<scalar> 9(0.00166181 0.00716104 0.00927394 0.0106195 0.0117797 0.0129981 0.0145528 0.0170009 0.0221354);
    }
    glass2
    {
        Cmu             0.09;
        kappa           0.41;
        E               9.8;
        type            epsilonWallFunction;
        value           nonuniform List<scalar> 2(0.000736674 0.00112889);
    }
    sun
    {
        Cmu             0.09;
        kappa           0.41;
        E               9.8;
        type            epsilonWallFunction;
        value           nonuniform List<scalar> 
14
(
0.00166181
0.00509161
0.00447929
0.00395073
0.00354048
0.00320469
0.00291225
0.00264076
0.00237528
0.00210457
0.00181846
0.00150402
0.00113809
0.000604931
)
;
    }
    heatsource1
    {
        Cmu             0.09;
        kappa           0.41;
        E               9.8;
        type            epsilonWallFunction;
        value           nonuniform List<scalar> 3(0.000657814 0.000508933 0.000345701);
    }
    heatsource2
    {
        Cmu             0.09;
        kappa           0.41;
        E               9.8;
        type            epsilonWallFunction;
        value           nonuniform List<scalar> 4(2.8026e-05 6.51464e-06 6.51464e-06 2.92914e-05);
    }
    Table_master
    {
        Cmu             0.09;
        kappa           0.41;
        E               9.8;
        type            epsilonWallFunction;
        value           nonuniform List<scalar> 9(3.1079e-05 2.00974e-05 1.39275e-05 9.80702e-06 6.94305e-06 5.02339e-06 7.14189e-06 2.11472e-05 4.29212e-05);
    }
    Table_slave
    {
        Cmu             0.09;
        kappa           0.41;
        E               9.8;
        type            epsilonWallFunction;
        value           nonuniform List<scalar> 9(6.07192e-05 7.23393e-05 8.46671e-05 9.73886e-05 0.000110964 0.00012704 0.000140958 0.000152507 0.000158409);
    }
    inlet
    {
        type            turbulentMixingLengthDissipationRateInlet;
        mixingLength    0.01;
        phi             phi;
        k               k;
        value           uniform 3.77336e-06;
    }
    outlet
    {
        type            zeroGradient;
    }
}


// ************************************************************************* //
