/*--------------------------------*- C++ -*----------------------------------*\
  =========                 |
  \\      /  F ield         | OpenFOAM: The Open Source CFD Toolbox
   \\    /   O peration     | Website:  https://openfoam.org
    \\  /    A nd           | Version:  6
     \\/     M anipulation  |
\*---------------------------------------------------------------------------*/
FoamFile
{
    version     2.0;
    format      ascii;
    class       volScalarField;
    location    "500";
    object      nut;
}
// * * * * * * * * * * * * * * * * * * * * * * * * * * * * * * * * * * * * * //

dimensions      [0 2 -1 0 0 0 0];

internalField   nonuniform List<scalar> 
459
(
0.00167454
0.00243213
0.00233046
0.00223495
0.00215476
0.00208439
0.00201898
0.00195421
0.00188645
0.00181193
0.00172587
0.00162018
0.00147668
0.00119794
0.000549034
0.000286766
0.000302275
0.000311095
0.00028197
0.00025543
0.000244496
0.000234391
0.000229415
0.00020815
0.000181132
0.000174206
0.000182641
0.000218808
0.000239593
0.000266261
0.000308086
0.000341364
0.000353971
0.00032443
0.00272494
0.00310107
0.00311241
0.00300775
0.00292562
0.0028854
0.00283998
0.00278207
0.00271663
0.0026452
0.00255722
0.00241356
0.00216465
0.00169115
0.000842374
0.000429715
0.000264072
0.000471126
0.000675297
0.000779209
0.00090421
0.00103034
0.00104352
0.000913928
0.000785426
0.00055935
0.000366164
0.000266227
0.000230306
0.000266012
0.000333705
0.000480766
0.000957476
0.00113972
0.0012526
0.000449644
0.00297015
0.00360238
0.00328616
0.00296139
0.00283809
0.00285639
0.00288755
0.00291594
0.00293202
0.00292562
0.00287588
0.00272516
0.00241954
0.00190292
0.00156767
0.000909839
0.00043576
0.000727663
0.00180173
0.00173393
0.00173997
0.00160273
0.00125857
0.000444486
0.000384372
0.000340147
0.000302614
0.000269707
0.000242122
0.000272162
0.000390886
0.000494941
0.00113706
0.00117545
0.000999372
0.000531558
0.00310734
0.00398334
0.00302528
0.002436
0.00230526
0.00240298
0.00259523
0.00278823
0.00293518
0.00301326
0.00299163
0.00281036
0.00243667
0.00204989
0.00196711
0.00102557
0.00075952
0.000801827
0.00216401
0.00212466
0.00210733
0.00179544
0.00134428
0.000885346
0.000555682
0.000589081
0.000620799
0.000650441
0.000679345
0.000710656
0.000735698
0.000755237
0.00076483
0.00143581
0.00203012
0.00229967
0.000875173
0.00321659
0.0040973
0.0023397
0.00198486
0.00224112
0.00248447
0.00259517
0.00278823
0.00295096
0.00302225
0.0029528
0.00273145
0.00243182
0.0022387
0.00234643
0.00215503
0.00205949
0.00229018
0.0026213
0.00287536
0.00286092
0.00278463
0.00272708
0.00271998
0.0027612
0.00286022
0.00295487
0.00303842
0.00311213
0.00318426
0.0032591
0.00334595
0.00345684
0.00359244
0.00361062
0.00348435
0.00284901
0.00122962
0.00112878
0.000992251
0.00332385
0.00390736
0.00164068
0.00252918
0.0029223
0.00276005
0.00272978
0.00282486
0.0029165
0.00293046
0.00283388
0.00265139
0.00248109
0.00241002
0.00262296
0.0029641
0.00320417
0.00337002
0.00349375
0.00354048
0.00354531
0.00354904
0.00356846
0.00360865
0.00366367
0.00372025
0.00376234
0.00378724
0.00380312
0.00382561
0.00386989
0.00394863
0.00406615
0.00419892
0.00431315
0.00435373
0.00419303
0.00391651
0.00305242
0.00115484
0.00345138
0.00349787
0.00148356
0.00247804
0.00296925
0.00279596
0.00276931
0.00280935
0.00284498
0.00282748
0.00274579
0.00264112
0.00258732
0.0025899
0.00302021
0.00354541
0.00374691
0.00385591
0.0039388
0.00399443
0.00403432
0.00406664
0.00410111
0.00414434
0.00419314
0.00423268
0.00424321
0.00421459
0.00415455
0.00408376
0.00402354
0.00399188
0.00399186
0.00399869
0.00396442
0.00383061
0.00354706
0.00320144
0.00282695
0.00116781
0.00363494
0.00348438
0.00192181
0.0019256
0.00291416
0.00283822
0.00280698
0.0028198
0.00282687
0.00280385
0.00275563
0.00272484
0.00275889
0.00290118
0.00355067
0.00391772
0.00403982
0.00414002
0.00421859
0.00427947
0.00432704
0.00437335
0.00443399
0.00452109
0.00463341
0.00474815
0.00482409
0.00482267
0.00473341
0.00457364
0.00434144
0.00403808
0.00368344
0.0033083
0.00294426
0.00262459
0.00233222
0.00206744
0.00181167
0.00127677
0.00396914
0.00447434
0.0039873
0.00175559
0.00260381
0.00313091
0.00302387
0.00298687
0.00296887
0.00294509
0.00292278
0.00294373
0.00306462
0.003475
0.00403826
0.00421649
0.00429239
0.00434819
0.00438431
0.00440695
0.00442277
0.00444472
0.00449322
0.0045935
0.00476609
0.0050106
0.00528966
0.00553011
0.00566001
0.00565682
0.00554713
0.00537955
0.00518968
0.00498533
0.00472341
0.00429656
0.00377894
0.00338838
0.00319413
0.00147208
0.0065766
0.00276201
0.00290888
0.00364475
0.00350799
0.0034036
0.00336287
0.00333904
0.00333061
0.00338345
0.00358353
0.00407975
0.00437319
0.00447284
0.00450334
0.00450366
0.00448584
0.00446089
0.0044364
0.00441948
0.00442046
0.0044562
0.00455092
0.00473132
0.00501055
0.00535569
0.00567724
0.00589891
0.00596783
0.00590688
0.00578176
0.00564695
0.00553373
0.00545686
0.00527254
0.00467228
0.004306
0.00147935
0.00366828
0.00230488
0.0036686
0.00355182
0.00352007
0.00344996
0.00344666
0.00345446
0.0034512
0.00343974
0.00342832
0.00354946
0.00383934
0.004059
0.0041936
0.00425576
0.00427219
0.00426533
0.00425123
0.0042406
0.00424079
0.00425837
0.00430105
0.00437782
0.00449469
0.00462697
0.00478013
0.00493738
0.00505941
0.00510933
0.00508339
0.00500211
0.00488349
0.00472617
0.00432133
0.00368292
0.00360233
0.00132837
0.00172586
0.00204954
0.00268923
0.00119832
0.00113528
0.00113966
0.00117453
0.00121175
0.00123595
0.00124873
0.00124411
0.00120089
0.00113101
0.00106966
0.00102563
0.0010034
0.000995502
0.000993722
0.00099305
0.000991257
0.000987949
0.000983642
0.000979139
0.000975244
0.000972662
0.000971965
0.00097358
0.00098148
0.000995302
0.00101391
0.00103614
0.00106025
0.00108305
0.00109916
0.00110076
0.00107826
0.00104785
0.00100988
0.00102204
0.00096854
)
;

boundaryField
{
    floor
    {
        type            nutkWallFunction;
        Cmu             0.09;
        kappa           0.41;
        E               9.8;
        value           nonuniform List<scalar> 
29
(
6.58801e-05
3.15772e-05
3.36993e-05
3.48994e-05
3.09199e-05
2.72459e-05
2.57167e-05
2.4295e-05
2.35912e-05
2.05621e-05
1.6656e-05
1.56444e-05
1.68801e-05
2.20925e-05
2.50303e-05
2.87522e-05
3.44916e-05
3.89846e-05
4.06721e-05
3.67059e-05
3.67058e-05
5.32424e-05
6.3737e-05
0.000105928
6.588e-05
3.15771e-05
5.60091e-05
8.81118e-05
9.71217e-05
)
;
    }
    ceiling
    {
        type            nutkWallFunction;
        Cmu             0.09;
        kappa           0.41;
        E               9.8;
        value           nonuniform List<scalar> 
43
(
0.000203453
0.000238982
0.000307503
0.000143855
0.000136549
0.000137056
0.000141095
0.000145387
0.000148171
0.000149635
0.000149096
0.000144111
0.000136025
0.000128886
0.000123734
0.000121127
0.000120201
0.000119992
0.000119912
0.0001197
0.000119309
0.000118801
0.000118269
0.000117809
0.000117504
0.000117421
0.000117611
0.000118543
0.000120171
0.00012236
0.000124969
0.000127791
0.000130455
0.000132333
0.000132521
0.0001299
0.000126346
0.000121892
0.00012332
0.000117019
0.000439947
0.000490936
0.000409259
)
;
    }
    sWall
    {
        type            nutkWallFunction;
        Cmu             0.09;
        kappa           0.41;
        E               9.8;
        value           uniform 0.0002035;
    }
    nWall
    {
        type            nutkWallFunction;
        Cmu             0.09;
        kappa           0.41;
        E               9.8;
        value           nonuniform List<scalar> 6(0.000119817 0.000138811 0.000140322 0.000175846 0.000158738 0.000117024);
    }
    sideWalls
    {
        type            empty;
    }
    glass1
    {
        type            nutkWallFunction;
        Cmu             0.09;
        kappa           0.41;
        E               9.8;
        value           nonuniform List<scalar> 9(0.00019796 0.000311658 0.000337456 0.00035179 0.000363158 0.000374279 0.000387452 0.000406329 0.000440454);
    }
    glass2
    {
        type            nutkWallFunction;
        Cmu             0.09;
        kappa           0.41;
        E               9.8;
        value           nonuniform List<scalar> 2(0.00015289 0.000175078);
    }
    sun
    {
        type            nutkWallFunction;
        Cmu             0.09;
        kappa           0.41;
        E               9.8;
        value           nonuniform List<scalar> 
14
(
0.000197762
0.000280192
0.000269301
0.000259027
0.000250365
0.000242735
0.000235619
0.000228548
0.000221121
0.00021292
0.000203404
0.000191642
0.000175529
0.000143607
)
;
    }
    heatsource1
    {
        type            nutkWallFunction;
        Cmu             0.09;
        kappa           0.41;
        E               9.8;
        value           nonuniform List<scalar> 3(0.000147413 0.000135771 0.000119811);
    }
    heatsource2
    {
        type            nutkWallFunction;
        Cmu             0.09;
        kappa           0.41;
        E               9.8;
        value           nonuniform List<scalar> 4(5.06191e-05 2.84403e-05 2.84402e-05 5.14377e-05);
    }
    Table_master
    {
        type            nutkWallFunction;
        Cmu             0.09;
        kappa           0.41;
        E               9.8;
        value           nonuniform List<scalar> 9(5.25756e-05 4.47118e-05 3.88267e-05 3.37546e-05 2.92398e-05 2.53998e-05 2.95919e-05 4.55806e-05 5.90798e-05);
    }
    Table_slave
    {
        type            nutkWallFunction;
        Cmu             0.09;
        kappa           0.41;
        E               9.8;
        value           nonuniform List<scalar> 9(6.6778e-05 7.09767e-05 7.49378e-05 7.86182e-05 8.2188e-05 8.60357e-05 8.90981e-05 9.14803e-05 9.26484e-05);
    }
    inlet
    {
        type            calculated;
        value           uniform 3.3541e-05;
    }
    outlet
    {
        type            calculated;
        value           nonuniform List<scalar> 2(0.00172586 0.00204954);
    }
}


// ************************************************************************* //
