/*--------------------------------*- C++ -*----------------------------------*\
  =========                 |
  \\      /  F ield         | OpenFOAM: The Open Source CFD Toolbox
   \\    /   O peration     | Website:  https://openfoam.org
    \\  /    A nd           | Version:  6
     \\/     M anipulation  |
\*---------------------------------------------------------------------------*/
FoamFile
{
    version     2.0;
    format      ascii;
    class       volScalarField;
    location    "700";
    object      nut;
}
// * * * * * * * * * * * * * * * * * * * * * * * * * * * * * * * * * * * * * //

dimensions      [0 2 -1 0 0 0 0];

internalField   nonuniform List<scalar> 
459
(
0.000916677
0.000985772
0.000994432
0.00103676
0.00107463
0.00110874
0.00114056
0.00117178
0.00120025
0.0012179
0.00121999
0.00120254
0.00116495
0.00111323
0.00105819
0.000391753
0.000471369
0.000504537
0.000487974
0.000466569
0.000444042
0.000420873
0.000399133
0.00037946
0.000361813
0.00034599
0.000331812
0.000319043
0.000307364
0.000296382
0.000285495
0.000273742
0.000268202
0.000249834
0.00129273
0.00269604
0.00246722
0.00285869
0.00319967
0.0035532
0.00389315
0.00417784
0.0043965
0.00458344
0.00470067
0.00469783
0.00450588
0.00399299
0.00283559
0.00105193
0.000733733
0.000485022
0.000760114
0.00093372
0.00104745
0.00109533
0.00108701
0.00096382
0.000875802
0.000805522
0.000747415
0.000698513
0.000655775
0.00061663
0.000579469
0.000544037
0.00051468
0.00048464
0.000593086
0.00034167
0.00161554
0.00369521
0.00288218
0.00378257
0.0041309
0.00438542
0.00458381
0.0047495
0.00490769
0.00508021
0.00523615
0.00533628
0.00533985
0.00520416
0.00485934
0.00397907
0.00103328
0.000850128
0.00105696
0.0011966
0.0013085
0.00138245
0.00135543
0.000566878
0.000517744
0.000476746
0.000442437
0.000413529
0.000388969
0.000367963
0.000349976
0.000334669
0.000356166
0.000399356
0.000668184
0.000403529
0.00193702
0.00497579
0.0027743
0.00397996
0.00432495
0.00442827
0.00447264
0.0045383
0.00466003
0.00483569
0.00502741
0.00519791
0.0053095
0.00532177
0.00521897
0.00488893
0.0039022
0.00110691
0.00132726
0.00154326
0.00170757
0.00183532
0.00193569
0.00188437
0.000631108
0.00059962
0.000579836
0.00056553
0.000551507
0.000534945
0.000517761
0.000497881
0.000472341
0.000442255
0.000434268
0.000785299
0.000451669
0.00227023
0.00671337
0.00308716
0.00370986
0.00426359
0.004303
0.00424079
0.00424708
0.00437713
0.00458341
0.00480668
0.00501945
0.00517954
0.00521821
0.00509891
0.00479917
0.00428197
0.00346244
0.00301848
0.00277751
0.00266634
0.00265243
0.0026964
0.00273399
0.00256332
0.00252293
0.00251712
0.0025008
0.00244873
0.00232785
0.0021085
0.00181439
0.00147051
0.00110647
0.000805923
0.000787953
0.000582311
0.000590935
0.000711114
0.000791777
0.00262449
0.00863823
0.00467182
0.00341834
0.00390978
0.00413598
0.00417597
0.00409592
0.00427447
0.00449699
0.00472529
0.00495002
0.00512161
0.00516681
0.00502194
0.00466548
0.00414818
0.00361163
0.00326187
0.00309514
0.00304016
0.00304566
0.00307576
0.00311752
0.00315011
0.00318649
0.00320504
0.00319204
0.00314165
0.00304962
0.00286682
0.00258273
0.00219846
0.0017386
0.00130354
0.000930903
0.000751341
0.000678262
0.00100439
0.000821527
0.00297116
0.0101366
0.00743584
0.00473859
0.00399575
0.00395244
0.00422079
0.00430826
0.00443186
0.00458139
0.00477631
0.00499482
0.00516837
0.0052045
0.00502284
0.00460155
0.00401101
0.00346571
0.00319773
0.00314774
0.00312032
0.00307544
0.00305873
0.00308778
0.00314242
0.00319473
0.0032232
0.00322175
0.00319246
0.00314236
0.00307189
0.00286917
0.00253308
0.00210961
0.00169957
0.00130598
0.0010601
0.000996756
0.00104915
0.00089788
0.00305336
0.00958141
0.00817691
0.00704703
0.00604558
0.00541434
0.005157
0.00487858
0.00473888
0.00477386
0.00493906
0.00515301
0.00530885
0.00529483
0.00502509
0.00449519
0.00380134
0.0032653
0.00313431
0.00301314
0.00287732
0.00280318
0.0027949
0.0028271
0.00287361
0.00291404
0.00293835
0.00294772
0.00295064
0.00296011
0.00298879
0.0029994
0.00275484
0.00243896
0.00215932
0.00201665
0.00211345
0.00254629
0.00332341
0.00145636
0.00298886
0.00359487
0.00404095
0.00423583
0.00431113
0.0042846
0.00426591
0.00435095
0.00456561
0.00486384
0.00517735
0.00542935
0.00552039
0.00535702
0.00487592
0.00414321
0.0033604
0.00298177
0.00275419
0.00254544
0.00242731
0.00238852
0.00239226
0.0024122
0.00243208
0.00244173
0.00243583
0.00241249
0.00237107
0.00231097
0.00223214
0.00213997
0.00205801
0.00200358
0.00200038
0.00204161
0.00206697
0.00201462
0.00189722
0.00136866
0.00183661
0.00341506
0.00418437
0.00463256
0.00502846
0.00538097
0.00565526
0.00583532
0.00592574
0.00589778
0.00562824
0.00505373
0.00412718
0.00318244
0.00262452
0.00231166
0.00206366
0.00193197
0.0018838
0.00187672
0.00188648
0.00190067
0.00191275
0.00191948
0.00192011
0.00191583
0.00190945
0.00190531
0.00190919
0.00192955
0.00195636
0.00199293
0.00203577
0.00206181
0.00203072
0.00192435
0.00175214
0.00113264
0.00211588
0.00429908
0.00527696
0.00560396
0.00589966
0.00616771
0.00607974
0.00586034
0.0056376
0.00531366
0.00450652
0.00340438
0.00248985
0.00196266
0.00165581
0.00146573
0.00137883
0.00134756
0.00134733
0.0013634
0.00138935
0.0014224
0.0014615
0.00150646
0.00155746
0.00161448
0.00167667
0.00174149
0.00181066
0.00188967
0.00197822
0.0020732
0.00216318
0.00223185
0.00223773
0.00229258
0.00227299
0.00114979
0.00183448
0.00194011
0.00201953
0.0021317
0.00200297
0.00184376
0.00165616
0.00145866
0.00133154
0.00121812
0.00109291
0.000949396
0.000797418
0.000646631
0.00053292
0.000476424
0.000459794
0.000462717
0.00047502
0.0004917
0.000510608
0.000531318
0.000553663
0.000577609
0.000603215
0.000630624
0.000660083
0.000691989
0.000726996
0.000766213
0.000810405
0.000858886
0.000912483
0.000972154
0.00103844
0.00111956
0.0011493
0.0011246
0.00105508
0.000981511
)
;

boundaryField
{
    floor
    {
        type            nutkWallFunction;
        Cmu             0.09;
        kappa           0.41;
        E               9.8;
        value           nonuniform List<scalar> 
29
(
0.000127536
4.5668e-05
5.60351e-05
6.02883e-05
5.81697e-05
5.54179e-05
5.25048e-05
4.94891e-05
4.66403e-05
4.40452e-05
4.17028e-05
3.95899e-05
3.7686e-05
3.59624e-05
3.43779e-05
3.28808e-05
3.13895e-05
2.97708e-05
2.90046e-05
2.64486e-05
2.64485e-05
3.90103e-05
4.72173e-05
5.34925e-05
0.000127536
4.5668e-05
5.77776e-05
0.000102919
0.000133216
)
;
    }
    ceiling
    {
        type            nutkWallFunction;
        Cmu             0.09;
        kappa           0.41;
        E               9.8;
        value           nonuniform List<scalar> 
43
(
0.000215178
0.000226744
0.000235398
0.000247642
0.000233701
0.0002163
0.000195572
0.000173461
0.000159056
0.000146071
0.000131579
0.00011473
9.65631e-05
7.81291e-05
6.38896e-05
5.66824e-05
5.45431e-05
5.49223e-05
5.65084e-05
5.86495e-05
6.10655e-05
6.36992e-05
6.65267e-05
6.95412e-05
7.27478e-05
7.6162e-05
7.98116e-05
8.37423e-05
8.80303e-05
9.2805e-05
9.81509e-05
0.000103976
0.000110372
0.000117442
0.000125238
0.000134702
0.000138151
0.000135287
0.000127186
0.000118547
0.000338962
0.000401685
0.000245751
)
;
    }
    sWall
    {
        type            nutkWallFunction;
        Cmu             0.09;
        kappa           0.41;
        E               9.8;
        value           uniform 0.000215237;
    }
    nWall
    {
        type            nutkWallFunction;
        Cmu             0.09;
        kappa           0.41;
        E               9.8;
        value           nonuniform List<scalar> 6(9.59019e-05 9.94917e-05 0.000108636 0.000136229 0.000138218 0.000118553);
    }
    sideWalls
    {
        type            empty;
    }
    glass1
    {
        type            nutkWallFunction;
        Cmu             0.09;
        kappa           0.41;
        E               9.8;
        value           nonuniform List<scalar> 9(0.000110914 0.000154817 0.000191332 0.0002269 0.000263096 0.000300962 0.000337501 0.000346107 0.00033938);
    }
    glass2
    {
        type            nutkWallFunction;
        Cmu             0.09;
        kappa           0.41;
        E               9.8;
        value           nonuniform List<scalar> 2(0.000173299 0.000163367);
    }
    sun
    {
        type            nutkWallFunction;
        Cmu             0.09;
        kappa           0.41;
        E               9.8;
        value           nonuniform List<scalar> 
14
(
0.000110867
0.000119042
0.000120062
0.000125032
0.00012946
0.000133434
0.000137128
0.00014074
0.000144025
0.000146056
0.000146297
0.000144288
0.000139948
0.000133952
)
;
    }
    heatsource1
    {
        type            nutkWallFunction;
        Cmu             0.09;
        kappa           0.41;
        E               9.8;
        value           nonuniform List<scalar> 3(7.12136e-05 8.60884e-05 9.59015e-05);
    }
    heatsource2
    {
        type            nutkWallFunction;
        Cmu             0.09;
        kappa           0.41;
        E               9.8;
        value           nonuniform List<scalar> 4(0.000126801 8.88369e-05 8.88368e-05 0.000124611);
    }
    Table_master
    {
        type            nutkWallFunction;
        Cmu             0.09;
        kappa           0.41;
        E               9.8;
        value           nonuniform List<scalar> 9(6.81917e-05 6.19755e-05 5.67328e-05 5.23023e-05 4.85356e-05 4.53094e-05 4.25294e-05 4.01328e-05 3.80808e-05);
    }
    Table_slave
    {
        type            nutkWallFunction;
        Cmu             0.09;
        kappa           0.41;
        E               9.8;
        value           nonuniform List<scalar> 9(7.62201e-05 7.22976e-05 6.98203e-05 6.80225e-05 6.62547e-05 6.41599e-05 6.19778e-05 5.94423e-05 5.61662e-05);
    }
    inlet
    {
        type            calculated;
        value           uniform 0.000100623;
    }
    outlet
    {
        type            calculated;
        value           nonuniform List<scalar> 2(0.00183448 0.00194011);
    }
}


// ************************************************************************* //
