/*--------------------------------*- C++ -*----------------------------------*\
  =========                 |
  \\      /  F ield         | OpenFOAM: The Open Source CFD Toolbox
   \\    /   O peration     | Website:  https://openfoam.org
    \\  /    A nd           | Version:  6
     \\/     M anipulation  |
\*---------------------------------------------------------------------------*/
FoamFile
{
    version     2.0;
    format      ascii;
    class       surfaceScalarField;
    location    "600";
    object      phi;
}
// * * * * * * * * * * * * * * * * * * * * * * * * * * * * * * * * * * * * * //

dimensions      [1 0 -1 0 0 0 0];

internalField   nonuniform List<scalar> 
852
(
-0.00290062
0.0029574
-0.00387837
0.000977751
-0.00464795
0.000769589
-0.00527309
0.00062514
-0.00572611
0.000453024
-0.0059873
0.000261201
-0.00603438
4.70867e-05
-0.00584305
-0.000191327
-0.00540288
-0.000440165
-0.00473817
-0.000664708
-0.00390768
-0.000830483
-0.0029896
-0.000918082
-0.002053
-0.000936593
-0.00110198
-0.000951017
-0.00110055
-0.000601938
0.000604725
-0.000200352
-0.000401579
0.00041291
-0.000613254
0.00084891
-0.000435993
0.00111936
-0.000270443
0.00127615
-0.000156778
0.00135644
-8.0283e-05
0.00139602
-3.95789e-05
0.00141755
-2.15148e-05
0.0014293
-1.1745e-05
0.00143419
-4.88647e-06
0.00143299
1.21744e-06
0.00142343
9.56253e-06
0.00139694
2.6497e-05
0.00133129
6.56654e-05
0.00118963
0.000141666
0.000959596
0.000230043
0.000687261
0.000272345
0.000691042
-0.00206769
0.00517778
-0.00303452
0.00194458
-0.00382875
0.00156383
-0.00444087
0.00123726
-0.00488139
0.000893543
-0.00514241
0.00052223
-0.00520076
0.000105443
-0.00503044
-0.000361646
-0.00462755
-0.000843049
-0.00402813
-0.00126413
-0.00329946
-0.00155914
-0.00252112
-0.00169643
-0.00177233
-0.00168537
-0.00116384
-0.0015595
-0.000975394
-0.00128899
-0.000260807
-0.000714633
-0.000260852
0.0005302
8.23096e-05
0.000926252
-0.000797625
0.00113535
-0.000822343
0.00131859
-0.000619225
0.00144769
-0.000399542
0.00151363
-0.000222707
0.00151976
-8.64063e-05
0.00152171
-4.15246e-05
0.00152433
-2.41258e-05
0.00152656
-1.39611e-05
0.00152802
-6.33844e-06
0.00152846
7.82569e-07
0.0015269
1.1137e-05
0.00151969
3.37122e-05
0.00147806
0.000107302
0.00130295
0.00031679
0.00100044
0.00053256
0.000621411
0.000651385
0.00132205
-0.00145105
0.00686197
-0.00229391
0.00278744
-0.00299553
0.00226545
-0.00351369
0.00175543
-0.00389414
0.001274
-0.00412885
0.000756946
-0.00418223
0.000158818
-0.00401065
-0.000533218
-0.00361606
-0.00123763
-0.00305378
-0.00182641
-0.00239946
-0.00221345
-0.00172803
-0.00236785
-0.00110585
-0.00230755
-0.000601711
-0.00206363
-0.00025387
-0.00163683
6.26054e-05
-0.0010311
-0.000198242
0.00142658
-0.00133626
0.0016392
-0.00101024
0.00162751
-0.000810651
0.00163502
-0.000626721
0.00165653
-0.000421051
0.0016435
-0.000209669
0.00155726
0.00151589
0.00149193
0.00147813
0.00147195
0.0014729
0.00148419
0.00151807
0.00162553
0.00134507
0.000597266
0.00100054
0.00087709
0.000556747
0.00109519
0.00189335
-0.00102061
0.00818382
-0.0017014
0.00346823
-0.00216084
0.0027249
-0.00249829
0.00209288
-0.00275502
0.00153074
-0.00291628
0.000918216
-0.00292363
0.000166173
-0.00271182
-0.000745024
-0.00230886
-0.00164059
-0.00179676
-0.0023385
-0.00125075
-0.00275947
-0.000728242
-0.00289036
-0.000264466
-0.00277133
0.000126021
-0.00245412
0.000468105
-0.00197891
0.000852662
-0.00141566
0.00153476
-0.000880338
0.00224077
-0.000698493
0.00180454
-0.000900029
0.0017087
-0.000914383
0.00164079
-0.000742735
0.00158685
-0.000572777
0.00157457
-0.000408763
0.0016101
-0.000245189
0.00172116
-0.000111213
0.0018062
-8.51762e-05
0.00188107
-7.5018e-05
0.00194215
-6.12234e-05
0.00197379
-3.17795e-05
0.00195329
2.03516e-05
0.00185568
9.74641e-05
0.00164956
0.000205985
0.00128227
0.000367144
0.00114923
0.000730319
0.000854289
0.00117204
0.000395771
0.00155372
0.00230817
-0.000721516
0.00926412
-0.00125237
0.00399909
-0.00134629
0.00281883
-0.0014215
0.00216809
-0.00148909
0.00159833
-0.00151906
0.000948199
-0.00140074
4.78508e-05
-0.00109337
-0.00105239
-0.000691594
-0.00204237
-0.000278158
-0.00275194
9.51623e-05
-0.00313279
0.00040274
-0.00319793
0.000640618
-0.0030092
0.000825804
-0.0026393
0.000998251
-0.00215135
0.00120373
-0.00162113
0.00147465
-0.00115125
0.00165832
-0.000882157
0.00157552
-0.000817232
0.00142262
-0.000761478
0.00130942
-0.000629519
0.00122816
-0.000491516
0.00118774
-0.000368334
0.00119974
-0.000257181
0.00126951
-0.00018097
0.00134086
-0.000156519
0.00141539
-0.000149534
0.00148773
-0.000133557
0.00154594
-8.99826e-05
0.00156933
-3.02566e-06
0.00153708
0.000129722
0.00143912
0.000303958
0.00127744
0.000528837
0.00113453
0.000873241
0.000978836
0.00132774
0.000637602
0.00189496
0.000525626
0.00242016
-0.00100298
0.00152841
-0.00146252
0.000459353
-0.0014149
-0.000635079
0.0103064
-0.00101509
0.0043791
-0.000609241
0.00241298
-0.000300147
0.001859
-9.31573e-05
0.00139135
0.000119967
0.000735082
0.000453548
-0.000285723
0.000843961
-0.00144279
0.00117889
-0.0023773
0.00140998
-0.00298303
0.00153007
-0.00325288
0.00155892
-0.00322679
0.00152292
-0.0029732
0.00144956
-0.00256594
0.00137431
-0.0020761
0.00132665
-0.00157346
0.00130868
-0.00113328
0.0012599
-0.000833373
0.00112435
-0.000681674
0.000947224
-0.000584341
0.000803357
-0.000485645
0.00070763
-0.00039578
0.000662546
-0.000323242
0.000671389
-0.000266014
0.00072362
-0.000233192
0.000794822
-0.000227711
0.000876358
-0.00023106
0.000964069
-0.000221257
0.00105186
-0.000177758
0.00112797
-7.9133e-05
0.00117392
8.37844e-05
0.00118603
0.000291862
0.00117448
0.000540401
0.001189
0.000858723
0.00127792
0.00123883
0.00145312
0.00171977
0.00188454
0.00198875
0.00213452
0.00127844
0.00174277
0.000851107
0.000385245
-0.00072306
0.01148
-0.000636188
0.00429224
0.000441206
0.0013356
0.00110766
0.00119256
0.00156551
0.000933514
0.00208205
0.00021855
0.00262699
-0.000830663
0.00300388
-0.00181968
0.00316743
-0.00254085
0.00313101
-0.00294662
0.00293255
-0.00305442
0.00262337
-0.0029176
0.00225563
-0.00260547
0.00187363
-0.00218393
0.00151577
-0.00171824
0.00120711
-0.00126479
0.000952415
-0.000878578
0.000732617
-0.000613569
0.000519519
-0.000468568
0.000328152
-0.000392966
0.000184865
-0.000342349
9.5961e-05
-0.000306866
5.70413e-05
-0.000284313
6.31723e-05
-0.000272134
0.000102668
-0.000272677
0.000160351
-0.000285383
0.000228859
-0.000299557
0.000308784
-0.000301171
0.000405058
-0.000274021
0.000522511
-0.000196575
0.000647316
-4.1009e-05
0.000768514
0.000170675
0.000897896
0.000411031
0.00107681
0.00067982
0.00135471
0.000960948
0.00179378
0.00128071
0.00245678
0.00132576
0.00299146
0.000743778
0.0030218
0.000820778
0.00346976
0.00252307
0.00946063
0.00317727
0.00363804
0.00346228
0.0010506
0.00387322
0.000781615
0.00437458
0.000432164
0.00496909
-0.000375952
0.00536939
-0.00123096
0.00543621
-0.0018865
0.00518833
-0.00229297
0.00469632
-0.00245462
0.00404452
-0.00240263
0.00331561
-0.00218869
0.00257974
-0.0018696
0.0018835
-0.00148769
0.00126542
-0.00110015
0.000746666
-0.000746033
0.000334736
-0.00046664
2.55656e-05
-0.00030439
-0.00020429
-0.000238704
-0.000370515
-0.000226731
-0.000484713
-0.000228142
-0.000556939
-0.00023463
-0.000596227
-0.000245014
-0.000609495
-0.000258855
-0.000605181
-0.000276981
-0.000592311
-0.000298241
-0.000574908
-0.000316949
-0.000550803
-0.000325265
-0.000510869
-0.000313943
-0.000435403
-0.000272031
-0.000292678
-0.000183722
-0.000104841
-1.71504e-05
0.000110431
0.000195769
0.000381147
0.000409116
0.000721838
0.000620267
0.00117637
0.000826189
0.00167897
0.000823167
0.00189331
0.000529445
0.00112938
0.00158473
0.00485201
0.0100124
0.0136422
0.0123472
0.00234554
0.0114113
0.00171755
0.0107136
0.00112985
0.00999679
0.000340875
0.00905434
-0.00028853
0.00792769
-0.000759866
0.00670412
-0.00106941
0.00545119
-0.0012017
0.00422806
-0.00117952
0.00308642
-0.00104705
0.00206631
-0.000849484
0.00117253
-0.000593902
0.000425738
-0.000353351
-0.000151117
-0.000169168
-0.000543685
-7.40641e-05
-0.000788346
-5.9719e-05
-0.000950408
-7.66316e-05
-0.00107069
-0.000106443
-0.00116342
-0.000135401
-0.00123723
-0.000160802
-0.00129844
-0.000183796
-0.00135234
-0.000204943
-0.0014053
-0.000224011
-0.00146458
-0.000238943
-0.00153679
-0.000244733
-0.00162847
-0.000233568
-0.00174787
-0.000194538
-0.00190573
-0.000114161
-0.00210879
1.93557e-05
-0.00234084
0.000214913
-0.00262974
0.000484676
-0.00306563
0.000845013
-0.00374052
0.00129518
-0.00472114
0.00180682
-0.00612368
0.00222572
-0.00782735
0.00223313
-0.00735727
0.00111466
-0.00222525
0.00475439
0.00371279
0.00417299
0.00229887
0.00485907
0.000443681
0.00500129
0.00019856
0.00467288
3.98203e-05
0.00410275
-0.000189776
0.00337912
-0.000345797
0.00256379
-0.000386374
0.00171929
-0.000335013
0.000895673
-0.00022342
0.000120879
-7.46808e-05
-0.000539266
6.62568e-05
-0.00101196
0.000119349
-0.00130317
0.000122057
-0.00147022
9.29973e-05
-0.0015783
4.83721e-05
-0.00166246
7.54232e-06
-0.00174116
-2.77341e-05
-0.00181947
-5.70808e-05
-0.00190037
-7.98913e-05
-0.0019854
-9.87522e-05
-0.00207598
-0.00011435
-0.0021742
-0.000125781
-0.00228206
-0.000131072
-0.00240033
-0.000126452
-0.00252766
-0.000106233
-0.00265943
-6.27549e-05
-0.00278746
1.38815e-05
-0.00289958
0.000131486
-0.00299175
0.000307101
-0.00307399
0.000566927
-0.00315378
0.000924808
-0.00322894
0.00137034
-0.0032557
0.00183359
-0.00318275
0.00215277
-0.00283847
0.00188886
-0.00157019
-0.000153614
-0.00372193
-0.000565596
0.0043381
0.000491516
0.00124171
0.000449635
0.000485532
0.000383051
0.000265136
0.000281486
0.000141393
4.2008e-05
4.97187e-05
-0.000331297
2.7538e-05
-0.000771644
5.39921e-05
-0.00120456
9.79149e-05
-0.00157078
0.000142818
-0.00182412
0.000178673
-0.00195446
0.000196606
-0.00201963
0.000184526
-0.00205201
0.000154451
-0.00207602
0.000117016
-0.00210739
7.97564e-05
-0.00214791
4.80695e-05
-0.00219997
2.43421e-05
-0.00226251
5.47089e-06
-0.00233306
-9.3285e-06
-0.0024106
-2.12082e-05
-0.00249396
-3.09722e-05
-0.00258124
-3.8489e-05
-0.00266945
-4.28509e-05
-0.00275373
-4.21645e-05
-0.00282656
-3.33861e-05
-0.0028768
-1.25042e-05
-0.0028911
2.81942e-05
-0.00286022
0.000100612
-0.00276306
0.00020995
-0.00256765
0.000371534
-0.00224723
0.000604397
-0.00178424
0.000907366
-0.00115376
0.00120312
-0.000182432
0.00118146
0.00114097
0.000565478
0.00158935
-0.000601986
-0.00205199
-0.00730164
-0.0101469
-0.00576598
-0.00450262
-0.00400343
-0.00372893
-0.00358124
-0.00352762
-0.00349804
-0.00344349
-0.00334628
-0.0032053
-0.00302954
-0.00283686
-0.00265718
-0.00250832
-0.00239744
-0.00232421
-0.00228292
-0.00226553
-0.00226712
-0.00228357
-0.00231192
-0.00235002
-0.00239559
-0.00244546
-0.00249453
-0.0025347
-0.00255384
-0.00253209
-0.00243773
-0.00223382
-0.00186813
-0.00126937
-0.000367461
0.000830333
0.00200641
0.00256632
0.00195844
)
;

boundaryField
{
    floor
    {
        type            calculated;
        value           nonuniform List<scalar> 
29
(
0
0
0
0
0
0
0
0
0
0
0
0
0
0
0
0
0
0
0
0
-3.77089e-06
-9.58222e-06
-1.45438e-05
-1.90416e-05
-1.42084e-06
-2.7797e-06
-7.77684e-06
-8.0012e-06
-7.50936e-06
)
;
    }
    ceiling
    {
        type            calculated;
        value           nonuniform List<scalar> 
43
(
-4.5462e-05
-4.41532e-05
-4.28395e-05
-2.1641e-05
-1.36334e-05
-9.34707e-06
-6.27271e-06
-3.89028e-06
-2.02971e-06
-5.46839e-07
7.14486e-07
1.85303e-06
2.92479e-06
3.94205e-06
4.85718e-06
5.60143e-06
6.14983e-06
6.5313e-06
6.79071e-06
6.9639e-06
7.07492e-06
7.13272e-06
7.15201e-06
7.13942e-06
7.09634e-06
7.02394e-06
6.92352e-06
6.79623e-06
6.64253e-06
6.46088e-06
6.26024e-06
6.05363e-06
5.84686e-06
5.64796e-06
5.47225e-06
5.33782e-06
5.38678e-06
5.58328e-06
5.90158e-06
7.0357e-06
1.14216e-05
8.27724e-06
-5.97486e-05
)
;
    }
    sWall
    {
        type            calculated;
        value           uniform -0.000274452;
    }
    nWall
    {
        type            calculated;
        value           nonuniform List<scalar> 6(-4.78101e-05 -5.73649e-05 -6.27122e-05 -7.34992e-05 -8.05824e-05 -0.000100569);
    }
    sideWalls
    {
        type            empty;
        value           nonuniform 0();
    }
    glass1
    {
        type            calculated;
        value           nonuniform List<scalar> 9(-5.67718e-05 -0.000152687 -0.000233129 -0.000301235 -0.000358783 -0.000407175 -0.000450597 -0.000503652 -0.00056319);
    }
    glass2
    {
        type            calculated;
        value           nonuniform List<scalar> 2(-0.000252855 -0.00028001);
    }
    sun
    {
        type            calculated;
        value           uniform 0;
    }
    heatsource1
    {
        type            calculated;
        value           nonuniform List<scalar> 3(2.04015e-07 2.03969e-07 2.03984e-07);
    }
    heatsource2
    {
        type            calculated;
        value           nonuniform List<scalar> 4(5.10492e-08 5.11894e-08 0 0);
    }
    Table_master
    {
        type            calculated;
        value           nonuniform List<scalar> 9(-1.53011e-07 -1.53075e-07 -1.53099e-07 -1.53116e-07 -1.53128e-07 -1.53136e-07 -1.53138e-07 -1.53132e-07 -1.531e-07);
    }
    Table_slave
    {
        type            calculated;
        value           nonuniform List<scalar> 9(1.52899e-07 1.52913e-07 1.52892e-07 1.52874e-07 1.52867e-07 1.52872e-07 1.52886e-07 1.52928e-07 1.53008e-07);
    }
    inlet
    {
        type            calculated;
        value           uniform -0.00612169;
    }
    outlet
    {
        type            calculated;
        value           nonuniform List<scalar> 2(0.00762156 0.00288944);
    }
}


// ************************************************************************* //
