/*--------------------------------*- C++ -*----------------------------------*\
  =========                 |
  \\      /  F ield         | OpenFOAM: The Open Source CFD Toolbox
   \\    /   O peration     | Website:  https://openfoam.org
    \\  /    A nd           | Version:  6
     \\/     M anipulation  |
\*---------------------------------------------------------------------------*/
FoamFile
{
    version     2.0;
    format      ascii;
    class       volScalarField;
    location    "400";
    object      alphat;
}
// * * * * * * * * * * * * * * * * * * * * * * * * * * * * * * * * * * * * * //

dimensions      [1 -1 -1 0 0 0 0];

internalField   nonuniform List<scalar> 
459
(
0.000877615
0.000934153
0.000887255
0.000888207
0.000893998
0.000893138
0.000881123
0.000865558
0.000852979
0.000845311
0.0008425
0.000843606
0.000847135
0.000850637
0.000848198
0.000483356
0.000507343
0.000493596
0.000456738
0.000415219
0.000394217
0.000360083
0.000354006
0.000362592
0.000380073
0.000395206
0.000394818
0.0003884
0.000381472
0.000371625
0.000359919
0.000341498
0.000321131
0.000286592
0.00141194
0.00354731
0.00339425
0.00358496
0.00367747
0.00380112
0.00409845
0.00417957
0.00405705
0.00385642
0.00363126
0.00337597
0.00304868
0.00257161
0.00185001
0.0009614
0.00062763
0.000635825
0.00196035
0.00196333
0.00165664
0.00133554
0.00100294
0.000724625
0.000801765
0.00100584
0.00122557
0.00137809
0.00140908
0.00133697
0.00121933
0.00112868
0.00115745
0.000986054
0.000834416
0.000385071
0.0017654
0.00584505
0.00574763
0.00582065
0.0051739
0.00453767
0.00492393
0.0054883
0.00566081
0.00551034
0.00523114
0.00488137
0.00443807
0.00383355
0.00300012
0.0019999
0.00105952
0.000871973
0.00269148
0.00251431
0.001943
0.00133466
0.000789048
0.00038981
0.000407234
0.000436032
0.000461675
0.000483286
0.000504195
0.000530828
0.00057893
0.000667925
0.00201382
0.00209089
0.00229523
0.000642909
0.00198352
0.00340799
0.00390109
0.0046448
0.00540802
0.00556981
0.00523564
0.00565762
0.00629128
0.0064557
0.00636984
0.00618015
0.00588802
0.00542027
0.00465941
0.00351067
0.00210734
0.00110894
0.00278986
0.00372942
0.00323262
0.00247651
0.00175529
0.00117656
0.000795392
0.000785901
0.000779026
0.00077455
0.000774202
0.000779596
0.000792951
0.00081931
0.000872644
0.00285582
0.00296733
0.00301536
0.000872551
0.00336826
0.00316608
0.00316346
0.00356747
0.00443398
0.00521723
0.00522709
0.00540841
0.00622789
0.0067653
0.00698049
0.00711025
0.00720649
0.00725475
0.00721629
0.00704123
0.00670279
0.0062829
0.00621668
0.00595347
0.00557529
0.00523129
0.00495659
0.00473389
0.00452847
0.00441526
0.00431117
0.00420883
0.00411
0.00401786
0.00393657
0.00387355
0.00384686
0.00392382
0.0035995
0.00297386
0.00204895
0.000896076
0.000989456
0.00107219
0.00395815
0.0038896
0.00338625
0.00335342
0.0040215
0.00488651
0.0051641
0.00506497
0.00575366
0.00644322
0.0068494
0.00722098
0.00760203
0.00796545
0.0082739
0.00847548
0.00850588
0.00833156
0.00803263
0.00767784
0.00734167
0.00705632
0.0068135
0.00658932
0.00637679
0.0061724
0.00597029
0.00577079
0.00557604
0.00538839
0.00520965
0.00504007
0.00487481
0.0046904
0.00441462
0.00400788
0.00354473
0.00331247
0.00350267
0.00140204
0.00453122
0.004711
0.00384506
0.00334209
0.0039009
0.0048078
0.00514434
0.00498839
0.00520912
0.00573644
0.00611081
0.00657842
0.00714295
0.00773641
0.00829435
0.00874961
0.00902386
0.00906593
0.00892003
0.00867927
0.00841558
0.00815541
0.00790402
0.00765749
0.00740994
0.0071582
0.00690394
0.00665048
0.00640172
0.00616192
0.00593569
0.0057284
0.00554679
0.00539653
0.00527277
0.00515009
0.00500166
0.0049937
0.00552975
0.00170525
0.00520871
0.00593805
0.00534029
0.00345115
0.00415443
0.00508348
0.00536059
0.00511661
0.00500166
0.00507823
0.00526311
0.0056655
0.00623774
0.00691468
0.00762863
0.00829605
0.00881817
0.00910444
0.00918157
0.00911784
0.00897611
0.0087933
0.00858855
0.0083684
0.00813306
0.00788365
0.00762432
0.00736043
0.00709769
0.00684187
0.0065987
0.00637423
0.00617568
0.00601228
0.00589745
0.00585343
0.00589328
0.00597731
0.00670307
0.00200881
0.00619145
0.00784322
0.012734
0.00434125
0.00409968
0.00546955
0.0057169
0.00532516
0.00506117
0.00493616
0.00507997
0.00543338
0.00591551
0.00648373
0.00710885
0.00774664
0.00832105
0.00875151
0.00901461
0.00913395
0.00914636
0.00908592
0.00897682
0.00883214
0.00865734
0.00845739
0.00823848
0.00800725
0.00777028
0.00753372
0.00730302
0.00708282
0.00687682
0.00668788
0.00652054
0.0063915
0.00634416
0.00642747
0.00679712
0.00202069
0.0217072
0.0120906
0.00410969
0.00546196
0.00588016
0.00564475
0.005505
0.00554206
0.00581471
0.0062702
0.00681718
0.00737216
0.00787974
0.00831836
0.00868771
0.00898314
0.00920522
0.00935738
0.00944106
0.0094668
0.00944251
0.00937289
0.00926425
0.00912444
0.0089613
0.00878175
0.00859167
0.00839598
0.00819872
0.00800293
0.0078105
0.00762181
0.00743523
0.00724544
0.00703685
0.00675308
0.00595584
0.00174038
0.00886424
0.0117253
0.00792652
0.0060406
0.00525859
0.00500563
0.00512409
0.00555269
0.00623041
0.00705058
0.00787307
0.00857615
0.00908621
0.00939796
0.00957582
0.00967954
0.00974828
0.0098013
0.00984434
0.00987635
0.00988909
0.00986389
0.00980713
0.00972732
0.0096316
0.00952508
0.00941111
0.00929183
0.00916838
0.00904086
0.0089079
0.0087659
0.00860835
0.0084251
0.00819416
0.00783332
0.00686691
0.002173
0.0015191
0.00184633
0.0051741
0.00471677
0.00414105
0.00362679
0.00321755
0.00289572
0.00264295
0.00245188
0.00232086
0.00224835
0.00222615
0.00223748
0.00226459
0.00229298
0.00231194
0.00231991
0.00231902
0.00231237
0.00230269
0.00229149
0.00227944
0.00226818
0.00225651
0.00224413
0.00223116
0.00221785
0.00220445
0.00219109
0.00217788
0.00216481
0.00215176
0.00213836
0.00212385
0.00210708
0.00208692
0.00205969
0.00198499
0.00174883
)
;

boundaryField
{
    floor
    {
        type            compressible::alphatWallFunction;
        Prt             0.85;
        value           nonuniform List<scalar> 
29
(
0.000120966
6.68523e-05
7.05268e-05
6.84173e-05
6.27286e-05
5.62432e-05
5.29225e-05
4.74984e-05
4.6517e-05
4.78775e-05
5.06522e-05
5.30481e-05
5.29918e-05
5.19863e-05
5.08951e-05
4.93349e-05
4.74701e-05
4.45185e-05
4.12287e-05
3.5594e-05
3.55935e-05
5.13786e-05
9.08291e-05
0.000124396
0.000120965
6.68514e-05
8.99142e-05
0.000124367
0.000157833
)
;
    }
    ceiling
    {
        type            compressible::alphatWallFunction;
        Prt             0.85;
        value           nonuniform List<scalar> 
43
(
0.000214146
0.000257609
0.000668375
0.000614107
0.000545031
0.000482507
0.000432112
0.000392015
0.000360197
0.000335933
0.000319176
0.000309857
0.000306992
0.000308442
0.000311922
0.000315563
0.000317991
0.000319008
0.000318889
0.000318031
0.000316784
0.000315342
0.000313789
0.000312336
0.00031083
0.00030923
0.000307554
0.000305834
0.0003041
0.000302372
0.000300661
0.000298968
0.000297277
0.000295541
0.00029366
0.000291487
0.000288871
0.000285334
0.000275612
0.000244596
0.000787447
0.00097686
0.00109207
)
;
    }
    sWall
    {
        type            compressible::alphatWallFunction;
        Prt             0.85;
        value           uniform 0.000213316;
    }
    nWall
    {
        type            compressible::alphatWallFunction;
        Prt             0.85;
        value           nonuniform List<scalar> 6(0.000152572 0.00019793 0.000238569 0.000243258 0.000299796 0.00024438);
    }
    sideWalls
    {
        type            empty;
    }
    glass1
    {
        type            compressible::alphatWallFunction;
        Prt             0.85;
        value           nonuniform List<scalar> 9(0.000122487 0.000195837 0.000242746 0.000271372 0.000448032 0.000520171 0.000589074 0.000669428 0.000784237);
    }
    glass2
    {
        type            compressible::alphatWallFunction;
        Prt             0.85;
        value           nonuniform List<scalar> 2(0.000278832 0.000280415);
    }
    sun
    {
        type            compressible::alphatWallFunction;
        Prt             0.85;
        value           nonuniform List<scalar> 
14
(
0.000125114
0.000133161
0.000126487
0.00012663
0.000127463
0.000127347
0.00012564
0.000123423
0.000121629
0.000120536
0.000120138
0.000120301
0.000120811
0.000121316
)
;
    }
    heatsource1
    {
        type            compressible::alphatWallFunction;
        Prt             0.85;
        value           nonuniform List<scalar> 3(0.00012763 0.00014086 0.000152511);
    }
    heatsource2
    {
        type            compressible::alphatWallFunction;
        Prt             0.85;
        value           nonuniform List<scalar> 4(0.000137012 8.8642e-05 8.8641e-05 0.000150818);
    }
    Table_master
    {
        type            compressible::alphatWallFunction;
        Prt             0.85;
        value           nonuniform List<scalar> 9(5.22092e-05 5.495e-05 5.94606e-05 6.3446e-05 6.67815e-05 6.99853e-05 7.40307e-05 8.12801e-05 9.45193e-05);
    }
    Table_slave
    {
        type            compressible::alphatWallFunction;
        Prt             0.85;
        value           nonuniform List<scalar> 9(0.00011327 0.000111885 0.000110878 0.00011022 0.000110161 0.000110936 0.000112864 0.000116665 0.000124318);
    }
    inlet
    {
        type            fixedValue;
        value           uniform 1.94e-05;
    }
    outlet
    {
        type            zeroGradient;
    }
}


// ************************************************************************* //
