// -*- C++ -*-
// File generated by PyFoam - sorry for the ugliness

FoamFile
{
 version 2.0;
 format ascii;
 class volScalarField;
 location "20";
 object T;
}

dimensions [ 0 0 0 1 0 0 0 ];

internalField nonuniform List<scalar> 459
(
  304.888
  304.578
  304.256
  304.26
  304.355
  304.483
  304.621
  304.753
  304.873
  304.982
  305.076
  305.155
  305.215
  305.254
  305.257
  305.228
  305.27
  305.29
  305.297
  305.299
  305.295
  305.287
  305.282
  305.28
  305.279
  305.278
  305.278
  305.278
  305.279
  305.28
  305.282
  305.276
  305.259
  305.236
  304.584
  303.976
  303.656
  303.729
  303.91
  304.122
  304.338
  304.546
  304.736
  304.902
  305.039
  305.143
  305.217
  305.262
  305.282
  305.308
  305.336
  305.294
  305.316
  305.324
  305.328
  305.33
  305.33
  305.33
  305.33
  305.331
  305.332
  305.332
  305.332
  305.331
  305.33
  305.326
  305.323
  305.318
  305.311
  305.295
  304.226
  303.488
  303.179
  303.388
  303.667
  303.946
  304.212
  304.464
  304.69
  304.88
  305.031
  305.142
  305.219
  305.266
  305.293
  305.314
  305.332
  305.32
  305.332
  305.336
  305.338
  305.34
  305.341
  305.342
  305.345
  305.346
  305.347
  305.347
  305.347
  305.347
  305.345
  305.341
  305.338
  305.334
  305.33
  305.316
  303.879
  303.096
  302.843
  303.247
  303.618
  303.935
  304.218
  304.482
  304.712
  304.901
  305.047
  305.153
  305.225
  305.271
  305.298
  305.317
  305.33
  305.331
  305.336
  305.34
  305.342
  305.344
  305.345
  305.346
  305.349
  305.351
  305.352
  305.352
  305.352
  305.352
  305.352
  305.352
  305.35
  305.346
  305.342
  305.339
  305.327
  303.58
  302.822
  302.648
  303.297
  303.74
  304.062
  304.331
  304.572
  304.78
  304.949
  305.079
  305.172
  305.236
  305.277
  305.303
  305.32
  305.331
  305.337
  305.341
  305.343
  305.345
  305.346
  305.347
  305.348
  305.35
  305.351
  305.351
  305.351
  305.352
  305.352
  305.351
  305.351
  305.35
  305.348
  305.346
  305.343
  305.338
  305.342
  305.343
  305.344
  303.362
  302.646
  302.54
  303.458
  303.952
  304.257
  304.492
  304.693
  304.866
  305.007
  305.116
  305.194
  305.248
  305.284
  305.307
  305.322
  305.332
  305.338
  305.342
  305.345
  305.346
  305.347
  305.348
  305.349
  305.35
  305.35
  305.351
  305.351
  305.351
  305.351
  305.351
  305.35
  305.35
  305.349
  305.347
  305.346
  305.344
  305.345
  305.348
  305.354
  303.333
  302.522
  302.458
  303.614
  304.16
  304.447
  304.647
  304.809
  304.948
  305.062
  305.15
  305.214
  305.26
  305.291
  305.311
  305.325
  305.334
  305.339
  305.343
  305.345
  305.347
  305.348
  305.348
  305.349
  305.349
  305.35
  305.35
  305.35
  305.35
  305.35
  305.35
  305.35
  305.349
  305.348
  305.348
  305.347
  305.346
  305.347
  305.351
  305.363
  303.388
  302.39
  302.271
  303.699
  304.327
  304.608
  304.781
  304.912
  305.021
  305.111
  305.181
  305.234
  305.271
  305.297
  305.315
  305.327
  305.335
  305.34
  305.343
  305.345
  305.346
  305.347
  305.348
  305.348
  305.348
  305.349
  305.349
  305.349
  305.349
  305.349
  305.349
  305.348
  305.348
  305.348
  305.347
  305.347
  305.347
  305.348
  305.353
  305.376
  303.705
  302.218
  301.871
  303.685
  304.464
  304.745
  304.896
  305.001
  305.086
  305.156
  305.211
  305.252
  305.283
  305.304
  305.319
  305.329
  305.336
  305.34
  305.343
  305.345
  305.346
  305.346
  305.347
  305.347
  305.347
  305.347
  305.347
  305.347
  305.347
  305.347
  305.347
  305.347
  305.347
  305.346
  305.346
  305.346
  305.346
  305.348
  305.353
  305.377
  301.394
  303.576
  304.612
  304.875
  304.999
  305.08
  305.144
  305.196
  305.238
  305.27
  305.294
  305.311
  305.323
  305.331
  305.336
  305.34
  305.342
  305.343
  305.344
  305.344
  305.344
  305.345
  305.345
  305.345
  305.345
  305.345
  305.345
  305.345
  305.344
  305.344
  305.344
  305.344
  305.344
  305.343
  305.343
  305.345
  305.348
  305.358
  304.407
  304.657
  304.891
  305.017
  305.094
  305.15
  305.195
  305.233
  305.263
  305.287
  305.304
  305.317
  305.326
  305.332
  305.335
  305.338
  305.339
  305.34
  305.34
  305.34
  305.34
  305.34
  305.34
  305.34
  305.34
  305.34
  305.34
  305.34
  305.34
  305.34
  305.339
  305.339
  305.339
  305.338
  305.338
  305.339
  305.342
  305.346
  304.843
  304.877
  304.921
  304.999
  305.085
  305.142
  305.181
  305.214
  305.242
  305.265
  305.284
  305.298
  305.309
  305.316
  305.321
  305.324
  305.326
  305.327
  305.327
  305.327
  305.327
  305.327
  305.326
  305.326
  305.326
  305.326
  305.326
  305.326
  305.325
  305.325
  305.325
  305.325
  305.324
  305.324
  305.323
  305.322
  305.321
  305.32
  305.321
  305.321
)
;

boundaryField
{
  floor
  {
    type wallHeatTransfer;
    Tinf uniform 299.7524953703704;
    alphaWall uniform 0.24;
    value nonuniform List<scalar> 29
(
  304.685
  304.523
  304.649
  304.701
  304.719
  304.711
  304.667
  304.562
  304.473
  304.425
  304.408
  304.403
  304.402
  304.407
  304.422
  304.462
  304.538
  304.565
  304.554
  304.503
  304.503
  304.682
  304.779
  304.84
  304.685
  304.523
  304.738
  304.846
  304.901
)
;
  }
  ceiling
  {
    type wallHeatTransfer;
    Tinf uniform 299.7524953703704;
    alphaWall uniform 0.24;
    value nonuniform List<scalar> 43
(
  304.403
  304.458
  304.541
  304.64
  304.726
  304.781
  304.822
  304.856
  304.885
  304.908
  304.927
  304.94
  304.95
  304.957
  304.962
  304.965
  304.966
  304.967
  304.967
  304.967
  304.967
  304.967
  304.966
  304.966
  304.966
  304.965
  304.965
  304.965
  304.964
  304.964
  304.964
  304.963
  304.963
  304.962
  304.961
  304.959
  304.96
  304.96
  304.948
  304.887
  303.374
  302.015
  304.136
)
;
  }
  sWall
  {
    type wallHeatTransfer;
    Tinf uniform 303.1555555555555;
    alphaWall uniform 0.36;
    value uniform 304.633;
  }
  nWall
  {
    type wallHeatTransfer;
    Tinf uniform 303.147237654321;
    alphaWall uniform 0.36;
    value nonuniform List<scalar> 6
(
  305.044
  305.105
  305.152
  305.158
  305.127
  305.077
)
;
  }
  sideWalls
  {
    type empty;
  }
  glass1
  {
    type wallHeatTransfer;
    Tinf uniform 303.1555555555555;
    alphaWall uniform 4.3;
    value nonuniform List<scalar> 9
(
  303.733
  303.722
  303.596
  303.451
  303.324
  303.233
  303.219
  303.238
  303.362
)
;
  }
  glass2
  {
    type wallHeatTransfer;
    Tinf uniform 303.147237654321;
    alphaWall uniform 4.3;
    value nonuniform List<scalar> 2
(
  304.244
  304.269
)
;
  }
  sun
  {
    type wallHeatTransfer;
    Tinf uniform 299.7524953703704;
    alphaWall uniform 0.24;
    value nonuniform List<scalar> 14
(
  304.373
  304.23
  303.95
  303.953
  304.033
  304.139
  304.252
  304.356
  304.45
  304.532
  304.602
  304.657
  304.695
  304.71
)
;
  }
  heatsource1
  {
    type fixedGradient;
    gradient uniform 0;
  }
  heatsource2
  {
    type fixedGradient;
    gradient uniform 0;
  }
  Table_master
  {
    type zeroGradient;
  }
  Table_slave
  {
    type zeroGradient;
  }
  inlet
  {
    type fixedValue;
    value uniform 300.15;
  }
  outlet
  {
    type zeroGradient;
  }
} 	// ************************************************************************* //

