/*--------------------------------*- C++ -*----------------------------------*\
  =========                 |
  \\      /  F ield         | OpenFOAM: The Open Source CFD Toolbox
   \\    /   O peration     | Website:  https://openfoam.org
    \\  /    A nd           | Version:  6
     \\/     M anipulation  |
\*---------------------------------------------------------------------------*/
FoamFile
{
    version     2.0;
    format      ascii;
    class       volScalarField;
    location    "600";
    object      alphat;
}
// * * * * * * * * * * * * * * * * * * * * * * * * * * * * * * * * * * * * * //

dimensions      [1 -1 -1 0 0 0 0];

internalField   nonuniform List<scalar> 
459
(
0.00119278
0.00129792
0.00131718
0.00137824
0.00143423
0.00148589
0.00153547
0.0015859
0.00162658
0.0016498
0.00164942
0.00162066
0.00156277
0.00148294
0.00139571
0.000520911
0.00064286
0.000710031
0.000693307
0.000663393
0.000629036
0.000590975
0.000554599
0.000521719
0.000492407
0.000466306
0.000443014
0.000422243
0.000403422
0.000385919
0.000368856
0.000350891
0.000339544
0.000311071
0.00164227
0.00385309
0.00363123
0.00421712
0.0047757
0.00534403
0.00587175
0.00627765
0.00663146
0.00693234
0.00713362
0.00717321
0.0069547
0.00626911
0.00449924
0.00141543
0.000913534
0.000579241
0.00113261
0.00150737
0.00175536
0.00186969
0.00185382
0.00155459
0.00136719
0.00122789
0.00111825
0.00102928
0.000955158
0.000888423
0.000826032
0.000766223
0.000714271
0.000667456
0.000793387
0.000416769
0.00202017
0.00527069
0.00444321
0.00567612
0.00625735
0.00668251
0.00700806
0.00725981
0.00751797
0.0077983
0.0080701
0.00828224
0.00836296
0.0082348
0.00771784
0.00621368
0.00136983
0.00118343
0.00160446
0.00195652
0.00224403
0.00242235
0.00234452
0.00083795
0.000746459
0.000672609
0.000612646
0.000563478
0.000522744
0.000488732
0.000460319
0.000436976
0.000468915
0.000537973
0.000887866
0.000485998
0.00238654
0.00684081
0.00440991
0.00602809
0.00659926
0.00677967
0.00685499
0.00694155
0.00711185
0.00737312
0.00769633
0.00803125
0.00829441
0.00843459
0.00837304
0.00787159
0.00610645
0.00160935
0.00200193
0.00251721
0.00294545
0.00324323
0.00340798
0.00319308
0.000938205
0.000861967
0.000808552
0.000768598
0.000734564
0.000701959
0.000670488
0.000636983
0.000597286
0.000561636
0.000569252
0.0010156
0.000539097
0.00276114
0.00888167
0.00487322
0.00573201
0.00656023
0.00664954
0.006558
0.00650579
0.00664742
0.00690512
0.00725968
0.00766018
0.00798802
0.00817214
0.00816223
0.00790812
0.00725516
0.00592814
0.00540244
0.00514837
0.00499318
0.00488954
0.00481125
0.00465972
0.0040348
0.00375397
0.00360033
0.00347859
0.0033371
0.00311769
0.00279141
0.00237935
0.00191124
0.00142672
0.00105013
0.00103865
0.000716217
0.000673535
0.000814881
0.000912426
0.00315761
0.0111003
0.00687394
0.00555025
0.00616264
0.00649643
0.00640177
0.00634286
0.00647601
0.00671321
0.00706364
0.0074751
0.00783557
0.00802701
0.00798026
0.00770245
0.00726604
0.00677133
0.00643231
0.00618075
0.0059613
0.00577706
0.00562197
0.00545997
0.00522417
0.00501792
0.00482992
0.00463945
0.00443423
0.00420299
0.00388234
0.0034528
0.00291302
0.00229186
0.00172356
0.00127078
0.000975017
0.00083969
0.00120872
0.000949896
0.00352532
0.0126968
0.00993224
0.00725647
0.00664151
0.00671519
0.00667165
0.00656855
0.00656795
0.00674823
0.00710635
0.00755049
0.00793332
0.00810823
0.00799815
0.00763846
0.0071837
0.00682808
0.00663702
0.00647473
0.0062585
0.00599711
0.00571359
0.00543552
0.00518098
0.00496396
0.00476483
0.00457065
0.00438057
0.00420108
0.00403241
0.00375475
0.00332674
0.00278692
0.00225786
0.00176982
0.00142354
0.00131743
0.00135296
0.00106701
0.0035989
0.0114934
0.0100922
0.00914895
0.00842079
0.00782183
0.00717912
0.00675199
0.00666734
0.00691308
0.00737947
0.00789594
0.00827554
0.00836221
0.0081071
0.00759926
0.00706903
0.00674873
0.00660653
0.00632403
0.00590745
0.00545404
0.00504604
0.0047249
0.00448524
0.00429777
0.00413643
0.00399379
0.00387546
0.00379323
0.00376007
0.0037508
0.00350787
0.00314102
0.00281161
0.0026393
0.00274029
0.00318406
0.00397657
0.00168616
0.00350392
0.00417543
0.00467662
0.00487645
0.0049817
0.00506928
0.00530099
0.00577102
0.00646777
0.00728423
0.00805523
0.00861368
0.00882587
0.00859964
0.0080019
0.00726466
0.00674737
0.00637308
0.00596705
0.00542744
0.0048546
0.00436826
0.00400953
0.00375781
0.00357377
0.00342469
0.00329181
0.00316725
0.00304711
0.00292723
0.0028029
0.00267557
0.00256951
0.00249097
0.0024657
0.00248692
0.00248671
0.00239972
0.00224955
0.0015875
0.0019323
0.00376947
0.00522559
0.00637765
0.0074217
0.00835269
0.00910774
0.00958856
0.00973786
0.00954332
0.00901089
0.00812413
0.00708305
0.00623132
0.00565613
0.00511324
0.00452352
0.00396266
0.00352113
0.00321037
0.00299578
0.00284062
0.00271987
0.00262008
0.00253577
0.00246583
0.00241127
0.00237437
0.00235945
0.00237127
0.00239452
0.00242782
0.0024647
0.00247831
0.00242309
0.00228126
0.00206703
0.00131829
0.00240131
0.00547225
0.00769444
0.00860645
0.00930575
0.00971511
0.00979823
0.00949066
0.00884797
0.00795498
0.00694699
0.00598706
0.00517863
0.00451635
0.00393378
0.00343158
0.00305547
0.00279776
0.00261266
0.00246853
0.00235645
0.00227142
0.00220844
0.00216558
0.0021423
0.00213824
0.00215222
0.0021812
0.00223
0.00229961
0.00238723
0.00248608
0.00257947
0.00264516
0.00263326
0.00267097
0.00269886
0.00134246
0.002094
0.00221811
0.00230673
0.00244329
0.00233266
0.00220885
0.00211239
0.00200894
0.00189188
0.00175132
0.00158513
0.00140143
0.00121583
0.00104645
0.000910338
0.000814635
0.000753505
0.000716659
0.000695942
0.000686226
0.000684369
0.000689122
0.000698791
0.000712466
0.000730151
0.000751974
0.000778159
0.000809077
0.000845373
0.000888219
0.000937417
0.00099239
0.0010539
0.00112271
0.00119874
0.00128896
0.0013213
0.00128993
0.00121089
0.00112785
)
;

boundaryField
{
    floor
    {
        type            compressible::alphatWallFunction;
        Prt             0.85;
        value           nonuniform List<scalar> 
29
(
0.000196921
7.24443e-05
9.07742e-05
0.000100684
9.82274e-05
9.38156e-05
8.87187e-05
8.30322e-05
7.75553e-05
7.25661e-05
6.80853e-05
6.4067e-05
6.04571e-05
5.72176e-05
5.42645e-05
5.15022e-05
4.87938e-05
4.59246e-05
4.41025e-05
3.94949e-05
3.94943e-05
5.63607e-05
6.71016e-05
7.52084e-05
0.000196918
7.24434e-05
8.12708e-05
0.00016788
0.000225644
)
;
    }
    ceiling
    {
        type            compressible::alphatWallFunction;
        Prt             0.85;
        value           nonuniform List<scalar> 
43
(
0.000289239
0.000305273
0.000316665
0.000334241
0.000320148
0.00030426
0.000291814
0.000278391
0.000263106
0.000244613
0.000222531
0.000197816
0.00017247
0.000148951
0.000129729
0.000116013
0.000107152
0.00010177
9.87292e-05
9.72999e-05
9.70269e-05
9.77277e-05
9.91506e-05
0.000101159
0.000103748
0.000106934
0.000110741
0.000115217
0.000120445
0.000126582
0.000133586
0.000141362
0.000150004
0.000159601
0.000170126
0.00018252
0.000186938
0.000182653
0.000171804
0.000160319
0.000467063
0.00054876
0.000328628
)
;
    }
    sWall
    {
        type            compressible::alphatWallFunction;
        Prt             0.85;
        value           uniform 0.000288029;
    }
    nWall
    {
        type            compressible::alphatWallFunction;
        Prt             0.85;
        value           nonuniform List<scalar> 6(0.000129714 0.000135031 0.000151502 0.000186199 0.000189491 0.000159995);
    }
    sideWalls
    {
        type            empty;
    }
    glass1
    {
        type            compressible::alphatWallFunction;
        Prt             0.85;
        value           nonuniform List<scalar> 9(0.000165037 0.000225077 0.000274269 0.000321102 0.000368268 0.00041751 0.000462652 0.000471755 0.000460389);
    }
    glass2
    {
        type            compressible::alphatWallFunction;
        Prt             0.85;
        value           nonuniform List<scalar> 2(0.000234299 0.000221275);
    }
    sun
    {
        type            compressible::alphatWallFunction;
        Prt             0.85;
        value           nonuniform List<scalar> 
14
(
0.000169193
0.000183615
0.000186245
0.000194555
0.000202138
0.000209105
0.000215767
0.000222518
0.000227946
0.000231038
0.000230987
0.000227155
0.000219422
0.000208704
)
;
    }
    heatsource1
    {
        type            compressible::alphatWallFunction;
        Prt             0.85;
        value           nonuniform List<scalar> 3(9.54196e-05 0.000116042 0.00013002);
    }
    heatsource2
    {
        type            compressible::alphatWallFunction;
        Prt             0.85;
        value           nonuniform List<scalar> 4(0.00019971 0.000130178 0.000130176 0.000193525);
    }
    Table_master
    {
        type            compressible::alphatWallFunction;
        Prt             0.85;
        value           nonuniform List<scalar> 9(0.000119359 0.000106113 9.52788e-05 8.63749e-05 7.8994e-05 7.28185e-05 6.76159e-05 6.32347e-05 5.96096e-05);
    }
    Table_slave
    {
        type            compressible::alphatWallFunction;
        Prt             0.85;
        value           nonuniform List<scalar> 9(0.000133682 0.00012281 0.000115126 0.000109339 0.00010438 9.9604e-05 9.49684e-05 9.00038e-05 8.40799e-05);
    }
    inlet
    {
        type            fixedValue;
        value           uniform 1.94e-05;
    }
    outlet
    {
        type            zeroGradient;
    }
}


// ************************************************************************* //
