/*--------------------------------*- C++ -*----------------------------------*\
  =========                 |
  \\      /  F ield         | OpenFOAM: The Open Source CFD Toolbox
   \\    /   O peration     | Website:  https://openfoam.org
    \\  /    A nd           | Version:  6
     \\/     M anipulation  |
\*---------------------------------------------------------------------------*/
FoamFile
{
    version     2.0;
    format      ascii;
    class       volScalarField;
    location    "600";
    object      epsilon;
}
// * * * * * * * * * * * * * * * * * * * * * * * * * * * * * * * * * * * * * //

dimensions      [0 2 -3 0 0 0 0];

internalField   nonuniform List<scalar> 
459
(
0.000384711
0.000494395
0.000516676
0.000591892
0.000666971
0.000741637
0.000818348
0.000901622
0.00097273
0.00101489
0.00101407
0.000961815
0.000862302
0.000736736
0.000614212
3.19511e-05
6.00425e-05
8.08917e-05
7.53095e-05
6.59768e-05
5.62488e-05
4.66448e-05
3.85519e-05
3.20942e-05
2.69836e-05
2.29166e-05
1.96517e-05
1.70155e-05
1.48403e-05
1.29915e-05
1.13436e-05
9.76577e-06
8.84888e-06
6.80529e-06
0.00100599
0.0015078
0.000468456
0.000450304
0.000468107
0.000496435
0.000537495
0.000596197
0.000661216
0.00071392
0.000734973
0.000711513
0.000643731
0.000551993
0.000497766
0.000640537
0.000172204
4.39341e-05
0.000104929
0.000103796
9.01453e-05
7.40722e-05
6.01593e-05
5.20625e-05
4.22521e-05
3.38617e-05
2.71964e-05
2.20027e-05
1.79662e-05
1.48482e-05
1.24383e-05
1.06899e-05
9.69438e-06
9.34847e-06
2.41789e-05
1.63653e-05
0.00187608
0.00383735
0.000597345
0.00042986
0.000442875
0.000486837
0.000552654
0.000641787
0.000739792
0.0008183
0.000854005
0.000836368
0.00076945
0.00067153
0.0005802
0.000530073
0.000580634
0.000374514
0.000241909
0.000170667
0.000125437
9.53243e-05
7.7396e-05
0.000132972
9.39982e-05
6.87681e-05
5.19664e-05
4.04316e-05
3.22814e-05
2.63811e-05
2.20421e-05
1.88558e-05
1.44719e-05
1.21852e-05
4.40034e-05
2.59501e-05
0.00309898
0.00810726
0.000986673
0.000437945
0.000428626
0.000488046
0.000583935
0.000721529
0.000861873
0.000958692
0.000994489
0.000967561
0.000888282
0.000772784
0.000649435
0.000553019
0.000515114
0.000941701
0.000509759
0.000295047
0.000191668
0.000134624
0.00010054
8.44555e-05
0.000186695
0.000144788
0.000119511
0.000102659
8.96195e-05
7.82091e-05
6.81556e-05
5.84407e-05
4.81807e-05
2.90572e-05
1.92083e-05
6.92552e-05
3.54207e-05
0.00480816
0.014548
0.00202198
0.000534323
0.000436984
0.000501289
0.000647202
0.000888383
0.00107581
0.0011707
0.00118591
0.00113196
0.00102345
0.000875156
0.000709893
0.000552791
0.000424151
0.000352023
0.000270393
0.000202307
0.000151211
0.000115104
9.06844e-05
7.62137e-05
7.44289e-05
7.07955e-05
6.7126e-05
6.32919e-05
5.87669e-05
5.33267e-05
4.78e-05
4.25365e-05
3.77122e-05
3.06313e-05
2.37152e-05
5.04205e-05
3.9764e-05
6.91217e-05
0.000122459
0.000171922
0.00720294
0.0216032
0.00463836
0.00107636
0.000664216
0.000676975
0.000952387
0.00129879
0.00146181
0.00149839
0.00145895
0.00136146
0.00121044
0.00101472
0.000796919
0.00058775
0.00041652
0.000299989
0.000224347
0.00017007
0.000129362
0.000100891
8.28224e-05
7.32571e-05
7.05925e-05
7.09597e-05
7.17846e-05
7.16676e-05
6.95668e-05
6.45769e-05
5.66212e-05
4.82086e-05
4.05125e-05
3.37179e-05
2.92933e-05
3.87041e-05
4.05899e-05
5.15755e-05
0.000225863
0.000193927
0.0100387
0.0258009
0.0096927
0.00367404
0.00227625
0.00189951
0.00212209
0.00219187
0.00212475
0.00200119
0.00185292
0.00167416
0.00145152
0.00118587
0.00090191
0.000636142
0.000424034
0.000282205
0.000196434
0.000143603
0.000109217
8.83267e-05
7.77188e-05
7.46909e-05
7.69405e-05
8.17726e-05
8.71149e-05
9.18988e-05
9.50584e-05
9.48749e-05
8.80909e-05
7.70054e-05
6.61096e-05
5.69484e-05
5.30615e-05
5.89603e-05
7.45152e-05
0.000119531
0.000285145
0.000274821
0.0107036
0.0285554
0.0157224
0.0105172
0.00750557
0.00573934
0.00451201
0.00365102
0.00307097
0.00267325
0.0023631
0.00206409
0.00173249
0.00136244
0.00098866
0.000653493
0.000398424
0.000241
0.000153689
0.000112346
9.0494e-05
8.00352e-05
7.72647e-05
7.98345e-05
8.61112e-05
9.48092e-05
0.000105211
0.000117239
0.000131001
0.000146312
0.000162029
0.000169862
0.00017629
0.000192553
0.000227968
0.000339308
0.000626866
0.00120369
0.00365004
0.00108621
0.00990858
0.0167209
0.013406
0.0101501
0.00775676
0.00608701
0.00494758
0.00419697
0.00369234
0.00330066
0.00291679
0.00248078
0.00198278
0.00144812
0.000957427
0.000550431
0.000282927
0.000166995
0.000113871
8.92356e-05
7.81274e-05
7.48308e-05
7.65657e-05
8.18297e-05
8.98747e-05
0.000100448
0.000113784
0.000130646
0.000152311
0.000180607
0.000217983
0.000267914
0.00033622
0.00044092
0.000596969
0.000811895
0.00106181
0.00128362
0.00145211
0.000907721
0.00409049
0.00624528
0.00640802
0.00613074
0.0057539
0.00526939
0.00469609
0.00402936
0.00328537
0.00250513
0.00174103
0.000973056
0.000505914
0.000262699
0.000148223
0.00010073
8.01961e-05
7.13091e-05
6.81456e-05
6.82694e-05
7.06101e-05
7.47155e-05
8.05017e-05
8.8188e-05
9.83022e-05
0.000111731
0.000129819
0.000154543
0.000188842
0.000237191
0.000304507
0.000397845
0.000521176
0.000664346
0.000790825
0.000849417
0.000810649
0.000519701
0.00295147
0.00627531
0.00666799
0.00558168
0.0050029
0.00451457
0.00375412
0.00287618
0.00203102
0.00132137
0.000792879
0.000441044
0.000247048
0.000152811
0.000112378
9.69361e-05
9.12759e-05
8.92097e-05
8.84892e-05
8.85239e-05
8.94725e-05
9.15489e-05
9.49684e-05
0.000100078
0.0001074
0.00011772
0.000132238
0.000152774
0.000181985
0.000223267
0.00028112
0.000360227
0.000461461
0.000576888
0.00066574
0.000762476
0.000744058
0.000548754
0.00200389
0.0023799
0.00267656
0.00323542
0.00283675
0.00241812
0.00212054
0.00182754
0.00152851
0.00121382
0.000900728
0.000622805
0.000406844
0.000259464
0.000170842
0.000122438
9.68977e-05
8.33714e-05
7.63521e-05
7.32025e-05
7.26136e-05
7.4141e-05
7.73096e-05
8.19413e-05
8.81997e-05
9.6351e-05
0.000106775
0.000120019
0.000136912
0.000158807
0.00018669
0.000221506
0.000265313
0.000320762
0.000390456
0.000485472
0.000522987
0.000486642
0.00040256
0.000325407
)
;

boundaryField
{
    floor
    {
        Cmu             0.09;
        kappa           0.41;
        E               9.8;
        type            epsilonWallFunction;
        value           nonuniform List<scalar> 
29
(
0.000614212
3.19511e-05
6.00425e-05
8.08917e-05
7.53095e-05
6.59768e-05
5.62488e-05
4.66448e-05
3.85519e-05
3.20942e-05
2.69836e-05
2.29166e-05
1.96517e-05
1.70155e-05
1.48403e-05
1.29915e-05
1.13436e-05
9.76577e-06
8.84888e-06
6.80529e-06
6.80529e-06
1.63653e-05
2.59501e-05
3.54207e-05
0.000614212
3.19511e-05
4.39341e-05
0.000374514
0.000941701
)
;
    }
    ceiling
    {
        Cmu             0.09;
        kappa           0.41;
        E               9.8;
        type            epsilonWallFunction;
        value           nonuniform List<scalar> 
43
(
0.00200389
0.0023799
0.00267656
0.00323542
0.00283675
0.00241812
0.00212054
0.00182754
0.00152851
0.00121382
0.000900728
0.000622805
0.000406844
0.000259464
0.000170842
0.000122438
9.68977e-05
8.33714e-05
7.63521e-05
7.32025e-05
7.26136e-05
7.4141e-05
7.73096e-05
8.19413e-05
8.81997e-05
9.6351e-05
0.000106775
0.000120019
0.000136912
0.000158807
0.00018669
0.000221506
0.000265313
0.000320762
0.000390456
0.000485472
0.000522987
0.000486642
0.00040256
0.000325407
0.00990858
0.0167209
0.00295147
)
;
    }
    sWall
    {
        Cmu             0.09;
        kappa           0.41;
        E               9.8;
        type            epsilonWallFunction;
        value           uniform 0.00200389;
    }
    nWall
    {
        Cmu             0.09;
        kappa           0.41;
        E               9.8;
        type            epsilonWallFunction;
        value           nonuniform List<scalar> 6(0.000171922 0.000193927 0.000274821 0.000519701 0.000548754 0.000325407);
    }
    sideWalls
    {
        type            empty;
    }
    glass1
    {
        Cmu             0.09;
        kappa           0.41;
        E               9.8;
        type            epsilonWallFunction;
        value           nonuniform List<scalar> 9(0.000384711 0.00100599 0.00187608 0.00309898 0.00480816 0.00720294 0.0100387 0.0107036 0.00990858);
    }
    glass2
    {
        Cmu             0.09;
        kappa           0.41;
        E               9.8;
        type            epsilonWallFunction;
        value           nonuniform List<scalar> 2(0.00108621 0.000907721);
    }
    sun
    {
        Cmu             0.09;
        kappa           0.41;
        E               9.8;
        type            epsilonWallFunction;
        value           nonuniform List<scalar> 
14
(
0.000384711
0.000494395
0.000516676
0.000591892
0.000666971
0.000741637
0.000818348
0.000901622
0.00097273
0.00101489
0.00101407
0.000961815
0.000862302
0.000736736
)
;
    }
    heatsource1
    {
        Cmu             0.09;
        kappa           0.41;
        E               9.8;
        type            epsilonWallFunction;
        value           nonuniform List<scalar> 3(6.91217e-05 0.000122459 0.000171922);
    }
    heatsource2
    {
        Cmu             0.09;
        kappa           0.41;
        E               9.8;
        type            epsilonWallFunction;
        value           nonuniform List<scalar> 4(0.000640537 0.000172204 0.000172204 0.000580634);
    }
    Table_master
    {
        Cmu             0.09;
        kappa           0.41;
        E               9.8;
        type            epsilonWallFunction;
        value           nonuniform List<scalar> 9(0.000132972 9.39982e-05 6.87681e-05 5.19664e-05 4.04316e-05 3.22814e-05 2.63811e-05 2.20421e-05 1.88558e-05);
    }
    Table_slave
    {
        Cmu             0.09;
        kappa           0.41;
        E               9.8;
        type            epsilonWallFunction;
        value           nonuniform List<scalar> 9(0.000186695 0.000144788 0.000119511 0.000102659 8.96195e-05 7.82091e-05 6.81556e-05 5.84407e-05 4.81807e-05);
    }
    inlet
    {
        type            turbulentMixingLengthDissipationRateInlet;
        mixingLength    0.01;
        phi             phi;
        k               k;
        value           uniform 0.000101881;
    }
    outlet
    {
        type            zeroGradient;
    }
}


// ************************************************************************* //
