// -*- C++ -*-
// File generated by PyFoam - sorry for the ugliness

FoamFile
{
 version 2.0;
 format ascii;
 class volVectorField;
 location "600";
 object U;
}

dimensions [ 0 1 -1 0 0 0 0 ];

internalField nonuniform List<vector> 459
(
  (0.0374166 0.0841772 0)
  (-0.16347 0.0242432 0)
  (-0.185839 0.0176629 0)
  (-0.216234 0.0128716 0)
  (-0.239509 0.00755561 0)
  (-0.255021 0.00196582 0)
  (-0.261651 -0.00401111 0)
  (-0.257827 -0.0104484 0)
  (-0.24332 -0.0172907 0)
  (-0.218672 -0.0237335 0)
  (-0.1858 -0.0289054 0)
  (-0.147386 -0.0323926 0)
  (-0.106343 -0.0347539 0)
  (-0.068192 -0.0379434 0)
  (-0.0497034 -0.0434287 0)
  (0.00341045 0.0059466 0)
  (-0.0174046 -0.0187208 0)
  (0.00808596 -0.0256822 0)
  (0.0268067 -0.0182174 0)
  (0.0417423 -0.0118195 0)
  (0.051868 -0.00736773 0)
  (0.0573163 -0.00450253 0)
  (0.0597901 -0.00303566 0)
  (0.0608605 -0.00236076 0)
  (0.0614149 -0.00200851 0)
  (0.0617274 -0.00178079 0)
  (0.0618123 -0.00159675 0)
  (0.061609 -0.00136113 0)
  (0.0609035 -0.000907952 0)
  (0.0591285 0.000143366 0)
  (0.0551014 0.00232535 0)
  (0.0475327 0.00461294 0)
  (0.0405159 0.0062195 0)
  (-0.0136723 0.0197958 0)
  (0.212936 0.172448 0)
  (-0.153992 0.0637034 0)
  (-0.149241 0.0510351 0)
  (-0.180465 0.0411544 0)
  (-0.203115 0.0301185 0)
  (-0.218441 0.0179748 0)
  (-0.225433 0.00426545 0)
  (-0.222329 -0.0111725 0)
  (-0.209038 -0.0271672 0)
  (-0.186559 -0.0413948 0)
  (-0.157226 -0.051684 0)
  (-0.124191 -0.05687 0)
  (-0.0909275 -0.0572535 0)
  (-0.0620188 -0.0544233 0)
  (-0.0435028 -0.04831 0)
  (-0.0279924 -0.0266576 0)
  (-0.00989348 0.00333242 0)
  (0.0694195 0.0266696 0)
  (0.0369702 -0.0198453 0)
  (0.0418624 -0.0287748 0)
  (0.0520428 -0.0231784 0)
  (0.059734 -0.0149904 0)
  (0.0642393 -0.00793735 0)
  (0.0657279 -0.00293358 0)
  (0.0657524 -0.000290473 0)
  (0.0656047 0.000888322 0)
  (0.0656463 0.00148051 0)
  (0.0657578 0.00187074 0)
  (0.0658305 0.00222207 0)
  (0.0658231 0.00268537 0)
  (0.0656865 0.00360859 0)
  (0.0648787 0.00588995 0)
  (0.0609724 0.0122074 0)
  (0.0511463 0.0174256 0)
  (0.045661 0.0205628 0)
  (-0.0474175 0.0431432 0)
  (0.373442 0.258018 0)
  (-0.172789 0.101859 0)
  (-0.111626 0.0824808 0)
  (-0.141849 0.0644139 0)
  (-0.161427 0.0461875 0)
  (-0.175216 0.0265524 0)
  (-0.181817 0.00433969 0)
  (-0.178321 -0.0205263 0)
  (-0.164852 -0.045874 0)
  (-0.143248 -0.0675646 0)
  (-0.116414 -0.0822634 0)
  (-0.0875785 -0.0885133 0)
  (-0.0597017 -0.0867596 0)
  (-0.0355064 -0.0783171 0)
  (-0.0173362 -0.0632292 0)
  (-0.00281637 -0.0383637 0)
  (0.0106412 -0.0049478 0)
  (0.104469 -0.049991 0)
  (0.07002 -0.0467641 0)
  (0.0664039 -0.0390243 0)
  (0.0692249 -0.0293263 0)
  (0.0710565 -0.0194807 0)
  (0.0715746 -0.01138 0)
  (0.0696005 -0.00952062 0)
  (0.0664776 -0.00707683 0)
  (0.06452 -0.00577274 0)
  (0.0637069 -0.00503823 0)
  (0.0634105 -0.00458317 0)
  (0.0633477 -0.00426 0)
  (0.0635895 -0.00388831 0)
  (0.0645992 -0.00314426 0)
  (0.0675901 -0.000102986 0)
  (0.0656145 0.0171119 0)
  (0.0521923 0.0292424 0)
  (0.0523646 0.0372843 0)
  (-0.0764107 0.0681951 0)
  (0.516976 0.326814 0)
  (-0.208989 0.136037 0)
  (-0.0721128 0.108813 0)
  (-0.10101 0.0836465 0)
  (-0.114585 0.0605168 0)
  (-0.12453 0.0354062 0)
  (-0.128966 0.00560643 0)
  (-0.12264 -0.0289677 0)
  (-0.107616 -0.0636668 0)
  (-0.086962 -0.0917962 0)
  (-0.0638612 -0.109479 0)
  (-0.040982 -0.11566 0)
  (-0.0201983 -0.111589 0)
  (-0.00212438 -0.0989062 0)
  (0.0130383 -0.0786864 0)
  (0.0278299 -0.0533631 0)
  (0.0502144 -0.0279221 0)
  (0.0812456 -0.00829747 0)
  (0.0913676 -0.0386761 0)
  (0.0784739 -0.0404083 0)
  (0.0712446 -0.0336139 0)
  (0.068819 -0.0260235 0)
  (0.0678249 -0.0180494 0)
  (0.0683556 -0.0091765 0)
  (0.0713554 -0.00560399 0)
  (0.0757548 -0.00491384 0)
  (0.079526 -0.0045018 0)
  (0.0824611 -0.00405591 0)
  (0.0845026 -0.00330571 0)
  (0.0849886 -0.00205681 0)
  (0.0827308 -0.000110909 0)
  (0.0765515 0.00278092 0)
  (0.0637827 0.00712937 0)
  (0.052723 0.0274886 0)
  (0.0417278 0.0444293 0)
  (0.0556397 0.0577776 0)
  (-0.106853 0.0913273 0)
  (0.639422 0.380337 0)
  (-0.251578 0.16452 0)
  (-0.0333665 0.12347 0)
  (-0.0586173 0.0942388 0)
  (-0.0638709 0.0685981 0)
  (-0.0674936 0.0404358 0)
  (-0.0668259 0.00460318 0)
  (-0.0529819 -0.039446 0)
  (-0.035913 -0.0813773 0)
  (-0.0179964 -0.112665 0)
  (-0.00135433 -0.130336 0)
  (0.0126951 -0.134205 0)
  (0.0235795 -0.127023 0)
  (0.0321017 -0.111845 0)
  (0.0392122 -0.0910373 0)
  (0.0468346 -0.0675464 0)
  (0.0574961 -0.0463886 0)
  (0.0686274 -0.0368403 0)
  (0.0715123 -0.0404238 0)
  (0.0658416 -0.0369277 0)
  (0.0588976 -0.0299969 0)
  (0.0542812 -0.0231821 0)
  (0.0516792 -0.0168693 0)
  (0.0511892 -0.0110125 0)
  (0.0528041 -0.00684009 0)
  (0.0560071 -0.0050485 0)
  (0.0593028 -0.00432542 0)
  (0.0624587 -0.00350202 0)
  (0.0652781 -0.00176669 0)
  (0.0673334 0.00141796 0)
  (0.0673731 0.00606821 0)
  (0.0648502 0.0122636 0)
  (0.0591785 0.0206485 0)
  (0.0522527 0.03626 0)
  (0.0426557 0.0550918 0)
  (0.0637328 0.0758482 0)
  (-0.0180007 0.104575 0)
  (0.0444547 0.0324702 0)
  (-0.063143 -0.0356022 0)
  (-0.270324 -0.0578603 0)
  (0.726377 0.425349 0)
  (-0.291586 0.184242 0)
  (-0.00468463 0.118777 0)
  (-0.0150954 0.0943193 0)
  (-0.00950059 0.0703449 0)
  (-0.00456713 0.0401891 0)
  (0.0106845 -0.00345581 0)
  (0.0314134 -0.0551404 0)
  (0.0478785 -0.0979379 0)
  (0.0594694 -0.126581 0)
  (0.0660842 -0.140443 0)
  (0.0682939 -0.141106 0)
  (0.0672667 -0.13143 0)
  (0.0642289 -0.11453 0)
  (0.0605106 -0.0933905 0)
  (0.057575 -0.0711035 0)
  (0.056504 -0.0513382 0)
  (0.055939 -0.0386676 0)
  (0.0522792 -0.0335734 0)
  (0.0451152 -0.02923 0)
  (0.0375884 -0.0239246 0)
  (0.0321445 -0.0189254 0)
  (0.0290817 -0.0146575 0)
  (0.0283862 -0.0110537 0)
  (0.0297478 -0.00869882 0)
  (0.0325065 -0.00806144 0)
  (0.0358274 -0.00801583 0)
  (0.0394415 -0.00746811 0)
  (0.0431928 -0.00554084 0)
  (0.046784 -0.00141724 0)
  (0.0498817 0.00511999 0)
  (0.0512333 0.0135686 0)
  (0.0511988 0.0241067 0)
  (0.0513267 0.0386479 0)
  (0.0500785 0.0569484 0)
  (0.0721059 0.0802591 0)
  (0.0527172 0.0987371 0)
  (0.0918003 0.0690157 0)
  (0.115256 0.0447729 0)
  (-0.130605 -0.00878666 0)
  (0.774721 0.466431 0)
  (-0.31045 0.170603 0)
  (0.0203761 0.0683754 0)
  (0.0425158 0.0706155 0)
  (0.0579392 0.0596743 0)
  (0.0731641 0.0273781 0)
  (0.104323 -0.0242587 0)
  (0.126677 -0.0731202 0)
  (0.138129 -0.109495 0)
  (0.139715 -0.1312 0)
  (0.133292 -0.139003 0)
  (0.121079 -0.135153 0)
  (0.105491 -0.122673 0)
  (0.0886202 -0.104558 0)
  (0.0722473 -0.0837705 0)
  (0.0577241 -0.0629867 0)
  (0.0458344 -0.0448758 0)
  (0.0361699 -0.0321882 0)
  (0.0270145 -0.0251879 0)
  (0.0181392 -0.0209555 0)
  (0.0106798 -0.017477 0)
  (0.005605 -0.0147209 0)
  (0.00288867 -0.0127204 0)
  (0.00227954 -0.0113322 0)
  (0.00336898 -0.0107699 0)
  (0.00553234 -0.011099 0)
  (0.00823037 -0.0115991 0)
  (0.0113357 -0.0114857 0)
  (0.0149462 -0.009963 0)
  (0.0191958 -0.00605046 0)
  (0.0251023 0.00120591 0)
  (0.0307743 0.0106273 0)
  (0.0359279 0.02139 0)
  (0.0426134 0.0343038 0)
  (0.0500731 0.0493065 0)
  (0.0719742 0.0681945 0)
  (0.0850877 0.076648 0)
  (0.116854 0.0539878 0)
  (0.156648 0.0443932 0)
  (-0.0373181 0.0929387 0)
  (0.878012 0.470146 0)
  (-0.0734884 0.150446 0)
  (0.104436 -0.00917156 0)
  (0.170307 -0.0203443 0)
  (0.181983 -0.0208532 0)
  (0.202971 -0.0445805 0)
  (0.228582 -0.0732378 0)
  (0.239337 -0.0978536 0)
  (0.234139 -0.114902 0)
  (0.21633 -0.122828 0)
  (0.189965 -0.121669 0)
  (0.158847 -0.112853 0)
  (0.126364 -0.0985785 0)
  (0.0949253 -0.0808619 0)
  (0.0663878 -0.0620753 0)
  (0.0417995 -0.0442564 0)
  (0.0219108 -0.0293654 0)
  (0.00694663 -0.0195245 0)
  (-0.00465867 -0.0146462 0)
  (-0.0128681 -0.0128011 0)
  (-0.0188245 -0.0118861 0)
  (-0.0227789 -0.0114697 0)
  (-0.0251095 -0.0114396 0)
  (-0.0261491 -0.0117167 0)
  (-0.0262461 -0.0123431 0)
  (-0.0258208 -0.0132668 0)
  (-0.0251807 -0.0141706 0)
  (-0.0243633 -0.0146488 0)
  (-0.0231738 -0.0142377 0)
  (-0.021205 -0.0123691 0)
  (-0.0174326 -0.00831422 0)
  (-0.00804937 -0.00133481 0)
  (0.000223328 0.00738336 0)
  (0.0107005 0.0157454 0)
  (0.0224268 0.0230363 0)
  (0.0426419 0.0306719 0)
  (0.0620101 0.0241244 0)
  (0.0823985 -0.0041779 0)
  (0.141882 0.0385397 0)
  (-0.407098 0.203342 0)
  (1.02194 0.42545 0)
  (0.48734 0.281754 0)
  (0.500508 0.190175 0)
  (0.51674 0.127227 0)
  (0.489455 0.083536 0)
  (0.453607 0.0401069 0)
  (0.413538 -0.00326558 0)
  (0.367509 -0.039293 0)
  (0.316067 -0.0635382 0)
  (0.261672 -0.0752987 0)
  (0.207404 -0.0764217 0)
  (0.155808 -0.069942 0)
  (0.108958 -0.0589018 0)
  (0.06739 -0.0451218 0)
  (0.0323911 -0.0309124 0)
  (0.00357206 -0.0181299 0)
  (-0.0174807 -0.00954458 0)
  (-0.0298564 -0.00637764 0)
  (-0.038081 -0.00596995 0)
  (-0.0439245 -0.00669148 0)
  (-0.0484105 -0.00761478 0)
  (-0.0519189 -0.00855428 0)
  (-0.0547484 -0.00950121 0)
  (-0.0571389 -0.0104686 0)
  (-0.059351 -0.0114791 0)
  (-0.0616983 -0.0124728 0)
  (-0.0644795 -0.0132336 0)
  (-0.0679566 -0.0134037 0)
  (-0.0724298 -0.0124639 0)
  (-0.0783285 -0.00971754 0)
  (-0.086188 -0.00436578 0)
  (-0.0960636 0.0041316 0)
  (-0.105676 0.0150491 0)
  (-0.120302 0.0286538 0)
  (-0.143503 0.045176 0)
  (-0.177789 0.0635759 0)
  (-0.226676 0.0799204 0)
  (-0.283117 0.0917241 0)
  (-0.3519 0.0989147 0)
  (-0.613759 0.101872 0)
  (-0.182096 0.017293 0)
  (0.135993 0.0382747 0)
  (0.228709 0.0133735 0)
  (0.22051 -0.0092273 0)
  (0.2064 -0.0234926 0)
  (0.187803 -0.0315886 0)
  (0.160395 -0.0350072 0)
  (0.126892 -0.0343415 0)
  (0.0906991 -0.0303163 0)
  (0.0545821 -0.0237975 0)
  (0.0209971 -0.0153897 0)
  (-0.0126863 -0.00492539 0)
  (-0.0364274 0.00211752 0)
  (-0.0519972 0.00570726 0)
  (-0.0610776 0.0065739 0)
  (-0.0663336 0.00595615 0)
  (-0.0701507 0.00492121 0)
  (-0.0735642 0.00360015 0)
  (-0.0768892 0.00227431 0)
  (-0.0802532 0.00104583 0)
  (-0.0837628 -8.67563e-05 0)
  (-0.0874852 -0.00109414 0)
  (-0.0915018 -0.00190949 0)
  (-0.0959125 -0.00240929 0)
  (-0.10078 -0.00238673 0)
  (-0.106093 -0.00157085 0)
  (-0.111754 0.000343104 0)
  (-0.117565 0.00365549 0)
  (-0.122982 0.0087089 0)
  (-0.127026 0.0163915 0)
  (-0.130275 0.0278472 0)
  (-0.133017 0.043419 0)
  (-0.135983 0.0623241 0)
  (-0.139671 0.0811171 0)
  (-0.141072 0.0900012 0)
  (-0.124072 0.0680822 0)
  (-0.0831824 -0.0238154 0)
  (-0.276521 -0.19984 0)
  (-0.0196284 0.204569 0)
  (0.0534639 0.0892951 0)
  (0.0205311 0.0211152 0)
  (0.0139292 0.00841681 0)
  (0.0110723 0.00455813 0)
  (0.0059179 -0.00134579 0)
  (-0.0074773 -0.00498967 0)
  (-0.0256665 -0.00509368 0)
  (-0.0449853 -0.00343441 0)
  (-0.0623726 -0.00162019 0)
  (-0.0754694 -0.000824308 0)
  (-0.0830243 -0.00219134 0)
  (-0.0867107 -0.00602912 0)
  (-0.0884529 -0.0110471 0)
  (-0.0893596 -0.0165488 0)
  (-0.0903958 -0.0218131 0)
  (-0.0919036 -0.0260319 0)
  (-0.0938439 -0.0288838 0)
  (-0.0962792 -0.0305651 0)
  (-0.0991273 -0.0312165 0)
  (-0.102301 -0.0312193 0)
  (-0.105756 -0.030845 0)
  (-0.109436 -0.0301273 0)
  (-0.113247 -0.029026 0)
  (-0.117026 -0.0274044 0)
  (-0.120504 -0.0250002 0)
  (-0.123282 -0.0213882 0)
  (-0.124829 -0.0159191 0)
  (-0.124611 -0.00831087 0)
  (-0.12184 0.00149438 0)
  (-0.115116 0.014276 0)
  (-0.103147 0.0307145 0)
  (-0.0855429 0.0504124 0)
  (-0.0631792 0.0695611 0)
  (-0.0388297 0.0809539 0)
  (0.000554976 0.0655292 0)
  (0.143972 -0.00588738 0)
  (-0.206444 -0.110542 0)
  (-0.0484635 -0.322533 0)
  (-0.414318 -0.120799 0)
  (-0.302356 0.071804 0)
  (-0.23276 -0.0197299 0)
  (-0.188375 -0.0321605 0)
  (-0.167863 -0.0223314 0)
  (-0.158601 -0.0130032 0)
  (-0.154877 -0.00461992 0)
  (-0.153199 0.00408576 0)
  (-0.151251 0.0126138 0)
  (-0.147817 0.0210089 0)
  (-0.142487 0.029488 0)
  (-0.135351 0.0381283 0)
  (-0.127045 0.0466412 0)
  (-0.1188 0.0547253 0)
  (-0.111588 0.0623869 0)
  (-0.105922 0.0693708 0)
  (-0.101937 0.0752555 0)
  (-0.0994509 0.0795637 0)
  (-0.098154 0.0820624 0)
  (-0.0977799 0.0829094 0)
  (-0.0981281 0.0822494 0)
  (-0.0990568 0.0806368 0)
  (-0.100461 0.0784607 0)
  (-0.102254 0.075815 0)
  (-0.10433 0.0727776 0)
  (-0.106524 0.0694176 0)
  (-0.108577 0.0657841 0)
  (-0.110081 0.0618861 0)
  (-0.110363 0.057698 0)
  (-0.108182 0.0540579 0)
  (-0.101639 0.0521455 0)
  (-0.0883621 0.0527556 0)
  (-0.0664753 0.0567775 0)
  (-0.0363072 0.0647395 0)
  (0.0100849 0.0760377 0)
  (0.0551626 0.0776224 0)
  (0.0971969 0.0638591 0)
  (0.162318 0.0365236 0)
  (-0.228549 -0.0158871 0)
)
;

boundaryField
{
  floor
  {
    type noSlip;
  }
  ceiling
  {
    type noSlip;
  }
  sWall
  {
    type noSlip;
  }
  nWall
  {
    type noSlip;
  }
  sideWalls
  {
    type empty;
  }
  glass1
  {
    type noSlip;
  }
  glass2
  {
    type noSlip;
  }
  sun
  {
    type noSlip;
  }
  heatsource1
  {
    type noSlip;
  }
  heatsource2
  {
    type noSlip;
  }
  Table_master
  {
    type noSlip;
  }
  Table_slave
  {
    type noSlip;
  }
  inlet
  {
    type fixedValue;
    value uniform (0.277164 -0.114805 0);
  }
  outlet
  {
    type zeroGradient;
  }
} 	// ************************************************************************* //

