/*--------------------------------*- C++ -*----------------------------------*\
  =========                 |
  \\      /  F ield         | OpenFOAM: The Open Source CFD Toolbox
   \\    /   O peration     | Website:  https://openfoam.org
    \\  /    A nd           | Version:  6
     \\/     M anipulation  |
\*---------------------------------------------------------------------------*/
FoamFile
{
    version     2.0;
    format      ascii;
    class       volScalarField;
    location    "2000";
    object      nut;
}
// * * * * * * * * * * * * * * * * * * * * * * * * * * * * * * * * * * * * * //

dimensions      [0 2 -1 0 0 0 0];

internalField   nonuniform List<scalar> 
459
(
0.00117814
0.00129817
0.00133697
0.00140685
0.00147364
0.00154014
0.00160618
0.00165423
0.00167685
0.0016687
0.00162676
0.00154703
0.0013998
0.0011807
0.00096715
0.000534824
0.000634253
0.000740098
0.000790688
0.000790822
0.00076932
0.000720824
0.00066874
0.000621621
0.000580439
0.000544536
0.000513125
0.000485365
0.000460705
0.000438241
0.000416769
0.000394546
0.000371946
0.000334174
0.00155711
0.00396646
0.0038902
0.00454109
0.00519882
0.0057934
0.00623451
0.00663341
0.00696051
0.0071865
0.00728691
0.00723013
0.00696199
0.00632263
0.00451159
0.00124487
0.000937206
0.000523564
0.00134644
0.00203698
0.00260846
0.00296468
0.00294526
0.00210157
0.00174021
0.00150227
0.00132892
0.00119673
0.00109265
0.00100949
0.000933202
0.000853771
0.000778124
0.000711595
0.000747841
0.00038905
0.00186768
0.00539312
0.00485833
0.00579231
0.00627823
0.0066467
0.00694371
0.00726836
0.00761546
0.00795949
0.00826478
0.00845771
0.00847443
0.0081873
0.00730058
0.00505146
0.00126896
0.00083731
0.0015199
0.00231513
0.00312972
0.00372398
0.00360869
0.00100597
0.000873661
0.00076691
0.000681356
0.000612408
0.000556341
0.000510368
0.000473153
0.000444661
0.000490077
0.000573665
0.000835269
0.000425817
0.00216214
0.00672564
0.00494574
0.00601837
0.00627422
0.00640848
0.0065813
0.00684217
0.00719381
0.00761286
0.0080501
0.00837453
0.00855879
0.00856299
0.0082533
0.00711531
0.00402245
0.00145711
0.00175544
0.00244773
0.0033934
0.00432856
0.00496832
0.00466187
0.00114115
0.001028
0.000942779
0.000874301
0.000816901
0.000765104
0.00071511
0.000663831
0.000606905
0.000557972
0.00056953
0.000920885
0.000457793
0.00246253
0.00842281
0.00540486
0.00599722
0.00623724
0.00622035
0.00631315
0.0065129
0.00686097
0.00731328
0.00777238
0.00813025
0.00833018
0.0083776
0.00827968
0.00788842
0.00681831
0.00598471
0.00601226
0.00632886
0.00672919
0.00704336
0.00715393
0.00686468
0.0055782
0.00489483
0.00445581
0.00410623
0.00373335
0.00331964
0.00285649
0.00234601
0.00180696
0.00129469
0.000947397
0.00096962
0.000593654
0.000545287
0.000666791
0.000750143
0.00278338
0.0103114
0.00723074
0.00637039
0.00662961
0.00642279
0.00635897
0.0064493
0.00676583
0.00724579
0.00774219
0.00810587
0.00826542
0.00826209
0.0082146
0.00821541
0.00822089
0.00838537
0.00868446
0.00892248
0.00901238
0.00893349
0.00868876
0.00826053
0.00758966
0.00696852
0.00642581
0.0059089
0.00537879
0.00481621
0.00420424
0.00353502
0.0028195
0.00210693
0.00154174
0.00120252
0.000855634
0.000713718
0.00100919
0.000781023
0.00306818
0.0115935
0.00982844
0.00808667
0.00750627
0.00685549
0.00649461
0.00651504
0.0068799
0.0074445
0.00800034
0.00836699
0.00848274
0.00844905
0.00849398
0.00882424
0.00938657
0.00992757
0.0102646
0.0103269
0.0101513
0.00979681
0.00931565
0.0087413
0.00809451
0.0074572
0.00685215
0.00626845
0.00569906
0.00514484
0.00457598
0.00397964
0.00334614
0.0026923
0.00212769
0.00168002
0.00132079
0.00119142
0.00117986
0.000887329
0.00311993
0.00999576
0.0090952
0.00806747
0.00708109
0.00642197
0.00625328
0.00656206
0.00721119
0.00796936
0.00858284
0.00889216
0.00891891
0.00889821
0.00916427
0.00981614
0.0104094
0.0107462
0.0108178
0.0106119
0.0101854
0.00960619
0.00892965
0.00819898
0.00745515
0.00673983
0.00606606
0.00543836
0.00487467
0.00440317
0.00403299
0.00369326
0.00331965
0.00289912
0.00255944
0.00237068
0.00237752
0.00264546
0.00324972
0.00138054
0.00303784
0.00358055
0.00387854
0.00396309
0.00421929
0.0048515
0.00583456
0.00702311
0.00818865
0.00907051
0.00948076
0.00944867
0.0092934
0.00952644
0.00989587
0.0102211
0.010402
0.0103752
0.0101279
0.00966927
0.00904513
0.0083079
0.00750794
0.00669407
0.00590902
0.00517562
0.00449995
0.00389151
0.00336716
0.00293991
0.00261745
0.0023887
0.00222875
0.00212518
0.0020796
0.00207812
0.00206775
0.00199845
0.00187764
0.00131547
0.00122424
0.00301781
0.00608852
0.00822442
0.00960911
0.0103952
0.0106525
0.0104663
0.00998431
0.00942645
0.00912756
0.009171
0.00924533
0.00919522
0.00900479
0.00865654
0.00814114
0.00748589
0.00675145
0.00600312
0.00529198
0.00464585
0.00407076
0.00356252
0.00311969
0.00274972
0.0024623
0.00225961
0.00212904
0.00205699
0.0020296
0.00203462
0.00205716
0.00207078
0.00203757
0.00194096
0.00177788
0.0011313
0.00192462
0.00654805
0.00907642
0.00987887
0.0100023
0.00968421
0.00908938
0.0084118
0.00783594
0.00739586
0.00710303
0.00688694
0.00666724
0.00642553
0.00614386
0.00579804
0.00538844
0.00494666
0.0045149
0.0041227
0.00377987
0.00348191
0.00321916
0.00298347
0.0027708
0.00258106
0.00241695
0.0022828
0.00218337
0.00212323
0.00210368
0.00211875
0.00215105
0.00217483
0.00214715
0.00217465
0.00231607
0.0011656
0.0017827
0.00189557
0.00197598
0.00216732
0.00208269
0.00199952
0.0019182
0.00180358
0.00166422
0.00151816
0.00138214
0.00127274
0.00119453
0.00114038
0.00110089
0.00106862
0.0010384
0.00100749
0.000975653
0.000944274
0.000914912
0.000888424
0.000864963
0.000844413
0.000826851
0.000812823
0.000803355
0.000799683
0.000802913
0.000813792
0.000832725
0.000859942
0.000895708
0.000940118
0.000992033
0.00105228
0.00107519
0.00104582
0.000990014
0.000939399
)
;

boundaryField
{
    floor
    {
        type            nutkWallFunction;
        Cmu             0.09;
        kappa           0.41;
        E               9.8;
        value           nonuniform List<scalar> 
29
(
0.000116853
6.41396e-05
7.66103e-05
8.96285e-05
9.57707e-05
9.57872e-05
9.31826e-05
8.72759e-05
8.08791e-05
7.50403e-05
6.98933e-05
6.53695e-05
6.13816e-05
5.7832e-05
5.46576e-05
5.17473e-05
4.89477e-05
4.60309e-05
4.30429e-05
3.79958e-05
3.79958e-05
4.53049e-05
5.01271e-05
5.42784e-05
0.000116853
6.41395e-05
6.27099e-05
0.000101388
0.000173314
)
;
    }
    ceiling
    {
        type            nutkWallFunction;
        Cmu             0.09;
        kappa           0.41;
        E               9.8;
        value           nonuniform List<scalar> 
43
(
0.000209494
0.00022189
0.000230675
0.000251536
0.000242417
0.00023339
0.000224518
0.000211934
0.000196513
0.000180197
0.000164846
0.000152378
0.00014339
0.000137129
0.000132542
0.000128779
0.000125244
0.000121616
0.000117865
0.000114155
0.00011067
0.000107515
0.000104711
0.000102248
0.000100137
9.84473e-05
9.73046e-05
9.68606e-05
9.72499e-05
9.85617e-05
0.00010084
0.000104105
0.000108378
0.000113656
0.00011979
0.000126863
0.000129541
0.000126107
0.000119552
0.000113572
0.000344072
0.000400206
0.000224903
)
;
    }
    sWall
    {
        type            nutkWallFunction;
        Cmu             0.09;
        kappa           0.41;
        E               9.8;
        value           uniform 0.000209552;
    }
    nWall
    {
        type            nutkWallFunction;
        Cmu             0.09;
        kappa           0.41;
        E               9.8;
        value           nonuniform List<scalar> 6(9.08484e-05 9.45983e-05 0.000107378 0.000136082 0.000140057 0.000113576);
    }
    sideWalls
    {
        type            empty;
    }
    glass1
    {
        type            nutkWallFunction;
        Cmu             0.09;
        kappa           0.41;
        E               9.8;
        value           nonuniform List<scalar> 9(0.000141623 0.000184791 0.000219288 0.000251419 0.000283719 0.000317762 0.00034764 0.000353047 0.000344498);
    }
    glass2
    {
        type            nutkWallFunction;
        Cmu             0.09;
        kappa           0.41;
        E               9.8;
        value           nonuniform List<scalar> 2(0.000164716 0.00015731);
    }
    sun
    {
        type            nutkWallFunction;
        Cmu             0.09;
        kappa           0.41;
        E               9.8;
        value           nonuniform List<scalar> 
14
(
0.000141492
0.000155274
0.000159699
0.000167633
0.000175176
0.000182649
0.000190035
0.000195388
0.000197901
0.000196996
0.000192328
0.00018342
0.000166833
0.000141782
)
;
    }
    heatsource1
    {
        type            nutkWallFunction;
        Cmu             0.09;
        kappa           0.41;
        E               9.8;
        value           nonuniform List<scalar> 3(6.54627e-05 8.06355e-05 9.08494e-05);
    }
    heatsource2
    {
        type            nutkWallFunction;
        Cmu             0.09;
        kappa           0.41;
        E               9.8;
        value           nonuniform List<scalar> 4(0.000149167 0.000113309 0.000113309 0.000151928);
    }
    Table_master
    {
        type            nutkWallFunction;
        Cmu             0.09;
        kappa           0.41;
        E               9.8;
        value           nonuniform List<scalar> 9(0.000121429 0.000105745 9.28901e-05 8.24348e-05 7.38945e-05 6.68638e-05 6.10341e-05 5.62674e-05 5.25864e-05);
    }
    Table_slave
    {
        type            nutkWallFunction;
        Cmu             0.09;
        kappa           0.41;
        E               9.8;
        value           nonuniform List<scalar> 9(0.000137209 0.000124016 0.000113971 0.000105822 9.89348e-05 9.26707e-05 8.65769e-05 8.02733e-05 7.32066e-05);
    }
    inlet
    {
        type            calculated;
        value           uniform 0.000100623;
    }
    outlet
    {
        type            calculated;
        value           nonuniform List<scalar> 2(0.0017827 0.00189557);
    }
}


// ************************************************************************* //
