/*--------------------------------*- C++ -*----------------------------------*\
  =========                 |
  \\      /  F ield         | OpenFOAM: The Open Source CFD Toolbox
   \\    /   O peration     | Website:  https://openfoam.org
    \\  /    A nd           | Version:  6
     \\/     M anipulation  |
\*---------------------------------------------------------------------------*/
FoamFile
{
    version     2.0;
    format      ascii;
    class       volScalarField;
    location    "800";
    object      epsilon;
}
// * * * * * * * * * * * * * * * * * * * * * * * * * * * * * * * * * * * * * //

dimensions      [0 2 -3 0 0 0 0];

internalField   nonuniform List<scalar> 
459
(
0.000119521
0.000134022
7.85429e-05
7.51814e-05
7.60474e-05
7.76868e-05
7.98368e-05
8.24113e-05
8.56644e-05
8.96302e-05
9.41399e-05
9.88544e-05
0.000103309
0.000106858
0.000108008
1.56161e-05
1.28355e-05
7.21743e-06
4.1745e-06
3.28978e-06
3.16149e-06
3.36309e-06
3.8499e-06
4.40646e-06
4.91084e-06
5.21602e-06
5.23711e-06
5.39813e-06
6.13438e-06
7.94027e-06
1.15639e-05
1.66784e-05
3.48556e-05
2.78768e-05
0.000662352
0.0012482
0.00019155
8.30719e-05
6.60698e-05
6.07275e-05
5.83581e-05
5.74077e-05
5.78926e-05
5.99826e-05
6.38957e-05
6.99893e-05
7.87474e-05
9.06646e-05
0.000107727
0.000150477
3.28748e-05
3.63816e-05
3.7573e-05
1.50127e-05
8.68206e-06
7.52863e-06
7.5517e-06
7.87194e-06
9.38993e-06
1.10963e-05
1.26664e-05
1.41714e-05
1.60533e-05
1.88875e-05
2.37671e-05
3.15022e-05
4.07597e-05
6.17731e-05
0.000154526
8.30297e-05
0.00180081
0.00427252
0.00079009
0.000247569
0.000147475
0.000113591
9.51193e-05
8.38223e-05
7.7238e-05
7.46248e-05
7.54109e-05
7.93999e-05
8.65616e-05
9.67462e-05
0.000110058
0.000131154
0.000183964
6.83764e-05
4.35847e-05
1.74116e-05
1.25766e-05
1.16197e-05
1.12634e-05
8.79387e-06
1.05207e-05
1.28365e-05
1.58289e-05
1.99843e-05
2.62086e-05
3.63197e-05
5.45741e-05
9.20424e-05
7.34466e-05
0.00011768
0.000323729
0.000164807
0.00360255
0.00925965
0.00241076
0.000828587
0.000428947
0.000279387
0.000200791
0.00015332
0.000124459
0.000108601
0.000101282
0.000100445
0.000104756
0.000112641
0.000121931
0.000130069
0.000137962
0.000163246
5.64212e-05
3.49022e-05
2.67492e-05
2.81784e-05
3.30241e-05
4.16593e-05
5.74046e-05
5.77106e-05
5.87573e-05
6.05824e-05
6.36748e-05
6.87555e-05
7.71708e-05
9.20661e-05
0.000122339
7.9619e-05
0.000125901
0.000305035
0.000177369
0.00592534
0.0151175
0.00550528
0.00238935
0.00123406
0.000735937
0.000468224
0.000318261
0.000229615
0.000176014
0.000147086
0.000134284
0.000132949
0.000138584
0.000146833
0.000151471
0.000143868
0.000116261
7.79825e-05
5.53835e-05
4.77327e-05
4.61937e-05
4.69904e-05
4.82363e-05
4.91333e-05
4.89719e-05
4.89808e-05
4.93255e-05
5.01721e-05
5.17413e-05
5.43307e-05
5.83588e-05
6.40954e-05
6.98369e-05
8.21893e-05
0.000102023
0.000123695
8.52281e-05
9.0146e-05
9.34455e-05
0.00862721
0.0192458
0.0102491
0.00538393
0.00305915
0.00179448
0.00108895
0.000685221
0.000449615
0.000311564
0.000230459
0.000185069
0.000169179
0.000168409
0.000175643
0.000182839
0.000179013
0.000156843
0.000126731
0.000103918
9.09164e-05
8.38011e-05
8.03803e-05
7.8898e-05
7.80065e-05
7.71979e-05
7.66701e-05
7.64805e-05
7.67092e-05
7.75006e-05
7.90359e-05
8.15399e-05
8.51882e-05
8.95051e-05
9.31789e-05
9.47487e-05
9.52696e-05
0.000106102
0.000151241
0.000180305
0.0106267
0.0188339
0.0152609
0.00993445
0.00591936
0.00348693
0.00207407
0.00126159
0.000790832
0.000517075
0.000358767
0.000270091
0.000222256
0.000204141
0.00020597
0.000217332
0.000222434
0.000212376
0.000191916
0.000171533
0.000155974
0.000145221
0.000138608
0.000134878
0.000132699
0.000131334
0.00013055
0.000130194
0.000130277
0.00013099
0.000132627
0.000135528
0.000139845
0.000144721
0.000147465
0.000145558
0.000142922
0.000158917
0.000235979
0.000299306
0.0097224
0.0172233
0.0245965
0.0175116
0.0104798
0.0059161
0.00334179
0.00194035
0.00117389
0.000747129
0.000505193
0.000367827
0.000293061
0.000257659
0.000249241
0.000260351
0.00027562
0.000283247
0.000279777
0.00027012
0.000259377
0.000250199
0.000243672
0.000239687
0.000237567
0.000236761
0.000236877
0.000237399
0.000238219
0.000239636
0.000242129
0.000246173
0.000251887
0.000258107
0.000261212
0.00025608
0.00024425
0.000251196
0.00034254
0.000476841
0.00811742
0.0127917
0.0710085
0.0408978
0.0185722
0.0084902
0.00422897
0.00232396
0.00139841
0.000913561
0.000646116
0.000496192
0.00041554
0.00037924
0.000373298
0.00038548
0.000407825
0.000434048
0.000453613
0.000464739
0.000469716
0.000471674
0.000472667
0.000473914
0.000475988
0.000479145
0.000483182
0.000486859
0.000490076
0.000493506
0.000498
0.000504192
0.000512004
0.000519689
0.000522613
0.000513355
0.000487032
0.000461113
0.000508343
0.000773557
0.150532
0.0940354
0.0197727
0.00630534
0.00341812
0.00217079
0.00151902
0.00115946
0.000960247
0.000856591
0.000813689
0.000811079
0.000835402
0.00087675
0.000926954
0.000975739
0.0010198
0.00105604
0.00108434
0.00110718
0.00112491
0.00113937
0.00115247
0.00116569
0.00117917
0.00118908
0.00119597
0.0012018
0.00120837
0.00121671
0.00122654
0.00123537
0.00123697
0.00121968
0.00116638
0.00106961
0.00104828
0.00136837
0.0911877
0.0373114
0.0134566
0.00611578
0.00372724
0.00277625
0.00233544
0.00212396
0.0020465
0.00205769
0.00212852
0.00223775
0.00236847
0.00250624
0.0026376
0.00275238
0.002844
0.00291257
0.0029621
0.0029975
0.0030254
0.00305043
0.00307589
0.00310401
0.00313437
0.00315615
0.00317077
0.00318295
0.00319657
0.00321322
0.00323149
0.0032459
0.00324498
0.00321155
0.00313271
0.00302619
0.00308655
0.00268705
0.000920233
0.00186965
0.0270488
0.0148607
0.00685915
0.00331062
0.00247602
0.00219449
0.00202515
0.00190558
0.00182329
0.00177265
0.00174782
0.00174299
0.00175295
0.00177303
0.00179887
0.00182593
0.00185056
0.00187023
0.0018841
0.00189275
0.00189708
0.00189852
0.00189829
0.00189711
0.00189524
0.00189575
0.00189413
0.00188951
0.00188235
0.00187298
0.00186073
0.00184338
0.00181644
0.0017728
0.00170306
0.00159672
0.00144726
0.000990897
)
;

boundaryField
{
    floor
    {
        Cmu             0.09;
        kappa           0.41;
        E               9.8;
        type            epsilonWallFunction;
        value           nonuniform List<scalar> 
29
(
0.000108008
1.56161e-05
1.28355e-05
7.21743e-06
4.1745e-06
3.28978e-06
3.16149e-06
3.36309e-06
3.8499e-06
4.40646e-06
4.91084e-06
5.21602e-06
5.23711e-06
5.39813e-06
6.13438e-06
7.94027e-06
1.15639e-05
1.66784e-05
3.48556e-05
2.78768e-05
2.78768e-05
8.30297e-05
0.000164807
0.000177369
0.000108008
1.56161e-05
3.63816e-05
6.83764e-05
0.000163246
)
;
    }
    ceiling
    {
        Cmu             0.09;
        kappa           0.41;
        E               9.8;
        type            epsilonWallFunction;
        value           nonuniform List<scalar> 
43
(
0.000920233
0.00186965
0.0270488
0.0148607
0.00685915
0.00331062
0.00247602
0.00219449
0.00202515
0.00190558
0.00182329
0.00177265
0.00174782
0.00174299
0.00175295
0.00177303
0.00179887
0.00182593
0.00185056
0.00187023
0.0018841
0.00189275
0.00189708
0.00189852
0.00189829
0.00189711
0.00189524
0.00189575
0.00189413
0.00188951
0.00188235
0.00187298
0.00186073
0.00184338
0.00181644
0.0017728
0.00170306
0.00159672
0.00144726
0.000990897
0.00811742
0.0127917
0.0911877
)
;
    }
    sWall
    {
        Cmu             0.09;
        kappa           0.41;
        E               9.8;
        type            epsilonWallFunction;
        value           uniform 0.000920233;
    }
    nWall
    {
        Cmu             0.09;
        kappa           0.41;
        E               9.8;
        type            epsilonWallFunction;
        value           nonuniform List<scalar> 6(9.34455e-05 0.000180305 0.000299306 0.00136837 0.00268705 0.000990897);
    }
    sideWalls
    {
        type            empty;
    }
    glass1
    {
        Cmu             0.09;
        kappa           0.41;
        E               9.8;
        type            epsilonWallFunction;
        value           nonuniform List<scalar> 9(0.000119521 0.000662352 0.00180081 0.00360255 0.00592534 0.00862721 0.0106267 0.0097224 0.00811742);
    }
    glass2
    {
        Cmu             0.09;
        kappa           0.41;
        E               9.8;
        type            epsilonWallFunction;
        value           nonuniform List<scalar> 2(0.000476841 0.000773557);
    }
    sun
    {
        Cmu             0.09;
        kappa           0.41;
        E               9.8;
        type            epsilonWallFunction;
        value           nonuniform List<scalar> 
14
(
0.000119521
0.000134022
7.85429e-05
7.51814e-05
7.60474e-05
7.76868e-05
7.98368e-05
8.24113e-05
8.56644e-05
8.96302e-05
9.41399e-05
9.88544e-05
0.000103309
0.000106858
)
;
    }
    heatsource1
    {
        Cmu             0.09;
        kappa           0.41;
        E               9.8;
        type            epsilonWallFunction;
        value           nonuniform List<scalar> 3(8.52281e-05 9.0146e-05 9.34455e-05);
    }
    heatsource2
    {
        Cmu             0.09;
        kappa           0.41;
        E               9.8;
        type            epsilonWallFunction;
        value           nonuniform List<scalar> 4(0.000150477 3.28748e-05 3.28748e-05 0.000183964);
    }
    Table_master
    {
        Cmu             0.09;
        kappa           0.41;
        E               9.8;
        type            epsilonWallFunction;
        value           nonuniform List<scalar> 9(8.79387e-06 1.05207e-05 1.28365e-05 1.58289e-05 1.99843e-05 2.62086e-05 3.63197e-05 5.45741e-05 9.20424e-05);
    }
    Table_slave
    {
        Cmu             0.09;
        kappa           0.41;
        E               9.8;
        type            epsilonWallFunction;
        value           nonuniform List<scalar> 9(5.74046e-05 5.77106e-05 5.87573e-05 6.05824e-05 6.36748e-05 6.87555e-05 7.71708e-05 9.20661e-05 0.000122339);
    }
    inlet
    {
        type            turbulentMixingLengthDissipationRateInlet;
        mixingLength    0.01;
        phi             phi;
        k               k;
        value           uniform 3.77337e-06;
    }
    outlet
    {
        type            zeroGradient;
    }
}


// ************************************************************************* //
