/*--------------------------------*- C++ -*----------------------------------*\
  =========                 |
  \\      /  F ield         | OpenFOAM: The Open Source CFD Toolbox
   \\    /   O peration     | Website:  https://openfoam.org
    \\  /    A nd           | Version:  6
     \\/     M anipulation  |
\*---------------------------------------------------------------------------*/
FoamFile
{
    version     2.0;
    format      ascii;
    class       volScalarField;
    location    "500";
    object      nut;
}
// * * * * * * * * * * * * * * * * * * * * * * * * * * * * * * * * * * * * * //

dimensions      [0 2 -1 0 0 0 0];

internalField   nonuniform List<scalar> 
459
(
0.000686932
0.000711025
0.000658144
0.000681898
0.000708011
0.000732997
0.000756946
0.00078047
0.000804522
0.000828707
0.000849445
0.000865631
0.000876426
0.000881113
0.000875856
0.000291492
0.000319299
0.000267075
0.000233303
0.000219103
0.000215257
0.000219048
0.000233185
0.000246846
0.000257761
0.000263565
0.000261019
0.000254746
0.000254151
0.000261465
0.000277703
0.000270705
0.000248569
0.000225294
0.00114993
0.00212943
0.00165306
0.00217447
0.00239164
0.00259881
0.00280605
0.00299765
0.00315061
0.00325555
0.00330665
0.0032692
0.00308457
0.0026543
0.00187072
0.000946792
0.000599988
0.000430354
0.0012497
0.0010957
0.000901401
0.000702485
0.000570605
0.000532073
0.00062508
0.000731692
0.000814461
0.000860781
0.000865154
0.000864936
0.000897354
0.00100908
0.00127867
0.00113695
0.000771107
0.000352731
0.00156917
0.00352993
0.00177693
0.00306046
0.00360398
0.00386901
0.00408625
0.00426883
0.0044104
0.0045103
0.00456626
0.00454317
0.00437544
0.00395633
0.00316615
0.0020501
0.000988566
0.000607204
0.00164869
0.00142681
0.00106607
0.000771686
0.00052018
0.000294966
0.000311846
0.000334474
0.000358602
0.000386121
0.00042018
0.000465053
0.000529274
0.000629173
0.00205363
0.00216221
0.00179575
0.000515472
0.00197539
0.00534701
0.00210848
0.00310784
0.00416084
0.0044853
0.00468138
0.00484191
0.00497914
0.00509347
0.00521633
0.00533083
0.00538098
0.00525748
0.00478246
0.0037542
0.00219442
0.000948718
0.00220031
0.0026433
0.00222551
0.00174787
0.00133648
0.000943149
0.000635058
0.000628818
0.00062756
0.000630605
0.000639134
0.00065497
0.000680906
0.000722118
0.000791566
0.00255083
0.00269682
0.00242814
0.000750553
0.00236092
0.00737818
0.00312766
0.00282619
0.00412707
0.00459554
0.00479758
0.00493694
0.00505172
0.00516254
0.00535059
0.00562367
0.00595805
0.00629734
0.00654159
0.00658079
0.00634358
0.00584704
0.00549259
0.00502785
0.0046515
0.00437356
0.00411774
0.00388677
0.00368002
0.00355331
0.00343912
0.00333037
0.00322836
0.00314155
0.00308515
0.00307501
0.00311812
0.00322928
0.00312985
0.00296695
0.00263478
0.001044
0.000893385
0.000768467
0.0027287
0.00928592
0.00521865
0.00322814
0.00356376
0.00412635
0.00448105
0.00470135
0.00481332
0.00488107
0.00507515
0.00539031
0.00583454
0.00639042
0.00695884
0.00740181
0.0075805
0.00742425
0.00704349
0.00660309
0.00622817
0.00593145
0.0056917
0.005491
0.00530984
0.00514249
0.00498305
0.004822
0.00464509
0.00444176
0.0042178
0.00399736
0.00379806
0.00360409
0.00338709
0.0031477
0.00285069
0.00237182
0.00170799
0.000803767
0.00305566
0.0106413
0.00815879
0.00535909
0.00387437
0.00364015
0.00397797
0.00437312
0.0045574
0.00463573
0.00478041
0.0050028
0.00535248
0.00588951
0.00654368
0.00716921
0.00759709
0.00772264
0.007583
0.00730886
0.00701535
0.00674768
0.00651333
0.00630714
0.00612101
0.0059555
0.00581539
0.00569712
0.00558098
0.00542928
0.00520127
0.00488988
0.00453378
0.00416393
0.00377968
0.00336988
0.00291031
0.00237024
0.00177189
0.000831463
0.00310521
0.0100463
0.00881545
0.00780743
0.00616652
0.00507083
0.00466363
0.00463732
0.00467664
0.00467753
0.00470244
0.00478646
0.00496664
0.00528803
0.00576745
0.00634664
0.00688345
0.00723366
0.00735251
0.00729816
0.00715509
0.00697882
0.00679606
0.00661702
0.00644749
0.00629914
0.00618598
0.00612039
0.00610568
0.00612324
0.00611721
0.00600693
0.00575514
0.00537301
0.00488657
0.00432303
0.00373456
0.00314962
0.00266002
0.00141441
0.00299157
0.0034946
0.00598791
0.00659672
0.00632935
0.00580214
0.00534272
0.00502658
0.00481685
0.00468617
0.00463273
0.00465206
0.00474856
0.00493167
0.00521046
0.00557795
0.00598593
0.00634994
0.00660095
0.0067246
0.00674642
0.00670031
0.00661414
0.00650756
0.00639504
0.0062903
0.00620768
0.00616238
0.00617041
0.00624525
0.00638398
0.00654406
0.00669067
0.00679309
0.00685622
0.00688835
0.00670007
0.00610361
0.00553539
0.00155552
0.0119254
0.0125397
0.00849298
0.00695227
0.0060923
0.00554426
0.0051798
0.00493745
0.00480007
0.00476166
0.00480774
0.00492048
0.0050856
0.00529435
0.00553336
0.00577513
0.00598815
0.00614935
0.00625149
0.00630042
0.00630899
0.00629162
0.00626094
0.00622693
0.00619786
0.0061817
0.00618777
0.00622723
0.00630581
0.00642685
0.0065942
0.0067774
0.00690006
0.00685471
0.00658489
0.00603118
0.00499621
0.00158801
0.00488639
0.0104644
0.00822555
0.00692778
0.00612214
0.0055884
0.00524957
0.00507538
0.00504018
0.00509994
0.00524202
0.00544091
0.00566484
0.00588391
0.00606972
0.00619303
0.00626316
0.00629851
0.00631648
0.0063288
0.00634131
0.00635539
0.00636971
0.00638178
0.00638904
0.00638955
0.00638248
0.00636905
0.00635329
0.00634313
0.00634781
0.00634486
0.00626557
0.00607418
0.00571075
0.00510808
0.00442066
0.00167936
0.00172912
0.00234016
0.00361084
0.00307521
0.0027833
0.00256396
0.00229654
0.00206421
0.00187333
0.00171921
0.00160062
0.00151943
0.00146822
0.00144163
0.00143399
0.00143881
0.00145032
0.00146473
0.00147578
0.00148142
0.00148223
0.0014798
0.00147579
0.0014714
0.00146732
0.00146381
0.00146079
0.00145799
0.00145503
0.00145146
0.00144689
0.00144052
0.00143086
0.00141803
0.00140386
0.00138438
0.00135311
0.00129947
0.00125918
0.00127738
)
;

boundaryField
{
    floor
    {
        type            nutkWallFunction;
        Cmu             0.09;
        kappa           0.41;
        E               9.8;
        value           nonuniform List<scalar> 
29
(
0.000106016
3.21804e-05
3.59779e-05
2.88277e-05
2.41066e-05
2.20932e-05
2.15436e-05
2.20829e-05
2.40865e-05
2.60072e-05
2.75315e-05
2.83382e-05
2.79843e-05
2.71107e-05
2.70276e-05
2.80453e-05
3.02917e-05
2.9325e-05
2.6246e-05
2.29678e-05
2.29677e-05
4.04627e-05
6.16609e-05
9.08962e-05
0.000106016
3.21803e-05
5.07088e-05
7.32382e-05
0.000114689
)
;
    }
    ceiling
    {
        type            nutkWallFunction;
        Cmu             0.09;
        kappa           0.41;
        E               9.8;
        value           nonuniform List<scalar> 
43
(
0.000203848
0.000270405
0.000403407
0.000348043
0.000317472
0.000294268
0.000265691
0.000240576
0.000219717
0.000202707
0.000189507
0.000180408
0.000174641
0.000171637
0.000170772
0.000171316
0.000172616
0.000174243
0.000175489
0.000176125
0.000176216
0.000175942
0.000175489
0.000174994
0.000174534
0.000174137
0.000173795
0.000173478
0.000173144
0.00017274
0.000172223
0.000171502
0.00017041
0.000168956
0.000167351
0.000165141
0.000161585
0.000155466
0.000150852
0.00015294
0.000339405
0.000391583
0.000532179
)
;
    }
    sWall
    {
        type            nutkWallFunction;
        Cmu             0.09;
        kappa           0.41;
        E               9.8;
        value           uniform 0.000203893;
    }
    nWall
    {
        type            nutkWallFunction;
        Cmu             0.09;
        kappa           0.41;
        E               9.8;
        value           nonuniform List<scalar> 6(9.30799e-05 9.73562e-05 0.000100694 0.000188092 0.000198273 0.000152949);
    }
    sideWalls
    {
        type            empty;
    }
    glass1
    {
        type            nutkWallFunction;
        Cmu             0.09;
        kappa           0.41;
        E               9.8;
        value           nonuniform List<scalar> 9(8.30741e-05 0.000138365 0.000186176 0.000231152 0.000272912 0.000312078 0.000346433 0.000351614 0.000339752);
    }
    glass2
    {
        type            nutkWallFunction;
        Cmu             0.09;
        kappa           0.41;
        E               9.8;
        value           nonuniform List<scalar> 2(0.000168579 0.000184481);
    }
    sun
    {
        type            nutkWallFunction;
        Cmu             0.09;
        kappa           0.41;
        E               9.8;
        value           nonuniform List<scalar> 
14
(
8.31111e-05
8.60709e-05
7.95605e-05
8.24925e-05
8.57016e-05
8.8759e-05
9.16779e-05
9.45343e-05
9.74445e-05
0.00010036
0.000102853
0.000104793
0.000106085
0.000106645
)
;
    }
    heatsource1
    {
        type            nutkWallFunction;
        Cmu             0.09;
        kappa           0.41;
        E               9.8;
        value           nonuniform List<scalar> 3(0.000125918 0.000108113 9.30801e-05);
    }
    heatsource2
    {
        type            nutkWallFunction;
        Cmu             0.09;
        kappa           0.41;
        E               9.8;
        value           nonuniform List<scalar> 4(0.00011446 7.2329e-05 7.2329e-05 0.000119398);
    }
    Table_master
    {
        type            nutkWallFunction;
        Cmu             0.09;
        kappa           0.41;
        E               9.8;
        value           nonuniform List<scalar> 9(3.26606e-05 3.496e-05 3.80175e-05 4.12483e-05 4.48994e-05 4.93732e-05 5.51992e-05 6.34181e-05 7.59675e-05);
    }
    Table_slave
    {
        type            nutkWallFunction;
        Cmu             0.09;
        kappa           0.41;
        E               9.8;
        value           nonuniform List<scalar> 9(7.66995e-05 7.59237e-05 7.5767e-05 7.61454e-05 7.72049e-05 7.91675e-05 8.23699e-05 8.74288e-05 9.58776e-05);
    }
    inlet
    {
        type            calculated;
        value           uniform 3.3541e-05;
    }
    outlet
    {
        type            calculated;
        value           nonuniform List<scalar> 2(0.00172912 0.00234016);
    }
}


// ************************************************************************* //
