/*--------------------------------*- C++ -*----------------------------------*\
  =========                 |
  \\      /  F ield         | OpenFOAM: The Open Source CFD Toolbox
   \\    /   O peration     | Website:  https://openfoam.org
    \\  /    A nd           | Version:  6
     \\/     M anipulation  |
\*---------------------------------------------------------------------------*/
FoamFile
{
    version     2.0;
    format      ascii;
    class       surfaceScalarField;
    location    "340";
    object      phi;
}
// * * * * * * * * * * * * * * * * * * * * * * * * * * * * * * * * * * * * * //

dimensions      [1 0 -1 0 0 0 0];

internalField   nonuniform List<scalar> 
852
(
-0.00254631
0.00258338
-0.00360238
0.00105606
-0.00437211
0.000769707
-0.00491506
0.000542935
-0.00519933
0.000284258
-0.00519202
-7.32309e-06
-0.00485914
-0.000332902
-0.00420219
-0.000656962
-0.00328721
-0.000914996
-0.00223551
-0.00105171
-0.00118509
-0.00105044
-0.000276737
-0.00090837
0.000297931
-0.000574689
0.000451023
-0.000153114
0.000446683
2.10025e-05
-2.70212e-05
-0.00030119
0.000322144
-0.0001956
-0.000105633
0.000178841
-0.000374481
0.00053087
-0.000352068
0.000805102
-0.000274273
0.000977235
-0.000172174
0.00106709
-8.98993e-05
0.00112254
-5.54903e-05
0.00116214
-3.9651e-05
0.00118984
-2.77385e-05
0.00120589
-1.6095e-05
0.00120608
-2.43573e-07
0.00117848
2.75553e-05
0.00109648
8.19541e-05
0.00091543
0.000180994
0.000595758
0.000319619
-2.0658e-06
0.000597769
-9.7732e-06
-0.00186534
0.00455052
-0.00283598
0.00202669
-0.00360325
0.00153696
-0.00414176
0.00108143
-0.00443134
0.000573822
-0.00443792
-7.56184e-07
-0.00413173
-0.000639102
-0.00352955
-0.00125915
-0.00271477
-0.00172978
-0.00181569
-0.00195082
-0.000956512
-0.00190963
-0.000236483
-0.00162842
0.000310439
-0.00112163
0.000710231
-0.000552929
0.00110187
5.50238e-05
0.000671499
0.000430296
0.000671426
-0.000129303
8.9128e-05
0.000138317
5.44815e-05
0.000497444
-0.000464797
0.000746677
-0.00062375
0.000947767
-0.000553196
0.00109658
-0.000423126
0.00113618
-0.00021181
0.00114851
-0.000102275
0.00116054
-6.75536e-05
0.00117053
-4.96843e-05
0.00117798
-3.52313e-05
0.00118355
-2.17147e-05
0.00118547
-2.21045e-06
0.00117908
3.39062e-05
0.00113716
0.000123819
0.000974595
0.000343514
0.000697275
0.000596888
0.000451053
0.000843937
0.000421457
-0.00133205
0.00604062
-0.00213327
0.00282789
-0.00280953
0.00221321
-0.00328222
0.00155411
-0.00354516
0.000836742
-0.00354711
1.1907e-06
-0.00323672
-0.000949509
-0.00265796
-0.00183791
-0.00191939
-0.00246836
-0.00115273
-0.00271748
-0.000454107
-0.00260827
0.000115017
-0.00219756
0.00056192
-0.00156856
0.000873904
-0.000864936
0.00106797
-0.000139067
0.000920482
0.000577765
0.00159189
2.17407e-05
4.74875e-05
0.00091945
-0.000843261
0.00124369
-0.000789067
0.00134575
-0.000725844
0.00141097
-0.000618459
0.0014849
-0.000497085
0.0012732
0.00117104
0.0011036
0.00105402
0.0010189
0.000997295
0.000995192
0.0010292
0.00115313
0.00100594
0.000490655
0.000858768
0.000744007
0.000705046
0.000997606
0.00109641
-0.000938323
0.00718631
-0.00153256
0.00342211
-0.00199072
0.00267136
-0.00231383
0.00187721
-0.00249506
0.00101796
-0.0024374
-5.64815e-05
-0.0020763
-0.00131062
-0.00151618
-0.00239803
-0.000881078
-0.00310346
-0.000279219
-0.00331934
0.000235841
-0.00312334
0.000646231
-0.00260797
0.000983706
-0.00190605
0.00125511
-0.00113637
0.00148829
-0.000372272
0.00175455
0.000311488
0.00257552
0.000770887
0.00224409
0.000311231
0.00249662
-0.000205073
0.00214122
-0.000487889
0.00197189
-0.000619767
0.00184147
-0.000595459
0.00173411
-0.000511133
0.00160832
-0.000371336
0.0017512
-0.000143072
0.00179308
-4.20789e-05
0.00178638
6.50815e-06
0.001745
4.11719e-05
0.00167269
7.21129e-05
0.00156931
0.000103176
0.00142908
0.000140029
0.00123607
0.0001928
0.000953475
0.000282392
0.000937742
0.000506334
0.000933087
0.000748609
0.000993555
0.000937084
0.00205105
-0.000656628
0.00809324
-0.00105879
0.00382425
-0.00117495
0.00278751
-0.00125509
0.00195733
-0.00127633
0.00103918
-0.00105535
-0.000277467
-0.00061203
-0.00175395
-0.000104793
-0.00290526
0.000356257
-0.00356451
0.000729661
-0.00369274
0.00101456
-0.00340825
0.00123421
-0.00282763
0.0014133
-0.00208517
0.00157856
-0.00130165
0.00177477
-0.000568512
0.00205621
3.00226e-05
0.00244815
0.000378924
0.00257053
0.000188824
0.00244892
-8.34936e-05
0.00223867
-0.00027766
0.00200775
-0.000388885
0.00180988
-0.000397625
0.00164071
-0.000342006
0.00150695
-0.000237618
0.00146074
-9.69077e-05
0.00140697
1.16459e-05
0.00133387
7.95538e-05
0.00125056
0.000124424
0.0011609
0.000161721
0.00106477
0.000199251
0.000961437
0.000243305
0.000853459
0.000300722
0.000760662
0.000375131
0.000776588
0.000490353
0.000942576
0.000582566
0.00148047
0.000399141
0.0024773
0.00105416
0.00119646
0.00128058
-0.000273346
0.00146955
-0.000321275
-0.000558554
0.00893894
-0.000778779
0.00404446
-0.000424483
0.0024332
-0.000133186
0.00166602
0.000158415
0.000747564
0.000628328
-0.000747394
0.0011073
-0.00223293
0.00146872
-0.00326667
0.00168186
-0.00377764
0.00178489
-0.00379577
0.00180188
-0.00342526
0.00176785
-0.00279362
0.00172117
-0.00203852
0.00169919
-0.0012797
0.00173814
-0.000607497
0.0018602
-9.20645e-05
0.00204088
0.000198218
0.00206594
0.000163733
0.00195926
2.31569e-05
0.00179327
-0.000111699
0.0015962
-0.000191859
0.00140455
-0.000206014
0.00122987
-0.000167374
0.00108077
-8.85721e-05
0.000968566
1.52481e-05
0.00087644
0.000103716
0.000793672
0.000162265
0.000715326
0.000202712
0.00064081
0.000236179
0.000570935
0.000269067
0.000508695
0.000305485
0.000461617
0.000347739
0.000443589
0.000393099
0.000493853
0.00044003
0.000617469
0.000458892
0.000682451
0.000334103
0.000783745
0.000952813
0.000345696
0.00171857
-0.000393456
0.00220864
-0.000761585
-0.000592948
0.00985221
-0.000407362
0.00385886
0.000561529
0.00146429
0.00122102
0.0010065
0.00188894
7.96254e-05
0.00255478
-0.00141325
0.00296146
-0.0026396
0.00309799
-0.00340319
0.00300995
-0.00368959
0.00276837
-0.0035542
0.00244141
-0.00309831
0.00208961
-0.00244185
0.00176779
-0.00171673
0.00151812
-0.00103007
0.00136651
-0.000455923
0.0013165
-4.20893e-05
0.00133615
0.000178525
0.00130995
0.000189905
0.00122684
0.000106228
0.00109899
1.61059e-05
0.000943143
-3.60584e-05
0.000779726
-4.26468e-05
0.000620249
-7.95133e-06
0.000477592
5.40282e-05
0.000368069
0.000124711
0.000288365
0.000183359
0.000224606
0.000225962
0.000170047
0.000257208
0.000123634
0.000282529
8.76146e-05
0.000305023
6.70276e-05
0.000326009
6.93721e-05
0.000345331
0.000101404
0.000361004
0.000167807
0.000373565
0.00023942
0.000387219
0.000189757
0.000383707
0.000182417
0.000960096
-4.1775e-05
0.0019427
-0.000140425
0.00230723
-0.000946315
0.0021662
0.00804454
0.00280419
0.00322086
0.00306892
0.00119955
0.003749
0.000326399
0.0045787
-0.000750095
0.00501083
-0.00184537
0.00502591
-0.00265466
0.00469463
-0.0030719
0.00411925
-0.00311419
0.00341316
-0.00284811
0.00267597
-0.00236116
0.00197898
-0.00174489
0.0013871
-0.0011249
0.000940442
-0.000583465
0.000645204
-0.000160732
0.000501249
0.000101819
0.000461829
0.000217903
0.000432876
0.000218814
0.00037212
0.000166938
0.000275376
0.000112799
0.00015545
8.38128e-05
2.63833e-05
8.63614e-05
-9.4493e-05
0.000112863
-0.000191875
0.000151346
-0.000260839
0.000193609
-0.000307914
0.000230367
-0.000340738
0.000258719
-0.000363126
0.00027953
-0.000374532
0.000293867
-0.000371273
0.000301697
-0.0003474
0.000302069
-0.000295757
0.000293621
-0.000210535
0.000275716
-9.01546e-05
0.000253119
5.0948e-05
0.000246052
0.000148706
0.000285886
0.000402026
0.000706717
0.00075279
0.00159188
0.00162225
0.0014377
0.000400847
0.00840379
0.0115906
0.010302
0.00248817
0.0097064
0.000921939
0.00905144
-9.51172e-05
0.00812627
-0.000920162
0.00697938
-0.00150772
0.00571218
-0.00180467
0.00441822
-0.00182023
0.00318915
-0.00161905
0.00209273
-0.00126479
0.00115547
-0.000807689
0.000430485
-0.000399975
-6.32398e-05
-8.98024e-05
-0.000336818
0.00011279
-0.000440815
0.000205763
-0.000461322
0.000238359
-0.000472361
0.0002298
-0.000506855
0.000201375
-0.000568124
0.000174007
-0.000644486
0.00016011
-0.000720621
0.000162429
-0.000784497
0.000176669
-0.000830121
0.000196899
-0.000855671
0.000219087
-0.000864483
0.000239108
-0.000860425
0.000254589
-0.000845173
0.000264206
-0.000817953
0.000266575
-0.000776137
0.00025981
-0.000715771
0.000241632
-0.000632106
0.000209884
-0.000520232
0.000163771
-0.000373755
0.000106572
-0.000177063
4.92917e-05
5.9641e-05
4.91151e-05
0.00047186
0.000294435
0.00112942
0.000934259
0.00180245
0.000764614
0.00190706
0.00625829
0.00254873
0.00550056
0.00167974
0.00525139
0.00015412
0.00487744
-0.000546174
0.00414186
-0.000772144
0.00316764
-0.000830491
0.00210242
-0.000755077
0.00108178
-0.00059849
0.000172143
-0.000355229
-0.000539032
-9.65962e-05
-0.00099613
5.70516e-05
-0.00123719
0.000151197
-0.0013251
0.000200639
-0.00133978
0.000220379
-0.00132619
0.00022471
-0.00131341
0.000216953
-0.00131449
0.000202384
-0.00132847
0.000187913
-0.00134718
0.000178755
-0.00136151
0.000176677
-0.00136533
0.000180419
-0.00135625
0.000187737
-0.00133392
0.000196679
-0.00129993
0.000205047
-0.00125629
0.000210872
-0.00120453
0.000212368
-0.00114571
0.000207679
-0.00108071
0.000194733
-0.0010105
0.000171348
-0.000936361
0.000135675
-0.000859503
8.68396e-05
-0.000778949
2.59445e-05
-0.000683473
-4.62552e-05
-0.000576296
-5.81318e-05
-0.000455076
0.000173148
-0.000232239
0.000711356
-8.63049e-05
0.000618613
0.00176732
0.000969788
0.00154222
0.00169444
0.000955118
0.00159787
0.000250679
0.0011568
-0.000105173
0.000598911
-0.000214345
-2.90585e-05
-0.000202637
-0.000661801
-0.000122427
-0.00123834
-2.20408e-05
-0.00166734
7.36842e-05
-0.00190753
0.000143516
-0.00202606
0.000175516
-0.00206403
0.00018909
-0.00205193
0.000188468
-0.00201369
0.000182068
-0.00196418
0.000175129
-0.00191495
0.000167653
-0.00187233
0.000159686
-0.00183692
0.000152426
-0.00180544
0.000147204
-0.00177339
0.000144541
-0.00173706
0.000144012
-0.00169423
0.000144826
-0.00164379
0.000146167
-0.00158581
0.000146984
-0.00152119
0.000146172
-0.00145154
0.000142637
-0.00137925
0.000135317
-0.0013079
0.000123302
-0.00124284
0.000106211
-0.00119206
8.48192e-05
-0.00116644
6.11433e-05
-0.00117678
3.62151e-05
-0.0012407
1.75893e-05
-0.00132011
2.12096e-05
-0.0012629
0.00011586
-0.000910856
0.000359247
-0.000819527
0.000527213
0.000879453
-0.00415528
-0.00484339
-0.00335014
-0.00244385
-0.00224452
-0.00240305
-0.00267118
-0.0029283
-0.00310642
-0.00318604
-0.00317193
-0.0030901
-0.00297804
-0.00285361
-0.00273056
-0.00261435
-0.00250532
-0.00240395
-0.0023107
-0.00222486
-0.00214442
-0.00206679
-0.00198982
-0.00191213
-0.00183315
-0.00175334
-0.00167427
-0.00159858
-0.00153001
-0.00147315
-0.00143305
-0.001414
-0.00141835
-0.00144764
-0.00149586
-0.00154065
-0.00148978
-0.00119295
-0.000726213
)
;

boundaryField
{
    floor
    {
        type            calculated;
        value           nonuniform List<scalar> 
29
(
0
0
0
0
0
0
0
0
0
0
0
0
0
0
0
0
0
0
0
0
7.6397e-06
1.97659e-05
3.00356e-05
3.88647e-05
4.31363e-06
5.96581e-06
1.31073e-05
1.98618e-05
2.01785e-05
)
;
    }
    ceiling
    {
        type            calculated;
        value           nonuniform List<scalar> 
43
(
5.61886e-05
5.19256e-05
4.88943e-05
4.87283e-05
5.12211e-05
5.32456e-05
5.36908e-05
5.43806e-05
5.56093e-05
5.74946e-05
5.94941e-05
6.16001e-05
6.33778e-05
6.45897e-05
6.53393e-05
6.57749e-05
6.60275e-05
6.61988e-05
6.6351e-05
6.65092e-05
6.66731e-05
6.68293e-05
6.69619e-05
6.70569e-05
6.71031e-05
6.70922e-05
6.70175e-05
6.68735e-05
6.66571e-05
6.63712e-05
6.60318e-05
6.56834e-05
6.54254e-05
6.5422e-05
6.57335e-05
6.5933e-05
6.49178e-05
6.23421e-05
6.04016e-05
6.58351e-05
4.11301e-05
3.40418e-05
3.6743e-05
)
;
    }
    sWall
    {
        type            calculated;
        value           uniform -0.000191162;
    }
    nWall
    {
        type            calculated;
        value           nonuniform List<scalar> 6(4.76545e-05 4.67841e-05 4.42364e-05 5.33703e-05 6.82697e-05 8.73324e-05);
    }
    sideWalls
    {
        type            empty;
        value           nonuniform 0();
    }
    glass1
    {
        type            calculated;
        value           nonuniform List<scalar> 9(-3.70856e-05 -0.000101818 -0.000158062 -0.000207375 -0.00025031 -0.000287159 -0.00032034 -0.000358536 -0.000400385);
    }
    glass2
    {
        type            calculated;
        value           nonuniform List<scalar> 2(0.000275024 0.00029616);
    }
    sun
    {
        type            calculated;
        value           uniform 0;
    }
    heatsource1
    {
        type            calculated;
        value           nonuniform List<scalar> 3(2.02833e-07 2.0312e-07 2.03341e-07);
    }
    heatsource2
    {
        type            calculated;
        value           nonuniform List<scalar> 4(5.09167e-08 5.10127e-08 0 0);
    }
    Table_master
    {
        type            calculated;
        value           nonuniform List<scalar> 9(-1.52529e-07 -1.52647e-07 -1.52686e-07 -1.5271e-07 -1.52724e-07 -1.52731e-07 -1.52731e-07 -1.52714e-07 -1.52667e-07);
    }
    Table_slave
    {
        type            calculated;
        value           nonuniform List<scalar> 9(1.5232e-07 1.52357e-07 1.52354e-07 1.52352e-07 1.52361e-07 1.52379e-07 1.52408e-07 1.5245e-07 1.52511e-07);
    }
    inlet
    {
        type            calculated;
        value           uniform -0.0063188;
    }
    outlet
    {
        type            calculated;
        value           nonuniform List<scalar> 2(0.00429018 0.000636104);
    }
}


// ************************************************************************* //
