/*--------------------------------*- C++ -*----------------------------------*\
  =========                 |
  \\      /  F ield         | OpenFOAM: The Open Source CFD Toolbox
   \\    /   O peration     | Website:  https://openfoam.org
    \\  /    A nd           | Version:  6
     \\/     M anipulation  |
\*---------------------------------------------------------------------------*/
FoamFile
{
    version     2.0;
    format      ascii;
    class       surfaceScalarField;
    location    "1400";
    object      phi;
}
// * * * * * * * * * * * * * * * * * * * * * * * * * * * * * * * * * * * * * //

dimensions      [1 0 -1 0 0 0 0];

internalField   nonuniform List<scalar> 
852
(
0.00440456
-0.00437416
0.00875703
-0.0043523
0.0111493
-0.00239207
0.0124349
-0.00128535
0.0132359
-0.000800786
0.0137143
-0.00047819
0.0139013
-0.000186693
0.0138172
8.43564e-05
0.0134705
0.000346876
0.0128423
0.000628461
0.0118893
0.000953093
0.0105301
0.00135943
0.00859166
0.00193851
0.00560173
0.00299002
0.005601
-0.000504461
0.000507017
-0.000411135
-9.32874e-05
-0.000297556
-0.000113547
-0.000308125
1.05941e-05
-0.000365627
5.75356e-05
-0.000422876
5.72894e-05
-0.000402839
-1.99876e-05
-0.000253706
-0.000149077
-4.68443e-05
-0.000206801
0.000255541
-0.00030232
0.00039186
-0.00013627
0.000463811
-7.1908e-05
0.000525297
-6.14448e-05
0.000588707
-6.33698e-05
0.000646681
-5.79323e-05
0.000678304
-3.15803e-05
0.000702212
-2.38675e-05
0.000604139
9.81074e-05
0.000606813
0.00510458
-0.0093928
0.00770467
-0.00695227
0.0091145
-0.00380176
0.0100111
-0.00218181
0.0106174
-0.00140685
0.0109968
-0.000857368
0.011176
-0.000365719
0.01115
0.000110618
0.0108974
0.000599624
0.0103994
0.00112664
0.00963732
0.00171526
0.0086039
0.00239296
0.00734575
0.00319675
0.00619952
0.00413634
0.00667326
0.00512733
0.00266928
0.00400402
0.00266932
0.000240282
0.000273519
0.000169499
-2.24787e-05
0.000156092
-0.000100122
0.00017082
-4.12026e-06
0.00015799
7.03847e-05
7.21809e-05
0.000143122
-2.59704e-05
7.819e-05
-8.70729e-05
-8.79138e-05
-5.38103e-05
-0.000239999
2.40496e-05
-0.000380108
5.72573e-05
-0.000169425
6.45161e-05
-7.91254e-05
4.7543e-05
-4.44328e-05
5.35642e-06
-2.11439e-05
-3.92181e-05
-1.33116e-05
1.02153e-06
-7.17809e-05
0.000158331
-0.000181142
0.000209283
4.7184e-05
0.000822718
0.00370264
-0.0129563
0.00527634
-0.00852584
0.0061124
-0.00463769
0.00672453
-0.0027938
0.00718587
-0.00186803
0.00750244
-0.00117379
0.00770842
-0.000571554
0.00778834
3.08205e-05
0.00770648
0.000681592
0.00743995
0.00139326
0.00697898
0.0021763
0.00633952
0.00303249
0.00558767
0.00394866
0.00483414
0.00488993
0.00408086
0.00588067
0.00240506
0.0056799
0.00507447
0.000359229
-7.87469e-05
0.000279677
5.71586e-05
9.12584e-05
8.83783e-05
2.86546e-05
5.85518e-05
7.80236e-05
2.10515e-05
0.000261797
-4.06274e-05
0.000340162
0.000252429
1.26172e-05
-0.00036726
-0.000536475
-0.000615408
-0.000659655
-0.000680613
-0.000693733
-0.000685064
-8.03969e-05
-0.000918226
5.20729e-05
-0.000961748
9.07703e-05
-0.000129884
0.00218574
-0.0149506
0.00303275
-0.00937271
0.00357669
-0.00518149
0.00386338
-0.00308037
0.00413194
-0.00213647
0.00435828
-0.0014
0.00454592
-0.000759087
0.00467124
-9.43907e-05
0.00469684
0.000656072
0.00459166
0.00149851
0.00434156
0.00242646
0.00395032
0.00342379
0.00343344
0.00446559
0.00280243
0.00552101
0.00212283
0.00656035
0.00131138
0.00649143
0.000714879
0.00567105
-0.0011361
0.00185044
-0.00115128
-6.35065e-05
-0.00108178
-1.22766e-05
-0.00105965
6.63292e-05
-0.00109405
9.30223e-05
-0.00114794
7.50337e-05
-0.00122166
3.31835e-05
-0.00121757
-4.1461e-06
-0.00117176
-4.58616e-05
-0.0010971
-7.47295e-05
-0.00100443
-9.27295e-05
-0.000900805
-0.000103692
-0.00078863
-0.000112247
-0.000664629
-0.000124078
-0.000520804
-0.000143905
-0.000349227
-0.000171657
-0.000203681
-0.000225864
6.14364e-05
-0.000212943
0.000289534
-0.000137207
0.000165323
0.000968786
-0.0156759
0.00134695
-0.00975074
0.00159935
-0.00543378
0.00143451
-0.00291542
0.00154924
-0.00225109
0.00173811
-0.00158875
0.00191677
-0.00093764
0.00204111
-0.000218619
0.00209136
0.000605917
0.00204713
0.00154281
0.00189923
0.00257443
0.00164462
0.00367846
0.00128226
0.00482802
0.000831285
0.00597205
0.000399177
0.00699253
-9.84496e-05
0.00698914
-0.000425282
0.00599794
-0.000805007
0.00223016
-0.00126963
0.000401203
-0.00142198
0.000140164
-0.00147239
0.000116837
-0.00148373
0.000104457
-0.00147674
6.81364e-05
-0.00145727
1.38025e-05
-0.00141654
-4.47818e-05
-0.00136459
-9.77112e-05
-0.00130259
-0.000136644
-0.00123255
-0.000162684
-0.00115643
-0.000179728
-0.00107404
-0.000194549
-0.000980975
-0.000217065
-0.000865981
-0.000258819
-0.000707125
-0.000330434
-0.000496151
-0.000436756
-0.000137611
-0.000571397
0.000429986
-0.000704711
0.00135469
-0.000759272
0.00195692
-0.000602331
0.00166827
0.000288542
0.00169712
-2.21014e-05
-0.0153583
2.76624e-06
-0.00977549
-0.000200533
-0.00523038
-0.000694902
-0.00242095
-0.000675117
-0.00227077
-0.000534255
-0.0017295
-0.000395516
-0.00107626
-0.000309812
-0.000304213
-0.000285964
0.000582165
-0.000313209
0.00157014
-0.000391053
0.00265235
-0.000525631
0.00381311
-0.000718106
0.00502056
-0.000942924
0.00619695
-0.00109481
0.00714451
-0.00122785
0.00712225
-0.00109511
0.00586523
-0.00110722
0.00224232
-0.00136175
0.000655827
-0.00149871
0.00027722
-0.00154347
0.000161695
-0.00153626
9.73445e-05
-0.00150346
3.54362e-05
-0.00146089
-2.86693e-05
-0.00141736
-8.821e-05
-0.00137826
-0.000136721
-0.00134436
-0.000170454
-0.00131723
-0.000189722
-0.0012991
-0.000197777
-0.00129136
-0.0002022
-0.00129215
-0.000216195
-0.00129367
-0.00025722
-0.00128053
-0.000343491
-0.00122723
-0.000489972
-0.00109015
-0.000708392
-0.000785642
-0.00100914
-0.000166597
-0.00137823
0.000766857
-0.0015357
0.00117038
-0.000114898
0.00290091
-0.00100851
-0.0140033
-0.00174772
-0.00903617
-0.0023424
-0.0046356
-0.00292084
-0.00184241
-0.00296385
-0.00222766
-0.00285974
-0.0018335
-0.0027411
-0.0011948
-0.0026527
-0.000392506
-0.00259485
0.000524411
-0.00255272
0.00152811
-0.00251503
0.00261474
-0.00247886
0.00377702
-0.00243819
0.00497997
-0.00236624
0.00612509
-0.00218819
0.00696654
-0.00193451
0.00686865
-0.0014755
0.00540627
-0.00132786
0.00209475
-0.00139047
0.000718543
-0.00142601
0.000312866
-0.00141189
0.000147672
-0.00136298
4.85403e-05
-0.00130071
-2.6729e-05
-0.0012437
-8.5581e-05
-0.0012018
-0.000130013
-0.00117748
-0.000160938
-0.00117158
-0.000176265
-0.00118744
-0.000173769
-0.001232
-0.000153127
-0.00131484
-0.000119267
-0.00144424
-8.67182e-05
-0.0016211
-8.02793e-05
-0.00183607
-0.000128435
-0.00206803
-0.000257931
-0.00228655
-0.000489784
-0.00245321
-0.0008424
-0.00250834
-0.00132301
-0.00228259
-0.00176137
-0.00101704
-0.00138036
0.00192327
-0.00365957
-0.00994898
-0.00578219
-0.00691344
-0.00581673
-0.00460095
-0.00583444
-0.0018246
-0.00544707
-0.00261492
-0.00513921
-0.00214125
-0.00494798
-0.00138592
-0.00481359
-0.000526793
-0.00468984
0.000400769
-0.00454453
0.00138289
-0.00434955
0.00241986
-0.00408965
0.0035172
-0.00375401
0.00464442
-0.00332753
0.0056987
-0.00278598
0.00642508
-0.00218858
0.00627134
-0.00154398
0.00476173
-0.00127691
0.00182777
-0.00120378
0.00064552
-0.00113405
0.000243247
-0.00103629
5.00203e-05
-0.000926174
-6.14712e-05
-0.000831374
-0.000121424
-0.00076519
-0.00015166
-0.000727108
-0.000167991
-0.000712939
-0.000175004
-0.000718954
-0.00017015
-0.000745062
-0.000147562
-0.000796728
-0.000101364
-0.000886635
-2.9267e-05
-0.00104056
6.73006e-05
-0.00129829
0.000177529
-0.00169532
0.000268681
-0.00223914
0.000285971
-0.00290102
0.000172183
-0.00366208
-8.12485e-05
-0.0046146
-0.000370403
-0.00574043
-0.000635452
-0.00546777
-0.00165293
-0.00338683
-0.00952772
-0.0164538
-0.0116103
-0.00944432
-0.00822064
-0.00521417
-0.00719001
-0.00364544
-0.00678426
-0.00254691
-0.0066293
-0.00154078
-0.00653163
-0.00062436
-0.00638509
0.000254332
-0.00613655
0.00113445
-0.00576366
0.00204707
-0.00524757
0.00300121
-0.00458009
0.00397704
-0.00376845
0.00488716
-0.00284757
0.0055043
-0.00193847
0.00536233
-0.00116566
0.003989
-0.000787878
0.0014501
-0.000630018
0.000487771
-0.000479887
9.32273e-05
-0.000314858
-0.000114898
-0.000178228
-0.000197992
-8.62621e-05
-0.000213282
-3.41902e-05
-0.000203624
-1.29235e-05
-0.00018915
-1.31092e-05
-0.000174711
-2.62689e-05
-0.000156883
-4.51708e-05
-0.000128554
-6.44255e-05
-8.20057e-05
-8.14039e-05
-1.21867e-05
-9.47189e-05
8.07145e-05
-0.000108759
0.000191665
-0.000124509
0.000284524
-0.00014196
0.000303513
-0.000177949
0.000208263
-0.000253253
-5.85155e-06
-0.000354685
-0.000268878
-0.000447085
-0.00054296
-0.000553565
-0.00154635
-0.0037712
-0.0094723
2.27326e-05
-0.00760143
-0.00708494
-0.00737042
-0.00387635
-0.00752793
-0.0023893
-0.00765591
-0.00141269
-0.00766463
-0.000615538
-0.00752198
0.000111785
-0.00720646
0.000819022
-0.0066783
0.00151901
-0.0059162
0.00223922
-0.0049186
0.00297955
-0.00371794
0.0036866
-0.00240002
0.00418648
-0.00116271
0.00412513
-4.17308e-05
0.00286814
0.000390507
0.00101798
0.000572929
0.000305468
0.000712266
-4.59933e-05
0.00080922
-0.000211739
0.0008577
-0.00024636
0.000874368
-0.00022984
0.000872063
-0.000201209
0.000857775
-0.000174753
0.000835727
-0.000152554
0.00081008
-0.000131127
0.000786711
-0.000105076
0.000773762
-6.89472e-05
0.000779741
-1.80556e-05
0.000816466
4.40971e-05
0.000887098
0.000121139
0.000990806
0.00018092
0.0011186
0.000175824
0.00125644
7.05194e-05
0.00137517
-0.000124484
0.00150368
-0.000397281
0.00170398
-0.000743163
0.00158951
-0.00143178
-0.00214497
-0.000326849
0.00032647
-0.00452965
-0.00288204
-0.00648145
-0.00192444
-0.00760767
-0.00126299
-0.00824503
-0.000775224
-0.00849373
-0.000366737
-0.00839248
1.06361e-05
-0.00800217
0.000428818
-0.00731318
0.000830138
-0.00630669
0.00123283
-0.00497638
0.00164934
-0.0033682
0.00207853
-0.00159149
0.00240989
0.000243583
0.00229017
0.00172597
0.00138588
0.00221468
0.000529404
0.0023656
0.000154676
0.00234033
-2.06008e-05
0.00221406
-8.53562e-05
0.00208087
-0.000113048
0.00196896
-0.000117818
0.00188138
-0.000113523
0.00181273
-0.000105984
0.00175632
-9.60324e-05
0.00170833
-8.30306e-05
0.00166967
-6.63099e-05
0.00164631
-4.54716e-05
0.00164872
-2.03515e-05
0.00167957
1.33605e-05
0.00175027
5.05454e-05
0.00186012
7.11811e-05
0.00198455
5.15041e-05
0.00208096
-2.57801e-05
0.00210452
-0.000147935
0.00202746
-0.000320115
0.00182847
-0.000544067
0.00131597
-0.00091918
-0.000787797
0.0048936
-0.00129175
-0.00100874
-0.00394166
-0.0059159
-0.00722836
-0.00805259
-0.00846792
-0.0085055
-0.0081245
-0.00734177
-0.00615588
-0.00455294
-0.00252019
-0.000155312
0.00209211
0.00343683
0.00392544
0.00403973
0.00397947
0.00385585
0.00370611
0.003553
0.00340527
0.00326587
0.00313701
0.00302162
0.00292336
0.00284635
0.0027949
0.00277769
0.00279828
0.00284004
0.00286248
0.00280775
0.00263094
0.00228186
0.00170849
0.000760544
)
;

boundaryField
{
    floor
    {
        type            calculated;
        value           nonuniform List<scalar> 
29
(
0
0
0
0
0
0
0
0
0
0
0
0
0
0
0
0
0
0
0
0
-2.647e-06
-6.59729e-06
-9.0719e-06
-5.5856e-06
8.25161e-07
-2.51122e-06
-6.73898e-06
-6.87824e-06
4.85545e-07
)
;
    }
    ceiling
    {
        type            calculated;
        value           nonuniform List<scalar> 
43
(
7.86169e-05
7.20272e-05
4.3567e-05
5.09862e-05
4.9899e-05
4.9582e-05
4.91077e-05
4.8698e-05
4.83301e-05
4.79269e-05
4.75199e-05
4.70575e-05
4.6522e-05
4.58976e-05
4.51382e-05
4.28647e-05
4.12883e-05
4.09217e-05
4.05181e-05
3.97864e-05
3.8383e-05
3.6806e-05
3.54096e-05
3.43223e-05
3.35251e-05
3.29391e-05
3.24767e-05
3.20636e-05
3.16483e-05
3.12028e-05
3.06821e-05
3.00734e-05
2.95313e-05
2.91828e-05
2.9063e-05
2.89885e-05
2.90728e-05
2.94153e-05
2.88701e-05
3.06077e-05
1.53645e-05
1.27482e-05
2.32197e-05
)
;
    }
    sWall
    {
        type            calculated;
        value           uniform -0.000132571;
    }
    nWall
    {
        type            calculated;
        value           nonuniform List<scalar> 6(-2.89675e-05 -3.33252e-05 -3.93222e-05 -3.66152e-05 -4.11063e-05 -5.7761e-05);
    }
    sideWalls
    {
        type            empty;
        value           nonuniform 0();
    }
    glass1
    {
        type            calculated;
        value           nonuniform List<scalar> 9(-3.02211e-05 -8.58559e-05 -0.000139042 -0.000191378 -0.00024345 -0.000295423 -0.000346415 -0.000394614 -0.000436525);
    }
    glass2
    {
        type            calculated;
        value           nonuniform List<scalar> 2(-0.000157578 -0.000169105);
    }
    sun
    {
        type            calculated;
        value           uniform 0;
    }
    heatsource1
    {
        type            calculated;
        value           nonuniform List<scalar> 3(2.0183e-07 2.01909e-07 2.02093e-07);
    }
    heatsource2
    {
        type            calculated;
        value           nonuniform List<scalar> 4(4.934e-08 4.97934e-08 0 0);
    }
    Table_master
    {
        type            calculated;
        value           nonuniform List<scalar> 9(-1.52746e-07 -1.52806e-07 -1.52886e-07 -1.52854e-07 -1.52737e-07 -1.52668e-07 -1.52618e-07 -1.52575e-07 -1.52513e-07);
    }
    Table_slave
    {
        type            calculated;
        value           nonuniform List<scalar> 9(1.51888e-07 1.51877e-07 1.51879e-07 1.51894e-07 1.51917e-07 1.51945e-07 1.51978e-07 1.52021e-07 1.52057e-07);
    }
    inlet
    {
        type            calculated;
        value           uniform 5.37874e-06;
    }
    outlet
    {
        type            calculated;
        value           nonuniform List<scalar> 2(-0.00483944 0.00611357);
    }
}


// ************************************************************************* //
