/*--------------------------------*- C++ -*----------------------------------*\
  =========                 |
  \\      /  F ield         | OpenFOAM: The Open Source CFD Toolbox
   \\    /   O peration     | Website:  https://openfoam.org
    \\  /    A nd           | Version:  6
     \\/     M anipulation  |
\*---------------------------------------------------------------------------*/
FoamFile
{
    version     2.0;
    format      ascii;
    class       surfaceScalarField;
    location    "400";
    object      phi;
}
// * * * * * * * * * * * * * * * * * * * * * * * * * * * * * * * * * * * * * //

dimensions      [1 0 -1 0 0 0 0];

internalField   nonuniform List<scalar> 
852
(
-0.00250127
0.00254065
-0.0013443
-0.0011568
3.79226e-05
-0.00138205
-0.000284596
0.000322851
-0.00139831
0.00111382
-0.00243006
0.00103183
-0.00282007
0.000390085
-0.00252334
-0.00029665
-0.00211821
-0.000405046
-0.00176928
-0.000348836
-0.00148937
-0.000279833
-0.0012381
-0.000251182
-0.000961986
-0.000276027
-0.000573725
-0.000388175
-0.000571801
-0.000599091
0.00060301
-0.00052886
-7.01588e-05
-0.000441956
-8.6832e-05
-0.000443011
1.12972e-06
-0.000463069
2.0134e-05
-0.000433519
-2.94701e-05
-0.000318123
-0.000115315
-0.000184718
-0.00013332
7.92899e-05
-0.000263925
0.000230942
-0.000151584
0.000332011
-0.000100997
0.000421932
-8.98475e-05
0.000500832
-7.88254e-05
0.000561316
-6.04072e-05
0.000607124
-4.57322e-05
0.000657353
-5.01528e-05
0.00072765
-7.02202e-05
0.000682915
4.48123e-05
0.000686907
0.00202913
0.00062321
0.00424355
-0.00337109
0.00462415
-0.00176253
0.00413268
0.000814454
0.00285626
0.00239035
0.00101474
0.00287345
-0.000851515
0.00225641
-0.00189144
0.000743354
-0.00183009
-0.000466318
-0.00168222
-0.000496621
-0.00153245
-0.000429513
-0.00135856
-0.000424988
-0.0011363
-0.000498206
-0.000880692
-0.000643695
-0.000645749
-0.000806658
0.000133885
-0.000779598
0.00013392
-0.000129271
0.000741913
-0.000160889
-3.8469e-05
-3.31491e-05
-0.000214499
-7.43018e-07
-3.12109e-05
-1.61648e-05
3.56216e-05
-0.00018008
0.000134515
-0.000283071
-1.22381e-05
-0.000241912
-0.000174395
-0.000108868
-0.000396889
-4.79578e-05
-0.000212417
-2.97409e-05
-0.000119138
-4.02971e-05
-7.92132e-05
-7.64208e-05
-4.26208e-05
-0.000142368
5.62569e-06
-0.000198665
1.06519e-05
-0.000122115
-0.000126618
0.000105376
-0.000297624
0.000175593
-2.53208e-05
0.000872393
0.00705146
-0.00628153
0.00838223
-0.00470176
0.00782544
-0.00120564
0.00668872
0.00195127
0.00511639
0.00396278
0.00327762
0.00471231
0.00131433
0.00421978
-0.000541417
0.00259916
-0.00128882
0.000281158
-0.0014986
-0.000286751
-0.00155697
-0.000371058
-0.00154861
-0.000433264
-0.00149528
-0.000551447
-0.00142063
-0.000718264
-0.00134528
-0.000881917
-0.00115112
-0.000973677
-0.00101712
0.000738165
1.64959e-05
0.000410409
0.000289364
-1.90239e-05
0.000215015
-0.000159295
0.000109134
-0.000113143
-1.04609e-05
0.000173252
-0.000151809
0.000161231
-1.29583e-05
-0.000409609
-0.000621776
-0.000740669
-0.00081964
-0.000862019
-0.000856152
-0.000845256
-0.000795488
-0.000176292
-0.00112114
2.81281e-05
-0.00118895
4.25801e-05
-0.000303966
0.00498399
-0.011071
0.00621633
-0.00593401
0.00582451
-0.000813721
0.00510463
0.00267124
0.00408286
0.00498465
0.002784
0.00601126
0.00137399
0.00562987
6.3596e-05
0.00390961
-0.000853323
0.00119814
-0.00130903
0.000169034
-0.00154204
-0.000137954
-0.00168366
-0.000291566
-0.00179316
-0.000441855
-0.0019046
-0.000606741
-0.00202992
-0.000756508
-0.00216424
-0.000839268
-0.00247509
-0.000706179
-0.0019962
-0.000471447
-0.00176122
-0.000218396
-0.00149466
2.28795e-05
-0.00137447
9.49151e-05
-0.00133265
6.73907e-05
-0.00133035
-1.26671e-05
-0.00138725
-9.48263e-05
-0.00127132
-0.000115998
-0.00112693
-0.000144451
-0.000962808
-0.000164187
-0.000789894
-0.000172979
-0.000616998
-0.000172961
-0.000448648
-0.000168416
-0.000282223
-0.000166491
-0.000108811
-0.000173478
7.73227e-05
-0.000186199
0.000167242
-0.000266124
0.000413883
-0.000218417
0.000546619
-9.00549e-05
0.000252198
0.00245883
-0.0132869
0.00308057
-0.00655566
0.00300188
-0.000734928
0.00268657
0.00298665
0.00209739
0.00557392
0.00132804
0.0067807
0.000545328
0.00641266
-0.000103047
0.00455804
-0.000723883
0.00181904
-0.00114745
0.000592687
-0.00140824
0.000122917
-0.00158567
-0.000114041
-0.00173071
-0.00029673
-0.00187072
-0.000466641
-0.00201798
-0.000609164
-0.00217718
-0.000679976
-0.00226276
-0.000620514
-0.00224728
-0.00048684
-0.00214428
-0.000321305
-0.00196224
-0.000159084
-0.00178956
-7.76702e-05
-0.00165228
-6.98054e-05
-0.00155259
-0.000112273
-0.00147881
-0.000168522
-0.00138254
-0.000212176
-0.00127832
-0.000248582
-0.00116904
-0.000273381
-0.00105716
-0.000284776
-0.00094573
-0.000284304
-0.00083514
-0.000278919
-0.000720576
-0.000280968
-0.000588109
-0.000305858
-0.000404878
-0.000369342
-0.000182052
-0.000488863
0.000221447
-0.000621826
0.000850322
-0.000718839
0.00185082
-0.000748209
0.00239431
-0.000543594
0.00194729
0.00044691
0.00198186
0.000617726
-0.0136141
0.000966921
-0.00690475
0.000985363
-0.000753272
0.000467003
0.00350511
0.000107887
0.00593314
-0.000160138
0.00704881
-0.000353553
0.00660615
-0.000481277
0.00468582
-0.000767762
0.00210559
-0.00101089
0.000835898
-0.00118829
0.00030041
-0.00132205
1.98013e-05
-0.00143576
-0.000182929
-0.00154926
-0.000353055
-0.00167145
-0.000486885
-0.00179332
-0.000558011
-0.00186768
-0.000546073
-0.0018845
-0.000469928
-0.00183944
-0.000366279
-0.00173675
-0.000261685
-0.00161785
-0.000196485
-0.00150961
-0.000177953
-0.00142582
-0.000195983
-0.00136374
-0.000230509
-0.0013106
-0.000265228
-0.0012646
-0.000294499
-0.00122602
-0.000311876
-0.00119707
-0.000313638
-0.00118046
-0.000300822
-0.00117693
-0.000282369
-0.00118273
-0.000275075
-0.0011877
-0.000300803
-0.00117324
-0.00038372
-0.00111817
-0.00054385
-0.000956078
-0.000783829
-0.000564942
-0.00110989
0.000178893
-0.00149196
0.00115794
-0.00152256
0.00147511
0.000129832
0.00349705
-0.000508955
-0.0127695
-0.000288449
-0.00712516
-0.00059006
-0.000451561
-0.00152255
0.0044377
-0.00152601
0.00593668
-0.00126312
0.00678601
-0.000974631
0.00631773
-0.000754839
0.00446608
-0.000761597
0.00211242
-0.000820044
0.000894429
-0.000875964
0.000356419
-0.00092671
7.06361e-05
-0.000978923
-0.000130626
-0.00104075
-0.000291133
-0.00111721
-0.000410341
-0.00119821
-0.000476916
-0.00125951
-0.00048469
-0.00128492
-0.000444429
-0.00127225
-0.000378858
-0.00122475
-0.000309097
-0.00116285
-0.000258293
-0.00110556
-0.000235152
-0.0010648
-0.000236651
-0.00104297
-0.000252259
-0.00103743
-0.000270675
-0.0010485
-0.000283342
-0.00107932
-0.000280968
-0.00113701
-0.00025586
-0.00123163
-0.000206121
-0.00137232
-0.000141588
-0.00156116
-8.61551e-05
-0.00178961
-7.22694e-05
-0.00204189
-0.000131355
-0.00229544
-0.000290214
-0.00251343
-0.000565757
-0.00264138
-0.000981852
-0.00258471
-0.00154854
-0.00208985
-0.00201733
-0.000622779
-0.00133716
0.00292206
-0.00275172
-0.00964212
-0.00372409
-0.0061527
-0.0032112
-0.000964346
-0.00346571
0.00469231
-0.00275234
0.0052234
-0.00192066
0.00595441
-0.00121582
0.00561296
-0.000722456
0.00397278
-0.00051721
0.00190725
-0.000441976
0.00081928
-0.00040398
0.000318511
-0.000373589
4.03349e-05
-0.000355203
-0.000148922
-0.000359305
-0.000286941
-0.000389541
-0.000380014
-0.000437165
-0.000429202
-0.000485114
-0.00043665
-0.000518562
-0.000410892
-0.000531763
-0.000365567
-0.000525662
-0.000315109
-0.000510402
-0.000273462
-0.000497849
-0.000247616
-0.000496834
-0.000237577
-0.000510941
-0.000238063
-0.000540183
-0.000241344
-0.000584801
-0.000238634
-0.000646944
-0.000218737
-0.000733647
-0.000169069
-0.000858838
-8.08434e-05
-0.00104555
4.52052e-05
-0.00133145
0.000199835
-0.00175401
0.000350372
-0.00232182
0.000436536
-0.00300447
0.000392518
-0.0037402
0.000170055
-0.00452451
-0.000197452
-0.00551055
-0.000562426
-0.00659851
-0.000929288
-0.00606333
-0.00187225
-0.00293603
-0.0092458
-0.0154054
-0.00983075
-0.00653893
-0.00566195
0.000523601
-0.00348197
0.00304352
-0.00204716
0.00451968
-0.00098704
0.00455291
-0.000202499
0.0031883
0.000147573
0.00155725
0.00028592
0.000681017
0.000368342
0.000236177
0.000439455
-3.06888e-05
0.000495662
-0.000205039
0.000520197
-0.000311386
0.000510253
-0.00036998
0.000473867
-0.000392726
0.000424739
-0.000387432
0.000375896
-0.000361959
0.000335448
-0.000325029
0.000305668
-0.000285239
0.000282555
-0.000250259
0.000259426
-0.000224397
0.000230148
-0.000208209
0.000191272
-0.000199096
0.000142403
-0.000192386
8.56259e-05
-0.000181766
2.5561e-05
-0.000158581
-3.16574e-05
-0.00011176
-8.19844e-05
-3.04266e-05
-0.000126946
9.0256e-05
-0.000173595
0.00024657
-0.00022696
0.000403823
-0.000290957
0.000500618
-0.000377564
0.00047921
-0.000532017
0.000324592
-0.000789311
5.99261e-05
-0.00114198
-0.000209675
-0.0015655
-0.000505691
-0.00164852
-0.00178914
-0.00436515
-0.00825361
0.00185452
-0.00572714
-0.00200277
-0.00319842
0.000514891
-0.001456
0.00277734
-0.000119175
0.00321616
0.000883716
0.00218548
0.00131652
0.00112453
0.00149837
0.000499242
0.00159856
0.000136081
0.00165459
-8.66338e-05
0.00167183
-0.000222188
0.00165086
-0.000290323
0.00159817
-0.000317208
0.0015237
-0.000318158
0.00143892
-0.000302566
0.00135417
-0.000277119
0.00127652
-0.000247286
0.00120894
-0.000217574
0.00115023
-0.00019146
0.00109662
-0.000170698
0.00104372
-0.000155215
0.000988125
-0.000143414
0.000928476
-0.000132646
0.000866196
-0.000119395
0.000806649
-9.89435e-05
0.000760129
-6.51481e-05
0.000738714
-8.91929e-06
0.000752247
7.68135e-05
0.000809065
0.000189843
0.000908397
0.00030458
0.00103517
0.000373933
0.00116585
0.000348613
0.00128963
0.000200904
0.00139635
-4.67074e-05
0.0015512
-0.000364442
0.00183436
-0.000788761
0.00173657
-0.00169127
-0.00257957
-0.00113903
0.00298555
-0.0016264
-0.00151531
-0.00136607
0.000254653
-0.000137837
0.0015492
0.00134159
0.00173681
0.00238872
0.00113843
0.00291723
0.000596101
0.00315438
0.00026217
0.00323142
5.91377e-05
0.00320113
-5.62616e-05
0.00309507
-0.000116037
0.00295103
-0.000146195
0.00279054
-0.000156633
0.00262811
-0.000155641
0.00247372
-0.000148087
0.00233355
-0.00013686
0.00221038
-0.00012403
0.00210406
-0.00011116
0.00201198
-9.92905e-05
0.0019302
-8.88325e-05
0.00185467
-7.96e-05
0.00178231
-7.09571e-05
0.00171174
-6.19894e-05
0.00164404
-5.16111e-05
0.00158375
-3.85544e-05
0.00153981
-2.11206e-05
0.00152712
3.86181e-06
0.00155576
4.82672e-05
0.00164265
0.000103042
0.00179064
0.000156681
0.00197934
0.000185325
0.00216848
0.000159567
0.00230959
5.98778e-05
0.00236129
-9.83212e-05
0.00228583
-0.000288891
0.00202817
-0.000531008
0.0012659
-0.000928922
-0.00125671
0.00402309
-0.00220879
0.000764644
-0.00076933
-0.000540646
0.000982463
0.00269364
0.00380652
0.0043767
0.00461245
0.00464464
0.00456103
0.00441745
0.0042437
0.00405964
0.00387682
0.00370188
0.00353852
0.00338836
0.00325144
0.00312675
0.00301286
0.00290855
0.00281323
0.00272724
0.00265202
0.00259029
0.00254645
0.00252812
0.00255486
0.0026371
0.00277367
0.00293947
0.00307989
0.00312073
0.00300332
0.00269523
0.00214476
0.00119702
)
;

boundaryField
{
    floor
    {
        type            calculated;
        value           nonuniform List<scalar> 
29
(
0
0
0
0
0
0
0
0
0
0
0
0
0
0
0
0
0
0
0
0
-3.91546e-06
-9.81635e-06
-1.24996e-05
-9.44628e-06
-1.83884e-06
-3.84722e-06
-9.56146e-06
-1.26737e-05
-7.36819e-06
)
;
    }
    ceiling
    {
        type            calculated;
        value           nonuniform List<scalar> 
43
(
4.04528e-05
2.4911e-05
1.22286e-05
1.87687e-05
2.60593e-05
2.61727e-05
2.5718e-05
2.56366e-05
2.60063e-05
2.65104e-05
2.70382e-05
2.7438e-05
2.76317e-05
2.76448e-05
2.75089e-05
2.72623e-05
2.69435e-05
2.6586e-05
2.62152e-05
2.58471e-05
2.54894e-05
2.51419e-05
2.47987e-05
2.44504e-05
2.40861e-05
2.36951e-05
2.32686e-05
2.28015e-05
2.22818e-05
2.16181e-05
2.08941e-05
2.01972e-05
1.96171e-05
1.92363e-05
1.91275e-05
1.91726e-05
1.92896e-05
1.95442e-05
1.89058e-05
2.00508e-05
9.06271e-06
7.04542e-06
8.11333e-06
)
;
    }
    sWall
    {
        type            calculated;
        value           uniform -0.000147965;
    }
    nWall
    {
        type            calculated;
        value           nonuniform List<scalar> 6(-3.46828e-05 -3.99891e-05 -4.7706e-05 -4.89242e-05 -5.68724e-05 -7.96506e-05);
    }
    sideWalls
    {
        type            empty;
        value           nonuniform 0();
    }
    glass1
    {
        type            calculated;
        value           nonuniform List<scalar> 9(-3.91825e-05 -0.000111504 -0.00014663 -0.000194419 -0.000242894 -0.000290439 -0.000335546 -0.000375517 -0.000405284);
    }
    glass2
    {
        type            calculated;
        value           nonuniform List<scalar> 2(-0.000205144 -0.000219333);
    }
    sun
    {
        type            calculated;
        value           uniform 0;
    }
    heatsource1
    {
        type            calculated;
        value           nonuniform List<scalar> 3(2.02488e-07 2.02563e-07 2.02811e-07);
    }
    heatsource2
    {
        type            calculated;
        value           nonuniform List<scalar> 4(5.09506e-08 5.10691e-08 0 0);
    }
    Table_master
    {
        type            calculated;
        value           nonuniform List<scalar> 9(-1.53548e-07 -1.53685e-07 -1.53702e-07 -1.53573e-07 -1.53476e-07 -1.53397e-07 -1.53328e-07 -1.53267e-07 -1.53185e-07);
    }
    Table_slave
    {
        type            calculated;
        value           nonuniform List<scalar> 9(1.52415e-07 1.52452e-07 1.52494e-07 1.52544e-07 1.52596e-07 1.52647e-07 1.52695e-07 1.52744e-07 1.52759e-07);
    }
    inlet
    {
        type            calculated;
        value           uniform -0.00013972;
    }
    outlet
    {
        type            calculated;
        value           nonuniform List<scalar> 2(-0.00391541 0.00620713);
    }
}


// ************************************************************************* //
