// -*- C++ -*-
// File generated by PyFoam - sorry for the ugliness

FoamFile
{
 version 2.0;
 format ascii;
 class volScalarField;
 location "1100";
 object T;
}

dimensions [ 0 0 0 1 0 0 0 ];

internalField nonuniform List<scalar> 459
(
  303.591
  303.333
  303.32
  303.316
  303.312
  303.308
  303.303
  303.297
  303.288
  303.277
  303.265
  303.254
  303.246
  303.242
  303.244
  303.339
  303.317
  303.308
  303.311
  303.315
  303.319
  303.323
  303.327
  303.331
  303.335
  303.339
  303.343
  303.347
  303.351
  303.355
  303.359
  303.364
  303.37
  303.388
  303.764
  303.376
  303.352
  303.355
  303.357
  303.358
  303.355
  303.348
  303.333
  303.31
  303.284
  303.26
  303.242
  303.231
  303.227
  303.225
  303.227
  303.339
  303.3
  303.294
  303.296
  303.301
  303.305
  303.308
  303.31
  303.312
  303.314
  303.316
  303.317
  303.319
  303.321
  303.324
  303.328
  303.335
  303.344
  303.373
  303.946
  303.427
  303.388
  303.398
  303.411
  303.422
  303.426
  303.42
  303.397
  303.358
  303.313
  303.272
  303.243
  303.226
  303.221
  303.222
  303.224
  303.278
  303.277
  303.284
  303.294
  303.304
  303.312
  303.312
  303.313
  303.313
  303.314
  303.315
  303.316
  303.317
  303.318
  303.319
  303.322
  303.327
  303.335
  303.366
  304.129
  303.489
  303.424
  303.44
  303.467
  303.494
  303.512
  303.509
  303.474
  303.412
  303.342
  303.282
  303.241
  303.22
  303.215
  303.219
  303.226
  303.237
  303.25
  303.269
  303.289
  303.307
  303.323
  303.335
  303.346
  303.354
  303.362
  303.37
  303.376
  303.38
  303.384
  303.387
  303.388
  303.367
  303.349
  303.342
  303.366
  304.307
  303.568
  303.467
  303.477
  303.515
  303.559
  303.598
  303.595
  303.542
  303.451
  303.357
  303.282
  303.233
  303.21
  303.208
  303.217
  303.232
  303.249
  303.271
  303.295
  303.319
  303.341
  303.359
  303.374
  303.388
  303.399
  303.408
  303.415
  303.42
  303.422
  303.422
  303.419
  303.412
  303.395
  303.372
  303.353
  303.363
  303.433
  303.481
  303.486
  304.468
  303.671
  303.54
  303.529
  303.565
  303.621
  303.67
  303.649
  303.569
  303.46
  303.35
  303.265
  303.212
  303.193
  303.199
  303.219
  303.245
  303.274
  303.304
  303.334
  303.361
  303.385
  303.404
  303.418
  303.43
  303.44
  303.448
  303.454
  303.456
  303.456
  303.451
  303.444
  303.433
  303.416
  303.393
  303.37
  303.366
  303.396
  303.413
  303.447
  304.615
  303.834
  303.703
  303.674
  303.691
  303.738
  303.739
  303.668
  303.548
  303.412
  303.293
  303.21
  303.17
  303.168
  303.192
  303.231
  303.274
  303.315
  303.352
  303.385
  303.412
  303.433
  303.45
  303.462
  303.471
  303.479
  303.484
  303.487
  303.487
  303.484
  303.476
  303.466
  303.452
  303.435
  303.413
  303.391
  303.38
  303.388
  303.398
  303.427
  304.83
  304.245
  304.101
  304.015
  303.973
  303.911
  303.782
  303.606
  303.422
  303.266
  303.16
  303.11
  303.111
  303.147
  303.203
  303.268
  303.327
  303.375
  303.415
  303.443
  303.464
  303.48
  303.492
  303.5
  303.507
  303.511
  303.513
  303.513
  303.511
  303.507
  303.5
  303.488
  303.475
  303.46
  303.443
  303.426
  303.42
  303.432
  303.45
  303.572
  305.136
  304.86
  304.604
  304.369
  304.138
  303.832
  303.5
  303.22
  303.034
  302.945
  302.937
  302.988
  303.075
  303.168
  303.26
  303.349
  303.407
  303.446
  303.473
  303.493
  303.508
  303.519
  303.526
  303.531
  303.535
  303.536
  303.536
  303.535
  303.533
  303.53
  303.528
  303.528
  303.53
  303.536
  303.549
  303.571
  303.602
  303.633
  303.654
  303.707
  296.336
  298.191
  299.392
  300.254
  300.982
  301.596
  302.095
  302.481
  302.774
  303.007
  303.2
  303.314
  303.391
  303.445
  303.48
  303.504
  303.521
  303.534
  303.542
  303.548
  303.553
  303.556
  303.557
  303.558
  303.559
  303.559
  303.56
  303.561
  303.562
  303.564
  303.568
  303.576
  303.589
  303.607
  303.629
  303.652
  303.671
  303.692
  296.984
  298.821
  300.266
  301.255
  301.877
  302.334
  302.681
  302.939
  303.127
  303.261
  303.363
  303.431
  303.477
  303.508
  303.529
  303.543
  303.553
  303.56
  303.565
  303.569
  303.572
  303.574
  303.575
  303.576
  303.578
  303.579
  303.58
  303.581
  303.582
  303.584
  303.587
  303.593
  303.602
  303.614
  303.629
  303.646
  303.645
  303.674
  299.728
  299.65
  299.645
  301.491
  302.303
  302.693
  302.922
  303.09
  303.22
  303.318
  303.392
  303.446
  303.486
  303.513
  303.531
  303.543
  303.551
  303.557
  303.56
  303.563
  303.566
  303.568
  303.57
  303.572
  303.574
  303.577
  303.579
  303.581
  303.583
  303.585
  303.587
  303.589
  303.592
  303.596
  303.601
  303.61
  303.619
  303.625
  303.627
  303.666
)
;

boundaryField
{
  floor
  {
    type wallHeatTransfer;
    Tinf uniform 305.2;
    alphaWall uniform 0.24;
    value nonuniform List<scalar> 29
(
  303.433
  303.69
  303.627
  303.596
  303.599
  303.61
  303.623
  303.64
  303.658
  303.677
  303.694
  303.711
  303.728
  303.744
  303.759
  303.774
  303.789
  303.807
  303.822
  303.861
  303.861
  303.781
  303.74
  303.717
  303.433
  303.69
  303.673
  303.489
  303.4
)
;
  }
  ceiling
  {
    type wallHeatTransfer;
    Tinf uniform 303.2;
    alphaWall uniform 0.24;
    value nonuniform List<scalar> 43
(
  299.976
  299.891
  299.879
  301.597
  302.36
  302.726
  302.94
  303.098
  303.218
  303.309
  303.376
  303.423
  303.457
  303.478
  303.491
  303.499
  303.503
  303.506
  303.508
  303.51
  303.511
  303.512
  303.514
  303.516
  303.518
  303.52
  303.523
  303.526
  303.529
  303.533
  303.536
  303.54
  303.545
  303.55
  303.557
  303.568
  303.577
  303.581
  303.58
  303.613
  305.046
  304.793
  297.387
)
;
  }
  sWall
  {
    type wallHeatTransfer;
    Tinf uniform 315.2;
    alphaWall uniform 0.36;
    value uniform 301.329;
  }
  nWall
  {
    type wallHeatTransfer;
    Tinf uniform 307.2;
    alphaWall uniform 0.36;
    value nonuniform List<scalar> 6
(
  304.187
  304.135
  304.059
  304.2
  304.178
  304.242
)
;
  }
  sideWalls
  {
    type empty;
  }
  glass1
  {
    type wallHeatTransfer;
    Tinf uniform 315.2;
    alphaWall uniform 4.3;
    value nonuniform List<scalar> 9
(
  311.525
  310.898
  310.502
  310.201
  309.95
  309.722
  309.554
  309.626
  309.851
)
;
  }
  glass2
  {
    type wallHeatTransfer;
    Tinf uniform 307.2;
    alphaWall uniform 4.3;
    value nonuniform List<scalar> 2
(
  305.834
  305.926
)
;
  }
  sun
  {
    type wallHeatTransfer;
    Tinf uniform 305.2;
    alphaWall uniform 0.24;
    value nonuniform List<scalar> 14
(
  303.761
  303.517
  303.502
  303.492
  303.483
  303.474
  303.465
  303.456
  303.445
  303.434
  303.424
  303.417
  303.415
  303.42
)
;
  }
  heatsource1
  {
    type fixedGradient;
    gradient uniform 0;
  }
  heatsource2
  {
    type fixedGradient;
    gradient uniform 0;
  }
  Table_master
  {
    type zeroGradient;
  }
  Table_slave
  {
    type zeroGradient;
  }
  inlet
  {
    type fixedValue;
    value uniform 293.15;
  }
  outlet
  {
    type zeroGradient;
  }
} 	// ************************************************************************* //

