/*--------------------------------*- C++ -*----------------------------------*\
  =========                 |
  \\      /  F ield         | OpenFOAM: The Open Source CFD Toolbox
   \\    /   O peration     | Website:  https://openfoam.org
    \\  /    A nd           | Version:  6
     \\/     M anipulation  |
\*---------------------------------------------------------------------------*/
FoamFile
{
    version     2.0;
    format      ascii;
    class       volScalarField;
    location    "600";
    object      nut;
}
// * * * * * * * * * * * * * * * * * * * * * * * * * * * * * * * * * * * * * //

dimensions      [0 2 -1 0 0 0 0];

internalField   nonuniform List<scalar> 
459
(
0.00067138
0.000694218
0.00063924
0.000660915
0.000685254
0.000708675
0.000731251
0.000753577
0.000776601
0.000799406
0.000819125
0.000834838
0.000845863
0.000851536
0.000848054
0.000291603
0.000278374
0.000245809
0.000222408
0.000209246
0.000202399
0.000202424
0.000214514
0.000228847
0.00024173
0.000250253
0.000250815
0.000247654
0.00024916
0.000258829
0.000279835
0.000281234
0.000262367
0.00023999
0.00113098
0.00210801
0.00163461
0.00218631
0.00241089
0.00261446
0.00281324
0.00299247
0.00313053
0.00322417
0.00326411
0.00321736
0.00302772
0.00259908
0.00182504
0.000919969
0.00057196
0.000380978
0.00115771
0.0010084
0.000840241
0.000678284
0.000573173
0.000539444
0.000623437
0.000719358
0.000794611
0.000839121
0.000848155
0.000849572
0.000888802
0.00101565
0.00132733
0.00128687
0.00107894
0.000337134
0.00155308
0.0035638
0.00177011
0.00304183
0.00364415
0.00391958
0.00413611
0.00431399
0.00444765
0.00453913
0.00458488
0.00455105
0.00437372
0.00394696
0.00314913
0.00202386
0.000960885
0.000568657
0.00154867
0.00129083
0.00094965
0.000692109
0.00048004
0.000293207
0.000310823
0.000333094
0.000357087
0.000384608
0.000418598
0.000463196
0.000525945
0.000620434
0.00199798
0.00214044
0.00202594
0.000530098
0.00196512
0.00547836
0.00222606
0.00303056
0.00416735
0.00454118
0.00475594
0.00492475
0.00506263
0.00517554
0.00529546
0.00540282
0.0054417
0.005304
0.00481401
0.00376862
0.00218062
0.00090914
0.00212229
0.00253661
0.0021058
0.00164325
0.00125392
0.000892795
0.000610724
0.000605078
0.000603925
0.000606661
0.000614377
0.000628704
0.000652249
0.000690026
0.000753887
0.00239852
0.00254304
0.00246361
0.000742378
0.00235767
0.00763033
0.00353584
0.00288363
0.00403
0.00458645
0.00485516
0.00503353
0.00516602
0.00528557
0.00548088
0.00575211
0.00607424
0.00638817
0.00659509
0.00658426
0.00629418
0.00575487
0.00538151
0.00490613
0.00452266
0.00424277
0.0039923
0.00376697
0.00356621
0.0034408
0.00332878
0.00322239
0.00312052
0.00302688
0.00295116
0.00290734
0.00290704
0.00297
0.00283319
0.00266431
0.00245772
0.00093115
0.000806826
0.000692064
0.00273157
0.00965421
0.00602018
0.00384626
0.00369055
0.00410116
0.00450782
0.00479576
0.00493886
0.00504892
0.00525491
0.00557295
0.00601457
0.00655306
0.0070921
0.00747818
0.00759099
0.00737653
0.00695641
0.00649264
0.00610428
0.00579761
0.00555013
0.00534343
0.00515882
0.00499076
0.00483491
0.00468418
0.004526
0.00434531
0.00413225
0.00389123
0.00363637
0.00337016
0.00308444
0.00279903
0.00249863
0.00205945
0.00154631
0.000708158
0.00305303
0.0110042
0.00904336
0.00640996
0.00485472
0.00423943
0.0043288
0.00463366
0.00479012
0.00488133
0.00501218
0.0052281
0.0055823
0.00611125
0.00677558
0.00735904
0.00771852
0.00777288
0.00757523
0.00725916
0.00693457
0.0066416
0.0063869
0.0061648
0.00596564
0.00578742
0.00563463
0.00550682
0.00539386
0.00527134
0.00509965
0.0048387
0.00447892
0.00405014
0.00358759
0.00311831
0.00264985
0.00215977
0.00161927
0.000779892
0.00308896
0.0100478
0.0091051
0.00846109
0.00706612
0.00594926
0.0053857
0.00517551
0.00507867
0.00500471
0.00498252
0.0050452
0.00523099
0.00557522
0.00607775
0.00664611
0.00713158
0.00740853
0.00745474
0.00733878
0.00714487
0.00692613
0.00671016
0.0065072
0.00631912
0.00615037
0.0060123
0.0059126
0.00585636
0.00584082
0.00584385
0.00580884
0.00564975
0.00531348
0.00481207
0.00420431
0.00357713
0.00300431
0.00253951
0.00142235
0.00296634
0.00343788
0.00669893
0.00739164
0.00707771
0.00649022
0.00594969
0.00554107
0.00524709
0.00504507
0.00494667
0.00495404
0.00506946
0.00528773
0.00559653
0.00596818
0.00634518
0.00664923
0.0068274
0.00687933
0.00683705
0.0067363
0.00660868
0.00647343
0.00634057
0.00621858
0.00611608
0.00604098
0.00600159
0.00600706
0.00606473
0.00617141
0.00629406
0.00638797
0.00643419
0.0064201
0.00624999
0.00575644
0.00515563
0.00152941
0.0145089
0.0141347
0.00923143
0.00750898
0.00657291
0.00597356
0.00557617
0.00532697
0.0052032
0.00520136
0.00529127
0.00543439
0.00560429
0.0057904
0.00598478
0.00617024
0.00632306
0.00642631
0.00647651
0.00648095
0.00645839
0.00642076
0.00637555
0.00633035
0.00629042
0.00625989
0.00624318
0.00624583
0.00627387
0.00632961
0.00640477
0.00647828
0.00651444
0.00646373
0.00626158
0.00581643
0.00485799
0.00160318
0.00536287
0.0108492
0.00854289
0.0071934
0.00638511
0.00588141
0.00559567
0.00549044
0.00553587
0.00568762
0.00589728
0.00611442
0.00630176
0.00644153
0.00653281
0.00658469
0.0066099
0.00662043
0.00662508
0.00662895
0.00663452
0.00664182
0.00664972
0.00665677
0.00666138
0.00666238
0.00665935
0.00665293
0.00664415
0.00662884
0.00659124
0.00652159
0.00640414
0.00620899
0.00588881
0.00537181
0.00469159
0.00176344
0.00169498
0.00232519
0.00383696
0.00320042
0.00267892
0.00247466
0.00222384
0.00200804
0.00183749
0.00170856
0.00161648
0.00155866
0.00152924
0.00152102
0.0015257
0.00153579
0.001546
0.00155344
0.0015571
0.00155727
0.00155494
0.00155128
0.00154713
0.00154318
0.00153978
0.00153691
0.00153441
0.00153201
0.00152938
0.00152609
0.00152163
0.00151564
0.00150813
0.00149772
0.0014833
0.00146289
0.00143199
0.00138206
0.00133791
0.00129497
)
;

boundaryField
{
    floor
    {
        type            nutkWallFunction;
        Cmu             0.09;
        kappa           0.41;
        E               9.8;
        value           nonuniform List<scalar> 
29
(
0.000102687
3.22018e-05
3.03821e-05
2.58562e-05
2.25529e-05
2.06749e-05
1.96918e-05
1.96955e-05
2.14287e-05
2.34662e-05
2.52828e-05
2.64774e-05
2.65558e-05
2.61135e-05
2.63237e-05
2.76718e-05
3.0579e-05
3.07704e-05
2.81604e-05
2.50371e-05
2.5037e-05
3.83638e-05
6.35139e-05
8.99004e-05
0.000102687
3.22017e-05
4.42221e-05
6.83972e-05
0.000109989
)
;
    }
    ceiling
    {
        type            nutkWallFunction;
        Cmu             0.09;
        kappa           0.41;
        E               9.8;
        value           nonuniform List<scalar> 
43
(
0.000200078
0.000268832
0.000426579
0.000361104
0.000306478
0.000284786
0.000257883
0.000234479
0.000215791
0.000201539
0.00019129
0.000184821
0.000181519
0.000180595
0.00018112
0.000182254
0.0001834
0.000184234
0.000184644
0.000184662
0.000184401
0.00018399
0.000183524
0.000183081
0.000182699
0.000182376
0.000182094
0.000181824
0.000181528
0.000181158
0.000180656
0.000179982
0.000179137
0.000177965
0.000176341
0.000174039
0.000170546
0.000164886
0.000159863
0.00015496
0.000336794
0.000385777
0.000579455
)
;
    }
    sWall
    {
        type            nutkWallFunction;
        Cmu             0.09;
        kappa           0.41;
        E               9.8;
        value           uniform 0.000200122;
    }
    nWall
    {
        type            nutkWallFunction;
        Cmu             0.09;
        kappa           0.41;
        E               9.8;
        value           nonuniform List<scalar> 6(8.37421e-05 8.57203e-05 9.44457e-05 0.000189801 0.00020761 0.00015497);
    }
    sideWalls
    {
        type            empty;
    }
    glass1
    {
        type            nutkWallFunction;
        Cmu             0.09;
        kappa           0.41;
        E               9.8;
        value           nonuniform List<scalar> 9(8.1151e-05 0.000136163 0.000184375 0.000230035 0.000272574 0.000312395 0.000346176 0.000349938 0.000337125);
    }
    glass2
    {
        type            nutkWallFunction;
        Cmu             0.09;
        kappa           0.41;
        E               9.8;
        value           nonuniform List<scalar> 2(0.000169486 0.000181558);
    }
    sun
    {
        type            nutkWallFunction;
        Cmu             0.09;
        kappa           0.41;
        E               9.8;
        value           nonuniform List<scalar> 
14
(
8.11924e-05
8.40064e-05
7.72156e-05
7.99011e-05
8.29041e-05
8.57817e-05
8.85448e-05
9.12674e-05
9.40652e-05
9.68266e-05
9.92069e-05
0.000101099
0.000102424
0.000103105
)
;
    }
    heatsource1
    {
        type            nutkWallFunction;
        Cmu             0.09;
        kappa           0.41;
        E               9.8;
        value           nonuniform List<scalar> 3(0.000112613 9.77257e-05 8.37433e-05);
    }
    heatsource2
    {
        type            nutkWallFunction;
        Cmu             0.09;
        kappa           0.41;
        E               9.8;
        value           nonuniform List<scalar> 4(0.000111279 6.88091e-05 6.8809e-05 0.000116132);
    }
    Table_master
    {
        type            nutkWallFunction;
        Cmu             0.09;
        kappa           0.41;
        E               9.8;
        value           nonuniform List<scalar> 9(3.24095e-05 3.48115e-05 3.7823e-05 4.10381e-05 4.46922e-05 4.916e-05 5.49537e-05 6.29905e-05 7.48771e-05);
    }
    Table_slave
    {
        type            nutkWallFunction;
        Cmu             0.09;
        kappa           0.41;
        E               9.8;
        value           nonuniform List<scalar> 9(7.36652e-05 7.296e-05 7.28159e-05 7.31578e-05 7.41211e-05 7.59059e-05 7.88284e-05 8.34912e-05 9.13054e-05);
    }
    inlet
    {
        type            calculated;
        value           uniform 3.3541e-05;
    }
    outlet
    {
        type            calculated;
        value           nonuniform List<scalar> 2(0.00169498 0.00232519);
    }
}


// ************************************************************************* //
