// -*- C++ -*-
// File generated by PyFoam - sorry for the ugliness

FoamFile
{
 version 2.0;
 format ascii;
 class volScalarField;
 location "1600";
 object T;
}

dimensions [ 0 0 0 1 0 0 0 ];

internalField nonuniform List<scalar> 459
(
  303.747
  303.494
  303.478
  303.471
  303.465
  303.458
  303.451
  303.443
  303.431
  303.419
  303.408
  303.401
  303.4
  303.406
  303.421
  303.58
  303.551
  303.536
  303.54
  303.547
  303.555
  303.564
  303.574
  303.583
  303.592
  303.601
  303.609
  303.618
  303.627
  303.636
  303.645
  303.655
  303.667
  303.691
  303.913
  303.536
  303.509
  303.507
  303.506
  303.502
  303.495
  303.481
  303.458
  303.43
  303.404
  303.384
  303.376
  303.377
  303.387
  303.401
  303.433
  303.583
  303.517
  303.507
  303.512
  303.521
  303.532
  303.54
  303.549
  303.557
  303.565
  303.572
  303.58
  303.588
  303.596
  303.604
  303.614
  303.627
  303.643
  303.678
  304.088
  303.587
  303.546
  303.553
  303.562
  303.567
  303.564
  303.545
  303.506
  303.456
  303.41
  303.376
  303.359
  303.359
  303.368
  303.381
  303.399
  303.49
  303.479
  303.484
  303.498
  303.515
  303.53
  303.537
  303.544
  303.551
  303.559
  303.567
  303.574
  303.582
  303.589
  303.597
  303.606
  303.617
  303.634
  303.671
  304.267
  303.65
  303.587
  303.601
  303.626
  303.647
  303.655
  303.628
  303.564
  303.485
  303.415
  303.365
  303.343
  303.342
  303.353
  303.368
  303.385
  303.398
  303.418
  303.445
  303.474
  303.504
  303.531
  303.553
  303.571
  303.586
  303.6
  303.612
  303.623
  303.633
  303.642
  303.65
  303.657
  303.645
  303.636
  303.639
  303.67
  304.443
  303.73
  303.634
  303.647
  303.686
  303.728
  303.749
  303.705
  303.607
  303.499
  303.409
  303.351
  303.325
  303.326
  303.343
  303.366
  303.389
  303.414
  303.443
  303.477
  303.513
  303.547
  303.577
  303.602
  303.624
  303.643
  303.658
  303.67
  303.68
  303.686
  303.69
  303.691
  303.688
  303.675
  303.658
  303.649
  303.668
  303.742
  303.797
  303.799
  304.603
  303.834
  303.712
  303.708
  303.754
  303.815
  303.813
  303.735
  303.613
  303.485
  303.382
  303.32
  303.299
  303.31
  303.341
  303.378
  303.416
  303.453
  303.493
  303.533
  303.572
  303.607
  303.637
  303.661
  303.682
  303.698
  303.711
  303.721
  303.727
  303.729
  303.728
  303.723
  303.715
  303.7
  303.68
  303.664
  303.668
  303.704
  303.725
  303.76
  304.752
  303.996
  303.876
  303.862
  303.889
  303.911
  303.844
  303.71
  303.551
  303.408
  303.309
  303.262
  303.264
  303.3
  303.355
  303.414
  303.469
  303.519
  303.566
  303.608
  303.645
  303.677
  303.702
  303.722
  303.738
  303.75
  303.759
  303.766
  303.768
  303.767
  303.76
  303.752
  303.74
  303.724
  303.704
  303.685
  303.679
  303.692
  303.705
  303.734
  304.965
  304.401
  304.269
  304.206
  304.144
  303.998
  303.786
  303.56
  303.368
  303.237
  303.178
  303.185
  303.237
  303.316
  303.407
  303.489
  303.557
  303.61
  303.655
  303.691
  303.72
  303.744
  303.762
  303.776
  303.786
  303.794
  303.799
  303.801
  303.8
  303.797
  303.79
  303.779
  303.767
  303.752
  303.735
  303.72
  303.716
  303.729
  303.749
  303.865
  305.269
  305.001
  304.751
  304.498
  304.116
  303.673
  303.304
  303.062
  302.95
  302.947
  303.022
  303.143
  303.273
  303.4
  303.525
  303.61
  303.666
  303.706
  303.738
  303.763
  303.783
  303.799
  303.811
  303.819
  303.825
  303.828
  303.83
  303.829
  303.827
  303.824
  303.822
  303.821
  303.822
  303.827
  303.839
  303.859
  303.889
  303.919
  303.94
  303.99
  296.053
  297.431
  298.844
  300.075
  301.029
  301.77
  302.332
  302.751
  303.08
  303.336
  303.488
  303.592
  303.666
  303.718
  303.755
  303.782
  303.804
  303.82
  303.833
  303.842
  303.848
  303.852
  303.855
  303.856
  303.857
  303.857
  303.857
  303.857
  303.858
  303.859
  303.862
  303.869
  303.88
  303.897
  303.919
  303.942
  303.962
  303.986
  296.677
  298.504
  300.182
  301.401
  302.137
  302.64
  302.996
  303.249
  303.429
  303.564
  303.655
  303.718
  303.762
  303.794
  303.817
  303.834
  303.847
  303.857
  303.864
  303.869
  303.872
  303.875
  303.876
  303.878
  303.879
  303.879
  303.879
  303.88
  303.88
  303.881
  303.884
  303.888
  303.896
  303.907
  303.921
  303.939
  303.94
  303.969
  299.932
  299.852
  299.848
  301.829
  302.63
  303.003
  303.226
  303.393
  303.52
  303.616
  303.689
  303.742
  303.781
  303.807
  303.825
  303.838
  303.848
  303.854
  303.859
  303.862
  303.865
  303.867
  303.869
  303.871
  303.873
  303.875
  303.877
  303.879
  303.881
  303.883
  303.885
  303.887
  303.889
  303.892
  303.897
  303.904
  303.914
  303.92
  303.922
  303.964
)
;

boundaryField
{
  floor
  {
    type wallHeatTransfer;
    Tinf uniform 305.2;
    alphaWall uniform 0.24;
    value nonuniform List<scalar> 29
(
  303.597
  303.875
  303.815
  303.778
  303.778
  303.789
  303.803
  303.822
  303.843
  303.864
  303.884
  303.904
  303.923
  303.941
  303.959
  303.976
  303.994
  304.014
  304.035
  304.078
  304.078
  304.021
  303.991
  303.973
  303.597
  303.875
  303.871
  303.683
  303.544
)
;
  }
  ceiling
  {
    type wallHeatTransfer;
    Tinf uniform 303.2;
    alphaWall uniform 0.24;
    value nonuniform List<scalar> 43
(
  300.168
  300.082
  300.071
  301.914
  302.666
  303.016
  303.224
  303.38
  303.497
  303.584
  303.648
  303.693
  303.724
  303.743
  303.757
  303.765
  303.771
  303.775
  303.778
  303.779
  303.78
  303.781
  303.781
  303.782
  303.782
  303.783
  303.784
  303.786
  303.789
  303.792
  303.796
  303.8
  303.805
  303.811
  303.818
  303.828
  303.838
  303.842
  303.841
  303.874
  305.172
  304.928
  297.114
)
;
  }
  sWall
  {
    type wallHeatTransfer;
    Tinf uniform 315.2;
    alphaWall uniform 0.36;
    value uniform 301.532;
  }
  nWall
  {
    type wallHeatTransfer;
    Tinf uniform 307.2;
    alphaWall uniform 0.36;
    value nonuniform List<scalar> 6
(
  304.462
  304.413
  304.345
  304.456
  304.432
  304.503
)
;
  }
  sideWalls
  {
    type empty;
  }
  glass1
  {
    type wallHeatTransfer;
    Tinf uniform 315.2;
    alphaWall uniform 4.3;
    value nonuniform List<scalar> 9
(
  311.499
  310.91
  310.539
  310.257
  310.02
  309.804
  309.647
  309.72
  309.942
)
;
  }
  glass2
  {
    type wallHeatTransfer;
    Tinf uniform 307.2;
    alphaWall uniform 4.3;
    value nonuniform List<scalar> 2
(
  305.984
  306.058
)
;
  }
  sun
  {
    type wallHeatTransfer;
    Tinf uniform 305.2;
    alphaWall uniform 0.24;
    value nonuniform List<scalar> 14
(
  303.896
  303.657
  303.639
  303.627
  303.616
  303.605
  303.595
  303.583
  303.57
  303.558
  303.55
  303.547
  303.553
  303.569
)
;
  }
  heatsource1
  {
    type fixedGradient;
    gradient uniform 0;
  }
  heatsource2
  {
    type fixedGradient;
    gradient uniform 0;
  }
  Table_master
  {
    type zeroGradient;
  }
  Table_slave
  {
    type zeroGradient;
  }
  inlet
  {
    type fixedValue;
    value uniform 293.15;
  }
  outlet
  {
    type zeroGradient;
  }
} 	// ************************************************************************* //

