// -*- C++ -*-
// File generated by PyFoam - sorry for the ugliness

FoamFile
{
 version 2.0;
 format ascii;
 class volScalarField;
 location "430";
 object T;
}

dimensions [ 0 0 0 1 0 0 0 ];

internalField nonuniform List<scalar> 459
(
  302.115
  302.042
  302.041
  302.042
  302.043
  302.044
  302.044
  302.045
  302.047
  302.054
  302.07
  302.082
  302.087
  302.087
  302.079
  302.194
  302.218
  302.234
  302.25
  302.263
  302.273
  302.279
  302.282
  302.285
  302.287
  302.29
  302.292
  302.294
  302.296
  302.298
  302.301
  302.303
  302.305
  302.3
  302.16
  302.054
  302.049
  302.049
  302.05
  302.049
  302.047
  302.043
  302.042
  302.051
  302.072
  302.092
  302.103
  302.104
  302.098
  302.102
  302.105
  302.206
  302.216
  302.235
  302.259
  302.282
  302.299
  302.307
  302.312
  302.316
  302.32
  302.324
  302.327
  302.331
  302.334
  302.335
  302.335
  302.332
  302.326
  302.324
  302.205
  302.065
  302.056
  302.057
  302.059
  302.058
  302.053
  302.041
  302.032
  302.041
  302.069
  302.098
  302.116
  302.122
  302.119
  302.117
  302.114
  302.18
  302.202
  302.235
  302.27
  302.304
  302.33
  302.332
  302.335
  302.338
  302.342
  302.346
  302.35
  302.354
  302.357
  302.359
  302.36
  302.355
  302.345
  302.338
  302.253
  302.08
  302.065
  302.07
  302.076
  302.079
  302.068
  302.043
  302.022
  302.03
  302.065
  302.104
  302.132
  302.144
  302.144
  302.139
  302.131
  302.136
  302.161
  302.2
  302.249
  302.299
  302.344
  302.38
  302.411
  302.435
  302.456
  302.474
  302.491
  302.504
  302.516
  302.527
  302.535
  302.484
  302.434
  302.39
  302.362
  302.302
  302.099
  302.076
  302.083
  302.098
  302.108
  302.089
  302.046
  302.014
  302.021
  302.061
  302.113
  302.154
  302.176
  302.179
  302.175
  302.172
  302.186
  302.217
  302.261
  302.312
  302.363
  302.41
  302.45
  302.485
  302.512
  302.535
  302.553
  302.568
  302.58
  302.586
  302.587
  302.583
  302.554
  302.505
  302.449
  302.402
  302.405
  302.412
  302.458
  302.349
  302.124
  302.093
  302.099
  302.119
  302.135
  302.102
  302.045
  302.005
  302.012
  302.062
  302.13
  302.187
  302.221
  302.231
  302.232
  302.236
  302.259
  302.296
  302.343
  302.394
  302.444
  302.488
  302.525
  302.555
  302.579
  302.598
  302.612
  302.622
  302.629
  302.631
  302.628
  302.619
  302.598
  302.56
  302.514
  302.465
  302.448
  302.442
  302.469
  302.394
  302.167
  302.132
  302.135
  302.157
  302.154
  302.1
  302.028
  301.986
  302.003
  302.072
  302.161
  302.237
  302.284
  302.303
  302.31
  302.322
  302.351
  302.391
  302.437
  302.484
  302.528
  302.565
  302.595
  302.617
  302.633
  302.645
  302.652
  302.656
  302.657
  302.656
  302.65
  302.641
  302.624
  302.596
  302.561
  302.52
  302.493
  302.475
  302.484
  302.459
  302.28
  302.238
  302.225
  302.221
  302.164
  302.066
  301.979
  301.95
  301.997
  302.1
  302.218
  302.312
  302.366
  302.39
  302.401
  302.419
  302.452
  302.491
  302.533
  302.571
  302.604
  302.629
  302.647
  302.659
  302.665
  302.668
  302.668
  302.666
  302.662
  302.657
  302.651
  302.643
  302.63
  302.61
  302.585
  302.555
  302.531
  302.513
  302.571
  302.549
  302.464
  302.404
  302.355
  302.25
  302.08
  301.93
  301.864
  301.899
  302.018
  302.175
  302.32
  302.416
  302.461
  302.482
  302.499
  302.521
  302.551
  302.584
  302.613
  302.638
  302.656
  302.668
  302.674
  302.676
  302.674
  302.67
  302.665
  302.659
  302.651
  302.643
  302.634
  302.624
  302.615
  302.607
  302.601
  302.601
  302.609
  302.622
  302.661
  300.671
  300.869
  300.979
  301.159
  301.396
  301.657
  301.914
  302.159
  302.359
  302.465
  302.522
  302.55
  302.569
  302.587
  302.607
  302.629
  302.648
  302.664
  302.674
  302.679
  302.681
  302.679
  302.675
  302.67
  302.664
  302.658
  302.651
  302.644
  302.637
  302.631
  302.626
  302.622
  302.619
  302.618
  302.623
  302.633
  302.653
  302.7
  300.764
  301.077
  301.373
  301.669
  301.912
  302.115
  302.287
  302.422
  302.514
  302.567
  302.597
  302.617
  302.631
  302.644
  302.657
  302.668
  302.677
  302.682
  302.684
  302.683
  302.68
  302.676
  302.671
  302.666
  302.661
  302.657
  302.652
  302.647
  302.643
  302.639
  302.635
  302.632
  302.629
  302.629
  302.631
  302.638
  302.655
  302.685
  301.5
  301.482
  301.48
  301.809
  302.067
  302.258
  302.377
  302.462
  302.527
  302.575
  302.609
  302.63
  302.643
  302.653
  302.66
  302.665
  302.669
  302.671
  302.671
  302.669
  302.666
  302.662
  302.658
  302.654
  302.65
  302.646
  302.643
  302.64
  302.638
  302.636
  302.635
  302.634
  302.633
  302.632
  302.631
  302.631
  302.633
  302.638
  302.644
  302.684
)
;

boundaryField
{
  floor
  {
    type wallHeatTransfer;
    Tinf uniform 300.35;
    alphaWall uniform 0.24;
    value nonuniform List<scalar> 29
(
  301.84
  301.832
  301.918
  301.959
  301.977
  301.988
  301.992
  301.986
  301.975
  301.964
  301.952
  301.941
  301.93
  301.919
  301.909
  301.899
  301.887
  301.873
  301.849
  301.811
  301.811
  301.876
  301.909
  301.957
  301.84
  301.832
  301.928
  301.925
  301.932
)
;
  }
  ceiling
  {
    type wallHeatTransfer;
    Tinf uniform 300.35;
    alphaWall uniform 0.24;
    value nonuniform List<scalar> 43
(
  301.404
  301.392
  301.394
  301.711
  301.951
  302.123
  302.23
  302.304
  302.358
  302.396
  302.42
  302.434
  302.443
  302.451
  302.457
  302.462
  302.466
  302.468
  302.467
  302.465
  302.462
  302.458
  302.453
  302.449
  302.444
  302.439
  302.433
  302.427
  302.42
  302.414
  302.408
  302.402
  302.398
  302.395
  302.394
  302.395
  302.398
  302.399
  302.401
  302.432
  302.405
  302.344
  300.724
)
;
  }
  sWall
  {
    type wallHeatTransfer;
    Tinf uniform 306.167;
    alphaWall uniform 0.36;
    value uniform 302.059;
  }
  nWall
  {
    type wallHeatTransfer;
    Tinf uniform 305.15;
    alphaWall uniform 0.36;
    value nonuniform List<scalar> 6
(
  303.126
  303.02
  302.969
  303.045
  303.012
  303.063
)
;
  }
  sideWalls
  {
    type empty;
  }
  glass1
  {
    type wallHeatTransfer;
    Tinf uniform 306.167;
    alphaWall uniform 4.3;
    value nonuniform List<scalar> 9
(
  305.062
  304.906
  304.798
  304.712
  304.636
  304.561
  304.501
  304.511
  304.566
)
;
  }
  glass2
  {
    type wallHeatTransfer;
    Tinf uniform 305.15;
    alphaWall uniform 4.3;
    value nonuniform List<scalar> 2
(
  304.32
  304.332
)
;
  }
  sun
  {
    type wallHeatTransfer;
    Tinf uniform 300.35;
    alphaWall uniform 0.24;
    value nonuniform List<scalar> 14
(
  301.888
  301.841
  301.846
  301.855
  301.863
  301.87
  301.877
  301.882
  301.887
  301.893
  301.902
  301.901
  301.89
  301.87
)
;
  }
  heatsource1
  {
    type fixedGradient;
    gradient uniform 0;
  }
  heatsource2
  {
    type fixedGradient;
    gradient uniform 0;
  }
  Table_master
  {
    type zeroGradient;
  }
  Table_slave
  {
    type zeroGradient;
  }
  inlet
  {
    type fixedValue;
    value uniform 300.15;
  }
  outlet
  {
    type zeroGradient;
  }
} 	// ************************************************************************* //

