// -*- C++ -*-
// File generated by PyFoam - sorry for the ugliness

FoamFile
{
 version 2.0;
 format ascii;
 class volVectorField;
 location "510";
 object U;
}

dimensions [ 0 1 -1 0 0 0 0 ];

internalField nonuniform List<vector> 459
(
  (-0.0691723 -0.00649674 0)
  (0.0149734 0.00455297 0)
  (0.0143558 -0.0268447 0)
  (0.0542835 -0.0395717 0)
  (0.0948404 -0.0325944 0)
  (0.127244 -0.0230159 0)
  (0.147575 -0.0150595 0)
  (0.157107 -0.00916895 0)
  (0.158858 -0.00479972 0)
  (0.154895 -0.00116082 0)
  (0.146632 0.00221642 0)
  (0.134138 0.00589548 0)
  (0.116324 0.0109802 0)
  (0.0880288 0.0211304 0)
  (0.0834441 0.0486553 0)
  (-0.112703 0.00297092 0)
  (0.0335757 0.00533548 0)
  (0.00417424 -0.00992794 0)
  (0.0208417 -0.0142859 0)
  (0.0356171 -0.0117758 0)
  (0.0472626 -0.008183 0)
  (0.054692 -0.00511716 0)
  (0.0587821 -0.00348732 0)
  (0.0609522 -0.00280765 0)
  (0.0623511 -0.00247862 0)
  (0.0634235 -0.00223723 0)
  (0.0641732 -0.00198893 0)
  (0.0644254 -0.00162627 0)
  (0.0637563 -0.000899676 0)
  (0.0613506 0.000647876 0)
  (0.0556509 0.00378437 0)
  (0.046406 0.0084047 0)
  (-0.00354966 0.0191511 0)
  (0.102731 0.00123969 0)
  (-0.109211 -0.00414896 0)
  (0.0234834 0.00125731 0)
  (0.0161592 -0.0414375 0)
  (0.0482111 -0.0672672 0)
  (0.0823095 -0.054501 0)
  (0.108061 -0.0347779 0)
  (0.123139 -0.0181797 0)
  (0.12952 -0.0059445 0)
  (0.1297 0.0030362 0)
  (0.125489 0.00992214 0)
  (0.118376 0.0157808 0)
  (0.109002 0.021693 0)
  (0.0981034 0.0290452 0)
  (0.0856619 0.0400521 0)
  (0.0860589 0.0612232 0)
  (0.0780769 0.0548475 0)
  (0.0482574 0.0479086 0)
  (-0.138892 0.000918265 0)
  (0.0379672 -0.0106369 0)
  (0.0281633 -0.0212956 0)
  (0.0379566 -0.0235194 0)
  (0.0484812 -0.0185122 0)
  (0.0557354 -0.0115966 0)
  (0.0587346 -0.00523618 0)
  (0.0593872 -0.00169246 0)
  (0.0594643 -0.000217214 0)
  (0.0596877 0.000466215 0)
  (0.0599964 0.000944252 0)
  (0.0602478 0.00146479 0)
  (0.0604039 0.00233504 0)
  (0.0602891 0.00394118 0)
  (0.0593535 0.00727342 0)
  (0.0550116 0.0152046 0)
  (0.0480206 0.0231694 0)
  (-0.00394923 0.0349436 0)
  (0.155369 0.02102 0)
  (-0.132406 -0.00183844 0)
  (0.022647 -0.00301304 0)
  (0.00647645 -0.0641956 0)
  (0.0353126 -0.102674 0)
  (0.0631073 -0.0823585 0)
  (0.0823758 -0.0523565 0)
  (0.0916206 -0.0278203 0)
  (0.0941795 -0.0102067 0)
  (0.0924498 0.0026517 0)
  (0.0887044 0.0125824 0)
  (0.0841408 0.0207593 0)
  (0.0792966 0.0284381 0)
  (0.0747302 0.0368577 0)
  (0.0699788 0.0469491 0)
  (0.0694003 0.0604107 0)
  (0.0616413 0.0587046 0)
  (0.0466381 0.0735398 0)
  (-0.137305 -0.00531673 0)
  (0.0513262 -0.0369981 0)
  (0.0508041 -0.0400083 0)
  (0.055719 -0.0348072 0)
  (0.0612393 -0.0259372 0)
  (0.0644517 -0.0171256 0)
  (0.0625534 -0.0139042 0)
  (0.0575716 -0.0100506 0)
  (0.0537973 -0.00797131 0)
  (0.0517424 -0.00679479 0)
  (0.0505092 -0.00603562 0)
  (0.0496367 -0.0054571 0)
  (0.0492378 -0.00478135 0)
  (0.0502023 -0.00337963 0)
  (0.0543055 0.000793737 0)
  (0.053428 0.0190579 0)
  (0.0486782 0.0323057 0)
  (-0.0071174 0.0466324 0)
  (0.186199 0.0452207 0)
  (-0.151046 0.00443967 0)
  (0.0198777 -0.00628058 0)
  (-0.00527453 -0.0816338 0)
  (0.0197448 -0.131676 0)
  (0.0397912 -0.102033 0)
  (0.0530097 -0.0612229 0)
  (0.0563424 -0.0296492 0)
  (0.0548418 -0.00819568 0)
  (0.0517818 0.00641444 0)
  (0.0498798 0.0165196 0)
  (0.0489861 0.0242507 0)
  (0.0489619 0.0312651 0)
  (0.0498821 0.0386691 0)
  (0.0514535 0.0470487 0)
  (0.056744 0.0577978 0)
  (0.0647088 0.0642767 0)
  (0.0753014 0.0793529 0)
  (0.0979267 -0.0260814 0)
  (0.090739 -0.0276382 0)
  (0.0881374 -0.0403971 0)
  (0.0787166 -0.0420272 0)
  (0.0725294 -0.0357725 0)
  (0.0695181 -0.0263614 0)
  (0.0678775 -0.0155179 0)
  (0.0690021 -0.00896135 0)
  (0.0711167 -0.00574179 0)
  (0.0704977 -0.0036327 0)
  (0.0673559 -0.00217343 0)
  (0.0627061 -0.00105425 0)
  (0.0570265 -0.000102849 0)
  (0.0502726 0.000841447 0)
  (0.0419634 0.00203016 0)
  (0.0268988 0.00419184 0)
  (0.0273285 0.0265188 0)
  (0.0367911 0.0385134 0)
  (-0.0126288 0.051061 0)
  (0.206283 0.0766354 0)
  (-0.168923 0.0136388 0)
  (0.0178477 -0.00445066 0)
  (-0.0149499 -0.0968816 0)
  (0.0052393 -0.151804 0)
  (0.0164881 -0.114715 0)
  (0.0246955 -0.0634265 0)
  (0.0232057 -0.026485 0)
  (0.0186193 -0.00401133 0)
  (0.0162358 0.00901646 0)
  (0.0169567 0.0169927 0)
  (0.0193063 0.0231424 0)
  (0.0229783 0.0289109 0)
  (0.0279649 0.0349794 0)
  (0.0344384 0.0416047 0)
  (0.0446193 0.0494086 0)
  (0.0585902 0.0541272 0)
  (0.0765306 0.0545247 0)
  (0.093421 0.0122342 0)
  (0.0946099 -0.0101273 0)
  (0.086239 -0.0265375 0)
  (0.0761702 -0.0313654 0)
  (0.0672099 -0.0279481 0)
  (0.0601014 -0.0206949 0)
  (0.0547717 -0.0119913 0)
  (0.0512315 -0.00330691 0)
  (0.0480391 0.00232483 0)
  (0.0442073 0.00545155 0)
  (0.0395876 0.00731853 0)
  (0.034579 0.00870469 0)
  (0.0293218 0.0100041 0)
  (0.0237906 0.011492 0)
  (0.0182099 0.0134246 0)
  (0.0107314 0.0159155 0)
  (0.0107855 0.0254444 0)
  (0.0286225 0.0334155 0)
  (0.00112624 0.0387059 0)
  (0.111486 0.0734589 0)
  (0.0856903 0.0652341 0)
  (-0.0839108 0.0563262 0)
  (0.294034 -0.00820313 0)
  (-0.189851 0.024212 0)
  (0.0231055 0.00340759 0)
  (-0.0170347 -0.111688 0)
  (-0.00289659 -0.163987 0)
  (-0.000724539 -0.122717 0)
  (0.00284364 -0.0615972 0)
  (-0.00119553 -0.0207832 0)
  (-0.00612679 -0.000738004 0)
  (-0.00728375 0.00871246 0)
  (-0.00566828 0.0141935 0)
  (-0.00215899 0.0186559 0)
  (0.00327664 0.0231267 0)
  (0.0101705 0.0276227 0)
  (0.0188569 0.0319849 0)
  (0.0304071 0.0358934 0)
  (0.0447832 0.0360349 0)
  (0.0622866 0.029228 0)
  (0.0736275 0.00598171 0)
  (0.0738641 -0.0124906 0)
  (0.0668875 -0.0218367 0)
  (0.0572504 -0.0233892 0)
  (0.0473423 -0.019674 0)
  (0.0384787 -0.013299 0)
  (0.0311932 -0.00585139 0)
  (0.025034 0.0015292 0)
  (0.0205895 0.00638367 0)
  (0.0166938 0.00912736 0)
  (0.0127516 0.0109311 0)
  (0.00869723 0.0124919 0)
  (0.00457198 0.0141264 0)
  (0.000559475 0.0159642 0)
  (-0.00254825 0.0177333 0)
  (-0.00516252 0.0184136 0)
  (-0.00331886 0.0186411 0)
  (0.0128225 0.0197622 0)
  (-0.00556232 0.0122247 0)
  (0.0412468 0.0449326 0)
  (0.0426704 0.0553101 0)
  (-0.104561 0.0580829 0)
  (0.27848 -0.0231285 0)
  (-0.217552 0.0359097 0)
  (0.0424743 0.0171102 0)
  (-0.00405307 -0.128765 0)
  (0.00140209 -0.170901 0)
  (-0.00600952 -0.125028 0)
  (-0.00906668 -0.056904 0)
  (-0.0139881 -0.017036 0)
  (-0.0193092 0.000713298 0)
  (-0.0208928 0.00768979 0)
  (-0.0198383 0.0110652 0)
  (-0.0166538 0.0136514 0)
  (-0.0115794 0.0162116 0)
  (-0.004881 0.0188045 0)
  (0.00409867 0.0210937 0)
  (0.014672 0.0222568 0)
  (0.026778 0.0203867 0)
  (0.0392899 0.0139839 0)
  (0.0454539 0.00143029 0)
  (0.0442783 -0.00867347 0)
  (0.0376332 -0.0135627 0)
  (0.0283445 -0.0136016 0)
  (0.0186341 -0.0101672 0)
  (0.00984849 -0.00482585 0)
  (0.00207961 0.00133086 0)
  (-0.00313213 0.00670496 0)
  (-0.00630853 0.0101039 0)
  (-0.00899586 0.0123702 0)
  (-0.011593 0.0141665 0)
  (-0.0141403 0.0157743 0)
  (-0.0164048 0.0171859 0)
  (-0.0178973 0.0181157 0)
  (-0.0180101 0.017928 0)
  (-0.0168408 0.0156983 0)
  (-0.0135187 0.011747 0)
  (-0.00689654 0.00941718 0)
  (-0.0157568 0.00701671 0)
  (0.00697767 0.0359891 0)
  (0.0253759 0.0679053 0)
  (-0.135823 0.071319 0)
  (0.327047 -0.0304814 0)
  (-0.238887 -0.0698136 0)
  (0.049739 -0.0179119 0)
  (0.0320485 -0.15038 0)
  (0.0249475 -0.168146 0)
  (0.00428682 -0.117539 0)
  (-0.0118969 -0.0458372 0)
  (-0.0205745 -0.00879174 0)
  (-0.0287701 0.00501076 0)
  (-0.0317498 0.008401 0)
  (-0.0315271 0.00918423 0)
  (-0.0291556 0.00975344 0)
  (-0.0251416 0.0105443 0)
  (-0.019774 0.0114164 0)
  (-0.0131052 0.0120984 0)
  (-0.00546345 0.0122177 0)
  (0.00285913 0.0107342 0)
  (0.00964663 0.00714882 0)
  (0.0115648 0.001228 0)
  (0.00920391 -0.00360203 0)
  (0.00290019 -0.00549299 0)
  (-0.00549655 -0.0042325 0)
  (-0.0137587 -0.000970024 0)
  (-0.0206873 0.00296764 0)
  (-0.0251269 0.00663127 0)
  (-0.0277577 0.00977726 0)
  (-0.0293229 0.0122668 0)
  (-0.0304391 0.0143121 0)
  (-0.0312654 0.0159994 0)
  (-0.031708 0.0172739 0)
  (-0.0314817 0.0179267 0)
  (-0.0302138 0.0175938 0)
  (-0.0276794 0.0158383 0)
  (-0.0241382 0.0124769 0)
  (-0.0198449 0.00858711 0)
  (-0.0152641 0.00678918 0)
  (-0.0140211 0.00871904 0)
  (-0.000625877 0.0290841 0)
  (0.0348478 0.0687739 0)
  (-0.120155 0.0633946 0)
  (0.551378 0.00749625 0)
  (-0.266256 0.313513 0)
  (0.0632492 0.230579 0)
  (0.0927467 -0.136102 0)
  (0.0714518 -0.143293 0)
  (0.0263376 -0.0884258 0)
  (-0.0151889 -0.0218861 0)
  (-0.0335986 0.00840075 0)
  (-0.0426932 0.0132946 0)
  (-0.0458933 0.0120637 0)
  (-0.0459892 0.0103486 0)
  (-0.0444646 0.00930756 0)
  (-0.0418937 0.00889386 0)
  (-0.0385762 0.00883885 0)
  (-0.0347477 0.00890455 0)
  (-0.0307251 0.00886766 0)
  (-0.0270066 0.00842051 0)
  (-0.0246441 0.00729861 0)
  (-0.0250315 0.00537963 0)
  (-0.0280088 0.00390733 0)
  (-0.0325941 0.00379308 0)
  (-0.0377089 0.00498289 0)
  (-0.0418356 0.00674699 0)
  (-0.0447027 0.00874172 0)
  (-0.0462629 0.0108061 0)
  (-0.0467527 0.0128613 0)
  (-0.0464684 0.0147593 0)
  (-0.0456385 0.0164219 0)
  (-0.0443226 0.0177093 0)
  (-0.0424744 0.0184251 0)
  (-0.0399945 0.0183166 0)
  (-0.036808 0.0171081 0)
  (-0.0329841 0.0146244 0)
  (-0.0288126 0.0110599 0)
  (-0.0245583 0.00735344 0)
  (-0.0202125 0.00494116 0)
  (-0.0151835 0.00585283 0)
  (-0.00341258 0.0175702 0)
  (0.0310005 0.0496301 0)
  (-0.0934484 0.0385241 0)
  (0.540886 0.0352043 0)
  (0.15384 -0.132459 0)
  (0.109756 -0.10242 0)
  (0.0258643 -0.0290409 0)
  (-0.04965 0.0286412 0)
  (-0.0593157 0.0298686 0)
  (-0.0633105 0.0247761 0)
  (-0.0637058 0.0199837 0)
  (-0.0629611 0.0166405 0)
  (-0.0618384 0.0145851 0)
  (-0.0604972 0.0134263 0)
  (-0.0590117 0.0128488 0)
  (-0.0574764 0.0126568 0)
  (-0.0560228 0.0127187 0)
  (-0.0548531 0.0128879 0)
  (-0.0543103 0.0129791 0)
  (-0.0548002 0.0128563 0)
  (-0.0562165 0.0128427 0)
  (-0.0579876 0.0132757 0)
  (-0.0594946 0.0141144 0)
  (-0.0603106 0.0151045 0)
  (-0.0603402 0.0161243 0)
  (-0.0595885 0.0171081 0)
  (-0.0581156 0.0180083 0)
  (-0.0560054 0.0187128 0)
  (-0.0533441 0.019104 0)
  (-0.0502046 0.0190434 0)
  (-0.0466683 0.0183774 0)
  (-0.0428528 0.0169436 0)
  (-0.0389456 0.0146043 0)
  (-0.0352392 0.011335 0)
  (-0.0321238 0.00735746 0)
  (-0.0299754 0.00317362 0)
  (-0.0288854 -0.000825227 0)
  (-0.0272664 -0.000542938 0)
  (-0.0210981 0.00905451 0)
  (-0.0123309 0.0282449 0)
  (-0.115094 0.0212732 0)
  (0.323673 0.0551294 0)
  (-0.181905 -0.0977933 0)
  (-0.0820802 -0.0710348 0)
  (-0.1037 -0.0515983 0)
  (-0.101592 -0.042492 0)
  (-0.0918693 -0.0543583 0)
  (-0.085269 -0.0653044 0)
  (-0.0813555 -0.0726159 0)
  (-0.0790653 -0.0769627 0)
  (-0.0776721 -0.07928 0)
  (-0.0767281 -0.0802547 0)
  (-0.0759626 -0.0803262 0)
  (-0.0752091 -0.0797923 0)
  (-0.0743701 -0.0789305 0)
  (-0.0734297 -0.0780866 0)
  (-0.0724908 -0.0776566 0)
  (-0.071738 -0.0778932 0)
  (-0.0712295 -0.0785956 0)
  (-0.0708207 -0.0793533 0)
  (-0.0702842 -0.0798936 0)
  (-0.0694363 -0.0801022 0)
  (-0.0681677 -0.0798873 0)
  (-0.0663979 -0.0792145 0)
  (-0.0640683 -0.0781222 0)
  (-0.0611527 -0.0767407 0)
  (-0.0576704 -0.0752529 0)
  (-0.0536951 -0.073893 0)
  (-0.0493706 -0.0729479 0)
  (-0.0449286 -0.072751 0)
  (-0.0407105 -0.0736334 0)
  (-0.0371869 -0.0758019 0)
  (-0.0349462 -0.0791255 0)
  (-0.0345579 -0.0828137 0)
  (-0.0362663 -0.0847601 0)
  (-0.0381309 -0.0850339 0)
  (-0.0376248 -0.0757416 0)
  (-0.0436003 -0.0561592 0)
  (-0.0921267 -0.0518154 0)
  (0.262037 -0.0414465 0)
  (-0.244296 -0.16981 0)
  (-0.165798 0.0303943 0)
  (-0.152915 0.294731 0)
  (-0.150836 0.260678 0)
  (-0.147548 0.248901 0)
  (-0.133321 0.25096 0)
  (-0.117742 0.260996 0)
  (-0.106793 0.269023 0)
  (-0.09988 0.274145 0)
  (-0.0957174 0.277103 0)
  (-0.0932203 0.278675 0)
  (-0.0916442 0.279381 0)
  (-0.0904925 0.27955 0)
  (-0.0894189 0.279432 0)
  (-0.0881749 0.279293 0)
  (-0.086614 0.279458 0)
  (-0.0847274 0.280241 0)
  (-0.0826317 0.28177 0)
  (-0.0804429 0.28385 0)
  (-0.0781771 0.286146 0)
  (-0.0757791 0.288394 0)
  (-0.0731819 0.290426 0)
  (-0.0703183 0.292124 0)
  (-0.0671181 0.293426 0)
  (-0.0635281 0.294323 0)
  (-0.0595414 0.294837 0)
  (-0.0552213 0.295002 0)
  (-0.0507145 0.29486 0)
  (-0.0462582 0.294486 0)
  (-0.0421754 0.294009 0)
  (-0.0388594 0.293636 0)
  (-0.0367702 0.293641 0)
  (-0.0364072 0.294284 0)
  (-0.0378872 0.295408 0)
  (-0.0396508 0.294959 0)
  (-0.039307 0.295371 0)
  (-0.0402113 0.288969 0)
  (-0.0617458 0.2794 0)
  (-0.117898 0.2885 0)
  (0.346426 0.333317 0)
)
;

boundaryField
{
  floor
  {
    type noSlip;
  }
  ceiling
  {
    type noSlip;
  }
  sWall
  {
    type noSlip;
  }
  nWall
  {
    type noSlip;
  }
  sideWalls
  {
    type empty;
  }
  glass1
  {
    type noSlip;
  }
  glass2
  {
    type noSlip;
  }
  sun
  {
    type noSlip;
  }
  heatsource1
  {
    type noSlip;
  }
  heatsource2
  {
    type noSlip;
  }
  Table_master
  {
    type noSlip;
  }
  Table_slave
  {
    type noSlip;
  }
  inlet
  {
    type fixedValue;
    value uniform (0.277164 -0.114805 0);
  }
  outlet
  {
    type zeroGradient;
  }
} 	// ************************************************************************* //

