/*--------------------------------*- C++ -*----------------------------------*\
  =========                 |
  \\      /  F ield         | OpenFOAM: The Open Source CFD Toolbox
   \\    /   O peration     | Website:  https://openfoam.org
    \\  /    A nd           | Version:  6
     \\/     M anipulation  |
\*---------------------------------------------------------------------------*/
FoamFile
{
    version     2.0;
    format      ascii;
    class       surfaceScalarField;
    location    "300";
    object      phi;
}
// * * * * * * * * * * * * * * * * * * * * * * * * * * * * * * * * * * * * * //

dimensions      [1 0 -1 0 0 0 0];

internalField   nonuniform List<scalar> 
852
(
0.00474067
-0.0047152
0.00880327
-0.00406245
0.0109756
-0.00217216
0.012109
-0.00113326
0.01277
-0.00066082
0.0131149
-0.000344766
0.0131793
-6.423e-05
0.0129907
0.00018878
0.0125617
0.000429174
0.0118816
0.000680235
0.0109162
0.000965503
0.00959648
0.00131991
0.0077728
0.00182383
0.00502991
0.00274305
0.00502849
-0.000150136
0.000151161
-0.000142768
-7.34076e-06
-0.000102671
-4.00642e-05
-8.90409e-05
-1.36021e-05
-7.22901e-05
-1.67254e-05
1.21222e-05
-8.43851e-05
0.00013045
-0.000118299
0.000227376
-9.68953e-05
0.000307471
-8.00614e-05
0.000376141
-6.86366e-05
0.000433466
-5.7292e-05
0.000482805
-4.93066e-05
0.000516485
-3.36475e-05
0.00051407
2.44735e-06
0.000472385
4.17157e-05
0.000375602
9.68108e-05
0.000277107
9.85226e-05
0.000185108
9.20266e-05
0.000186031
0.00479277
-0.00943599
0.00736357
-0.00663309
0.00874366
-0.00355208
0.0095665
-0.00195594
0.0100859
-0.00118009
0.0103823
-0.000640983
0.0104812
-0.00016302
0.0103798
0.000290398
0.0100703
0.000738793
0.00953992
0.00121079
0.00877435
0.00173123
0.0077697
0.00232471
0.0065712
0.00302249
0.0054836
0.00383081
0.00584423
0.00466801
0.00225232
0.00359201
0.00225242
0.000385935
-0.000233267
0.00036208
1.65668e-05
0.000223668
9.83888e-05
0.000105171
0.000104929
7.93688e-06
8.05444e-05
-9.76131e-05
2.11978e-05
-2.89231e-05
-0.000186955
1.09905e-05
-0.000136771
2.53445e-05
-9.43742e-05
2.60332e-05
-6.92821e-05
1.58943e-05
-4.71104e-05
-1.07946e-05
-2.25782e-05
-5.60524e-05
1.1647e-05
-0.000103195
4.96239e-05
-0.000133807
7.23573e-05
-0.000151145
0.000114173
-0.000203722
0.000151124
-0.000253283
0.00014162
-6.58507e-05
0.00343981
-0.0127597
0.00503634
-0.00822946
0.00584169
-0.00435727
0.00637279
-0.00248688
0.00675978
-0.00156693
0.00701854
-0.000899584
0.00717152
-0.000315848
0.0072029
0.00025917
0.0070833
0.00085854
0.00678916
0.00150508
0.00631223
0.00220831
0.00566881
0.00296829
0.00492078
0.00377067
0.00417176
0.00457998
0.00343393
0.00540599
0.00194233
0.00508376
0.0041949
-0.000208439
-2.41717e-05
-0.000234111
4.23046e-05
-0.000216675
8.10097e-05
-0.00019591
8.42142e-05
-0.000174127
5.88074e-05
-0.000143998
-8.88675e-06
-0.000330763
-0.000467339
-0.00056151
-0.000630582
-0.000677481
-0.000699851
-0.000688003
-0.000638187
-0.000565646
-0.000358466
-9.2981e-05
-0.00014711
-6.02106e-05
3.68551e-05
-4.23221e-05
-3.00997e-05
0.00207463
-0.0146755
0.00295016
-0.00910483
0.00336823
-0.00477518
0.00356448
-0.00268298
0.00378541
-0.00178772
0.00398859
-0.00110262
0.00416687
-0.000493983
0.0042815
0.000144679
0.00428735
0.000852835
0.00415877
0.00163381
0.00388439
0.00248285
0.00346794
0.00338489
0.0029241
0.00431466
0.00226442
0.00523981
0.00154475
0.00612582
0.000711816
0.00591684
-3.72815e-05
0.00494411
-0.000850475
0.000809976
-0.00101158
0.00013701
-0.0011021
0.000132921
-0.00119037
0.000169362
-0.00128755
0.000181484
-0.00138471
0.000156052
-0.0014898
9.62929e-05
-0.00153388
4.40286e-05
-0.00153283
-1.09893e-06
-0.00149865
-3.42401e-05
-0.0014407
-5.79984e-05
-0.00136414
-7.66216e-05
-0.00127043
-9.3761e-05
-0.00115716
-0.000113331
-0.00101697
-0.00014026
-0.000836188
-0.000180847
-0.000676828
-0.000252265
-0.000420344
-0.00031662
-8.53555e-05
-0.000377234
-0.000118954
0.00094481
-0.0154193
0.00133234
-0.00949219
0.00140514
-0.00484781
0.00119275
-0.00247045
0.00130201
-0.00189684
0.00150077
-0.00130124
0.00170021
-0.000693288
0.00183593
9.09491e-06
0.00187477
0.000814133
0.00181339
0.00169533
0.00164096
0.00265542
0.00135172
0.00367428
0.000942418
0.00472411
0.000432203
0.00575018
-5.95989e-05
0.00661777
-0.000546236
0.00640362
-0.000691976
0.00508994
-0.0011007
0.00121876
-0.00135336
0.000389754
-0.00147719
0.000256843
-0.00154373
0.000235999
-0.00157712
0.000214968
-0.00159148
0.000170515
-0.00160113
0.000106035
-0.0015967
3.96965e-05
-0.00158022
-1.74738e-05
-0.00155228
-6.20834e-05
-0.00151481
-9.5372e-05
-0.00146961
-0.000121724
-0.00141717
-0.000146098
-0.00135579
-0.000174619
-0.00128038
-0.000215574
-0.00118219
-0.000278946
-0.00106482
-0.000369544
-0.000890078
-0.000491267
-0.000626433
-0.000640786
2.04611e-05
-0.000765754
0.000863987
-0.000843623
0.00124399
-0.000380099
0.00126201
-1.82435e-05
-0.0151587
2.28554e-06
-0.00951255
-0.0002866
-0.00455878
-0.000798783
-0.00195813
-0.000771007
-0.00192448
-0.000616512
-0.0014556
-0.000469737
-0.000839927
-0.0003724
-8.8105e-05
-0.000333035
0.000774907
-0.000359136
0.00172158
-0.000454136
0.00275057
-0.000623329
0.00384362
-0.000864442
0.00496538
-0.00114133
0.00602721
-0.00132068
0.00679726
-0.00141716
0.00650022
-0.00119511
0.00486796
-0.00136031
0.00138404
-0.00150127
0.000530807
-0.00156889
0.000324567
-0.00158242
0.000249619
-0.00156235
0.000194997
-0.00152738
0.000135648
-0.0014922
7.09513e-05
-0.00146078
8.37886e-06
-0.0014335
-4.46524e-05
-0.00141074
-8.47407e-05
-0.00139251
-0.000113498
-0.00138009
-0.000134052
-0.0013754
-0.000150681
-0.00137992
-0.000170005
-0.00139313
-0.000202262
-0.00141107
-0.000260911
-0.00142124
-0.000359276
-0.0014003
-0.000512116
-0.00130351
-0.000737479
-0.001014
-0.00105516
-0.000490775
-0.00136675
4.17209e-05
-0.000912481
0.00132599
-0.00101248
-0.0138641
-0.00168076
-0.00884409
-0.00225183
-0.00398755
-0.00289493
-0.00131489
-0.00292125
-0.00189801
-0.00279093
-0.00158578
-0.00264668
-0.000984044
-0.00253137
-0.000203275
-0.0024493
0.000692982
-0.00239696
0.00166938
-0.00236635
0.00272011
-0.00235416
0.00383158
-0.00234948
0.00496085
-0.00231436
0.00599223
-0.00215818
0.00664121
-0.00189545
0.00623759
-0.00144759
0.00442016
-0.0014517
0.00138823
-0.00147923
0.000558434
-0.00146372
0.000309158
-0.00140914
0.000195143
-0.0013312
0.000117169
-0.00124856
5.31052e-05
-0.00117505
-2.45178e-06
-0.00111886
-4.77086e-05
-0.00108149
-8.1915e-05
-0.00105947
-0.000106655
-0.00105081
-0.000122063
-0.00105668
-0.000128074
-0.00108174
-0.000125519
-0.0011339
-0.000117743
-0.00122321
-0.000112855
-0.0013584
-0.000125622
-0.00153942
-0.000178152
-0.0017544
-0.000297039
-0.00198694
-0.000504847
-0.00222727
-0.000814726
-0.00240388
-0.00119004
-0.00194487
-0.00137138
-0.000597913
-0.00362715
-0.00991878
-0.00559
-0.00688106
-0.00562296
-0.00395443
-0.00574311
-0.00119461
-0.00529741
-0.00234357
-0.00492446
-0.0019586
-0.00467547
-0.00123289
-0.00449298
-0.000385626
-0.00433489
0.000535031
-0.00416979
0.00150443
-0.00397009
0.00252054
-0.00372053
0.00358216
-0.00340767
0.00464813
-0.00301151
0.00559621
-0.00250545
0.00613527
-0.00194558
0.00567781
-0.00137784
0.00385248
-0.00126858
0.00127907
-0.00120593
0.000495886
-0.0011099
0.000213233
-0.000978947
6.43e-05
-0.000835078
-2.65901e-05
-0.000706951
-7.49122e-05
-0.000612104
-9.71902e-05
-0.000550049
-0.000109657
-0.000512368
-0.00011949
-0.000492047
-0.00012687
-0.00048447
-0.000129534
-0.000487821
-0.000124617
-0.000503623
-0.00010961
-0.000537848
-8.34128e-05
-0.000602674
-4.79249e-05
-0.00071813
-1.00636e-05
-0.000912663
1.64795e-05
-0.00121368
4.07914e-06
-0.00164954
-6.88947e-05
-0.00227939
-0.000184784
-0.00308005
-0.000389283
-0.0031451
-0.00130623
-0.00366295
-0.00959144
-0.0164893
-0.0115634
-0.00888013
-0.00807649
-0.00468135
-0.00693618
-0.00348374
-0.00641592
-0.00247872
-0.00616859
-0.00148009
-0.00600663
-0.000547443
-0.00581797
0.000346517
-0.00554014
0.00122673
-0.00515218
0.00213272
-0.00463607
0.00306619
-0.00398379
0.00399599
-0.00320358
0.00481613
-0.00233925
0.00527106
-0.0015161
0.00485475
-0.000818112
0.00315455
-0.000639182
0.00110024
-0.000524934
0.000381746
-0.0003617
5.01118e-05
-0.000168865
-0.00012842
-7.68891e-06
-0.000187653
0.000103738
-0.000186227
0.000174103
-0.000167444
0.000216096
-0.00015154
0.000238863
-0.000142148
0.000249041
-0.000136939
0.000251542
-0.000131926
0.000250379
-0.000123345
0.000249291
-0.000108413
0.000251989
-8.60022e-05
0.00026208
-5.79068e-05
0.000283265
-3.11408e-05
0.000321045
-2.11937e-05
0.000373293
-4.80651e-05
0.000427207
-0.000122706
0.00047583
-0.000233308
0.000502471
-0.000415825
0.000327316
-0.00113097
-0.00324588
-0.0092853
0.00014366
-0.00732162
-0.00664485
-0.00696724
-0.00383799
-0.00700708
-0.00243874
-0.00703431
-0.00145273
-0.00695934
-0.000622276
-0.00675273
0.000140041
-0.00640424
0.000878377
-0.00585868
0.0015873
-0.00509368
0.00230133
-0.00411083
0.00301327
-0.00294299
0.00364842
-0.00169967
0.00402785
-0.000513667
0.00366884
0.000424854
0.00221612
0.000681378
0.000843823
0.00082055
0.000242688
0.000944061
-7.3283e-05
0.00102956
-0.000213802
0.00107163
-0.000229605
0.00108944
-0.000203922
0.00109604
-0.000173937
0.00109643
-0.000151816
0.00109244
-0.000138041
0.00108486
-0.000129253
0.00107491
-0.000121865
0.00106504
-0.000113365
0.00105938
-0.000102637
0.00106371
-9.02292e-05
0.00108501
-7.90927e-05
0.00112992
-7.59447e-05
0.00120152
-9.26757e-05
0.00129708
-0.000143519
0.00141139
-0.000236913
0.00154108
-0.00036289
0.00161185
-0.000486494
0.00125122
-0.00077025
-0.00197557
-0.000448762
0.000562871
-0.00389986
-0.00319352
-0.00566686
-0.00207086
-0.00679821
-0.00130726
-0.00745206
-0.000798748
-0.00769016
-0.000384038
-0.00754811
-1.87448e-06
-0.00711374
0.000444142
-0.00638994
0.000863637
-0.00536283
0.00127436
-0.004038
0.00168858
-0.00245074
0.00206128
-0.000661472
0.00223871
0.00107704
0.00193043
0.00218468
0.00110859
0.00255927
0.000469351
0.00264328
0.00015879
0.00256234
7.77599e-06
0.0024009
-5.22433e-05
0.00225503
-8.36185e-05
0.00214764
-9.64194e-05
0.00207444
-0.000100618
0.00202346
-0.000100721
0.00198332
-9.7787e-05
0.00194636
-9.21815e-05
0.00190924
-8.463e-05
0.00187228
-7.62945e-05
0.00183842
-6.86719e-05
0.00181196
-6.3659e-05
0.0017969
-6.39175e-05
0.00179462
-7.35564e-05
0.00180097
-9.89151e-05
0.001806
-0.00014845
0.0018009
-0.0002317
0.00179859
-0.000360482
0.00187039
-0.000558196
0.00198611
-0.000885866
3.0215e-05
0.00438233
0.000295611
0.000797507
-0.00246267
-0.00460128
-0.00597744
-0.00684536
-0.00729859
-0.00736949
-0.00699397
-0.0061986
-0.00499208
-0.00337075
-0.00137598
0.00079738
0.0026649
0.00371237
0.00412218
0.00422344
0.00417613
0.00407183
0.00393886
0.00379509
0.00364842
0.00350241
0.00335979
0.00322303
0.00309402
0.00297355
0.00286094
0.00275361
0.00264629
0.00252957
0.00238769
0.00219634
0.00192165
0.00151782
0.000915396
-1.52763e-05
)
;

boundaryField
{
    floor
    {
        type            calculated;
        value           nonuniform List<scalar> 
29
(
0
0
0
0
0
0
0
0
0
0
0
0
0
0
0
0
0
0
0
0
-8.97801e-07
-1.35847e-06
1.14588e-06
3.58359e-06
1.57696e-06
-1.00256e-06
-1.43772e-06
-5.81263e-07
3.26743e-06
)
;
    }
    ceiling
    {
        type            calculated;
        value           nonuniform List<scalar> 
43
(
0.000135939
0.000134055
6.15317e-05
6.69848e-05
6.78923e-05
6.90324e-05
6.93021e-05
6.93267e-05
6.91587e-05
6.87473e-05
6.84097e-05
6.79664e-05
6.73789e-05
6.66412e-05
6.54703e-05
6.30306e-05
6.12388e-05
5.96671e-05
5.76475e-05
5.52064e-05
5.21786e-05
4.94666e-05
4.74719e-05
4.61734e-05
4.5397e-05
4.49543e-05
4.46895e-05
4.44901e-05
4.42875e-05
4.40521e-05
4.37859e-05
4.35116e-05
4.32633e-05
4.30788e-05
4.30004e-05
4.30893e-05
4.34568e-05
4.43245e-05
4.49049e-05
4.41544e-05
1.99184e-05
1.69659e-05
2.98365e-05
)
;
    }
    sWall
    {
        type            calculated;
        value           uniform -8.73808e-05;
    }
    nWall
    {
        type            calculated;
        value           nonuniform List<scalar> 6(-1.81145e-05 -2.21626e-05 -2.0827e-05 -1.89876e-05 -1.95757e-05 -2.91186e-05);
    }
    sideWalls
    {
        type            empty;
        value           nonuniform 0();
    }
    glass1
    {
        type            calculated;
        value           nonuniform List<scalar> 9(-2.53074e-05 -7.18232e-05 -0.000115885 -0.000158753 -0.000200836 -0.000242172 -0.000281892 -0.00031803 -0.000347073);
    }
    glass2
    {
        type            calculated;
        value           nonuniform List<scalar> 2(-7.99721e-05 -8.96525e-05);
    }
    sun
    {
        type            calculated;
        value           uniform 0;
    }
    heatsource1
    {
        type            calculated;
        value           nonuniform List<scalar> 3(2.00837e-07 2.00752e-07 2.00825e-07);
    }
    heatsource2
    {
        type            calculated;
        value           nonuniform List<scalar> 4(4.90356e-08 4.94469e-08 0 0);
    }
    Table_master
    {
        type            calculated;
        value           nonuniform List<scalar> 9(-1.5185e-07 -1.51791e-07 -1.51726e-07 -1.51665e-07 -1.51609e-07 -1.51558e-07 -1.51513e-07 -1.51467e-07 -1.51398e-07);
    }
    Table_slave
    {
        type            calculated;
        value           nonuniform List<scalar> 9(1.50713e-07 1.507e-07 1.50688e-07 1.50688e-07 1.50698e-07 1.50715e-07 1.50738e-07 1.5077e-07 1.50789e-07);
    }
    inlet
    {
        type            calculated;
        value           uniform 0.000261753;
    }
    outlet
    {
        type            calculated;
        value           nonuniform List<scalar> 2(-0.00443051 0.00395305);
    }
}


// ************************************************************************* //
