// -*- C++ -*-
// File generated by PyFoam - sorry for the ugliness

FoamFile
{
 version 2.0;
 format ascii;
 class volVectorField;
 location "300";
 object U;
}

dimensions [ 0 1 -1 0 0 0 0 ];

internalField nonuniform List<vector> 459
(
  (0.339517 -0.170664 0)
  (0.279491 -0.151009 0)
  (0.409389 -0.100211 0)
  (0.508719 -0.0662645 0)
  (0.554682 -0.0466381 0)
  (0.572184 -0.0335928 0)
  (0.578029 -0.0234797 0)
  (0.574563 -0.0146843 0)
  (0.561193 -0.00640036 0)
  (0.537271 0.00205012 0)
  (0.501814 0.0114383 0)
  (0.452876 0.0229571 0)
  (0.386466 0.0393975 0)
  (0.290156 0.0705388 0)
  (0.215236 0.153238 0)
  (0.0243276 0.00527675 0)
  (-0.0114213 -0.000626628 0)
  (-0.00517993 -0.0018233 0)
  (-0.00461454 -0.00160789 0)
  (-0.00341377 -0.00212015 0)
  (-0.00129997 -0.00357599 0)
  (0.00283713 -0.00580716 0)
  (0.00741964 -0.00445939 0)
  (0.0117438 -0.0035469 0)
  (0.0149609 -0.00289664 0)
  (0.017591 -0.00242252 0)
  (0.0197867 -0.00218818 0)
  (0.0215002 -0.00203572 0)
  (0.0227098 -0.00159547 0)
  (0.0219111 -0.000605544 0)
  (0.0187252 0.00160866 0)
  (0.0144735 0.00267337 0)
  (0.0129384 0.00335761 0)
  (-0.0181419 0.0052676 0)
  (0.424686 -0.336098 0)
  (0.212355 -0.247238 0)
  (0.327768 -0.134225 0)
  (0.407822 -0.0681679 0)
  (0.439011 -0.0344957 0)
  (0.451307 -0.0128947 0)
  (0.45777 0.00500579 0)
  (0.457839 0.0206993 0)
  (0.449143 0.0351126 0)
  (0.431074 0.0496533 0)
  (0.403088 0.0656694 0)
  (0.364818 0.0846916 0)
  (0.317487 0.109174 0)
  (0.264362 0.144065 0)
  (0.235188 0.205259 0)
  (0.206192 0.17789 0)
  (0.0984649 0.122552 0)
  (0.0383004 -0.00233483 0)
  (0.0196083 0.000324638 0)
  (0.0107213 0.00166627 0)
  (0.00604116 0.00250152 0)
  (0.0023022 0.00186382 0)
  (-0.00188394 -0.00182301 0)
  (-0.0028966 -0.00759628 0)
  (-0.00163681 -0.0055536 0)
  (0.000939671 -0.00384557 0)
  (0.00119236 -0.0029584 0)
  (0.000856327 -0.00212843 0)
  (0.000232924 -0.00107291 0)
  (-0.00129774 0.000713894 0)
  (-0.00415668 0.003031 0)
  (-0.00507022 0.00471883 0)
  (-0.0054008 0.00720614 0)
  (-0.00559274 0.00787469 0)
  (-0.0111466 0.0070005 0)
  (-0.0348345 0.00336085 0)
  (0.456119 -0.505641 0)
  (0.0864045 -0.338162 0)
  (0.219958 -0.182834 0)
  (0.279705 -0.10359 0)
  (0.294141 -0.0648876 0)
  (0.302294 -0.0383972 0)
  (0.309928 -0.0153048 0)
  (0.315284 0.00750492 0)
  (0.313864 0.0313326 0)
  (0.305103 0.0569315 0)
  (0.288556 0.0848708 0)
  (0.26421 0.115603 0)
  (0.233476 0.149556 0)
  (0.19723 0.186609 0)
  (0.168948 0.225891 0)
  (0.130127 0.188623 0)
  (0.0689796 0.145121 0)
  (0.0024333 -0.00900015 0)
  (-0.010102 -0.000402112 0)
  (-0.00969253 0.00331296 0)
  (-0.00892912 0.00404903 0)
  (-0.0079085 0.0035982 0)
  (-0.00786827 0.00106057 0)
  (-0.00847254 -0.00985107 0)
  (-0.0179072 -0.0100635 0)
  (-0.0226014 -0.00838202 0)
  (-0.0260868 -0.00699007 0)
  (-0.0286612 -0.00580434 0)
  (-0.0303119 -0.00472786 0)
  (-0.0306341 -0.00364364 0)
  (-0.0291246 -0.0025741 0)
  (-0.0254409 -0.00187329 0)
  (-0.0201898 0.000922294 0)
  (-0.0117422 0.00366216 0)
  (-0.00596431 0.00399594 0)
  (0.0264894 0.00332246 0)
  (0.466058 -0.61451 0)
  (-0.0316967 -0.386777 0)
  (0.138833 -0.204808 0)
  (0.168905 -0.116921 0)
  (0.162735 -0.0747977 0)
  (0.168397 -0.0439995 0)
  (0.176737 -0.0168817 0)
  (0.185176 0.0100517 0)
  (0.188448 0.0383969 0)
  (0.186094 0.0693285 0)
  (0.177614 0.103196 0)
  (0.162669 0.139736 0)
  (0.141662 0.178059 0)
  (0.113303 0.216305 0)
  (0.0877428 0.251755 0)
  (0.0547049 0.234413 0)
  (0.0223365 0.197339 0)
  (-0.0578742 0.0133879 0)
  (-0.0397744 0.00325361 0)
  (-0.0454934 0.00403055 0)
  (-0.0493791 0.00549718 0)
  (-0.0534169 0.00570726 0)
  (-0.0580042 0.00422528 0)
  (-0.063085 0.00125344 0)
  (-0.0663744 -0.00130752 0)
  (-0.0668198 -0.0024329 0)
  (-0.0659636 -0.00340459 0)
  (-0.0639262 -0.00414444 0)
  (-0.0610135 -0.00476597 0)
  (-0.057359 -0.00535401 0)
  (-0.0528812 -0.00598539 0)
  (-0.0472694 -0.00671759 0)
  (-0.0401858 -0.00746171 0)
  (-0.0329298 -0.00756773 0)
  (-0.0250957 -0.00832897 0)
  (-0.0153521 -0.0080269 0)
  (0.0389413 0.00418667 0)
  (0.450289 -0.675085 0)
  (-0.11507 -0.417153 0)
  (0.0836145 -0.214998 0)
  (0.0752584 -0.113768 0)
  (0.0479425 -0.0791501 0)
  (0.0587911 -0.0516547 0)
  (0.0684206 -0.0255235 0)
  (0.0777414 0.0034849 0)
  (0.0819042 0.0363649 0)
  (0.0816877 0.0727985 0)
  (0.0769742 0.112491 0)
  (0.0671837 0.154645 0)
  (0.0523133 0.198051 0)
  (0.030475 0.240848 0)
  (0.0125287 0.280098 0)
  (-0.0121568 0.27127 0)
  (-0.0227475 0.221218 0)
  (-0.0601703 0.0436817 0)
  (-0.0528113 0.0122345 0)
  (-0.0615993 0.00901422 0)
  (-0.0657511 0.00943882 0)
  (-0.0678146 0.00934357 0)
  (-0.0688797 0.00793372 0)
  (-0.0694991 0.00540577 0)
  (-0.0695845 0.00264895 0)
  (-0.0690656 0.00017058 0)
  (-0.0680547 -0.00170665 0)
  (-0.0666192 -0.00310875 0)
  (-0.0648267 -0.00424615 0)
  (-0.0627287 -0.00533963 0)
  (-0.0602882 -0.00664256 0)
  (-0.0573483 -0.00846981 0)
  (-0.0536855 -0.0111457 0)
  (-0.0490197 -0.0147145 0)
  (-0.043024 -0.0189231 0)
  (-0.0332653 -0.0238054 0)
  (-0.0157567 -0.0259362 0)
  (0.0146699 -0.0414673 0)
  (0.0603659 -0.0297979 0)
  (-0.0446462 0.0113108 0)
  (0.398814 -0.688992 0)
  (-0.156452 -0.428739 0)
  (0.0282705 -0.202131 0)
  (-0.00793206 -0.0855631 0)
  (-0.0458061 -0.0805841 0)
  (-0.0311399 -0.0599956 0)
  (-0.0244866 -0.0347776 0)
  (-0.018945 -0.00361104 0)
  (-0.0145674 0.033667 0)
  (-0.0144414 0.0744735 0)
  (-0.0165652 0.118789 0)
  (-0.0219585 0.165711 0)
  (-0.0307237 0.213886 0)
  (-0.0436294 0.260286 0)
  (-0.0510803 0.296506 0)
  (-0.0608514 0.286131 0)
  (-0.05533 0.220407 0)
  (-0.0653656 0.0576612 0)
  (-0.0617346 0.0206717 0)
  (-0.0670231 0.0132054 0)
  (-0.068716 0.0110496 0)
  (-0.0684077 0.00932769 0)
  (-0.0671052 0.0069771 0)
  (-0.0655488 0.00405914 0)
  (-0.064089 0.00114007 0)
  (-0.0627596 -0.00139253 0)
  (-0.0616739 -0.00333879 0)
  (-0.0607751 -0.00478599 0)
  (-0.0600922 -0.0059144 0)
  (-0.0597042 -0.00694611 0)
  (-0.059699 -0.00818451 0)
  (-0.0601165 -0.0100602 0)
  (-0.0608693 -0.013109 0)
  (-0.0616084 -0.0177996 0)
  (-0.0615901 -0.0243899 0)
  (-0.0591005 -0.0333231 0)
  (-0.0511845 -0.0441641 0)
  (-0.0352077 -0.0535845 0)
  (0.00603004 -0.0325964 0)
  (-0.12309 0.0704322 0)
  (0.295864 -0.633983 0)
  (-0.172231 -0.395264 0)
  (-0.0730744 -0.174536 0)
  (-0.0848117 -0.0547547 0)
  (-0.138161 -0.0778241 0)
  (-0.124574 -0.0645415 0)
  (-0.118858 -0.0390768 0)
  (-0.113497 -0.00568553 0)
  (-0.108172 0.0328911 0)
  (-0.105509 0.0753807 0)
  (-0.103331 0.121425 0)
  (-0.102087 0.170287 0)
  (-0.101681 0.220204 0)
  (-0.101801 0.26652 0)
  (-0.0964963 0.297282 0)
  (-0.0900904 0.281478 0)
  (-0.0724094 0.204061 0)
  (-0.0660387 0.0611778 0)
  (-0.0631829 0.0243242 0)
  (-0.064216 0.0142859 0)
  (-0.062631 0.0100716 0)
  (-0.05957 0.00707448 0)
  (-0.0559459 0.00426118 0)
  (-0.0525118 0.00150903 0)
  (-0.0495739 -0.000962247 0)
  (-0.0475914 -0.00293193 0)
  (-0.0463343 -0.00438409 0)
  (-0.0456644 -0.00536559 0)
  (-0.0455668 -0.00595474 0)
  (-0.0461664 -0.0062836 0)
  (-0.0477436 -0.00660432 0)
  (-0.0507139 -0.00736847 0)
  (-0.0555194 -0.0092489 0)
  (-0.0624449 -0.0130135 0)
  (-0.071579 -0.0193054 0)
  (-0.0820734 -0.0283711 0)
  (-0.090155 -0.0389017 0)
  (-0.0908564 -0.0437389 0)
  (-0.0997302 -0.023068 0)
  (-0.185602 0.048223 0)
  (0.139634 -0.495546 0)
  (-0.28991 -0.311843 0)
  (-0.282006 -0.159556 0)
  (-0.184668 -0.028949 0)
  (-0.251315 -0.0892464 0)
  (-0.221131 -0.0772529 0)
  (-0.209323 -0.0482662 0)
  (-0.200896 -0.0116879 0)
  (-0.19261 0.0289355 0)
  (-0.185817 0.071936 0)
  (-0.177632 0.117662 0)
  (-0.16753 0.165759 0)
  (-0.155118 0.214248 0)
  (-0.14008 0.257599 0)
  (-0.120185 0.282684 0)
  (-0.0987943 0.262209 0)
  (-0.0721316 0.180194 0)
  (-0.0561779 0.0582227 0)
  (-0.0531101 0.0231874 0)
  (-0.0505762 0.0116404 0)
  (-0.0455038 0.00600724 0)
  (-0.0392947 0.00231899 0)
  (-0.0331527 -0.000230596 0)
  (-0.0282647 -0.00201518 0)
  (-0.0249794 -0.00329737 0)
  (-0.0228816 -0.00426135 0)
  (-0.0216651 -0.00494757 0)
  (-0.0210787 -0.00530003 0)
  (-0.0209788 -0.00523945 0)
  (-0.0213513 -0.00471143 0)
  (-0.022346 -0.00375198 0)
  (-0.0243338 -0.00258841 0)
  (-0.0279728 -0.00177476 0)
  (-0.0342852 -0.00236644 0)
  (-0.0453189 -0.00615553 0)
  (-0.06208 -0.0150398 0)
  (-0.0825271 -0.0308777 0)
  (-0.101787 -0.0559186 0)
  (-0.138035 -0.0912627 0)
  (-0.31469 -0.140385 0)
  (-0.0975868 -0.348328 0)
  (-0.62189 -0.300423 0)
  (-0.83311 -0.280941 0)
  (-0.231459 -0.150013 0)
  (-0.344734 -0.132064 0)
  (-0.290726 -0.0975372 0)
  (-0.275174 -0.0597355 0)
  (-0.267083 -0.0219089 0)
  (-0.259097 0.0181495 0)
  (-0.248763 0.0607925 0)
  (-0.234005 0.104479 0)
  (-0.213877 0.149275 0)
  (-0.187983 0.193602 0)
  (-0.156745 0.23228 0)
  (-0.121237 0.253011 0)
  (-0.086062 0.231887 0)
  (-0.0509619 0.153959 0)
  (-0.0264946 0.0517664 0)
  (-0.023883 0.0202319 0)
  (-0.0195371 0.00858279 0)
  (-0.0108961 0.0026333 0)
  (-0.00314061 -0.000365914 0)
  (0.00252174 -0.00156786 0)
  (0.00627896 -0.00193217 0)
  (0.00864895 -0.00210169 0)
  (0.0100174 -0.00227884 0)
  (0.0107019 -0.00243489 0)
  (0.0109498 -0.00245351 0)
  (0.0109524 -0.00219954 0)
  (0.0108755 -0.00155014 0)
  (0.0108808 -0.000426367 0)
  (0.0111383 0.00115076 0)
  (0.011843 0.00297558 0)
  (0.0129939 0.00455971 0)
  (0.0149696 0.00518955 0)
  (0.0170747 0.0044553 0)
  (0.0196708 0.0032578 0)
  (0.0248275 -0.00121201 0)
  (0.0405531 -0.0406221 0)
  (-0.193618 -0.144922 0)
  (-1.86851 -0.300374 0)
  (-0.0999251 -0.27394 0)
  (-0.327371 -0.173389 0)
  (-0.309447 -0.107209 0)
  (-0.309507 -0.050941 0)
  (-0.307841 -0.00332822 0)
  (-0.301142 0.0342736 0)
  (-0.288884 0.0636383 0)
  (-0.269034 0.0946962 0)
  (-0.239817 0.127794 0)
  (-0.200953 0.161642 0)
  (-0.153821 0.192051 0)
  (-0.102147 0.20894 0)
  (-0.0521192 0.191862 0)
  (-0.00214506 0.121673 0)
  (0.0317372 0.0464908 0)
  (0.0357992 0.0209463 0)
  (0.0396488 0.00835822 0)
  (0.0438999 0.000179785 0)
  (0.0460932 -0.00264745 0)
  (0.0471024 -0.00284013 0)
  (0.0475302 -0.00225836 0)
  (0.0476682 -0.00171035 0)
  (0.0476008 -0.00136723 0)
  (0.0473557 -0.00113497 0)
  (0.0469664 -0.000863298 0)
  (0.0465088 -0.000433338 0)
  (0.0461248 0.000212435 0)
  (0.0460328 0.00104345 0)
  (0.0465193 0.0018801 0)
  (0.0479034 0.00228508 0)
  (0.0504085 0.00144245 0)
  (0.0541155 -0.00164154 0)
  (0.0587726 -0.00753959 0)
  (0.0641255 -0.0157024 0)
  (0.068298 -0.026051 0)
  (0.0748507 -0.0513671 0)
  (-0.0136915 -0.117123 0)
  (-0.319037 0.0282016 0)
  (-0.00463697 -0.246927 0)
  (-0.226963 -0.185453 0)
  (-0.279109 -0.162865 0)
  (-0.316158 -0.144822 0)
  (-0.33463 -0.122396 0)
  (-0.336106 -0.0899668 0)
  (-0.322446 -0.044935 0)
  (-0.296635 -0.00565829 0)
  (-0.257529 0.0309124 0)
  (-0.205138 0.0661799 0)
  (-0.141533 0.0981024 0)
  (-0.0719233 0.117843 0)
  (0.00634089 0.099687 0)
  (0.0724188 0.0276205 0)
  (0.109215 -0.0373245 0)
  (0.118191 -0.0768872 0)
  (0.115653 -0.0983638 0)
  (0.10872 -0.102714 0)
  (0.101415 -0.0993035 0)
  (0.0955989 -0.093782 0)
  (0.091597 -0.0887202 0)
  (0.0889452 -0.0849329 0)
  (0.0870358 -0.0824165 0)
  (0.0854086 -0.0808758 0)
  (0.0838138 -0.0799656 0)
  (0.0821888 -0.0793878 0)
  (0.0806123 -0.078927 0)
  (0.079252 -0.0784618 0)
  (0.0783038 -0.0779645 0)
  (0.07791 -0.0774981 0)
  (0.0780389 -0.0772109 0)
  (0.0784143 -0.0772813 0)
  (0.078625 -0.0778133 0)
  (0.0785986 -0.0785596 0)
  (0.076971 -0.0781084 0)
  (0.0954825 -0.0832581 0)
  (0.0108535 -0.143799 0)
  (0.504867 0.201686 0)
  (0.225223 -0.164904 0)
  (-0.117892 0.309342 0)
  (-0.00614771 0.152593 0)
  (-0.169215 0.200507 0)
  (-0.238471 0.238845 0)
  (-0.285399 0.255798 0)
  (-0.313645 0.260264 0)
  (-0.324519 0.254057 0)
  (-0.316954 0.23823 0)
  (-0.290067 0.231803 0)
  (-0.244566 0.232112 0)
  (-0.181962 0.23806 0)
  (-0.107009 0.248744 0)
  (-0.0201187 0.260586 0)
  (0.0782736 0.255578 0)
  (0.140008 0.252312 0)
  (0.175334 0.261843 0)
  (0.187065 0.274637 0)
  (0.186217 0.282654 0)
  (0.180552 0.278369 0)
  (0.174348 0.268179 0)
  (0.168205 0.257505 0)
  (0.161956 0.249 0)
  (0.155608 0.243399 0)
  (0.149303 0.240462 0)
  (0.143184 0.239541 0)
  (0.137363 0.239889 0)
  (0.131902 0.24083 0)
  (0.126809 0.241843 0)
  (0.122021 0.242583 0)
  (0.117375 0.242841 0)
  (0.112572 0.242481 0)
  (0.107094 0.24136 0)
  (0.100119 0.239324 0)
  (0.0903812 0.236282 0)
  (0.0758516 0.232138 0)
  (0.0518514 0.225989 0)
  (0.102598 0.221287 0)
  (-0.298836 0.380947 0)
)
;

boundaryField
{
  floor
  {
    type noSlip;
  }
  ceiling
  {
    type noSlip;
  }
  sWall
  {
    type noSlip;
  }
  nWall
  {
    type noSlip;
  }
  sideWalls
  {
    type empty;
  }
  glass1
  {
    type noSlip;
  }
  glass2
  {
    type noSlip;
  }
  sun
  {
    type noSlip;
  }
  heatsource1
  {
    type noSlip;
  }
  heatsource2
  {
    type noSlip;
  }
  Table_master
  {
    type noSlip;
  }
  Table_slave
  {
    type noSlip;
  }
  inlet
  {
    type fixedValue;
    value uniform (0.1 0 0);
  }
  outlet
  {
    type zeroGradient;
  }
} 	// ************************************************************************* //

