/*--------------------------------*- C++ -*----------------------------------*\
  =========                 |
  \\      /  F ield         | OpenFOAM: The Open Source CFD Toolbox
   \\    /   O peration     | Website:  https://openfoam.org
    \\  /    A nd           | Version:  6
     \\/     M anipulation  |
\*---------------------------------------------------------------------------*/
FoamFile
{
    version     2.0;
    format      ascii;
    class       volScalarField;
    location    "300";
    object      epsilon;
}
// * * * * * * * * * * * * * * * * * * * * * * * * * * * * * * * * * * * * * //

dimensions      [0 2 -3 0 0 0 0];

internalField   nonuniform List<scalar> 
459
(
0.000134571
0.000138833
7.56455e-05
7.67136e-05
8.15383e-05
8.70933e-05
9.34632e-05
0.000100518
0.000107804
0.000115094
0.000122002
0.000128052
0.000132988
0.000136741
0.000136762
1.65511e-05
2.13766e-05
2.38607e-05
1.4271e-05
6.97198e-06
4.55472e-06
3.63255e-06
2.67387e-06
2.72935e-06
3.46812e-06
3.75197e-06
4.74283e-06
6.85548e-06
1.09797e-05
1.73854e-05
2.56902e-05
3.16623e-05
3.16701e-05
2.31814e-05
0.000885457
0.00201654
0.000184457
6.4893e-05
5.71494e-05
5.85257e-05
6.19865e-05
6.67472e-05
7.25427e-05
7.95475e-05
8.80001e-05
9.80507e-05
0.0001094
0.000120869
0.000134423
0.000182522
5.90785e-05
5.18315e-05
7.16832e-05
5.58325e-05
3.75682e-05
2.49392e-05
1.58711e-05
6.50421e-06
4.73606e-06
4.25153e-06
5.58381e-06
7.46428e-06
1.14866e-05
1.87922e-05
3.22475e-05
5.12632e-05
6.39893e-05
7.56041e-05
9.66481e-05
5.24583e-05
0.00261724
0.0074018
0.000843835
0.000161352
9.32774e-05
8.09133e-05
7.82728e-05
7.98897e-05
8.39557e-05
9.011e-05
9.84314e-05
0.000109168
0.000122538
0.000138592
0.000158755
0.000190642
0.00025536
0.000231189
0.000221519
9.72027e-05
6.75363e-05
5.42556e-05
4.66554e-05
3.26293e-05
1.48172e-05
7.44799e-06
1.03617e-05
1.67798e-05
2.5744e-05
3.89591e-05
5.95387e-05
9.37297e-05
7.77318e-05
9.63288e-05
0.000113127
9.70799e-05
0.00549378
0.0163763
0.00288756
0.000607431
0.000261929
0.00017388
0.000136772
0.000119304
0.000113243
0.000113205
0.000117149
0.000124414
0.000135103
0.000150205
0.000173498
0.000216075
0.000304458
0.000471473
0.000237283
0.000107691
7.8688e-05
7.12143e-05
7.40127e-05
8.6531e-05
0.000120374
0.000125165
0.000130771
0.000135971
0.000140863
0.000146159
0.000153184
0.000161934
0.000180589
0.00014912
0.000184714
0.000297847
0.000382245
0.00930714
0.0271568
0.00723653
0.00215353
0.000963542
0.000541872
0.000340478
0.000237018
0.000185851
0.000163716
0.000154889
0.000153384
0.000156298
0.00016089
0.000164313
0.000164064
0.000158929
0.000142927
0.000103535
7.97831e-05
6.98333e-05
6.73283e-05
6.93053e-05
7.45424e-05
8.25045e-05
9.1115e-05
0.00010169
0.000114646
0.00013058
0.000150816
0.000177915
0.000214411
0.000267107
0.000336508
0.000432352
0.000523138
0.000608096
0.000989182
0.000717406
0.000483735
0.0138214
0.0354069
0.0146814
0.00606313
0.00319466
0.00178328
0.0010033
0.000587398
0.000385228
0.00027823
0.000229109
0.000205968
0.000197411
0.000195308
0.000194042
0.000187982
0.000172676
0.000148565
0.000122476
0.000102468
8.981e-05
8.38154e-05
8.31084e-05
8.68091e-05
9.45089e-05
0.000106293
0.000122925
0.000145249
0.00017478
0.000214601
0.000270202
0.000349522
0.000461925
0.000613467
0.000805236
0.00102499
0.00113513
0.00102525
0.000655536
0.00059641
0.0177789
0.0357144
0.0242262
0.0145504
0.00839454
0.0047206
0.00265602
0.00152085
0.000901543
0.000568171
0.000382083
0.000294555
0.000257296
0.000239835
0.000231371
0.000223022
0.000208203
0.00018601
0.000161141
0.000138549
0.000121056
0.000109812
0.000104832
0.000106016
0.000113635
0.000128677
0.000152587
0.000186909
0.000233491
0.000295546
0.000378878
0.000491419
0.000638987
0.000817108
0.00100251
0.00114315
0.00115736
0.00102685
0.00076219
0.000547391
0.0169877
0.0326854
0.0388236
0.0273224
0.0168327
0.00953569
0.00529397
0.00295876
0.00169804
0.00102216
0.000659917
0.00045896
0.000349097
0.000293329
0.000266283
0.00025133
0.000237152
0.000218531
0.000196487
0.00017416
0.000154469
0.000139508
0.000130499
0.000128414
0.000134653
0.00015162
0.000182578
0.000231204
0.000300142
0.000389311
0.000494194
0.000604795
0.000709914
0.000804613
0.000891452
0.000981852
0.00109718
0.00121933
0.00131484
0.000928569
0.0143086
0.0212169
0.116411
0.0727276
0.0351821
0.0167285
0.00826095
0.00430189
0.00238381
0.00141138
0.000894952
0.000608885
0.000444177
0.000347262
0.000292421
0.000262544
0.000244326
0.000228954
0.000212624
0.000195139
0.000178029
0.000163221
0.000152398
0.000147116
0.000149513
0.000162727
0.00019061
0.00023857
0.000312323
0.000413642
0.000543853
0.000702533
0.000889703
0.00111192
0.00137095
0.00161788
0.00175842
0.00202452
0.00282873
0.00139027
0.333724
0.182864
0.0373609
0.0122433
0.00626832
0.00356072
0.00214929
0.00136779
0.00091572
0.000643888
0.000474774
0.000367039
0.00029772
0.000254044
0.000227262
0.000210428
0.000198308
0.000187788
0.000177743
0.000168425
0.0001608
0.000156181
0.000156294
0.000163453
0.00018081
0.00021267
0.000264199
0.000340123
0.000442103
0.000563302
0.000693201
0.00082208
0.000939194
0.00102706
0.00103869
0.000947375
0.00151643
0.00134017
0.206894
0.0738606
0.0159693
0.00598335
0.00362081
0.00235131
0.00158301
0.00110164
0.000792958
0.000590166
0.000453498
0.000359215
0.000293219
0.000246961
0.000214919
0.000193241
0.000178841
0.00016927
0.000162717
0.00015806
0.000154858
0.000153287
0.000154122
0.000158851
0.00016998
0.000191302
0.000227419
0.000283478
0.000360734
0.00045133
0.000540483
0.000612578
0.000654387
0.000654439
0.000608992
0.000576956
0.00107263
0.000918753
0.0191849
0.037496
0.0839803
0.0288688
0.00842985
0.00241421
0.00236735
0.001841
0.0014017
0.0010754
0.000837497
0.000663098
0.000533754
0.000436684
0.000363133
0.000307239
0.000264797
0.000233208
0.000209962
0.000193043
0.00018081
0.000171938
0.00016546
0.000160834
0.000158007
0.0001575
0.000160571
0.000169381
0.000187368
0.000224758
0.000287476
0.000374099
0.000469935
0.000551695
0.000598332
0.000596535
0.000561356
0.000515795
0.000508347
0.000425804
)
;

boundaryField
{
    floor
    {
        Cmu             0.09;
        kappa           0.41;
        E               9.8;
        type            epsilonWallFunction;
        value           nonuniform List<scalar> 
29
(
0.000136762
1.65511e-05
2.13766e-05
2.38607e-05
1.4271e-05
6.97198e-06
4.55472e-06
3.63255e-06
2.67387e-06
2.72935e-06
3.46812e-06
3.75197e-06
4.74283e-06
6.85548e-06
1.09797e-05
1.73854e-05
2.56902e-05
3.16623e-05
3.16701e-05
2.31814e-05
2.31814e-05
5.24583e-05
9.70799e-05
0.000382245
0.000136762
1.65511e-05
5.18315e-05
0.000231189
0.000471473
)
;
    }
    ceiling
    {
        Cmu             0.09;
        kappa           0.41;
        E               9.8;
        type            epsilonWallFunction;
        value           nonuniform List<scalar> 
43
(
0.0191849
0.037496
0.0839803
0.0288688
0.00842985
0.00241421
0.00236735
0.001841
0.0014017
0.0010754
0.000837497
0.000663098
0.000533754
0.000436684
0.000363133
0.000307239
0.000264797
0.000233208
0.000209962
0.000193043
0.00018081
0.000171938
0.00016546
0.000160834
0.000158007
0.0001575
0.000160571
0.000169381
0.000187368
0.000224758
0.000287476
0.000374099
0.000469935
0.000551695
0.000598332
0.000596535
0.000561356
0.000515795
0.000508347
0.000425804
0.0143086
0.0212169
0.206894
)
;
    }
    sWall
    {
        Cmu             0.09;
        kappa           0.41;
        E               9.8;
        type            epsilonWallFunction;
        value           uniform 0.0191849;
    }
    nWall
    {
        Cmu             0.09;
        kappa           0.41;
        E               9.8;
        type            epsilonWallFunction;
        value           nonuniform List<scalar> 6(0.000483735 0.00059641 0.000547391 0.00134017 0.000918753 0.000425804);
    }
    sideWalls
    {
        type            empty;
    }
    glass1
    {
        Cmu             0.09;
        kappa           0.41;
        E               9.8;
        type            epsilonWallFunction;
        value           nonuniform List<scalar> 9(0.000134571 0.000885457 0.00261724 0.00549378 0.00930714 0.0138214 0.0177789 0.0169877 0.0143086);
    }
    glass2
    {
        Cmu             0.09;
        kappa           0.41;
        E               9.8;
        type            epsilonWallFunction;
        value           nonuniform List<scalar> 2(0.000928569 0.00139027);
    }
    sun
    {
        Cmu             0.09;
        kappa           0.41;
        E               9.8;
        type            epsilonWallFunction;
        value           nonuniform List<scalar> 
14
(
0.000134571
0.000138833
7.56455e-05
7.67136e-05
8.15383e-05
8.70933e-05
9.34632e-05
0.000100518
0.000107804
0.000115094
0.000122002
0.000128052
0.000132988
0.000136741
)
;
    }
    heatsource1
    {
        Cmu             0.09;
        kappa           0.41;
        E               9.8;
        type            epsilonWallFunction;
        value           nonuniform List<scalar> 3(0.000989182 0.000717406 0.000483735);
    }
    heatsource2
    {
        Cmu             0.09;
        kappa           0.41;
        E               9.8;
        type            epsilonWallFunction;
        value           nonuniform List<scalar> 4(0.000182522 5.90785e-05 5.90785e-05 0.00025536);
    }
    Table_master
    {
        Cmu             0.09;
        kappa           0.41;
        E               9.8;
        type            epsilonWallFunction;
        value           nonuniform List<scalar> 9(3.26293e-05 1.48172e-05 7.44799e-06 1.03617e-05 1.67798e-05 2.5744e-05 3.89591e-05 5.95387e-05 9.37297e-05);
    }
    Table_slave
    {
        Cmu             0.09;
        kappa           0.41;
        E               9.8;
        type            epsilonWallFunction;
        value           nonuniform List<scalar> 9(0.000120374 0.000125165 0.000130771 0.000135971 0.000140863 0.000146159 0.000153184 0.000161934 0.000180589);
    }
    inlet
    {
        type            turbulentMixingLengthDissipationRateInlet;
        mixingLength    0.01;
        phi             phi;
        k               k;
        value           uniform 3.77336e-06;
    }
    outlet
    {
        type            zeroGradient;
    }
}


// ************************************************************************* //
