// -*- C++ -*-
// File generated by PyFoam - sorry for the ugliness

FoamFile
{
 version 2.0;
 format ascii;
 class volScalarField;
 location "100";
 object T;
}

dimensions [ 0 0 0 1 0 0 0 ];

internalField nonuniform List<scalar> 459
(
  303.415
  303.464
  303.526
  303.57
  303.594
  303.607
  303.617
  303.625
  303.633
  303.639
  303.645
  303.649
  303.651
  303.65
  303.637
  304.403
  304.33
  304.285
  304.284
  304.316
  304.346
  304.37
  304.393
  304.416
  304.44
  304.464
  304.488
  304.511
  304.535
  304.558
  304.582
  304.607
  304.639
  304.686
  303.442
  303.56
  303.684
  303.776
  303.825
  303.848
  303.858
  303.862
  303.86
  303.853
  303.841
  303.822
  303.795
  303.758
  303.706
  303.71
  303.716
  304.415
  304.302
  304.232
  304.254
  304.303
  304.35
  304.381
  304.41
  304.44
  304.472
  304.504
  304.537
  304.57
  304.602
  304.63
  304.652
  304.669
  304.685
  304.735
  303.436
  303.612
  303.831
  304.018
  304.108
  304.137
  304.139
  304.122
  304.095
  304.061
  304.021
  303.976
  303.925
  303.865
  303.798
  303.765
  303.745
  304.305
  304.113
  304.147
  304.226
  304.314
  304.386
  304.403
  304.427
  304.455
  304.488
  304.525
  304.565
  304.606
  304.646
  304.679
  304.704
  304.718
  304.725
  304.764
  303.414
  303.627
  303.976
  304.339
  304.469
  304.48
  304.437
  304.373
  304.307
  304.242
  304.177
  304.111
  304.041
  303.967
  303.888
  303.831
  303.788
  303.801
  303.881
  303.985
  304.129
  304.28
  304.413
  304.514
  304.593
  304.655
  304.71
  304.764
  304.817
  304.869
  304.922
  304.978
  305.033
  304.917
  304.838
  304.791
  304.8
  303.379
  303.609
  304.069
  304.675
  304.798
  304.752
  304.659
  304.566
  304.482
  304.403
  304.325
  304.246
  304.165
  304.082
  303.998
  303.935
  303.893
  303.919
  304.019
  304.171
  304.344
  304.509
  304.647
  304.755
  304.845
  304.914
  304.972
  305.018
  305.057
  305.091
  305.12
  305.145
  305.156
  305.067
  304.953
  304.875
  304.842
  304.867
  305.019
  305.887
  303.316
  303.538
  304.056
  304.825
  304.992
  304.945
  304.853
  304.763
  304.678
  304.595
  304.513
  304.425
  304.339
  304.256
  304.18
  304.13
  304.121
  304.2
  304.349
  304.519
  304.687
  304.834
  304.951
  305.038
  305.106
  305.158
  305.194
  305.222
  305.244
  305.26
  305.271
  305.275
  305.26
  305.175
  305.062
  304.987
  304.914
  304.924
  305.173
  305.689
  303.201
  303.347
  303.846
  304.882
  305.172
  305.16
  305.082
  305
  304.922
  304.845
  304.768
  304.69
  304.612
  304.539
  304.487
  304.472
  304.512
  304.628
  304.778
  304.929
  305.065
  305.177
  305.26
  305.317
  305.356
  305.375
  305.387
  305.395
  305.4
  305.4
  305.394
  305.378
  305.343
  305.269
  305.175
  305.096
  304.983
  304.988
  305.235
  305.593
  303.025
  303.027
  303.385
  304.825
  305.341
  305.403
  305.36
  305.295
  305.228
  305.161
  305.098
  305.036
  304.98
  304.934
  304.91
  304.926
  304.992
  305.104
  305.22
  305.328
  305.42
  305.491
  305.536
  305.558
  305.561
  305.556
  305.55
  305.542
  305.533
  305.52
  305.501
  305.473
  305.432
  305.372
  305.302
  305.228
  305.074
  305.065
  305.249
  305.584
  302.803
  302.611
  302.57
  304.611
  305.471
  305.625
  305.627
  305.594
  305.553
  305.51
  305.466
  305.425
  305.39
  305.37
  305.37
  305.399
  305.457
  305.535
  305.606
  305.668
  305.715
  305.744
  305.753
  305.746
  305.732
  305.715
  305.697
  305.68
  305.661
  305.64
  305.616
  305.587
  305.553
  305.512
  305.463
  305.397
  305.249
  305.198
  305.317
  305.603
  301.759
  304.31
  305.604
  305.812
  305.839
  305.829
  305.81
  305.79
  305.771
  305.756
  305.747
  305.745
  305.756
  305.782
  305.819
  305.86
  305.895
  305.918
  305.929
  305.927
  305.915
  305.897
  305.875
  305.853
  305.831
  305.808
  305.786
  305.762
  305.738
  305.712
  305.683
  305.65
  305.607
  305.548
  305.458
  305.395
  305.458
  305.601
  305.486
  305.71
  305.907
  305.975
  305.99
  305.989
  305.984
  305.979
  305.977
  305.977
  305.981
  305.99
  306.003
  306.02
  306.038
  306.054
  306.063
  306.064
  306.057
  306.043
  306.024
  306.003
  305.98
  305.956
  305.932
  305.908
  305.885
  305.86
  305.835
  305.808
  305.779
  305.745
  305.704
  305.655
  305.603
  305.567
  305.597
  305.645
  307.094
  306.879
  306.043
  305.987
  306.059
  306.094
  306.11
  306.119
  306.128
  306.136
  306.144
  306.153
  306.161
  306.168
  306.174
  306.179
  306.181
  306.178
  306.171
  306.159
  306.143
  306.124
  306.103
  306.081
  306.058
  306.035
  306.012
  305.989
  305.965
  305.941
  305.916
  305.889
  305.86
  305.829
  305.795
  305.761
  305.731
  305.712
  305.723
  305.743
)
;

boundaryField
{
  floor
  {
    type wallHeatTransfer;
    Tinf uniform 297.948;
    alphaWall uniform 0.24;
    value nonuniform List<scalar> 29
(
  302.994
  303.448
  303.532
  303.546
  303.577
  303.598
  303.606
  303.591
  303.57
  303.55
  303.532
  303.515
  303.501
  303.487
  303.475
  303.463
  303.45
  303.432
  303.392
  303.376
  303.376
  303.573
  303.684
  303.81
  302.994
  303.448
  303.665
  303.606
  303.087
)
;
  }
  ceiling
  {
    type wallHeatTransfer;
    Tinf uniform 297.948;
    alphaWall uniform 0.24;
    value nonuniform List<scalar> 43
(
  306.177
  305.933
  305.448
  305.453
  305.537
  305.578
  305.598
  305.61
  305.621
  305.63
  305.639
  305.647
  305.655
  305.663
  305.669
  305.674
  305.675
  305.672
  305.663
  305.649
  305.631
  305.61
  305.587
  305.564
  305.54
  305.517
  305.495
  305.473
  305.452
  305.431
  305.411
  305.389
  305.366
  305.338
  305.305
  305.27
  305.247
  305.246
  305.269
  305.253
  302.417
  302.248
  305.083
)
;
  }
  sWall
  {
    type wallHeatTransfer;
    Tinf uniform 300.167;
    alphaWall uniform 0.36;
    value uniform 306.102;
  }
  nWall
  {
    type wallHeatTransfer;
    Tinf uniform 299.15;
    alphaWall uniform 0.36;
    value nonuniform List<scalar> 6
(
  304.958
  304.962
  305.032
  305.158
  305.132
  305.14
)
;
  }
  sideWalls
  {
    type empty;
  }
  glass1
  {
    type wallHeatTransfer;
    Tinf uniform 300.167;
    alphaWall uniform 4.3;
    value nonuniform List<scalar> 9
(
  301.47
  301.574
  301.589
  301.567
  301.545
  301.507
  301.442
  301.344
  301.204
)
;
  }
  glass2
  {
    type wallHeatTransfer;
    Tinf uniform 299.15;
    alphaWall uniform 4.3;
    value nonuniform List<scalar> 2
(
  302.633
  302.808
)
;
  }
  sun
  {
    type wallHeatTransfer;
    Tinf uniform 297.948;
    alphaWall uniform 0.24;
    value nonuniform List<scalar> 14
(
  302.993
  303.1
  303.157
  303.183
  303.188
  303.181
  303.172
  303.161
  303.15
  303.138
  303.123
  303.105
  303.082
  303.048
)
;
  }
  heatsource1
  {
    type fixedGradient;
    gradient uniform 0;
  }
  heatsource2
  {
    type fixedGradient;
    gradient uniform 0;
  }
  Table_master
  {
    type zeroGradient;
  }
  Table_slave
  {
    type zeroGradient;
  }
  inlet
  {
    type fixedValue;
    value uniform 300.15;
  }
  outlet
  {
    type zeroGradient;
  }
} 	// ************************************************************************* //

