/*--------------------------------*- C++ -*----------------------------------*\
  =========                 |
  \\      /  F ield         | OpenFOAM: The Open Source CFD Toolbox
   \\    /   O peration     | Website:  https://openfoam.org
    \\  /    A nd           | Version:  6
     \\/     M anipulation  |
\*---------------------------------------------------------------------------*/
FoamFile
{
    version     2.0;
    format      ascii;
    class       surfaceScalarField;
    location    "1600";
    object      phi;
}
// * * * * * * * * * * * * * * * * * * * * * * * * * * * * * * * * * * * * * //

dimensions      [1 0 -1 0 0 0 0];

internalField   nonuniform List<scalar> 
852
(
-0.00293626
0.00299252
-0.00397379
0.00103753
-0.00476262
0.000788833
-0.00537995
0.000617331
-0.00579665
0.000416701
-0.00599012
0.000193467
-0.00593847
-5.16492e-05
-0.00562402
-0.000314446
-0.0050588
-0.000565226
-0.00429434
-0.000764453
-0.00341109
-0.000883251
-0.00249776
-0.000913331
-0.00162911
-0.000868649
-0.000827179
-0.000801933
-0.000825739
-0.000674967
0.000677653
-0.000344396
-0.000330571
0.000263007
-0.000607402
0.000735033
-0.000472026
0.00104739
-0.000312358
0.00124087
-0.000193482
0.00134591
-0.00010504
0.001398
-5.20855e-05
0.00142722
-2.92236e-05
0.00144524
-1.80139e-05
0.00145526
-1.00269e-05
0.00145824
-2.97248e-06
0.00145256
5.68035e-06
0.00142968
2.28789e-05
0.00136715
6.25276e-05
0.00122718
0.000139965
0.000995276
0.000231908
0.000705669
0.000289607
0.000709281
-0.00209467
0.00523868
-0.00309924
0.0020421
-0.00390496
0.00159455
-0.00450902
0.00122139
-0.00491576
0.000823443
-0.00511165
0.000389354
-0.00507143
-9.18697e-05
-0.00478042
-0.000605451
-0.00426169
-0.00108396
-0.00357634
-0.0014498
-0.00280644
-0.00165315
-0.00203256
-0.00168721
-0.00132703
-0.00157418
-0.00077836
-0.00135061
-0.000575325
-0.00102877
-7.92995e-05
-0.000496076
-7.93507e-05
0.000380211
0.000305088
0.000803653
-0.000754013
0.00105126
-0.000855007
0.00125887
-0.000679637
0.00141292
-0.000466409
0.00150265
-0.000283209
0.00151634
-0.000118738
0.00152007
-5.58147e-05
0.00152464
-3.379e-05
0.00152839
-2.17596e-05
0.00153096
-1.26024e-05
0.00153227
-4.28222e-06
0.0015314
6.55211e-06
0.00152478
2.95018e-05
0.00148369
0.000103614
0.00130918
0.000314479
0.00100748
0.000533603
0.000627111
0.000669977
0.0013457
-0.00146601
0.00693637
-0.00232882
0.00290492
-0.00303723
0.00230296
-0.00354848
0.00173264
-0.00389842
0.00117339
-0.00406915
0.000560084
-0.004016
-0.000145028
-0.00371657
-0.000904874
-0.00321553
-0.00158501
-0.00258854
-0.00207679
-0.00191733
-0.00232435
-0.00126619
-0.00233835
-0.000686003
-0.00215437
-0.0002285
-0.00180811
7.61222e-05
-0.0013334
0.00027744
-0.000697394
0.000198089
0.0014831
-0.00117
0.00169697
-0.000967888
0.00167605
-0.000834085
0.00167633
-0.00067992
0.00169759
-0.00048767
0.00170778
-0.000293399
0.0015892
0.00153354
0.0014999
0.00147829
0.00146584
0.00146171
0.00146842
0.00149807
0.00160184
0.00132173
0.000594587
0.000981195
0.000874141
0.000548265
0.00110291
0.00190816
-0.00102395
0.00826028
-0.00170565
0.00358662
-0.00216668
0.00276399
-0.00249379
0.00205975
-0.00271745
0.00139705
-0.00280567
0.000648308
-0.00268371
-0.000266995
-0.00233872
-0.00124986
-0.00185396
-0.00206977
-0.00131276
-0.00261799
-0.000782384
-0.00285473
-0.000298583
-0.00282215
0.000120754
-0.0025737
0.000470401
-0.00215776
0.000777327
-0.00164032
0.00114588
-0.00106595
0.00190442
-0.000560455
0.00244069
-0.00052899
0.00203906
-0.000768369
0.00191283
-0.000841656
0.00180377
-0.000725027
0.00171108
-0.000587237
0.00166127
-0.000437856
0.00164259
-0.000274716
0.00175541
-0.000112978
0.00182723
-7.19739e-05
0.00188555
-5.84716e-05
0.00193077
-4.53684e-05
0.00194899
-1.83702e-05
0.00191903
2.98016e-05
0.00181593
0.000102943
0.00160762
0.000208161
0.00124012
0.000367352
0.00110945
0.000725257
0.00082337
0.00116022
0.000386067
0.00154021
0.00231284
-0.000718102
0.00933631
-0.00123455
0.00410307
-0.00132094
0.00285037
-0.00137236
0.00211117
-0.00139333
0.00141802
-0.00130442
0.000559394
-0.00102476
-0.000546651
-0.000616122
-0.0016585
-0.00018417
-0.00250172
0.000204591
-0.00300675
0.000523265
-0.0031734
0.000769163
-0.00306805
0.000955124
-0.00275966
0.0011094
-0.00231204
0.00126257
-0.00179349
0.00146615
-0.00126952
0.00175027
-0.000844583
0.00188813
-0.000666848
0.00179119
-0.000671427
0.00161716
-0.000667627
0.00147119
-0.000579051
0.00135235
-0.000468398
0.00127137
-0.000356884
0.00124128
-0.000244617
0.0012827
-0.000154406
0.00133011
-0.000119379
0.00138247
-0.000110828
0.00143647
-9.93767e-05
0.00148161
-6.35104e-05
0.00149834
1.30765e-05
0.00146604
0.00013524
0.00137278
0.000301426
0.00121924
0.000520892
0.00108523
0.00085926
0.000941664
0.00130379
0.00062289
0.00185898
0.000552178
0.00238355
-0.000966114
0.00151809
-0.00142945
0.000463135
-0.00138247
-0.000626896
0.01037
-0.000980585
0.00445676
-0.00055321
0.002423
-0.000187194
0.00174516
9.46382e-05
0.00113619
0.000484391
0.000169642
0.000982895
-0.00104516
0.00140377
-0.00207938
0.00168991
-0.00278785
0.00183709
-0.00315393
0.00187477
-0.00321109
0.00183136
-0.00302463
0.00173699
-0.0026653
0.0016278
-0.00220284
0.00153688
-0.00170257
0.00148993
-0.00122257
0.0014811
-0.000835756
0.00142684
-0.000612589
0.00128319
-0.000527782
0.00109351
-0.000477947
0.000926918
-0.000412455
0.000800165
-0.000341644
0.000719088
-0.000275807
0.000691269
-0.000216798
0.000713618
-0.000176755
0.000761774
-0.000167536
0.000825189
-0.000174243
0.000899272
-0.00017346
0.000978475
-0.000142713
0.00105086
-5.93039e-05
0.00109879
8.73104e-05
0.0011179
0.000282314
0.00111631
0.000522478
0.00114117
0.0008344
0.00124022
0.00120474
0.00142681
0.00167239
0.00186991
0.00194045
0.0021321
0.0012559
0.00174334
0.000851901
0.000417428
-0.0006817
0.0115028
-0.000560743
0.0043358
0.00057599
0.00128627
0.00137227
0.000948873
0.0020581
0.000450354
0.00275978
-0.000532034
0.00330391
-0.00158929
0.00359091
-0.00236638
0.00362552
-0.00282247
0.00345321
-0.00298161
0.003136
-0.00289388
0.00273502
-0.00262364
0.00230346
-0.00223375
0.00188806
-0.00178744
0.00152433
-0.00133883
0.00122843
-0.000926676
0.000998935
-0.000606259
0.000800684
-0.000414338
0.000601024
-0.000328121
0.000411201
-0.000288125
0.000256214
-0.000257467
0.000145732
-0.000231162
8.08166e-05
-0.000210891
6.18397e-05
-0.000197821
8.20497e-05
-0.000196965
0.000126469
-0.000211955
0.000185906
-0.00023368
0.000259287
-0.000246841
0.000350748
-0.000234174
0.000465169
-0.000173725
0.000590354
-3.78744e-05
0.000715776
0.000156891
0.000852329
0.000385925
0.0010378
0.000648929
0.0013204
0.000922138
0.00176193
0.00123086
0.00242892
0.00127346
0.0029707
0.000714119
0.0029918
0.000830802
0.00347029
0.00259573
0.00941176
0.00330042
0.00363112
0.00370332
0.000883366
0.00439433
0.00025786
0.00521043
-0.000365751
0.00583978
-0.00116138
0.00606082
-0.00181033
0.00590261
-0.00220817
0.00544198
-0.00236183
0.00477106
-0.0023107
0.00398519
-0.00210801
0.00316835
-0.0018068
0.00238202
-0.00144742
0.00167526
-0.00108069
0.00108093
-0.000744501
0.000605474
-0.000451219
0.000254287
-0.000255071
-1.11169e-06
-0.000158939
-0.000197292
-0.000131941
-0.000350975
-0.000134442
-0.000466935
-0.000141507
-0.000547557
-0.000150541
-0.000596415
-0.000162033
-0.000617198
-0.000177039
-0.000616657
-0.000197506
-0.000604668
-0.000223943
-0.000587123
-0.000251225
-0.000563138
-0.000270826
-0.000524389
-0.000272923
-0.000452187
-0.000245927
-0.000317509
-0.000172553
-0.000136062
-2.45551e-05
7.7334e-05
0.000172529
0.000346181
0.000380082
0.000681665
0.000586653
0.00112407
0.000788455
0.00161024
0.000787294
0.00181678
0.00050758
0.00108056
0.00156702
0.00480015
0.00996534
0.0135884
0.0124579
0.00201384
0.0117515
0.00096431
0.0110957
0.000290006
0.0102151
-0.000280783
0.00906972
-0.000664911
0.00776413
-0.000902578
0.00639243
-0.000990131
0.0050281
-0.00094637
0.00373816
-0.000818071
0.00257531
-0.000643949
0.00156046
-0.000432566
0.000718281
-0.000238514
5.55728e-05
-8.17923e-05
-0.000411619
1.59728e-05
-0.000700364
3.36737e-05
-0.000879161
1.98571e-05
-0.0010055
-5.60315e-06
-0.00110666
-3.32823e-05
-0.00118902
-5.91407e-05
-0.00125533
-8.42315e-05
-0.00130935
-0.000108019
-0.00135549
-0.000130898
-0.00140032
-0.000152678
-0.00145205
-0.000172214
-0.00151829
-0.000184982
-0.00160618
-0.000182933
-0.00172429
-0.000154819
-0.0018828
-8.74137e-05
-0.00208718
3.18252e-05
-0.00232456
0.000212829
-0.00262163
0.000469603
-0.00306022
0.000818668
-0.00373178
0.00125822
-0.00470293
0.0017596
-0.0060902
0.00217456
-0.00777481
0.00219218
-0.00730235
0.00109457
-0.00222634
0.00467889
0.00351241
0.0037918
0.0018514
0.00417354
-9.17287e-05
0.00418018
-0.000287429
0.00377632
-0.000261052
0.00314548
-0.000271737
0.00239426
-0.000238905
0.00159054
-0.000142655
0.000776459
-3.988e-06
4.3173e-06
0.000128193
-0.000634965
0.000206716
-0.00108664
0.000213156
-0.00137349
0.000205062
-0.00153706
0.00017954
-0.00163978
0.0001364
-0.00171332
9.33961e-05
-0.0017744
5.54763e-05
-0.00183177
2.4088e-05
-0.00189031
-6.05406e-07
-0.00195183
-2.27044e-05
-0.00201718
-4.26718e-05
-0.00208829
-5.97899e-05
-0.00216839
-7.25731e-05
-0.00225993
-8.06782e-05
-0.00236381
-8.11062e-05
-0.00247898
-6.77619e-05
-0.0026015
-3.22974e-05
-0.00272361
3.46951e-05
-0.00283326
0.000141477
-0.00292731
0.000306876
-0.00301351
0.000555808
-0.00309735
0.000902503
-0.00317454
0.00133541
-0.00319981
0.00178488
-0.00312067
0.00209542
-0.00275746
0.00182898
-0.00149684
-0.000166053
-0.00365119
-0.000539465
0.0041166
0.00029705
0.00101488
-8.15023e-05
0.000286824
-0.000455396
8.64643e-05
-0.000785597
6.91487e-05
-0.00114632
8.89882e-05
-0.00151296
0.000127733
-0.00183257
0.000176957
-0.00205841
0.000221854
-0.00218428
0.000254063
-0.00224091
0.000263349
-0.00226592
0.000238164
-0.00226414
0.000203282
-0.00225206
0.000167457
-0.00224851
0.000132848
-0.00225832
0.000103211
-0.00228137
7.85201e-05
-0.00231542
5.81418e-05
-0.00235725
4.12213e-05
-0.00240789
2.79355e-05
-0.00246624
1.56843e-05
-0.00253019
4.15593e-06
-0.00259704
-5.72494e-06
-0.00266459
-1.31243e-05
-0.00272924
-1.64608e-05
-0.00278428
-1.27166e-05
-0.00281893
2.34567e-06
-0.00282296
3.87331e-05
-0.00278615
0.000104668
-0.00268688
0.000207605
-0.00249398
0.000362904
-0.0021808
0.000589326
-0.00172827
0.000882878
-0.00110844
0.00116505
-0.000150261
0.00113724
0.00114241
0.000536304
0.00157812
-0.000601757
-0.00199422
-0.00723141
-0.0101327
-0.00597332
-0.00493849
-0.00464049
-0.00454711
-0.00447367
-0.00438236
-0.00425392
-0.00407761
-0.00385763
-0.00360658
-0.00334736
-0.00311437
-0.00291716
-0.00275649
-0.00263099
-0.00253555
-0.00246514
-0.00241535
-0.00238268
-0.00236343
-0.00235651
-0.00236115
-0.00237565
-0.00239747
-0.00242251
-0.00244364
-0.0024495
-0.00241873
-0.00232174
-0.00212153
-0.00176573
-0.00118324
-0.000306933
0.00085175
0.00198259
0.00251227
0.00190349
)
;

boundaryField
{
    floor
    {
        type            calculated;
        value           nonuniform List<scalar> 
29
(
0
0
0
0
0
0
0
0
0
0
0
0
0
0
0
0
0
0
0
0
-3.61235e-06
-9.30684e-06
-1.41936e-05
-1.86161e-05
-1.43978e-06
-2.68656e-06
-7.6463e-06
-8.01267e-06
-7.27216e-06
)
;
    }
    ceiling
    {
        type            calculated;
        value           nonuniform List<scalar> 
43
(
-4.54151e-05
-4.40966e-05
-4.27892e-05
-1.99487e-05
-1.11699e-05
-6.91708e-06
-4.29701e-06
-2.31822e-06
-7.12343e-07
6.51427e-07
1.87019e-06
3.01467e-06
4.1316e-06
5.17418e-06
6.06962e-06
6.78882e-06
7.34696e-06
7.77552e-06
8.10527e-06
8.35669e-06
8.54964e-06
8.68185e-06
8.76501e-06
8.796e-06
8.77125e-06
8.69685e-06
8.57754e-06
8.41467e-06
8.20872e-06
7.95901e-06
7.68365e-06
7.39476e-06
7.10518e-06
6.82886e-06
6.5763e-06
6.36687e-06
6.39236e-06
6.62958e-06
7.02133e-06
8.24953e-06
1.10876e-05
8.03844e-06
-6.47306e-05
)
;
    }
    sWall
    {
        type            calculated;
        value           uniform -0.000274897;
    }
    nWall
    {
        type            calculated;
        value           nonuniform List<scalar> 6(-4.7187e-05 -5.65616e-05 -6.10668e-05 -7.19879e-05 -7.88481e-05 -9.89842e-05);
    }
    sideWalls
    {
        type            empty;
        value           nonuniform 0();
    }
    glass1
    {
        type            calculated;
        value           nonuniform List<scalar> 9(-5.62614e-05 -0.000151492 -0.000231684 -0.00029996 -0.000357928 -0.000406817 -0.000451073 -0.000504693 -0.000564675);
    }
    glass2
    {
        type            calculated;
        value           nonuniform List<scalar> 2(-0.000249304 -0.000275858);
    }
    sun
    {
        type            calculated;
        value           uniform 0;
    }
    heatsource1
    {
        type            calculated;
        value           nonuniform List<scalar> 3(2.03964e-07 2.03919e-07 2.03937e-07);
    }
    heatsource2
    {
        type            calculated;
        value           nonuniform List<scalar> 4(5.10989e-08 5.12211e-08 0 0);
    }
    Table_master
    {
        type            calculated;
        value           nonuniform List<scalar> 9(-1.52972e-07 -1.53053e-07 -1.53082e-07 -1.53102e-07 -1.53116e-07 -1.53125e-07 -1.53129e-07 -1.53122e-07 -1.5309e-07);
    }
    Table_slave
    {
        type            calculated;
        value           nonuniform List<scalar> 9(1.52849e-07 1.52874e-07 1.52858e-07 1.52844e-07 1.52839e-07 1.52842e-07 1.52858e-07 1.529e-07 1.5298e-07);
    }
    inlet
    {
        type            calculated;
        value           uniform -0.00617745;
    }
    outlet
    {
        type            calculated;
        value           nonuniform List<scalar> 2(0.00755172 0.0029454);
    }
}


// ************************************************************************* //
