/*--------------------------------*- C++ -*----------------------------------*\
  =========                 |
  \\      /  F ield         | OpenFOAM: The Open Source CFD Toolbox
   \\    /   O peration     | Website:  https://openfoam.org
    \\  /    A nd           | Version:  6
     \\/     M anipulation  |
\*---------------------------------------------------------------------------*/
FoamFile
{
    version     2.0;
    format      ascii;
    class       volScalarField;
    location    "130";
    object      epsilon;
}
// * * * * * * * * * * * * * * * * * * * * * * * * * * * * * * * * * * * * * //

dimensions      [0 2 -3 0 0 0 0];

internalField   nonuniform List<scalar> 
459
(
0.00312472
0.00452237
0.00425382
0.00349302
0.00276731
0.00220164
0.00177584
0.00144376
0.00117839
0.000962024
0.000782147
0.000629323
0.000495792
0.000373623
0.000266503
0.000108053
0.000196628
0.000200193
0.000181697
0.000157274
0.000131961
0.0001069
8.66213e-05
7.10451e-05
5.91446e-05
4.99732e-05
4.27888e-05
3.70144e-05
3.23214e-05
2.83482e-05
2.47479e-05
2.16909e-05
1.89147e-05
2.54863e-05
0.00508055
0.0108116
0.00608187
0.00384052
0.00263821
0.00193489
0.0014835
0.00116954
0.000936393
0.000754391
0.000606692
0.000483367
0.000379162
0.000290445
0.000222604
0.000234238
0.000148064
0.000324361
0.000710252
0.000308217
0.000200184
0.000151672
0.000122232
0.000109285
8.91978e-05
7.12277e-05
5.68475e-05
4.57261e-05
3.71858e-05
3.05696e-05
2.5476e-05
2.17518e-05
1.97874e-05
2.73456e-05
4.89906e-05
6.09131e-05
0.00599022
0.0148909
0.00647104
0.00340004
0.00208449
0.00144593
0.00109374
0.00086933
0.000706708
0.000577273
0.000468447
0.000375198
0.000296452
0.000231419
0.000183477
0.000160397
0.000154485
0.000279923
0.000436535
0.000253935
0.000189085
0.000153857
0.000136898
0.000271345
0.00018079
0.000126011
9.13218e-05
6.84137e-05
5.27466e-05
4.17675e-05
3.42354e-05
2.95473e-05
2.23178e-05
2.90739e-05
9.30612e-05
9.9224e-05
0.00587637
0.0137608
0.00484276
0.00199729
0.00108548
0.000776123
0.000645269
0.000556261
0.000478268
0.000405304
0.000337564
0.000276541
0.000224568
0.000182309
0.000151965
0.000131877
0.000134414
0.000178726
0.000251972
0.000209506
0.000182964
0.000162797
0.000145524
0.000142597
0.000370286
0.000283166
0.000225572
0.00018309
0.00014901
0.000119994
9.43315e-05
7.11334e-05
4.9289e-05
2.54851e-05
3.03279e-05
0.000188775
0.000159313
0.00555197
0.00998148
0.00269846
0.000780216
0.000440675
0.000389597
0.000370193
0.000345169
0.000312976
0.000276662
0.000239769
0.000203996
0.000174974
0.000152814
0.000139505
0.000132689
0.00014612
0.000163891
0.000178762
0.000190331
0.000188819
0.000176905
0.000160491
0.000147799
0.000154557
0.000150147
0.000141151
0.000128545
0.000113284
9.62243e-05
7.80055e-05
5.93998e-05
3.97977e-05
2.43624e-05
2.79265e-05
0.000133922
0.000175115
0.0001854
0.000240918
0.000662524
0.00498622
0.00702131
0.0016947
0.000457677
0.000255099
0.000237151
0.000236745
0.000231789
0.000221169
0.000206869
0.00019125
0.00017649
0.000165267
0.000158784
0.000160812
0.000172474
0.000199811
0.00023073
0.000248558
0.000251018
0.000239121
0.000216564
0.000190488
0.000168103
0.000153718
0.00014175
0.000129282
0.000115014
9.90818e-05
8.20772e-05
6.46889e-05
4.79486e-05
3.25739e-05
2.41341e-05
2.97674e-05
6.14032e-05
0.000125611
0.000266023
0.00109373
0.00162984
0.00424483
0.00514781
0.00130672
0.000470227
0.000242395
0.000213014
0.000213979
0.000218458
0.000221913
0.000223422
0.000222433
0.000220289
0.000219213
0.000221995
0.000232416
0.000252743
0.000284557
0.000320345
0.000335571
0.000326676
0.00029802
0.000259061
0.000220005
0.000187812
0.000163225
0.000143932
0.000126551
0.000109269
9.20952e-05
7.56836e-05
6.10164e-05
4.9408e-05
4.23079e-05
4.30242e-05
5.32075e-05
7.60495e-05
0.000148589
0.000696055
0.00349841
0.00400879
0.00340029
0.00381191
0.00149004
0.000980688
0.000421344
0.000335506
0.000337494
0.00035912
0.000387084
0.000416353
0.000432071
0.000435568
0.000431958
0.000426748
0.000426419
0.000437236
0.000461747
0.000480355
0.00047398
0.000438698
0.000385126
0.00032906
0.000281088
0.000242055
0.000210767
0.000185297
0.000163403
0.000144247
0.000128308
0.000116847
0.00011173
0.000115428
0.00013078
0.00015948
0.000197287
0.00023899
0.000362736
0.0015755
0.0127172
0.0101838
0.00230868
0.00243042
0.00230042
0.00251288
0.00110731
0.000825122
0.000818284
0.000876817
0.000967229
0.00101566
0.00102573
0.00101459
0.000993393
0.000965396
0.000937914
0.000916161
0.000897995
0.000870089
0.000817443
0.000742791
0.00066516
0.000599743
0.000541355
0.00049007
0.000447329
0.000412528
0.000385465
0.000367125
0.000359775
0.000366799
0.000392453
0.000441143
0.000515384
0.000613614
0.000748293
0.000836912
0.000941743
0.0027647
0.0176888
0.0140148
0.00314469
0.00438064
0.0029239
0.00247989
0.0024513
0.00254051
0.0026254
0.00261895
0.00255812
0.00249266
0.00244184
0.00238415
0.00232192
0.00226112
0.00219685
0.00211424
0.0020003
0.00187215
0.00177397
0.0016853
0.00160401
0.00153143
0.00146843
0.00141715
0.00138108
0.00136516
0.00137603
0.00142208
0.0015125
0.00165352
0.00183935
0.00204478
0.00222474
0.00232342
0.00248341
0.00410351
0.0129513
0.0083272
0.00760125
0.0100521
0.00871517
0.0075345
0.00724843
0.00727728
0.00719846
0.00695544
0.00664235
0.00639098
0.00627456
0.00619186
0.00611295
0.00604569
0.005985
0.00589846
0.00574074
0.00552577
0.00530911
0.00511958
0.00495461
0.0048082
0.0046798
0.00457395
0.0044985
0.00446423
0.004486
0.00458414
0.00478397
0.00510714
0.00554008
0.00596168
0.00610192
0.00604181
0.00583121
0.00592944
0.0069689
0.0048137
0.000600351
0.000342987
0.00117815
0.00352119
0.00421408
0.00419548
0.00405714
0.00393917
0.00379893
0.0036146
0.00342512
0.00331483
0.00332275
0.00335666
0.00338595
0.00340471
0.00340533
0.00337962
0.00333604
0.00329142
0.00324057
0.00318791
0.0031376
0.0030926
0.00305517
0.00302766
0.00301279
0.0030138
0.00303431
0.00307748
0.0031437
0.00322543
0.0032984
0.0033217
0.0033173
0.00327395
0.00330391
0.00358241
0.00374057
0.00274812
)
;

boundaryField
{
    floor
    {
        Cmu             0.09;
        kappa           0.41;
        E               9.8;
        type            epsilonWallFunction;
        value           nonuniform List<scalar> 
29
(
0.000266503
0.000108053
0.000196628
0.000200193
0.000181697
0.000157274
0.000131961
0.0001069
8.66213e-05
7.10451e-05
5.91446e-05
4.99732e-05
4.27888e-05
3.70144e-05
3.23214e-05
2.83482e-05
2.47479e-05
2.16909e-05
1.89147e-05
2.54863e-05
2.54863e-05
6.09131e-05
9.9224e-05
0.000159313
0.000266503
0.000108053
0.000324361
0.000279923
0.000178726
)
;
    }
    ceiling
    {
        Cmu             0.09;
        kappa           0.41;
        E               9.8;
        type            epsilonWallFunction;
        value           nonuniform List<scalar> 
43
(
0.000600351
0.000342987
0.00117815
0.00352119
0.00421408
0.00419548
0.00405714
0.00393917
0.00379893
0.0036146
0.00342512
0.00331483
0.00332275
0.00335666
0.00338595
0.00340471
0.00340533
0.00337962
0.00333604
0.00329142
0.00324057
0.00318791
0.0031376
0.0030926
0.00305517
0.00302766
0.00301279
0.0030138
0.00303431
0.00307748
0.0031437
0.00322543
0.0032984
0.0033217
0.0033173
0.00327395
0.00330391
0.00358241
0.00374057
0.00274812
0.00230868
0.00243042
0.00760125
)
;
    }
    sWall
    {
        Cmu             0.09;
        kappa           0.41;
        E               9.8;
        type            epsilonWallFunction;
        value           uniform 0.000600351;
    }
    nWall
    {
        Cmu             0.09;
        kappa           0.41;
        E               9.8;
        type            epsilonWallFunction;
        value           nonuniform List<scalar> 6(0.000662524 0.00162984 0.00400879 0.0083272 0.0048137 0.00274812);
    }
    sideWalls
    {
        type            empty;
    }
    glass1
    {
        Cmu             0.09;
        kappa           0.41;
        E               9.8;
        type            epsilonWallFunction;
        value           nonuniform List<scalar> 9(0.00312472 0.00508055 0.00599022 0.00587637 0.00555197 0.00498622 0.00424483 0.00340029 0.00230868);
    }
    glass2
    {
        Cmu             0.09;
        kappa           0.41;
        E               9.8;
        type            epsilonWallFunction;
        value           nonuniform List<scalar> 2(0.0101838 0.0140148);
    }
    sun
    {
        Cmu             0.09;
        kappa           0.41;
        E               9.8;
        type            epsilonWallFunction;
        value           nonuniform List<scalar> 
14
(
0.00312472
0.00452237
0.00425382
0.00349302
0.00276731
0.00220164
0.00177584
0.00144376
0.00117839
0.000962024
0.000782147
0.000629323
0.000495792
0.000373623
)
;
    }
    heatsource1
    {
        Cmu             0.09;
        kappa           0.41;
        E               9.8;
        type            epsilonWallFunction;
        value           nonuniform List<scalar> 3(0.0001854 0.000240918 0.000662524);
    }
    heatsource2
    {
        Cmu             0.09;
        kappa           0.41;
        E               9.8;
        type            epsilonWallFunction;
        value           nonuniform List<scalar> 4(0.000234238 0.000148064 0.000148064 0.000154485);
    }
    Table_master
    {
        Cmu             0.09;
        kappa           0.41;
        E               9.8;
        type            epsilonWallFunction;
        value           nonuniform List<scalar> 9(0.000271345 0.00018079 0.000126011 9.13218e-05 6.84137e-05 5.27466e-05 4.17675e-05 3.42354e-05 2.95473e-05);
    }
    Table_slave
    {
        Cmu             0.09;
        kappa           0.41;
        E               9.8;
        type            epsilonWallFunction;
        value           nonuniform List<scalar> 9(0.000370286 0.000283166 0.000225572 0.00018309 0.00014901 0.000119994 9.43315e-05 7.11334e-05 4.9289e-05);
    }
    inlet
    {
        type            turbulentMixingLengthDissipationRateInlet;
        mixingLength    0.01;
        phi             phi;
        k               k;
        value           uniform 3.01869e-05;
    }
    outlet
    {
        type            zeroGradient;
    }
}


// ************************************************************************* //
