/*--------------------------------*- C++ -*----------------------------------*\
  =========                 |
  \\      /  F ield         | OpenFOAM: The Open Source CFD Toolbox
   \\    /   O peration     | Website:  https://openfoam.org
    \\  /    A nd           | Version:  6
     \\/     M anipulation  |
\*---------------------------------------------------------------------------*/
FoamFile
{
    version     2.0;
    format      ascii;
    class       volScalarField;
    location    "290";
    object      alphat;
}
// * * * * * * * * * * * * * * * * * * * * * * * * * * * * * * * * * * * * * //

dimensions      [1 -1 -1 0 0 0 0];

internalField   nonuniform List<scalar> 
459
(
0.00109685
0.0012122
0.0012563
0.00132452
0.0013897
0.00145524
0.00152252
0.00157724
0.00161156
0.00161652
0.00158386
0.00149653
0.00132397
0.00112082
0.000959861
0.000578723
0.000765416
0.000825297
0.000849306
0.000844181
0.00082013
0.000771349
0.000718813
0.000670646
0.000627953
0.000590206
0.000556885
0.000527324
0.000500528
0.00047539
0.000450455
0.000424207
0.000384619
0.000363516
0.00142458
0.00355578
0.00346036
0.00401919
0.00460491
0.00514818
0.00556662
0.00598797
0.00638564
0.0067154
0.00692327
0.00693591
0.00664461
0.00596821
0.00398256
0.00120161
0.000942664
0.000918542
0.00295753
0.00290086
0.00321563
0.00343606
0.00331182
0.00237033
0.00197226
0.00171206
0.00152193
0.00137621
0.001258
0.00115184
0.00105044
0.000948934
0.000858836
0.000824742
0.000713237
0.000459221
0.00169566
0.00480815
0.00432077
0.00504317
0.00542745
0.00571939
0.0059738
0.00630972
0.0067466
0.00725814
0.00776172
0.0081206
0.00816623
0.00781145
0.00665907
0.00432119
0.00117311
0.000995689
0.00259191
0.00328067
0.0039579
0.00440351
0.0040549
0.00105796
0.000918654
0.000808331
0.000721218
0.000651839
0.000596044
0.000551232
0.000515748
0.00048965
0.000555162
0.000702353
0.000811317
0.000509184
0.00195259
0.00589209
0.00435397
0.00516468
0.00527799
0.00531109
0.00543005
0.00568886
0.00615078
0.00679338
0.00749457
0.00804414
0.00833384
0.00833376
0.00788008
0.00650659
0.00350092
0.00133666
0.0019047
0.0027857
0.00392415
0.00492815
0.00551145
0.00500465
0.00116981
0.0010596
0.000982107
0.000924135
0.000876864
0.000833331
0.000792697
0.000750433
0.00070161
0.000660557
0.000704112
0.0009303
0.000576435
0.00221534
0.00727081
0.00454524
0.00505389
0.00510049
0.00500001
0.00504362
0.00524051
0.00572453
0.00644675
0.00720002
0.00780274
0.00815862
0.0082756
0.00814851
0.0075772
0.00633209
0.00549744
0.00577423
0.00630744
0.00683461
0.00719834
0.00731069
0.00699592
0.00569204
0.00507182
0.00472262
0.00448486
0.00427712
0.00404077
0.00366307
0.00315708
0.00254453
0.0019219
0.00145101
0.00133328
0.000951665
0.000655191
0.000645367
0.000621436
0.00249918
0.00885893
0.00580947
0.00508638
0.00527693
0.00506923
0.00500348
0.00513133
0.00559604
0.00634506
0.00715103
0.0077776
0.00811546
0.00821739
0.00821406
0.00816043
0.00803178
0.00816997
0.00849334
0.00873813
0.00882461
0.00873413
0.0084783
0.00805823
0.00745362
0.00694398
0.0065435
0.0062075
0.0058968
0.00557357
0.00517605
0.00465606
0.00401536
0.00329645
0.00261223
0.00214526
0.00167956
0.00132149
0.00146866
0.000781936
0.00276814
0.0100374
0.00798425
0.00616861
0.00594408
0.0054818
0.00514533
0.00518778
0.00569382
0.00652981
0.00740727
0.00805469
0.00836873
0.0084583
0.00856468
0.00885361
0.00922203
0.00960851
0.00984617
0.00983348
0.00960377
0.00920788
0.00869937
0.00813172
0.00756173
0.00707035
0.00666255
0.00631351
0.00599886
0.00569313
0.00536999
0.00501797
0.00459731
0.00408434
0.00351644
0.0030021
0.00248474
0.00200875
0.00189665
0.000929579
0.00283324
0.00915443
0.00795936
0.00712032
0.00634421
0.00549895
0.00507237
0.00525597
0.00600061
0.00703468
0.00799835
0.00863287
0.00890464
0.0090085
0.00919274
0.00948167
0.00973264
0.00990576
0.00990041
0.00965233
0.00919598
0.00861018
0.00796478
0.00733432
0.00678054
0.00633125
0.00596803
0.00566238
0.00539352
0.00514096
0.00488378
0.00462901
0.00442746
0.00424306
0.0039427
0.00364229
0.0033023
0.00273487
0.00296248
0.00116533
0.00277419
0.00331453
0.00363435
0.00368035
0.00367554
0.00381371
0.00435281
0.00539458
0.00675401
0.00804515
0.00895771
0.00939745
0.00951398
0.00951364
0.00930469
0.00914265
0.00907525
0.00898936
0.0087748
0.00841217
0.00793942
0.00741278
0.00689078
0.00642904
0.00603984
0.0057098
0.00541189
0.00512333
0.00483221
0.0045248
0.00416971
0.00374428
0.00330893
0.00295705
0.00269102
0.00246189
0.00226115
0.00208864
0.00197065
0.00125564
0.00116766
0.00190427
0.00291339
0.00447702
0.00616683
0.00779899
0.00905903
0.00973581
0.00991054
0.00969772
0.00920813
0.00872843
0.00839243
0.0081862
0.00804485
0.00788797
0.00767963
0.00743438
0.00718511
0.00695636
0.00675379
0.0065665
0.00637171
0.00615191
0.00588964
0.00556933
0.00518601
0.00474877
0.00427705
0.00378732
0.00333154
0.00294427
0.00265327
0.00246047
0.00232608
0.00220227
0.00210465
0.00147321
0.00159104
0.00401302
0.0064731
0.0081615
0.0091976
0.0100985
0.0104399
0.0101806
0.00958103
0.00889866
0.00835301
0.00799996
0.00780996
0.00771716
0.00767059
0.00763864
0.00760643
0.00757163
0.00753776
0.00750846
0.00748356
0.00745714
0.00741645
0.00734632
0.00722829
0.00704131
0.00676623
0.00639132
0.00591638
0.00535123
0.00475031
0.00416591
0.00364733
0.0032224
0.00288708
0.0026452
0.00341163
0.00166304
0.00167711
0.00178011
0.00187105
0.00215281
0.00220954
0.00218853
0.00221461
0.00221108
0.00216032
0.00208882
0.0020001
0.00192198
0.00187023
0.0018417
0.00182859
0.00182448
0.00182435
0.00182485
0.00182439
0.00182288
0.00182079
0.0018185
0.00181585
0.00181219
0.0018065
0.00179697
0.00178143
0.00175789
0.00172507
0.00168307
0.00163397
0.00158259
0.00153259
0.00148853
0.00145365
0.00142835
0.00140675
0.00137902
0.00140387
0.00136612
)
;

boundaryField
{
    floor
    {
        type            compressible::alphatWallFunction;
        Prt             0.85;
        value           nonuniform List<scalar> 
29
(
0.00013692
8.14455e-05
0.000109037
0.000117714
0.00012117
0.000120434
0.000116972
0.000109911
0.000102247
9.51596e-05
8.88259e-05
8.31816e-05
7.8162e-05
7.36773e-05
6.95846e-05
6.57201e-05
6.1861e-05
5.77688e-05
5.15342e-05
4.81755e-05
4.81748e-05
6.32204e-05
7.09106e-05
8.11138e-05
0.000136918
8.14445e-05
0.000131061
0.000141982
0.00018919
)
;
    }
    ceiling
    {
        type            compressible::alphatWallFunction;
        Prt             0.85;
        value           nonuniform List<scalar> 
43
(
0.000234895
0.00024853
0.000260498
0.000297222
0.00030457
0.000301878
0.000305249
0.0003048
0.000298253
0.000288999
0.00027747
0.000267271
0.000260491
0.000256745
0.000255021
0.000254482
0.000254465
0.000254531
0.000254471
0.000254271
0.000253997
0.000253694
0.000253345
0.000252863
0.000252113
0.000250857
0.000248807
0.000245699
0.000241358
0.000235788
0.000229259
0.000222401
0.000215705
0.000209782
0.000205081
0.000201661
0.000198738
0.000194978
0.000198349
0.000193228
0.000376515
0.000443846
0.000223368
)
;
    }
    sWall
    {
        type            compressible::alphatWallFunction;
        Prt             0.85;
        value           uniform 0.000234093;
    }
    nWall
    {
        type            compressible::alphatWallFunction;
        Prt             0.85;
        value           nonuniform List<scalar> 6(8.75199e-05 0.000111096 0.000132273 0.000207332 0.000232732 0.000192843);
    }
    sideWalls
    {
        type            empty;
    }
    glass1
    {
        type            compressible::alphatWallFunction;
        Prt             0.85;
        value           nonuniform List<scalar> 9(0.000153704 0.000198299 0.000234356 0.00026798 0.000301897 0.000338073 0.000371973 0.000380183 0.000372891);
    }
    glass2
    {
        type            compressible::alphatWallFunction;
        Prt             0.85;
        value           nonuniform List<scalar> 2(0.000164687 0.000177122);
    }
    sun
    {
        type            compressible::alphatWallFunction;
        Prt             0.85;
        value           nonuniform List<scalar> 
14
(
0.000156166
0.000172141
0.000178205
0.000187537
0.000196403
0.000205271
0.000214327
0.00022166
0.000226245
0.000226906
0.000222544
0.000210828
0.000187459
0.000159493
)
;
    }
    heatsource1
    {
        type            compressible::alphatWallFunction;
        Prt             0.85;
        value           nonuniform List<scalar> 3(9.27068e-05 9.12499e-05 8.76898e-05);
    }
    heatsource2
    {
        type            compressible::alphatWallFunction;
        Prt             0.85;
        value           nonuniform List<scalar> 4(0.000170508 0.000134319 0.000134318 0.00016657);
    }
    Table_master
    {
        type            compressible::alphatWallFunction;
        Prt             0.85;
        value           nonuniform List<scalar> 9(0.000150557 0.000130906 0.000115096 0.000102429 9.22093e-05 8.38939e-05 7.71458e-05 7.1754e-05 6.77588e-05);
    }
    Table_slave
    {
        type            compressible::alphatWallFunction;
        Prt             0.85;
        value           nonuniform List<scalar> 9(0.000166119 0.000150789 0.0001399 0.000131688 0.000124947 0.000118701 0.000112836 0.000106698 9.9554e-05);
    }
    inlet
    {
        type            fixedValue;
        value           uniform 1.94e-05;
    }
    outlet
    {
        type            zeroGradient;
    }
}


// ************************************************************************* //
