/*--------------------------------*- C++ -*----------------------------------*\
  =========                 |
  \\      /  F ield         | OpenFOAM: The Open Source CFD Toolbox
   \\    /   O peration     | Website:  https://openfoam.org
    \\  /    A nd           | Version:  6
     \\/     M anipulation  |
\*---------------------------------------------------------------------------*/
FoamFile
{
    version     2.0;
    format      ascii;
    class       volScalarField;
    location    "100";
    object      alphat;
}
// * * * * * * * * * * * * * * * * * * * * * * * * * * * * * * * * * * * * * //

dimensions      [1 -1 -1 0 0 0 0];

internalField   nonuniform List<scalar> 
459
(
0.000846098
0.000873412
0.000841081
0.000871035
0.000898981
0.000923904
0.000946434
0.000967438
0.000987941
0.0010091
0.00102712
0.00104111
0.00105094
0.00105784
0.00106083
0.000689047
0.000778052
0.000784008
0.000790569
0.000788988
0.000767336
0.000716357
0.000665469
0.000620807
0.0005809
0.000545336
0.000513816
0.000486043
0.00046169
0.000440282
0.000421133
0.000404376
0.000415353
0.000395267
0.00136683
0.00210192
0.00164117
0.00199307
0.00212795
0.00227245
0.00241819
0.00255239
0.00265786
0.00271538
0.00273334
0.00268333
0.0025279
0.00221475
0.0017041
0.00113556
0.000907728
0.000948244
0.00243937
0.00318825
0.00364403
0.00367132
0.00329627
0.00237077
0.00197744
0.00168365
0.0014626
0.00129294
0.00116206
0.00106044
0.000979349
0.000910305
0.000855476
0.00080874
0.00111677
0.000567039
0.00184466
0.00337626
0.00171631
0.00281508
0.00303834
0.00317862
0.00329408
0.00338669
0.00345569
0.00349454
0.00349819
0.00343139
0.00325321
0.00292013
0.00242631
0.0018648
0.00131214
0.00116967
0.00424814
0.00479401
0.00482685
0.00457196
0.00369859
0.000916651
0.000764871
0.000666813
0.000600331
0.000552404
0.000515842
0.000486742
0.000463166
0.00044539
0.000525173
0.000632751
0.00136309
0.000700739
0.00232244
0.00521206
0.00176448
0.00314605
0.00359198
0.00372517
0.00381412
0.0038842
0.00394172
0.00398365
0.00401227
0.00400732
0.00393082
0.00371856
0.00329503
0.00265263
0.00195474
0.00151463
0.00456885
0.00494011
0.00491582
0.00479425
0.00457291
0.00380392
0.000921543
0.000880679
0.000869616
0.000866001
0.00085999
0.000844098
0.000812404
0.000775041
0.000732629
0.000725181
0.000762897
0.00177396
0.000770256
0.00278832
0.00745638
0.00227803
0.00297716
0.00384578
0.00400893
0.00407939
0.00412888
0.00417301
0.0042165
0.00426729
0.00434249
0.0044307
0.00450442
0.00452474
0.00446184
0.00433352
0.00419571
0.00431971
0.00427805
0.00430733
0.00446058
0.00447191
0.00433219
0.00388228
0.00383949
0.00384392
0.00383175
0.0037719
0.00364632
0.00344159
0.00303504
0.00250076
0.00197557
0.00150307
0.0015411
0.00120133
0.00089575
0.00104232
0.0011788
0.00324263
0.0096843
0.00375817
0.0025956
0.00368826
0.00404682
0.00417061
0.00422227
0.00423527
0.0042374
0.00426079
0.00434731
0.00447664
0.00462049
0.00472832
0.00472087
0.00451693
0.00412846
0.00374588
0.00356496
0.00375106
0.00426056
0.00442119
0.00444001
0.00443411
0.00447834
0.0045177
0.00450931
0.00443848
0.00431127
0.00414588
0.00390871
0.00349858
0.00294849
0.00233932
0.00167653
0.00150165
0.00133084
0.00183448
0.00126254
0.00369035
0.0114365
0.00676317
0.00331805
0.00277456
0.00327715
0.00381457
0.00415739
0.00430971
0.00421892
0.00418717
0.00424549
0.00435864
0.00450869
0.00465811
0.0047251
0.00458703
0.00416955
0.00360437
0.00318294
0.00333129
0.00421322
0.00445753
0.00448765
0.00450738
0.00454695
0.00456894
0.00453235
0.00443661
0.00431364
0.00420635
0.00413195
0.00392481
0.00348451
0.00294989
0.00237814
0.00209924
0.0021142
0.00221337
0.00154195
0.00380394
0.0116703
0.00905492
0.00663437
0.00461446
0.00355402
0.0034461
0.00381485
0.00423104
0.004182
0.00411322
0.00411074
0.00417068
0.00427723
0.00441073
0.00453643
0.00457451
0.00435879
0.00380313
0.00305748
0.00295121
0.00424633
0.00457699
0.00460225
0.00461103
0.00461434
0.00457329
0.0044669
0.00431634
0.00418543
0.00414297
0.00422474
0.00437393
0.00416174
0.00390391
0.00391965
0.00447246
0.00541957
0.00640782
0.00212984
0.00371926
0.00451519
0.00500769
0.00512646
0.0048372
0.00434622
0.00394518
0.00373751
0.00368512
0.00368587
0.00373384
0.00381188
0.00390602
0.00400663
0.00411097
0.00422365
0.00434572
0.00441182
0.00413197
0.00312108
0.00259183
0.00428835
0.00474922
0.00479282
0.00481608
0.00479722
0.00469149
0.00448458
0.00420127
0.0039122
0.00369446
0.00357385
0.0035251
0.00350646
0.00352021
0.0035442
0.00346732
0.00321963
0.00292444
0.00194179
0.00275916
0.00429663
0.00463646
0.00452266
0.00430259
0.00410975
0.00397749
0.00389201
0.00385002
0.00383758
0.00383912
0.0038471
0.00386636
0.0039188
0.00405162
0.00428808
0.0042719
0.00321843
0.00230377
0.00422096
0.00489302
0.00499863
0.0051187
0.00516962
0.00510695
0.00492448
0.00463039
0.00427846
0.00396693
0.00378408
0.00370742
0.0036864
0.0036693
0.00359294
0.00338015
0.00300411
0.00251749
0.00161235
0.00286966
0.00488458
0.00511543
0.00490347
0.00467889
0.00445188
0.00424191
0.00405517
0.00386571
0.00365052
0.00343903
0.00325556
0.00312365
0.00307181
0.00314591
0.00338235
0.00352421
0.00281891
0.00197134
0.00385304
0.00452284
0.00465425
0.00485304
0.00496897
0.00499013
0.00493657
0.00481349
0.00462853
0.0043928
0.00422605
0.00415124
0.00414417
0.00415329
0.00415566
0.00409134
0.00395827
0.00319876
0.00164492
0.00252765
0.00264421
0.00274787
0.00289398
0.00273836
0.0024673
0.00229585
0.00214212
0.0020032
0.00187759
0.00176593
0.00166928
0.0015821
0.00150194
0.00142823
0.00136191
0.00130565
0.00126354
0.00123267
0.0011932
0.00117048
0.00129128
0.00132046
0.00133083
0.00134191
0.00134761
0.00134956
0.00135188
0.00135948
0.00137864
0.00141795
0.00147237
0.00154446
0.00163114
0.00172881
0.00184869
0.00187751
0.00182747
0.00170142
0.00156742
)
;

boundaryField
{
    floor
    {
        type            compressible::alphatWallFunction;
        Prt             0.85;
        value           nonuniform List<scalar> 
29
(
0.000150711
9.75455e-05
0.000110466
0.000111323
0.000112277
0.000112052
0.000108915
0.000101484
9.40013e-05
8.73758e-05
8.14056e-05
7.60422e-05
7.12519e-05
6.70005e-05
6.32473e-05
5.9927e-05
5.69396e-05
5.43105e-05
5.60278e-05
5.28683e-05
5.28676e-05
7.92987e-05
9.91733e-05
0.000109327
0.00015071
9.75443e-05
0.00013489
0.000165839
0.000212805
)
;
    }
    ceiling
    {
        type            compressible::alphatWallFunction;
        Prt             0.85;
        value           nonuniform List<scalar> 
43
(
0.000344853
0.000359623
0.000372704
0.000391128
0.000371607
0.000337293
0.000315375
0.000295572
0.000277543
0.000261125
0.000246429
0.000233625
0.000222007
0.000211261
0.000201324
0.000192333
0.000184668
0.000178907
0.000174665
0.000169222
0.000166116
0.000182744
0.000186697
0.000188101
0.000189607
0.000190381
0.000190645
0.000190962
0.000191995
0.000194598
0.000199926
0.000207273
0.00021696
0.000228543
0.000241513
0.000257323
0.000261108
0.000254536
0.000237887
0.000220041
0.000493317
0.000589469
0.000387944
)
;
    }
    sWall
    {
        type            compressible::alphatWallFunction;
        Prt             0.85;
        value           uniform 0.000343605;
    }
    nWall
    {
        type            compressible::alphatWallFunction;
        Prt             0.85;
        value           nonuniform List<scalar> 6(0.000166821 0.000178336 0.000216187 0.00022564 0.000229976 0.000219635);
    }
    sideWalls
    {
        type            empty;
    }
    glass1
    {
        type            compressible::alphatWallFunction;
        Prt             0.85;
        value           nonuniform List<scalar> 9(0.000116532 0.000187767 0.000250666 0.000311961 0.000370562 0.000426807 0.000481489 0.000495411 0.000485408);
    }
    glass2
    {
        type            compressible::alphatWallFunction;
        Prt             0.85;
        value           nonuniform List<scalar> 2(0.000290955 0.00026677);
    }
    sun
    {
        type            compressible::alphatWallFunction;
        Prt             0.85;
        value           nonuniform List<scalar> 
14
(
0.00012033
0.000124223
0.000119587
0.000123882
0.000127874
0.000131421
0.000134617
0.00013759
0.000140484
0.000143463
0.000145993
0.000147954
0.00014933
0.000150294
)
;
    }
    heatsource1
    {
        type            compressible::alphatWallFunction;
        Prt             0.85;
        value           nonuniform List<scalar> 3(0.000127641 0.000148366 0.000167358);
    }
    heatsource2
    {
        type            compressible::alphatWallFunction;
        Prt             0.85;
        value           nonuniform List<scalar> 4(0.000161353 0.000129385 0.000129384 0.00018565);
    }
    Table_master
    {
        type            compressible::alphatWallFunction;
        Prt             0.85;
        value           nonuniform List<scalar> 9(0.000130626 0.000108809 9.44394e-05 8.45501e-05 7.73371e-05 7.17817e-05 6.73248e-05 6.3689e-05 6.09322e-05);
    }
    Table_slave
    {
        type            compressible::alphatWallFunction;
        Prt             0.85;
        value           nonuniform List<scalar> 9(0.000131324 0.000125493 0.000123908 0.000123389 0.000122527 0.000120245 0.00011568 0.000110272 0.000104095);
    }
    inlet
    {
        type            fixedValue;
        value           uniform 1.94e-05;
    }
    outlet
    {
        type            zeroGradient;
    }
}


// ************************************************************************* //
