/*--------------------------------*- C++ -*----------------------------------*\
  =========                 |
  \\      /  F ield         | OpenFOAM: The Open Source CFD Toolbox
   \\    /   O peration     | Website:  https://openfoam.org
    \\  /    A nd           | Version:  6
     \\/     M anipulation  |
\*---------------------------------------------------------------------------*/
FoamFile
{
    version     2.0;
    format      ascii;
    class       surfaceScalarField;
    location    "1200";
    object      phi;
}
// * * * * * * * * * * * * * * * * * * * * * * * * * * * * * * * * * * * * * //

dimensions      [1 0 -1 0 0 0 0];

internalField   nonuniform List<scalar> 
852
(
0.0045998
-0.00456709
0.00918306
-0.00458315
0.0116908
-0.00250765
0.0129988
-0.00130785
0.013767
-0.000768115
0.0141775
-0.000410416
0.0142719
-9.42638e-05
0.014084
0.00018796
0.0136314
0.00045278
0.0129048
0.00072667
0.0118689
0.00103605
0.0104489
0.00142011
0.00848055
0.00196842
0.00550573
0.00297492
0.00550539
-0.000238205
0.000240711
-5.35362e-05
-0.000184634
0.000168042
-0.000221546
0.000271054
-0.000102984
0.00026491
6.16763e-06
0.000154236
0.000110695
-1.39416e-05
0.000168195
-0.000125698
0.000111759
-0.000192052
6.63536e-05
-0.000235676
4.36199e-05
-0.000276712
4.10275e-05
-0.000318177
4.14498e-05
-0.000314906
-3.27894e-06
-0.000185208
-0.000129691
8.3046e-05
-0.000268233
0.00028229
-0.000199191
0.000496687
-0.000214345
0.000561937
-6.52019e-05
0.000565076
0.00541654
-0.00989062
0.00817232
-0.00733883
0.00964948
-0.0039847
0.0105574
-0.00221563
0.0111377
-0.00134828
0.0114652
-0.000737837
0.0115699
-0.000198819
0.0114524
0.000305557
0.0111075
0.000797743
0.0105239
0.00131043
0.00968767
0.00187237
0.00859515
0.00251274
0.00729453
0.00326913
0.00611646
0.0041531
0.00654179
0.00508015
0.00259706
0.00394478
0.00259709
0.0007136
-0.000467217
0.00060779
-7.87867e-05
0.000338729
4.75502e-05
0.00019335
4.24191e-05
0.000130285
6.92505e-05
4.40717e-05
0.000196923
-2.96385e-05
0.000241916
-2.16405e-05
0.000103771
-1.1027e-05
5.57477e-05
4.4025e-07
3.21591e-05
1.73386e-05
2.41345e-05
3.93597e-05
1.94322e-05
5.32563e-05
-1.7175e-05
5.63418e-05
-0.000132774
9.34142e-05
-0.000305268
0.000208896
-0.0003146
0.000397027
-0.000402424
0.000367629
-3.57569e-05
0.00094049
0.00396595
-0.0137056
0.00564779
-0.00902055
0.00651659
-0.00485338
0.00712443
-0.00282335
0.00755772
-0.00178146
0.00783212
-0.00101212
0.00798366
-0.000350243
0.00800409
0.000285242
0.0078651
0.000936852
0.00754326
0.00163238
0.00703095
0.00238479
0.00634662
0.00319718
0.00555755
0.00405831
0.00477513
0.00493562
0.00400393
0.00585145
0.00234566
0.00560313
0.00494283
-0.000426628
-3.28106e-05
-0.000567862
6.24791e-05
-0.000589413
6.9125e-05
-0.000566301
1.93223e-05
-0.000465264
-3.17801e-05
-0.000172655
-9.56766e-05
6.94312e-05
0.00017338
0.000229302
0.000261634
0.000285939
0.000305541
0.000288534
0.000155928
-0.000149088
-0.000157849
-0.00030579
-0.000695377
0.000135154
-0.000999044
0.000267961
-4.65174e-05
0.00236136
-0.0158587
0.00326829
-0.00992735
0.00383153
-0.0054165
0.00409616
-0.00308786
0.00432516
-0.00201034
0.00451413
-0.00120098
0.00467642
-0.000512417
0.00477912
0.000182655
0.00477811
0.000937978
0.00464533
0.00176528
0.0043683
0.00266194
0.00395133
0.00361426
0.00341108
0.00459867
0.00276076
0.00558605
0.00206409
0.00654821
0.00123802
0.00642928
0.000606752
0.00557419
-0.00126303
0.00187279
-0.00148645
0.000190663
-0.00157539
0.00015147
-0.00165375
0.000147539
-0.00173613
0.000101755
-0.00179904
3.11834e-05
-0.00185786
-3.67982e-05
-0.00177773
-8.02131e-05
-0.00164133
-0.000136494
-0.00143848
-0.000202937
-0.00116463
-0.000273948
-0.000815338
-0.000349385
-0.000391601
-0.000423832
9.02609e-05
-0.000481955
0.00056792
-0.000477753
0.000976279
-0.000408453
0.000950565
-0.000280026
0.000990645
9.51193e-05
0.000844761
0.000413896
0.000808543
0.0010558
-0.0166487
0.00146363
-0.010335
0.00173817
-0.00569092
0.00150729
-0.00285687
0.00156974
-0.00207267
0.0017324
-0.00136353
0.00191402
-0.000693928
0.00204613
5.06582e-05
0.00209179
0.000892439
0.00204327
0.00181391
0.0018906
0.00281472
0.00162917
0.00387581
0.00125822
0.00496972
0.000797291
0.00604707
0.000351897
0.00699369
-0.000155924
0.00693718
-0.000492033
0.00591038
-0.0009574
0.00233824
-0.00142911
0.000662435
-0.00162338
0.000345795
-0.00171531
0.00023954
-0.00176344
0.000149949
-0.00178481
5.26174e-05
-0.00177725
-4.42894e-05
-0.00171961
-0.000137788
-0.00161914
-0.000236899
-0.00147655
-0.000345472
-0.00128794
-0.000462495
-0.00105402
-0.000583242
-0.000781711
-0.000696078
-0.00048394
-0.000779662
-0.000157791
-0.000803833
0.000180364
-0.000746529
0.000499018
-0.000598598
0.000924519
-0.000330292
0.00133489
3.60783e-06
0.00189136
0.000252166
0.00122379
0.000667445
-0.000277472
0.00150113
-0.000239333
-7.69748e-06
-0.0163174
3.71492e-05
-0.0103798
-0.000175108
-0.00547853
-0.000749775
-0.00228208
-0.000758306
-0.00206403
-0.000621665
-0.00150006
-0.000480865
-0.000834616
-0.000388598
-4.14948e-05
-0.00035021
0.000854166
-0.000361723
0.00182554
-0.000427758
0.00288087
-0.000554725
0.00400288
-0.00074337
0.00515847
-0.000967703
0.0062715
-0.00112275
0.00714882
-0.00125799
0.0070725
-0.00114454
0.00579702
-0.00117924
0.00237299
-0.00140082
0.000884085
-0.00152625
0.000471297
-0.00158242
0.000295771
-0.00160278
0.000170386
-0.0016038
5.37e-05
-0.00158896
-5.90592e-05
-0.00155744
-0.000169242
-0.0015108
-0.000283464
-0.0014495
-0.000406713
-0.00137337
-0.000538561
-0.0012846
-0.000671951
-0.00118793
-0.000792682
-0.00108721
-0.000880306
-0.000978436
-0.000912513
-0.000848206
-0.000876648
-0.000659684
-0.000786986
-0.000289516
-0.0007003
0.000411596
-0.000697284
0.00133605
-0.00067205
0.00197016
3.34956e-05
0.0021841
0.0012873
0.00198731
-0.00105339
-0.0148831
-0.00181654
-0.00961647
-0.00241834
-0.00487659
-0.00305439
-0.00164592
-0.00310644
-0.00201186
-0.00300217
-0.00160421
-0.00287987
-0.000956791
-0.00277672
-0.000144527
-0.00269359
0.000771145
-0.00262734
0.00175941
-0.00256839
0.00282203
-0.00251464
0.00394923
-0.00246079
0.00510471
-0.00238034
0.00619114
-0.00219904
0.00696759
-0.00194566
0.00681919
-0.00150428
0.00535571
-0.00134341
0.00221217
-0.001354
0.000894747
-0.00135665
0.000474025
-0.00133804
0.000277228
-0.00130827
0.00014069
-0.00127733
2.28382e-05
-0.00125392
-8.23966e-05
-0.00124492
-0.000178178
-0.00125417
-0.000274144
-0.00128486
-0.00037596
-0.00134215
-0.000481203
-0.00143391
-0.000580132
-0.00156752
-0.000658993
-0.00174209
-0.000705641
-0.00194058
-0.000713894
-0.00213079
-0.000686269
-0.00227398
-0.000643598
-0.00234022
-0.000633821
-0.00229614
-0.00074111
-0.00188066
-0.00108727
-0.000286777
-0.00156016
0.00129363
-0.000292876
0.0033274
-0.00387707
-0.0105699
-0.00614298
-0.00735041
-0.00608026
-0.00493918
-0.00610984
-0.0016162
-0.00569325
-0.00242832
-0.00535986
-0.00193748
-0.00514043
-0.00117609
-0.00497275
-0.000312084
-0.00481575
0.00061426
-0.00463906
0.00158284
-0.00441519
0.00259826
-0.00413027
0.00366441
-0.00377521
0.00474974
-0.00333626
0.00575226
-0.00279016
0.00642156
-0.00219452
0.00622361
-0.00156067
0.00472191
-0.00126394
0.00191549
-0.00113869
0.000769575
-0.00103653
0.000371939
-0.000933789
0.000174572
-0.000834085
4.10655e-05
-0.000753801
-5.73695e-05
-0.000709873
-0.000126249
-0.000708272
-0.000179705
-0.000752209
-0.000230136
-0.000847601
-0.000280497
-0.00100716
-0.000321578
-0.00125255
-0.00033467
-0.0016126
-0.000298863
-0.00210984
-0.000208289
-0.00273382
-8.97592e-05
-0.00342928
9.3898e-06
-0.00412605
5.33866e-05
-0.00477302
1.33742e-05
-0.00538226
-0.00013165
-0.00609012
-0.000379196
-0.00690418
-0.000745902
-0.00577888
-0.00141797
-0.0022351
-0.0100964
-0.0174565
-0.0121308
-0.0102647
-0.00863349
-0.0051134
-0.00753554
-0.00352613
-0.00707712
-0.00239577
-0.00687759
-0.00137549
-0.00673296
-0.000456588
-0.00654053
0.000421958
-0.0062523
0.00129472
-0.00584343
0.00218949
-0.00529635
0.00311742
-0.00460531
0.0040588
-0.00378005
0.00492709
-0.00285716
0.00549873
-0.00195495
0.00532146
-0.00119082
0.00395783
-0.000783743
0.00150847
-0.000590579
0.000576495
-0.000428287
0.000209736
-0.000256854
3.22815e-06
-0.000101616
-0.000114085
4.35276e-06
-0.000163252
5.75002e-05
-0.000179313
6.26451e-05
-0.000184768
2.25673e-05
-0.000189979
-6.22342e-05
-0.000195617
-0.000189957
-0.000193775
-0.000354955
-0.000169588
-0.000545848
-0.000107878
-0.00074524
-8.79208e-06
-0.000946942
0.000112061
-0.00117507
0.000237642
-0.00144897
0.000327397
-0.00177305
0.000337562
-0.00214153
0.000236936
-0.00256703
4.64055e-05
-0.00297946
-0.000333357
-0.00261228
-0.00178502
-0.00462599
-0.0103586
0.000219393
-0.00807465
-0.00739723
-0.00774444
-0.00385619
-0.00784633
-0.00229374
-0.00793221
-0.00128947
-0.00790352
-0.000485145
-0.00771818
0.000236745
-0.00735393
0.000930595
-0.00677984
0.00161551
-0.00597886
0.00231654
-0.00495249
0.00303253
-0.00373665
0.00371133
-0.00242051
0.00418266
-0.00120016
0.00410118
-9.77369e-05
0.00285546
0.000353206
0.00105761
0.000550305
0.00037949
0.000719961
4.01787e-05
0.000856429
-0.00013314
0.000940893
-0.00019845
0.000983158
-0.00020542
0.000994811
-0.000190872
0.000981921
-0.000171788
0.000946071
-0.000154041
0.000887716
-0.000137175
0.000810416
-0.00011639
0.000725023
-8.41056e-05
0.000650291
-3.30494e-05
0.000593327
4.82811e-05
0.000562118
0.000143383
0.000561754
0.000238125
0.00059224
0.000297036
0.000660291
0.000269637
0.000797016
0.000100336
0.00104803
-0.000204483
0.00144796
-0.000733145
0.00144435
-0.00178127
-0.0031326
-0.000625955
0.000828478
-0.00501701
-0.00300604
-0.00692462
-0.00194844
-0.00797909
-0.00123913
-0.00854409
-0.000724334
-0.00872624
-0.000302854
-0.00857748
8.81222e-05
-0.00813919
0.000492437
-0.00740442
0.000880868
-0.00635885
0.00127108
-0.00500006
0.00167384
-0.00337782
0.00208919
-0.00161298
0.00241791
0.00019258
0.00229569
0.00165898
0.00138914
0.00216376
0.000552931
0.00235295
0.000190411
0.00238838
4.86009e-06
0.00232689
-7.15421e-05
0.00223354
-0.000104989
0.00214083
-0.000112605
0.00205858
-0.00010852
0.00198688
-9.99908e-05
0.0019216
-8.86594e-05
0.00185845
-7.39263e-05
0.00179689
-5.47366e-05
0.00174331
-3.04293e-05
0.00171104
-6.8132e-07
0.0017168
4.26217e-05
0.00176735
9.2945e-05
0.00186803
0.000137575
0.00200826
0.000156938
0.0021607
0.000117335
0.00227997
-1.87866e-05
0.00230377
-0.000228136
0.00208504
-0.000514263
0.00126662
-0.000962706
-0.00180886
0.00470428
-0.00222433
-0.0014252
-0.00447046
-0.00645743
-0.00773471
-0.00849681
-0.00883712
-0.00878621
-0.00833072
-0.0074865
-0.00625173
-0.00461379
-0.00256002
-0.000176864
0.00208615
0.00344425
0.00396653
0.00412654
0.00410129
0.00400035
0.00386695
0.00372695
0.00359198
0.00346633
0.00335268
0.00325437
0.00317582
0.00312221
0.00309905
0.00312009
0.00319248
0.00331051
0.00344877
0.00354801
0.00351131
0.00326529
0.00273295
0.00175236
)
;

boundaryField
{
    floor
    {
        type            calculated;
        value           nonuniform List<scalar> 
29
(
0
0
0
0
0
0
0
0
0
0
0
0
0
0
0
0
0
0
0
0
-3.09692e-06
-7.74296e-06
-1.19795e-05
-1.02448e-05
4.44689e-07
-2.46861e-06
-5.63368e-06
-7.73729e-06
-2.90801e-06
)
;
    }
    ceiling
    {
        type            calculated;
        value           nonuniform List<scalar> 
43
(
5.68467e-05
4.8496e-05
2.94858e-05
3.93588e-05
3.86692e-05
3.83044e-05
3.7911e-05
3.76084e-05
3.73526e-05
3.70867e-05
3.67926e-05
3.64474e-05
3.60375e-05
3.55391e-05
3.4884e-05
3.27744e-05
3.11537e-05
3.07675e-05
3.05242e-05
3.02404e-05
2.95152e-05
2.8535e-05
2.75082e-05
2.65702e-05
2.57697e-05
2.50933e-05
2.44942e-05
2.39123e-05
2.32899e-05
2.25865e-05
2.16845e-05
2.06663e-05
1.96611e-05
1.88024e-05
1.82263e-05
1.80527e-05
1.80333e-05
1.82132e-05
1.80305e-05
1.94139e-05
1.2111e-05
9.80818e-06
1.70084e-05
)
;
    }
    sWall
    {
        type            calculated;
        value           uniform -0.000152458;
    }
    nWall
    {
        type            calculated;
        value           nonuniform List<scalar> 6(-3.82675e-05 -4.24324e-05 -4.63358e-05 -4.88978e-05 -5.69727e-05 -7.57621e-05);
    }
    sideWalls
    {
        type            empty;
        value           nonuniform 0();
    }
    glass1
    {
        type            calculated;
        value           nonuniform List<scalar> 9(-3.26057e-05 -9.28985e-05 -0.000150847 -0.000208186 -0.000265628 -0.000323464 -0.000380832 -0.000435998 -0.000485431);
    }
    glass2
    {
        type            calculated;
        value           nonuniform List<scalar> 2(-0.000216164 -0.000221246);
    }
    sun
    {
        type            calculated;
        value           uniform 0;
    }
    heatsource1
    {
        type            calculated;
        value           nonuniform List<scalar> 3(2.03085e-07 2.03306e-07 2.03807e-07);
    }
    heatsource2
    {
        type            calculated;
        value           nonuniform List<scalar> 4(4.95784e-08 5.00267e-08 0 0);
    }
    Table_master
    {
        type            calculated;
        value           nonuniform List<scalar> 9(-1.53086e-07 -1.53171e-07 -1.53182e-07 -1.53193e-07 -1.53203e-07 -1.53211e-07 -1.53224e-07 -1.53239e-07 -1.53189e-07);
    }
    Table_slave
    {
        type            calculated;
        value           nonuniform List<scalar> 9(1.52241e-07 1.52261e-07 1.52298e-07 1.52358e-07 1.52445e-07 1.52558e-07 1.52671e-07 1.52651e-07 1.52519e-07);
    }
    inlet
    {
        type            calculated;
        value           uniform -0.000125275;
    }
    outlet
    {
        type            calculated;
        value           nonuniform List<scalar> 2(-0.00460844 0.00688035);
    }
}


// ************************************************************************* //
