/*--------------------------------*- C++ -*----------------------------------*\
  =========                 |
  \\      /  F ield         | OpenFOAM: The Open Source CFD Toolbox
   \\    /   O peration     | Website:  https://openfoam.org
    \\  /    A nd           | Version:  6
     \\/     M anipulation  |
\*---------------------------------------------------------------------------*/
FoamFile
{
    version     2.0;
    format      ascii;
    class       volScalarField;
    location    "300";
    object      alphat;
}
// * * * * * * * * * * * * * * * * * * * * * * * * * * * * * * * * * * * * * //

dimensions      [1 -1 -1 0 0 0 0];

internalField   nonuniform List<scalar> 
459
(
0.000932792
0.00099393
0.000943012
0.000914523
0.000882227
0.000862663
0.000858233
0.000857161
0.000857423
0.000858673
0.000860304
0.000861473
0.000860348
0.000853529
0.000833839
0.000369282
0.000336243
0.000279656
0.000249126
0.000239552
0.000239866
0.000244997
0.000252275
0.00025679
0.000257959
0.000256277
0.000261846
0.000279499
0.000315801
0.000370391
0.000455742
0.000478847
0.000550668
0.000503746
0.00143458
0.00411865
0.00404193
0.00405077
0.00383194
0.00360428
0.00348316
0.0034773
0.00350841
0.00352806
0.00348043
0.00334119
0.00308264
0.00263266
0.00189007
0.000910707
0.000610421
0.000508063
0.0011855
0.00108808
0.000940083
0.000834128
0.000779899
0.00079385
0.000845998
0.000888241
0.000910164
0.000930911
0.000971525
0.00106412
0.0012384
0.00149682
0.00182816
0.00191335
0.00227439
0.000701473
0.00177883
0.00611189
0.00649979
0.00699216
0.00663452
0.00591133
0.00520175
0.00477518
0.00462702
0.00469412
0.00471889
0.00457063
0.00424218
0.00370436
0.00289859
0.00187983
0.0009315
0.00064798
0.00151437
0.0011526
0.000828123
0.000618122
0.000467633
0.000349908
0.000369537
0.000394017
0.000423191
0.000458882
0.000504144
0.000563241
0.00064272
0.000752018
0.00209999
0.00224185
0.00276455
0.000809847
0.00183305
0.00382555
0.0045722
0.00580053
0.00678443
0.00717487
0.00707914
0.0066086
0.00591521
0.00563801
0.00571367
0.00571084
0.00549388
0.00505631
0.00433803
0.0032533
0.00190163
0.000903806
0.00176404
0.00219417
0.00181797
0.00149879
0.00122727
0.000937613
0.000680043
0.000670348
0.000664276
0.000661543
0.000663348
0.000671296
0.000688034
0.000719072
0.000776562
0.00232158
0.00224604
0.00219264
0.000761235
0.00306373
0.00336341
0.00340289
0.00376382
0.00458982
0.00557421
0.00636414
0.00677571
0.00679569
0.00668871
0.0066503
0.00677951
0.00682318
0.00672908
0.00654209
0.00624596
0.00581919
0.00526082
0.00469342
0.00433564
0.00412819
0.00403771
0.00394043
0.00382034
0.0036973
0.00361108
0.00352601
0.00344061
0.0033546
0.00326838
0.00318413
0.00310822
0.0030458
0.00297125
0.00249251
0.00184055
0.0012474
0.00073558
0.000761941
0.000793726
0.00384676
0.0043951
0.00409126
0.0038713
0.00411222
0.00476426
0.00553728
0.00616903
0.00654585
0.00672161
0.00693709
0.00735111
0.00758111
0.00766953
0.00766484
0.00757846
0.00736107
0.00697223
0.00647621
0.00600663
0.00566472
0.00542701
0.00525427
0.00511654
0.00499158
0.00487132
0.00475717
0.00464948
0.00454575
0.00444182
0.00433213
0.00421054
0.00406849
0.00387085
0.00352405
0.00298925
0.00234288
0.00181406
0.00146058
0.000996192
0.00423535
0.0054251
0.00551918
0.00453021
0.0042591
0.00456449
0.00513678
0.00569915
0.006094
0.00631469
0.00649261
0.00682527
0.00763957
0.00799214
0.00814963
0.00817696
0.0080841
0.00784183
0.00746978
0.00705706
0.0066878
0.00638055
0.00613034
0.00592147
0.00573724
0.00556933
0.00541768
0.00528218
0.00516061
0.00504949
0.00494499
0.00484452
0.0047467
0.0046369
0.00445874
0.00411848
0.00351635
0.00272383
0.00208665
0.00118209
0.00468415
0.0061511
0.0081225
0.00536672
0.00457286
0.00468912
0.00506412
0.00548234
0.00578563
0.00594344
0.00602813
0.00620302
0.00669963
0.00748085
0.00804476
0.00825809
0.00828885
0.00820486
0.00800369
0.0077223
0.00741512
0.00711578
0.00684088
0.00659297
0.00636842
0.00616398
0.00598019
0.00581737
0.00567433
0.00554894
0.00543901
0.00534353
0.00526262
0.00519052
0.0051023
0.00494548
0.00462257
0.00394587
0.00307214
0.00135553
0.00530801
0.00648688
0.0114794
0.00683914
0.00506766
0.00529566
0.0053719
0.00556988
0.00573853
0.00580797
0.00581968
0.00588542
0.00616685
0.00674491
0.00742902
0.00784197
0.00803273
0.00811885
0.00810881
0.00800162
0.00782369
0.00760874
0.00738349
0.00716289
0.00695333
0.00675765
0.00657788
0.00641501
0.00626899
0.00613908
0.00602411
0.0059227
0.00583268
0.00574848
0.00565713
0.00553592
0.00534572
0.00498546
0.00415889
0.00154102
0.0165882
0.00964414
0.00567077
0.00642749
0.00621866
0.00609189
0.00610132
0.00609773
0.00608022
0.00611155
0.00626523
0.00656856
0.00695496
0.0073094
0.00761104
0.00789017
0.00808179
0.0081506
0.00811253
0.00800625
0.00786809
0.00772179
0.00757894
0.00744352
0.007316
0.00719575
0.00708219
0.00697511
0.00687445
0.00677956
0.00668834
0.00659611
0.00649409
0.00636664
0.00617971
0.00583164
0.00490918
0.00180066
0.00476524
0.00542978
0.00651469
0.00645647
0.00602028
0.00579969
0.00576999
0.00579297
0.00586195
0.00600561
0.00624932
0.00659926
0.00704747
0.00757983
0.00810913
0.00847628
0.00864683
0.00864924
0.00854823
0.00841024
0.00828127
0.00818182
0.00811274
0.00806455
0.00802528
0.00798525
0.00793895
0.00788484
0.00782395
0.00775766
0.00768505
0.00760032
0.00749063
0.00733474
0.00709926
0.00671695
0.00601619
0.00218165
0.00140815
0.00139427
0.00247701
0.00215725
0.00190422
0.00187231
0.0018772
0.00182733
0.0017937
0.00176173
0.00173601
0.00171982
0.00171529
0.00172363
0.00174513
0.00177943
0.00182478
0.001881
0.00193087
0.00196415
0.00197923
0.00197999
0.00197226
0.00196129
0.00195055
0.00194159
0.00193444
0.00192826
0.00192208
0.00191521
0.00190744
0.00189897
0.00189007
0.00188059
0.00186928
0.00185335
0.00182831
0.00178946
0.0017439
0.00155762
)
;

boundaryField
{
    floor
    {
        type            compressible::alphatWallFunction;
        Prt             0.85;
        value           nonuniform List<scalar> 
29
(
0.000118826
4.90056e-05
4.3715e-05
3.4478e-05
2.93873e-05
2.77755e-05
2.78253e-05
2.86887e-05
2.99116e-05
3.06691e-05
3.08665e-05
3.05843e-05
3.15092e-05
3.44312e-05
4.03708e-05
4.91424e-05
6.25427e-05
6.61013e-05
7.71057e-05
6.99723e-05
6.99715e-05
9.95977e-05
0.000115413
0.000108379
0.000118825
4.90049e-05
7.06407e-05
9.17059e-05
0.000128874
)
;
    }
    ceiling
    {
        type            compressible::alphatWallFunction;
        Prt             0.85;
        value           nonuniform List<scalar> 
43
(
0.000199207
0.000197311
0.000338963
0.000297931
0.000264989
0.000260823
0.000261479
0.000254921
0.000250493
0.000246271
0.000242867
0.00024072
0.000240117
0.000241224
0.00024407
0.000248606
0.000254596
0.000261991
0.000268517
0.000272851
0.000274805
0.000274896
0.000273884
0.000272452
0.000271052
0.000269883
0.000268946
0.000268136
0.000267324
0.00026642
0.000265399
0.000264286
0.000263119
0.000261876
0.000260395
0.000258303
0.000255011
0.000249891
0.000243871
0.000219077
0.000683934
0.000821355
0.000619541
)
;
    }
    sWall
    {
        type            compressible::alphatWallFunction;
        Prt             0.85;
        value           uniform 0.000198397;
    }
    nWall
    {
        type            compressible::alphatWallFunction;
        Prt             0.85;
        value           nonuniform List<scalar> 6(0.000112956 0.00014186 0.000167794 0.000251117 0.000300799 0.000218828);
    }
    sideWalls
    {
        type            empty;
    }
    glass1
    {
        type            compressible::alphatWallFunction;
        Prt             0.85;
        value           nonuniform List<scalar> 9(0.000130367 0.000199004 0.000244597 0.000251806 0.00040862 0.00050481 0.000551631 0.000605178 0.000678826);
    }
    glass2
    {
        type            compressible::alphatWallFunction;
        Prt             0.85;
        value           nonuniform List<scalar> 2(0.000191498 0.000216536);
    }
    sun
    {
        type            compressible::alphatWallFunction;
        Prt             0.85;
        value           nonuniform List<scalar> 
14
(
0.000133014
0.000141652
0.000134458
0.000130411
0.000125801
0.000122995
0.000122358
0.000122202
0.000122235
0.000122409
0.000122637
0.000122798
0.000122632
0.000121652
)
;
    }
    heatsource1
    {
        type            compressible::alphatWallFunction;
        Prt             0.85;
        value           nonuniform List<scalar> 3(0.000104517 0.000108364 0.000112976);
    }
    heatsource2
    {
        type            compressible::alphatWallFunction;
        Prt             0.85;
        value           nonuniform List<scalar> 4(0.000129746 8.59974e-05 8.59963e-05 0.00013272);
    }
    Table_master
    {
        type            compressible::alphatWallFunction;
        Prt             0.85;
        value           nonuniform List<scalar> 9(4.58412e-05 4.89765e-05 5.28569e-05 5.7441e-05 6.29948e-05 6.99603e-05 7.89392e-05 9.08349e-05 0.000106908);
    }
    Table_slave
    {
        type            compressible::alphatWallFunction;
        Prt             0.85;
        value           nonuniform List<scalar> 9(9.63651e-05 9.49327e-05 9.40346e-05 9.36299e-05 9.38966e-05 9.50713e-05 9.75402e-05 0.000102099 0.000110483);
    }
    inlet
    {
        type            fixedValue;
        value           uniform 1.94e-05;
    }
    outlet
    {
        type            zeroGradient;
    }
}


// ************************************************************************* //
