/*--------------------------------*- C++ -*----------------------------------*\
  =========                 |
  \\      /  F ield         | OpenFOAM: The Open Source CFD Toolbox
   \\    /   O peration     | Website:  https://openfoam.org
    \\  /    A nd           | Version:  6
     \\/     M anipulation  |
\*---------------------------------------------------------------------------*/
FoamFile
{
    version     2.0;
    format      ascii;
    class       surfaceScalarField;
    location    "200";
    object      phi;
}
// * * * * * * * * * * * * * * * * * * * * * * * * * * * * * * * * * * * * * //

dimensions      [1 0 -1 0 0 0 0];

internalField   nonuniform List<scalar> 
852
(
-0.00249869
0.00256939
-0.00256014
6.16253e-05
-0.0025704
1.04445e-05
-0.00264462
7.43995e-05
-0.00272984
8.54104e-05
-0.00279769
6.80338e-05
-0.00283273
3.52182e-05
-0.00282259
-9.95757e-06
-0.00275409
-6.83168e-05
-0.00261287
-0.000141032
-0.00238661
-0.000226084
-0.0020648
-0.000321625
-0.00162163
-0.000442994
-0.000966665
-0.000654785
-0.000962812
-0.000795824
0.000803204
-0.000765272
-3.04208e-05
-0.00054116
-0.000223991
-0.000438509
-0.000102542
-0.000459437
2.10455e-05
-0.00054353
8.42145e-05
-0.000557383
1.39749e-05
-0.000389544
-0.00016772
-0.000226084
-0.000163346
0.000116981
-0.000342941
0.000357686
-0.00024058
0.000517918
-0.000160107
0.000648011
-0.00012997
0.000774762
-0.000126628
0.000903621
-0.000128734
0.00103994
-0.000136197
0.00117068
-0.000130613
0.00103306
0.00013773
0.00104052
-0.00179411
0.0045412
-0.00228819
0.000555888
-0.00247613
0.00019857
-0.00260336
0.000201815
-0.00270556
0.000187788
-0.00278048
0.000143141
-0.00282195
7.68706e-05
-0.00282232
-9.41255e-06
-0.00277345
-0.000117011
-0.00266549
-0.000248808
-0.00248585
-0.000405551
-0.0022176
-0.000589701
-0.0018481
-0.000812322
-0.00142385
-0.00107886
-0.00106804
-0.00131846
0.000171398
-0.00123932
0.000171528
0.00112127
-0.000301512
0.000986353
0.000104636
0.000542662
0.000219846
0.000323613
0.000116653
0.00027449
7.03069e-05
0.000141115
0.000217718
-3.57715e-05
0.000190961
-0.000157296
-4.60775e-05
-0.000122454
-0.000198081
-6.8947e-06
-0.00045838
5.86327e-05
-0.000305991
7.91897e-05
-0.000180547
6.66593e-05
-0.000117323
9.09935e-06
-6.89519e-05
-4.21132e-05
-7.73921e-05
7.72369e-05
-0.000255427
0.000364741
-0.000418
0.000416174
8.64044e-05
0.00147505
-0.00130245
0.00610198
-0.00195999
0.00121361
-0.00224997
0.000488734
-0.00242666
0.00037869
-0.00254622
0.000307528
-0.00263043
0.000227531
-0.00268483
0.000131446
-0.00270781
1.37415e-05
-0.00269653
-0.000128106
-0.00264845
-0.000296725
-0.00255927
-0.00049455
-0.00242566
-0.000723148
-0.00225522
-0.000982593
-0.00207981
-0.0012541
-0.00192929
-0.0014688
-0.00164004
-0.00152841
-0.00146835
-0.000536401
0.000253381
-0.000702129
0.000270494
-0.000634825
0.000152668
-0.000523153
5.10183e-06
-0.000309782
-0.000142946
0.000281319
-0.000373261
0.000472575
0.000426777
0.000228971
-0.000229139
-0.000534874
-0.000715164
-0.000832225
-0.000900905
-0.000978014
-0.0010758
-0.000157497
-0.00161979
0.000126123
-0.00171685
0.000183615
-0.000215303
-0.000937983
0.0073627
-0.00163379
0.00190961
-0.00193695
0.000792074
-0.00212956
0.000571486
-0.00225222
0.000430373
-0.00233396
0.000309445
-0.00238948
0.000187147
-0.00242418
4.86084e-05
-0.00244116
-0.000110952
-0.00244588
-0.000291833
-0.00244542
-0.000494847
-0.00245058
-0.000717823
-0.00248211
-0.000950896
-0.0025695
-0.00116654
-0.0027222
-0.00131594
-0.00291986
-0.00133058
-0.00338252
-0.00100554
-0.00279319
-0.000572572
-0.00232539
-0.000214278
-0.00203222
-2.25385e-05
-0.00184275
-3.66611e-05
-0.00172158
-0.000115923
-0.00163545
-0.000228914
-0.00170013
-0.000308415
-0.00142466
-0.000275461
-0.0011356
-0.000289057
-0.000822487
-0.000313101
-0.000488461
-0.00033402
-0.000142274
-0.000346183
0.000194368
-0.000336641
0.000495682
-0.000301312
0.000740101
-0.000244419
0.000891297
-0.000151196
0.000822273
-8.83188e-05
0.000879032
6.9531e-05
0.000804428
0.000258402
0.000611125
-0.000662274
0.00840211
-0.00134036
0.00258788
-0.0015007
0.000952612
-0.00161204
0.000683015
-0.00173101
0.000549535
-0.00182
0.000398612
-0.00187635
0.000243676
-0.00191125
8.368e-05
-0.00193423
-8.78069e-05
-0.00195756
-0.000268328
-0.00199497
-0.000457274
-0.0020586
-0.000654034
-0.00216043
-0.000848899
-0.00230713
-0.00101969
-0.00249325
-0.00112966
-0.00270393
-0.00111975
-0.00279014
-0.000919166
-0.00271848
-0.000644075
-0.0025187
-0.000413897
-0.00227232
-0.000268758
-0.00207019
-0.000238632
-0.00191034
-0.000275615
-0.00179156
-0.000347539
-0.00168981
-0.000410002
-0.00151918
-0.000445938
-0.00132181
-0.000486272
-0.00110987
-0.000524889
-0.000890225
-0.00055351
-0.00067216
-0.000564099
-0.000459481
-0.000549173
-0.000249457
-0.000511191
-2.93934e-05
-0.000464338
0.000239508
-0.000419952
0.000569854
-0.000418517
0.00107284
-0.000433289
0.00173041
-0.000398993
0.00280356
-0.000461844
0.00313007
-0.000326531
0.00245578
0.000674251
0.00250825
-0.000594169
0.00942117
-0.00112437
0.00311827
-0.000835269
0.000663722
-0.000650989
0.000498943
-0.000752397
0.000651147
-0.000913591
0.000560001
-0.00102873
0.000358997
-0.00110688
0.00016201
-0.00115933
-3.51868e-05
-0.00120191
-0.000225581
-0.0012625
-0.000396524
-0.00135452
-0.000561858
-0.00148532
-0.000717937
-0.00165417
-0.000850675
-0.00184977
-0.0009339
-0.00203967
-0.000929687
-0.00214118
-0.000817493
-0.00213897
-0.000646127
-0.00205734
-0.000495365
-0.00193149
-0.000394452
-0.00180973
-0.000360229
-0.00170817
-0.00037702
-0.0016308
-0.000424754
-0.00156168
-0.000478967
-0.00147976
-0.0005277
-0.00139125
-0.000574631
-0.00130328
-0.000612714
-0.00122301
-0.000633632
-0.00115663
-0.000630335
-0.00110461
-0.000601058
-0.00106096
-0.000554697
-0.00101359
-0.000511569
-0.000935192
-0.000498209
-0.000797281
-0.000556285
-0.000512631
-0.000717791
9.4931e-05
-0.0010064
0.000982646
-0.00134941
0.00176947
-0.0011132
0.00183978
0.000604085
0.00440632
-0.000780339
0.0106722
-0.000473043
0.00281117
0.000546657
-0.000355763
0.000991179
5.46383e-05
0.000832736
0.000809805
0.00058693
0.000806016
0.000360235
0.000585891
0.000152676
0.000369757
-2.58891e-05
0.000143556
-0.00016209
-8.92145e-05
-0.000276803
-0.00028165
-0.000408817
-0.000429686
-0.000571155
-0.000555442
-0.000763505
-0.000658167
-0.000971258
-0.000725991
-0.00116295
-0.000737837
-0.00129779
-0.000682494
-0.00135746
-0.000586303
-0.00136
-0.00049266
-0.00132859
-0.000425709
-0.00129102
-0.00039764
-0.00126342
-0.000404469
-0.00125249
-0.000435529
-0.00125489
-0.000476415
-0.00126646
-0.000515977
-0.00129351
-0.000547428
-0.00134548
-0.000560597
-0.00143344
-0.000545533
-0.00156684
-0.000496786
-0.00174995
-0.000417811
-0.00197945
-0.000325059
-0.00224136
-0.000249527
-0.00251575
-0.000223678
-0.00278121
-0.000290681
-0.00300099
-0.000497868
-0.00309749
-0.000909761
-0.00285936
-0.00158739
-0.00177703
-0.00219538
-5.27465e-05
-0.00112006
0.00442367
0.0023908
0.00881288
0.00358591
0.00161625
0.00419128
-0.000960938
0.00368084
0.000565273
0.00306427
0.00142658
0.00258916
0.00128133
0.00216371
0.00101153
0.0017966
0.000737059
0.001485
0.000455335
0.00120379
0.000192174
0.000958512
-3.62054e-05
0.000745173
-0.000216187
0.00053381
-0.000343921
0.000309338
-0.00043354
7.60826e-05
-0.00049258
-0.00014193
-0.00051967
-0.000315635
-0.000508633
-0.000433223
-0.000468559
-0.000504919
-0.000420809
-0.000547248
-0.000383223
-0.000578849
-0.000365884
-0.000613864
-0.0003693
-0.0006611
-0.000388139
-0.000724053
-0.000413308
-0.000805449
-0.000434429
-0.000914222
-0.000438504
-0.00106483
-0.000409836
-0.00127909
-0.000331129
-0.00158346
-0.000192273
-0.00199967
-1.46903e-06
-0.00254736
0.000222778
-0.00324653
0.000449775
-0.00408416
0.000614094
-0.00501302
0.000638325
-0.00595755
0.000446804
-0.00688192
1.47467e-05
-0.00793923
-0.000529936
-0.00900063
-0.00113382
-0.00793538
-0.00218516
-0.00316617
0.00941004
0.0110247
0.00977688
0.000287021
0.00657716
0.00376516
0.00531474
0.00268918
0.0044051
0.00219114
0.00368105
0.00173577
0.00315957
0.00125871
0.00278433
0.000830756
0.00248561
0.000491061
0.00221044
0.000239127
0.00194259
5.18233e-05
0.00168569
-8.68603e-05
0.00143652
-0.000184214
0.00119179
-0.000247692
0.00095837
-0.000286093
0.000752133
-0.000302243
0.000584346
-0.000300618
0.000454429
-0.000290738
0.00035371
-0.000282351
0.000269663
-0.000281683
0.000190316
-0.0002898
0.000106253
-0.000303923
1.18933e-05
-0.000318796
-9.37414e-05
-0.000328641
-0.000208614
-0.00032348
-0.000328449
-0.000289849
-0.00044758
-0.000211847
-0.000563072
-7.66329e-05
-0.000690794
0.0001264
-0.000844066
0.000376194
-0.00102594
0.000631788
-0.00123712
0.000825418
-0.00148495
0.000886296
-0.00181754
0.000779535
-0.00234993
0.000547282
-0.00310166
0.000221941
-0.00386145
-0.000373886
-0.00360168
-0.00244478
-0.00640173
-0.00304721
0.00393041
-0.000470668
0.00118879
0.00181365
0.000405028
0.00252997
0.00147499
0.00273986
0.00152605
0.00281223
0.00118651
0.00282038
0.00082277
0.00278306
0.000528549
0.00271163
0.000310714
0.00260747
0.000156152
0.00247116
4.9601e-05
0.00230908
-2.19698e-05
0.00212899
-6.74489e-05
0.00193876
-9.57138e-05
0.00175055
-0.000113879
0.00157684
-0.00012675
0.00142487
-0.000138616
0.00129484
-0.000152162
0.00118133
-0.000168025
0.00107667
-0.000184984
0.000973637
-0.000200741
0.000867661
-0.000212668
0.000757695
-0.000218522
0.000649391
-0.000215024
0.000555613
-0.000195918
0.000491862
-0.000147943
0.000468
-5.26168e-05
0.000494897
9.9656e-05
0.000578426
0.000292816
0.00070835
0.000502012
0.000865157
0.000668758
0.00102167
0.000729932
0.00115054
0.000650809
0.00126622
0.000431748
0.00144221
4.61009e-05
0.00170493
-0.00063646
0.00144784
-0.00218754
-0.00487594
-0.00174754
0.00568074
-0.000754674
0.000196091
0.000271736
-0.000621234
0.00114217
0.000604712
0.00176633
0.000902057
0.0022265
0.000726509
0.00253379
0.000515646
0.00271808
0.000344412
0.00281116
0.0002178
0.00283902
0.000128449
0.00281979
6.89909e-05
0.0027663
3.16773e-05
0.00269048
8.52626e-06
0.00260062
-5.70462e-06
0.00250283
-1.59327e-05
0.00240172
-2.54861e-05
0.00230046
-3.72009e-05
0.00220024
-5.1794e-05
0.00210047
-6.81032e-05
0.00199968
-8.4034e-05
0.00189662
-9.7529e-05
0.00179131
-0.000107213
0.00168585
-0.000112909
0.00158606
-0.000115082
0.0015029
-0.000112608
0.0014518
-9.66874e-05
0.00144793
-4.85926e-05
0.00152348
2.42707e-05
0.00169447
0.000121977
0.00195051
0.000246134
0.00226567
0.000353752
0.0025951
0.000400655
0.00288217
0.000363898
0.00307302
0.000241045
0.00309965
1.96285e-05
0.00285538
-0.000392034
0.00185253
-0.00118452
-0.0029298
-0.00535445
-0.00570971
-2.4418e-05
0.000176047
-0.000440462
0.000168649
0.00107536
0.0018071
0.00232862
0.0026796
0.00290468
0.00304112
0.00311884
0.00315997
0.00317869
0.00318389
0.00317958
0.00316638
0.00314211
0.00310386
0.00304988
0.00298054
0.00289826
0.00280686
0.00271033
0.00261217
0.002517
0.00243819
0.00240781
0.00245047
0.0025908
0.00285517
0.00322704
0.00364576
0.00402779
0.0042872
0.00432572
0.00395319
0.00278869
)
;

boundaryField
{
    floor
    {
        type            calculated;
        value           nonuniform List<scalar> 
29
(
0
0
0
0
0
0
0
0
0
0
0
0
0
0
0
0
0
0
0
0
-7.3513e-06
-1.82454e-05
-2.63407e-05
-2.1831e-05
-3.67571e-06
-7.23728e-06
-1.64384e-05
-1.83448e-05
-1.66114e-05
)
;
    }
    ceiling
    {
        type            calculated;
        value           nonuniform List<scalar> 
43
(
-5.99386e-06
-5.26719e-06
-4.37704e-06
-4.21198e-06
-4.60117e-06
-4.25056e-06
-4.49893e-06
-5.06763e-06
-5.71904e-06
-6.40745e-06
-7.1167e-06
-7.83939e-06
-8.57045e-06
-9.30508e-06
-1.00379e-05
-1.07602e-05
-1.14631e-05
-1.21393e-05
-1.27828e-05
-1.33928e-05
-1.39755e-05
-1.45414e-05
-1.5101e-05
-1.56606e-05
-1.62197e-05
-1.67685e-05
-1.72841e-05
-1.77272e-05
-1.80538e-05
-1.82202e-05
-1.81878e-05
-1.80673e-05
-1.79511e-05
-1.79001e-05
-1.79625e-05
-1.81976e-05
-1.87241e-05
-1.93424e-05
-1.98596e-05
-2.06273e-05
3.09935e-06
1.7809e-06
-2.60973e-06
)
;
    }
    sWall
    {
        type            calculated;
        value           uniform -0.000119932;
    }
    nWall
    {
        type            calculated;
        value           nonuniform List<scalar> 6(-5.25117e-05 -5.81363e-05 -6.9954e-05 -7.77866e-05 -9.34504e-05 -0.000120324);
    }
    sideWalls
    {
        type            empty;
        value           nonuniform 0();
    }
    glass1
    {
        type            calculated;
        value           nonuniform List<scalar> 9(-7.05202e-05 -0.000177534 -0.000258173 -0.000322572 -0.000376973 -0.000424737 -0.000470531 -0.000531327 -0.000600104);
    }
    glass2
    {
        type            calculated;
        value           nonuniform List<scalar> 2(-0.000345389 -0.000365968);
    }
    sun
    {
        type            calculated;
        value           uniform 0;
    }
    heatsource1
    {
        type            calculated;
        value           nonuniform List<scalar> 3(2.05393e-07 2.05491e-07 2.05857e-07);
    }
    heatsource2
    {
        type            calculated;
        value           nonuniform List<scalar> 4(5.16435e-08 5.18381e-08 0 0);
    }
    Table_master
    {
        type            calculated;
        value           nonuniform List<scalar> 9(-1.5594e-07 -1.56081e-07 -1.56206e-07 -1.563e-07 -1.56231e-07 -1.561e-07 -1.55995e-07 -1.55903e-07 -1.55784e-07);
    }
    Table_slave
    {
        type            calculated;
        value           nonuniform List<scalar> 9(1.54593e-07 1.54685e-07 1.54773e-07 1.54869e-07 1.54972e-07 1.55016e-07 1.54961e-07 1.54883e-07 1.54837e-07);
    }
    inlet
    {
        type            calculated;
        value           uniform -0.000595971;
    }
    outlet
    {
        type            calculated;
        value           nonuniform List<scalar> 2(0.00548055 0.000360701);
    }
}


// ************************************************************************* //
