// -*- C++ -*-
// File generated by PyFoam - sorry for the ugliness

FoamFile
{
 version 2.0;
 format ascii;
 class volVectorField;
 location "200";
 object U;
}

dimensions [ 0 1 -1 0 0 0 0 ];

internalField nonuniform List<vector> 459
(
  (0.111046 0.0674242 0)
  (-0.140404 -0.00212351 0)
  (-0.108791 -0.000671777 0)
  (-0.111591 0.00115227 0)
  (-0.115298 0.00127027 0)
  (-0.118734 0.000604806 0)
  (-0.121049 -0.000503104 0)
  (-0.12169 -0.00197919 0)
  (-0.120153 -0.00386215 0)
  (-0.115878 -0.00624889 0)
  (-0.107958 -0.0092013 0)
  (-0.0949061 -0.0129766 0)
  (-0.0760742 -0.0184772 0)
  (-0.0579975 -0.0272773 0)
  (-0.0655122 -0.0380279 0)
  (0.0314509 0.0162371 0)
  (-0.040853 -0.00896827 0)
  (-0.0252902 -0.00926609 0)
  (-0.0217434 -0.00361826 0)
  (-0.0200725 0.000131203 0)
  (-0.0227689 -0.000606747 0)
  (-0.024682 -0.0058735 0)
  (-0.0196399 -0.00892496 0)
  (-0.012062 -0.0103993 0)
  (-0.00322187 -0.0161016 0)
  (0.00964565 -0.0118803 0)
  (0.018985 -0.00875477 0)
  (0.0254157 -0.00679435 0)
  (0.0306852 -0.00558849 0)
  (0.0358901 -0.00479108 0)
  (0.0409858 -0.00519431 0)
  (0.0459836 -0.00689709 0)
  (0.0543978 -0.000422824 0)
  (-0.0105069 0.0244875 0)
  (0.318623 0.148796 0)
  (-0.166991 0.0107911 0)
  (-0.100003 0.00364524 0)
  (-0.108852 0.00594874 0)
  (-0.113925 0.00611259 0)
  (-0.117844 0.00490515 0)
  (-0.120415 0.00282458 0)
  (-0.121399 -1.00805e-05 0)
  (-0.120427 -0.003654 0)
  (-0.117168 -0.00817186 0)
  (-0.110979 -0.0135682 0)
  (-0.100984 -0.0199965 0)
  (-0.0867378 -0.0282476 0)
  (-0.069858 -0.0396965 0)
  (-0.0541056 -0.0526753 0)
  (-0.0391139 -0.0574785 0)
  (0.0284215 0.00563097 0)
  (0.133087 0.0159063 0)
  (0.0539173 0.00928062 0)
  (0.0238142 0.00358494 0)
  (0.0134833 0.00196006 0)
  (0.0115504 0.00351633 0)
  (0.00802416 0.00887215 0)
  (0.00454869 0.00723064 0)
  (-0.00551466 -0.00582876 0)
  (-0.00185605 -0.00948754 0)
  (-0.00319881 -0.0184121 0)
  (-0.00180246 -0.0127687 0)
  (0.00305354 -0.00815485 0)
  (0.00325882 -0.00619534 0)
  (0.00214523 -0.00525126 0)
  (0.000779655 -0.00643402 0)
  (0.00235922 -0.0131414 0)
  (0.00469239 -0.0197068 0)
  (0.033596 -0.00379082 0)
  (-0.089366 0.0521188 0)
  (0.48388 0.22691 0)
  (-0.210356 0.037003 0)
  (-0.0832809 0.0142216 0)
  (-0.100053 0.0120718 0)
  (-0.106842 0.0103269 0)
  (-0.111202 0.00764499 0)
  (-0.114197 0.00406382 0)
  (-0.115922 -0.000483154 0)
  (-0.116161 -0.00605158 0)
  (-0.114873 -0.0127948 0)
  (-0.111842 -0.0207948 0)
  (-0.106831 -0.0301267 0)
  (-0.0999707 -0.0409433 0)
  (-0.0920921 -0.0528156 0)
  (-0.0844338 -0.0627941 0)
  (-0.0794368 -0.0653157 0)
  (-0.0850343 -0.0591711 0)
  (0.0872956 -0.00327383 0)
  (-0.0390061 0.00822882 0)
  (-0.0305413 0.0102902 0)
  (-0.024833 0.00535221 0)
  (-0.0178947 0.000225121 0)
  (-0.0111607 -0.00481083 0)
  (0.022133 0.00392683 0)
  (0.0248662 -0.000209454 0)
  (0.0198438 -0.00571015 0)
  (1.995e-05 -0.0155201 0)
  (-0.020025 -0.0116318 0)
  (-0.027427 -0.00758128 0)
  (-0.0340154 -0.0053384 0)
  (-0.0391508 -0.00390934 0)
  (-0.0408936 -0.00334721 0)
  (-0.0336813 -0.00386144 0)
  (-0.0484087 0.00426129 0)
  (-0.0814585 0.0208299 0)
  (-0.176503 0.0399645 0)
  (0.610856 0.290578 0)
  (-0.24795 0.0682814 0)
  (-0.0630993 0.0278973 0)
  (-0.0853905 0.0202286 0)
  (-0.0943552 0.0156002 0)
  (-0.0985968 0.0113414 0)
  (-0.101459 0.00667422 0)
  (-0.103401 0.00110105 0)
  (-0.104462 -0.00552251 0)
  (-0.104792 -0.0132536 0)
  (-0.10473 -0.0221461 0)
  (-0.104595 -0.0321084 0)
  (-0.105026 -0.0427578 0)
  (-0.107047 -0.052803 0)
  (-0.112218 -0.0591117 0)
  (-0.123281 -0.0559638 0)
  (-0.139237 -0.0330359 0)
  (-0.134321 0.021571 0)
  (-0.102308 0.00434347 0)
  (-0.0954625 0.00690015 0)
  (-0.0824667 0.00244089 0)
  (-0.0761259 -0.00325016 0)
  (-0.0723356 -0.00942394 0)
  (-0.072039 -0.0146163 0)
  (-0.0678461 -0.0117244 0)
  (-0.0549937 -0.01199 0)
  (-0.0419025 -0.0130961 0)
  (-0.0281657 -0.0142068 0)
  (-0.0142701 -0.0150903 0)
  (0.00124987 -0.0150752 0)
  (0.0148276 -0.0137327 0)
  (0.0261977 -0.0115402 0)
  (0.0371855 -0.00742451 0)
  (0.0381662 -0.00396187 0)
  (0.0389619 0.00443729 0)
  (0.0440656 0.00755214 0)
  (-0.0754552 0.00574488 0)
  (0.705295 0.341773 0)
  (-0.274531 0.101058 0)
  (-0.0433843 0.0405622 0)
  (-0.0607342 0.0283027 0)
  (-0.0719135 0.0208923 0)
  (-0.0766771 0.0146859 0)
  (-0.0795194 0.00881111 0)
  (-0.081389 0.0024989 0)
  (-0.0825593 -0.00453797 0)
  (-0.0833212 -0.0122872 0)
  (-0.0844717 -0.0207584 0)
  (-0.086476 -0.0298382 0)
  (-0.0898708 -0.0390712 0)
  (-0.095206 -0.0474819 0)
  (-0.102872 -0.053524 0)
  (-0.112197 -0.0549961 0)
  (-0.11906 -0.0480313 0)
  (-0.11925 -0.0292026 0)
  (-0.11231 -0.0155214 0)
  (-0.102765 -0.00758945 0)
  (-0.0926839 -0.00664551 0)
  (-0.0849924 -0.00881128 0)
  (-0.0793462 -0.0124576 0)
  (-0.0748572 -0.0155226 0)
  (-0.0689956 -0.0160492 0)
  (-0.0609571 -0.0176056 0)
  (-0.0521021 -0.0191998 0)
  (-0.0428256 -0.0205445 0)
  (-0.0334866 -0.0212977 0)
  (-0.024228 -0.0209194 0)
  (-0.015272 -0.0192974 0)
  (-0.00636026 -0.0168583 0)
  (0.0045307 -0.0134832 0)
  (0.0168403 -0.0113818 0)
  (0.0353972 -0.0073167 0)
  (0.0661595 0.000409685 0)
  (0.0823303 0.00904133 0)
  (0.129788 0.00231764 0)
  (0.146709 0.0209489 0)
  (-0.0473785 0.073168 0)
  (0.762217 0.385881 0)
  (-0.29361 0.125953 0)
  (-0.0252656 0.0400428 0)
  (-0.0197145 0.0316772 0)
  (-0.0284974 0.0285474 0)
  (-0.0366248 0.0200008 0)
  (-0.0421896 0.0116839 0)
  (-0.0460598 0.00414158 0)
  (-0.0489096 -0.00350457 0)
  (-0.0505208 -0.0110921 0)
  (-0.0525338 -0.0186299 0)
  (-0.0556915 -0.0262812 0)
  (-0.0604149 -0.0337068 0)
  (-0.0669464 -0.0400654 0)
  (-0.0751625 -0.0440049 0)
  (-0.0839545 -0.0437446 0)
  (-0.0904947 -0.0379842 0)
  (-0.0925782 -0.0287777 0)
  (-0.0904755 -0.0206292 0)
  (-0.0856768 -0.0152503 0)
  (-0.080068 -0.0136894 0)
  (-0.0752115 -0.0147059 0)
  (-0.0714561 -0.0172125 0)
  (-0.0684304 -0.0198419 0)
  (-0.0651997 -0.0217682 0)
  (-0.0614551 -0.0237983 0)
  (-0.0575901 -0.02564 0)
  (-0.0539327 -0.0269344 0)
  (-0.0508 -0.0273426 0)
  (-0.0483361 -0.0266524 0)
  (-0.0464172 -0.0250916 0)
  (-0.0446432 -0.0232764 0)
  (-0.0419858 -0.0219828 0)
  (-0.0371726 -0.0226861 0)
  (-0.0271938 -0.025865 0)
  (-0.00894843 -0.0323375 0)
  (0.0156487 -0.0467463 0)
  (0.0473211 -0.0464198 0)
  (0.115233 0.0206813 0)
  (-0.0779555 0.133934 0)
  (0.784215 0.42642 0)
  (-0.296362 0.109797 0)
  (0.0133693 -0.0172891 0)
  (0.0482591 0.0171858 0)
  (0.043514 0.0362399 0)
  (0.0299394 0.030311 0)
  (0.0194647 0.0193857 0)
  (0.0107056 0.0100152 0)
  (0.00250404 0.000711354 0)
  (-0.00462876 -0.00838532 0)
  (-0.00923109 -0.0156272 0)
  (-0.0143608 -0.0219056 0)
  (-0.0206447 -0.0276924 0)
  (-0.0283582 -0.032638 0)
  (-0.0372127 -0.0358523 0)
  (-0.0461911 -0.0360647 0)
  (-0.0534339 -0.0326326 0)
  (-0.0575879 -0.0271793 0)
  (-0.0587339 -0.0219767 0)
  (-0.0578566 -0.0183331 0)
  (-0.0561538 -0.0169011 0)
  (-0.0546428 -0.0173238 0)
  (-0.0537921 -0.0189927 0)
  (-0.0536151 -0.0211023 0)
  (-0.0538695 -0.0231149 0)
  (-0.054583 -0.024936 0)
  (-0.0561301 -0.026224 0)
  (-0.0589797 -0.0266308 0)
  (-0.0636603 -0.0259622 0)
  (-0.070531 -0.024361 0)
  (-0.0794873 -0.0224116 0)
  (-0.0902345 -0.0208501 0)
  (-0.101815 -0.0205959 0)
  (-0.113282 -0.0235102 0)
  (-0.123534 -0.0322518 0)
  (-0.130998 -0.0495039 0)
  (-0.13193 -0.0732126 0)
  (-0.113737 -0.0834963 0)
  (-0.0204605 -0.024431 0)
  (-0.169334 0.247079 0)
  (0.886293 0.436442 0)
  (-0.0541564 0.0765989 0)
  (0.125647 -0.0849339 0)
  (0.186072 -0.0180815 0)
  (0.155795 0.0268826 0)
  (0.119954 0.0329897 0)
  (0.0992066 0.0270205 0)
  (0.0839703 0.0188025 0)
  (0.0703359 0.00954168 0)
  (0.0576906 1.5797e-05 0)
  (0.0457759 -0.00855617 0)
  (0.0365031 -0.0150239 0)
  (0.0276259 -0.0199289 0)
  (0.0182881 -0.0237357 0)
  (0.00835402 -0.0264296 0)
  (-0.00177939 -0.0274254 0)
  (-0.0103765 -0.0260997 0)
  (-0.0165971 -0.0232605 0)
  (-0.0205355 -0.0202532 0)
  (-0.0228019 -0.0179827 0)
  (-0.0242097 -0.0169478 0)
  (-0.0255111 -0.0171094 0)
  (-0.0272003 -0.0181498 0)
  (-0.0295106 -0.0195613 0)
  (-0.0325392 -0.0208383 0)
  (-0.0364774 -0.0214978 0)
  (-0.0417982 -0.0209397 0)
  (-0.0492556 -0.0185596 0)
  (-0.0600461 -0.0140686 0)
  (-0.0754544 -0.00779313 0)
  (-0.095533 -0.000493177 0)
  (-0.122295 0.00565818 0)
  (-0.155719 0.00795645 0)
  (-0.194656 0.00394125 0)
  (-0.237093 -0.00734426 0)
  (-0.279116 -0.024036 0)
  (-0.311302 -0.0398225 0)
  (-0.33919 -0.0446735 0)
  (-0.405033 -0.0223731 0)
  (-0.634394 0.0478663 0)
  (1.02674 0.38597 0)
  (0.485707 0.197348 0)
  (0.31433 0.0803913 0)
  (0.370802 0.105161 0)
  (0.276361 0.10255 0)
  (0.203677 0.0862103 0)
  (0.167536 0.067238 0)
  (0.144809 0.0485294 0)
  (0.126936 0.0315936 0)
  (0.112806 0.0175398 0)
  (0.101006 0.00643312 0)
  (0.089124 -0.0023466 0)
  (0.0778463 -0.00871996 0)
  (0.0670726 -0.0130854 0)
  (0.0564362 -0.0159481 0)
  (0.0459798 -0.0176239 0)
  (0.0363511 -0.0180923 0)
  (0.028242 -0.0175244 0)
  (0.0218938 -0.016508 0)
  (0.0170642 -0.0156353 0)
  (0.0132435 -0.0152889 0)
  (0.0098634 -0.0155403 0)
  (0.00645046 -0.0162415 0)
  (0.00269526 -0.0170932 0)
  (-0.00162615 -0.0177146 0)
  (-0.00635373 -0.017532 0)
  (-0.011384 -0.0158635 0)
  (-0.0164914 -0.0119325 0)
  (-0.0215438 -0.00519863 0)
  (-0.0259888 0.00431584 0)
  (-0.0319344 0.0155221 0)
  (-0.0393083 0.0271226 0)
  (-0.0483827 0.0362925 0)
  (-0.0592125 0.0395491 0)
  (-0.0722131 0.0330884 0)
  (-0.0892275 0.0130899 0)
  (-0.114311 -0.0240811 0)
  (-0.118681 -0.0819946 0)
  (-0.155042 -0.171841 0)
  (-0.562903 -0.280591 0)
  (-1.42864 0.0408547 0)
  (0.140057 0.131876 0)
  (0.0693714 0.0953274 0)
  (0.0909222 0.0902311 0)
  (0.110888 0.0767033 0)
  (0.119709 0.0577923 0)
  (0.121507 0.0396364 0)
  (0.120652 0.0249434 0)
  (0.118361 0.0139433 0)
  (0.114736 0.00590332 0)
  (0.109549 -0.00011784 0)
  (0.103001 -0.00457534 0)
  (0.095559 -0.00765365 0)
  (0.0874596 -0.0096962 0)
  (0.0791445 -0.0109187 0)
  (0.0712177 -0.0115029 0)
  (0.0641663 -0.0117003 0)
  (0.0581472 -0.0117592 0)
  (0.0530054 -0.011849 0)
  (0.0484166 -0.0120202 0)
  (0.044034 -0.0122249 0)
  (0.0395891 -0.0123498 0)
  (0.0349372 -0.0122566 0)
  (0.0301802 -0.0117027 0)
  (0.0257252 -0.0103114 0)
  (0.0222349 -0.00756224 0)
  (0.020382 -0.00289656 0)
  (0.0206326 0.00451135 0)
  (0.023017 0.0143746 0)
  (0.0275134 0.0249709 0)
  (0.0333889 0.0335261 0)
  (0.0397923 0.0372027 0)
  (0.0458416 0.0346943 0)
  (0.0505233 0.0278781 0)
  (0.055087 0.0200496 0)
  (0.0708168 0.00476655 0)
  (0.125475 -0.0720635 0)
  (-0.163484 -0.229331 0)
  (-0.635718 0.167403 0)
  (0.182807 0.0519851 0)
  (-0.0152094 -0.0116226 0)
  (0.0258478 0.0457821 0)
  (0.0635755 0.0556498 0)
  (0.0872362 0.0460572 0)
  (0.103045 0.0343529 0)
  (0.11354 0.0252097 0)
  (0.119571 0.0192264 0)
  (0.122111 0.0159941 0)
  (0.122163 0.0149743 0)
  (0.120472 0.01557 0)
  (0.117535 0.017147 0)
  (0.113853 0.0191503 0)
  (0.109731 0.0210844 0)
  (0.105375 0.0226618 0)
  (0.100967 0.0236812 0)
  (0.0966155 0.0241197 0)
  (0.0923299 0.0241268 0)
  (0.0880471 0.0239464 0)
  (0.0836893 0.0238223 0)
  (0.0792155 0.0239259 0)
  (0.0746579 0.0243007 0)
  (0.0701778 0.0249064 0)
  (0.066143 0.0257805 0)
  (0.0631444 0.0274431 0)
  (0.0619389 0.0309141 0)
  (0.0632264 0.0351585 0)
  (0.0683212 0.0389502 0)
  (0.0774429 0.0432155 0)
  (0.0897647 0.0467676 0)
  (0.103756 0.0477185 0)
  (0.117277 0.0449096 0)
  (0.127709 0.0382327 0)
  (0.132922 0.0264133 0)
  (0.130284 -0.000205243 0)
  (0.156213 -0.0593568 0)
  (-0.170374 -0.166472 0)
  (-0.020475 -0.232551 0)
  (-0.225169 -0.0125862 0)
  (-0.353032 0.219553 0)
  (0.237013 -0.0172863 0)
  (-0.0333263 -0.0541278 0)
  (-0.0220546 -0.00182607 0)
  (0.0318398 0.0143761 0)
  (0.0629389 0.00559177 0)
  (0.0888882 -0.00570992 0)
  (0.108267 -0.016473 0)
  (0.12105 -0.0265109 0)
  (0.128748 -0.0360735 0)
  (0.133091 -0.045328 0)
  (0.135397 -0.0542995 0)
  (0.136512 -0.0629346 0)
  (0.136917 -0.0710182 0)
  (0.136865 -0.0783559 0)
  (0.136457 -0.0849154 0)
  (0.135649 -0.0906999 0)
  (0.134321 -0.0958055 0)
  (0.132355 -0.100418 0)
  (0.129705 -0.104758 0)
  (0.126426 -0.109012 0)
  (0.122654 -0.113278 0)
  (0.118565 -0.117529 0)
  (0.114333 -0.121586 0)
  (0.110126 -0.125068 0)
  (0.106256 -0.127305 0)
  (0.103679 -0.127319 0)
  (0.103737 -0.12325 0)
  (0.107359 -0.112863 0)
  (0.115848 -0.0988025 0)
  (0.129514 -0.0854039 0)
  (0.146715 -0.0762142 0)
  (0.164326 -0.0729186 0)
  (0.17861 -0.0760626 0)
  (0.186481 -0.0867995 0)
  (0.181653 -0.100574 0)
  (0.189736 -0.123013 0)
  (-0.171889 -0.173829 0)
)
;

boundaryField
{
  floor
  {
    type noSlip;
  }
  ceiling
  {
    type noSlip;
  }
  sWall
  {
    type noSlip;
  }
  nWall
  {
    type noSlip;
  }
  sideWalls
  {
    type empty;
  }
  glass1
  {
    type noSlip;
  }
  glass2
  {
    type noSlip;
  }
  sun
  {
    type noSlip;
  }
  heatsource1
  {
    type noSlip;
  }
  heatsource2
  {
    type noSlip;
  }
  Table_master
  {
    type noSlip;
  }
  Table_slave
  {
    type noSlip;
  }
  inlet
  {
    type fixedValue;
    value uniform (0.1 0 0);
  }
  outlet
  {
    type zeroGradient;
  }
} 	// ************************************************************************* //

