/*--------------------------------*- C++ -*----------------------------------*\
  =========                 |
  \\      /  F ield         | OpenFOAM: The Open Source CFD Toolbox
   \\    /   O peration     | Website:  https://openfoam.org
    \\  /    A nd           | Version:  6
     \\/     M anipulation  |
\*---------------------------------------------------------------------------*/
FoamFile
{
    version     2.0;
    format      ascii;
    class       volScalarField;
    location    "730";
    object      alphat;
}
// * * * * * * * * * * * * * * * * * * * * * * * * * * * * * * * * * * * * * //

dimensions      [1 -1 -1 0 0 0 0];

internalField   nonuniform List<scalar> 
459
(
0.00101806
0.00110509
0.00112125
0.00117386
0.00122219
0.001267
0.00131024
0.00135448
0.00139291
0.00141915
0.00142783
0.00141342
0.00137049
0.00129434
0.00119037
0.000683778
0.000913186
0.000870866
0.000824526
0.000783604
0.000744496
0.000701323
0.000659306
0.000620934
0.000586629
0.000556027
0.00052848
0.00050339
0.000480098
0.000457775
0.000435149
0.00041165
0.000377382
0.000393468
0.00140642
0.0031803
0.00293995
0.00339705
0.00383683
0.00429769
0.00473879
0.00509212
0.00541207
0.00571255
0.0059558
0.00608791
0.00601885
0.00554075
0.00405493
0.00124029
0.000795058
0.000920775
0.00255061
0.00240624
0.00251114
0.00258509
0.00251499
0.00202274
0.00175693
0.00156838
0.00142113
0.00129697
0.00118873
0.00109092
0.000997935
0.000908433
0.000833714
0.000829228
0.000748582
0.000499345
0.0017355
0.00431858
0.00354735
0.00452375
0.00495153
0.00526795
0.00551589
0.00571887
0.00595083
0.00623846
0.00656003
0.00687677
0.00712832
0.00720267
0.00688
0.00555766
0.0012134
0.0011666
0.00210013
0.00275578
0.00319984
0.00343811
0.00320445
0.00094164
0.000832011
0.000745337
0.000676355
0.000620907
0.000575867
0.000539083
0.000509393
0.000486968
0.000548536
0.00070486
0.000842166
0.000547127
0.0020555
0.00558809
0.00345429
0.00475573
0.00511469
0.00518663
0.0051964
0.00524741
0.00540265
0.00567797
0.00605152
0.00649222
0.00695158
0.00732922
0.0075198
0.0071774
0.00555123
0.00149262
0.00223183
0.00301598
0.00371385
0.00420715
0.00444725
0.00402636
0.00103814
0.000952371
0.000897835
0.000861314
0.000833615
0.000807521
0.000777002
0.000745516
0.000707832
0.000677288
0.000723214
0.000962448
0.000615626
0.00238185
0.00724763
0.00367909
0.0044709
0.00498135
0.00491269
0.00475541
0.00471774
0.00486103
0.00514612
0.00554987
0.00604913
0.00659399
0.00703776
0.00732425
0.0073514
0.00696077
0.00597095
0.00577394
0.00577703
0.00579599
0.00577639
0.00569336
0.00543739
0.00462564
0.00430469
0.00415542
0.00406382
0.00397865
0.00386573
0.00367896
0.0032992
0.00276533
0.00214503
0.00162476
0.00145184
0.00102837
0.000700705
0.000689819
0.000661666
0.00272561
0.00907489
0.00506473
0.00408697
0.00463534
0.00473056
0.0046141
0.00445583
0.0046225
0.00491217
0.00533033
0.00585528
0.00640573
0.00687097
0.00716522
0.00725952
0.00719118
0.00703715
0.00694332
0.00683019
0.00666079
0.00644613
0.00621071
0.00596339
0.00569198
0.00550766
0.00538154
0.00528411
0.00519695
0.00509665
0.00494412
0.0046593
0.00419803
0.00357183
0.00288692
0.00236253
0.00183473
0.00142433
0.00155281
0.000825127
0.00306036
0.0104934
0.0076262
0.00497105
0.00439002
0.00447462
0.00457026
0.00457497
0.00467536
0.00492284
0.00534466
0.00590105
0.00648908
0.00698223
0.0072873
0.00739312
0.00738327
0.00734327
0.00726045
0.00707062
0.00679082
0.00647928
0.00618931
0.00595259
0.00577625
0.00565274
0.00555563
0.00547534
0.00541253
0.00535471
0.00526387
0.00510019
0.00481955
0.00437803
0.00382336
0.0032699
0.00269206
0.00215
0.00200787
0.000972919
0.00314516
0.0100424
0.00837668
0.00700008
0.00597484
0.00547658
0.00515287
0.004896
0.00486451
0.0051021
0.0055778
0.00619691
0.00682793
0.00733636
0.00763292
0.00771165
0.00765014
0.00749841
0.00725226
0.00692466
0.00659236
0.00630344
0.00607572
0.00590399
0.00576933
0.00564762
0.00552231
0.00539744
0.00529127
0.00520933
0.00511408
0.0049667
0.00480756
0.00460631
0.00427219
0.00390749
0.00350448
0.0028795
0.00305876
0.00122688
0.00307697
0.00371009
0.00429729
0.00447542
0.00448265
0.0044114
0.00438274
0.00450761
0.00484095
0.00538517
0.006067
0.00677539
0.0074057
0.00785493
0.00805923
0.00801828
0.0077907
0.00745301
0.00711241
0.00681773
0.00658387
0.00640559
0.00626648
0.00614421
0.0060151
0.00585758
0.00565827
0.00541948
0.00516116
0.00490235
0.00460851
0.00420111
0.00371542
0.00328942
0.00295047
0.00265903
0.00241758
0.00222199
0.00209223
0.00131377
0.00257149
0.00417409
0.00454572
0.00477262
0.00507512
0.00552072
0.00606737
0.00664602
0.00721253
0.00773611
0.00816986
0.00841064
0.0083966
0.00818179
0.00791651
0.00768527
0.00750053
0.00735092
0.00722834
0.00712526
0.00703125
0.00693251
0.00681116
0.0066447
0.00640768
0.00607768
0.00564702
0.00513735
0.00459724
0.00404939
0.0035325
0.00310061
0.00277894
0.00256763
0.00242614
0.00230262
0.00221997
0.00156119
0.00237036
0.00424742
0.00482811
0.00541063
0.00622165
0.00700139
0.00751851
0.0079855
0.00845341
0.00890618
0.00929541
0.00946721
0.00937598
0.00914088
0.00888945
0.00871304
0.00858862
0.00847034
0.00836439
0.00827285
0.00819663
0.00813629
0.00808758
0.00803447
0.00794337
0.00776351
0.00743952
0.00693809
0.00630237
0.00559876
0.00489269
0.00424562
0.00369887
0.00327165
0.00295032
0.00272686
0.00363232
0.00177049
0.00175466
0.00191495
0.00208442
0.00213546
0.00198576
0.00193072
0.00189888
0.00190335
0.00196532
0.00203415
0.00209666
0.00213952
0.00215229
0.00213304
0.00209609
0.00205975
0.00203363
0.0020133
0.00199702
0.00198579
0.00197739
0.00197152
0.00196797
0.00196569
0.00196216
0.00195309
0.00193309
0.00189763
0.00184626
0.00178648
0.00172371
0.00166216
0.00160636
0.00155966
0.00152504
0.00150288
0.00148773
0.00146972
0.00151585
0.00147205
)
;

boundaryField
{
    floor
    {
        type            compressible::alphatWallFunction;
        Prt             0.85;
        value           nonuniform List<scalar> 
29
(
0.000169198
9.71476e-05
0.000130361
0.000124319
0.000117662
0.000111746
0.000106058
9.97355e-05
9.35367e-05
8.78332e-05
8.26973e-05
7.80841e-05
7.39043e-05
7.00733e-05
6.64953e-05
6.30452e-05
5.95263e-05
5.58462e-05
5.04302e-05
5.29739e-05
5.29732e-05
6.94517e-05
7.67361e-05
8.70413e-05
0.000169196
9.71465e-05
0.000131441
0.000165914
0.00021038
)
;
    }
    ceiling
    {
        type            compressible::alphatWallFunction;
        Prt             0.85;
        value           nonuniform List<scalar> 
43
(
0.000245183
0.000266259
0.00028834
0.000295
0.000275577
0.000268399
0.000264239
0.000264836
0.000272953
0.000281932
0.000290057
0.000295614
0.00029727
0.000294782
0.000289999
0.000285284
0.000281891
0.000279246
0.000277125
0.000275662
0.000274566
0.0002738
0.000273337
0.00027304
0.000272579
0.000271394
0.000268781
0.000264138
0.000257397
0.000249525
0.000241228
0.000233061
0.000225627
0.000219385
0.000214743
0.000211765
0.000209728
0.000207301
0.00021351
0.000207618
0.00041451
0.000492523
0.000325143
)
;
    }
    sWall
    {
        type            compressible::alphatWallFunction;
        Prt             0.85;
        value           uniform 0.000244084;
    }
    nWall
    {
        type            compressible::alphatWallFunction;
        Prt             0.85;
        value           nonuniform List<scalar> 6(9.34631e-05 0.000117306 0.000138381 0.000219107 0.000246924 0.000207135);
    }
    sideWalls
    {
        type            empty;
    }
    glass1
    {
        type            compressible::alphatWallFunction;
        Prt             0.85;
        value           nonuniform List<scalar> 9(0.000142131 0.000195081 0.000238738 0.000280377 0.000322172 0.000365575 0.000407316 0.000417898 0.000409599);
    }
    glass2
    {
        type            compressible::alphatWallFunction;
        Prt             0.85;
        value           nonuniform List<scalar> 2(0.000173004 0.000184898);
    }
    sun
    {
        type            compressible::alphatWallFunction;
        Prt             0.85;
        value           nonuniform List<scalar> 
14
(
0.000145212
0.000157378
0.000159627
0.000166921
0.00017359
0.000179744
0.000185662
0.000191691
0.000196912
0.000200466
0.00020164
0.000199689
0.000193865
0.000183485
)
;
    }
    heatsource1
    {
        type            compressible::alphatWallFunction;
        Prt             0.85;
        value           nonuniform List<scalar> 3(9.9421e-05 9.78201e-05 9.36652e-05);
    }
    heatsource2
    {
        type            compressible::alphatWallFunction;
        Prt             0.85;
        value           nonuniform List<scalar> 4(0.000175831 0.000113175 0.000113174 0.000172129);
    }
    Table_master
    {
        type            compressible::alphatWallFunction;
        Prt             0.85;
        value           nonuniform List<scalar> 9(0.000134169 0.000118507 0.000105952 9.58333e-05 8.7609e-05 8.08621e-05 7.53035e-05 7.07823e-05 6.73456e-05);
    }
    Table_slave
    {
        type            compressible::alphatWallFunction;
        Prt             0.85;
        value           nonuniform List<scalar> 9(0.00014778 0.000135693 0.000127941 0.000122719 0.000118741 0.000114979 0.00011056 0.00010598 0.000100467);
    }
    inlet
    {
        type            fixedValue;
        value           uniform 1.94e-05;
    }
    outlet
    {
        type            zeroGradient;
    }
}


// ************************************************************************* //
