/*--------------------------------*- C++ -*----------------------------------*\
  =========                 |
  \\      /  F ield         | OpenFOAM: The Open Source CFD Toolbox
   \\    /   O peration     | Website:  https://openfoam.org
    \\  /    A nd           | Version:  6
     \\/     M anipulation  |
\*---------------------------------------------------------------------------*/
FoamFile
{
    version     2.0;
    format      ascii;
    class       volScalarField;
    location    "270";
    object      epsilon;
}
// * * * * * * * * * * * * * * * * * * * * * * * * * * * * * * * * * * * * * //

dimensions      [0 2 -3 0 0 0 0];

internalField   nonuniform List<scalar> 
459
(
0.000310159
0.000419627
0.000468986
0.000550729
0.000637815
0.000735252
0.000842495
0.000935609
0.000994709
0.000998225
0.000930152
0.000742797
0.000525832
0.000327979
0.000207343
4.42337e-05
0.0001023
0.000133102
0.000147494
0.000144951
0.000132785
0.000110213
8.90063e-05
7.21744e-05
5.919e-05
4.91193e-05
4.12401e-05
3.50151e-05
2.99565e-05
2.5686e-05
2.18777e-05
1.82917e-05
1.36619e-05
1.13028e-05
0.000672483
0.000869546
0.000385616
0.00038787
0.000417674
0.000471953
0.0005509
0.000632581
0.000689763
0.000698974
0.000653635
0.000548589
0.000427464
0.000328868
0.000238315
0.000395271
0.000196999
0.000177135
0.000335991
0.000180045
0.000141747
0.000122188
0.000109383
0.000108791
8.86401e-05
6.98809e-05
5.50355e-05
4.36561e-05
3.49892e-05
2.84059e-05
2.33518e-05
1.965e-05
1.76285e-05
1.96921e-05
1.83571e-05
2.23943e-05
0.00112799
0.00182854
0.000418453
0.000356425
0.000390328
0.000462851
0.000564268
0.000661962
0.000727619
0.000744165
0.000706014
0.000611207
0.000501649
0.000400717
0.000306886
0.00028584
0.000365062
0.000221524
0.000273815
0.000196991
0.000160259
0.00013647
0.000128437
0.000282485
0.000184598
0.000125476
8.8915e-05
6.54921e-05
4.99475e-05
3.94214e-05
3.22348e-05
2.7564e-05
2.12035e-05
2.11457e-05
2.46243e-05
3.05832e-05
0.00171629
0.0035489
0.000566079
0.000350336
0.000384498
0.00048546
0.000624179
0.000732051
0.00079852
0.000817947
0.000777465
0.000683714
0.000567941
0.000458921
0.000368954
0.000312894
0.000300775
0.000531711
0.000376679
0.00027034
0.00021249
0.000176733
0.000151865
0.000145769
0.000382329
0.0002841
0.000225586
0.000186967
0.00015852
0.000135396
0.000115755
9.74253e-05
7.88822e-05
4.5517e-05
3.13459e-05
4.21807e-05
4.43377e-05
0.00250033
0.00622499
0.000987942
0.000390472
0.000408722
0.0005864
0.000775353
0.000874094
0.00092895
0.000938687
0.000885054
0.000769789
0.000623047
0.000485264
0.000379776
0.000311021
0.000283139
0.000286869
0.000261907
0.000239976
0.00021768
0.000193894
0.000169797
0.000149561
0.00014801
0.000137093
0.000126231
0.000115821
0.000105278
9.42364e-05
8.27084e-05
7.09529e-05
5.95111e-05
4.61447e-05
3.52688e-05
4.58203e-05
4.8661e-05
6.43988e-05
6.11337e-05
5.41866e-05
0.00358227
0.0093904
0.00212663
0.000650362
0.000568973
0.000919645
0.00107066
0.00111638
0.00113697
0.001125
0.00104217
0.00088332
0.000686276
0.000504966
0.000372639
0.000296622
0.000269975
0.000270443
0.000270074
0.00026171
0.000244282
0.000219709
0.000191685
0.000164936
0.000145989
0.000133964
0.000125699
0.000118028
0.000109476
9.94668e-05
8.7656e-05
7.49623e-05
6.27913e-05
5.20257e-05
4.28108e-05
4.41031e-05
5.03452e-05
5.52252e-05
0.000144437
0.000105579
0.00484934
0.0114868
0.00453249
0.00197198
0.00160745
0.00165034
0.00156516
0.00148722
0.00144745
0.00139227
0.0012559
0.00103019
0.000764875
0.000532283
0.00037486
0.000297289
0.000280624
0.000291691
0.000299487
0.000292787
0.000272869
0.00024429
0.00021274
0.000183953
0.000163285
0.000151508
0.000144269
0.000137653
0.000130127
0.000121527
0.000112226
0.000101183
9.0145e-05
8.11443e-05
7.47483e-05
7.24984e-05
7.53896e-05
8.34309e-05
0.000234497
0.000176162
0.0051941
0.0134201
0.00731779
0.00483013
0.00362553
0.00275463
0.00222941
0.00197652
0.00186788
0.00175153
0.00152564
0.00119849
0.000842751
0.000559087
0.000391992
0.000327847
0.000323863
0.000338544
0.00034419
0.000331827
0.000306682
0.000275993
0.000246328
0.000222551
0.000206921
0.000198007
0.000191531
0.000184206
0.000175273
0.000166282
0.000160407
0.000160817
0.000166431
0.000177207
0.000202202
0.000238115
0.000293623
0.000365763
0.00141881
0.000342184
0.00488005
0.00827411
0.00626418
0.00470837
0.00361583
0.00290185
0.00254909
0.00244629
0.00239184
0.00219545
0.00179874
0.00131783
0.000861234
0.000582052
0.000469896
0.000433374
0.000433029
0.00044086
0.000439931
0.000426153
0.000403899
0.000380625
0.000361367
0.000348535
0.000340881
0.000335297
0.000326451
0.000310135
0.000285611
0.000256669
0.00023168
0.00022074
0.000232021
0.000264517
0.00031906
0.000399918
0.000508723
0.000644798
0.000795135
0.000438274
0.00139354
0.00178747
0.0021595
0.00271998
0.00315538
0.00333855
0.00311765
0.00251486
0.00169809
0.00116881
0.000912606
0.000804866
0.000768669
0.000765256
0.000774703
0.000785285
0.000791541
0.000793725
0.000794685
0.00079718
0.000801747
0.000806803
0.000810169
0.000809294
0.000794004
0.00075484
0.000687434
0.000595562
0.000496003
0.000412628
0.000351267
0.000326574
0.000344418
0.000404419
0.000497435
0.000602545
0.000716928
0.000734119
0.000896945
0.0036597
0.00557257
0.00605087
0.00590019
0.00536073
0.00440843
0.00338154
0.00254976
0.00205646
0.00182145
0.00173534
0.0017237
0.00174964
0.00179889
0.00186266
0.0019303
0.00199358
0.00205021
0.00210306
0.00215591
0.00221031
0.00226331
0.00230528
0.00232451
0.00230347
0.002223
0.00207019
0.00184456
0.00156326
0.00127123
0.00100823
0.000809224
0.000686865
0.000628499
0.000624694
0.00147547
0.00106535
0.00111944
0.00134632
0.00157405
0.00244437
0.00264072
0.00254876
0.00261362
0.002537
0.00233782
0.00207849
0.00181414
0.00161854
0.00150302
0.00144408
0.00141946
0.00141352
0.00141502
0.00141646
0.00141456
0.00140953
0.00140307
0.00139646
0.00138978
0.00138166
0.00136942
0.00134981
0.00131824
0.00127065
0.00120511
0.0011231
0.00103063
0.000937241
0.000850203
0.000776363
0.000719257
0.000677814
0.000643003
0.000603501
0.000641318
0.00059124
)
;

boundaryField
{
    floor
    {
        Cmu             0.09;
        kappa           0.41;
        E               9.8;
        type            epsilonWallFunction;
        value           nonuniform List<scalar> 
29
(
0.000207343
4.42337e-05
0.0001023
0.000133102
0.000147494
0.000144951
0.000132785
0.000110213
8.90063e-05
7.21744e-05
5.919e-05
4.91193e-05
4.12401e-05
3.50151e-05
2.99565e-05
2.5686e-05
2.18777e-05
1.82917e-05
1.36619e-05
1.13028e-05
1.13028e-05
2.23943e-05
3.05832e-05
4.43377e-05
0.000207343
4.42337e-05
0.000177135
0.000221524
0.000531711
)
;
    }
    ceiling
    {
        Cmu             0.09;
        kappa           0.41;
        E               9.8;
        type            epsilonWallFunction;
        value           nonuniform List<scalar> 
43
(
0.00111944
0.00134632
0.00157405
0.00244437
0.00264072
0.00254876
0.00261362
0.002537
0.00233782
0.00207849
0.00181414
0.00161854
0.00150302
0.00144408
0.00141946
0.00141352
0.00141502
0.00141646
0.00141456
0.00140953
0.00140307
0.00139646
0.00138978
0.00138166
0.00136942
0.00134981
0.00131824
0.00127065
0.00120511
0.0011231
0.00103063
0.000937241
0.000850203
0.000776363
0.000719257
0.000677814
0.000643003
0.000603501
0.000641318
0.00059124
0.00488005
0.00827411
0.000896945
)
;
    }
    sWall
    {
        Cmu             0.09;
        kappa           0.41;
        E               9.8;
        type            epsilonWallFunction;
        value           uniform 0.00111944;
    }
    nWall
    {
        Cmu             0.09;
        kappa           0.41;
        E               9.8;
        type            epsilonWallFunction;
        value           nonuniform List<scalar> 6(5.41866e-05 0.000105579 0.000176162 0.000734119 0.00106535 0.00059124);
    }
    sideWalls
    {
        type            empty;
    }
    glass1
    {
        Cmu             0.09;
        kappa           0.41;
        E               9.8;
        type            epsilonWallFunction;
        value           nonuniform List<scalar> 9(0.000310159 0.000672483 0.00112799 0.00171629 0.00250033 0.00358227 0.00484934 0.0051941 0.00488005);
    }
    glass2
    {
        Cmu             0.09;
        kappa           0.41;
        E               9.8;
        type            epsilonWallFunction;
        value           nonuniform List<scalar> 2(0.000342184 0.000438274);
    }
    sun
    {
        Cmu             0.09;
        kappa           0.41;
        E               9.8;
        type            epsilonWallFunction;
        value           nonuniform List<scalar> 
14
(
0.000310159
0.000419627
0.000468986
0.000550729
0.000637815
0.000735252
0.000842495
0.000935609
0.000994709
0.000998225
0.000930152
0.000742797
0.000525832
0.000327979
)
;
    }
    heatsource1
    {
        Cmu             0.09;
        kappa           0.41;
        E               9.8;
        type            epsilonWallFunction;
        value           nonuniform List<scalar> 3(6.43988e-05 6.11337e-05 5.41866e-05);
    }
    heatsource2
    {
        Cmu             0.09;
        kappa           0.41;
        E               9.8;
        type            epsilonWallFunction;
        value           nonuniform List<scalar> 4(0.000395271 0.000196999 0.000196999 0.000365062);
    }
    Table_master
    {
        Cmu             0.09;
        kappa           0.41;
        E               9.8;
        type            epsilonWallFunction;
        value           nonuniform List<scalar> 9(0.000282485 0.000184598 0.000125476 8.8915e-05 6.54921e-05 4.99475e-05 3.94214e-05 3.22348e-05 2.7564e-05);
    }
    Table_slave
    {
        Cmu             0.09;
        kappa           0.41;
        E               9.8;
        type            epsilonWallFunction;
        value           nonuniform List<scalar> 9(0.000382329 0.0002841 0.000225586 0.000186967 0.00015852 0.000135396 0.000115755 9.74253e-05 7.88822e-05);
    }
    inlet
    {
        type            turbulentMixingLengthDissipationRateInlet;
        mixingLength    0.01;
        phi             phi;
        k               k;
        value           uniform 0.000101881;
    }
    outlet
    {
        type            zeroGradient;
    }
}


// ************************************************************************* //
