// -*- C++ -*-
// File generated by PyFoam - sorry for the ugliness

FoamFile
{
 version 2.0;
 format ascii;
 class volVectorField;
 location "270";
 object U;
}

dimensions [ 0 1 -1 0 0 0 0 ];

internalField nonuniform List<vector> 459
(
  (0.0114053 0.0700832 0)
  (-0.138149 0.0236676 0)
  (-0.165152 0.0140273 0)
  (-0.190571 0.00664896 0)
  (-0.204943 -0.0012069 0)
  (-0.206313 -0.00962658 0)
  (-0.193021 -0.0188175 0)
  (-0.165796 -0.0280252 0)
  (-0.12734 -0.0354199 0)
  (-0.0832295 -0.0393027 0)
  (-0.0401008 -0.0384198 0)
  (0.00237501 -0.0285765 0)
  (0.0261103 -0.014418 0)
  (0.0331065 0.00131303 0)
  (0.057403 0.0247352 0)
  (-0.110224 0.00690568 0)
  (0.0292765 0.00202055 0)
  (0.0032979 -0.0098451 0)
  (0.0214205 -0.015514 0)
  (0.0381724 -0.0142816 0)
  (0.0529533 -0.0108697 0)
  (0.06309 -0.00636195 0)
  (0.0685422 -0.00377182 0)
  (0.0707534 -0.00279307 0)
  (0.071582 -0.002411 0)
  (0.0719721 -0.00214896 0)
  (0.0720465 -0.00187908 0)
  (0.0716296 -0.0014791 0)
  (0.0703465 -0.00071029 0)
  (0.0673407 0.000968505 0)
  (0.0608788 0.0044718 0)
  (0.0497054 0.00978467 0)
  (0.00487857 0.0203065 0)
  (0.0898121 0.00266283 0)
  (0.138227 0.143547 0)
  (-0.125169 0.0633612 0)
  (-0.133791 0.0463992 0)
  (-0.159942 0.0315033 0)
  (-0.174741 0.0144085 0)
  (-0.177088 -0.00523616 0)
  (-0.165232 -0.0268833 0)
  (-0.140687 -0.0471905 0)
  (-0.106752 -0.0618157 0)
  (-0.0690291 -0.0675647 0)
  (-0.0330432 -0.0635138 0)
  (-0.000934874 -0.0481569 0)
  (0.0223248 -0.0262748 0)
  (0.0372984 -0.00353031 0)
  (0.0529411 0.0220011 0)
  (0.0526222 0.0276564 0)
  (0.0363605 0.0337042 0)
  (-0.122341 0.00226854 0)
  (0.0287975 -0.0161471 0)
  (0.0281378 -0.0235334 0)
  (0.0402224 -0.0266203 0)
  (0.0526726 -0.0236478 0)
  (0.0628312 -0.017592 0)
  (0.0680551 -0.00757432 0)
  (0.0693151 -0.0015326 0)
  (0.0692576 0.00079459 0)
  (0.0693716 0.00168408 0)
  (0.0696697 0.00222321 0)
  (0.0699042 0.00273843 0)
  (0.0699489 0.00344736 0)
  (0.0697584 0.00486357 0)
  (0.0687406 0.00814318 0)
  (0.0641819 0.0165461 0)
  (0.0552961 0.0258165 0)
  (0.0094396 0.0382139 0)
  (0.139946 0.0244522 0)
  (0.256335 0.214707 0)
  (-0.131655 0.0985802 0)
  (-0.101866 0.0738804 0)
  (-0.127106 0.0487863 0)
  (-0.141207 0.0207506 0)
  (-0.143589 -0.0111866 0)
  (-0.131402 -0.0455507 0)
  (-0.107881 -0.0764337 0)
  (-0.0773979 -0.0966821 0)
  (-0.04572 -0.102211 0)
  (-0.0167263 -0.0933601 0)
  (0.0083659 -0.0713379 0)
  (0.027201 -0.0441811 0)
  (0.0410055 -0.0160794 0)
  (0.0507887 0.0116692 0)
  (0.052078 0.0320143 0)
  (0.0440294 0.0635502 0)
  (-0.0793798 -0.0153439 0)
  (0.0421461 -0.0361248 0)
  (0.0531437 -0.0410798 0)
  (0.0594832 -0.0388009 0)
  (0.0659807 -0.0332375 0)
  (0.0717441 -0.0276247 0)
  (0.0733154 -0.0206189 0)
  (0.0670875 -0.0133458 0)
  (0.0621475 -0.00951729 0)
  (0.0602468 -0.00742591 0)
  (0.0597584 -0.00609412 0)
  (0.0596964 -0.00512783 0)
  (0.0601363 -0.00415613 0)
  (0.061806 -0.00264679 0)
  (0.0664711 0.00186765 0)
  (0.0669612 0.0217521 0)
  (0.0610327 0.0373352 0)
  (0.0125716 0.0548191 0)
  (0.169016 0.0546148 0)
  (0.366411 0.272041 0)
  (-0.152349 0.128392 0)
  (-0.0679388 0.0979047 0)
  (-0.091267 0.0648787 0)
  (-0.102587 0.0281774 0)
  (-0.102357 -0.0156399 0)
  (-0.0871483 -0.0633249 0)
  (-0.0642029 -0.103661 0)
  (-0.0382121 -0.127509 0)
  (-0.0141936 -0.131364 0)
  (0.00727802 -0.117323 0)
  (0.0242194 -0.0913705 0)
  (0.0382476 -0.0599649 0)
  (0.0496969 -0.0277036 0)
  (0.0600089 0.00339752 0)
  (0.0711819 0.0304894 0)
  (0.0862055 0.0588509 0)
  (0.113501 -0.000200006 0)
  (0.106163 -0.0168166 0)
  (0.0966998 -0.0335713 0)
  (0.085428 -0.0400858 0)
  (0.0775767 -0.0385291 0)
  (0.0727666 -0.033218 0)
  (0.0687364 -0.025695 0)
  (0.0691849 -0.0153009 0)
  (0.0764159 -0.0101232 0)
  (0.0818766 -0.00731988 0)
  (0.0845682 -0.00565476 0)
  (0.0858342 -0.00438083 0)
  (0.08607 -0.00306781 0)
  (0.0844843 -0.00131221 0)
  (0.0797831 0.00137716 0)
  (0.0693678 0.00567349 0)
  (0.0608715 0.0270343 0)
  (0.062247 0.0454307 0)
  (0.0210003 0.0665202 0)
  (0.186607 0.0985234 0)
  (0.466066 0.315878 0)
  (-0.182038 0.15092 0)
  (-0.0334849 0.112475 0)
  (-0.0526488 0.0749085 0)
  (-0.0588012 0.0327798 0)
  (-0.0500302 -0.021719 0)
  (-0.0295959 -0.0817695 0)
  (-0.00898587 -0.127274 0)
  (0.00985506 -0.150567 0)
  (0.0237785 -0.15013 0)
  (0.0346823 -0.132755 0)
  (0.0431395 -0.10413 0)
  (0.0500776 -0.0705238 0)
  (0.0563607 -0.0370017 0)
  (0.0638017 -0.0067887 0)
  (0.0738491 0.0174795 0)
  (0.0886617 0.0297493 0)
  (0.101182 0.00643173 0)
  (0.0999594 -0.0110953 0)
  (0.0906583 -0.0239367 0)
  (0.0801862 -0.029819 0)
  (0.0708008 -0.0299894 0)
  (0.0631201 -0.0264838 0)
  (0.057255 -0.0200774 0)
  (0.0549938 -0.0104396 0)
  (0.0561614 -0.00489418 0)
  (0.0575947 -0.00256922 0)
  (0.0585809 -0.00148919 0)
  (0.0595435 -0.000442343 0)
  (0.0606506 0.00133073 0)
  (0.0613931 0.00436336 0)
  (0.0611483 0.00923282 0)
  (0.0594703 0.0167232 0)
  (0.0585477 0.0304824 0)
  (0.0667352 0.0453724 0)
  (0.0532644 0.0600434 0)
  (0.133069 0.095415 0)
  (0.123608 0.0765755 0)
  (0.107297 0.0561109 0)
  (-0.125676 0.0581075 0)
  (0.543937 0.351271 0)
  (-0.214958 0.164096 0)
  (-0.00510756 0.110987 0)
  (-0.0121276 0.0772288 0)
  (-0.0102143 0.0330438 0)
  (0.0174692 -0.0383935 0)
  (0.0396147 -0.102297 0)
  (0.0541768 -0.144011 0)
  (0.0620234 -0.161716 0)
  (0.0644772 -0.15783 0)
  (0.0635375 -0.137562 0)
  (0.0608353 -0.107212 0)
  (0.0578885 -0.0730036 0)
  (0.0560782 -0.040208 0)
  (0.0568987 -0.0125033 0)
  (0.0615486 0.00737288 0)
  (0.0701181 0.0151989 0)
  (0.0756907 0.00537895 0)
  (0.0739834 -0.00708347 0)
  (0.0670001 -0.0161172 0)
  (0.0582403 -0.020775 0)
  (0.049433 -0.0215083 0)
  (0.041521 -0.0192856 0)
  (0.0352383 -0.0148139 0)
  (0.0315859 -0.0090002 0)
  (0.0305822 -0.00540906 0)
  (0.0308784 -0.00399256 0)
  (0.0318536 -0.00349623 0)
  (0.0334794 -0.00293264 0)
  (0.0357605 -0.00147498 0)
  (0.0390016 0.0017633 0)
  (0.0424207 0.00727783 0)
  (0.0458509 0.0152676 0)
  (0.0502335 0.0259812 0)
  (0.0595728 0.0368232 0)
  (0.0596389 0.0417056 0)
  (0.0868599 0.0586104 0)
  (0.0854001 0.0478885 0)
  (0.101052 0.0473361 0)
  (-0.133874 0.0849284 0)
  (0.596434 0.382145 0)
  (-0.234391 0.149881 0)
  (0.0215123 0.0713761 0)
  (0.0397053 0.054291 0)
  (0.0609498 0.0088743 0)
  (0.0968529 -0.063845 0)
  (0.116023 -0.119758 0)
  (0.121406 -0.15205 0)
  (0.116191 -0.161762 0)
  (0.103843 -0.152405 0)
  (0.0878439 -0.12912 0)
  (0.0712226 -0.0980847 0)
  (0.0563353 -0.0649832 0)
  (0.0449785 -0.034786 0)
  (0.0383585 -0.0109534 0)
  (0.0368919 0.00460353 0)
  (0.0400374 0.0102545 0)
  (0.0420779 0.00524732 0)
  (0.0403999 -0.00283427 0)
  (0.0352022 -0.00926084 0)
  (0.0280387 -0.0128528 0)
  (0.0203169 -0.0137073 0)
  (0.0130741 -0.0124543 0)
  (0.00721979 -0.00980879 0)
  (0.00360467 -0.00674754 0)
  (0.00229786 -0.00503401 0)
  (0.00249867 -0.00475561 0)
  (0.00364352 -0.00513782 0)
  (0.00557391 -0.00544325 0)
  (0.0083525 -0.00499579 0)
  (0.0122755 -0.00291393 0)
  (0.0184914 0.00187857 0)
  (0.0256907 0.00922034 0)
  (0.0337447 0.0180117 0)
  (0.0437937 0.0265475 0)
  (0.0493112 0.0312037 0)
  (0.0621999 0.0432938 0)
  (0.0673861 0.0503132 0)
  (0.111291 0.0679794 0)
  (-0.109959 0.135706 0)
  (0.688607 0.380556 0)
  (-0.053655 0.121918 0)
  (0.0891163 -0.00422984 0)
  (0.142147 -0.0436892 0)
  (0.181792 -0.0748605 0)
  (0.2026 -0.106848 0)
  (0.204565 -0.132757 0)
  (0.190168 -0.145776 0)
  (0.163887 -0.143974 0)
  (0.13125 -0.128952 0)
  (0.0970966 -0.104139 0)
  (0.065345 -0.0747367 0)
  (0.0387579 -0.045438 0)
  (0.0194388 -0.0206718 0)
  (0.00788577 -0.00310232 0)
  (0.00352199 0.00667818 0)
  (0.00444075 0.00924194 0)
  (0.00514527 0.00580393 0)
  (0.00342316 0.000560214 0)
  (-0.000415188 -0.00374386 0)
  (-0.00629689 -0.00612498 0)
  (-0.0126911 -0.00682291 0)
  (-0.0186253 -0.00640988 0)
  (-0.0233007 -0.00550957 0)
  (-0.0261863 -0.00479972 0)
  (-0.027368 -0.00494806 0)
  (-0.0273975 -0.00588443 0)
  (-0.0267443 -0.00717206 0)
  (-0.0256442 -0.00838886 0)
  (-0.024109 -0.00918114 0)
  (-0.0218472 -0.00916793 0)
  (-0.0180348 -0.00777124 0)
  (-0.0106828 -0.00416612 0)
  (0.000484721 0.00143409 0)
  (0.0110146 0.00693945 0)
  (0.0177303 0.00971443 0)
  (0.0268685 0.0162106 0)
  (0.0341075 0.0216456 0)
  (0.110399 0.0747376 0)
  (-0.358979 0.200975 0)
  (0.813961 0.368185 0)
  (0.390373 0.255783 0)
  (0.400315 0.178342 0)
  (0.417103 0.101649 0)
  (0.393552 0.0338048 0)
  (0.347181 -0.0268811 0)
  (0.294781 -0.0701638 0)
  (0.238431 -0.091772 0)
  (0.180066 -0.094018 0)
  (0.123967 -0.082263 0)
  (0.0732925 -0.0615436 0)
  (0.031063 -0.0380752 0)
  (-0.00129397 -0.0161589 0)
  (-0.0209185 -0.00105543 0)
  (-0.0303693 0.00677404 0)
  (-0.0327969 0.00991223 0)
  (-0.0325009 0.0100404 0)
  (-0.0324328 0.00783914 0)
  (-0.0340655 0.00487329 0)
  (-0.0372268 0.00239759 0)
  (-0.0413752 0.00082329 0)
  (-0.0458741 -3.82014e-05 0)
  (-0.0500367 -0.000537034 0)
  (-0.0534012 -0.00101548 0)
  (-0.0557462 -0.00177407 0)
  (-0.0572414 -0.00299405 0)
  (-0.0582644 -0.00456035 0)
  (-0.0592324 -0.00622495 0)
  (-0.0605591 -0.00773302 0)
  (-0.0627188 -0.00877544 0)
  (-0.0662875 -0.00882073 0)
  (-0.0718761 -0.00684304 0)
  (-0.080216 -0.00112564 0)
  (-0.0905832 0.00875423 0)
  (-0.104245 0.0231099 0)
  (-0.1267 0.0431857 0)
  (-0.157099 0.0701181 0)
  (-0.196001 0.100535 0)
  (-0.258665 0.127224 0)
  (-0.504521 0.138242 0)
  (0.137562 0.006018 0)
  (0.201585 0.0018387 0)
  (0.216493 -0.0339686 0)
  (0.193945 -0.0539506 0)
  (0.161032 -0.059022 0)
  (0.120394 -0.0552769 0)
  (0.0753998 -0.0456349 0)
  (0.0312305 -0.0314826 0)
  (-0.0103801 -0.0128794 0)
  (-0.0393497 0.00118944 0)
  (-0.056647 0.00950654 0)
  (-0.0647489 0.0136126 0)
  (-0.0674073 0.0153144 0)
  (-0.0675885 0.0158664 0)
  (-0.0669499 0.0156657 0)
  (-0.0667481 0.0147989 0)
  (-0.0675914 0.0137095 0)
  (-0.0693551 0.0128566 0)
  (-0.0716141 0.0124233 0)
  (-0.0739691 0.0122961 0)
  (-0.0761712 0.0122955 0)
  (-0.0781587 0.0123017 0)
  (-0.0800766 0.0122533 0)
  (-0.0821809 0.0120404 0)
  (-0.0846824 0.0121387 0)
  (-0.0876791 0.0130771 0)
  (-0.0911644 0.0151972 0)
  (-0.0951106 0.01858 0)
  (-0.0996104 0.022695 0)
  (-0.104717 0.0265604 0)
  (-0.10963 0.0308872 0)
  (-0.114217 0.0372471 0)
  (-0.118154 0.0475309 0)
  (-0.120944 0.0633513 0)
  (-0.120167 0.0838857 0)
  (-0.112346 0.0967839 0)
  (-0.100047 0.0630105 0)
  (-0.149588 -0.164619 0)
  (0.0277731 0.114427 0)
  (0.0428569 0.0345493 0)
  (0.0281625 -0.0255664 0)
  (0.0241464 -0.050978 0)
  (0.00422735 -0.0537237 0)
  (-0.0221332 -0.0538223 0)
  (-0.047932 -0.0528389 0)
  (-0.0700446 -0.0515397 0)
  (-0.084936 -0.051988 0)
  (-0.0922589 -0.0542928 0)
  (-0.0953777 -0.0570797 0)
  (-0.0959027 -0.0598283 0)
  (-0.0949067 -0.0620751 0)
  (-0.0931584 -0.0638387 0)
  (-0.0911719 -0.065658 0)
  (-0.0894322 -0.0680173 0)
  (-0.0882366 -0.070892 0)
  (-0.0876067 -0.0739674 0)
  (-0.087405 -0.076984 0)
  (-0.0874853 -0.0798961 0)
  (-0.0877786 -0.082794 0)
  (-0.088309 -0.0858051 0)
  (-0.0891865 -0.0890274 0)
  (-0.0906389 -0.0924348 0)
  (-0.0929191 -0.0962342 0)
  (-0.0960702 -0.100405 0)
  (-0.0998957 -0.104512 0)
  (-0.103945 -0.107601 0)
  (-0.107607 -0.107979 0)
  (-0.110304 -0.103465 0)
  (-0.111183 -0.0932996 0)
  (-0.108571 -0.0766896 0)
  (-0.100045 -0.0539718 0)
  (-0.0829667 -0.0269013 0)
  (-0.0563775 -0.000594766 0)
  (-0.0220898 0.00914999 0)
  (0.0789671 -0.0885275 0)
  (-0.10432 -0.145671 0)
  (-0.0341195 -0.244417 0)
  (-0.295518 -0.0455761 0)
  (-0.219106 0.17396 0)
  (-0.178322 0.167903 0)
  (-0.148946 0.177078 0)
  (-0.142238 0.187439 0)
  (-0.143815 0.187555 0)
  (-0.148317 0.191388 0)
  (-0.149868 0.197539 0)
  (-0.147908 0.2061 0)
  (-0.143278 0.216833 0)
  (-0.137111 0.226937 0)
  (-0.13073 0.235154 0)
  (-0.124804 0.241417 0)
  (-0.119549 0.246018 0)
  (-0.114862 0.249615 0)
  (-0.110632 0.252966 0)
  (-0.106917 0.256507 0)
  (-0.103838 0.260214 0)
  (-0.101455 0.263841 0)
  (-0.0997492 0.267206 0)
  (-0.0986688 0.270304 0)
  (-0.0981683 0.273278 0)
  (-0.098213 0.276351 0)
  (-0.0987579 0.279759 0)
  (-0.0996891 0.283679 0)
  (-0.100844 0.288527 0)
  (-0.102028 0.294495 0)
  (-0.102995 0.301309 0)
  (-0.103435 0.30815 0)
  (-0.102888 0.313533 0)
  (-0.100543 0.315761 0)
  (-0.0951799 0.314626 0)
  (-0.085149 0.310204 0)
  (-0.0689101 0.304067 0)
  (-0.0466503 0.299395 0)
  (-0.0204961 0.300938 0)
  (0.017139 0.309757 0)
  (0.115041 0.371422 0)
  (-0.263313 0.381622 0)
)
;

boundaryField
{
  floor
  {
    type noSlip;
  }
  ceiling
  {
    type noSlip;
  }
  sWall
  {
    type noSlip;
  }
  nWall
  {
    type noSlip;
  }
  sideWalls
  {
    type empty;
  }
  glass1
  {
    type noSlip;
  }
  glass2
  {
    type noSlip;
  }
  sun
  {
    type noSlip;
  }
  heatsource1
  {
    type noSlip;
  }
  heatsource2
  {
    type noSlip;
  }
  Table_master
  {
    type noSlip;
  }
  Table_slave
  {
    type noSlip;
  }
  inlet
  {
    type fixedValue;
    value uniform (0.277164 -0.114805 0);
  }
  outlet
  {
    type zeroGradient;
  }
} 	// ************************************************************************* //

