/*--------------------------------*- C++ -*----------------------------------*\
  =========                 |
  \\      /  F ield         | OpenFOAM: The Open Source CFD Toolbox
   \\    /   O peration     | Website:  https://openfoam.org
    \\  /    A nd           | Version:  6
     \\/     M anipulation  |
\*---------------------------------------------------------------------------*/
FoamFile
{
    version     2.0;
    format      ascii;
    class       surfaceScalarField;
    location    "800";
    object      phi;
}
// * * * * * * * * * * * * * * * * * * * * * * * * * * * * * * * * * * * * * //

dimensions      [1 0 -1 0 0 0 0];

internalField   nonuniform List<scalar> 
852
(
-0.00318365
0.00324812
-0.00434332
0.00115967
-0.00523656
0.000893239
-0.00590331
0.000666744
-0.00629428
0.000390975
-0.00636042
6.61399e-05
-0.00604544
-0.000314982
-0.00530874
-0.000736704
-0.00418041
-0.00112833
-0.00277913
-0.00140128
-0.0012892
-0.00148993
5.32847e-05
-0.00134248
0.000791504
-0.000738219
0.000838387
-4.68834e-05
0.000841634
-0.00105754
0.00106222
-0.000841393
-0.000216143
-0.000182406
-0.000658987
0.000464534
-0.00064694
0.000956463
-0.000491929
0.0012959
-0.000339433
0.00148268
-0.000186784
0.00156556
-8.28751e-05
0.00160746
-4.19069e-05
0.00163141
-2.39448e-05
0.00164315
-1.17432e-05
0.00164531
-2.16319e-06
0.00163731
8.00347e-06
0.00161136
2.59502e-05
0.00154512
6.6238e-05
0.00140112
0.000144006
0.0011696
0.000231516
0.000886301
0.000283299
0.000892484
-0.00230933
0.0057316
-0.00346932
0.00231966
-0.00442257
0.00184649
-0.00511644
0.00136061
-0.00553714
0.000811675
-0.00564518
0.000174184
-0.00538921
-0.000570956
-0.00473936
-0.00138655
-0.00375067
-0.00211702
-0.00256763
-0.00258431
-0.00137929
-0.00267827
-0.000383844
-0.00233793
0.000362125
-0.00148419
0.000816893
-0.000501652
0.00134664
0.000311884
0.000770427
0.000576165
0.000770375
-3.56287e-05
0.00111188
0.000367436
-0.000619207
0.00078272
-0.00107427
0.00110878
-0.000973
0.00137644
-0.000759593
0.00156586
-0.000528844
0.00160485
-0.000225775
0.0016123
-9.03339e-05
0.00162104
-5.06406e-05
0.00162828
-3.11889e-05
0.00163277
-1.62264e-05
0.00163493
-4.32424e-06
0.00163435
8.57885e-06
0.0016277
3.26042e-05
0.00158526
0.00010867
0.00140319
0.000326084
0.00109402
0.000540681
0.00072223
0.000655091
0.00163033
-0.00164138
0.00764
-0.00266078
0.00333907
-0.00355213
0.00273783
-0.00419548
0.00200397
-0.00461163
0.00122782
-0.00475642
0.000318973
-0.00455314
-0.000774234
-0.00396369
-0.001976
-0.00308429
-0.00299642
-0.00208058
-0.00358803
-0.00111546
-0.00364339
-0.000311565
-0.00314182
0.000332189
-0.00212794
0.000850477
-0.00101994
0.00120582
-4.34615e-05
0.00106636
0.00071563
0.00183673
0.00164814
-0.000518146
0.00185768
-0.000828745
0.00174319
-0.000959782
0.00171929
-0.000949098
0.00177064
-0.000810944
0.0018924
-0.000650601
0.00166678
0.0015766
0.00152611
0.00149508
0.00147901
0.00147484
0.00148357
0.00151633
0.00162515
0.00132465
0.000626582
0.000972658
0.000892678
0.000574323
0.00105343
0.002228
-0.0011505
0.00913703
-0.00196768
0.00415625
-0.00262499
0.00339514
-0.00311464
0.00249362
-0.00346213
0.00157531
-0.00360989
0.00046674
-0.00343217
-0.000951957
-0.00287893
-0.00252924
-0.00212191
-0.00375344
-0.00132452
-0.00438542
-0.000597937
-0.00436998
-2.71845e-06
-0.00373704
0.000514035
-0.0026447
0.000966627
-0.00147253
0.00136228
-0.000439115
0.00174953
0.000328381
0.00281692
0.000769342
0.00262911
0.000203256
0.00235347
-0.000242505
0.0021919
-0.000667166
0.00202779
-0.000795678
0.00187842
-0.000799724
0.00177522
-0.000707745
0.00165562
-0.000531003
0.0018998
-0.000244337
0.00204154
-0.000141886
0.00214768
-0.000106303
0.00222398
-7.64468e-05
0.00225352
-2.96961e-05
0.00221249
4.08735e-05
0.00207515
0.00013719
0.00180767
0.000267326
0.00135072
0.000456789
0.00114507
0.000832233
0.0007707
0.00126705
0.000227592
0.00159653
0.00248598
-0.000784698
0.0103361
-0.00139811
0.00476966
-0.00165278
0.00364981
-0.00188692
0.00272776
-0.00207821
0.0017666
-0.00215877
0.000547297
-0.00193973
-0.001171
-0.00142112
-0.00304784
-0.00084589
-0.00432867
-0.000321432
-0.00490987
0.000106578
-0.00479799
0.000436283
-0.00406674
0.000737793
-0.00294621
0.00101762
-0.00175236
0.00131253
-0.000734029
0.00166367
-2.27547e-05
0.00209531
0.000337698
0.00213836
0.000160208
0.00209592
-0.000200069
0.00190793
-0.00047917
0.00171302
-0.000600771
0.00153498
-0.000621688
0.00139691
-0.00056967
0.00132225
-0.000456345
0.00138837
-0.000310454
0.00147283
-0.000226347
0.00155604
-0.000189512
0.00163382
-0.000154233
0.00169256
-8.84359e-05
0.00170763
2.58111e-05
0.00165647
0.000188343
0.00152966
0.000394142
0.00133335
0.000653094
0.00114463
0.00102095
0.000928138
0.00148354
0.000442373
0.0020823
0.000277977
0.00265038
-0.00119342
0.00147119
-0.00166066
0.00046703
-0.0016011
-0.00064636
0.0114543
-0.00103989
0.00516319
-0.000705219
0.00331513
-0.000588293
0.00261083
-0.000566974
0.00174529
-0.000442546
0.000422869
-5.73785e-05
-0.00155616
0.000360408
-0.00346563
0.000675047
-0.00464331
0.000855472
-0.0050903
0.000919886
-0.0048624
0.000923912
-0.00407077
0.000916502
-0.0029388
0.000923858
-0.00175971
0.000981642
-0.000791813
0.00113029
-0.0001714
0.00134551
0.000122474
0.00143647
6.92503e-05
0.00137519
-0.000138785
0.00122004
-0.000324026
0.00105034
-0.000431064
0.000896797
-0.00046815
0.00077984
-0.000452713
0.000722844
-0.000399349
0.000744989
-0.0003326
0.000813271
-0.000294629
0.000902856
-0.000279097
0.00100351
-0.000254888
0.00110638
-0.000191303
0.0011929
-6.07101e-05
0.00124122
0.000140022
0.00125319
0.00038217
0.00123991
0.000666376
0.00124804
0.00101282
0.00133266
0.00139893
0.00150072
0.00191423
0.00202655
0.00212455
0.00233194
0.0011658
0.00195198
0.000846993
0.000421848
-0.000772416
0.0127487
-0.000604824
0.0049956
0.000487664
0.00222265
0.00088407
0.00221442
0.00112538
0.00150398
0.00160551
-5.72689e-05
0.00214046
-0.00209111
0.00236279
-0.00368796
0.00233864
-0.00461916
0.00210783
-0.00485949
0.001743
-0.00449757
0.00132888
-0.00365665
0.000937211
-0.00254713
0.000623992
-0.00144649
0.000439698
-0.00060752
0.000417539
-0.000149241
0.000497345
4.2668e-05
0.000542196
2.43991e-05
0.000498039
-9.46285e-05
0.000392928
-0.000218914
0.00026619
-0.000304327
0.000145936
-0.000347895
5.35456e-05
-0.000360323
8.30986e-06
-0.000354113
2.0142e-05
-0.000344432
7.36429e-05
-0.00034813
0.00015207
-0.000357524
0.000250482
-0.0003533
0.000372558
-0.00031338
0.000522586
-0.000210738
0.000676301
-1.36928e-05
0.000822209
0.000236263
0.000979101
0.000509484
0.00118621
0.000805715
0.00149697
0.00108817
0.0019999
0.0014113
0.00278828
0.00133616
0.00342819
0.000525887
0.0035055
0.000769682
0.0040017
0.00292212
0.0104083
0.00361956
0.00429816
0.003446
0.00239621
0.00348648
0.00217394
0.00388588
0.00110458
0.00449852
-0.00066991
0.0047388
-0.00233139
0.00455047
-0.00349963
0.00400717
-0.00407586
0.00321802
-0.00407035
0.00231579
-0.00359534
0.00141531
-0.00275617
0.0006219
-0.00175372
2.40407e-05
-0.000848633
-0.000289381
-0.000294098
-0.000383862
-5.47597e-05
-0.00037089
2.96968e-05
-0.000355828
9.33683e-06
-0.000385497
-6.49601e-05
-0.000457379
-0.000147032
-0.000549892
-0.000211814
-0.000641538
-0.000256249
-0.000715937
-0.000285924
-0.000762056
-0.000307994
-0.00077701
-0.000329479
-0.000770425
-0.000354715
-0.000750444
-0.000377505
-0.000716905
-0.000386839
-0.000659414
-0.000370871
-0.000554486
-0.000315666
-0.000366713
-0.000201466
-0.00013426
3.80977e-06
0.000119372
0.000255852
0.000420966
0.000504121
0.000766099
0.000743041
0.00120678
0.000970624
0.00163028
0.00091266
0.00165952
0.000496649
0.000764665
0.00166453
0.00509575
0.0110549
0.0153535
0.0126252
0.0051245
0.0111643
0.00363484
0.0101803
0.00208859
0.00916664
0.000343781
0.00792673
-0.00109148
0.00654874
-0.00212164
0.0051023
-0.00262942
0.00359753
-0.00256558
0.00214001
-0.00213781
0.000805968
-0.00142213
-0.000231773
-0.000715982
-0.000844368
-0.000236039
-0.00109717
-4.13001e-05
-0.00118124
2.93162e-05
-0.00119138
3.98374e-05
-0.0011935
1.14494e-05
-0.00121886
-3.95989e-05
-0.00127173
-9.41612e-05
-0.00134168
-0.000141857
-0.00141742
-0.000180517
-0.00149169
-0.000211653
-0.00156223
-0.000237454
-0.00163207
-0.000259637
-0.00170932
-0.000277465
-0.00180206
-0.00028476
-0.00191797
-0.000270936
-0.00206606
-0.000222775
-0.00225768
-0.000124044
-0.00250357
4.44212e-05
-0.00278797
0.000288212
-0.00315996
0.000627838
-0.00373798
0.00108214
-0.00462852
0.00163358
-0.00587301
0.00221512
-0.00756997
0.00260962
-0.00954142
0.00246809
-0.00878585
0.000908966
-0.00332371
0.00922719
0.00744235
0.00737761
0.00548442
0.00684456
0.00262164
0.00637866
0.000809679
0.00559225
-0.000305067
0.00453858
-0.00106798
0.00330124
-0.00139208
0.0018369
-0.00110124
0.000377878
-0.000678789
-0.000783436
-0.000260813
-0.00146921
-3.02062e-05
-0.00176783
6.25847e-05
-0.00188305
7.39119e-05
-0.00191587
6.21415e-05
-0.00191967
4.36377e-05
-0.00192401
1.5785e-05
-0.00194013
-2.34746e-05
-0.00197157
-6.27238e-05
-0.00201683
-9.6602e-05
-0.00207393
-0.000123407
-0.0021434
-0.000142189
-0.00222818
-0.000152673
-0.00233252
-0.000155297
-0.00245998
-0.000150007
-0.00261002
-0.000134715
-0.00277625
-0.000104713
-0.00294504
-5.39852e-05
-0.00309107
2.1986e-05
-0.00320543
0.000158783
-0.00329781
0.000380598
-0.00338312
0.000713141
-0.00347927
0.00117829
-0.0035976
0.00175192
-0.00366893
0.00228644
-0.00356126
0.00250195
-0.00304759
0.00195443
-0.00165554
-0.000483081
-0.00488611
-0.000642386
0.00814876
0.0010924
0.00374964
0.00166932
0.00204472
0.0017504
0.0007286
0.00147488
-2.95449e-05
0.00081229
-0.00040539
-0.000176694
-0.000403094
-0.0012102
-6.7733e-05
-0.0019622
7.32133e-05
-0.00235347
0.000130455
-0.00250826
0.000124584
-0.00253552
8.98432e-05
-0.00252248
6.08758e-05
-0.00249884
3.84998e-05
-0.00247454
1.93425e-05
-0.00245911
3.55571e-07
-0.00245599
-2.66013e-05
-0.00246377
-5.49376e-05
-0.0024833
-7.70702e-05
-0.0025133
-9.34119e-05
-0.00255204
-0.000103444
-0.00259816
-0.000106557
-0.0026508
-0.000102658
-0.0027092
-9.16071e-05
-0.00277144
-7.24691e-05
-0.00283318
-4.29754e-05
-0.0028884
1.23329e-06
-0.00292189
5.54794e-05
-0.00289948
0.000136374
-0.00278989
0.000271006
-0.00255323
0.000476478
-0.00215959
0.000784649
-0.00162629
0.00121862
-0.000945538
0.00160569
0.000122172
0.00143424
0.0014053
0.000671294
0.00160969
-0.000687464
-0.00317409
-0.0134688
-0.0172995
-0.00909758
-0.00531052
-0.00323326
-0.00247571
-0.00247955
-0.00286152
-0.00324264
-0.00328936
-0.00319565
-0.00304487
-0.00289987
-0.00278943
-0.00270778
-0.00264832
-0.00260779
-0.002586
-0.00259091
-0.00262391
-0.00267882
-0.00274988
-0.00283082
-0.00291478
-0.0029948
-0.00306381
-0.00311381
-0.00313456
-0.00311147
-0.00303463
-0.0028775
-0.00258643
-0.00209064
-0.00128751
-5.12851e-05
0.00157075
0.00302085
0.00370816
0.00303749
)
;

boundaryField
{
    floor
    {
        type            calculated;
        value           nonuniform List<scalar> 
29
(
0
0
0
0
0
0
0
0
0
0
0
0
0
0
0
0
0
0
0
0
-6.18309e-06
-1.56172e-05
-2.33469e-05
-3.03882e-05
-3.24721e-06
-4.68094e-06
-1.40369e-05
-1.81145e-05
-1.54494e-05
)
;
    }
    ceiling
    {
        type            calculated;
        value           nonuniform List<scalar> 
43
(
-5.49357e-05
-5.40378e-05
-5.3192e-05
-3.74172e-05
-3.25428e-05
-2.89514e-05
-2.57077e-05
-2.34165e-05
-2.19793e-05
-2.10161e-05
-2.04927e-05
-2.03257e-05
-2.04144e-05
-2.05951e-05
-2.07748e-05
-2.09618e-05
-2.11835e-05
-2.14407e-05
-2.16889e-05
-2.19357e-05
-2.21604e-05
-2.23519e-05
-2.25022e-05
-2.26022e-05
-2.26395e-05
-2.2599e-05
-2.24654e-05
-2.22244e-05
-2.18615e-05
-2.13571e-05
-2.07574e-05
-2.00674e-05
-1.93041e-05
-1.84801e-05
-1.76117e-05
-1.63412e-05
-1.58703e-05
-1.60155e-05
-1.67946e-05
-1.71625e-05
1.69951e-06
-4.14502e-07
-6.40206e-05
)
;
    }
    sWall
    {
        type            calculated;
        value           uniform -0.000251166;
    }
    nWall
    {
        type            calculated;
        value           nonuniform List<scalar> 6(-5.97637e-05 -7.09649e-05 -7.43528e-05 -9.31454e-05 -0.000102332 -0.000119435);
    }
    sideWalls
    {
        type            empty;
        value           nonuniform 0();
    }
    glass1
    {
        type            calculated;
        value           nonuniform List<scalar> 9(-6.4469e-05 -0.000174152 -0.000267024 -0.000346526 -0.000414416 -0.00047181 -0.000521973 -0.00058176 -0.000648312);
    }
    glass2
    {
        type            calculated;
        value           nonuniform List<scalar> 2(-0.000329381 -0.000366382);
    }
    sun
    {
        type            calculated;
        value           uniform 0;
    }
    heatsource1
    {
        type            calculated;
        value           nonuniform List<scalar> 3(2.05987e-07 2.05824e-07 2.05845e-07);
    }
    heatsource2
    {
        type            calculated;
        value           nonuniform List<scalar> 4(5.16193e-08 5.17305e-08 0 0);
    }
    Table_master
    {
        type            calculated;
        value           nonuniform List<scalar> 9(-1.54507e-07 -1.54635e-07 -1.54678e-07 -1.54705e-07 -1.54723e-07 -1.54735e-07 -1.54738e-07 -1.54732e-07 -1.54698e-07);
    }
    Table_slave
    {
        type            calculated;
        value           nonuniform List<scalar> 9(1.54349e-07 1.54351e-07 1.5431e-07 1.5428e-07 1.54268e-07 1.54269e-07 1.54288e-07 1.54341e-07 1.54442e-07);
    }
    inlet
    {
        type            calculated;
        value           uniform -0.011545;
    }
    outlet
    {
        type            calculated;
        value           nonuniform List<scalar> 2(0.0137749 0.00388477);
    }
}


// ************************************************************************* //
