// -*- C++ -*-
// File generated by PyFoam - sorry for the ugliness

FoamFile
{
 version 2.0;
 format ascii;
 class volVectorField;
 location "550";
 object U;
}

dimensions [ 0 1 -1 0 0 0 0 ];

internalField nonuniform List<vector> 459
(
  (0.0235639 0.0676514 0)
  (-0.131743 0.0211956 0)
  (-0.153904 0.0150917 0)
  (-0.180256 0.0102982 0)
  (-0.199623 0.00500026 0)
  (-0.210961 -0.000724414 0)
  (-0.212658 -0.00698984 0)
  (-0.203227 -0.0139336 0)
  (-0.18268 -0.0210822 0)
  (-0.152332 -0.0271693 0)
  (-0.115493 -0.0309654 0)
  (-0.0767756 -0.0315838 0)
  (-0.0415659 -0.0284361 0)
  (-0.015565 -0.0204041 0)
  (0.0483171 0.00446226 0)
  (-0.100972 0.00634622 0)
  (0.0317244 -0.00740957 0)
  (0.0212771 -0.0109655 0)
  (0.0322949 -0.0112651 0)
  (0.0463034 -0.00969502 0)
  (0.057834 -0.00726524 0)
  (0.0651302 -0.00418745 0)
  (0.068615 -0.00242662 0)
  (0.0697284 -0.00180682 0)
  (0.0699189 -0.00160346 0)
  (0.0698184 -0.00145845 0)
  (0.069457 -0.00126362 0)
  (0.0686578 -0.00092124 0)
  (0.0670439 -0.000198411 0)
  (0.0637654 0.00145313 0)
  (0.0571186 0.00496655 0)
  (0.0462656 0.0102246 0)
  (-0.00148571 0.0201192 0)
  (0.0913321 -0.00274451 0)
  (0.157445 0.138681 0)
  (-0.124486 0.0557451 0)
  (-0.126933 0.0449454 0)
  (-0.154441 0.0353648 0)
  (-0.173925 0.024326 0)
  (-0.185735 0.0116562 0)
  (-0.188317 -0.00306275 0)
  (-0.180047 -0.0196948 0)
  (-0.161403 -0.0361272 0)
  (-0.134061 -0.0492464 0)
  (-0.101525 -0.0565227 0)
  (-0.0680225 -0.0566333 0)
  (-0.0377886 -0.0494146 0)
  (-0.0141815 -0.0354877 0)
  (0.00846044 -0.0108277 0)
  (0.0152172 0.00518964 0)
  (0.0132851 0.0176764 0)
  (-0.122492 0.004852 0)
  (0.0341431 -0.027769 0)
  (0.0341486 -0.0257277 0)
  (0.0443783 -0.0224858 0)
  (0.0554384 -0.0181864 0)
  (0.0640496 -0.0129161 0)
  (0.068405 -0.00507636 0)
  (0.0693067 -0.000419287 0)
  (0.0691829 0.00140434 0)
  (0.0692679 0.00213077 0)
  (0.0695291 0.00259867 0)
  (0.0697028 0.00303725 0)
  (0.0697218 0.00369665 0)
  (0.0695311 0.00506611 0)
  (0.0685263 0.00831568 0)
  (0.063982 0.0167797 0)
  (0.0553512 0.0259411 0)
  (0.00986467 0.0370787 0)
  (0.135151 0.0226418 0)
  (0.281511 0.208349 0)
  (-0.137432 0.0888691 0)
  (-0.0978372 0.0730659 0)
  (-0.125051 0.0559823 0)
  (-0.143063 0.037637 0)
  (-0.154782 0.0169382 0)
  (-0.158054 -0.00697902 0)
  (-0.150096 -0.0336538 0)
  (-0.132253 -0.0593776 0)
  (-0.107025 -0.0787479 0)
  (-0.0782402 -0.0882206 0)
  (-0.0496247 -0.0865274 0)
  (-0.0243194 -0.0743081 0)
  (-0.00414606 -0.0526924 0)
  (0.0118583 -0.0239453 0)
  (0.02114 0.00130712 0)
  (0.0216225 0.0324814 0)
  (-0.0213561 -0.0288857 0)
  (0.0401958 -0.0395231 0)
  (0.052677 -0.0382519 0)
  (0.0578375 -0.0325872 0)
  (0.0634455 -0.0263656 0)
  (0.0685841 -0.0214201 0)
  (0.070716 -0.0160226 0)
  (0.0664556 -0.0106272 0)
  (0.0630179 -0.00780136 0)
  (0.0619048 -0.00625578 0)
  (0.0619074 -0.00525469 0)
  (0.062314 -0.00445649 0)
  (0.0631675 -0.00361289 0)
  (0.0651948 -0.00223619 0)
  (0.0701251 0.00209419 0)
  (0.0708525 0.0220944 0)
  (0.0647279 0.0378362 0)
  (0.0184932 0.0543696 0)
  (0.160393 0.0535987 0)
  (0.395619 0.265053 0)
  (-0.164229 0.118119 0)
  (-0.0658241 0.0977457 0)
  (-0.0923545 0.0745251 0)
  (-0.106435 0.0510763 0)
  (-0.116557 0.023997 0)
  (-0.119455 -0.00877044 0)
  (-0.110095 -0.0461469 0)
  (-0.0924181 -0.0810035 0)
  (-0.069915 -0.105576 0)
  (-0.0461412 -0.116336 0)
  (-0.0236291 -0.112658 0)
  (-0.00411959 -0.0963452 0)
  (0.0125347 -0.0698925 0)
  (0.0273285 -0.0394687 0)
  (0.0435511 -0.0105415 0)
  (0.0622587 0.0161626 0)
  (0.0913533 -0.0352025 0)
  (0.0931703 -0.0373048 0)
  (0.0838211 -0.0396963 0)
  (0.0740789 -0.0382543 0)
  (0.0677918 -0.0331087 0)
  (0.0644997 -0.0269935 0)
  (0.0621431 -0.0202859 0)
  (0.0634552 -0.0124443 0)
  (0.0706107 -0.00902143 0)
  (0.0769602 -0.00723522 0)
  (0.0816592 -0.00618346 0)
  (0.0854738 -0.00529224 0)
  (0.0884029 -0.00419536 0)
  (0.0895988 -0.00250196 0)
  (0.0871228 0.000366518 0)
  (0.0786731 0.00498328 0)
  (0.0702043 0.0267826 0)
  (0.0700216 0.0464341 0)
  (0.031349 0.0682744 0)
  (0.175875 0.100541 0)
  (0.497692 0.30919 0)
  (-0.198447 0.141646 0)
  (-0.0320563 0.113276 0)
  (-0.0568177 0.0864825 0)
  (-0.0644769 0.0603095 0)
  (-0.0707794 0.0291188 0)
  (-0.0707043 -0.011019 0)
  (-0.0570928 -0.0588777 0)
  (-0.0404208 -0.100521 0)
  (-0.0229043 -0.127316 0)
  (-0.00666725 -0.137324 0)
  (0.00766878 -0.13067 0)
  (0.0190268 -0.11146 0)
  (0.0291595 -0.0841115 0)
  (0.0394832 -0.0538568 0)
  (0.0518516 -0.0267888 0)
  (0.0677193 -0.0101832 0)
  (0.0795991 -0.0158198 0)
  (0.0798581 -0.0237337 0)
  (0.0715463 -0.0283408 0)
  (0.0630104 -0.0288587 0)
  (0.0563969 -0.0264234 0)
  (0.0517364 -0.0225195 0)
  (0.0489326 -0.0173788 0)
  (0.0493564 -0.0104618 0)
  (0.0529481 -0.00701326 0)
  (0.0570165 -0.00591684 0)
  (0.0609138 -0.00547189 0)
  (0.064745 -0.004702 0)
  (0.0683254 -0.00292708 0)
  (0.0712364 0.000637037 0)
  (0.0726971 0.00650341 0)
  (0.0719425 0.0153397 0)
  (0.0709534 0.0307139 0)
  (0.0773279 0.0477467 0)
  (0.0658344 0.0646589 0)
  (0.134754 0.0994822 0)
  (0.127679 0.0793898 0)
  (0.114684 0.0576339 0)
  (-0.152169 0.0581886 0)
  (0.576019 0.345905 0)
  (-0.234075 0.157225 0)
  (-0.0033685 0.113502 0)
  (-0.0199468 0.0908487 0)
  (-0.0198041 0.0653244 0)
  (-0.0208281 0.0330237 0)
  (-0.0109451 -0.0133327 0)
  (0.00892571 -0.0741201 0)
  (0.0215991 -0.116969 0)
  (0.0310601 -0.141289 0)
  (0.0372655 -0.148034 0)
  (0.0406215 -0.139191 0)
  (0.0422576 -0.118446 0)
  (0.0434124 -0.0905976 0)
  (0.0453504 -0.0612427 0)
  (0.0492794 -0.0359519 0)
  (0.0552984 -0.0199139 0)
  (0.0587239 -0.0175258 0)
  (0.0561014 -0.0208883 0)
  (0.049357 -0.0228586 0)
  (0.0421198 -0.0227346 0)
  (0.0359482 -0.0211798 0)
  (0.0313316 -0.0187567 0)
  (0.028661 -0.015591 0)
  (0.0285509 -0.0120695 0)
  (0.0307759 -0.010463 0)
  (0.0340423 -0.0101999 0)
  (0.037726 -0.0101192 0)
  (0.0416614 -0.00944796 0)
  (0.0457675 -0.00754615 0)
  (0.0499773 -0.00354723 0)
  (0.0547099 0.00352105 0)
  (0.0585853 0.0136012 0)
  (0.0627048 0.0268047 0)
  (0.0709227 0.0405113 0)
  (0.0719275 0.0489475 0)
  (0.0957432 0.065688 0)
  (0.0936183 0.0531114 0)
  (0.111386 0.0517262 0)
  (-0.147368 0.0875062 0)
  (0.619545 0.378152 0)
  (-0.255884 0.145946 0)
  (0.0191527 0.079556 0)
  (0.024552 0.0809024 0)
  (0.0308295 0.0628563 0)
  (0.037469 0.0249792 0)
  (0.0636814 -0.0341845 0)
  (0.0816465 -0.0880569 0)
  (0.0884476 -0.125304 0)
  (0.0877757 -0.144664 0)
  (0.0818511 -0.147437 0)
  (0.0725448 -0.136084 0)
  (0.0619561 -0.114305 0)
  (0.0518057 -0.0867171 0)
  (0.0434137 -0.0587998 0)
  (0.037797 -0.0355584 0)
  (0.0349554 -0.0207022 0)
  (0.0324255 -0.0155242 0)
  (0.0279746 -0.0155996 0)
  (0.0219806 -0.0163861 0)
  (0.0158185 -0.0165819 0)
  (0.0104298 -0.0161813 0)
  (0.00632679 -0.0153827 0)
  (0.00393677 -0.014331 0)
  (0.00362094 -0.0133822 0)
  (0.00508762 -0.0133448 0)
  (0.00751686 -0.013837 0)
  (0.0104108 -0.014157 0)
  (0.0136093 -0.013783 0)
  (0.0171731 -0.0122585 0)
  (0.0213884 -0.00891301 0)
  (0.026997 -0.00257206 0)
  (0.0349867 0.00749095 0)
  (0.0429216 0.0193289 0)
  (0.0524955 0.0308551 0)
  (0.0588302 0.0385468 0)
  (0.0717711 0.0511176 0)
  (0.0768901 0.0568479 0)
  (0.122364 0.0752025 0)
  (-0.114109 0.14474 0)
  (0.710047 0.383365 0)
  (-0.0807944 0.118857 0)
  (0.0764373 0.0131324 0)
  (0.116652 0.0108084 0)
  (0.117917 0.00212133 0)
  (0.130269 -0.0337287 0)
  (0.156844 -0.0709604 0)
  (0.16583 -0.10277 0)
  (0.159376 -0.124662 0)
  (0.142844 -0.134362 0)
  (0.120368 -0.131681 0)
  (0.0953687 -0.118151 0)
  (0.0708567 -0.0966312 0)
  (0.0488409 -0.0708347 0)
  (0.0306045 -0.0458995 0)
  (0.0171682 -0.0262956 0)
  (0.0086099 -0.0145446 0)
  (0.00293408 -0.0100901 0)
  (-0.00231244 -0.0096875 0)
  (-0.00761463 -0.010459 0)
  (-0.0126938 -0.0112351 0)
  (-0.0171194 -0.0118714 0)
  (-0.0205862 -0.0124848 0)
  (-0.0228416 -0.013168 0)
  (-0.0237793 -0.0140314 0)
  (-0.0236507 -0.0151835 0)
  (-0.0228979 -0.0163588 0)
  (-0.0218242 -0.0171716 0)
  (-0.0205908 -0.01731 0)
  (-0.0192302 -0.0165864 0)
  (-0.0175014 -0.0148788 0)
  (-0.014629 -0.0117331 0)
  (-0.00823281 -0.00599728 0)
  (0.00401536 0.00300696 0)
  (0.0144894 0.0111028 0)
  (0.0227881 0.0154862 0)
  (0.0339695 0.0209216 0)
  (0.0434284 0.0231451 0)
  (0.121823 0.0766574 0)
  (-0.364714 0.212626 0)
  (0.829922 0.37499 0)
  (0.39995 0.261443 0)
  (0.40336 0.201736 0)
  (0.393724 0.138577 0)
  (0.361018 0.0871631 0)
  (0.335181 0.0372391 0)
  (0.302426 -0.0143468 0)
  (0.264406 -0.0570677 0)
  (0.222957 -0.0846767 0)
  (0.179401 -0.0966535 0)
  (0.135752 -0.0951895 0)
  (0.0943735 -0.0835518 0)
  (0.0577037 -0.0652572 0)
  (0.0270627 -0.0436425 0)
  (0.00341807 -0.0239611 0)
  (-0.0125301 -0.0105375 0)
  (-0.0214737 -0.00446404 0)
  (-0.0271939 -0.00255867 0)
  (-0.0317529 -0.00272371 0)
  (-0.0359871 -0.00367056 0)
  (-0.0399483 -0.00478964 0)
  (-0.0435926 -0.00595769 0)
  (-0.04688 -0.00725125 0)
  (-0.0497339 -0.00868141 0)
  (-0.0521548 -0.0102288 0)
  (-0.0542554 -0.0118328 0)
  (-0.0561836 -0.0132987 0)
  (-0.0580746 -0.0143875 0)
  (-0.0601828 -0.0148916 0)
  (-0.0630657 -0.0146288 0)
  (-0.0675426 -0.0132817 0)
  (-0.0743179 -0.00978995 0)
  (-0.0838825 -0.00216357 0)
  (-0.0947974 0.0101066 0)
  (-0.108541 0.0265276 0)
  (-0.131843 0.0484893 0)
  (-0.164193 0.077779 0)
  (-0.205485 0.11189 0)
  (-0.272984 0.144474 0)
  (-0.544757 0.166204 0)
  (0.124252 0.0560276 0)
  (0.216274 0.0807271 0)
  (0.244467 0.0533513 0)
  (0.234588 0.0157122 0)
  (0.219445 -0.015855 0)
  (0.197023 -0.0397524 0)
  (0.166016 -0.0546495 0)
  (0.127985 -0.060305 0)
  (0.0867278 -0.0572768 0)
  (0.0463303 -0.0472807 0)
  (0.0106995 -0.032504 0)
  (-0.0181933 -0.0149225 0)
  (-0.0349019 -0.00323343 0)
  (-0.0446516 0.00353416 0)
  (-0.050093 0.00614274 0)
  (-0.0535332 0.0068385 0)
  (-0.0562965 0.00653988 0)
  (-0.0590299 0.00550425 0)
  (-0.0618819 0.00433976 0)
  (-0.0649948 0.00327344 0)
  (-0.0684844 0.0022472 0)
  (-0.0723955 0.00140584 0)
  (-0.0767947 0.000926563 0)
  (-0.0817205 0.00103754 0)
  (-0.0871177 0.00207966 0)
  (-0.0927965 0.00447135 0)
  (-0.0985153 0.00858901 0)
  (-0.104251 0.0144571 0)
  (-0.11032 0.0209371 0)
  (-0.117052 0.0260712 0)
  (-0.123399 0.0307932 0)
  (-0.128644 0.0379586 0)
  (-0.132853 0.049827 0)
  (-0.135795 0.0674779 0)
  (-0.134864 0.089168 0)
  (-0.125662 0.100886 0)
  (-0.112489 0.0600523 0)
  (-0.190567 -0.16873 0)
  (0.0154544 0.15884 0)
  (0.0683426 0.0995542 0)
  (0.0843285 0.036058 0)
  (0.0922543 -0.0135866 0)
  (0.0914203 -0.0485969 0)
  (0.0816785 -0.0628902 0)
  (0.0602828 -0.0663324 0)
  (0.0331056 -0.065651 0)
  (0.00412459 -0.0633128 0)
  (-0.022065 -0.0627873 0)
  (-0.0414421 -0.0643787 0)
  (-0.0551803 -0.0649962 0)
  (-0.0627889 -0.066838 0)
  (-0.0666995 -0.068896 0)
  (-0.0685899 -0.0709334 0)
  (-0.0698622 -0.0732693 0)
  (-0.0710616 -0.0756689 0)
  (-0.0725393 -0.0777499 0)
  (-0.0744793 -0.0795026 0)
  (-0.0768276 -0.0806107 0)
  (-0.0795663 -0.0820033 0)
  (-0.0828397 -0.0839637 0)
  (-0.0868518 -0.0867958 0)
  (-0.0918364 -0.0907662 0)
  (-0.0979933 -0.0959177 0)
  (-0.105303 -0.101794 0)
  (-0.113255 -0.107079 0)
  (-0.120781 -0.109287 0)
  (-0.126715 -0.107347 0)
  (-0.130339 -0.0991068 0)
  (-0.131144 -0.0843248 0)
  (-0.127668 -0.0634956 0)
  (-0.117627 -0.0372521 0)
  (-0.0987338 -0.00725769 0)
  (-0.070507 0.0216444 0)
  (-0.0371787 0.0348164 0)
  (0.0872268 -0.0668312 0)
  (-0.147083 -0.127849 0)
  (-0.0370998 -0.255419 0)
  (-0.311185 -0.048857 0)
  (-0.21777 0.17955 0)
  (-0.148548 0.156761 0)
  (-0.0896128 0.1552 0)
  (-0.0567861 0.178808 0)
  (-0.0458481 0.20618 0)
  (-0.0463047 0.206801 0)
  (-0.0565842 0.202525 0)
  (-0.0693543 0.204196 0)
  (-0.0801621 0.209631 0)
  (-0.0875115 0.217643 0)
  (-0.0911886 0.227068 0)
  (-0.0917514 0.234019 0)
  (-0.0909126 0.240437 0)
  (-0.0897119 0.245338 0)
  (-0.0886767 0.248734 0)
  (-0.0881816 0.251547 0)
  (-0.0883942 0.253913 0)
  (-0.089321 0.255603 0)
  (-0.0909401 0.256553 0)
  (-0.0931581 0.256281 0)
  (-0.0959408 0.256336 0)
  (-0.0991972 0.257216 0)
  (-0.10278 0.259583 0)
  (-0.106497 0.264075 0)
  (-0.110123 0.271009 0)
  (-0.113417 0.279961 0)
  (-0.116111 0.289265 0)
  (-0.117839 0.295682 0)
  (-0.118162 0.298623 0)
  (-0.116252 0.296616 0)
  (-0.110698 0.290242 0)
  (-0.0995385 0.281195 0)
  (-0.0809099 0.271799 0)
  (-0.0549885 0.265435 0)
  (-0.0246105 0.265907 0)
  (0.0173097 0.273538 0)
  (0.132655 0.329338 0)
  (-0.292427 0.326071 0)
)
;

boundaryField
{
  floor
  {
    type noSlip;
  }
  ceiling
  {
    type noSlip;
  }
  sWall
  {
    type noSlip;
  }
  nWall
  {
    type noSlip;
  }
  sideWalls
  {
    type empty;
  }
  glass1
  {
    type noSlip;
  }
  glass2
  {
    type noSlip;
  }
  sun
  {
    type noSlip;
  }
  heatsource1
  {
    type noSlip;
  }
  heatsource2
  {
    type noSlip;
  }
  Table_master
  {
    type noSlip;
  }
  Table_slave
  {
    type noSlip;
  }
  inlet
  {
    type fixedValue;
    value uniform (0.277164 -0.114805 0);
  }
  outlet
  {
    type zeroGradient;
  }
} 	// ************************************************************************* //

