/*--------------------------------*- C++ -*----------------------------------*\
  =========                 |
  \\      /  F ield         | OpenFOAM: The Open Source CFD Toolbox
   \\    /   O peration     | Website:  https://openfoam.org
    \\  /    A nd           | Version:  6
     \\/     M anipulation  |
\*---------------------------------------------------------------------------*/
FoamFile
{
    version     2.0;
    format      ascii;
    class       volScalarField;
    location    "900";
    object      epsilon;
}
// * * * * * * * * * * * * * * * * * * * * * * * * * * * * * * * * * * * * * //

dimensions      [0 2 -3 0 0 0 0];

internalField   nonuniform List<scalar> 
459
(
0.000360957
0.000461076
0.000480137
0.000548966
0.000617316
0.000684908
0.00075386
0.000827955
0.000894332
0.000936347
0.000940855
0.000898939
0.000812944
0.00070189
0.000592115
2.98412e-05
5.6269e-05
7.41857e-05
6.81101e-05
5.9233e-05
5.03124e-05
4.18092e-05
3.47153e-05
2.905e-05
2.45493e-05
2.09517e-05
1.80544e-05
1.57014e-05
1.37492e-05
1.20806e-05
1.0584e-05
9.13983e-06
8.31101e-06
6.42435e-06
0.000955013
0.00145816
0.000436434
0.000417946
0.000432984
0.000457206
0.000492518
0.000543678
0.000603389
0.000654771
0.000679471
0.000663781
0.000605732
0.000524226
0.000478076
0.000617296
0.000175542
4.19278e-05
9.83082e-05
9.57478e-05
8.22519e-05
6.70061e-05
5.40008e-05
4.62247e-05
3.7527e-05
3.01712e-05
2.43298e-05
1.97662e-05
1.62122e-05
1.34553e-05
1.1319e-05
9.77668e-06
8.93009e-06
8.68632e-06
2.33388e-05
1.56079e-05
0.00179636
0.00376682
0.000560018
0.000398101
0.000407819
0.000445238
0.000501671
0.000579388
0.000669273
0.000746176
0.000786488
0.000777949
0.000721536
0.000635072
0.000551022
0.00050667
0.000554533
0.000358956
0.000226464
0.000157126
0.000114031
8.58769e-05
6.90778e-05
0.000116503
8.32612e-05
6.15149e-05
4.68905e-05
3.67614e-05
2.95473e-05
2.42863e-05
2.03907e-05
1.75066e-05
1.34915e-05
1.14074e-05
4.27325e-05
2.48808e-05
0.00299145
0.00802146
0.000934745
0.000403906
0.000391923
0.000441854
0.000522412
0.000640098
0.00077105
0.000868899
0.000911912
0.000896409
0.000828991
0.00072809
0.000612226
0.000520611
0.000480356
0.000854222
0.00046152
0.000264694
0.00017045
0.000118872
8.83669e-05
7.39176e-05
0.000161985
0.000127329
0.000106417
9.24267e-05
8.14394e-05
7.16078e-05
6.28486e-05
5.42695e-05
4.50703e-05
2.74137e-05
1.81935e-05
6.75754e-05
3.41104e-05
0.00467354
0.014458
0.00193476
0.000489018
0.000393335
0.000443619
0.000559694
0.000769641
0.000955989
0.00105975
0.00108697
0.00104751
0.000953645
0.000820691
0.00066792
0.000519657
0.000395146
0.000322087
0.000243479
0.000179367
0.000132169
9.9649e-05
7.83501e-05
6.62564e-05
6.51903e-05
6.28015e-05
6.03348e-05
5.75541e-05
5.39163e-05
4.92065e-05
4.43493e-05
3.96923e-05
3.54127e-05
2.89646e-05
2.25294e-05
4.90908e-05
3.8493e-05
6.85046e-05
0.000121504
0.000169929
0.00704036
0.0215053
0.0044802
0.000982791
0.000585315
0.000574585
0.000746632
0.00112024
0.00130604
0.00136221
0.00133931
0.00125848
0.00112621
0.000950197
0.000749695
0.000553012
0.000388367
0.000274298
0.000200589
0.0001489
0.000111365
8.62844e-05
7.13986e-05
6.44424e-05
6.35501e-05
6.51799e-05
6.69803e-05
6.76444e-05
6.61335e-05
6.15465e-05
5.3908e-05
4.58273e-05
3.84469e-05
3.19856e-05
2.78309e-05
3.73936e-05
3.92092e-05
5.0473e-05
0.000224344
0.000190902
0.00988182
0.0256943
0.00948578
0.00344094
0.00204496
0.00163814
0.00181582
0.00194314
0.00192567
0.00183304
0.00170609
0.00154802
0.00134909
0.0011091
0.000848032
0.000599132
0.000395599
0.000257225
0.000173644
0.000123794
9.30358e-05
7.58355e-05
6.84447e-05
6.78721e-05
7.17781e-05
7.76997e-05
8.38274e-05
8.9185e-05
9.26803e-05
9.25481e-05
8.54222e-05
7.42684e-05
6.33972e-05
5.43049e-05
5.03891e-05
5.60448e-05
7.06876e-05
0.000113823
0.000275838
0.000264187
0.01057
0.0287113
0.0156964
0.0103858
0.00721039
0.00534674
0.00420939
0.00340742
0.00285892
0.00247821
0.00218371
0.00190752
0.00160694
0.00127244
0.000929633
0.000617672
0.000372131
0.000218188
0.000133318
9.59988e-05
7.80944e-05
7.09526e-05
7.06807e-05
7.49845e-05
8.24101e-05
9.18831e-05
0.00010283
0.000115202
0.000129074
0.000144212
0.000159418
0.000165705
0.000171225
0.00018632
0.000219332
0.000325497
0.000602084
0.00116681
0.00359401
0.00106648
0.00980606
0.0166419
0.0133854
0.0101273
0.00770894
0.00600073
0.00481124
0.00401028
0.00346432
0.00305276
0.00267825
0.0022787
0.00183295
0.00135626
0.000906526
0.000531002
0.000261795
0.000148007
9.85385e-05
7.77025e-05
6.97599e-05
6.88006e-05
7.21226e-05
7.84263e-05
8.71571e-05
9.81869e-05
0.0001118
0.000128747
0.000150253
0.000178083
0.000214623
0.000263275
0.000329651
0.000432541
0.000586374
0.000799146
0.00104759
0.00126892
0.00143567
0.000894867
0.00425289
0.00644927
0.00632208
0.00585309
0.00537147
0.00483614
0.0042625
0.0036536
0.0030058
0.00233092
0.00165867
0.000996184
0.000499304
0.000249289
0.000133887
8.90143e-05
7.13595e-05
6.48308e-05
6.33261e-05
6.45953e-05
6.77245e-05
7.23693e-05
7.85316e-05
8.6467e-05
9.67066e-05
0.000110122
0.000128029
0.00015237
0.000186033
0.000233431
0.000299433
0.000391191
0.00051281
0.000654519
0.000780282
0.000838992
0.000802121
0.000514718
0.00301084
0.00624589
0.00638133
0.00534623
0.00472499
0.00426769
0.00366868
0.00289843
0.00207823
0.00136911
0.000821232
0.000448189
0.000241619
0.000145157
0.000105476
9.15662e-05
8.70777e-05
8.56602e-05
8.5305e-05
8.57016e-05
8.70165e-05
8.9358e-05
9.29658e-05
9.81971e-05
0.000105571
0.000115869
0.000130279
0.000150596
0.000179439
0.000220147
0.000277167
0.000355193
0.000455228
0.000569398
0.000658315
0.000756473
0.000736419
0.000543244
0.00200311
0.00237711
0.00267345
0.00318339
0.00273216
0.00227549
0.00192108
0.00161113
0.00135491
0.00109812
0.000840683
0.000590121
0.000383626
0.000239889
0.00015462
0.00010935
8.65886e-05
7.53897e-05
7.02364e-05
6.85602e-05
6.92506e-05
7.1683e-05
7.53913e-05
8.0459e-05
8.70686e-05
9.54869e-05
0.000106085
0.000119393
0.000136208
0.000157833
0.000185346
0.000219556
0.000262484
0.000316761
0.000385055
0.000477987
0.000516433
0.000481753
0.00039869
0.000322868
)
;

boundaryField
{
    floor
    {
        Cmu             0.09;
        kappa           0.41;
        E               9.8;
        type            epsilonWallFunction;
        value           nonuniform List<scalar> 
29
(
0.000592115
2.98412e-05
5.6269e-05
7.41857e-05
6.81101e-05
5.9233e-05
5.03124e-05
4.18092e-05
3.47153e-05
2.905e-05
2.45493e-05
2.09517e-05
1.80544e-05
1.57014e-05
1.37492e-05
1.20806e-05
1.0584e-05
9.13983e-06
8.31101e-06
6.42435e-06
6.42435e-06
1.56079e-05
2.48808e-05
3.41104e-05
0.000592115
2.98412e-05
4.19278e-05
0.000358956
0.000854222
)
;
    }
    ceiling
    {
        Cmu             0.09;
        kappa           0.41;
        E               9.8;
        type            epsilonWallFunction;
        value           nonuniform List<scalar> 
43
(
0.00200311
0.00237711
0.00267345
0.00318339
0.00273216
0.00227549
0.00192108
0.00161113
0.00135491
0.00109812
0.000840683
0.000590121
0.000383626
0.000239889
0.00015462
0.00010935
8.65886e-05
7.53897e-05
7.02364e-05
6.85602e-05
6.92506e-05
7.1683e-05
7.53913e-05
8.0459e-05
8.70686e-05
9.54869e-05
0.000106085
0.000119393
0.000136208
0.000157833
0.000185346
0.000219556
0.000262484
0.000316761
0.000385055
0.000477987
0.000516433
0.000481753
0.00039869
0.000322868
0.00980606
0.0166419
0.00301084
)
;
    }
    sWall
    {
        Cmu             0.09;
        kappa           0.41;
        E               9.8;
        type            epsilonWallFunction;
        value           uniform 0.00200311;
    }
    nWall
    {
        Cmu             0.09;
        kappa           0.41;
        E               9.8;
        type            epsilonWallFunction;
        value           nonuniform List<scalar> 6(0.000169929 0.000190902 0.000264187 0.000514718 0.000543244 0.000322868);
    }
    sideWalls
    {
        type            empty;
    }
    glass1
    {
        Cmu             0.09;
        kappa           0.41;
        E               9.8;
        type            epsilonWallFunction;
        value           nonuniform List<scalar> 9(0.000360957 0.000955013 0.00179636 0.00299145 0.00467354 0.00704036 0.00988182 0.01057 0.00980606);
    }
    glass2
    {
        Cmu             0.09;
        kappa           0.41;
        E               9.8;
        type            epsilonWallFunction;
        value           nonuniform List<scalar> 2(0.00106648 0.000894867);
    }
    sun
    {
        Cmu             0.09;
        kappa           0.41;
        E               9.8;
        type            epsilonWallFunction;
        value           nonuniform List<scalar> 
14
(
0.000360957
0.000461076
0.000480137
0.000548966
0.000617316
0.000684908
0.00075386
0.000827955
0.000894332
0.000936347
0.000940855
0.000898939
0.000812944
0.00070189
)
;
    }
    heatsource1
    {
        Cmu             0.09;
        kappa           0.41;
        E               9.8;
        type            epsilonWallFunction;
        value           nonuniform List<scalar> 3(6.85046e-05 0.000121504 0.000169929);
    }
    heatsource2
    {
        Cmu             0.09;
        kappa           0.41;
        E               9.8;
        type            epsilonWallFunction;
        value           nonuniform List<scalar> 4(0.000617296 0.000175542 0.000175542 0.000554533);
    }
    Table_master
    {
        Cmu             0.09;
        kappa           0.41;
        E               9.8;
        type            epsilonWallFunction;
        value           nonuniform List<scalar> 9(0.000116503 8.32612e-05 6.15149e-05 4.68905e-05 3.67614e-05 2.95473e-05 2.42863e-05 2.03907e-05 1.75066e-05);
    }
    Table_slave
    {
        Cmu             0.09;
        kappa           0.41;
        E               9.8;
        type            epsilonWallFunction;
        value           nonuniform List<scalar> 9(0.000161985 0.000127329 0.000106417 9.24267e-05 8.14394e-05 7.16078e-05 6.28486e-05 5.42695e-05 4.50703e-05);
    }
    inlet
    {
        type            turbulentMixingLengthDissipationRateInlet;
        mixingLength    0.01;
        phi             phi;
        k               k;
        value           uniform 0.000101881;
    }
    outlet
    {
        type            zeroGradient;
    }
}


// ************************************************************************* //
