/*--------------------------------*- C++ -*----------------------------------*\
  =========                 |
  \\      /  F ield         | OpenFOAM: The Open Source CFD Toolbox
   \\    /   O peration     | Website:  https://openfoam.org
    \\  /    A nd           | Version:  6
     \\/     M anipulation  |
\*---------------------------------------------------------------------------*/
FoamFile
{
    version     2.0;
    format      ascii;
    class       surfaceScalarField;
    location    "280";
    object      phi;
}
// * * * * * * * * * * * * * * * * * * * * * * * * * * * * * * * * * * * * * //

dimensions      [1 0 -1 0 0 0 0];

internalField   nonuniform List<scalar> 
852
(
-0.00158449
0.00159481
-0.00228413
0.000699598
-0.0024863
0.000202124
-0.00219464
-0.000291708
-0.00131392
-0.000880767
0.00013298
-0.00144697
0.00146541
-0.00133248
0.00244153
-0.00097617
0.00306488
-0.000623414
0.00338503
-0.000320203
0.00344024
-5.52654e-05
0.00324713
0.000193056
0.00277592
0.00047115
0.00187656
0.00089931
0.00187476
-0.000217893
0.000214723
-0.000444743
0.000226765
-7.3353e-05
-0.000371474
0.000514096
-0.000587533
0.00100722
-0.000493205
0.00136017
-0.00035304
0.00156146
-0.000201376
0.0016599
-9.85291e-05
0.00171832
-5.85041e-05
0.00175872
-4.04956e-05
0.00178585
-2.72196e-05
0.00180038
-1.46206e-05
0.00179741
2.88375e-06
0.00176222
3.50927e-05
0.0016617
0.000100427
0.00143864
0.000222969
0.00103983
0.000398713
0.000367592
0.000672145
0.00036319
-0.00117651
0.00280064
-0.00175901
0.00128206
-0.00195543
0.000398505
-0.0017015
-0.000545673
-0.000966084
-0.00161623
6.60613e-05
-0.00247918
0.00109438
-0.00236087
0.0018979
-0.00177977
0.00243022
-0.00115581
0.00271121
-0.000601263
0.00278548
-0.000129602
0.00269187
0.000286597
0.00247493
0.000688018
0.0022666
0.00110758
0.00259296
0.00154834
0.0012395
0.00135335
0.00123938
-7.63462e-05
0.000283562
0.000267555
-0.00011722
0.00070173
-0.00080573
0.00104528
-0.000931167
0.00134013
-0.000788141
0.00154788
-0.000560877
0.00159544
-0.000249014
0.00160714
-0.000110319
0.00161866
-7.01171e-05
0.00162843
-5.03529e-05
0.00163559
-3.44712e-05
0.00164059
-1.97079e-05
0.00164137
2.01413e-06
0.00163155
4.48158e-05
0.00157824
0.000153641
0.00136983
0.000431288
0.0010242
0.000744243
0.00058038
0.00111587
0.000931507
-0.000881485
0.00372873
-0.00135399
0.00175453
-0.0015376
0.000582078
-0.00131652
-0.000766788
-0.000690604
-0.00224217
8.53589e-05
-0.00325521
0.000853404
-0.00312901
0.00147947
-0.00240594
0.00189053
-0.00156697
0.00210217
-0.000812991
0.00216608
-0.000193596
0.00213458
0.000318022
0.00206174
0.00076078
0.00199692
0.00117233
0.00193343
0.00161176
0.0013938
0.0018929
0.00263311
0.000179793
9.21946e-05
0.00105409
-0.000991597
0.00139136
-0.00114308
0.00155006
-0.00108995
0.00167141
-0.000909573
0.00181479
-0.000704349
0.00156585
0.0014556
0.00138554
0.00133526
0.00130085
0.0012812
0.00128328
0.00132815
0.00148185
0.00124173
0.000671316
0.00100231
0.000983566
0.000697099
0.00142098
0.00160958
-0.000668893
0.00445996
-0.00102886
0.00211446
-0.00115774
0.000710922
-0.000898819
-0.00102573
-0.000349928
-0.00279109
0.000203006
-0.00380821
0.000733764
-0.00365988
0.00116279
-0.0028351
0.00141927
-0.00182357
0.0015243
-0.000918131
0.00154087
-0.000210254
0.00152838
0.00033042
0.00153143
0.000757652
0.0015746
0.00112908
0.00169747
0.00148881
0.00191558
0.00167473
0.0028343
0.00171432
0.00215158
0.000670851
0.00244911
-0.000205409
0.0021836
-0.000726168
0.00202804
-0.00098759
0.00190372
-0.000965722
0.00179553
-0.000801466
0.0016405
-0.000549413
0.0018269
-0.000186645
0.00185744
-3.07799e-05
0.00182124
3.59528e-05
0.00174578
7.52042e-05
0.00164028
0.000105259
0.00150662
0.000133407
0.00133817
0.000168195
0.00111514
0.00022277
0.000789313
0.000325567
0.000847439
0.00061309
0.000860878
0.000970029
0.000870541
0.00141122
0.00245535
-0.000508199
0.00504484
-0.000745999
0.00235223
-0.000724214
0.000689111
-0.000320116
-0.00142985
0.000123003
-0.00323423
0.000447735
-0.00413301
0.000732376
-0.00394465
0.000932051
-0.00303493
0.000996117
-0.00188779
0.000959195
-0.000881334
0.000903387
-0.000154552
0.000895615
0.000338101
0.000966132
0.000687052
0.00112788
0.000967258
0.00141699
0.00119963
0.00180919
0.00128245
0.00231828
0.00120516
0.00248753
0.000501528
0.00244231
-0.000160263
0.00226172
-0.000545661
0.00200229
-0.000728245
0.00175184
-0.000715354
0.00152837
-0.00057809
0.00134479
-0.000365933
0.00127462
-0.000116569
0.00118769
5.60543e-05
0.00108042
0.000143124
0.000970484
0.000185037
0.000863433
0.00021221
0.000758566
0.000238173
0.000653928
0.000272731
0.000550149
0.000326443
0.00047861
0.000396998
0.000564042
0.000527557
0.000830157
0.000703816
0.00148249
0.000758789
0.00268821
0.00124953
0.00181739
0.000870509
0.00112995
0.000687139
0.00114683
-0.000408727
0.00554356
-0.000461284
0.00240476
-5.80732e-05
0.000285874
0.00046598
-0.00195392
0.000752833
-0.00352109
0.00084427
-0.0042245
0.000849686
-0.0039502
0.000773022
-0.00295845
0.000602172
-0.00171711
0.000401589
-0.000680888
0.000278502
-3.15749e-05
0.000283734
0.000332779
0.000405673
0.000565031
0.000625997
0.000746855
0.000943565
0.00088199
0.00132225
0.000903693
0.00175846
0.000768875
0.00194766
0.000312243
0.00188974
-0.000102423
0.00170699
-0.000363009
0.00144664
-0.000467986
0.00117129
-0.000440105
0.000915604
-0.000322503
0.000697282
-0.000147712
0.000537277
4.3333e-05
0.000417537
0.000175692
0.000318757
0.000241802
0.000230214
0.000273478
0.000151799
0.000290523
8.86793e-05
0.000301189
5.24783e-05
0.000308827
6.32726e-05
0.000315542
0.000141211
0.000318953
0.000331119
0.000337549
0.000632791
0.000402047
0.00097766
0.000413822
0.00140304
0.000824049
0.00136276
0.000910691
0.000895077
0.00115472
0.00206094
-0.0001832
0.00583034
0.000158982
0.00206255
0.00101993
-0.000575097
0.00150136
-0.00243535
0.00159924
-0.00361898
0.00140803
-0.00403336
0.0010571
-0.00359943
0.000635709
-0.00253725
0.000184332
-0.00126592
-0.000146729
-0.000349969
-0.00027978
0.000101369
-0.000250389
0.000303296
-0.000112037
0.000426593
0.00011303
0.000521702
0.000407876
0.00058706
0.000732537
0.000578946
0.00104187
0.000459453
0.00115344
0.000200581
0.00108023
-2.9316e-05
0.000892246
-0.000175125
0.000641463
-0.000217309
0.000372199
-0.000170949
0.000115092
-6.55043e-05
-0.000100105
6.7377e-05
-0.000243578
0.000186699
-0.000331258
0.000263266
-0.000396731
0.00030717
-0.000450141
0.000326783
-0.000486894
0.00032717
-0.000495074
0.000309263
-0.000459065
0.000272713
-0.000363013
0.000219384
-0.000201634
0.000157468
1.35318e-05
0.000122279
0.000231082
0.000184394
0.000361811
0.000282991
0.000649835
0.000535928
0.000905423
0.000655004
0.000761427
0.00129861
0.00284251
0.00150246
0.00444592
0.00219522
0.00136976
0.00278276
-0.00116265
0.00300019
-0.00265277
0.00272434
-0.00334314
0.00207415
-0.00338324
0.00122485
-0.00275029
0.000368879
-0.00168152
-0.00031931
-0.00057793
-0.000669198
-2.18785e-07
-0.000769352
0.000201416
-0.000733018
0.000266862
-0.000613223
0.000306699
-0.000433896
0.000342276
-0.000212642
0.000365707
1.35053e-05
0.000352698
0.000185977
0.000286877
0.00021723
0.000169219
0.000124535
6.32673e-05
-5.63588e-05
5.65513e-06
-0.000284074
1.02915e-05
-0.000512886
5.77484e-05
-0.000705499
0.000126994
-0.000839036
0.000200802
-0.00091897
0.000266522
-0.000969368
0.000313554
-0.0010031
0.000340792
-0.00102404
0.000347608
-0.00103001
0.000333034
-0.00101853
0.000297676
-0.000992798
0.000246864
-0.000967193
0.000193667
-0.00097178
0.000161946
-0.00104226
0.00019265
-0.00118902
0.000331056
-0.00148764
0.000581506
-0.00189602
0.000944207
-0.00249025
0.00124913
-0.00250583
0.00131408
0.000411733
0.00456166
0.00591583
0.005641
-0.000887798
0.00491382
-0.00192558
0.00378896
-0.0022183
0.00242494
-0.00201934
0.000942875
-0.00126845
-0.000314781
-0.00042412
-0.00101711
0.000124223
-0.00127181
0.000254353
-0.00131852
0.000248006
-0.00127821
0.000226443
-0.00119093
0.000219301
-0.00107502
0.000226251
-0.000946842
0.000237413
-0.000833559
0.000239298
-0.000769556
0.000222755
-0.000787286
0.000186829
-0.000877279
0.000153138
-0.00101041
0.000138665
-0.00114959
0.000149346
-0.00126984
0.000177887
-0.00135839
0.000215417
-0.00141253
0.000254824
-0.0014368
0.000290685
-0.00144093
0.00031756
-0.00143192
0.000331671
-0.0014145
0.000330066
-0.00139364
0.000312055
-0.00137721
0.00028113
-0.0013771
0.000246628
-0.00140801
0.000224461
-0.00148384
0.000237661
-0.00160888
0.000317579
-0.00177916
0.000501228
-0.00202272
0.000824964
-0.00235353
0.00127492
-0.00268648
0.00158197
-0.0024186
0.00104606
-0.00195372
0.00588718
-0.000289923
0.00444233
-0.000480814
0.00268609
-0.0004622
0.000804051
-0.000137492
-0.000778201
0.000313487
-0.00165501
0.000452492
-0.00191984
0.000388901
-0.00196429
0.000298667
-0.00194252
0.000226113
-0.00189721
0.000180997
-0.00184082
0.000162787
-0.00177894
0.000164241
-0.00171818
0.000176523
-0.00166941
0.000190399
-0.00164468
0.000197894
-0.0016529
0.000194929
-0.00168698
0.00018708
-0.00173078
0.000182344
-0.00176706
0.000185496
-0.00178549
0.000196196
-0.00178243
0.000212232
-0.00175858
0.000230848
-0.00171693
0.000248914
-0.00166219
0.000262689
-0.00159929
0.000268652
-0.00153359
0.000264243
-0.00147088
0.000249216
-0.00141672
0.000226843
-0.00137498
0.000204765
-0.00134616
0.000195508
-0.00132579
0.000217171
-0.00130211
0.000293785
-0.0012547
0.000453707
-0.00115526
0.000725411
-0.000945705
0.00106526
-0.000459585
0.00109574
0.000174019
0.000412326
-0.00176815
-0.00111877
0.000810143
-0.00178247
0.000182723
-0.00238354
0.000138696
-0.00276071
0.000239499
-0.00281104
0.000363629
-0.00274445
0.000385747
-0.00266404
0.000308345
-0.00258934
0.000223828
-0.00252719
0.000163826
-0.00247543
0.000129096
-0.00242719
0.00011441
-0.00237703
0.000113949
-0.00232303
0.000122387
-0.00226722
0.000134458
-0.00221448
0.000145017
-0.00216997
0.00015029
-0.00213381
0.000150789
-0.0021011
0.000149498
-0.00206494
0.000149209
-0.00201988
0.000150999
-0.0019626
0.000154825
-0.00189176
0.00015988
-0.00180771
0.000164735
-0.00171264
0.000167489
-0.00161048
0.000166355
-0.00150662
0.000160257
-0.00140707
0.000149537
-0.00131683
0.00013647
-0.0012376
0.000125414
-0.00116486
0.00012264
-0.00108397
0.000136148
-0.000965567
0.000175262
-0.0007585
0.00024652
-0.000367293
0.000334088
0.000300928
0.000396928
0.00109655
0.000299998
0.00153279
-2.4027e-05
-0.000224053
-0.00505327
-0.00555842
-0.00477927
-0.00462774
-0.00452251
-0.00431907
-0.00399403
-0.00364889
-0.00338237
-0.00320101
-0.00308001
-0.00299394
-0.00292269
-0.00285198
-0.0027729
-0.00268182
-0.0025803
-0.00247367
-0.00236674
-0.00226132
-0.00215639
-0.0020498
-0.00193947
-0.00182409
-0.00170378
-0.00158056
-0.00145825
-0.00134176
-0.00123569
-0.00114243
-0.00106006
-0.000980469
-0.000887636
-0.000756258
-0.000554545
-0.000266609
8.23749e-05
0.000333497
0.000261081
)
;

boundaryField
{
    floor
    {
        type            calculated;
        value           nonuniform List<scalar> 
29
(
0
0
0
0
0
0
0
0
0
0
0
0
0
0
0
0
0
0
0
0
4.30347e-06
1.19643e-05
1.89241e-05
2.46772e-05
1.74091e-06
3.08227e-06
7.41859e-06
1.149e-05
1.18025e-05
)
;
    }
    ceiling
    {
        type            calculated;
        value           nonuniform List<scalar> 
43
(
3.51516e-05
3.30298e-05
3.08261e-05
3.103e-05
3.33098e-05
3.59031e-05
3.84326e-05
4.04551e-05
4.1686e-05
4.23304e-05
4.268e-05
4.28878e-05
4.30174e-05
4.31018e-05
4.31677e-05
4.32438e-05
4.3357e-05
4.35218e-05
4.37269e-05
4.39426e-05
4.41355e-05
4.42797e-05
4.43586e-05
4.43631e-05
4.42887e-05
4.41354e-05
4.39107e-05
4.3633e-05
4.33366e-05
4.30732e-05
4.291e-05
4.29234e-05
4.3187e-05
4.37591e-05
4.46845e-05
4.60321e-05
4.78264e-05
4.87571e-05
4.82681e-05
5.0574e-05
1.71279e-05
1.55535e-05
1.85476e-05
)
;
    }
    sWall
    {
        type            calculated;
        value           uniform -1.79001e-05;
    }
    nWall
    {
        type            calculated;
        value           nonuniform List<scalar> 6(-1.71969e-05 -1.91332e-05 -2.02505e-05 -1.16718e-05 -1.14186e-05 -1.36668e-05);
    }
    sideWalls
    {
        type            empty;
        value           nonuniform 0();
    }
    glass1
    {
        type            calculated;
        value           nonuniform List<scalar> 9(-1.03617e-05 -2.93629e-05 -4.6641e-05 -6.23724e-05 -7.67231e-05 -9.00246e-05 -0.000103604 -0.000118069 -0.000132901);
    }
    glass2
    {
        type            calculated;
        value           nonuniform List<scalar> 2(-7.51546e-05 -5.33365e-05);
    }
    sun
    {
        type            calculated;
        value           uniform 0;
    }
    heatsource1
    {
        type            calculated;
        value           nonuniform List<scalar> 3(2.05152e-07 2.05515e-07 2.05794e-07);
    }
    heatsource2
    {
        type            calculated;
        value           nonuniform List<scalar> 4(5.15141e-08 5.16742e-08 0 0);
    }
    Table_master
    {
        type            calculated;
        value           nonuniform List<scalar> 9(-1.54325e-07 -1.54445e-07 -1.54475e-07 -1.54489e-07 -1.54494e-07 -1.54491e-07 -1.54481e-07 -1.5445e-07 -1.54385e-07);
    }
    Table_slave
    {
        type            calculated;
        value           nonuniform List<scalar> 9(1.54158e-07 1.54181e-07 1.54164e-07 1.54159e-07 1.54167e-07 1.54185e-07 1.54212e-07 1.5425e-07 1.54306e-07);
    }
    inlet
    {
        type            calculated;
        value           uniform -0.00648509;
    }
    outlet
    {
        type            calculated;
        value           nonuniform List<scalar> 2(0.00503585 0.000471946);
    }
}


// ************************************************************************* //
