// -*- C++ -*-
// File generated by PyFoam - sorry for the ugliness

FoamFile
{
 version 2.0;
 format ascii;
 class volVectorField;
 location "330";
 object U;
}

dimensions [ 0 1 -1 0 0 0 0 ];

internalField nonuniform List<vector> 459
(
  (-0.00271859 0.0591753 0)
  (-0.119648 0.0204531 0)
  (-0.145001 0.00853403 0)
  (-0.162233 -0.00101371 0)
  (-0.164081 -0.0110845 0)
  (-0.148476 -0.0223382 0)
  (-0.116642 -0.0342262 0)
  (-0.0730083 -0.0440454 0)
  (-0.0251108 -0.0484356 0)
  (0.0309455 -0.0361489 0)
  (0.0603395 -0.0245683 0)
  (0.0805742 -0.0135871 0)
  (0.0873136 -0.00269251 0)
  (0.0756768 0.0124932 0)
  (0.072394 0.0432302 0)
  (-0.0699741 0.00720217 0)
  (-0.000598337 0.00135382 0)
  (-0.00108752 -0.0149788 0)
  (0.0209748 -0.0210959 0)
  (0.0400942 -0.0180156 0)
  (0.0574218 -0.0131692 0)
  (0.0693197 -0.00772284 0)
  (0.0757264 -0.00468387 0)
  (0.0783985 -0.00350725 0)
  (0.079513 -0.00301943 0)
  (0.0801507 -0.00268767 0)
  (0.0804581 -0.00237159 0)
  (0.0802388 -0.00193153 0)
  (0.0790921 -0.00111059 0)
  (0.076106 0.000647938 0)
  (0.0694181 0.00426829 0)
  (0.0568748 0.00962234 0)
  (0.0252876 0.018878 0)
  (0.0618639 0.0122248 0)
  (0.0948246 0.122537 0)
  (-0.105239 0.058167 0)
  (-0.117032 0.0372427 0)
  (-0.134976 0.0175365 0)
  (-0.138006 -0.00524646 0)
  (-0.124557 -0.0310409 0)
  (-0.0965757 -0.0557601 0)
  (-0.0591863 -0.0727564 0)
  (-0.0198995 -0.0763329 0)
  (0.0205346 -0.0598587 0)
  (0.0473188 -0.0393656 0)
  (0.0663775 -0.0187617 0)
  (0.0767848 0.00222594 0)
  (0.0794664 0.0240194 0)
  (0.0838802 0.0516277 0)
  (0.0791846 0.049803 0)
  (0.0512066 0.0479729 0)
  (-0.101591 0.00997149 0)
  (0.024112 -0.0123629 0)
  (0.0295995 -0.0284508 0)
  (0.0429781 -0.0324491 0)
  (0.0565993 -0.0280581 0)
  (0.067949 -0.0202171 0)
  (0.0738126 -0.00871059 0)
  (0.075227 -0.00190744 0)
  (0.0751512 0.00069057 0)
  (0.0752662 0.00166745 0)
  (0.0755963 0.00222933 0)
  (0.0758621 0.002749 0)
  (0.0759416 0.0034883 0)
  (0.0757513 0.00498709 0)
  (0.0746564 0.00846795 0)
  (0.0697122 0.0173383 0)
  (0.0586499 0.0269885 0)
  (0.0233214 0.039468 0)
  (0.105289 0.0315547 0)
  (0.185782 0.183154 0)
  (-0.106006 0.0890992 0)
  (-0.0901846 0.0581969 0)
  (-0.107784 0.0258504 0)
  (-0.111131 -0.0111685 0)
  (-0.0978843 -0.0515758 0)
  (-0.0720041 -0.0882088 0)
  (-0.0401983 -0.109908 0)
  (-0.00842177 -0.110082 0)
  (0.020562 -0.088678 0)
  (0.0427603 -0.0610887 0)
  (0.0589706 -0.0329182 0)
  (0.0688734 -0.00566215 0)
  (0.0738031 0.020681 0)
  (0.0764003 0.0457406 0)
  (0.0703644 0.0561846 0)
  (0.0557491 0.0820048 0)
  (-0.0800859 -0.0159937 0)
  (0.0470594 -0.0398528 0)
  (0.0578162 -0.0476439 0)
  (0.064659 -0.0457118 0)
  (0.0715472 -0.0386978 0)
  (0.0776979 -0.0310876 0)
  (0.0790718 -0.0230279 0)
  (0.0718586 -0.0149007 0)
  (0.0661467 -0.0106017 0)
  (0.0638355 -0.008229 0)
  (0.063091 -0.00670879 0)
  (0.0627943 -0.00561201 0)
  (0.0629968 -0.00454464 0)
  (0.0645184 -0.00289057 0)
  (0.0692766 0.00191545 0)
  (0.0692032 0.0229648 0)
  (0.0604592 0.0394649 0)
  (0.0208311 0.0582768 0)
  (0.134448 0.0612804 0)
  (0.271208 0.232065 0)
  (-0.117761 0.114892 0)
  (-0.0624922 0.0772748 0)
  (-0.0787497 0.0351028 0)
  (-0.0798867 -0.0151864 0)
  (-0.063849 -0.0704855 0)
  (-0.0397013 -0.117238 0)
  (-0.0146995 -0.140998 0)
  (0.00856603 -0.137022 0)
  (0.0277511 -0.112067 0)
  (0.043673 -0.078731 0)
  (0.0552113 -0.0444769 0)
  (0.0626499 -0.0126179 0)
  (0.0676817 0.0161869 0)
  (0.0731689 0.0418004 0)
  (0.0815347 0.0609446 0)
  (0.0952814 0.0854968 0)
  (0.122313 0.028311 0)
  (0.111466 -0.00422055 0)
  (0.102292 -0.0324566 0)
  (0.091793 -0.0449575 0)
  (0.0840659 -0.0449721 0)
  (0.0790434 -0.0386941 0)
  (0.074836 -0.0291681 0)
  (0.0756897 -0.0172328 0)
  (0.0832915 -0.0110759 0)
  (0.0883776 -0.00766163 0)
  (0.0900411 -0.00555131 0)
  (0.089713 -0.00387692 0)
  (0.0878925 -0.00222271 0)
  (0.0841512 -0.000266573 0)
  (0.0772509 0.00249693 0)
  (0.0639199 0.00686 0)
  (0.0552713 0.0300386 0)
  (0.0559128 0.0488367 0)
  (0.0223433 0.0713727 0)
  (0.155554 0.101772 0)
  (0.349735 0.269328 0)
  (-0.137115 0.133782 0)
  (-0.0345644 0.0892676 0)
  (-0.0469003 0.0411299 0)
  (-0.0398591 -0.0206395 0)
  (-0.0188276 -0.0891494 0)
  (0.00171248 -0.140841 0)
  (0.0177404 -0.161891 0)
  (0.0297157 -0.154171 0)
  (0.0393391 -0.126424 0)
  (0.0466959 -0.0892306 0)
  (0.0514623 -0.0512709 0)
  (0.0545259 -0.017325 0)
  (0.0578558 0.011428 0)
  (0.0637952 0.0346651 0)
  (0.0744634 0.0500119 0)
  (0.0913831 0.0545941 0)
  (0.10587 0.0168194 0)
  (0.105705 -0.0105533 0)
  (0.0978079 -0.0285353 0)
  (0.0875482 -0.0364858 0)
  (0.0772611 -0.0365637 0)
  (0.0683736 -0.0315675 0)
  (0.0614566 -0.0230276 0)
  (0.0584457 -0.0111431 0)
  (0.0589596 -0.00414038 0)
  (0.0594669 -0.000947314 0)
  (0.0592493 0.00081375 0)
  (0.0587951 0.0024517 0)
  (0.0582988 0.00456274 0)
  (0.0573671 0.00766519 0)
  (0.0555407 0.0123734 0)
  (0.0521538 0.0194853 0)
  (0.0501929 0.0336426 0)
  (0.0579946 0.0488645 0)
  (0.0477041 0.0655682 0)
  (0.119407 0.0991736 0)
  (0.112249 0.0777167 0)
  (0.10773 0.0541889 0)
  (-0.166035 0.0524578 0)
  (0.414175 0.298518 0)
  (-0.160473 0.143697 0)
  (-0.00999369 0.0880674 0)
  (-0.010952 0.0403611 0)
  (0.0148965 -0.0387446 0)
  (0.0363828 -0.109309 0)
  (0.0493135 -0.15504 0)
  (0.0546169 -0.171281 0)
  (0.0547649 -0.160327 0)
  (0.0522707 -0.130045 0)
  (0.0484438 -0.0904755 0)
  (0.0442076 -0.0510734 0)
  (0.0409424 -0.0175517 0)
  (0.0403875 0.00846979 0)
  (0.0445474 0.0268115 0)
  (0.0538556 0.0360821 0)
  (0.068023 0.0335478 0)
  (0.0779784 0.0124149 0)
  (0.0787424 -0.00684965 0)
  (0.0726829 -0.0196379 0)
  (0.0633701 -0.0258767 0)
  (0.0531314 -0.0264103 0)
  (0.0435636 -0.0228139 0)
  (0.0357955 -0.0164428 0)
  (0.0309678 -0.00869836 0)
  (0.0290352 -0.00378267 0)
  (0.028484 -0.00153686 0)
  (0.0286564 -0.000372828 0)
  (0.0297244 0.000864098 0)
  (0.0314471 0.0028925 0)
  (0.033638 0.00631734 0)
  (0.0361213 0.0116746 0)
  (0.0387387 0.0192153 0)
  (0.0426188 0.0295209 0)
  (0.0522814 0.0401666 0)
  (0.0536478 0.0464256 0)
  (0.0824141 0.0629518 0)
  (0.0814058 0.0481006 0)
  (0.106956 0.0443417 0)
  (-0.159801 0.0773516 0)
  (0.467306 0.322867 0)
  (-0.173952 0.12977 0)
  (0.0192681 0.049457 0)
  (0.0466418 0.00316557 0)
  (0.0824246 -0.06775 0)
  (0.0996039 -0.126315 0)
  (0.102672 -0.161001 0)
  (0.0947307 -0.168913 0)
  (0.079613 -0.152798 0)
  (0.0617385 -0.1202 0)
  (0.044254 -0.0801001 0)
  (0.0295566 -0.0420007 0)
  (0.0194169 -0.0118838 0)
  (0.0151498 0.00870766 0)
  (0.0181529 0.0209306 0)
  (0.0261135 0.0255965 0)
  (0.0367873 0.0219818 0)
  (0.0434082 0.00914971 0)
  (0.0435404 -0.00366877 0)
  (0.0383514 -0.0124962 0)
  (0.029931 -0.0167322 0)
  (0.0203903 -0.0169404 0)
  (0.0113046 -0.0142911 0)
  (0.00392296 -0.00998196 0)
  (-0.000774874 -0.00533853 0)
  (-0.00272641 -0.00257295 0)
  (-0.00296471 -0.00161964 0)
  (-0.0020844 -0.00151404 0)
  (-0.000149195 -0.00137608 0)
  (0.00321299 -0.000370777 0)
  (0.00819501 0.00233218 0)
  (0.0142771 0.00710754 0)
  (0.0212685 0.0135938 0)
  (0.0294512 0.0213533 0)
  (0.0402875 0.0291162 0)
  (0.0470125 0.0336913 0)
  (0.0623363 0.0451266 0)
  (0.068338 0.0488173 0)
  (0.119889 0.0638471 0)
  (-0.118932 0.129289 0)
  (0.549568 0.316165 0)
  (-0.0264215 0.101265 0)
  (0.0824561 -0.0253666 0)
  (0.15436 -0.0754963 0)
  (0.178883 -0.10847 0)
  (0.17783 -0.136314 0)
  (0.16048 -0.151189 0)
  (0.131374 -0.147956 0)
  (0.0955888 -0.126897 0)
  (0.059307 -0.093982 0)
  (0.0271108 -0.0565191 0)
  (0.00324641 -0.0237565 0)
  (-0.0107427 -0.00153152 0)
  (-0.0147785 0.0100869 0)
  (-0.0121542 0.0160952 0)
  (-0.00593241 0.0178041 0)
  (0.00141847 0.0147396 0)
  (0.00517902 0.00698853 0)
  (0.00413099 -0.000705999 0)
  (-0.000626009 -0.00605087 0)
  (-0.00817952 -0.00836407 0)
  (-0.0163511 -0.00825733 0)
  (-0.0237813 -0.00669548 0)
  (-0.0294775 -0.00458754 0)
  (-0.032899 -0.00280006 0)
  (-0.0342788 -0.00214027 0)
  (-0.0343409 -0.00255838 0)
  (-0.0335703 -0.00361676 0)
  (-0.0321127 -0.00482586 0)
  (-0.0297972 -0.00567057 0)
  (-0.0261469 -0.00559759 0)
  (-0.0199674 -0.00401797 0)
  (-0.0104848 -0.00080519 0)
  (0.000386075 0.00336914 0)
  (0.0122199 0.00716453 0)
  (0.020256 0.00896614 0)
  (0.0311543 0.0142602 0)
  (0.0385291 0.0167933 0)
  (0.122005 0.0704465 0)
  (-0.376883 0.200064 0)
  (0.662083 0.30278 0)
  (0.316197 0.208576 0)
  (0.331134 0.135256 0)
  (0.342496 0.0511202 0)
  (0.31255 -0.0227192 0)
  (0.26254 -0.0728833 0)
  (0.20427 -0.096429 0)
  (0.143084 -0.096612 0)
  (0.0830771 -0.0785022 0)
  (0.0300588 -0.0507071 0)
  (-0.0125327 -0.0203698 0)
  (-0.0351217 -0.0018669 0)
  (-0.0451737 0.00720992 0)
  (-0.0468312 0.01129 0)
  (-0.044642 0.0132317 0)
  (-0.0405909 0.0134115 0)
  (-0.0366633 0.0115222 0)
  (-0.0352828 0.00773445 0)
  (-0.0371353 0.00386801 0)
  (-0.0411764 0.00108471 0)
  (-0.0466752 -0.000301628 0)
  (-0.0524527 -0.00070361 0)
  (-0.057537 -0.000661534 0)
  (-0.061343 -0.000626894 0)
  (-0.0637275 -0.000949278 0)
  (-0.0650735 -0.00185285 0)
  (-0.0659504 -0.00327233 0)
  (-0.0668455 -0.00497054 0)
  (-0.0681913 -0.00659621 0)
  (-0.0704325 -0.00765469 0)
  (-0.0740612 -0.00741619 0)
  (-0.0796794 -0.00475363 0)
  (-0.0875675 0.00126231 0)
  (-0.0972557 0.0109113 0)
  (-0.111897 0.024944 0)
  (-0.135322 0.044519 0)
  (-0.166737 0.0700725 0)
  (-0.206514 0.0979815 0)
  (-0.268577 0.121573 0)
  (-0.518111 0.128795 0)
  (0.221076 -0.0451651 0)
  (0.228641 -0.0506358 0)
  (0.211397 -0.0625155 0)
  (0.163669 -0.0629833 0)
  (0.10678 -0.0545052 0)
  (0.0499295 -0.0396253 0)
  (-0.0062135 -0.0168122 0)
  (-0.0472952 0.00170562 0)
  (-0.0689576 0.0112872 0)
  (-0.0779874 0.0148834 0)
  (-0.0803579 0.0160753 0)
  (-0.0797144 0.0165005 0)
  (-0.0777103 0.0168282 0)
  (-0.0752753 0.0169142 0)
  (-0.0733781 0.0164541 0)
  (-0.0729986 0.0154204 0)
  (-0.0743437 0.0143748 0)
  (-0.0768689 0.0137956 0)
  (-0.0798738 0.0138146 0)
  (-0.0827574 0.0142018 0)
  (-0.0852262 0.0147412 0)
  (-0.0872371 0.0153424 0)
  (-0.0889166 0.0159906 0)
  (-0.0904664 0.0166895 0)
  (-0.0921537 0.0175457 0)
  (-0.0942078 0.0186764 0)
  (-0.0967648 0.0202998 0)
  (-0.0999127 0.0224803 0)
  (-0.103688 0.0249186 0)
  (-0.107808 0.0276111 0)
  (-0.111961 0.0311199 0)
  (-0.11597 0.0370268 0)
  (-0.119549 0.0470451 0)
  (-0.122044 0.0624105 0)
  (-0.12088 0.081558 0)
  (-0.111559 0.0912609 0)
  (-0.0963312 0.0530671 0)
  (-0.160685 -0.170022 0)
  (0.0351924 0.068685 0)
  (-0.0138288 0.00713522 0)
  (-0.0265598 -0.0209673 0)
  (-0.041225 -0.0342882 0)
  (-0.0654219 -0.0389071 0)
  (-0.0873706 -0.0401892 0)
  (-0.102362 -0.0412793 0)
  (-0.108827 -0.0442239 0)
  (-0.111201 -0.0484471 0)
  (-0.111059 -0.0523343 0)
  (-0.109635 -0.0547788 0)
  (-0.107518 -0.0558236 0)
  (-0.104947 -0.0560958 0)
  (-0.102157 -0.0564682 0)
  (-0.0995388 -0.0576903 0)
  (-0.0975269 -0.0600773 0)
  (-0.0962968 -0.0633206 0)
  (-0.095715 -0.0668788 0)
  (-0.0955194 -0.0703486 0)
  (-0.0954914 -0.0736324 0)
  (-0.0955415 -0.0768095 0)
  (-0.0956927 -0.0800393 0)
  (-0.0960491 -0.0835051 0)
  (-0.0967702 -0.0873217 0)
  (-0.0980184 -0.0913957 0)
  (-0.0998921 -0.0953438 0)
  (-0.102337 -0.0985778 0)
  (-0.105064 -0.100072 0)
  (-0.107605 -0.0983335 0)
  (-0.109281 -0.0921561 0)
  (-0.109011 -0.0805743 0)
  (-0.105164 -0.0632744 0)
  (-0.0955477 -0.0409021 0)
  (-0.0778941 -0.0154567 0)
  (-0.0517666 0.0077984 0)
  (-0.0177439 0.0136389 0)
  (0.0900339 -0.0738615 0)
  (-0.114909 -0.128529 0)
  (-0.137487 -0.23742 0)
  (-0.278686 -0.0423416 0)
  (-0.230148 0.144159 0)
  (-0.207477 0.138978 0)
  (-0.186305 0.144258 0)
  (-0.179532 0.153968 0)
  (-0.176266 0.163815 0)
  (-0.171748 0.174471 0)
  (-0.164905 0.185816 0)
  (-0.156613 0.196119 0)
  (-0.148683 0.204684 0)
  (-0.141994 0.210828 0)
  (-0.136593 0.214697 0)
  (-0.131977 0.217104 0)
  (-0.127597 0.219059 0)
  (-0.123149 0.221414 0)
  (-0.11865 0.224673 0)
  (-0.114353 0.228864 0)
  (-0.110525 0.233587 0)
  (-0.107305 0.238323 0)
  (-0.10471 0.242723 0)
  (-0.102693 0.246715 0)
  (-0.101196 0.250445 0)
  (-0.100152 0.254195 0)
  (-0.0994967 0.258291 0)
  (-0.0991672 0.262998 0)
  (-0.0990719 0.268384 0)
  (-0.0990476 0.274238 0)
  (-0.0988559 0.280099 0)
  (-0.0981667 0.285101 0)
  (-0.0964649 0.288026 0)
  (-0.0929621 0.288025 0)
  (-0.0864594 0.284718 0)
  (-0.0753736 0.278678 0)
  (-0.0585228 0.271762 0)
  (-0.0362899 0.26706 0)
  (-0.00769402 0.267506 0)
  (0.0248587 0.273602 0)
  (0.12159 0.317119 0)
  (-0.26958 0.320145 0)
)
;

boundaryField
{
  floor
  {
    type noSlip;
  }
  ceiling
  {
    type noSlip;
  }
  sWall
  {
    type noSlip;
  }
  nWall
  {
    type noSlip;
  }
  sideWalls
  {
    type empty;
  }
  glass1
  {
    type noSlip;
  }
  glass2
  {
    type noSlip;
  }
  sun
  {
    type noSlip;
  }
  heatsource1
  {
    type noSlip;
  }
  heatsource2
  {
    type noSlip;
  }
  Table_master
  {
    type noSlip;
  }
  Table_slave
  {
    type noSlip;
  }
  inlet
  {
    type fixedValue;
    value uniform (0.277164 -0.114805 0);
  }
  outlet
  {
    type zeroGradient;
  }
} 	// ************************************************************************* //

