/*--------------------------------*- C++ -*----------------------------------*\
  =========                 |
  \\      /  F ield         | OpenFOAM: The Open Source CFD Toolbox
   \\    /   O peration     | Website:  https://openfoam.org
    \\  /    A nd           | Version:  6
     \\/     M anipulation  |
\*---------------------------------------------------------------------------*/
FoamFile
{
    version     2.0;
    format      ascii;
    class       volScalarField;
    location    "100";
    object      alphat;
}
// * * * * * * * * * * * * * * * * * * * * * * * * * * * * * * * * * * * * * //

dimensions      [1 -1 -1 0 0 0 0];

internalField   nonuniform List<scalar> 
459
(
0.00152977
0.00170453
0.00177705
0.00188464
0.00199654
0.00210912
0.00219279
0.00223397
0.0022231
0.00210213
0.0019599
0.00180539
0.00162252
0.0014607
0.00128298
0.00079511
0.000938503
0.00110413
0.00121884
0.0012522
0.00123174
0.0011584
0.0010786
0.00100741
0.000946121
0.000893356
0.000847698
0.000807711
0.000772288
0.000740086
0.000709156
0.000676684
0.000638594
0.000582156
0.00196285
0.00523546
0.00529421
0.0061846
0.00700653
0.00760989
0.00812738
0.00854212
0.00884059
0.00887709
0.00854115
0.0079863
0.00720926
0.0056981
0.00375935
0.00151074
0.00126372
0.000764547
0.00213484
0.00344243
0.00451293
0.00515599
0.00504455
0.00343089
0.0028203
0.00243717
0.00216758
0.00196791
0.00181418
0.00169321
0.00158432
0.00146133
0.00133529
0.00121529
0.00112388
0.000627173
0.00231929
0.00718556
0.00663702
0.00746991
0.00791899
0.00824946
0.0085878
0.00903216
0.00957308
0.00995689
0.0100144
0.00979671
0.00931691
0.0082858
0.00661075
0.00420767
0.00146234
0.000830925
0.00215533
0.00370047
0.00530053
0.0064064
0.00605578
0.00155073
0.0013522
0.0011914
0.00106296
0.00096013
0.000877108
0.000809384
0.000754955
0.000715687
0.000821991
0.000980394
0.00116411
0.000644878
0.00265942
0.00891139
0.0070963
0.00780992
0.00790603
0.00794283
0.00807862
0.00853449
0.00921378
0.00978375
0.0100882
0.0101106
0.00989678
0.00935141
0.0082978
0.00650104
0.00347024
0.00163054
0.00195574
0.00313539
0.00501343
0.00690307
0.008139
0.00755766
0.00174781
0.00158794
0.00146157
0.00135817
0.0012666
0.00118047
0.00109554
0.00100815
0.000912188
0.000852886
0.000907981
0.00116534
0.000658239
0.0030071
0.0110287
0.00815294
0.00840724
0.00818225
0.007838
0.0077937
0.0082555
0.00899047
0.00966447
0.0100628
0.0101641
0.0100567
0.00978099
0.00927053
0.00834252
0.00683351
0.0062563
0.00713771
0.00841137
0.00971229
0.0106981
0.0111683
0.0108355
0.00878712
0.00761903
0.00681825
0.0060424
0.00527914
0.00452124
0.00376027
0.00299087
0.00221894
0.00154187
0.00117538
0.00119441
0.000774295
0.000642321
0.000701368
0.000802304
0.00337182
0.013351
0.0107363
0.00979797
0.00871124
0.00790491
0.0077489
0.00825464
0.00909299
0.0098541
0.0102992
0.0104338
0.0104235
0.0104334
0.0104855
0.0104563
0.0103561
0.0108758
0.0119944
0.0129197
0.013495
0.0136675
0.0134488
0.0128334
0.0117473
0.0106329
0.00950231
0.00837409
0.00726175
0.00616458
0.00507658
0.00399727
0.00295376
0.00205207
0.00149242
0.00130415
0.000959291
0.000814916
0.00111521
0.000845307
0.00366198
0.0147115
0.0135549
0.0109744
0.00890402
0.00780296
0.00774673
0.00847337
0.00951188
0.0103838
0.0108845
0.0111269
0.011437
0.0119904
0.0125558
0.0130674
0.0136281
0.0144413
0.0152372
0.0155826
0.0155181
0.0150982
0.0143999
0.0134912
0.0124087
0.0112387
0.0100188
0.00879361
0.00760203
0.00644348
0.00531763
0.00421925
0.00318111
0.00232228
0.00178504
0.00154009
0.00126814
0.00116013
0.00115202
0.000883549
0.0036978
0.0119162
0.010924
0.00884658
0.00743827
0.0070974
0.00773462
0.00899029
0.0103163
0.0112546
0.0118176
0.0123556
0.0133386
0.0140452
0.0145612
0.015071
0.015628
0.0161711
0.016461
0.0163111
0.0157722
0.0149402
0.0139152
0.012769
0.0115591
0.0103476
0.00914692
0.00796817
0.00683179
0.00575442
0.00475316
0.00384447
0.00305221
0.00242915
0.0020186
0.00189699
0.00184722
0.00189418
0.00249669
0.00129864
0.00358482
0.00416835
0.00437499
0.00442591
0.00504308
0.00646329
0.00837675
0.010275
0.0116203
0.0122691
0.013118
0.0138423
0.0144623
0.0148292
0.0151324
0.0154616
0.01576
0.0158814
0.015681
0.0151145
0.0142395
0.0131464
0.0119335
0.0106982
0.00950561
0.00836426
0.00725237
0.00615377
0.00507177
0.00402726
0.00306979
0.00229333
0.00179871
0.00159336
0.00158289
0.00166639
0.00175584
0.00179649
0.00174745
0.00129807
0.00109855
0.00357967
0.00776174
0.0106097
0.0122003
0.0129781
0.0130625
0.0129399
0.013186
0.013408
0.013514
0.0136017
0.013721
0.0138154
0.0137674
0.0134546
0.0128228
0.0119143
0.0108346
0.00970137
0.00860738
0.00760202
0.00668526
0.00582357
0.00498659
0.00417049
0.00340053
0.00272192
0.00218419
0.00181937
0.00162577
0.00157262
0.00161531
0.00170185
0.0017732
0.0017808
0.00170194
0.00124607
0.00245526
0.0101277
0.0119199
0.0122091
0.0118719
0.0112822
0.0107476
0.0103523
0.0100773
0.00987733
0.00978021
0.00977112
0.00978453
0.0097381
0.00955171
0.00917346
0.00861179
0.00793399
0.00722733
0.00655779
0.00595207
0.00540515
0.00489812
0.00441433
0.00394876
0.00350791
0.00310422
0.00274971
0.00245226
0.00221552
0.00204123
0.00193041
0.00187891
0.00186742
0.00186485
0.00189832
0.00235207
0.00132008
0.00219876
0.00236023
0.00248451
0.00270533
0.00244502
0.00228366
0.00214089
0.00199764
0.00187115
0.00178201
0.00172767
0.00169749
0.0016812
0.00166975
0.00165588
0.00163402
0.00160073
0.00155572
0.00150243
0.00144625
0.00139183
0.00134139
0.00129493
0.00125132
0.0012094
0.0011687
0.00112974
0.00109383
0.00106259
0.00103753
0.00101983
0.00101041
0.00101021
0.00102031
0.00104139
0.00107167
0.00110547
0.0011097
0.00108811
0.00108564
)
;

boundaryField
{
    floor
    {
        type            compressible::alphatWallFunction;
        Prt             0.85;
        value           nonuniform List<scalar> 
29
(
0.000181547
0.0001131
0.000133639
0.000156913
0.000172795
0.000177384
0.000174578
0.000164463
0.000153372
0.000143397
0.000134743
0.00012724
0.000120705
0.000114947
0.000109818
0.000105131
0.000100606
9.58295e-05
9.01908e-05
8.17609e-05
8.17599e-05
8.84906e-05
9.11196e-05
9.30984e-05
0.000181545
0.000113099
0.000108663
0.000118288
0.000228468
)
;
    }
    ceiling
    {
        type            compressible::alphatWallFunction;
        Prt             0.85;
        value           nonuniform List<scalar> 
43
(
0.000302886
0.000323625
0.000339488
0.00036759
0.000334624
0.000313994
0.000295601
0.000277012
0.000260476
0.00024875
0.000241572
0.000237575
0.000235415
0.000233895
0.000232052
0.000229143
0.000224704
0.000218685
0.000211533
0.000203964
0.0001966
0.000189746
0.000183407
0.000177433
0.000171668
0.000166049
0.000160648
0.000155651
0.000151288
0.000147777
0.000145291
0.000143965
0.000143935
0.000145352
0.000148309
0.000152545
0.000157261
0.000157867
0.000154869
0.00015453
0.000476947
0.000547865
0.000335438
)
;
    }
    sWall
    {
        type            compressible::alphatWallFunction;
        Prt             0.85;
        value           uniform 0.000301726;
    }
    nWall
    {
        type            compressible::alphatWallFunction;
        Prt             0.85;
        value           nonuniform List<scalar> 6(0.000114002 0.000120186 0.000125632 0.000176426 0.000186558 0.000154243);
    }
    sideWalls
    {
        type            empty;
    }
    glass1
    {
        type            compressible::alphatWallFunction;
        Prt             0.85;
        value           nonuniform List<scalar> 9(0.000209923 0.000266494 0.000312143 0.000355083 0.000398438 0.000443404 0.000478876 0.000483379 0.000469883);
    }
    glass2
    {
        type            compressible::alphatWallFunction;
        Prt             0.85;
        value           nonuniform List<scalar> 2(0.000182663 0.000182698);
    }
    sun
    {
        type            compressible::alphatWallFunction;
        Prt             0.85;
        value           nonuniform List<scalar> 
14
(
0.000214985
0.000238276
0.000247867
0.000262019
0.000276645
0.00029127
0.000302085
0.000307392
0.000305992
0.00029037
0.000271872
0.00025161
0.00022738
0.000205687
)
;
    }
    heatsource1
    {
        type            compressible::alphatWallFunction;
        Prt             0.85;
        value           nonuniform List<scalar> 3(9.08047e-05 9.95145e-05 0.000114215);
    }
    heatsource2
    {
        type            compressible::alphatWallFunction;
        Prt             0.85;
        value           nonuniform List<scalar> 4(0.000212572 0.000179054 0.000179052 0.000206056);
    }
    Table_master
    {
        type            compressible::alphatWallFunction;
        Prt             0.85;
        value           nonuniform List<scalar> 9(0.000217957 0.00019116 0.000169129 0.000151287 0.000136821 0.000125009 0.000115275 0.000107381 0.000101642);
    }
    Table_slave
    {
        type            compressible::alphatWallFunction;
        Prt             0.85;
        value           nonuniform List<scalar> 9(0.000244183 0.000222933 0.000205967 0.000191963 0.000179462 0.00016761 0.000155827 0.00014359 0.00013001);
    }
    inlet
    {
        type            fixedValue;
        value           uniform 1.94e-05;
    }
    outlet
    {
        type            zeroGradient;
    }
}


// ************************************************************************* //
