// -*- C++ -*-
// File generated by PyFoam - sorry for the ugliness

FoamFile
{
 version 2.0;
 format ascii;
 class volVectorField;
 location "620";
 object U;
}

dimensions [ 0 1 -1 0 0 0 0 ];

internalField nonuniform List<vector> 459
(
  (0.0104295 0.0571819 0)
  (-0.112294 0.0194994 0)
  (-0.134531 0.0123877 0)
  (-0.156607 0.00690646 0)
  (-0.170743 0.00103868 0)
  (-0.175584 -0.00531167 0)
  (-0.16915 -0.0122719 0)
  (-0.15135 -0.0198405 0)
  (-0.123077 -0.0267562 0)
  (-0.0876937 -0.0315439 0)
  (-0.0502959 -0.0329412 0)
  (-0.0160297 -0.0296833 0)
  (0.0144976 -0.015101 0)
  (0.0224236 -0.000983801 0)
  (0.0442257 0.0180386 0)
  (-0.0825113 0.00787187 0)
  (0.0212281 -0.00507995 0)
  (0.0141482 -0.0120336 0)
  (0.0286238 -0.0135927 0)
  (0.0444639 -0.01215 0)
  (0.0580251 -0.00928571 0)
  (0.0670303 -0.00533826 0)
  (0.0714899 -0.00306629 0)
  (0.07295 -0.00224895 0)
  (0.073223 -0.00196419 0)
  (0.0731549 -0.0017671 0)
  (0.0728112 -0.00153115 0)
  (0.0720165 -0.00116194 0)
  (0.0704026 -0.000428598 0)
  (0.0671294 0.00120684 0)
  (0.0604833 0.00464384 0)
  (0.0486091 0.00972194 0)
  (0.0166399 0.0181519 0)
  (0.0584655 0.0064548 0)
  (0.114659 0.117113 0)
  (-0.103518 0.0515056 0)
  (-0.110701 0.0392022 0)
  (-0.133464 0.0283598 0)
  (-0.147921 0.0159537 0)
  (-0.153564 0.00157608 0)
  (-0.148348 -0.0150274 0)
  (-0.132456 -0.032194 0)
  (-0.107314 -0.0466565 0)
  (-0.0765368 -0.0551948 0)
  (-0.0448726 -0.0558015 0)
  (-0.0166829 -0.0475977 0)
  (0.00773007 -0.0283707 0)
  (0.0227128 -0.00791416 0)
  (0.0378833 0.0142592 0)
  (0.0392048 0.0197054 0)
  (0.0277057 0.0257308 0)
  (-0.095924 0.00466041 0)
  (0.0263687 -0.0240206 0)
  (0.0302994 -0.0261548 0)
  (0.0420901 -0.0252196 0)
  (0.0541807 -0.0216291 0)
  (0.0640785 -0.0160632 0)
  (0.0694241 -0.00644892 0)
  (0.0705633 -0.000703367 0)
  (0.0703532 0.00149262 0)
  (0.070375 0.00232483 0)
  (0.0706321 0.00283653 0)
  (0.070807 0.00328465 0)
  (0.0708129 0.00392452 0)
  (0.0706018 0.00525321 0)
  (0.069573 0.00843109 0)
  (0.0650012 0.016727 0)
  (0.0549097 0.0256407 0)
  (0.0215271 0.0362017 0)
  (0.0979141 0.0261683 0)
  (0.212246 0.175764 0)
  (-0.110242 0.080645 0)
  (-0.0856294 0.062843 0)
  (-0.107733 0.0443553 0)
  (-0.121559 0.0239602 0)
  (-0.127732 0.000578533 0)
  (-0.122987 -0.0259428 0)
  (-0.107831 -0.0528421 0)
  (-0.0848165 -0.0741614 0)
  (-0.0579975 -0.0851085 0)
  (-0.0316891 -0.0836608 0)
  (-0.00878371 -0.070141 0)
  (0.0107682 -0.0458838 0)
  (0.0247867 -0.0207179 0)
  (0.0353941 0.00397218 0)
  (0.038918 0.0222654 0)
  (0.0340583 0.0493507 0)
  (-0.0201834 -0.0242807 0)
  (0.0377086 -0.0375273 0)
  (0.0494554 -0.0394776 0)
  (0.0556244 -0.0360297 0)
  (0.0620654 -0.0308622 0)
  (0.0681869 -0.0262145 0)
  (0.07142 -0.0190603 0)
  (0.0662401 -0.0123128 0)
  (0.0619561 -0.00882048 0)
  (0.0605862 -0.00693484 0)
  (0.0605875 -0.00572391 0)
  (0.0610273 -0.00478403 0)
  (0.0618979 -0.00384296 0)
  (0.0639279 -0.00239262 0)
  (0.0688343 0.00201473 0)
  (0.0694663 0.0221658 0)
  (0.0616167 0.0378337 0)
  (0.0257174 0.0545087 0)
  (0.121212 0.0560117 0)
  (0.30386 0.223462 0)
  (-0.128424 0.105515 0)
  (-0.0582436 0.0837047 0)
  (-0.0789315 0.059339 0)
  (-0.090352 0.033049 0)
  (-0.0959425 0.00173247 0)
  (-0.0897821 -0.0352214 0)
  (-0.0743239 -0.0718818 0)
  (-0.0538191 -0.0989343 0)
  (-0.0320071 -0.111113 0)
  (-0.0120959 -0.107281 0)
  (0.00527239 -0.0889971 0)
  (0.0195465 -0.0622595 0)
  (0.031871 -0.0335304 0)
  (0.0433421 -0.00595832 0)
  (0.0550679 0.0184761 0)
  (0.0700402 0.0426613 0)
  (0.0958623 -0.00471851 0)
  (0.0918488 -0.0224901 0)
  (0.0811785 -0.0346401 0)
  (0.0719462 -0.0386233 0)
  (0.0662476 -0.0364997 0)
  (0.063093 -0.0317873 0)
  (0.0603052 -0.0255265 0)
  (0.0618466 -0.0157517 0)
  (0.0709565 -0.0110497 0)
  (0.0787593 -0.00856121 0)
  (0.0842175 -0.00706341 0)
  (0.0883653 -0.0058226 0)
  (0.0913203 -0.00440374 0)
  (0.0921332 -0.00239512 0)
  (0.0888748 0.00079365 0)
  (0.0792459 0.00578845 0)
  (0.0691093 0.0277413 0)
  (0.0663513 0.0473117 0)
  (0.0357549 0.0696212 0)
  (0.137439 0.0995781 0)
  (0.387986 0.260223 0)
  (-0.154097 0.124413 0)
  (-0.0293266 0.0967874 0)
  (-0.0471109 0.0690648 0)
  (-0.0540122 0.0393328 0)
  (-0.0571119 0.00189958 0)
  (-0.0454214 -0.0450037 0)
  (-0.0298746 -0.0892569 0)
  (-0.013864 -0.118848 0)
  (0.000763142 -0.129903 0)
  (0.0125452 -0.122697 0)
  (0.0219478 -0.102209 0)
  (0.0301589 -0.0739886 0)
  (0.0378938 -0.0440694 0)
  (0.0462533 -0.0166699 0)
  (0.0569549 0.00527049 0)
  (0.0711733 0.015917 0)
  (0.0822192 -0.00213859 0)
  (0.0810972 -0.0172451 0)
  (0.0728864 -0.0266203 0)
  (0.0643736 -0.0305095 0)
  (0.0574131 -0.0302212 0)
  (0.0522011 -0.027226 0)
  (0.0487655 -0.0218463 0)
  (0.0491868 -0.0132789 0)
  (0.053392 -0.00867549 0)
  (0.0580532 -0.00695115 0)
  (0.0623252 -0.00607925 0)
  (0.0663684 -0.00489233 0)
  (0.0700091 -0.00261068 0)
  (0.072857 0.00155369 0)
  (0.0737637 0.0079867 0)
  (0.0721822 0.0173255 0)
  (0.0700369 0.0331391 0)
  (0.0740991 0.0503553 0)
  (0.0661272 0.0685085 0)
  (0.119046 0.100062 0)
  (0.11439 0.0785117 0)
  (0.121988 0.0562766 0)
  (-0.225861 0.0472725 0)
  (0.455097 0.29014 0)
  (-0.182904 0.135625 0)
  (-0.00437948 0.0967423 0)
  (-0.0136725 0.0726706 0)
  (-0.0141133 0.0441748 0)
  (-0.00983729 0.00355542 0)
  (0.011269 -0.0585789 0)
  (0.0240405 -0.104412 0)
  (0.0327652 -0.131324 0)
  (0.0376454 -0.1389 0)
  (0.039487 -0.129423 0)
  (0.0395937 -0.10732 0)
  (0.0392556 -0.0784817 0)
  (0.0395058 -0.0487988 0)
  (0.0414816 -0.0230796 0)
  (0.0463337 -0.00471797 0)
  (0.0544701 0.00328741 0)
  (0.0590469 -0.00329952 0)
  (0.057483 -0.0130514 0)
  (0.0514693 -0.0200066 0)
  (0.044358 -0.0235236 0)
  (0.037783 -0.0241787 0)
  (0.0324626 -0.0226766 0)
  (0.0290154 -0.0193948 0)
  (0.0284697 -0.0149227 0)
  (0.0306995 -0.0124526 0)
  (0.0341486 -0.0116106 0)
  (0.0380337 -0.0110755 0)
  (0.0421705 -0.00993288 0)
  (0.0464788 -0.00742364 0)
  (0.0508608 -0.00256197 0)
  (0.0555438 0.00545988 0)
  (0.0590874 0.0163448 0)
  (0.0627396 0.0302112 0)
  (0.0701066 0.0444918 0)
  (0.0728216 0.0548708 0)
  (0.0940578 0.0698961 0)
  (0.091864 0.0546695 0)
  (0.122603 0.053432 0)
  (-0.17466 0.0772184 0)
  (0.497377 0.315732 0)
  (-0.201844 0.124497 0)
  (0.0165902 0.0673205 0)
  (0.0264943 0.0609721 0)
  (0.0336152 0.0363953 0)
  (0.0550629 -0.0155435 0)
  (0.0747957 -0.0724748 0)
  (0.0832577 -0.113114 0)
  (0.082879 -0.134404 0)
  (0.0762584 -0.137445 0)
  (0.0659194 -0.125159 0)
  (0.0541678 -0.101898 0)
  (0.0430698 -0.073424 0)
  (0.0340822 -0.0452519 0)
  (0.0285369 -0.0222441 0)
  (0.0270854 -0.0070035 0)
  (0.0291821 -0.00052725 0)
  (0.0303717 -0.00306589 0)
  (0.0285238 -0.00910438 0)
  (0.023875 -0.014265 0)
  (0.0179968 -0.0173962 0)
  (0.0121482 -0.0186546 0)
  (0.0071986 -0.0185035 0)
  (0.00390559 -0.0173773 0)
  (0.00296877 -0.0158807 0)
  (0.00419366 -0.0152658 0)
  (0.00659362 -0.0152887 0)
  (0.00954614 -0.0151999 0)
  (0.0128846 -0.0144176 0)
  (0.0167248 -0.0123805 0)
  (0.021381 -0.00820389 0)
  (0.0279923 -0.000551706 0)
  (0.0360981 0.01047 0)
  (0.0441785 0.0228909 0)
  (0.0540536 0.0348223 0)
  (0.0621337 0.0434683 0)
  (0.0763013 0.0545787 0)
  (0.082148 0.0570107 0)
  (0.134721 0.0749238 0)
  (-0.118305 0.139883 0)
  (0.577574 0.318677 0)
  (-0.0641011 0.0977406 0)
  (0.0665451 0.00530321 0)
  (0.105276 -0.00778941 0)
  (0.112065 -0.0317722 0)
  (0.139359 -0.0632123 0)
  (0.152116 -0.0931867 0)
  (0.148646 -0.115069 0)
  (0.133071 -0.124744 0)
  (0.110089 -0.121377 0)
  (0.0842012 -0.106632 0)
  (0.0586422 -0.0835786 0)
  (0.0361181 -0.0573425 0)
  (0.0182099 -0.0328119 0)
  (0.00671237 -0.0147093 0)
  (0.0012899 -0.00414507 0)
  (0.000134826 -0.000232881 0)
  (-0.000280966 -0.00183103 0)
  (-0.00239421 -0.00575716 0)
  (-0.00641543 -0.00943189 0)
  (-0.0114389 -0.0120511 0)
  (-0.0165045 -0.0137202 0)
  (-0.0208631 -0.0147908 0)
  (-0.023944 -0.0155484 0)
  (-0.0254524 -0.0162325 0)
  (-0.0256382 -0.0170848 0)
  (-0.0250645 -0.0179066 0)
  (-0.0241324 -0.0183579 0)
  (-0.0230142 -0.0181777 0)
  (-0.0216561 -0.0171768 0)
  (-0.0196773 -0.0150744 0)
  (-0.0160495 -0.0111522 0)
  (-0.00738151 -0.00421724 0)
  (0.00536683 0.00538942 0)
  (0.016875 0.0130239 0)
  (0.0272649 0.0169236 0)
  (0.0404308 0.0197829 0)
  (0.0512733 0.0174774 0)
  (0.135438 0.0719568 0)
  (-0.37877 0.21439 0)
  (0.682994 0.311741 0)
  (0.329153 0.216608 0)
  (0.335976 0.165996 0)
  (0.336194 0.106556 0)
  (0.32088 0.0557786 0)
  (0.290908 0.0037207 0)
  (0.253947 -0.0417272 0)
  (0.212733 -0.0720682 0)
  (0.167837 -0.085239 0)
  (0.122084 -0.0836742 0)
  (0.0793658 -0.0714055 0)
  (0.0415749 -0.0519838 0)
  (0.0113463 -0.0310252 0)
  (-0.0110758 -0.0128682 0)
  (-0.022243 -0.00335654 0)
  (-0.0277845 0.00113611 0)
  (-0.0298297 0.00221264 0)
  (-0.0310273 0.000944021 0)
  (-0.03318 -0.0013374 0)
  (-0.0365822 -0.00369488 0)
  (-0.0406814 -0.00579699 0)
  (-0.0449397 -0.00763941 0)
  (-0.0489723 -0.00936617 0)
  (-0.0524994 -0.0110272 0)
  (-0.0554277 -0.0126217 0)
  (-0.0578784 -0.0141227 0)
  (-0.0600864 -0.0153757 0)
  (-0.0623181 -0.0161926 0)
  (-0.0649669 -0.0164081 0)
  (-0.0686522 -0.0157944 0)
  (-0.0740788 -0.0137907 0)
  (-0.0816913 -0.00909791 0)
  (-0.0917896 -2.50496e-05 0)
  (-0.102446 0.0129613 0)
  (-0.117322 0.0297378 0)
  (-0.14235 0.0518101 0)
  (-0.177135 0.0804969 0)
  (-0.220072 0.1134 0)
  (-0.288027 0.145134 0)
  (-0.57285 0.167966 0)
  (0.193382 0.0198286 0)
  (0.220681 0.0374428 0)
  (0.221031 0.0116565 0)
  (0.203539 -0.0167159 0)
  (0.177783 -0.0359154 0)
  (0.144649 -0.0461437 0)
  (0.104739 -0.0479263 0)
  (0.0627436 -0.0425557 0)
  (0.0237117 -0.0314805 0)
  (-0.0118052 -0.0150982 0)
  (-0.0339442 -0.00239762 0)
  (-0.0469061 0.00486388 0)
  (-0.0531572 0.00801331 0)
  (-0.0558695 0.00923187 0)
  (-0.0570705 0.00935137 0)
  (-0.0581643 0.00876362 0)
  (-0.0597251 0.00774926 0)
  (-0.0619754 0.00634336 0)
  (-0.0648978 0.00472635 0)
  (-0.0684124 0.00325029 0)
  (-0.072489 0.00194359 0)
  (-0.0770586 0.000991526 0)
  (-0.0820803 0.000586697 0)
  (-0.0875022 0.000937041 0)
  (-0.0932184 0.00231648 0)
  (-0.099068 0.00498707 0)
  (-0.104951 0.00903433 0)
  (-0.111034 0.014125 0)
  (-0.117672 0.0191203 0)
  (-0.124883 0.0227381 0)
  (-0.131051 0.0273525 0)
  (-0.135982 0.035582 0)
  (-0.139949 0.0488216 0)
  (-0.142965 0.0671775 0)
  (-0.142268 0.0875286 0)
  (-0.131703 0.0940062 0)
  (-0.116979 0.0434445 0)
  (-0.224493 -0.173101 0)
  (0.061179 0.139024 0)
  (0.0351396 0.0703915 0)
  (0.0359261 0.0133783 0)
  (0.0335466 -0.0238479 0)
  (0.031746 -0.0415487 0)
  (0.0170032 -0.0456398 0)
  (-0.00572177 -0.0465917 0)
  (-0.0283719 -0.0471234 0)
  (-0.0482435 -0.0467794 0)
  (-0.0623884 -0.0478235 0)
  (-0.0699701 -0.0505035 0)
  (-0.0733919 -0.052881 0)
  (-0.0746823 -0.0552313 0)
  (-0.0749333 -0.0573955 0)
  (-0.0748143 -0.0596002 0)
  (-0.0747981 -0.0621053 0)
  (-0.0751748 -0.064815 0)
  (-0.0761095 -0.0673034 0)
  (-0.0777086 -0.0692815 0)
  (-0.0799977 -0.0708046 0)
  (-0.0829836 -0.0727362 0)
  (-0.0868199 -0.0753407 0)
  (-0.0916837 -0.0788146 0)
  (-0.0977201 -0.0831926 0)
  (-0.104944 -0.0881629 0)
  (-0.11306 -0.092867 0)
  (-0.121276 -0.0957431 0)
  (-0.128401 -0.0945254 0)
  (-0.133422 -0.0886648 0)
  (-0.13581 -0.0765564 0)
  (-0.135109 -0.0593443 0)
  (-0.129797 -0.0375357 0)
  (-0.117989 -0.011816 0)
  (-0.0981068 0.0163548 0)
  (-0.0704456 0.0422533 0)
  (-0.0395181 0.0526504 0)
  (0.10449 -0.0382556 0)
  (-0.179956 -0.104197 0)
  (-0.123819 -0.254214 0)
  (-0.304847 -0.050687 0)
  (-0.222317 0.148237 0)
  (-0.177728 0.127551 0)
  (-0.125246 0.129015 0)
  (-0.103536 0.144258 0)
  (-0.0987305 0.15517 0)
  (-0.100375 0.156699 0)
  (-0.105084 0.161258 0)
  (-0.108062 0.168002 0)
  (-0.107905 0.17511 0)
  (-0.105677 0.183902 0)
  (-0.102387 0.192147 0)
  (-0.0989957 0.198056 0)
  (-0.0960489 0.202266 0)
  (-0.0937272 0.205481 0)
  (-0.092034 0.208319 0)
  (-0.0910022 0.211135 0)
  (-0.0907093 0.213857 0)
  (-0.0911892 0.216026 0)
  (-0.0923996 0.217226 0)
  (-0.0942457 0.217525 0)
  (-0.0966679 0.218425 0)
  (-0.0995312 0.220484 0)
  (-0.102654 0.224202 0)
  (-0.105832 0.229812 0)
  (-0.108856 0.237014 0)
  (-0.111513 0.244702 0)
  (-0.113587 0.250773 0)
  (-0.114815 0.252232 0)
  (-0.11474 0.249266 0)
  (-0.112398 0.241289 0)
  (-0.106131 0.230539 0)
  (-0.0937989 0.219198 0)
  (-0.073614 0.209875 0)
  (-0.0458981 0.205208 0)
  (-0.00966776 0.205967 0)
  (0.0295741 0.209558 0)
  (0.143706 0.2383 0)
  (-0.296933 0.220279 0)
)
;

boundaryField
{
  floor
  {
    type noSlip;
  }
  ceiling
  {
    type noSlip;
  }
  sWall
  {
    type noSlip;
  }
  nWall
  {
    type noSlip;
  }
  sideWalls
  {
    type empty;
  }
  glass1
  {
    type noSlip;
  }
  glass2
  {
    type noSlip;
  }
  sun
  {
    type noSlip;
  }
  heatsource1
  {
    type noSlip;
  }
  heatsource2
  {
    type noSlip;
  }
  Table_master
  {
    type noSlip;
  }
  Table_slave
  {
    type noSlip;
  }
  inlet
  {
    type fixedValue;
    value uniform (0.277164 -0.114805 0);
  }
  outlet
  {
    type zeroGradient;
  }
} 	// ************************************************************************* //

