// -*- C++ -*-
// File generated by PyFoam - sorry for the ugliness

FoamFile
{
 version 2.0;
 format ascii;
 class volScalarField;
 location "500";
 object T;
}

dimensions [ 0 0 0 1 0 0 0 ];

internalField nonuniform List<scalar> 459
(
  303.309
  303.024
  303.015
  303.013
  303.012
  303.01
  303.008
  303.006
  303.004
  303.001
  302.996
  302.988
  302.978
  302.967
  302.957
  302.986
  302.976
  302.973
  302.972
  302.971
  302.971
  302.97
  302.97
  302.969
  302.969
  302.968
  302.967
  302.966
  302.965
  302.964
  302.963
  302.961
  302.96
  302.969
  303.52
  303.058
  303.04
  303.046
  303.051
  303.056
  303.059
  303.061
  303.061
  303.057
  303.047
  303.029
  303.005
  302.977
  302.949
  302.934
  302.928
  302.968
  302.965
  302.963
  302.962
  302.96
  302.957
  302.954
  302.95
  302.946
  302.943
  302.939
  302.935
  302.932
  302.929
  302.927
  302.926
  302.927
  302.93
  302.953
  303.735
  303.103
  303.071
  303.086
  303.102
  303.118
  303.131
  303.14
  303.145
  303.143
  303.128
  303.099
  303.057
  303.009
  302.965
  302.939
  302.931
  302.963
  302.967
  302.969
  302.97
  302.969
  302.966
  302.96
  302.954
  302.948
  302.942
  302.935
  302.93
  302.924
  302.919
  302.914
  302.913
  302.913
  302.916
  302.944
  303.943
  303.161
  303.099
  303.121
  303.149
  303.178
  303.204
  303.226
  303.239
  303.239
  303.221
  303.179
  303.117
  303.044
  302.98
  302.941
  302.932
  302.949
  302.958
  302.972
  302.98
  302.983
  302.983
  302.981
  302.979
  302.977
  302.975
  302.973
  302.97
  302.966
  302.963
  302.958
  302.953
  302.934
  302.919
  302.913
  302.941
  304.139
  303.234
  303.128
  303.146
  303.182
  303.221
  303.26
  303.295
  303.319
  303.326
  303.307
  303.255
  303.174
  303.078
  302.991
  302.94
  302.93
  302.948
  302.967
  302.984
  302.994
  302.997
  302.997
  302.996
  302.994
  302.992
  302.99
  302.987
  302.983
  302.978
  302.972
  302.965
  302.957
  302.943
  302.926
  302.914
  302.932
  302.991
  303.02
  303.029
  304.308
  303.329
  303.175
  303.165
  303.199
  303.24
  303.284
  303.327
  303.366
  303.386
  303.37
  303.31
  303.214
  303.1
  302.995
  302.936
  302.927
  302.95
  302.978
  302.998
  303.008
  303.011
  303.011
  303.01
  303.008
  303.006
  303.003
  302.999
  302.993
  302.986
  302.978
  302.969
  302.959
  302.947
  302.931
  302.917
  302.924
  302.951
  302.961
  302.995
  304.44
  303.488
  303.316
  303.239
  303.233
  303.256
  303.291
  303.331
  303.383
  303.416
  303.398
  303.329
  303.223
  303.099
  302.989
  302.93
  302.924
  302.955
  302.991
  303.013
  303.021
  303.024
  303.024
  303.023
  303.021
  303.019
  303.015
  303.01
  303.003
  302.995
  302.983
  302.972
  302.961
  302.949
  302.936
  302.922
  302.921
  302.93
  302.938
  302.967
  304.658
  303.949
  303.748
  303.57
  303.453
  303.397
  303.385
  303.398
  303.439
  303.447
  303.402
  303.312
  303.193
  303.063
  302.957
  302.912
  302.92
  302.963
  303.007
  303.026
  303.033
  303.035
  303.036
  303.035
  303.034
  303.032
  303.029
  303.024
  303.017
  303.009
  302.998
  302.984
  302.973
  302.963
  302.953
  302.944
  302.945
  302.96
  302.985
  303.135
  304.962
  304.656
  304.388
  304.135
  303.927
  303.775
  303.678
  303.623
  303.571
  303.476
  303.358
  303.23
  303.1
  302.977
  302.896
  302.886
  302.921
  302.983
  303.024
  303.038
  303.044
  303.047
  303.048
  303.049
  303.049
  303.049
  303.047
  303.044
  303.041
  303.039
  303.038
  303.042
  303.048
  303.062
  303.084
  303.116
  303.156
  303.195
  303.22
  303.278
  297.977
  300.901
  302.284
  302.793
  302.996
  303.069
  303.075
  303.06
  303.022
  302.968
  302.903
  302.835
  302.819
  302.874
  302.941
  303.015
  303.04
  303.05
  303.055
  303.059
  303.062
  303.065
  303.068
  303.07
  303.072
  303.074
  303.076
  303.079
  303.083
  303.088
  303.096
  303.109
  303.128
  303.153
  303.18
  303.204
  303.217
  303.23
  298.464
  300.852
  301.804
  302.303
  302.557
  302.673
  302.714
  302.732
  302.739
  302.735
  302.723
  302.708
  302.788
  302.921
  303.01
  303.04
  303.054
  303.061
  303.067
  303.071
  303.076
  303.079
  303.083
  303.087
  303.09
  303.094
  303.097
  303.101
  303.105
  303.11
  303.117
  303.126
  303.139
  303.156
  303.175
  303.193
  303.185
  303.212
  299.941
  299.881
  299.877
  301.346
  301.914
  302.281
  302.448
  302.519
  302.553
  302.57
  302.586
  302.6
  302.614
  302.639
  302.878
  303.044
  303.062
  303.069
  303.074
  303.079
  303.082
  303.086
  303.089
  303.093
  303.096
  303.099
  303.102
  303.105
  303.108
  303.111
  303.114
  303.118
  303.123
  303.128
  303.136
  303.149
  303.16
  303.165
  303.165
  303.201
)
;

boundaryField
{
  floor
  {
    type wallHeatTransfer;
    Tinf uniform 305.2;
    alphaWall uniform 0.24;
    value nonuniform List<scalar> 29
(
  303.224
  303.372
  303.377
  303.388
  303.398
  303.407
  303.417
  303.426
  303.435
  303.444
  303.452
  303.46
  303.468
  303.475
  303.482
  303.49
  303.498
  303.508
  303.517
  303.549
  303.549
  303.466
  303.415
  303.382
  303.224
  303.372
  303.308
  303.277
  303.23
)
;
  }
  ceiling
  {
    type wallHeatTransfer;
    Tinf uniform 303.2;
    alphaWall uniform 0.24;
    value nonuniform List<scalar> 43
(
  300.156
  300.09
  300.079
  301.454
  301.992
  302.34
  302.5
  302.569
  302.604
  302.624
  302.642
  302.659
  302.676
  302.703
  302.926
  303.074
  303.089
  303.094
  303.098
  303.101
  303.104
  303.106
  303.108
  303.11
  303.112
  303.115
  303.117
  303.119
  303.121
  303.123
  303.125
  303.128
  303.132
  303.136
  303.143
  303.154
  303.164
  303.169
  303.169
  303.201
  304.878
  304.597
  298.742
)
;
  }
  sWall
  {
    type wallHeatTransfer;
    Tinf uniform 315.2;
    alphaWall uniform 0.36;
    value uniform 301.406;
  }
  nWall
  {
    type wallHeatTransfer;
    Tinf uniform 307.2;
    alphaWall uniform 0.36;
    value nonuniform List<scalar> 6
(
  303.798
  303.752
  303.694
  303.806
  303.785
  303.836
)
;
  }
  sideWalls
  {
    type empty;
  }
  glass1
  {
    type wallHeatTransfer;
    Tinf uniform 315.2;
    alphaWall uniform 4.3;
    value nonuniform List<scalar> 9
(
  312.117
  311.407
  310.922
  310.522
  310.182
  309.883
  309.614
  309.646
  309.842
)
;
  }
  glass2
  {
    type wallHeatTransfer;
    Tinf uniform 307.2;
    alphaWall uniform 4.3;
    value nonuniform List<scalar> 2
(
  305.655
  305.762
)
;
  }
  sun
  {
    type wallHeatTransfer;
    Tinf uniform 305.2;
    alphaWall uniform 0.24;
    value nonuniform List<scalar> 14
(
  303.564
  303.306
  303.299
  303.291
  303.284
  303.278
  303.273
  303.268
  303.264
  303.258
  303.252
  303.245
  303.238
  303.23
)
;
  }
  heatsource1
  {
    type fixedGradient;
    gradient uniform 0;
  }
  heatsource2
  {
    type fixedGradient;
    gradient uniform 0;
  }
  Table_master
  {
    type zeroGradient;
  }
  Table_slave
  {
    type zeroGradient;
  }
  inlet
  {
    type fixedValue;
    value uniform 293.15;
  }
  outlet
  {
    type zeroGradient;
  }
} 	// ************************************************************************* //

