/*--------------------------------*- C++ -*----------------------------------*\
  =========                 |
  \\      /  F ield         | OpenFOAM: The Open Source CFD Toolbox
   \\    /   O peration     | Website:  https://openfoam.org
    \\  /    A nd           | Version:  6
     \\/     M anipulation  |
\*---------------------------------------------------------------------------*/
FoamFile
{
    version     2.0;
    format      ascii;
    class       volScalarField;
    location    "450";
    object      alphat;
}
// * * * * * * * * * * * * * * * * * * * * * * * * * * * * * * * * * * * * * //

dimensions      [1 -1 -1 0 0 0 0];

internalField   nonuniform List<scalar> 
459
(
0.000950222
0.00105511
0.00110068
0.00116347
0.00122441
0.00128764
0.00134967
0.00140025
0.00143145
0.00143341
0.00138977
0.00126827
0.00113882
0.000992892
0.000858902
0.000516326
0.000701764
0.000792514
0.000812007
0.000810166
0.000790961
0.000748963
0.000702838
0.000659966
0.000621498
0.000587113
0.000556583
0.000529175
0.000504055
0.000480247
0.000456396
0.000430243
0.000390782
0.000346222
0.00121206
0.00305615
0.00301891
0.00351393
0.00403193
0.00448221
0.00486314
0.00524731
0.00561013
0.00590646
0.00606647
0.00594193
0.00549258
0.00448982
0.00294424
0.0010314
0.000838304
0.000772384
0.00261284
0.00275926
0.00316437
0.00340958
0.00327842
0.00234194
0.00195835
0.00171017
0.00152897
0.00138956
0.00127224
0.00116617
0.00106397
0.000960756
0.000868634
0.000808189
0.000655213
0.000410429
0.0014299
0.00414756
0.00379645
0.00434675
0.00465711
0.00489311
0.00513353
0.00545937
0.00590044
0.00641508
0.00689376
0.00710032
0.00697504
0.00647525
0.00525962
0.00330315
0.000998462
0.000861967
0.00226682
0.00317606
0.00395759
0.00441375
0.00400528
0.00100795
0.000882656
0.000782458
0.000702788
0.000638996
0.000587584
0.000546145
0.000513264
0.000489178
0.000555836
0.000678666
0.000699713
0.00044474
0.00163662
0.00502183
0.00386968
0.00443039
0.00448334
0.00451587
0.00463655
0.00490532
0.00541254
0.0060847
0.00675116
0.00714529
0.00726701
0.00710429
0.00646909
0.00514287
0.00270146
0.00113068
0.00168569
0.00270478
0.00395155
0.00495975
0.00547435
0.00487662
0.00110773
0.00101073
0.000944379
0.000895847
0.00085632
0.000818697
0.000781863
0.000743051
0.000697319
0.000655849
0.000678432
0.000773932
0.00049652
0.00184893
0.006107
0.00401759
0.0043814
0.00433868
0.00426093
0.00429993
0.00451985
0.0050884
0.0058459
0.00655023
0.00701546
0.00721289
0.00719958
0.00694589
0.00631931
0.00522199
0.0047515
0.00528269
0.0059757
0.00656661
0.00691674
0.0069785
0.00662583
0.00536785
0.00480849
0.00451707
0.0043274
0.00415655
0.0039475
0.00358928
0.00308931
0.00248084
0.0018587
0.00138261
0.0011868
0.00081688
0.000571677
0.000579467
0.000595636
0.00207971
0.00738641
0.0050092
0.00449409
0.00456973
0.00433077
0.00424428
0.00442707
0.00499689
0.00580582
0.00655933
0.00703688
0.00722216
0.0072529
0.0072579
0.00722858
0.00715622
0.00745798
0.00791835
0.00821732
0.00829713
0.00816225
0.00785335
0.00740704
0.00683886
0.0064096
0.00610369
0.00585692
0.0056195
0.00535158
0.00500165
0.00451022
0.00388058
0.00315452
0.00245577
0.00196741
0.00150747
0.00118821
0.00133163
0.000802851
0.00229994
0.00835753
0.00678599
0.00540446
0.00512756
0.00462274
0.00432207
0.00447698
0.00511592
0.00601259
0.0068188
0.00729552
0.00746587
0.00756361
0.00782189
0.00817934
0.0085367
0.00894705
0.00919158
0.00915359
0.00887256
0.00841187
0.0078509
0.0072755
0.00676719
0.0063944
0.00612382
0.00589781
0.00567286
0.00542103
0.00513686
0.00483302
0.00443051
0.0039056
0.0033152
0.00277925
0.00226547
0.00185435
0.00175485
0.000962521
0.00235571
0.00765703
0.00669897
0.00605409
0.00527596
0.00452463
0.00423967
0.00458439
0.00545151
0.00649656
0.00733698
0.00777779
0.00795007
0.00814094
0.00847383
0.00873452
0.00900029
0.00920814
0.00919602
0.00888822
0.00836006
0.0077104
0.00704723
0.00646825
0.00602923
0.0057231
0.00549666
0.00530026
0.00509898
0.0048733
0.00463826
0.00444852
0.00434028
0.00414548
0.00384683
0.00355876
0.00326615
0.00280037
0.00301471
0.0012766
0.00231179
0.00275079
0.0029945
0.00300587
0.00299474
0.00315511
0.00375901
0.00485951
0.00619784
0.00736103
0.0080788
0.0083428
0.00847073
0.00837463
0.00826735
0.00827424
0.00833773
0.00831711
0.00811036
0.0077085
0.00716136
0.00658628
0.00607304
0.00566619
0.00535644
0.00510768
0.00488363
0.00465959
0.00441317
0.00411655
0.00376414
0.00340456
0.00309626
0.00286149
0.00266093
0.00247232
0.00229587
0.0021328
0.00201491
0.00132038
0.000816982
0.00142936
0.00236459
0.00379396
0.00545963
0.00699064
0.00807283
0.00856974
0.00866865
0.00830701
0.00788156
0.00756948
0.0074104
0.00734172
0.00727527
0.0071403
0.00692174
0.00665322
0.0063751
0.00610952
0.00587172
0.00565837
0.00544715
0.00521409
0.00493977
0.00461657
0.00425257
0.00386641
0.00347265
0.00309561
0.00279241
0.00257393
0.00242925
0.00232893
0.00223079
0.00209948
0.00195627
0.00137204
0.0014031
0.00462371
0.00676793
0.00812873
0.00887702
0.0091722
0.00908149
0.00865211
0.00802376
0.00746099
0.00708018
0.00688071
0.00679283
0.00675655
0.00673429
0.00670775
0.00667247
0.00663324
0.00659553
0.006558
0.00651255
0.00644893
0.00636552
0.00625168
0.00607942
0.00582039
0.00546392
0.00503463
0.00455939
0.00406742
0.00361004
0.00321819
0.00291201
0.00268385
0.00249965
0.0023494
0.00291001
0.00148429
0.00167357
0.00176647
0.00185369
0.00217123
0.00215742
0.00206981
0.00200461
0.00194825
0.00187199
0.001781
0.00169423
0.00163301
0.00159898
0.00158335
0.0015785
0.0015789
0.00158055
0.00158095
0.00157927
0.00157582
0.00157114
0.00156568
0.00155934
0.00155178
0.00154036
0.00152172
0.00149417
0.00145861
0.00141882
0.00137712
0.00133813
0.00130673
0.00128472
0.00127397
0.00127469
0.00128398
0.00129262
0.00127481
0.00124814
0.00121327
)
;

boundaryField
{
    floor
    {
        type            compressible::alphatWallFunction;
        Prt             0.85;
        value           nonuniform List<scalar> 
29
(
0.000122472
7.19369e-05
9.96774e-05
0.000112915
0.000115734
0.000115469
0.000112692
0.00010659
9.98405e-05
9.35184e-05
8.78031e-05
8.26572e-05
7.80571e-05
7.39005e-05
7.00671e-05
6.64116e-05
6.27264e-05
5.86571e-05
5.24559e-05
4.53535e-05
4.53529e-05
5.55527e-05
6.0917e-05
6.8914e-05
0.000122471
7.1936e-05
0.000109991
0.000122913
0.000160797
)
;
    }
    ceiling
    {
        type            compressible::alphatWallFunction;
        Prt             0.85;
        value           nonuniform List<scalar> 
43
(
0.000234389
0.000246694
0.000258184
0.000299555
0.000297785
0.000286448
0.000277976
0.000270627
0.000260642
0.000248672
0.000237193
0.000229057
0.000224518
0.000222431
0.000221783
0.000221837
0.000222059
0.000222112
0.000221887
0.000221426
0.0002208
0.000220069
0.000219221
0.000218207
0.000216677
0.000214175
0.000210473
0.000205681
0.000200305
0.000194652
0.00018935
0.000185066
0.000182056
0.000180584
0.000180681
0.000181954
0.000183134
0.000180697
0.00017704
0.000172248
0.000317686
0.000373461
0.000198071
)
;
    }
    sWall
    {
        type            compressible::alphatWallFunction;
        Prt             0.85;
        value           uniform 0.0002339;
    }
    nWall
    {
        type            compressible::alphatWallFunction;
        Prt             0.85;
        value           nonuniform List<scalar> 6(8.36326e-05 0.000114088 0.000136906 0.00019361 0.000208785 0.000171899);
    }
    sideWalls
    {
        type            empty;
    }
    glass1
    {
        type            compressible::alphatWallFunction;
        Prt             0.85;
        value           nonuniform List<scalar> 9(0.000134082 0.000170437 0.000200017 0.000227637 0.000255618 0.000285649 0.000313982 0.000321141 0.000315582);
    }
    glass2
    {
        type            compressible::alphatWallFunction;
        Prt             0.85;
        value           nonuniform List<scalar> 2(0.000179789 0.000185789);
    }
    sun
    {
        type            compressible::alphatWallFunction;
        Prt             0.85;
        value           nonuniform List<scalar> 
14
(
0.000135492
0.000150259
0.000156622
0.000165341
0.000173752
0.000182428
0.000190893
0.000197761
0.000201985
0.00020225
0.000196338
0.000179775
0.000161925
0.00014152
)
;
    }
    heatsource1
    {
        type            compressible::alphatWallFunction;
        Prt             0.85;
        value           nonuniform List<scalar> 3(8.02334e-05 8.14058e-05 8.38329e-05);
    }
    heatsource2
    {
        type            compressible::alphatWallFunction;
        Prt             0.85;
        value           nonuniform List<scalar> 4(0.000146836 0.000119417 0.000119415 0.000142202);
    }
    Table_master
    {
        type            compressible::alphatWallFunction;
        Prt             0.85;
        value           nonuniform List<scalar> 9(0.000143539 0.000125773 0.000111351 9.97261e-05 9.0303e-05 8.26246e-05 7.63753e-05 7.13746e-05 6.76861e-05);
    }
    Table_slave
    {
        type            compressible::alphatWallFunction;
        Prt             0.85;
        value           nonuniform List<scalar> 9(0.000157505 0.000143933 0.000134562 0.000127659 0.000122004 0.000116593 0.000111266 0.000105621 9.89235e-05);
    }
    inlet
    {
        type            fixedValue;
        value           uniform 1.94e-05;
    }
    outlet
    {
        type            zeroGradient;
    }
}


// ************************************************************************* //
