// -*- C++ -*-
// File generated by PyFoam - sorry for the ugliness

FoamFile
{
 version 2.0;
 format ascii;
 class volVectorField;
 location "800";
 object U;
}

dimensions [ 0 1 -1 0 0 0 0 ];

internalField nonuniform List<vector> 459
(
  (0.00425151 0.0629585 0)
  (-0.132107 0.012189 0)
  (-0.132672 -0.00633523 0)
  (-0.123525 -0.0146562 0)
  (-0.107458 -0.0170497 0)
  (-0.0894081 -0.0136909 0)
  (-0.0745534 -0.0106135 0)
  (-0.0627138 -0.00872048 0)
  (-0.0529176 -0.00765868 0)
  (-0.0442478 -0.00712931 0)
  (-0.0358612 -0.007005 0)
  (-0.0274691 -0.0074577 0)
  (-0.02191 -0.00899158 0)
  (-0.0264086 -0.0107526 0)
  (0.0877494 -0.00235356 0)
  (-0.0919594 -0.0016165 0)
  (0.0136176 0.00960589 0)
  (-0.0256879 0.00446166 0)
  (-0.0306026 -0.000210661 0)
  (-0.0316079 -0.00278017 0)
  (-0.0288279 -0.00592859 0)
  (-0.0209494 -0.0126195 0)
  (-0.0117488 -0.0128252 0)
  (0.00177689 -0.00951467 0)
  (0.00978014 -0.00741638 0)
  (0.016094 -0.00591434 0)
  (0.0209443 -0.00482133 0)
  (0.0243112 -0.00421127 0)
  (0.0265028 -0.00327578 0)
  (0.026063 -0.00167861 0)
  (0.0230718 0.00153126 0)
  (0.0174312 0.00521231 0)
  (-0.028527 0.0125841 0)
  (0.0975687 -0.00481617 0)
  (0.165731 0.127497 0)
  (-0.0948928 0.0256694 0)
  (-0.0945341 -0.0228435 0)
  (-0.0911574 -0.0302624 0)
  (-0.0847295 -0.0308976 0)
  (-0.0718921 -0.0244274 0)
  (-0.0617418 -0.0191034 0)
  (-0.0533335 -0.015605 0)
  (-0.0463309 -0.0134557 0)
  (-0.0404331 -0.0122467 0)
  (-0.0352749 -0.011708 0)
  (-0.0307815 -0.0118687 0)
  (-0.0278461 -0.0131079 0)
  (-0.025954 -0.0149577 0)
  (-0.0145653 -0.0087345 0)
  (-0.0116268 -5.10181e-05 0)
  (0.00268788 0.0139406 0)
  (-0.129134 0.0143878 0)
  (0.0179626 0.0140095 0)
  (-0.00851026 0.0104907 0)
  (-0.00939963 0.00452611 0)
  (-0.012717 0.00178395 0)
  (-0.0206971 -0.00251106 0)
  (-0.0157839 -0.0172728 0)
  (-0.0164921 -0.0154079 0)
  (-0.010941 -0.011433 0)
  (-0.00991968 -0.0087467 0)
  (-0.00978253 -0.00621794 0)
  (-0.0100362 -0.00307252 0)
  (-0.0112581 0.0011657 0)
  (-0.015869 0.00634301 0)
  (-0.0179507 0.00926289 0)
  (-0.0163782 0.00949947 0)
  (-0.0165757 0.0112831 0)
  (-0.04786 0.0131108 0)
  (0.148547 -0.00462603 0)
  (0.38199 0.131573 0)
  (0.175693 0.105583 0)
  (0.09737 0.0760667 0)
  (0.028614 0.0319136 0)
  (-0.0428167 -0.0207448 0)
  (-0.0487223 -0.026056 0)
  (-0.0483374 -0.0241716 0)
  (-0.0455472 -0.0206963 0)
  (-0.0429427 -0.0175807 0)
  (-0.0414029 -0.0152187 0)
  (-0.0411797 -0.0134339 0)
  (-0.0426259 -0.0121466 0)
  (-0.0462041 -0.0115363 0)
  (-0.0503955 -0.011579 0)
  (-0.0506172 -0.0126812 0)
  (-0.0506953 -0.0190832 0)
  (-0.0672191 -0.0318536 0)
  (-0.139326 0.0342569 0)
  (-0.00582825 0.0129165 0)
  (-0.0195173 0.00697376 0)
  (-0.0157525 0.00266828 0)
  (-0.0103571 0.0016205 0)
  (-0.00754584 0.000824644 0)
  (0.00083993 -0.0147373 0)
  (-0.0273613 -0.0120729 0)
  (-0.0389586 -0.00845113 0)
  (-0.0478504 -0.00675025 0)
  (-0.0547057 -0.0055213 0)
  (-0.0595096 -0.00463981 0)
  (-0.0619738 -0.00435502 0)
  (-0.0606806 -0.00505783 0)
  (-0.0540281 -0.00839379 0)
  (-0.0388343 -0.0120852 0)
  (-0.0236748 -0.00664751 0)
  (-0.0458984 -0.00272748 0)
  (0.177045 -0.00673082 0)
  (0.030516 -0.0581558 0)
  (0.0932756 0.0738086 0)
  (0.064248 0.0933894 0)
  (0.0288004 0.0722203 0)
  (-0.0175469 0.0219415 0)
  (-0.0368095 -0.0164065 0)
  (-0.0400448 -0.0239822 0)
  (-0.0415369 -0.0214798 0)
  (-0.0436127 -0.0172645 0)
  (-0.047019 -0.0133384 0)
  (-0.0520177 -0.0097997 0)
  (-0.0588604 -0.00687169 0)
  (-0.0673461 -0.00559345 0)
  (-0.075869 -0.00728901 0)
  (-0.0831584 -0.0134434 0)
  (-0.0929412 -0.0263995 0)
  (-0.108665 -0.0454866 0)
  (-0.112324 -0.0569249 0)
  (-0.0995761 0.0183263 0)
  (-0.0672203 0.00566969 0)
  (-0.0715255 0.00449901 0)
  (-0.0739874 0.00330314 0)
  (-0.0789484 0.00140829 0)
  (-0.08584 -0.00143657 0)
  (-0.0910116 -0.00108442 0)
  (-0.0906919 -0.00223632 0)
  (-0.0893097 -0.00346629 0)
  (-0.0866418 -0.00459067 0)
  (-0.0828578 -0.00578445 0)
  (-0.0779414 -0.00719231 0)
  (-0.0713372 -0.00901912 0)
  (-0.0618673 -0.0117636 0)
  (-0.049827 -0.0164688 0)
  (-0.0426344 -0.02399 0)
  (-0.0390881 -0.0263186 0)
  (-0.0543985 -0.0267326 0)
  (0.193905 -0.00129566 0)
  (-0.118587 -0.073301 0)
  (0.0806619 0.0670383 0)
  (0.070312 0.117133 0)
  (0.039558 0.110346 0)
  (-0.00255124 0.055075 0)
  (-0.0282075 -0.00450847 0)
  (-0.0346836 -0.0197721 0)
  (-0.0406301 -0.0173436 0)
  (-0.0475009 -0.011901 0)
  (-0.0551338 -0.0066991 0)
  (-0.0630978 -0.00196555 0)
  (-0.0707777 0.00199357 0)
  (-0.0774976 0.00420099 0)
  (-0.0830006 0.00379109 0)
  (-0.0882772 0.000279704 0)
  (-0.096424 -0.00573963 0)
  (-0.108082 -0.0101773 0)
  (-0.112551 -0.00629823 0)
  (-0.107987 0.00124835 0)
  (-0.101784 0.0020738 0)
  (-0.100004 0.0045729 0)
  (-0.0982144 0.00526168 0)
  (-0.0971213 0.00459602 0)
  (-0.0964049 0.00295882 0)
  (-0.0951759 0.00143489 0)
  (-0.0932506 -0.000772604 0)
  (-0.0910831 -0.00260888 0)
  (-0.0885274 -0.00417517 0)
  (-0.0855755 -0.00563341 0)
  (-0.0822737 -0.00713509 0)
  (-0.0785835 -0.00887811 0)
  (-0.0745114 -0.0113613 0)
  (-0.0710656 -0.015644 0)
  (-0.0710974 -0.0221886 0)
  (-0.0778181 -0.0259927 0)
  (-0.0899437 -0.0260184 0)
  (-0.0958891 -0.0136107 0)
  (-0.125989 -0.0142515 0)
  (-0.107207 -0.0303902 0)
  (0.171275 -0.0836122 0)
  (-0.166761 -0.141926 0)
  (0.10802 0.0417959 0)
  (0.113128 0.134274 0)
  (0.0764953 0.153537 0)
  (0.0254805 0.0990261 0)
  (-0.0135433 0.0167647 0)
  (-0.0288103 -0.00950676 0)
  (-0.04149 -0.00783543 0)
  (-0.0531842 -0.00224682 0)
  (-0.0632961 0.00251633 0)
  (-0.0714036 0.00591337 0)
  (-0.0774095 0.00793202 0)
  (-0.0817171 0.00834521 0)
  (-0.0850305 0.0066005 0)
  (-0.0886403 0.00232798 0)
  (-0.0941433 -0.00360469 0)
  (-0.101136 -0.00744304 0)
  (-0.105774 -0.00540403 0)
  (-0.106034 -0.00211566 0)
  (-0.104022 -0.000350138 0)
  (-0.101425 0.00138632 0)
  (-0.098064 0.00196367 0)
  (-0.0946164 0.0013556 0)
  (-0.0913742 -8.59177e-05 0)
  (-0.088352 -0.0018214 0)
  (-0.0855536 -0.00381188 0)
  (-0.0829153 -0.00570812 0)
  (-0.0802945 -0.00743991 0)
  (-0.0776194 -0.00904927 0)
  (-0.0748852 -0.0105838 0)
  (-0.0721162 -0.0120999 0)
  (-0.0694748 -0.0137648 0)
  (-0.0676129 -0.0158463 0)
  (-0.0676152 -0.0179878 0)
  (-0.06946 -0.0182882 0)
  (-0.0701943 -0.0161122 0)
  (-0.0686529 -0.0105425 0)
  (-0.0821926 -0.012194 0)
  (-0.123463 -0.0213666 0)
  (0.256753 -0.108205 0)
  (-0.186979 -0.208626 0)
  (0.12008 -0.0726079 0)
  (0.158645 0.11537 0)
  (0.112631 0.202233 0)
  (0.0403861 0.150518 0)
  (-0.00601898 0.0524483 0)
  (-0.0268668 0.012807 0)
  (-0.0450769 0.00834556 0)
  (-0.0580819 0.00965798 0)
  (-0.0664072 0.0108642 0)
  (-0.0713489 0.0114601 0)
  (-0.0738585 0.0114474 0)
  (-0.0747349 0.0106562 0)
  (-0.074874 0.00870149 0)
  (-0.075427 0.00526393 0)
  (-0.0774284 0.000759322 0)
  (-0.0806027 -0.00287809 0)
  (-0.0829844 -0.00376768 0)
  (-0.0834406 -0.00330294 0)
  (-0.0822544 -0.00278066 0)
  (-0.0800231 -0.00221124 0)
  (-0.0770136 -0.00213022 0)
  (-0.0737085 -0.00269723 0)
  (-0.0704652 -0.00382106 0)
  (-0.0674469 -0.00530173 0)
  (-0.0647096 -0.00701282 0)
  (-0.0622229 -0.00875506 0)
  (-0.0598836 -0.010448 0)
  (-0.0576023 -0.0120841 0)
  (-0.0553103 -0.0136807 0)
  (-0.0529439 -0.0152777 0)
  (-0.0504802 -0.0169653 0)
  (-0.0480226 -0.018807 0)
  (-0.0456397 -0.020474 0)
  (-0.0425094 -0.0210716 0)
  (-0.0355485 -0.0202203 0)
  (-0.0219393 -0.0192467 0)
  (-0.0188038 -0.0229363 0)
  (-0.139011 -0.0329585 0)
  (0.390228 -0.118317 0)
  (-0.209919 -0.197615 0)
  (0.016859 -0.136388 0)
  (0.131841 0.0551737 0)
  (0.104953 0.268521 0)
  (-0.0111591 0.193176 0)
  (-0.0362692 0.0742829 0)
  (-0.0434288 0.033842 0)
  (-0.0537846 0.022235 0)
  (-0.0589115 0.0175926 0)
  (-0.0595938 0.0147555 0)
  (-0.0576747 0.0126505 0)
  (-0.0542798 0.0108696 0)
  (-0.0501321 0.00910322 0)
  (-0.0459609 0.00707817 0)
  (-0.0425692 0.00454837 0)
  (-0.0406321 0.00151592 0)
  (-0.0401225 -0.00128841 0)
  (-0.0402865 -0.00296746 0)
  (-0.0400893 -0.00371922 0)
  (-0.0392633 -0.00410052 0)
  (-0.0378613 -0.00430794 0)
  (-0.0359837 -0.0046555 0)
  (-0.0338759 -0.00529852 0)
  (-0.0317653 -0.0062546 0)
  (-0.0297992 -0.00746299 0)
  (-0.0280509 -0.00885281 0)
  (-0.0265267 -0.0103251 0)
  (-0.0251722 -0.0118261 0)
  (-0.0239159 -0.0133441 0)
  (-0.0226774 -0.0148983 0)
  (-0.0213577 -0.0165457 0)
  (-0.019836 -0.0184015 0)
  (-0.0179591 -0.0206062 0)
  (-0.0154015 -0.0231832 0)
  (-0.0111332 -0.0260247 0)
  (-0.00191444 -0.0295174 0)
  (0.0177572 -0.0353475 0)
  (0.0394559 -0.044309 0)
  (-0.0721679 -0.0545254 0)
  (0.648711 -0.0817801 0)
  (-0.270166 -0.0761873 0)
  (-0.291051 -0.0801159 0)
  (-0.504899 0.0243719 0)
  (0.0332076 0.329372 0)
  (-0.122282 0.197315 0)
  (-0.0917493 0.0838515 0)
  (-0.0676544 0.0435497 0)
  (-0.053194 0.029182 0)
  (-0.0411417 0.021652 0)
  (-0.0292457 0.0168765 0)
  (-0.0179349 0.0136505 0)
  (-0.00750323 0.0114242 0)
  (0.00179099 0.00970052 0)
  (0.00944168 0.00817351 0)
  (0.0153614 0.00668256 0)
  (0.019477 0.00511477 0)
  (0.0215868 0.00352241 0)
  (0.0223377 0.00219848 0)
  (0.0225581 0.00121298 0)
  (0.0226675 0.000468795 0)
  (0.0228478 -0.000126999 0)
  (0.023156 -0.000728296 0)
  (0.0235304 -0.00143653 0)
  (0.0238706 -0.00229182 0)
  (0.0240897 -0.00329143 0)
  (0.0241311 -0.00441558 0)
  (0.023975 -0.00563231 0)
  (0.0236398 -0.00692595 0)
  (0.0231659 -0.0083065 0)
  (0.0226096 -0.00981651 0)
  (0.0220455 -0.0115477 0)
  (0.0215706 -0.0136692 0)
  (0.0213182 -0.0164529 0)
  (0.0215111 -0.0202938 0)
  (0.0226898 -0.0258298 0)
  (0.0267133 -0.0343227 0)
  (0.0366642 -0.0479313 0)
  (0.0477453 -0.0673125 0)
  (-0.0629977 -0.0762528 0)
  (0.695733 -0.0331985 0)
  (-2.39153 0.0572801 0)
  (-0.0245609 0.201711 0)
  (-0.185776 0.119709 0)
  (-0.0871951 0.0292755 0)
  (-0.0214715 -0.00263084 0)
  (0.0171451 -0.00431659 0)
  (0.0397596 -0.00223776 0)
  (0.0569442 0.000858393 0)
  (0.0699483 0.00448935 0)
  (0.0797531 0.00824217 0)
  (0.0871848 0.0116701 0)
  (0.0926302 0.0143874 0)
  (0.096369 0.0161607 0)
  (0.0986076 0.0169414 0)
  (0.0995103 0.0168259 0)
  (0.0993707 0.0159915 0)
  (0.098578 0.0146599 0)
  (0.0974243 0.0131438 0)
  (0.0960827 0.0115895 0)
  (0.0946436 0.0100088 0)
  (0.0931215 0.00838807 0)
  (0.0914808 0.0067046 0)
  (0.0896711 0.00493348 0)
  (0.0876483 0.00304926 0)
  (0.0853856 0.00102594 0)
  (0.0828778 -0.00117393 0)
  (0.0801364 -0.00360973 0)
  (0.0771825 -0.00637617 0)
  (0.0740381 -0.00962384 0)
  (0.0707124 -0.0135876 0)
  (0.0671771 -0.0186178 0)
  (0.0633208 -0.0252128 0)
  (0.058903 -0.0340775 0)
  (0.0538318 -0.0462292 0)
  (0.0473643 -0.0630131 0)
  (0.030722 -0.0838693 0)
  (-0.0865066 -0.0828624 0)
  (0.317125 0.0344697 0)
  (-1.11233 0.079145 0)
  (0.463596 -0.0706133 0)
  (0.204008 -0.0984158 0)
  (0.170275 -0.130008 0)
  (0.179205 -0.140928 0)
  (0.189125 -0.143367 0)
  (0.194794 -0.145786 0)
  (0.197859 -0.149992 0)
  (0.199006 -0.154977 0)
  (0.198389 -0.159305 0)
  (0.19629 -0.161871 0)
  (0.193217 -0.162155 0)
  (0.189726 -0.160273 0)
  (0.186235 -0.156802 0)
  (0.182988 -0.152384 0)
  (0.180027 -0.147773 0)
  (0.177212 -0.143792 0)
  (0.174453 -0.140483 0)
  (0.17166 -0.137775 0)
  (0.168745 -0.135692 0)
  (0.165623 -0.134156 0)
  (0.162214 -0.133053 0)
  (0.158451 -0.13226 0)
  (0.15429 -0.131669 0)
  (0.149707 -0.131195 0)
  (0.144689 -0.130781 0)
  (0.139226 -0.130391 0)
  (0.133296 -0.130011 0)
  (0.126844 -0.129637 0)
  (0.119759 -0.129268 0)
  (0.111832 -0.128893 0)
  (0.102692 -0.128471 0)
  (0.0917179 -0.127912 0)
  (0.0782638 -0.127055 0)
  (0.0618242 -0.125748 0)
  (0.0409775 -0.126502 0)
  (-0.0807944 -0.138279 0)
  (0.364493 -0.264817 0)
  (-0.923645 0.0134787 0)
  (0.679828 0.408306 0)
  (0.308504 0.352162 0)
  (0.553887 0.278037 0)
  (0.560001 0.275068 0)
  (0.508028 0.284711 0)
  (0.468906 0.29611 0)
  (0.440645 0.313647 0)
  (0.415564 0.336704 0)
  (0.392495 0.362317 0)
  (0.372381 0.387449 0)
  (0.355655 0.409278 0)
  (0.34215 0.425456 0)
  (0.33143 0.434732 0)
  (0.322921 0.437342 0)
  (0.315986 0.434742 0)
  (0.309994 0.428722 0)
  (0.304457 0.421167 0)
  (0.299062 0.413935 0)
  (0.293506 0.407606 0)
  (0.287664 0.402314 0)
  (0.28152 0.39816 0)
  (0.275047 0.395047 0)
  (0.268217 0.392779 0)
  (0.261 0.391131 0)
  (0.253359 0.389904 0)
  (0.24524 0.388939 0)
  (0.236572 0.388131 0)
  (0.227261 0.387417 0)
  (0.217185 0.386763 0)
  (0.206184 0.386149 0)
  (0.194045 0.385547 0)
  (0.180485 0.384893 0)
  (0.165123 0.384046 0)
  (0.147435 0.382748 0)
  (0.126863 0.380532 0)
  (0.103479 0.376041 0)
  (0.0809356 0.366961 0)
  (-0.109694 0.417372 0)
  (0.483727 0.680734 0)
)
;

boundaryField
{
  floor
  {
    type noSlip;
  }
  ceiling
  {
    type noSlip;
  }
  sWall
  {
    type noSlip;
  }
  nWall
  {
    type noSlip;
  }
  sideWalls
  {
    type empty;
  }
  glass1
  {
    type noSlip;
  }
  glass2
  {
    type noSlip;
  }
  sun
  {
    type noSlip;
  }
  heatsource1
  {
    type noSlip;
  }
  heatsource2
  {
    type noSlip;
  }
  Table_master
  {
    type noSlip;
  }
  Table_slave
  {
    type noSlip;
  }
  inlet
  {
    type fixedValue;
    value uniform (0.3 0 0);
  }
  outlet
  {
    type zeroGradient;
  }
} 	// ************************************************************************* //

