/*--------------------------------*- C++ -*----------------------------------*\
  =========                 |
  \\      /  F ield         | OpenFOAM: The Open Source CFD Toolbox
   \\    /   O peration     | Website:  https://openfoam.org
    \\  /    A nd           | Version:  6
     \\/     M anipulation  |
\*---------------------------------------------------------------------------*/
FoamFile
{
    version     2.0;
    format      ascii;
    class       volScalarField;
    location    "1700";
    object      T;
}
// * * * * * * * * * * * * * * * * * * * * * * * * * * * * * * * * * * * * * //

dimensions      [0 0 0 1 0 0 0];

internalField   nonuniform List<scalar> 
459
(
303.56
303.301
303.288
303.285
303.281
303.277
303.272
303.267
303.258
303.247
303.235
303.224
303.216
303.212
303.213
303.303
303.282
303.274
303.277
303.28
303.284
303.288
303.292
303.296
303.299
303.303
303.306
303.31
303.314
303.317
303.321
303.325
303.331
303.349
303.734
303.344
303.321
303.323
303.326
303.327
303.325
303.319
303.304
303.282
303.256
303.232
303.213
303.202
303.197
303.194
303.192
303.303
303.267
303.261
303.263
303.268
303.272
303.274
303.276
303.277
303.278
303.279
303.28
303.282
303.284
303.286
303.29
303.296
303.305
303.334
303.916
303.395
303.356
303.366
303.38
303.391
303.396
303.391
303.369
303.331
303.286
303.245
303.215
303.198
303.193
303.193
303.194
303.247
303.246
303.253
303.262
303.272
303.279
303.279
303.279
303.279
303.279
303.279
303.279
303.28
303.28
303.281
303.284
303.288
303.296
303.327
304.1
303.457
303.392
303.408
303.436
303.463
303.482
303.48
303.446
303.385
303.316
303.256
303.214
303.193
303.188
303.191
303.197
303.208
303.221
303.239
303.259
303.276
303.292
303.304
303.313
303.322
303.33
303.337
303.343
303.347
303.351
303.354
303.355
303.332
303.312
303.303
303.326
304.278
303.536
303.434
303.445
303.483
303.528
303.567
303.566
303.515
303.427
303.333
303.257
303.208
303.184
303.181
303.19
303.204
303.221
303.242
303.265
303.289
303.31
303.328
303.343
303.356
303.367
303.376
303.383
303.388
303.39
303.389
303.386
303.379
303.361
303.336
303.316
303.324
303.395
303.442
303.448
304.439
303.639
303.507
303.496
303.532
303.588
303.64
303.622
303.544
303.436
303.327
303.241
303.188
303.168
303.173
303.192
303.218
303.245
303.275
303.304
303.33
303.353
303.372
303.387
303.399
303.409
303.417
303.422
303.425
303.424
303.419
303.412
303.401
303.383
303.358
303.333
303.328
303.357
303.375
303.409
304.587
303.802
303.67
303.641
303.657
303.704
303.71
303.643
303.525
303.391
303.272
303.188
303.147
303.143
303.166
303.204
303.245
303.286
303.323
303.355
303.381
303.402
303.418
303.43
303.44
303.447
303.453
303.456
303.456
303.453
303.445
303.434
303.42
303.402
303.379
303.355
303.343
303.35
303.361
303.389
304.802
304.214
304.069
303.982
303.94
303.883
303.76
303.588
303.405
303.249
303.141
303.09
303.088
303.122
303.176
303.239
303.297
303.345
303.384
303.412
303.432
303.448
303.46
303.469
303.475
303.479
303.482
303.482
303.479
303.475
303.467
303.456
303.442
303.426
303.409
303.391
303.385
303.396
303.415
303.537
305.109
304.832
304.575
304.341
304.114
303.821
303.494
303.214
303.024
302.931
302.919
302.966
303.05
303.141
303.231
303.319
303.376
303.415
303.442
303.461
303.476
303.486
303.494
303.499
303.502
303.504
303.504
303.502
303.5
303.497
303.495
303.495
303.496
303.502
303.515
303.537
303.568
303.599
303.621
303.673
296.361
298.249
299.454
300.28
300.985
301.584
302.074
302.457
302.746
302.976
303.17
303.284
303.36
303.414
303.449
303.473
303.489
303.501
303.51
303.516
303.52
303.523
303.524
303.525
303.526
303.526
303.526
303.527
303.528
303.53
303.534
303.542
303.555
303.573
303.595
303.618
303.637
303.658
297.015
298.854
300.29
301.25
301.859
302.308
302.652
302.909
303.097
303.231
303.332
303.4
303.446
303.476
303.497
303.511
303.521
303.528
303.533
303.536
303.538
303.54
303.542
303.543
303.544
303.545
303.546
303.547
303.548
303.55
303.553
303.559
303.567
303.58
303.595
303.612
303.611
303.64
299.715
299.637
299.632
301.463
302.274
302.663
302.892
303.061
303.19
303.288
303.361
303.415
303.455
303.482
303.5
303.511
303.519
303.524
303.528
303.531
303.533
303.536
303.537
303.539
303.541
303.543
303.545
303.547
303.549
303.551
303.553
303.555
303.558
303.562
303.567
303.576
303.585
303.591
303.593
303.632
)
;

boundaryField
{
    floor
    {
        type            wallHeatTransfer;
        Tinf            uniform 305.2;
        alphaWall       uniform 0.24;
        value           nonuniform List<scalar> 
29
(
303.406
303.662
303.599
303.568
303.572
303.582
303.595
303.612
303.631
303.649
303.666
303.683
303.7
303.715
303.731
303.746
303.761
303.779
303.793
303.833
303.833
303.75
303.708
303.683
303.406
303.662
303.644
303.461
303.374
)
;
    }
    ceiling
    {
        type            wallHeatTransfer;
        Tinf            uniform 303.2;
        alphaWall       uniform 0.24;
        value           nonuniform List<scalar> 
43
(
299.962
299.878
299.866
301.57
302.333
302.699
302.913
303.07
303.191
303.281
303.347
303.395
303.428
303.45
303.462
303.47
303.475
303.477
303.479
303.481
303.482
303.484
303.485
303.487
303.489
303.491
303.494
303.497
303.5
303.503
303.507
303.511
303.515
303.52
303.527
303.537
303.546
303.55
303.55
303.583
305.02
304.766
297.413
)
;
    }
    sWall
    {
        type            wallHeatTransfer;
        Tinf            uniform 315.2;
        alphaWall       uniform 0.36;
        value           uniform 301.312;
    }
    nWall
    {
        type            wallHeatTransfer;
        Tinf            uniform 307.2;
        alphaWall       uniform 0.36;
        value           nonuniform List<scalar> 6(304.153 304.101 304.024 304.17 304.148 304.212);
    }
    sideWalls
    {
        type            empty;
    }
    glass1
    {
        type            wallHeatTransfer;
        Tinf            uniform 315.2;
        alphaWall       uniform 4.3;
        value           nonuniform List<scalar> 9(311.518 310.888 310.49 310.187 309.934 309.705 309.536 309.608 309.834);
    }
    glass2
    {
        type            wallHeatTransfer;
        Tinf            uniform 307.2;
        alphaWall       uniform 4.3;
        value           nonuniform List<scalar> 2(305.815 305.91);
    }
    sun
    {
        type            wallHeatTransfer;
        Tinf            uniform 305.2;
        alphaWall       uniform 0.24;
        value           nonuniform List<scalar> 
14
(
303.733
303.489
303.474
303.464
303.455
303.447
303.438
303.428
303.418
303.407
303.396
303.39
303.388
303.393
)
;
    }
    heatsource1
    {
        type            fixedGradient;
        gradient        uniform 0;
    }
    heatsource2
    {
        type            fixedGradient;
        gradient        uniform 0;
    }
    Table_master
    {
        type            zeroGradient;
    }
    Table_slave
    {
        type            zeroGradient;
    }
    inlet
    {
        type            fixedValue;
        value           uniform 293.15;
    }
    outlet
    {
        type            zeroGradient;
    }
}


// ************************************************************************* //
