/*--------------------------------*- C++ -*----------------------------------*\
  =========                 |
  \\      /  F ield         | OpenFOAM: The Open Source CFD Toolbox
   \\    /   O peration     | Website:  https://openfoam.org
    \\  /    A nd           | Version:  6
     \\/     M anipulation  |
\*---------------------------------------------------------------------------*/
FoamFile
{
    version     2.0;
    format      ascii;
    class       volVectorField;
    location    "1700";
    object      U;
}
// * * * * * * * * * * * * * * * * * * * * * * * * * * * * * * * * * * * * * //

dimensions      [0 1 -1 0 0 0 0];

internalField   nonuniform List<vector> 
459
(
(0.0331316 0.0854019 0)
(-0.166001 0.0256171 0)
(-0.190489 0.0178264 0)
(-0.221062 0.012336 0)
(-0.243391 0.00633258 0)
(-0.256644 3.59694e-05 0)
(-0.259494 -0.00661012 0)
(-0.250712 -0.01361 0)
(-0.230947 -0.0205022 0)
(-0.201627 -0.0262383 0)
(-0.165716 -0.0299751 0)
(-0.126622 -0.031441 0)
(-0.0875919 -0.031161 0)
(-0.0533981 -0.0307922 0)
(-0.037761 -0.0320799 0)
(-0.0024522 0.0073796 0)
(-0.0222245 -0.0175269 0)
(0.0015323 -0.0262028 0)
(0.0223566 -0.0194033 0)
(0.0380336 -0.0130246 0)
(0.0495938 -0.00830951 0)
(0.056409 -0.00498222 0)
(0.0598011 -0.00324177 0)
(0.0613349 -0.00248453 0)
(0.062131 -0.00212115 0)
(0.0626299 -0.00188822 0)
(0.0628941 -0.00170527 0)
(0.0628598 -0.0014731 0)
(0.0623066 -0.00101591 0)
(0.0606614 3.63969e-05 0)
(0.0567253 0.00223024 0)
(0.0491803 0.00461105 0)
(0.0413849 0.00668068 0)
(-0.0104825 0.0203708 0)
(0.205493 0.174493 0)
(-0.154265 0.0670412 0)
(-0.152492 0.0520833 0)
(-0.183714 0.0406523 0)
(-0.205516 0.0278654 0)
(-0.218728 0.0137141 0)
(-0.222012 -0.00206383 0)
(-0.213937 -0.0190416 0)
(-0.195678 -0.0351185 0)
(-0.169036 -0.0477927 0)
(-0.137204 -0.0552738 0)
(-0.103593 -0.0570827 0)
(-0.0714297 -0.0538926 0)
(-0.0444753 -0.04729 0)
(-0.0273545 -0.0384531 0)
(-0.0137631 -0.018881 0)
(-0.00719455 0.0131714 0)
(0.0603406 0.0311783 0)
(0.0316352 -0.0198522 0)
(0.0386102 -0.0305173 0)
(0.0493617 -0.0258314 0)
(0.0577682 -0.0177494 0)
(0.0633076 -0.0103743 0)
(0.0654799 -0.00426999 0)
(0.0657828 -0.000886256 0)
(0.0656944 0.000569135 0)
(0.065775 0.00124332 0)
(0.0659367 0.00166349 0)
(0.0660524 0.00201563 0)
(0.0660796 0.00249286 0)
(0.0659655 0.00343139 0)
(0.0651797 0.00572084 0)
(0.0612967 0.0120405 0)
(0.0515309 0.0174269 0)
(0.0452152 0.0212786 0)
(-0.0439875 0.0440095 0)
(0.363386 0.260736 0)
(-0.170034 0.10633 0)
(-0.11392 0.0838179 0)
(-0.143698 0.063479 0)
(-0.16266 0.0424995 0)
(-0.174501 0.0196101 0)
(-0.177067 -0.00597278 0)
(-0.168095 -0.0330872 0)
(-0.149821 -0.0579905 0)
(-0.124807 -0.0766251 0)
(-0.0965321 -0.0865888 0)
(-0.0679673 -0.087746 0)
(-0.0414099 -0.0812455 0)
(-0.0190695 -0.0686475 0)
(-0.00279572 -0.0510071 0)
(0.00968503 -0.0253817 0)
(0.0164447 0.00894139 0)
(0.105557 -0.0394308 0)
(0.0728418 -0.0432155 0)
(0.0689052 -0.0393955 0)
(0.0710987 -0.0315231 0)
(0.0726477 -0.0223692 0)
(0.0734676 -0.014692 0)
(0.0717364 -0.0119763 0)
(0.0677618 -0.00857211 0)
(0.0650332 -0.00672662 0)
(0.0638106 -0.00567807 0)
(0.0632827 -0.00501784 0)
(0.0630233 -0.00456533 0)
(0.0630675 -0.00411742 0)
(0.0638965 -0.00331497 0)
(0.0667224 -0.000190265 0)
(0.0646716 0.0170272 0)
(0.0513909 0.0292288 0)
(0.0508597 0.037878 0)
(-0.073497 0.0691031 0)
(0.505407 0.329903 0)
(-0.203413 0.140973 0)
(-0.0737334 0.110358 0)
(-0.101266 0.0823686 0)
(-0.114398 0.0554674 0)
(-0.122278 0.0255473 0)
(-0.121184 -0.00949012 0)
(-0.108895 -0.0471177 0)
(-0.089798 -0.0800745 0)
(-0.0671615 -0.10311 0)
(-0.0441966 -0.114016 0)
(-0.0227194 -0.113775 0)
(-0.00351419 -0.104187 0)
(0.0128873 -0.0869776 0)
(0.0263074 -0.0650654 0)
(0.0406517 -0.0390841 0)
(0.0627527 -0.0124987 0)
(0.0932729 -3.74871e-05 0)
(0.100937 -0.0330373 0)
(0.0873729 -0.0382825 0)
(0.0788374 -0.0340383 0)
(0.0747148 -0.0277555 0)
(0.0720444 -0.020369 0)
(0.0708102 -0.0117987 0)
(0.0726027 -0.00693633 0)
(0.0767473 -0.0054928 0)
(0.0801749 -0.00467956 0)
(0.0825009 -0.00404318 0)
(0.0839178 -0.00321627 0)
(0.0838596 -0.00194797 0)
(0.0812727 -2.29669e-05 0)
(0.0749221 0.00284783 0)
(0.0620189 0.00719214 0)
(0.0510554 0.027442 0)
(0.0403759 0.0442292 0)
(0.0537561 0.0577526 0)
(-0.104042 0.0918981 0)
(0.627355 0.383393 0)
(-0.244161 0.169203 0)
(-0.0347271 0.125015 0)
(-0.057216 0.0925502 0)
(-0.0619808 0.0623469 0)
(-0.062763 0.0275607 0)
(-0.0519449 -0.0160858 0)
(-0.0340835 -0.0629878 0)
(-0.0151781 -0.100554 0)
(0.00251561 -0.124382 0)
(0.0170299 -0.133163 0)
(0.028409 -0.129908 0)
(0.0371876 -0.117668 0)
(0.0440792 -0.0989765 0)
(0.0502165 -0.0765026 0)
(0.0575701 -0.0529006 0)
(0.0687285 -0.0336156 0)
(0.0791816 -0.0289475 0)
(0.0807601 -0.0347438 0)
(0.0742285 -0.0335 0)
(0.0662427 -0.0285374 0)
(0.0601737 -0.0229833 0)
(0.0559237 -0.0172588 0)
(0.0537002 -0.0113835 0)
(0.0538604 -0.0062711 0)
(0.0560429 -0.00392585 0)
(0.058462 -0.00306993 0)
(0.0608056 -0.00234654 0)
(0.0629751 -0.000818036 0)
(0.0645875 0.00206079 0)
(0.0644682 0.0064007 0)
(0.0620359 0.012371 0)
(0.0566015 0.0206111 0)
(0.0500158 0.0360172 0)
(0.0409722 0.0545159 0)
(0.061994 0.0749854 0)
(-0.0173021 0.104164 0)
(0.0453756 0.0338547 0)
(-0.0612903 -0.0343891 0)
(-0.268971 -0.0566777 0)
(0.715005 0.427927 0)
(-0.283438 0.188028 0)
(-0.00568968 0.119868 0)
(-0.0118226 0.091656 0)
(-0.00502287 0.0623728 0)
(0.0051348 0.020916 0)
(0.0336984 -0.0333126 0)
(0.0547653 -0.0815531 0)
(0.0696096 -0.116001 0)
(0.0781791 -0.135236 0)
(0.0812391 -0.140446 0)
(0.0802708 -0.134342 0)
(0.0766458 -0.119956 0)
(0.0717698 -0.100275 0)
(0.0671195 -0.078198 0)
(0.0640556 -0.0564184 0)
(0.0634663 -0.038661 0)
(0.0629926 -0.0294999 0)
(0.0589624 -0.0271321 0)
(0.0513648 -0.0249518 0)
(0.0431599 -0.0213388 0)
(0.0366116 -0.0173774 0)
(0.0321371 -0.0135258 0)
(0.0299004 -0.00985017 0)
(0.0298726 -0.00701791 0)
(0.0315759 -0.00608082 0)
(0.0340867 -0.00604802 0)
(0.0370651 -0.00575019 0)
(0.0403548 -0.00421639 0)
(0.0437404 -0.00058717 0)
(0.0467143 0.00539728 0)
(0.0482583 0.0134304 0)
(0.0485862 0.0237035 0)
(0.0491166 0.0379896 0)
(0.0484011 0.0559052 0)
(0.0704116 0.07873 0)
(0.0522102 0.0972346 0)
(0.0914763 0.0682302 0)
(0.114499 0.0445502 0)
(-0.128265 -0.00736678 0)
(0.767852 0.468538 0)
(-0.301993 0.173434 0)
(0.0219904 0.0677403 0)
(0.049414 0.0630012 0)
(0.0700355 0.0441278 0)
(0.102708 -0.0032898 0)
(0.134494 -0.0569571 0)
(0.152868 -0.0980676 0)
(0.158952 -0.123929 0)
(0.154815 -0.135493 0)
(0.143081 -0.134897 0)
(0.126605 -0.124984 0)
(0.10793 -0.108656 0)
(0.0892105 -0.088831 0)
(0.0721994 -0.0680987 0)
(0.0580061 -0.0485301 0)
(0.0471414 -0.0327807 0)
(0.0384976 -0.0232241 0)
(0.0300904 -0.018908 0)
(0.0215616 -0.0165323 0)
(0.0139168 -0.0142592 0)
(0.00812241 -0.0121345 0)
(0.00436904 -0.0103118 0)
(0.00265027 -0.00881524 0)
(0.00279949 -0.00801489 0)
(0.00431198 -0.00828706 0)
(0.00657995 -0.00898557 0)
(0.00938741 -0.00928454 0)
(0.0127903 -0.00831725 0)
(0.0169204 -0.00506543 0)
(0.0227111 0.00142548 0)
(0.0284327 0.0102334 0)
(0.0338779 0.0206047 0)
(0.0408741 0.0332169 0)
(0.0486851 0.0478443 0)
(0.0704838 0.0662318 0)
(0.0840619 0.0745483 0)
(0.115947 0.0524812 0)
(0.155471 0.0439513 0)
(-0.0361317 0.0925718 0)
(0.872649 0.469904 0)
(-0.0644181 0.152098 0)
(0.109912 -0.0137869 0)
(0.181613 -0.0408332 0)
(0.211922 -0.0524415 0)
(0.243397 -0.0749823 0)
(0.26125 -0.0973276 0)
(0.262127 -0.113271 0)
(0.247593 -0.120832 0)
(0.22172 -0.120051 0)
(0.189001 -0.112147 0)
(0.153474 -0.0989343 0)
(0.118287 -0.0821716 0)
(0.0858366 -0.0640462 0)
(0.057735 -0.04648 0)
(0.0346112 -0.0306822 0)
(0.0172506 -0.0188042 0)
(0.00473466 -0.0121484 0)
(-0.00485946 -0.00954901 0)
(-0.0121882 -0.00878492 0)
(-0.0180009 -0.00839279 0)
(-0.0222333 -0.00818912 0)
(-0.0249945 -0.00818718 0)
(-0.0264335 -0.00842987 0)
(-0.0267815 -0.00906909 0)
(-0.0264458 -0.0101638 0)
(-0.0258045 -0.011401 0)
(-0.0249645 -0.0123504 0)
(-0.02377 -0.0124977 0)
(-0.0218235 -0.0112414 0)
(-0.0181487 -0.00785546 0)
(-0.00945641 -0.00164135 0)
(-0.00114595 0.00635954 0)
(0.00940058 0.0144999 0)
(0.0210925 0.0215404 0)
(0.0408684 0.0288628 0)
(0.0598763 0.0224143 0)
(0.0798554 -0.00473587 0)
(0.138587 0.0391131 0)
(-0.405422 0.202653 0)
(1.01961 0.422992 0)
(0.485037 0.279535 0)
(0.499858 0.183077 0)
(0.526183 0.111877 0)
(0.507183 0.0606576 0)
(0.465352 0.0135304 0)
(0.416654 -0.0258132 0)
(0.363142 -0.0527992 0)
(0.305106 -0.066617 0)
(0.245452 -0.0692582 0)
(0.187645 -0.0640884 0)
(0.134284 -0.0542736 0)
(0.086937 -0.0417012 0)
(0.0471652 -0.0285908 0)
(0.0150572 -0.0167506 0)
(-0.0103848 -0.00724855 0)
(-0.0253869 -0.00296475 0)
(-0.0346406 -0.00190103 0)
(-0.0408648 -0.00239783 0)
(-0.0456875 -0.00339996 0)
(-0.049635 -0.00442767 0)
(-0.0528465 -0.00543782 0)
(-0.0554306 -0.00644556 0)
(-0.0575499 -0.00749061 0)
(-0.0594476 -0.0086232 0)
(-0.0614709 -0.00982353 0)
(-0.0639656 -0.01089 0)
(-0.0672309 -0.0114597 0)
(-0.0715864 -0.0109891 0)
(-0.0774575 -0.00877195 0)
(-0.0853859 -0.00399528 0)
(-0.0953246 0.0038936 0)
(-0.105452 0.0143649 0)
(-0.120263 0.0276588 0)
(-0.143503 0.0439069 0)
(-0.177675 0.0620421 0)
(-0.226124 0.0781983 0)
(-0.281847 0.0898068 0)
(-0.349819 0.0968157 0)
(-0.609452 0.0997769 0)
(-0.151074 0.00214848 0)
(0.121539 0.00210982 0)
(0.200863 -0.0311619 0)
(0.187787 -0.0414271 0)
(0.171715 -0.0396918 0)
(0.14966 -0.0349941 0)
(0.120236 -0.0289347 0)
(0.0865112 -0.0216641 0)
(0.0519896 -0.0136536 0)
(0.0171785 -0.0055148 0)
(-0.0163005 0.00208699 0)
(-0.0387896 0.00643591 0)
(-0.0543103 0.00879989 0)
(-0.0636215 0.00933203 0)
(-0.0687628 0.00852525 0)
(-0.072327 0.00760399 0)
(-0.075138 0.00683657 0)
(-0.0776303 0.00623121 0)
(-0.0801318 0.00570138 0)
(-0.0827678 0.0050023 0)
(-0.0855139 0.004213 0)
(-0.088452 0.00335173 0)
(-0.091708 0.00247277 0)
(-0.0954205 0.00169701 0)
(-0.0996648 0.00126425 0)
(-0.104442 0.00148786 0)
(-0.109678 0.00270583 0)
(-0.115194 0.00522086 0)
(-0.120376 0.00954482 0)
(-0.12449 0.0165764 0)
(-0.127901 0.0274281 0)
(-0.130824 0.0424845 0)
(-0.133924 0.0609373 0)
(-0.137635 0.0793715 0)
(-0.138911 0.0882646 0)
(-0.121441 0.0671274 0)
(-0.0783373 -0.0231425 0)
(-0.274101 -0.198476 0)
(0.015071 0.194743 0)
(0.0412721 0.0705409 0)
(0.000316967 0.00607797 0)
(-0.0124858 -0.00201808 0)
(-0.0256646 -0.000107587 0)
(-0.040467 0.000130996 0)
(-0.056684 0.00118449 0)
(-0.072179 0.00341587 0)
(-0.0844532 0.00553584 0)
(-0.0912786 0.00590922 0)
(-0.0956382 0.00403073 0)
(-0.0974741 6.50255e-05 0)
(-0.0978056 -0.00445693 0)
(-0.0972825 -0.0093192 0)
(-0.0968065 -0.0145121 0)
(-0.0969174 -0.0195694 0)
(-0.097647 -0.0242056 0)
(-0.0989046 -0.0281612 0)
(-0.100568 -0.0312445 0)
(-0.102563 -0.0333602 0)
(-0.104943 -0.0346563 0)
(-0.107612 -0.0350941 0)
(-0.110475 -0.0346242 0)
(-0.11345 -0.0334678 0)
(-0.116418 -0.0316294 0)
(-0.119144 -0.0288822 0)
(-0.121252 -0.0248065 0)
(-0.122262 -0.0187821 0)
(-0.121742 -0.0108901 0)
(-0.118816 -0.00082139 0)
(-0.112118 0.0121503 0)
(-0.10037 0.028672 0)
(-0.0831341 0.0482554 0)
(-0.0611716 0.0669734 0)
(-0.0373646 0.0778893 0)
(0.00252734 0.0619387 0)
(0.142879 -0.00825186 0)
(-0.204925 -0.108591 0)
(-0.0437431 -0.319933 0)
(-0.413258 -0.123171 0)
(-0.30127 0.0644868 0)
(-0.249609 -0.0172999 0)
(-0.209735 -0.0228289 0)
(-0.198386 -0.011881 0)
(-0.193888 -0.00223377 0)
(-0.190412 0.00575855 0)
(-0.185911 0.0132583 0)
(-0.17947 0.0207163 0)
(-0.170913 0.0282145 0)
(-0.160551 0.0356594 0)
(-0.149509 0.0428841 0)
(-0.138944 0.0498727 0)
(-0.12965 0.0568987 0)
(-0.121906 0.0639176 0)
(-0.115755 0.0708779 0)
(-0.111029 0.0775414 0)
(-0.107491 0.0834998 0)
(-0.104941 0.088364 0)
(-0.1032 0.0918869 0)
(-0.102118 0.0939508 0)
(-0.101607 0.0946151 0)
(-0.101619 0.0938786 0)
(-0.102102 0.0917245 0)
(-0.102972 0.0885675 0)
(-0.104104 0.0846589 0)
(-0.105282 0.0800965 0)
(-0.106123 0.0749289 0)
(-0.105956 0.06924 0)
(-0.103513 0.0643001 0)
(-0.0969626 0.0610187 0)
(-0.0839377 0.0602726 0)
(-0.0626479 0.0630092 0)
(-0.033559 0.0697532 0)
(0.0122216 0.0795943 0)
(0.0552207 0.0805337 0)
(0.0960395 0.0677461 0)
(0.160985 0.0420442 0)
(-0.23176 -0.00809887 0)
)
;

boundaryField
{
    floor
    {
        type            noSlip;
    }
    ceiling
    {
        type            noSlip;
    }
    sWall
    {
        type            noSlip;
    }
    nWall
    {
        type            noSlip;
    }
    sideWalls
    {
        type            empty;
    }
    glass1
    {
        type            noSlip;
    }
    glass2
    {
        type            noSlip;
    }
    sun
    {
        type            noSlip;
    }
    heatsource1
    {
        type            noSlip;
    }
    heatsource2
    {
        type            noSlip;
    }
    Table_master
    {
        type            noSlip;
    }
    Table_slave
    {
        type            noSlip;
    }
    inlet
    {
        type            fixedValue;
        value           uniform (0.277164 -0.114805 0);
    }
    outlet
    {
        type            zeroGradient;
    }
}


// ************************************************************************* //
