/*--------------------------------*- C++ -*----------------------------------*\
  =========                 |
  \\      /  F ield         | OpenFOAM: The Open Source CFD Toolbox
   \\    /   O peration     | Website:  https://openfoam.org
    \\  /    A nd           | Version:  6
     \\/     M anipulation  |
\*---------------------------------------------------------------------------*/
FoamFile
{
    version     2.0;
    format      ascii;
    class       volScalarField;
    location    "620";
    object      nut;
}
// * * * * * * * * * * * * * * * * * * * * * * * * * * * * * * * * * * * * * //

dimensions      [0 2 -1 0 0 0 0];

internalField   nonuniform List<scalar> 
459
(
0.000894914
0.000972286
0.000987412
0.00103433
0.00107761
0.00111793
0.00115713
0.00119761
0.00123149
0.00125373
0.00125943
0.00124363
0.00120133
0.0011273
0.00102414
0.000594077
0.00079795
0.000759036
0.000717325
0.000681241
0.000646972
0.000608664
0.000571246
0.000537108
0.000506613
0.000479493
0.000455144
0.00043302
0.000412528
0.000392933
0.000373119
0.000352767
0.000324307
0.000346377
0.00123347
0.00282665
0.00262729
0.00303972
0.00344053
0.00385885
0.0042548
0.00456188
0.00485257
0.00512425
0.00534309
0.00546326
0.00540987
0.00501175
0.00373069
0.00106992
0.000645676
0.000802124
0.00229552
0.0021208
0.00220571
0.00227313
0.00221166
0.0017662
0.00152893
0.00136136
0.00123129
0.00112225
0.00102738
0.000941893
0.00086093
0.000783334
0.000718645
0.000716945
0.000653913
0.000437419
0.00151968
0.00383533
0.00318179
0.0040421
0.00442558
0.00470907
0.00493206
0.00511386
0.00533151
0.00559864
0.00589476
0.00618339
0.0064048
0.00646219
0.00614401
0.00486753
0.00103409
0.00100799
0.00183886
0.00241311
0.00280628
0.00302069
0.00281473
0.000821359
0.000724264
0.000647597
0.000586675
0.000537768
0.000498099
0.000465743
0.000439647
0.000419937
0.000473504
0.000610228
0.000737723
0.000478896
0.00179733
0.00494021
0.00310571
0.00424264
0.00455668
0.00461907
0.00463355
0.00469
0.00484476
0.00510577
0.00545509
0.00586248
0.00626671
0.00658962
0.00671544
0.00636551
0.00489417
0.00130211
0.0019239
0.00259811
0.00322178
0.0036744
0.00390083
0.00353512
0.000905729
0.000829578
0.000781064
0.000748639
0.000724256
0.000701569
0.000674971
0.000647612
0.000614926
0.000588986
0.000628832
0.000843393
0.000538703
0.00208037
0.00638004
0.00330601
0.00399379
0.00443353
0.00436961
0.00424068
0.00422584
0.00437238
0.00464072
0.00501946
0.0054866
0.00595976
0.00633326
0.00655505
0.00654583
0.00617202
0.00526803
0.00508419
0.00509095
0.00511649
0.0051064
0.00503467
0.00480146
0.00406605
0.00377076
0.00363179
0.00354695
0.00347016
0.00337133
0.00321304
0.00288378
0.00241974
0.00188179
0.00142879
0.00127656
0.000903674
0.000612331
0.000602177
0.000576401
0.0023788
0.00796607
0.00452559
0.00367652
0.00414016
0.00421976
0.00410104
0.00401232
0.00417242
0.00444122
0.00483267
0.00531524
0.00580179
0.00618941
0.00641291
0.00646541
0.00639276
0.00625742
0.0061791
0.00608261
0.00593373
0.00574001
0.00552131
0.0052849
0.00502248
0.00484053
0.0047152
0.00461927
0.00453555
0.0044435
0.00430949
0.00406556
0.00366926
0.00313082
0.00254012
0.00208375
0.00161889
0.00125341
0.00136083
0.00071702
0.00266785
0.00919003
0.00674346
0.00447958
0.00399356
0.00408541
0.00413049
0.00412839
0.00421791
0.00445416
0.00485457
0.00536842
0.00588844
0.00629508
0.0065194
0.00657726
0.0065612
0.0065385
0.006476
0.00631011
0.00605844
0.00577132
0.00549558
0.00526243
0.00508391
0.00495781
0.00486029
0.0047805
0.00471778
0.00466182
0.00458066
0.00443984
0.00420389
0.00382948
0.0033552
0.0028773
0.00237352
0.0018948
0.00176381
0.000845599
0.00274106
0.00875316
0.00733429
0.00618641
0.00534643
0.00495644
0.00461582
0.0043786
0.00437113
0.00461804
0.00507829
0.00565225
0.00620818
0.00661852
0.00682339
0.00684894
0.00678213
0.00665297
0.00643938
0.00614663
0.00584443
0.0055736
0.00535357
0.00518477
0.00505358
0.00493889
0.00482408
0.00471019
0.00461188
0.00453527
0.00445042
0.00432221
0.00418347
0.00402473
0.00374211
0.00342905
0.0030777
0.00252683
0.00267676
0.00106359
0.00268228
0.00322774
0.00373862
0.00389396
0.00390809
0.00385613
0.0038626
0.00401819
0.0043683
0.0049051
0.00555157
0.00619823
0.00674048
0.00707609
0.00717932
0.00708387
0.00685481
0.00655102
0.00625313
0.00599248
0.00578234
0.00561682
0.00548537
0.00537137
0.00525501
0.00511691
0.00494394
0.00473625
0.00450972
0.00428182
0.0040269
0.00367693
0.00325494
0.00288074
0.00258431
0.00232817
0.00211374
0.00193905
0.00182298
0.0011397
0.00219882
0.00361259
0.00398082
0.00423946
0.00457129
0.00502363
0.00554899
0.00609038
0.00660658
0.00705955
0.00739638
0.00750569
0.00738184
0.00712877
0.0068845
0.00669292
0.00654697
0.00642857
0.00632489
0.0062324
0.0061465
0.00605737
0.00595048
0.00580671
0.00560392
0.00532178
0.00495182
0.00451074
0.00404025
0.00356263
0.0031089
0.00272755
0.00244103
0.00225095
0.00212275
0.00201124
0.00193637
0.00135668
0.00203052
0.00368566
0.00429577
0.00492169
0.00570727
0.00634631
0.00681332
0.00724335
0.00766327
0.00804256
0.00832793
0.0083457
0.00813619
0.00784866
0.00763638
0.00751539
0.00744586
0.00738371
0.00730137
0.00722322
0.00715554
0.00710053
0.00705565
0.00700853
0.00693168
0.00678209
0.00651101
0.00608666
0.00554235
0.00493383
0.00431644
0.00374634
0.0032611
0.00287943
0.00259104
0.00238925
0.00316804
0.00154061
0.00150393
0.00163977
0.00178412
0.00182751
0.00170859
0.00167605
0.00166695
0.00169489
0.00175311
0.00181115
0.00185802
0.00188323
0.00187967
0.00185066
0.00181393
0.00178559
0.0017646
0.00174976
0.00173802
0.00172791
0.00172137
0.00171647
0.00171338
0.0017114
0.00170857
0.00170136
0.00168518
0.00165593
0.00161285
0.00156195
0.00150776
0.00145392
0.00140466
0.00136299
0.00133163
0.00131102
0.00129651
0.00127964
0.00132051
0.00128164
)
;

boundaryField
{
    floor
    {
        type            nutkWallFunction;
        Cmu             0.09;
        kappa           0.41;
        E               9.8;
        value           nonuniform List<scalar> 
29
(
0.000123577
7.15939e-05
9.66484e-05
9.19313e-05
8.68434e-05
8.24135e-05
7.81805e-05
7.34165e-05
6.8728e-05
6.44179e-05
6.05395e-05
5.70659e-05
5.39267e-05
5.10561e-05
4.83809e-05
4.58071e-05
4.31881e-05
4.04793e-05
3.66578e-05
3.96281e-05
3.9628e-05
5.16289e-05
5.69893e-05
6.46198e-05
0.000123577
7.15938e-05
9.71532e-05
0.000121681
0.000155762
)
;
    }
    ceiling
    {
        type            nutkWallFunction;
        Cmu             0.09;
        kappa           0.41;
        E               9.8;
        value           nonuniform List<scalar> 
43
(
0.000178577
0.000193769
0.000209765
0.000214576
0.000201452
0.000197848
0.000196843
0.000199954
0.000206412
0.000212826
0.00021799
0.000220762
0.000220374
0.000217188
0.000213146
0.000210021
0.000207703
0.000206062
0.000204763
0.000203643
0.000202918
0.000202375
0.000202032
0.000201814
0.0002015
0.0002007
0.000198903
0.000195651
0.000190849
0.000185157
0.000179075
0.000173009
0.000167437
0.000162706
0.000159136
0.000156784
0.000155126
0.000153196
0.000157867
0.000153426
0.000306842
0.000363962
0.000236729
)
;
    }
    sWall
    {
        type            nutkWallFunction;
        Cmu             0.09;
        kappa           0.41;
        E               9.8;
        value           uniform 0.000178623;
    }
    nWall
    {
        type            nutkWallFunction;
        Cmu             0.09;
        kappa           0.41;
        E               9.8;
        value           nonuniform List<scalar> 6(6.9362e-05 8.68023e-05 0.000102391 0.000162008 0.000182787 0.000153442);
    }
    sideWalls
    {
        type            empty;
    }
    glass1
    {
        type            nutkWallFunction;
        Cmu             0.09;
        kappa           0.41;
        E               9.8;
        value           nonuniform List<scalar> 9(0.000108321 0.000148015 0.000180594 0.000211547 0.00024257 0.000274793 0.000305596 0.000313347 0.000307139);
    }
    glass2
    {
        type            nutkWallFunction;
        Cmu             0.09;
        kappa           0.41;
        E               9.8;
        value           nonuniform List<scalar> 2(0.000128231 0.000137102);
    }
    sun
    {
        type            nutkWallFunction;
        Cmu             0.09;
        kappa           0.41;
        E               9.8;
        value           nonuniform List<scalar> 
14
(
0.00010829
0.000117472
0.000119257
0.000124774
0.000129839
0.000134537
0.000139085
0.000143764
0.000147666
0.000150221
0.000150874
0.00014906
0.000144192
0.000135624
)
;
    }
    heatsource1
    {
        type            nutkWallFunction;
        Cmu             0.09;
        kappa           0.41;
        E               9.8;
        value           nonuniform List<scalar> 3(7.38683e-05 7.25999e-05 6.93684e-05);
    }
    heatsource2
    {
        type            nutkWallFunction;
        Cmu             0.09;
        kappa           0.41;
        E               9.8;
        value           nonuniform List<scalar> 4(0.000128946 7.80134e-05 7.80133e-05 0.00012475);
    }
    Table_master
    {
        type            nutkWallFunction;
        Cmu             0.09;
        kappa           0.41;
        E               9.8;
        value           nonuniform List<scalar> 9(9.94745e-05 8.76905e-05 7.82532e-05 7.06583e-05 6.44917e-05 5.94395e-05 5.52816e-05 5.19019e-05 4.93327e-05);
    }
    Table_slave
    {
        type            nutkWallFunction;
        Cmu             0.09;
        kappa           0.41;
        E               9.8;
        value           nonuniform List<scalar> 9(0.000109581 0.000100464 9.46052e-05 9.06654e-05 8.76894e-05 8.49097e-05 8.16372e-05 7.82547e-05 7.41911e-05);
    }
    inlet
    {
        type            calculated;
        value           uniform 6.7082e-05;
    }
    outlet
    {
        type            calculated;
        value           nonuniform List<scalar> 2(0.00150393 0.00163977);
    }
}


// ************************************************************************* //
