/*--------------------------------*- C++ -*----------------------------------*\
  =========                 |
  \\      /  F ield         | OpenFOAM: The Open Source CFD Toolbox
   \\    /   O peration     | Website:  https://openfoam.org
    \\  /    A nd           | Version:  6
     \\/     M anipulation  |
\*---------------------------------------------------------------------------*/
FoamFile
{
    version     2.0;
    format      ascii;
    class       volScalarField;
    location    "620";
    object      T;
}
// * * * * * * * * * * * * * * * * * * * * * * * * * * * * * * * * * * * * * //

dimensions      [0 0 0 1 0 0 0];

internalField   nonuniform List<scalar> 
459
(
305.613
305.432
305.428
305.43
305.431
305.431
305.431
305.43
305.427
305.421
305.412
305.402
305.393
305.384
305.371
305.29
305.36
305.384
305.393
305.397
305.398
305.396
305.392
305.387
305.382
305.377
305.372
305.366
305.361
305.355
305.348
305.339
305.316
305.168
305.751
305.484
305.476
305.484
305.49
305.495
305.496
305.494
305.487
305.472
305.453
305.432
305.416
305.405
305.402
305.406
305.409
305.384
305.423
305.433
305.441
305.446
305.449
305.449
305.448
305.446
305.445
305.442
305.44
305.437
305.433
305.426
305.415
305.396
305.364
305.343
305.887
305.528
305.51
305.524
305.538
305.549
305.555
305.556
305.545
305.521
305.486
305.45
305.422
305.407
305.403
305.405
305.408
305.421
305.434
305.447
305.457
305.466
305.472
305.471
305.47
305.469
305.468
305.468
305.467
305.465
305.463
305.459
305.45
305.432
305.401
305.381
306.021
305.574
305.539
305.558
305.582
305.604
305.621
305.627
305.613
305.575
305.521
305.466
305.425
305.404
305.399
305.403
305.409
305.414
305.427
305.442
305.458
305.472
305.484
305.493
305.502
305.509
305.515
305.52
305.525
305.529
305.532
305.534
305.535
305.511
305.48
305.441
305.412
306.15
305.628
305.567
305.583
305.615
305.649
305.68
305.697
305.679
305.624
305.549
305.474
305.421
305.397
305.393
305.401
305.413
305.427
305.443
305.461
305.479
305.494
305.507
305.517
305.527
305.534
305.54
305.545
305.549
305.551
305.552
305.552
305.549
305.538
305.514
305.48
305.443
305.443
305.444
305.469
306.266
305.695
305.607
305.606
305.635
305.674
305.718
305.749
305.722
305.65
305.557
305.471
305.412
305.386
305.386
305.401
305.421
305.442
305.463
305.484
305.503
305.519
305.531
305.541
305.549
305.554
305.559
305.562
305.564
305.565
305.565
305.563
305.56
305.551
305.536
305.512
305.482
305.469
305.462
305.478
306.367
305.802
305.702
305.672
305.681
305.71
305.759
305.777
305.735
305.646
305.538
305.445
305.386
305.367
305.378
305.404
305.435
305.464
305.49
305.512
305.529
305.543
305.553
305.561
305.566
305.569
305.572
305.573
305.573
305.573
305.571
305.569
305.565
305.558
305.547
305.531
305.508
305.49
305.477
305.487
306.518
306.082
305.963
305.881
305.84
305.834
305.846
305.809
305.716
305.591
305.469
305.38
305.339
305.342
305.375
305.418
305.459
305.493
305.519
305.539
305.553
305.562
305.569
305.573
305.576
305.578
305.578
305.578
305.577
305.575
305.573
305.57
305.567
305.561
305.553
305.541
305.525
305.51
305.5
305.566
306.728
306.527
306.35
306.201
306.092
306.016
305.921
305.763
305.584
305.426
305.318
305.271
305.28
305.326
305.389
305.448
305.495
305.525
305.545
305.558
305.567
305.573
305.576
305.579
305.58
305.58
305.58
305.579
305.577
305.575
305.573
305.57
305.567
305.565
305.563
305.565
305.57
305.582
305.6
305.642
302.513
304.027
304.692
304.889
304.927
304.94
304.959
304.998
305.063
305.15
305.253
305.351
305.438
305.492
305.526
305.546
305.559
305.567
305.573
305.576
305.578
305.579
305.58
305.58
305.58
305.58
305.579
305.578
305.576
305.575
305.575
305.575
305.576
305.579
305.586
305.598
305.614
305.647
302.638
303.77
304.14
304.34
304.468
304.604
304.752
304.905
305.057
305.202
305.335
305.422
305.482
305.519
305.542
305.555
305.563
305.568
305.572
305.574
305.576
305.577
305.578
305.579
305.58
305.581
305.582
305.583
305.583
305.583
305.583
305.583
305.584
305.587
305.591
305.598
305.612
305.633
303.235
303.142
303.14
303.906
304.218
304.404
304.576
304.775
304.969
305.133
305.264
305.364
305.435
305.481
305.51
305.527
305.538
305.544
305.549
305.552
305.554
305.556
305.558
305.56
305.561
305.563
305.565
305.567
305.569
305.572
305.574
305.577
305.579
305.581
305.583
305.586
305.589
305.595
305.596
305.628
)
;

boundaryField
{
    floor
    {
        type            wallHeatTransfer;
        Tinf            uniform 301.25;
        alphaWall       uniform 0.24;
        value           nonuniform List<scalar> 
29
(
304.917
304.631
304.815
304.816
304.801
304.782
304.76
304.73
304.697
304.664
304.631
304.599
304.568
304.537
304.507
304.476
304.441
304.402
304.337
304.261
304.261
304.524
304.602
304.686
304.917
304.631
304.838
304.955
305.031
)
;
    }
    ceiling
    {
        type            wallHeatTransfer;
        Tinf            uniform 301.25;
        alphaWall       uniform 0.24;
        value           nonuniform List<scalar> 
43
(
303.073
302.998
303.005
303.72
303.998
304.167
304.325
304.512
304.699
304.858
304.985
305.081
305.147
305.186
305.208
305.221
305.228
305.232
305.234
305.235
305.236
305.237
305.239
305.24
305.241
305.242
305.241
305.238
305.234
305.227
305.22
305.212
305.204
305.197
305.192
305.189
305.189
305.19
305.201
305.221
306.445
306.293
302.549
)
;
    }
    sWall
    {
        type            wallHeatTransfer;
        Tinf            uniform 314.15;
        alphaWall       uniform 0.36;
        value           uniform 304.525;
    }
    nWall
    {
        type            wallHeatTransfer;
        Tinf            uniform 308.15;
        alphaWall       uniform 0.36;
        value           nonuniform List<scalar> 6(306.09 306.015 305.965 305.968 305.926 305.965);
    }
    sideWalls
    {
        type            empty;
    }
    glass1
    {
        type            wallHeatTransfer;
        Tinf            uniform 314.15;
        alphaWall       uniform 4.3;
        value           nonuniform List<scalar> 9(311.734 311.284 310.99 310.759 310.564 310.388 310.241 310.273 310.415);
    }
    glass2
    {
        type            wallHeatTransfer;
        Tinf            uniform 308.15;
        alphaWall       uniform 4.3;
        value           nonuniform List<scalar> 2(307.334 307.326);
    }
    sun
    {
        type            wallHeatTransfer;
        Tinf            uniform 301.25;
        alphaWall       uniform 0.24;
        value           nonuniform List<scalar> 
14
(
305.081
304.953
304.955
304.972
304.987
305
305.011
305.021
305.027
305.026
305.02
305.007
304.988
304.96
)
;
    }
    heatsource1
    {
        type            fixedGradient;
        gradient        uniform 0;
    }
    heatsource2
    {
        type            fixedGradient;
        gradient        uniform 0;
    }
    Table_master
    {
        type            zeroGradient;
    }
    Table_slave
    {
        type            zeroGradient;
    }
    inlet
    {
        type            fixedValue;
        value           uniform 299.15;
    }
    outlet
    {
        type            zeroGradient;
    }
}


// ************************************************************************* //
