/*--------------------------------*- C++ -*----------------------------------*\
  =========                 |
  \\      /  F ield         | OpenFOAM: The Open Source CFD Toolbox
   \\    /   O peration     | Website:  https://openfoam.org
    \\  /    A nd           | Version:  6
     \\/     M anipulation  |
\*---------------------------------------------------------------------------*/
FoamFile
{
    version     2.0;
    format      ascii;
    class       volScalarField;
    location    "200";
    object      nut;
}
// * * * * * * * * * * * * * * * * * * * * * * * * * * * * * * * * * * * * * //

dimensions      [0 2 -1 0 0 0 0];

internalField   nonuniform List<scalar> 
459
(
0.000737769
0.000744465
0.000619545
0.000630077
0.000649198
0.000669075
0.000689319
0.000710296
0.000732785
0.000753359
0.000770982
0.000784667
0.000793994
0.000799063
0.000795562
0.000418695
0.000460601
0.000473387
0.000395371
0.000303831
0.000258293
0.000233566
0.000227589
0.000213319
0.000218361
0.000226394
0.000239363
0.000264506
0.000306574
0.000364272
0.000430332
0.000469916
0.000467473
0.000422832
0.00136407
0.00250199
0.00149999
0.00230879
0.0025481
0.00268705
0.00281873
0.00293413
0.0030159
0.00306731
0.00306739
0.00298692
0.00277882
0.00236644
0.00168012
0.000870808
0.00060531
0.000606609
0.00116073
0.00136563
0.00145373
0.0013683
0.00107454
0.000782195
0.000440698
0.000295712
0.000272113
0.000307441
0.000386325
0.000544293
0.000795412
0.00109819
0.00158123
0.00162249
0.00160175
0.000558328
0.00192428
0.00464918
0.00181359
0.00287959
0.00378323
0.00403086
0.00416637
0.0042615
0.00431573
0.00433279
0.00428666
0.00413901
0.00383376
0.00330489
0.00253935
0.00169021
0.000964358
0.000945008
0.00275766
0.00263822
0.00241434
0.00197612
0.00137627
0.000508229
0.000407257
0.000335365
0.00028712
0.000333783
0.000399147
0.00047209
0.000559205
0.000670059
0.00152774
0.0015327
0.0012577
0.000660259
0.00244358
0.00728847
0.00292373
0.00283234
0.00419157
0.00471078
0.00494339
0.00508721
0.00517487
0.00523239
0.00525485
0.00520046
0.00499528
0.00453516
0.00373591
0.00267486
0.00169017
0.00117162
0.00323359
0.00328852
0.00308277
0.00255677
0.00193306
0.0013011
0.000808419
0.000820852
0.00083798
0.000856535
0.000875825
0.00089632
0.000914506
0.000928563
0.000938746
0.00185771
0.0027125
0.00308903
0.00111092
0.00291395
0.0100625
0.00519186
0.00350565
0.00406677
0.00468558
0.00511255
0.00540102
0.00558224
0.00572273
0.00589231
0.00608101
0.00625053
0.0063419
0.00628755
0.00604646
0.0056651
0.00530449
0.00539956
0.00521277
0.00487587
0.00456065
0.00432009
0.00414958
0.00405433
0.00407873
0.00410979
0.00413256
0.00414434
0.00415492
0.00417549
0.00422166
0.00430506
0.00443466
0.00446885
0.00433906
0.00361477
0.00153045
0.00138294
0.00121034
0.00334155
0.012485
0.00864178
0.00592071
0.00487766
0.00466719
0.00490235
0.00524482
0.00550866
0.00567593
0.00590627
0.00622117
0.00659914
0.00698812
0.00731125
0.00748615
0.00745487
0.00723915
0.00693358
0.00654978
0.00617154
0.00586797
0.00565397
0.00551382
0.0054224
0.00535721
0.00529254
0.00521629
0.00512994
0.0050522
0.00501057
0.00502748
0.00510901
0.0052222
0.00533233
0.00537213
0.00503257
0.00444194
0.00332815
0.00135764
0.0036823
0.0137088
0.0117079
0.00916671
0.00732961
0.00607238
0.00546337
0.00531861
0.00539907
0.0054509
0.00558342
0.00584713
0.00624677
0.00674608
0.00725563
0.00765731
0.00784119
0.00779013
0.00756318
0.00723847
0.00689681
0.00659947
0.00637343
0.00621748
0.00611203
0.00603196
0.00594899
0.00583783
0.00568799
0.00551382
0.00535021
0.00522539
0.00515284
0.00510492
0.00500787
0.00475528
0.00425406
0.0036093
0.00289695
0.00131573
0.0036723
0.0115404
0.0105848
0.0104039
0.00921829
0.0078615
0.00679917
0.00607645
0.00564466
0.00541267
0.0053257
0.00536793
0.00557402
0.0059616
0.00648828
0.00704053
0.00742539
0.00758589
0.00754985
0.00737539
0.00713312
0.00688881
0.00669059
0.00656536
0.00651789
0.0065321
0.00656565
0.00656257
0.0064736
0.00627724
0.00599545
0.00560109
0.00510222
0.00454326
0.00397805
0.00345868
0.00305237
0.0026747
0.00229497
0.00151712
0.00349764
0.00398579
0.00997186
0.0107143
0.00965989
0.0084404
0.00735334
0.00648923
0.00585705
0.00541949
0.00513162
0.00498281
0.0049776
0.00512914
0.00544658
0.00589014
0.00634353
0.00669133
0.0068781
0.00690847
0.00682478
0.00668517
0.00654825
0.00646633
0.00648173
0.0066197
0.00686426
0.00716126
0.00742561
0.00756364
0.0075116
0.00733764
0.00711239
0.00689522
0.0066781
0.00629536
0.00549173
0.00475755
0.0043202
0.0017574
0.0227315
0.0196902
0.0115527
0.00914817
0.00781738
0.00688362
0.00618507
0.00565596
0.00525581
0.00496146
0.00476734
0.0046753
0.00470533
0.0048696
0.00514366
0.00545761
0.00572913
0.00590519
0.00597717
0.00597064
0.00592818
0.0058971
0.00592399
0.00605047
0.00630969
0.0067176
0.00723861
0.00770431
0.00794803
0.00798779
0.00789984
0.00777982
0.00769441
0.00762984
0.00746431
0.00684727
0.00612497
0.00175767
0.00787765
0.0138986
0.00962675
0.00812081
0.00714096
0.00636971
0.00572896
0.0051974
0.0047604
0.00440622
0.0041284
0.00393408
0.00381804
0.00378371
0.00383892
0.00397116
0.00414517
0.0043166
0.00445225
0.00454149
0.00459458
0.00463464
0.00469009
0.00479142
0.00497493
0.0052889
0.00576902
0.00634197
0.00679067
0.00706605
0.00717723
0.00717336
0.00710294
0.0069764
0.0067196
0.00596826
0.0050286
0.00159138
0.00388351
0.00471842
0.00590112
0.00412457
0.00267296
0.00249202
0.00226028
0.00203305
0.001835
0.00166679
0.00152449
0.00140415
0.00130276
0.00121774
0.00114794
0.00109217
0.00104901
0.00101761
0.000996894
0.00098519
0.000980265
0.000979887
0.000982395
0.000987038
0.00099405
0.00100463
0.00102115
0.00104756
0.00108844
0.00114827
0.00123387
0.00132854
0.00141319
0.00147574
0.00151125
0.00151685
0.00148493
0.00143978
0.00140215
0.00129606
)
;

boundaryField
{
    floor
    {
        type            nutkWallFunction;
        Cmu             0.09;
        kappa           0.41;
        E               9.8;
        value           nonuniform List<scalar> 
29
(
9.63622e-05
4.92496e-05
5.46915e-05
5.6339e-05
4.61977e-05
3.39562e-05
2.76915e-05
2.42284e-05
2.33841e-05
2.13561e-05
2.20747e-05
2.32145e-05
2.50446e-05
2.85543e-05
3.43285e-05
4.20807e-05
5.07646e-05
5.58853e-05
5.55718e-05
4.9788e-05
4.97879e-05
6.71411e-05
7.9838e-05
0.000133665
9.63622e-05
4.92496e-05
7.32002e-05
0.000114224
0.000140708
)
;
    }
    ceiling
    {
        type            nutkWallFunction;
        Cmu             0.09;
        kappa           0.41;
        E               9.8;
        value           nonuniform List<scalar> 
43
(
0.000430875
0.000514951
0.000631619
0.000455354
0.000305579
0.000286401
0.000261597
0.000237019
0.00021536
0.000196766
0.000180877
0.000167314
0.000155787
0.000146042
0.000137987
0.00013151
0.000126473
0.000122793
0.000120359
0.000118981
0.0001184
0.000118356
0.000118651
0.000119198
0.000120023
0.000121268
0.000123207
0.000126301
0.000131073
0.00013802
0.000147891
0.000158718
0.000168325
0.000175382
0.000179373
0.000180001
0.000176414
0.000171325
0.00016707
0.000155007
0.000391579
0.000441425
0.00082182
)
;
    }
    sWall
    {
        type            nutkWallFunction;
        Cmu             0.09;
        kappa           0.41;
        E               9.8;
        value           uniform 0.000430955;
    }
    nWall
    {
        type            nutkWallFunction;
        Cmu             0.09;
        kappa           0.41;
        E               9.8;
        value           nonuniform List<scalar> 6(0.000145176 0.000162025 0.000157257 0.000206822 0.000188357 0.00015502);
    }
    sideWalls
    {
        type            empty;
    }
    glass1
    {
        type            nutkWallFunction;
        Cmu             0.09;
        kappa           0.41;
        E               9.8;
        value           nonuniform List<scalar> 9(8.93251e-05 0.000162957 0.000225472 0.000281639 0.000331421 0.000375953 0.000411023 0.000410017 0.000392107);
    }
    glass2
    {
        type            nutkWallFunction;
        Cmu             0.09;
        kappa           0.41;
        E               9.8;
        value           nonuniform List<scalar> 2(0.000180128 0.000206901);
    }
    sun
    {
        type            nutkWallFunction;
        Cmu             0.09;
        kappa           0.41;
        E               9.8;
        value           nonuniform List<scalar> 
14
(
8.93483e-05
9.01648e-05
7.47983e-05
7.61076e-05
7.84777e-05
8.09326e-05
8.34239e-05
8.59961e-05
8.87438e-05
9.12487e-05
9.3388e-05
9.50452e-05
9.61727e-05
9.67848e-05
)
;
    }
    heatsource1
    {
        type            nutkWallFunction;
        Cmu             0.09;
        kappa           0.41;
        E               9.8;
        value           nonuniform List<scalar> 3(0.000181494 0.000164869 0.000145161);
    }
    heatsource2
    {
        type            nutkWallFunction;
        Cmu             0.09;
        kappa           0.41;
        E               9.8;
        value           nonuniform List<scalar> 4(0.000105399 7.30316e-05 7.30316e-05 0.000116509);
    }
    Table_master
    {
        type            nutkWallFunction;
        Cmu             0.09;
        kappa           0.41;
        E               9.8;
        value           nonuniform List<scalar> 9(6.08022e-05 4.77679e-05 3.82411e-05 3.17014e-05 3.80278e-05 4.67032e-05 5.61754e-05 6.72543e-05 8.10549e-05);
    }
    Table_slave
    {
        type            nutkWallFunction;
        Cmu             0.09;
        kappa           0.41;
        E               9.8;
        value           nonuniform List<scalar> 9(9.79117e-05 9.94081e-05 0.000101466 0.000103689 0.000105995 0.000108439 0.000110601 0.000112269 0.000113473);
    }
    inlet
    {
        type            calculated;
        value           uniform 3.3541e-05;
    }
    outlet
    {
        type            calculated;
        value           nonuniform List<scalar> 2(0.00388351 0.00471842);
    }
}


// ************************************************************************* //
