// -*- C++ -*-
// File generated by PyFoam - sorry for the ugliness

FoamFile
{
 version 2.0;
 format ascii;
 class volVectorField;
 location "200";
 object U;
}

dimensions [ 0 1 -1 0 0 0 0 ];

internalField nonuniform List<vector> 459
(
  (0.112681 0.0677197 0)
  (-0.141079 -0.00239074 0)
  (-0.108753 -0.000665593 0)
  (-0.11173 0.00130589 0)
  (-0.115805 0.00150576 0)
  (-0.119706 0.000859922 0)
  (-0.122491 -0.000274894 0)
  (-0.123543 -0.00180971 0)
  (-0.122315 -0.00376339 0)
  (-0.118207 -0.00624297 0)
  (-0.110276 -0.00930877 0)
  (-0.0970055 -0.0132117 0)
  (-0.0777629 -0.0188635 0)
  (-0.0592873 -0.0278666 0)
  (-0.0670661 -0.0388319 0)
  (0.0324503 0.016607 0)
  (-0.0416719 -0.00919605 0)
  (-0.0256289 -0.00952392 0)
  (-0.0219959 -0.00372407 0)
  (-0.0202788 0.000243375 0)
  (-0.0230719 -0.000367674 0)
  (-0.0252194 -0.00572921 0)
  (-0.0202436 -0.00895625 0)
  (-0.012831 -0.0104747 0)
  (-0.00346465 -0.0164023 0)
  (0.00917938 -0.0124452 0)
  (0.0190568 -0.00915735 0)
  (0.0258125 -0.00710142 0)
  (0.0312734 -0.00585094 0)
  (0.0366587 -0.0050436 0)
  (0.0419508 -0.00541738 0)
  (0.0470939 -0.00709302 0)
  (0.0556678 -0.000432648 0)
  (-0.0107726 0.0250574 0)
  (0.322241 0.149543 0)
  (-0.168233 0.0102602 0)
  (-0.100211 0.00372808 0)
  (-0.109382 0.0063673 0)
  (-0.114855 0.00675991 0)
  (-0.119257 0.00563193 0)
  (-0.122303 0.00351562 0)
  (-0.123696 0.000563421 0)
  (-0.123014 -0.00326054 0)
  (-0.119892 -0.00800672 0)
  (-0.113674 -0.0136682 0)
  (-0.103469 -0.0203722 0)
  (-0.0888481 -0.028904 0)
  (-0.071496 -0.0406518 0)
  (-0.0552861 -0.0538993 0)
  (-0.0398889 -0.0588131 0)
  (0.0291934 0.00580979 0)
  (0.135955 0.015994 0)
  (0.0553783 0.00933091 0)
  (0.0246871 0.00359502 0)
  (0.0141058 0.00195939 0)
  (0.0121769 0.00355662 0)
  (0.00866351 0.00907468 0)
  (0.00522245 0.00769321 0)
  (-0.0052651 -0.00570393 0)
  (-0.00227983 -0.00929268 0)
  (-0.00216363 -0.0184557 0)
  (-0.00230069 -0.0135147 0)
  (0.00324489 -0.0085453 0)
  (0.00365979 -0.00644927 0)
  (0.00254904 -0.00550589 0)
  (0.00113713 -0.00672127 0)
  (0.00279513 -0.0134929 0)
  (0.00508026 -0.0200861 0)
  (0.0344724 -0.00377537 0)
  (-0.0912438 0.0533405 0)
  (0.489418 0.228151 0)
  (-0.212573 0.0364627 0)
  (-0.0836466 0.014564 0)
  (-0.101029 0.0128317 0)
  (-0.108234 0.0114445 0)
  (-0.113109 0.00886154 0)
  (-0.116594 0.00518161 0)
  (-0.118724 0.000402349 0)
  (-0.119274 -0.00549538 0)
  (-0.11811 -0.0126265 0)
  (-0.11505 -0.0210561 0)
  (-0.109867 -0.0308127 0)
  (-0.102731 -0.0420146 0)
  (-0.0945304 -0.0542025 0)
  (-0.0865636 -0.0643599 0)
  (-0.0813409 -0.0668266 0)
  (-0.0868717 -0.0603668 0)
  (0.0892775 -0.00368771 0)
  (-0.0399588 0.0083078 0)
  (-0.0312483 0.0104727 0)
  (-0.0254401 0.00541374 0)
  (-0.0183382 0.000119065 0)
  (-0.0114058 -0.00508534 0)
  (0.0229109 0.0042657 0)
  (0.0258808 0.000158929 0)
  (0.0206776 -0.00512514 0)
  (0.00254958 -0.0152231 0)
  (-0.0195832 -0.012099 0)
  (-0.0271832 -0.00772747 0)
  (-0.0340779 -0.00535495 0)
  (-0.0394497 -0.00385242 0)
  (-0.0413329 -0.00322997 0)
  (-0.0340381 -0.00373271 0)
  (-0.0493487 0.00455371 0)
  (-0.0832501 0.0213887 0)
  (-0.180476 0.0408805 0)
  (0.618274 0.292366 0)
  (-0.251491 0.0679653 0)
  (-0.0636237 0.0286663 0)
  (-0.0873063 0.0213896 0)
  (-0.0966281 0.0172253 0)
  (-0.101298 0.013084 0)
  (-0.104556 0.00825995 0)
  (-0.106803 0.00235166 0)
  (-0.10808 -0.00474334 0)
  (-0.108447 -0.0130261 0)
  (-0.108297 -0.022492 0)
  (-0.10798 -0.0329747 0)
  (-0.108203 -0.0440396 0)
  (-0.110053 -0.0543577 0)
  (-0.115146 -0.0607393 0)
  (-0.126275 -0.0573553 0)
  (-0.142389 -0.0336914 0)
  (-0.137254 0.0222431 0)
  (-0.104684 0.00432002 0)
  (-0.0976119 0.00696394 0)
  (-0.0843623 0.00241936 0)
  (-0.0779033 -0.00340996 0)
  (-0.0740575 -0.00974008 0)
  (-0.0738367 -0.0150386 0)
  (-0.0695864 -0.0119788 0)
  (-0.0564007 -0.0122614 0)
  (-0.0429211 -0.0134477 0)
  (-0.0287169 -0.0146745 0)
  (-0.0143056 -0.0156974 0)
  (0.00213848 -0.0157497 0)
  (0.0162921 -0.0143687 0)
  (0.0283165 -0.0120661 0)
  (0.0397497 -0.00776673 0)
  (0.0409717 -0.00382229 0)
  (0.041174 0.00503568 0)
  (0.0457303 0.00826354 0)
  (-0.0760746 0.00613027 0)
  (0.714142 0.344283 0)
  (-0.279541 0.10139 0)
  (-0.0442907 0.0421951 0)
  (-0.0647092 0.0302041 0)
  (-0.0764746 0.0228591 0)
  (-0.0812702 0.0166642 0)
  (-0.0840344 0.0105887 0)
  (-0.0857287 0.00388426 0)
  (-0.0866766 -0.00371284 0)
  (-0.0871748 -0.0121289 0)
  (-0.0880203 -0.0212797 0)
  (-0.0896999 -0.030919 0)
  (-0.0928189 -0.0405424 0)
  (-0.0979751 -0.0491733 0)
  (-0.105573 -0.055275 0)
  (-0.114905 -0.0566399 0)
  (-0.121733 -0.049357 0)
  (-0.121784 -0.0299849 0)
  (-0.114638 -0.0159827 0)
  (-0.104856 -0.00784071 0)
  (-0.0945334 -0.00684475 0)
  (-0.0866504 -0.00905645 0)
  (-0.0808716 -0.0127969 0)
  (-0.0762818 -0.0159364 0)
  (-0.0702664 -0.0164643 0)
  (-0.0619914 -0.0180965 0)
  (-0.0528478 -0.0198172 0)
  (-0.0432341 -0.0213317 0)
  (-0.0335151 -0.022274 0)
  (-0.0238101 -0.0220072 0)
  (-0.0143899 -0.0203712 0)
  (-0.00496976 -0.0177692 0)
  (0.00641064 -0.0139842 0)
  (0.0191106 -0.011258 0)
  (0.0380849 -0.0065374 0)
  (0.0692085 0.00161359 0)
  (0.084869 0.0105694 0)
  (0.132717 0.0037568 0)
  (0.148998 0.0220525 0)
  (-0.049235 0.0743605 0)
  (0.77117 0.389402 0)
  (-0.299564 0.127617 0)
  (-0.0273212 0.0429347 0)
  (-0.0257937 0.0352663 0)
  (-0.036682 0.0308059 0)
  (-0.0448806 0.0214689 0)
  (-0.0496397 0.0127813 0)
  (-0.0523692 0.00486732 0)
  (-0.0539077 -0.00321406 0)
  (-0.0545639 -0.0113838 0)
  (-0.0558678 -0.0195815 0)
  (-0.0584345 -0.0277278 0)
  (-0.0627396 -0.0354283 0)
  (-0.0690306 -0.0418711 0)
  (-0.0771563 -0.0457378 0)
  (-0.0859473 -0.0452648 0)
  (-0.0924771 -0.0391852 0)
  (-0.0944875 -0.0296555 0)
  (-0.0922608 -0.0212593 0)
  (-0.0873038 -0.0157119 0)
  (-0.0815217 -0.0140857 0)
  (-0.0765054 -0.0151179 0)
  (-0.0726152 -0.0176854 0)
  (-0.0694655 -0.0203782 0)
  (-0.0660896 -0.022361 0)
  (-0.0621714 -0.0244927 0)
  (-0.0581191 -0.0264843 0)
  (-0.0542704 -0.0279699 0)
  (-0.0509497 -0.0285815 0)
  (-0.0482963 -0.0280405 0)
  (-0.0461775 -0.0265114 0)
  (-0.0441819 -0.0245603 0)
  (-0.04126 -0.022923 0)
  (-0.0360939 -0.0231187 0)
  (-0.0256855 -0.025778 0)
  (-0.00669686 -0.0318435 0)
  (0.0180891 -0.0455719 0)
  (0.0503157 -0.0445582 0)
  (0.117145 0.0223259 0)
  (-0.0798834 0.135876 0)
  (0.792472 0.431102 0)
  (-0.30243 0.113993 0)
  (0.00718372 -0.00991163 0)
  (0.0417758 0.0239609 0)
  (0.0346074 0.0406862 0)
  (0.0200466 0.0318765 0)
  (0.00987243 0.0191139 0)
  (0.00217823 0.00876653 0)
  (-0.00454184 -0.00128092 0)
  (-0.0088817 -0.0101411 0)
  (-0.0122462 -0.0175059 0)
  (-0.0164539 -0.0239731 0)
  (-0.0221582 -0.0297819 0)
  (-0.0295671 -0.0346162 0)
  (-0.0383105 -0.0376292 0)
  (-0.0472906 -0.0375688 0)
  (-0.0545581 -0.0338252 0)
  (-0.058713 -0.0280931 0)
  (-0.0598237 -0.0226795 0)
  (-0.0588785 -0.0189 0)
  (-0.0570826 -0.0174117 0)
  (-0.055469 -0.0178438 0)
  (-0.0545183 -0.0195627 0)
  (-0.0542436 -0.0217379 0)
  (-0.0543958 -0.0238289 0)
  (-0.0550088 -0.0257582 0)
  (-0.0564754 -0.0271853 0)
  (-0.0592857 -0.0277562 0)
  (-0.0639909 -0.027252 0)
  (-0.0709636 -0.0257707 0)
  (-0.0800823 -0.0238523 0)
  (-0.0909972 -0.0221995 0)
  (-0.102712 -0.0216987 0)
  (-0.114229 -0.0242112 0)
  (-0.124474 -0.0324854 0)
  (-0.131925 -0.0493574 0)
  (-0.132908 -0.0729286 0)
  (-0.114402 -0.083231 0)
  (-0.0152066 -0.023384 0)
  (-0.172821 0.251409 0)
  (0.895065 0.442522 0)
  (-0.0617332 0.0831564 0)
  (0.121123 -0.0790622 0)
  (0.180317 -0.0118578 0)
  (0.149216 0.0311484 0)
  (0.113518 0.034291 0)
  (0.093351 0.025922 0)
  (0.0788164 0.0162199 0)
  (0.0660455 0.00605896 0)
  (0.0535217 -0.00395841 0)
  (0.0433649 -0.0121542 0)
  (0.0351619 -0.0181582 0)
  (0.0269408 -0.0225917 0)
  (0.0179382 -0.0259664 0)
  (0.00812155 -0.0282678 0)
  (-0.00203173 -0.0288974 0)
  (-0.0106775 -0.0272498 0)
  (-0.0169516 -0.0241589 0)
  (-0.0209158 -0.0209826 0)
  (-0.0231727 -0.018622 0)
  (-0.0245379 -0.0175643 0)
  (-0.0257776 -0.0177508 0)
  (-0.0274044 -0.0188418 0)
  (-0.0296651 -0.020313 0)
  (-0.0326628 -0.0216582 0)
  (-0.0366001 -0.0224001 0)
  (-0.0419586 -0.0219291 0)
  (-0.0495185 -0.0196217 0)
  (-0.0605371 -0.0151532 0)
  (-0.0764099 -0.00882421 0)
  (-0.0972891 -0.0013979 0)
  (-0.124974 0.00502137 0)
  (-0.159473 0.00772875 0)
  (-0.199549 0.00420871 0)
  (-0.243113 -0.00660356 0)
  (-0.286186 -0.0229742 0)
  (-0.319308 -0.0386553 0)
  (-0.34747 -0.0433355 0)
  (-0.413961 -0.0206473 0)
  (-0.645106 0.0498864 0)
  (1.03679 0.391604 0)
  (0.491366 0.205556 0)
  (0.333919 0.0934462 0)
  (0.381777 0.113775 0)
  (0.284771 0.10888 0)
  (0.210352 0.0895693 0)
  (0.172781 0.0678239 0)
  (0.149026 0.0471427 0)
  (0.130426 0.0290468 0)
  (0.115654 0.014378 0)
  (0.102517 0.002811 0)
  (0.0898917 -0.00591062 0)
  (0.0784816 -0.0118456 0)
  (0.0676113 -0.0156782 0)
  (0.0568844 -0.0180396 0)
  (0.0463345 -0.0192913 0)
  (0.036618 -0.0194232 0)
  (0.0284371 -0.0186222 0)
  (0.0220532 -0.0174805 0)
  (0.0172335 -0.0165718 0)
  (0.0134643 -0.0162464 0)
  (0.0101578 -0.0165407 0)
  (0.00681315 -0.0172793 0)
  (0.003093 -0.0181504 0)
  (-0.00124133 -0.0187781 0)
  (-0.00606169 -0.0186039 0)
  (-0.0112242 -0.016934 0)
  (-0.0164913 -0.0129542 0)
  (-0.0217494 -0.00606572 0)
  (-0.0265402 0.00372026 0)
  (-0.0327275 0.0152751 0)
  (-0.0405905 0.0272454 0)
  (-0.050278 0.0368326 0)
  (-0.061811 0.0404821 0)
  (-0.075572 0.0342859 0)
  (-0.093209 0.0142694 0)
  (-0.118128 -0.023517 0)
  (-0.123662 -0.0830961 0)
  (-0.161009 -0.174583 0)
  (-0.571248 -0.285905 0)
  (-1.40725 0.0461803 0)
  (0.157 0.138494 0)
  (0.0831149 0.103385 0)
  (0.100709 0.094877 0)
  (0.11866 0.0781147 0)
  (0.12654 0.0570542 0)
  (0.127588 0.0377202 0)
  (0.12593 0.0224937 0)
  (0.122746 0.0112524 0)
  (0.118214 0.00303759 0)
  (0.111929 -0.00314118 0)
  (0.104603 -0.00738945 0)
  (0.0965466 -0.0101514 0)
  (0.0880393 -0.0118493 0)
  (0.0795006 -0.0127506 0)
  (0.0714916 -0.0130715 0)
  (0.0644637 -0.0130746 0)
  (0.0585395 -0.0129986 0)
  (0.0535285 -0.0129904 0)
  (0.049072 -0.0130761 0)
  (0.0447941 -0.0131907 0)
  (0.0404028 -0.0132161 0)
  (0.0357362 -0.0130232 0)
  (0.0308877 -0.0123924 0)
  (0.0262964 -0.0109597 0)
  (0.0226815 -0.00818221 0)
  (0.0207159 -0.00343862 0)
  (0.0208338 0.00413972 0)
  (0.0230523 0.0143371 0)
  (0.0273554 0.0253898 0)
  (0.0330389 0.0344451 0)
  (0.0392976 0.0385721 0)
  (0.0452889 0.0363647 0)
  (0.0500027 0.0296447 0)
  (0.0545311 0.0218242 0)
  (0.0707804 0.00648465 0)
  (0.124957 -0.0723686 0)
  (-0.164443 -0.234604 0)
  (-0.626329 0.169732 0)
  (0.185472 0.0585135 0)
  (-0.00328589 0.00725206 0)
  (0.0351278 0.0540119 0)
  (0.0711743 0.0586996 0)
  (0.0946128 0.0472007 0)
  (0.10998 0.0350322 0)
  (0.119595 0.026241 0)
  (0.124559 0.0210504 0)
  (0.126029 0.0188847 0)
  (0.125055 0.0190946 0)
  (0.122373 0.0207573 0)
  (0.118753 0.0231482 0)
  (0.114659 0.0256565 0)
  (0.110308 0.0279387 0)
  (0.105875 0.0296443 0)
  (0.101497 0.0305763 0)
  (0.0972244 0.0307805 0)
  (0.0930124 0.0305002 0)
  (0.0887658 0.030057 0)
  (0.0843976 0.0297377 0)
  (0.0798736 0.0297213 0)
  (0.0752379 0.0300166 0)
  (0.0706612 0.0304957 0)
  (0.0665261 0.0310907 0)
  (0.0634446 0.0323544 0)
  (0.0621705 0.0356059 0)
  (0.0634019 0.0398431 0)
  (0.0684518 0.0431992 0)
  (0.0775955 0.0471132 0)
  (0.090025 0.0505066 0)
  (0.104261 0.0514359 0)
  (0.118178 0.0486572 0)
  (0.12909 0.042034 0)
  (0.134691 0.0303307 0)
  (0.132477 0.00339383 0)
  (0.157544 -0.0582395 0)
  (-0.167496 -0.171123 0)
  (-0.029513 -0.238077 0)
  (-0.236959 -0.0186868 0)
  (-0.343979 0.208467 0)
  (0.202789 -0.0255296 0)
  (-0.0438503 -0.0556428 0)
  (-0.0115639 0.000958556 0)
  (0.0383029 0.00802866 0)
  (0.0712829 -0.00363654 0)
  (0.0976544 -0.0170693 0)
  (0.116422 -0.0298116 0)
  (0.128246 -0.0418676 0)
  (0.135004 -0.0535038 0)
  (0.13856 -0.0647853 0)
  (0.140231 -0.0756685 0)
  (0.140754 -0.0857927 0)
  (0.140564 -0.0948759 0)
  (0.139933 -0.102896 0)
  (0.138948 -0.109789 0)
  (0.137538 -0.115577 0)
  (0.135564 -0.120428 0)
  (0.132914 -0.124628 0)
  (0.129574 -0.128492 0)
  (0.125636 -0.132263 0)
  (0.121274 -0.136057 0)
  (0.116693 -0.139829 0)
  (0.112067 -0.143364 0)
  (0.107521 -0.14624 0)
  (0.103296 -0.147724 0)
  (0.100353 -0.146711 0)
  (0.100263 -0.141292 0)
  (0.104028 -0.128504 0)
  (0.113011 -0.111703 0)
  (0.127537 -0.0960576 0)
  (0.145858 -0.0854155 0)
  (0.164719 -0.08138 0)
  (0.180276 -0.0843357 0)
  (0.189334 -0.0953506 0)
  (0.185809 -0.109987 0)
  (0.193046 -0.133475 0)
  (-0.165549 -0.186481 0)
)
;

boundaryField
{
  floor
  {
    type noSlip;
  }
  ceiling
  {
    type noSlip;
  }
  sWall
  {
    type noSlip;
  }
  nWall
  {
    type noSlip;
  }
  sideWalls
  {
    type empty;
  }
  glass1
  {
    type noSlip;
  }
  glass2
  {
    type noSlip;
  }
  sun
  {
    type noSlip;
  }
  heatsource1
  {
    type noSlip;
  }
  heatsource2
  {
    type noSlip;
  }
  Table_master
  {
    type noSlip;
  }
  Table_slave
  {
    type noSlip;
  }
  inlet
  {
    type fixedValue;
    value uniform (0.1 0 0);
  }
  outlet
  {
    type zeroGradient;
  }
} 	// ************************************************************************* //

