/*--------------------------------*- C++ -*----------------------------------*\
  =========                 |
  \\      /  F ield         | OpenFOAM: The Open Source CFD Toolbox
   \\    /   O peration     | Website:  https://openfoam.org
    \\  /    A nd           | Version:  6
     \\/     M anipulation  |
\*---------------------------------------------------------------------------*/
FoamFile
{
    version     2.0;
    format      ascii;
    class       volScalarField;
    location    "500";
    object      alphat;
}
// * * * * * * * * * * * * * * * * * * * * * * * * * * * * * * * * * * * * * //

dimensions      [1 -1 -1 0 0 0 0];

internalField   nonuniform List<scalar> 
459
(
0.00116508
0.00126394
0.00127931
0.00133701
0.00138969
0.001438
0.001484
0.00153028
0.00156941
0.00159287
0.00159461
0.00156974
0.00151732
0.00144462
0.00136545
0.000505589
0.000621559
0.000678697
0.000659422
0.000630086
0.000597651
0.000562626
0.000529326
0.000499165
0.000472177
0.000448044
0.000426534
0.000407228
0.000389632
0.000373186
0.000357077
0.00034006
0.000330973
0.000305038
0.00161526
0.00370377
0.00346129
0.00401442
0.00452965
0.00505628
0.00555115
0.00594454
0.00627358
0.00655559
0.00674418
0.00677592
0.00655231
0.00586832
0.00416571
0.00138072
0.000919535
0.000585214
0.0010735
0.00140171
0.00161903
0.00171813
0.00170609
0.00145284
0.00128953
0.00116637
0.00106838
0.000988084
0.000918628
0.000855936
0.000797316
0.000741496
0.000693542
0.000648437
0.000780229
0.000416474
0.00199547
0.00507377
0.00419667
0.0054079
0.00595102
0.00634344
0.00664088
0.00687276
0.00710222
0.00735477
0.00760085
0.00779281
0.00786205
0.00773175
0.00725023
0.00590877
0.00133813
0.00115026
0.00153003
0.00183412
0.00207981
0.0022334
0.00216492
0.000790533
0.000707536
0.000640352
0.000585646
0.000540668
0.000503306
0.000472026
0.000445822
0.00042423
0.000456229
0.000522381
0.000874081
0.000489091
0.00236562
0.00663997
0.00414267
0.00574347
0.00629257
0.00645515
0.00650825
0.00657346
0.00671269
0.00694061
0.00722659
0.00752972
0.00777315
0.00789887
0.00784766
0.00738772
0.00574832
0.0015263
0.00190883
0.00237765
0.00274764
0.00300048
0.00314623
0.00295886
0.000882502
0.000816532
0.000771702
0.000738905
0.000710743
0.00068212
0.000654217
0.000623992
0.000587459
0.000553364
0.000558311
0.00100968
0.000544591
0.00274401
0.00868323
0.00458778
0.0054351
0.00625872
0.00634168
0.00622877
0.00615957
0.0062666
0.0064922
0.00680136
0.00716397
0.00747267
0.00764279
0.00762459
0.00736861
0.00673526
0.00548779
0.00495933
0.00468897
0.00452633
0.00443443
0.00438661
0.00428504
0.0037607
0.00354073
0.00342696
0.00333383
0.00321669
0.00303348
0.00272863
0.00233462
0.00188287
0.0014133
0.00104065
0.0010235
0.000723855
0.000683774
0.000824674
0.000922838
0.00314351
0.0109009
0.00654265
0.00519259
0.00582846
0.0061688
0.00620933
0.00598263
0.00609515
0.00630409
0.00661189
0.00697955
0.00730878
0.00748592
0.00743319
0.00714279
0.00667674
0.00614659
0.00577625
0.00551652
0.00531651
0.00517281
0.00506569
0.00495444
0.00478242
0.00463572
0.0045003
0.00435697
0.00419493
0.00400566
0.00373283
0.00334555
0.00284288
0.00225192
0.00170041
0.00124139
0.000970817
0.000845082
0.00122204
0.000961205
0.00351774
0.0125211
0.00961934
0.00680872
0.00611513
0.00617142
0.00626883
0.0061989
0.00619457
0.00633441
0.00663262
0.00701921
0.00736367
0.00752571
0.00741468
0.00704095
0.00653386
0.00610016
0.00585685
0.00569535
0.00551326
0.00529605
0.00506436
0.00485503
0.00468289
0.00454566
0.00441782
0.00428635
0.00415015
0.00401506
0.00388242
0.0036407
0.00324292
0.00272803
0.0022166
0.00173448
0.0014049
0.00131123
0.00135785
0.00107934
0.00359506
0.0114443
0.00997275
0.0089187
0.00804864
0.00751486
0.00694534
0.00649311
0.00633044
0.00647377
0.00684013
0.00728114
0.00762239
0.00771017
0.00746696
0.00694524
0.00633903
0.00592145
0.00574775
0.00548759
0.00511692
0.00473679
0.00442848
0.00421547
0.00407485
0.00397124
0.00388035
0.00379674
0.00372656
0.00368194
0.00367657
0.00368803
0.00346455
0.00310893
0.00278771
0.00262608
0.0027495
0.00322748
0.00404754
0.001707
0.00350259
0.00418258
0.00470356
0.00493383
0.00506085
0.00508555
0.00519643
0.00550544
0.00602015
0.00667172
0.00733039
0.00783956
0.00805856
0.00789035
0.00733031
0.0065538
0.00592202
0.00549703
0.00510592
0.00461832
0.00413946
0.00377706
0.003542
0.00339556
0.00329646
0.00321628
0.0031401
0.00306184
0.00297844
0.00288678
0.00278365
0.0026695
0.00257227
0.00250087
0.00248213
0.00250881
0.00251115
0.00242236
0.00226912
0.00160218
0.00204161
0.00388669
0.00507498
0.00592616
0.00673495
0.00745952
0.00808132
0.00854437
0.00877715
0.00869325
0.00825936
0.00746663
0.00641772
0.00545905
0.0048351
0.00432472
0.00378834
0.00331338
0.00298278
0.00278022
0.0026586
0.0025809
0.00252537
0.00248096
0.00244303
0.00241058
0.00238467
0.00236805
0.00236509
0.00238584
0.00241476
0.00245165
0.00249062
0.00250434
0.00244623
0.00229845
0.00207625
0.00132265
0.00244497
0.00525842
0.00697434
0.0076458
0.00825338
0.00872689
0.0088306
0.00872587
0.00834291
0.00752562
0.00645923
0.0053687
0.00446245
0.00377667
0.00322177
0.00275414
0.00242669
0.00222538
0.00209734
0.0020206
0.00197774
0.00195756
0.00195481
0.00196723
0.0019939
0.0020341
0.00208637
0.00214739
0.00222005
0.00230774
0.00240854
0.00251647
0.00261572
0.00268567
0.00267543
0.00271177
0.00269987
0.00134473
0.0021138
0.00223745
0.00232699
0.00244771
0.00231111
0.00215859
0.00201942
0.00188539
0.00176954
0.00163969
0.00148539
0.00131063
0.00112084
0.000942112
0.000799071
0.000702972
0.000647891
0.000621487
0.000613339
0.000616552
0.000627432
0.000642822
0.00066161
0.000683564
0.000708655
0.00073698
0.000768755
0.000804376
0.000844537
0.000890487
0.000942767
0.00100046
0.00106438
0.00113537
0.00121355
0.00130749
0.00133995
0.00130824
0.00122665
0.0011402
)
;

boundaryField
{
    floor
    {
        type            compressible::alphatWallFunction;
        Prt             0.85;
        value           nonuniform List<scalar> 
29
(
0.000192811
7.01023e-05
8.76022e-05
9.60724e-05
9.3225e-05
8.88717e-05
8.40295e-05
7.87642e-05
7.37203e-05
6.91178e-05
6.49696e-05
6.12351e-05
5.78847e-05
5.48592e-05
5.20857e-05
4.94787e-05
4.69108e-05
4.41815e-05
4.27169e-05
3.85075e-05
3.85069e-05
5.63102e-05
6.75723e-05
7.60369e-05
0.000192809
7.01014e-05
8.2167e-05
0.000163287
0.000214529
)
;
    }
    ceiling
    {
        type            compressible::alphatWallFunction;
        Prt             0.85;
        value           nonuniform List<scalar> 
43
(
0.000291805
0.000307762
0.000319263
0.000334802
0.000317379
0.000297768
0.000279738
0.000262242
0.000247009
0.000229798
0.000209146
0.000185461
0.000159324
0.000134239
0.000113759
9.97557e-05
9.16267e-05
8.77007e-05
8.64854e-05
8.69657e-05
8.85884e-05
9.08774e-05
9.36626e-05
9.6905e-05
0.000100595
0.000104742
0.000109371
0.000114532
0.00012032
0.000126901
0.00013434
0.000142494
0.000151465
0.000161354
0.000172163
0.000185047
0.000189475
0.000185151
0.000173968
0.000162028
0.000466897
0.00054962
0.000334213
)
;
    }
    sWall
    {
        type            compressible::alphatWallFunction;
        Prt             0.85;
        value           uniform 0.000290593;
    }
    nWall
    {
        type            compressible::alphatWallFunction;
        Prt             0.85;
        value           nonuniform List<scalar> 6(0.000131187 0.000136624 0.000153216 0.000186786 0.000189793 0.000161702);
    }
    sideWalls
    {
        type            empty;
    }
    glass1
    {
        type            compressible::alphatWallFunction;
        Prt             0.85;
        value           nonuniform List<scalar> 9(0.000161254 0.000221505 0.000271068 0.000318432 0.000366107 0.000415747 0.000461701 0.000471262 0.0004602);
    }
    glass2
    {
        type            compressible::alphatWallFunction;
        Prt             0.85;
        value           nonuniform List<scalar> 2(0.00023701 0.00022319);
    }
    sun
    {
        type            compressible::alphatWallFunction;
        Prt             0.85;
        value           nonuniform List<scalar> 
14
(
0.000165363
0.000178962
0.000181067
0.000188945
0.000196106
0.000202645
0.000208849
0.000215068
0.000220311
0.000223446
0.000223678
0.000220352
0.000213326
0.000203535
)
;
    }
    heatsource1
    {
        type            compressible::alphatWallFunction;
        Prt             0.85;
        value           nonuniform List<scalar> 3(9.693e-05 0.000117454 0.000131502);
    }
    heatsource2
    {
        type            compressible::alphatWallFunction;
        Prt             0.85;
        value           nonuniform List<scalar> 4(0.000195005 0.000131032 0.00013103 0.000189213);
    }
    Table_master
    {
        type            compressible::alphatWallFunction;
        Prt             0.85;
        value           nonuniform List<scalar> 9(0.000112518 0.000100421 9.05024e-05 8.23319e-05 7.55434e-05 6.98509e-05 6.50442e-05 6.09865e-05 5.76199e-05);
    }
    Table_slave
    {
        type            compressible::alphatWallFunction;
        Prt             0.85;
        value           nonuniform List<scalar> 9(0.00012575 0.000116279 0.00010979 0.000105015 0.000100894 9.66855e-05 9.25619e-05 8.80709e-05 8.26065e-05);
    }
    inlet
    {
        type            fixedValue;
        value           uniform 1.94e-05;
    }
    outlet
    {
        type            zeroGradient;
    }
}


// ************************************************************************* //
