/*--------------------------------*- C++ -*----------------------------------*\
  =========                 |
  \\      /  F ield         | OpenFOAM: The Open Source CFD Toolbox
   \\    /   O peration     | Website:  https://openfoam.org
    \\  /    A nd           | Version:  6
     \\/     M anipulation  |
\*---------------------------------------------------------------------------*/
FoamFile
{
    version     2.0;
    format      ascii;
    class       volScalarField;
    location    "290";
    object      epsilon;
}
// * * * * * * * * * * * * * * * * * * * * * * * * * * * * * * * * * * * * * //

dimensions      [0 2 -3 0 0 0 0];

internalField   nonuniform List<scalar> 
459
(
0.000498804
0.000938014
0.000970396
0.000856442
0.000738983
0.000640978
0.000559967
0.000493329
0.000436822
0.000386968
0.000341299
0.000297798
0.000254471
0.000208468
0.00016248
6.49836e-05
0.000146083
0.000177692
0.000181719
0.0001613
0.000139072
0.000114526
9.3567e-05
7.72034e-05
6.45558e-05
5.46833e-05
4.68576e-05
4.05178e-05
3.53314e-05
3.08793e-05
2.68071e-05
2.28884e-05
1.77141e-05
1.56962e-05
0.000790267
0.0019499
0.00108749
0.000742117
0.00055377
0.000443752
0.000376334
0.000331127
0.000297687
0.000269529
0.000242932
0.000216013
0.000188447
0.000160369
0.000134799
0.000151364
0.000106584
0.000229065
0.000591903
0.000274718
0.000191441
0.000151332
0.000124808
0.00011459
9.28077e-05
7.36271e-05
5.85773e-05
4.7042e-05
3.82084e-05
3.13436e-05
2.60467e-05
2.20649e-05
1.99608e-05
2.3515e-05
2.51281e-05
3.03759e-05
0.000871901
0.00212273
0.000867357
0.000543735
0.00038227
0.000304062
0.000268144
0.000249095
0.000234899
0.000219088
0.000199503
0.00017675
0.000153082
0.000130567
0.000112177
0.000106106
0.000111951
0.00025448
0.000667885
0.000316844
0.000205861
0.000156384
0.000133454
0.00025942
0.000179604
0.00012738
9.29156e-05
6.96955e-05
5.3684e-05
4.24253e-05
3.47108e-05
2.97725e-05
2.23223e-05
2.40404e-05
3.93781e-05
4.54859e-05
0.000856867
0.00166247
0.000563699
0.000392756
0.000254354
0.000196474
0.000180717
0.000180514
0.000179346
0.000171923
0.00015864
0.000141831
0.000124217
0.000108024
9.57571e-05
8.87358e-05
9.29269e-05
0.000119425
0.000209783
0.000178803
0.000157668
0.000144912
0.000133206
0.000129654
0.000333666
0.000258617
0.000207838
0.000169548
0.000138197
0.000111202
8.73203e-05
6.59238e-05
4.61409e-05
2.50385e-05
2.29079e-05
7.8732e-05
7.11154e-05
0.000871448
0.00117117
0.000470706
0.000405712
0.000207442
0.000131669
0.000120016
0.000126882
0.000130527
0.000128256
0.000121435
0.00011196
0.000101881
9.32339e-05
8.82629e-05
8.66813e-05
9.80348e-05
0.000107783
0.000120146
0.000141077
0.000156074
0.000159394
0.00015164
0.000139236
0.000139787
0.000134518
0.00012858
0.000119248
0.000106186
9.03605e-05
7.28507e-05
5.47919e-05
3.58807e-05
2.17585e-05
1.97794e-05
6.96363e-05
8.69902e-05
9.73673e-05
0.000127605
0.000406089
0.000845957
0.000946727
0.000530222
0.000513387
0.000229297
0.000114593
9.27744e-05
9.48308e-05
9.82709e-05
9.92493e-05
9.78912e-05
9.50055e-05
9.2094e-05
9.11585e-05
9.49319e-05
0.00010537
0.000129409
0.000157732
0.000188617
0.000212369
0.000220927
0.000211873
0.000190259
0.000164536
0.000143947
0.000129318
0.000117506
0.000104663
8.97891e-05
7.34438e-05
5.65283e-05
4.02517e-05
2.59483e-05
1.88823e-05
1.99021e-05
4.5764e-05
7.67575e-05
0.000152373
0.000629501
0.0009578
0.000801735
0.000849186
0.00064318
0.000720516
0.000337997
0.000149846
0.000103502
9.81875e-05
9.99481e-05
0.000102136
0.000103949
0.000105918
0.000109276
0.000116464
0.000130403
0.000154789
0.000193938
0.000241482
0.000280345
0.000297066
0.000287037
0.000255757
0.000214977
0.000174666
0.000142306
0.000121835
0.000106088
9.08751e-05
7.55921e-05
6.09393e-05
4.79512e-05
3.77181e-05
3.10786e-05
2.96174e-05
3.22496e-05
4.36079e-05
8.29948e-05
0.000335652
0.00202506
0.00242038
0.000736446
0.000763085
0.000791084
0.00103033
0.000532852
0.000247903
0.000177631
0.000168525
0.000171058
0.000175248
0.000179854
0.000185625
0.000194103
0.000207717
0.000229881
0.000266681
0.000316258
0.000365731
0.000390049
0.000381149
0.000338685
0.000283015
0.000230802
0.000188191
0.000157111
0.000135634
0.000119109
0.000105436
9.45631e-05
8.72575e-05
8.43756e-05
8.63813e-05
9.26987e-05
0.000100828
0.000106707
0.000118558
0.000179964
0.000880005
0.00804825
0.00641184
0.000795276
0.00051937
0.000984238
0.0013635
0.000793154
0.000460679
0.000409994
0.000413569
0.000425982
0.000436849
0.000445499
0.00045357
0.000463286
0.00047718
0.000497884
0.000526859
0.000558634
0.000578196
0.000568361
0.000530118
0.000475326
0.000417939
0.00036618
0.000325216
0.000294861
0.000273579
0.000259888
0.000253693
0.00025591
0.000267781
0.000290165
0.000322475
0.000360881
0.000396542
0.000419821
0.000425029
0.000521371
0.00174179
0.0121496
0.00921514
0.0012657
0.00155836
0.00116192
0.00106822
0.00111857
0.00118828
0.00124151
0.00127441
0.00129097
0.00129597
0.00129351
0.00128708
0.00127955
0.00127197
0.00126158
0.00124214
0.00120921
0.00116501
0.00111613
0.00106824
0.00102401
0.000985247
0.00095384
0.000932161
0.000923197
0.000930482
0.000957861
0.00100904
0.00108638
0.00118811
0.00130346
0.00140975
0.00149038
0.00148191
0.00159685
0.00281926
0.00933795
0.00567789
0.00406918
0.00403534
0.00316885
0.00294456
0.003098
0.00329298
0.00343413
0.00351222
0.00354076
0.00353385
0.00350282
0.00345808
0.00341108
0.00337356
0.00335242
0.00334301
0.00332855
0.00329642
0.00324736
0.0031881
0.00312361
0.00305855
0.00299964
0.00295545
0.00293528
0.00294904
0.00300741
0.00312185
0.00330282
0.00355293
0.00384889
0.00410835
0.00416405
0.00393813
0.00361105
0.0038178
0.00499778
0.00333972
0.000803611
0.000961197
0.0015741
0.00203373
0.00212899
0.00218811
0.0022228
0.00224728
0.00226161
0.00226791
0.00226924
0.00226839
0.00226764
0.00226873
0.00227214
0.0022761
0.0022763
0.0022678
0.0022488
0.00222167
0.00219065
0.00215967
0.00213177
0.00210929
0.00209417
0.00208826
0.00209341
0.00211132
0.00214315
0.00218863
0.00224447
0.00230179
0.00234238
0.00233909
0.00228364
0.00221986
0.00226946
0.00250756
0.00268819
0.00195102
)
;

boundaryField
{
    floor
    {
        Cmu             0.09;
        kappa           0.41;
        E               9.8;
        type            epsilonWallFunction;
        value           nonuniform List<scalar> 
29
(
0.00016248
6.49836e-05
0.000146083
0.000177692
0.000181719
0.0001613
0.000139072
0.000114526
9.3567e-05
7.72034e-05
6.45558e-05
5.46833e-05
4.68576e-05
4.05178e-05
3.53314e-05
3.08793e-05
2.68071e-05
2.28884e-05
1.77141e-05
1.56962e-05
1.56962e-05
3.03759e-05
4.54859e-05
7.11154e-05
0.00016248
6.49836e-05
0.000229065
0.00025448
0.000119425
)
;
    }
    ceiling
    {
        Cmu             0.09;
        kappa           0.41;
        E               9.8;
        type            epsilonWallFunction;
        value           nonuniform List<scalar> 
43
(
0.000803611
0.000961197
0.0015741
0.00203373
0.00212899
0.00218811
0.0022228
0.00224728
0.00226161
0.00226791
0.00226924
0.00226839
0.00226764
0.00226873
0.00227214
0.0022761
0.0022763
0.0022678
0.0022488
0.00222167
0.00219065
0.00215967
0.00213177
0.00210929
0.00209417
0.00208826
0.00209341
0.00211132
0.00214315
0.00218863
0.00224447
0.00230179
0.00234238
0.00233909
0.00228364
0.00221986
0.00226946
0.00250756
0.00268819
0.00195102
0.000795276
0.00051937
0.00406918
)
;
    }
    sWall
    {
        Cmu             0.09;
        kappa           0.41;
        E               9.8;
        type            epsilonWallFunction;
        value           uniform 0.000803611;
    }
    nWall
    {
        Cmu             0.09;
        kappa           0.41;
        E               9.8;
        type            epsilonWallFunction;
        value           nonuniform List<scalar> 6(0.000406089 0.0009578 0.00242038 0.00567789 0.00333972 0.00195102);
    }
    sideWalls
    {
        type            empty;
    }
    glass1
    {
        Cmu             0.09;
        kappa           0.41;
        E               9.8;
        type            epsilonWallFunction;
        value           nonuniform List<scalar> 9(0.000498804 0.000790267 0.000871901 0.000856867 0.000871448 0.000845957 0.000801735 0.000736446 0.000795276);
    }
    glass2
    {
        Cmu             0.09;
        kappa           0.41;
        E               9.8;
        type            epsilonWallFunction;
        value           nonuniform List<scalar> 2(0.00641184 0.00921514);
    }
    sun
    {
        Cmu             0.09;
        kappa           0.41;
        E               9.8;
        type            epsilonWallFunction;
        value           nonuniform List<scalar> 
14
(
0.000498804
0.000938014
0.000970396
0.000856442
0.000738983
0.000640978
0.000559967
0.000493329
0.000436822
0.000386968
0.000341299
0.000297798
0.000254471
0.000208468
)
;
    }
    heatsource1
    {
        Cmu             0.09;
        kappa           0.41;
        E               9.8;
        type            epsilonWallFunction;
        value           nonuniform List<scalar> 3(9.73673e-05 0.000127605 0.000406089);
    }
    heatsource2
    {
        Cmu             0.09;
        kappa           0.41;
        E               9.8;
        type            epsilonWallFunction;
        value           nonuniform List<scalar> 4(0.000151364 0.000106584 0.000106584 0.000111951);
    }
    Table_master
    {
        Cmu             0.09;
        kappa           0.41;
        E               9.8;
        type            epsilonWallFunction;
        value           nonuniform List<scalar> 9(0.00025942 0.000179604 0.00012738 9.29156e-05 6.96955e-05 5.3684e-05 4.24253e-05 3.47108e-05 2.97725e-05);
    }
    Table_slave
    {
        Cmu             0.09;
        kappa           0.41;
        E               9.8;
        type            epsilonWallFunction;
        value           nonuniform List<scalar> 9(0.000333666 0.000258617 0.000207838 0.000169548 0.000138197 0.000111202 8.73203e-05 6.59238e-05 4.61409e-05);
    }
    inlet
    {
        type            turbulentMixingLengthDissipationRateInlet;
        mixingLength    0.01;
        phi             phi;
        k               k;
        value           uniform 0.000101881;
    }
    outlet
    {
        type            zeroGradient;
    }
}


// ************************************************************************* //
