/*--------------------------------*- C++ -*----------------------------------*\
  =========                 |
  \\      /  F ield         | OpenFOAM: The Open Source CFD Toolbox
   \\    /   O peration     | Website:  https://openfoam.org
    \\  /    A nd           | Version:  6
     \\/     M anipulation  |
\*---------------------------------------------------------------------------*/
FoamFile
{
    version     2.0;
    format      ascii;
    class       surfaceScalarField;
    location    "150";
    object      phi;
}
// * * * * * * * * * * * * * * * * * * * * * * * * * * * * * * * * * * * * * //

dimensions      [1 0 -1 0 0 0 0];

internalField   nonuniform List<scalar> 
852
(
-0.00263811
0.00267102
-0.003833
0.00119479
-0.00448767
0.000654567
-0.00466068
0.000172915
-0.0042897
-0.000371077
-0.00332741
-0.000962378
-0.00186174
-0.00146577
-0.000135775
-0.00172606
0.00129766
-0.00143356
0.00232819
-0.00103066
0.00295035
-0.000622285
0.00316477
-0.000214551
0.00293361
0.000231022
0.0020884
0.000845064
0.00208389
-0.000272873
0.000265434
-0.000762448
0.000489396
-0.000450866
-0.000311768
0.000237736
-0.000688795
0.000897276
-0.000659738
0.00141536
-0.000518287
0.00172328
-0.000308111
0.00187232
-0.000149236
0.00195798
-8.58518e-05
0.00201421
-5.6424e-05
0.00204794
-3.39074e-05
0.00206104
-1.32819e-05
0.00204944
1.14223e-05
0.00199742
5.18398e-05
0.00186799
0.00012926
0.0015965
0.000271326
0.00112095
0.00047539
0.000254912
0.000865876
0.00024457
-0.00192506
0.0046874
-0.00295739
0.00222703
-0.00359406
0.00129114
-0.00378068
0.000359442
-0.00344409
-0.000707747
-0.00257687
-0.00182967
-0.00135881
-0.00268391
-8.62818e-05
-0.0029987
0.0010586
-0.00257858
0.00192817
-0.00190037
0.00249786
-0.00119213
0.00277883
-0.00049566
0.00280982
0.000199873
0.00274679
0.000907942
0.0032062
0.00162432
0.00160949
0.00159651
0.00160927
-0.00022201
0.000470696
3.91676e-05
0.000228043
0.000566352
-0.00083914
0.00100812
-0.00113076
0.0014019
-0.00105372
0.00171055
-0.000827138
0.00178954
-0.000387312
0.00180881
-0.000168708
0.00182672
-0.000103962
0.00184103
-7.09406e-05
0.00185039
-4.34582e-05
0.00185531
-1.83905e-05
0.0018537
1.28495e-05
0.00183892
6.64412e-05
0.00177329
0.000194713
0.00152908
0.000515372
0.00113482
0.000869481
0.000694804
0.00130573
0.000913067
-0.00137833
0.00620841
-0.00220721
0.00305581
-0.00276051
0.00184436
-0.00292351
0.000522363
-0.00258625
-0.00104508
-0.00176921
-0.00264679
-0.000736277
-0.00371692
0.000235708
-0.00397079
0.00110054
-0.00344354
0.0017861
-0.00258608
0.00225078
-0.00165697
0.00251229
-0.000757334
0.0026225
8.95023e-05
0.00264283
0.000887444
0.00259113
0.00167586
0.00189048
0.00229699
0.00349958
3.2629e-06
0.000442222
0.00118208
-0.000950947
0.00157022
-0.00122747
0.0017638
-0.00132454
0.00193884
-0.00122897
0.00218185
-0.00107035
0.00179448
0.00162571
0.00152169
0.0014507
0.00140719
0.00138876
0.00140158
0.001468
0.00166269
0.00140965
0.000768245
0.00116403
0.00111494
0.000887998
0.0015816
0.00176136
-0.000975922
0.00737241
-0.0015795
0.00365929
-0.00194842
0.0022132
-0.00199355
0.000567414
-0.00156333
-0.00147537
-0.000782781
-0.0034274
3.5846e-05
-0.00453562
0.000733585
-0.00466864
0.00133146
-0.00404156
0.00179564
-0.00305043
0.00210246
-0.00196396
0.00227599
-0.000931051
0.00236666
-1.33853e-06
0.00242583
0.000828098
0.00252892
0.0015726
0.00272503
0.00210071
0.00382281
0.00240162
0.0025465
0.00125049
0.0028412
0.000147349
0.00255931
-0.000669244
0.00247277
-0.00114113
0.00238136
-0.00123334
0.00227056
-0.00111838
0.00204624
-0.000846252
0.00239715
-0.000351276
0.00251443
-0.000117655
0.00252259
-8.52908e-06
0.00245524
6.69705e-05
0.00232474
0.000130122
0.00213804
0.00018632
0.00189288
0.000244785
0.00157087
0.000321624
0.00111841
0.000452082
0.00109379
0.000792668
0.00106591
0.00114265
0.00112792
0.00151943
0.00283907
-0.000687149
0.00828755
-0.0010895
0.00406155
-0.00116581
0.00228942
-0.000898742
0.000300262
-0.000254881
-0.0021193
0.000414511
-0.00409684
0.000949903
-0.00507108
0.00134969
-0.00506855
0.00165197
-0.00434401
0.00184417
-0.00324282
0.001936
-0.00205599
0.00196774
-0.000962994
0.00199569
-2.9473e-05
0.0020835
0.000740099
0.00230959
0.00134633
0.00268603
0.00172409
0.00324915
0.00183833
0.00345545
0.00104401
0.00340853
0.00019409
0.00316856
-0.000429469
0.00284262
-0.000815385
0.00253469
-0.000925611
0.00225515
-0.000839054
0.00202557
-0.000616897
0.0019745
-0.000300426
0.00190466
-4.80408e-05
0.00178484
0.000111056
0.00163869
0.000212898
0.00147839
0.000290187
0.00130562
0.000358866
0.00111951
0.000430666
0.00092342
0.000517488
0.000752043
0.000623238
0.000751932
0.000792576
0.00097043
0.000923964
0.00170038
0.000789307
0.0029497
0.00158958
0.00139549
0.00155384
-0.000194256
0.00158936
-0.000255427
-0.000541761
0.00909226
-0.000693094
0.00421278
-0.000209682
0.00180591
0.000554469
-0.000463987
0.00129258
-0.00285747
0.00174778
-0.00455208
0.00197768
-0.00530104
0.0020336
-0.00512459
0.0019673
-0.00427788
0.00182017
-0.00309591
0.00163941
-0.00187544
0.00148094
-0.000804742
0.00140577
4.54846e-05
0.00147065
0.000675032
0.0016982
0.0011186
0.00206003
0.00136208
0.00255628
0.00134191
0.00280696
0.000793146
0.00280185
0.000199011
0.00263128
-0.0002591
0.0023443
-0.000528616
0.00202301
-0.000604539
0.0017095
-0.000525762
0.00143621
-0.000343834
0.00123736
-0.00010181
0.00107752
0.000111574
0.000934159
0.000254186
0.000799284
0.000347545
0.000669319
0.000419926
0.000543973
0.000483987
0.000426727
0.00054769
0.000330595
0.0006134
0.000282821
0.000670797
0.000358545
0.000716648
0.000568058
0.000714259
0.000797032
0.000560144
0.00101407
0.00137237
0.00051179
0.00205594
-0.000401721
0.00250267
-0.000716573
-0.000331245
0.00972035
4.59474e-05
0.00383549
0.00137363
0.000478128
0.00244216
-0.0015326
0.00304016
-0.00345551
0.0032229
-0.00473485
0.00305676
-0.00513498
0.00265278
-0.00472076
0.00212756
-0.00375286
0.00157918
-0.00254778
0.00109432
-0.00139082
0.000737527
-0.000448184
0.000582845
0.000199959
0.00064566
0.000612026
0.000880023
0.000884057
0.00122979
0.00101213
0.00163727
0.000934253
0.00185382
0.000576408
0.00186455
0.000188079
0.00171248
-0.00010724
0.00145307
-0.000269426
0.00114785
-0.000299551
0.000838917
-0.000217057
0.000557061
-6.22082e-05
0.000339492
0.000115529
0.000190338
0.000260499
8.24454e-05
0.000361853
-6.67009e-06
0.000436437
-8.38827e-05
0.000496916
-0.000147663
0.000547547
-0.000190867
0.000590676
-0.000199849
0.000622168
-0.000158916
0.000629653
-4.78155e-05
0.00060534
9.44474e-05
0.000571791
0.000145647
0.000508742
0.000282141
0.00123569
5.91196e-05
0.00227878
-0.000166227
0.00272782
-0.000938234
0.00254651
0.00750829
0.00348962
0.00289228
0.00424266
-0.000275009
0.00501417
-0.00230417
0.00519696
-0.00363833
0.00479241
-0.00433033
0.00397714
-0.0043198
0.00294695
-0.00369074
0.00188012
-0.00268627
0.000924601
-0.00159253
0.000194147
-0.000660633
-0.000228978
-2.52938e-05
-0.000351758
0.000322537
-0.000258079
0.000518157
-2.29789e-05
0.000648769
0.000288514
0.000700449
0.000591188
0.000631385
0.000742179
0.000425213
0.000728244
0.000201798
0.000582167
3.86102e-05
0.000348009
-3.54993e-05
6.9982e-05
-2.1756e-05
-0.000202718
5.54088e-05
-0.000421024
0.000155868
-0.000560712
0.00025499
-0.000641887
0.00034145
-0.000691556
0.0004113
-0.000722645
0.000467305
-0.000737295
0.000511347
-0.000731844
0.00054188
-0.000697176
0.000555793
-0.000621836
0.000546613
-0.000498599
0.0005062
-0.000331181
0.000437707
-0.000137589
0.000377982
2.46134e-05
0.000346324
0.000429064
0.000831033
0.00086247
0.00184519
0.00187208
0.00171801
0.000583101
0.00783898
0.0106933
0.00976447
0.000653731
0.00877646
-0.00131616
0.00745326
-0.00231513
0.00581899
-0.00269612
0.00404957
-0.00255054
0.0023273
-0.00196872
0.000784779
-0.00114404
-0.000358494
-0.000449565
-0.0010282
8.81435e-06
-0.00128575
0.000232026
-0.00129906
0.000335645
-0.00118544
0.000404335
-0.000993762
0.000456885
-0.000770855
0.000477337
-0.000582404
0.000442722
-0.000506877
0.000349465
-0.000553026
0.000247718
-0.000688603
0.000173954
-0.000868953
0.000144615
-0.00104988
0.000158941
-0.0011953
0.000200599
-0.00129219
0.000252528
-0.00134311
0.000305687
-0.00135763
0.000355741
-0.00134643
0.000399884
-0.00131515
0.000435801
-0.00126421
0.000460191
-0.00119099
0.00046844
-0.00109046
0.000455047
-0.000957489
0.000413424
-0.000790025
0.000338516
-0.000587814
0.000235273
-0.000338703
0.000128644
-4.93756e-05
5.67706e-05
0.000473218
0.00030822
0.00124827
0.00106993
0.00203733
0.000928741
0.00224501
0.00678842
0.000280237
0.00568086
-0.000208634
0.00436219
-0.000996611
0.00278042
-0.00111458
0.00111527
-0.000885694
-0.00039019
-0.000463624
-0.00148408
-5.04431e-05
-0.00207104
0.000137126
-0.00229625
0.000233783
-0.00232211
0.000257662
-0.00226007
0.00027338
-0.00215043
0.000294481
-0.00201416
0.000320394
-0.00187624
0.000339194
-0.00177066
0.000336911
-0.00173008
0.000308652
-0.00175235
0.000269758
-0.00181465
0.000236015
-0.00188793
0.000217668
-0.00194673
0.000217508
-0.00197721
0.000230851
-0.00197662
0.000251706
-0.0019475
0.000276345
-0.00189403
0.000302044
-0.00182025
0.000325886
-0.00172914
0.000344469
-0.00162293
0.00035376
-0.00150387
0.000349155
-0.00137473
0.000325683
-0.00123994
0.000278413
-0.00110576
0.00020411
-0.000975302
0.00010459
-0.000842025
-4.86207e-06
-0.000721772
-6.3712e-05
-0.000596667
0.00018289
-0.000328809
0.000801854
-9.10438e-05
0.000690762
0.00208883
-8.36634e-05
0.000318961
-7.88863e-05
-0.000213916
-0.000711304
-0.000364567
-0.00157065
-0.000255571
-0.00237704
-7.96236e-05
-0.00293319
9.22331e-05
-0.00318315
0.00019924
-0.00327985
0.000233574
-0.00327688
0.00023057
-0.00322972
0.000210263
-0.003154
0.000197431
-0.00305687
0.000197113
-0.00294324
0.00020653
-0.00282307
0.000218796
-0.00271245
0.000226053
-0.0026276
0.00022357
-0.0025723
0.000214215
-0.00253958
0.000203058
-0.00251691
0.000194774
-0.00249142
0.000191782
-0.00245438
0.000193581
-0.00240164
0.000198736
-0.00233157
0.000206045
-0.00224388
0.000214128
-0.00213935
0.00022113
-0.00201993
0.000224829
-0.00188921
0.000222809
-0.00175299
0.000212713
-0.00162028
0.000192743
-0.00150461
0.000162514
-0.00142456
0.000123834
-0.00140003
7.98325e-05
-0.00144093
3.58152e-05
-0.00153217
2.72962e-05
-0.00147748
0.00012798
-0.0010758
0.000399953
-0.000954444
0.000569189
0.00105089
-0.00392466
-0.00377139
-0.00352261
-0.00380217
-0.00423175
-0.00455428
-0.00470405
-0.00468531
-0.00456271
-0.0044082
-0.00425819
-0.00412935
-0.00401377
-0.00389869
-0.0037742
-0.00363741
-0.00349338
-0.00335198
-0.00322023
-0.00310004
-0.0029886
-0.00288059
-0.00277116
-0.00265689
-0.0025355
-0.00240612
-0.0022697
-0.0021294
-0.00199077
-0.00186173
-0.001752
-0.00167175
-0.00162948
-0.00163084
-0.00167629
-0.00173022
-0.00168196
-0.00135839
-0.000863132
)
;

boundaryField
{
    floor
    {
        type            calculated;
        value           nonuniform List<scalar> 
29
(
0
0
0
0
0
0
0
0
0
0
0
0
0
0
0
0
0
0
0
0
1.01806e-05
2.61462e-05
3.95397e-05
5.00556e-05
4.36038e-06
7.27336e-06
1.65825e-05
2.50464e-05
2.56434e-05
)
;
    }
    ceiling
    {
        type            calculated;
        value           nonuniform List<scalar> 
43
(
8.59094e-05
7.79618e-05
6.97888e-05
6.53091e-05
6.47126e-05
6.66724e-05
6.9866e-05
7.32265e-05
7.63867e-05
7.88089e-05
8.03162e-05
8.11783e-05
8.16137e-05
8.17825e-05
8.17986e-05
8.17656e-05
8.17848e-05
8.19326e-05
8.22271e-05
8.26339e-05
8.30914e-05
8.3537e-05
8.39251e-05
8.42281e-05
8.44299e-05
8.45183e-05
8.44795e-05
8.42965e-05
8.39531e-05
8.34421e-05
8.27796e-05
8.20297e-05
8.13417e-05
8.09617e-05
8.10408e-05
8.10016e-05
7.94993e-05
7.61566e-05
7.37127e-05
7.98715e-05
4.41236e-05
3.78853e-05
4.3994e-05
)
;
    }
    sWall
    {
        type            calculated;
        value           uniform -0.000115461;
    }
    nWall
    {
        type            calculated;
        value           nonuniform List<scalar> 6(6.07531e-05 5.92174e-05 5.52277e-05 6.49211e-05 8.32788e-05 0.000107673);
    }
    sideWalls
    {
        type            empty;
        value           nonuniform 0();
    }
    glass1
    {
        type            calculated;
        value           nonuniform List<scalar> 9(-3.302e-05 -9.14173e-05 -0.000142773 -0.000188174 -0.000228076 -0.000263034 -0.000296935 -0.000334524 -0.000374901);
    }
    glass2
    {
        type            calculated;
        value           nonuniform List<scalar> 2(0.000350532 0.000375214);
    }
    sun
    {
        type            calculated;
        value           uniform 0;
    }
    heatsource1
    {
        type            calculated;
        value           nonuniform List<scalar> 3(2.00624e-07 2.00977e-07 2.00931e-07);
    }
    heatsource2
    {
        type            calculated;
        value           nonuniform List<scalar> 4(5.04427e-08 5.06375e-08 0 0);
    }
    Table_master
    {
        type            calculated;
        value           nonuniform List<scalar> 9(-1.51067e-07 -1.51224e-07 -1.51258e-07 -1.51265e-07 -1.51259e-07 -1.51242e-07 -1.51214e-07 -1.51166e-07 -1.5108e-07);
    }
    Table_slave
    {
        type            calculated;
        value           nonuniform List<scalar> 9(1.50806e-07 1.50792e-07 1.50756e-07 1.50725e-07 1.50716e-07 1.50729e-07 1.5076e-07 1.5081e-07 1.50886e-07);
    }
    inlet
    {
        type            calculated;
        value           uniform -0.00641484;
    }
    outlet
    {
        type            calculated;
        value           nonuniform List<scalar> 2(0.00395379 -0.000231646);
    }
}


// ************************************************************************* //
