/*--------------------------------*- C++ -*----------------------------------*\
  =========                 |
  \\      /  F ield         | OpenFOAM: The Open Source CFD Toolbox
   \\    /   O peration     | Website:  https://openfoam.org
    \\  /    A nd           | Version:  6
     \\/     M anipulation  |
\*---------------------------------------------------------------------------*/
FoamFile
{
    version     2.0;
    format      ascii;
    class       volScalarField;
    location    "30";
    object      alphat;
}
// * * * * * * * * * * * * * * * * * * * * * * * * * * * * * * * * * * * * * //

dimensions      [1 -1 -1 0 0 0 0];

internalField   nonuniform List<scalar> 
459
(
0.00130478
0.00143684
0.00142246
0.00147862
0.00154525
0.00162088
0.00168218
0.00172008
0.00172554
0.00169074
0.0016113
0.00147755
0.00132599
0.00117734
0.0010569
0.000820214
0.000935895
0.000950395
0.000958995
0.000943792
0.00087087
0.000729097
0.0006154
0.000544228
0.000510343
0.000497712
0.000494391
0.000496218
0.000506488
0.000540168
0.000624474
0.00071386
0.000782715
0.000774684
0.00180528
0.0056237
0.00574926
0.00653143
0.00720147
0.00770882
0.00822314
0.00874598
0.00924323
0.00964233
0.00982675
0.00968932
0.00908652
0.00785063
0.00537905
0.00124879
0.000853728
0.00113935
0.00479347
0.00558679
0.00597606
0.00564451
0.00456116
0.00269201
0.00192148
0.00152903
0.00134718
0.0012728
0.0012494
0.00125425
0.00129729
0.00147043
0.00216947
0.00280543
0.00318799
0.00101314
0.00218549
0.00764375
0.00733502
0.00868849
0.00912698
0.00927927
0.00953372
0.0100363
0.0108121
0.0117879
0.0127296
0.01332
0.0132405
0.0122624
0.00994881
0.0058249
0.00121862
0.00138213
0.00635129
0.00822678
0.00894038
0.00830068
0.00596227
0.00104491
0.000723262
0.00057617
0.000518804
0.000500554
0.00049694
0.000502543
0.000533241
0.000682148
0.00262463
0.00389122
0.00422782
0.00121818
0.00251328
0.00913877
0.00761664
0.00889836
0.00890274
0.0085482
0.00848138
0.00885633
0.00971855
0.0110658
0.0126489
0.0140503
0.0147689
0.0145693
0.0131126
0.0100914
0.00581168
0.00155224
0.00501985
0.00781033
0.0102196
0.0110626
0.0102777
0.00725105
0.00128574
0.00113363
0.00110264
0.00109823
0.0011075
0.00112707
0.00115425
0.0011863
0.00123517
0.00338106
0.00511549
0.00529772
0.00141014
0.00281076
0.0106423
0.0080894
0.00865275
0.00830078
0.0075878
0.00734359
0.00755679
0.00828652
0.00964377
0.0114573
0.0133228
0.0147833
0.0154547
0.0150191
0.0133483
0.0108503
0.00914071
0.00960294
0.0112591
0.0125819
0.0130173
0.0124358
0.010746
0.00809382
0.00755773
0.00736003
0.00728536
0.00727939
0.00731574
0.0073723
0.00742916
0.00750932
0.00810946
0.00824134
0.00735269
0.00386663
0.00148944
0.00132891
0.00113298
0.00309211
0.0121038
0.00946694
0.0088678
0.0082399
0.00727924
0.00688322
0.0069293
0.00742779
0.00846069
0.0100666
0.0120569
0.0139947
0.015385
0.0158396
0.0152757
0.0140921
0.0131554
0.0131604
0.0137705
0.0142689
0.0143442
0.0139137
0.0130115
0.0118869
0.0113049
0.0109938
0.0108187
0.0107175
0.0106545
0.0106005
0.0105196
0.0103671
0.0101219
0.00956586
0.00860606
0.00684765
0.0047131
0.00359914
0.00125997
0.00330484
0.0128955
0.0112485
0.00968158
0.00845297
0.0073663
0.00679087
0.00671721
0.00707058
0.00784692
0.0091348
0.0109531
0.0130343
0.0148453
0.015873
0.0159723
0.0154719
0.0149307
0.0147077
0.0147385
0.0147598
0.0146205
0.0142726
0.0137409
0.0131471
0.0126929
0.012362
0.0121082
0.0118963
0.0117057
0.011519
0.011294
0.0109228
0.0102462
0.00918013
0.00789174
0.00670054
0.00564022
0.00450526
0.00133768
0.00331772
0.0109444
0.00991987
0.00885934
0.00764519
0.00674571
0.00639397
0.00652962
0.00700438
0.00774776
0.00884259
0.0104301
0.0124065
0.0142383
0.015331
0.0155404
0.0152095
0.0147475
0.0143795
0.0141243
0.013905
0.0136604
0.0133626
0.0130174
0.0126588
0.0123279
0.0120312
0.0117562
0.0114933
0.0112453
0.0110155
0.0107608
0.0103014
0.0093345
0.00775923
0.00589194
0.00422637
0.00327901
0.00282466
0.00134062
0.00319486
0.00369158
0.00424313
0.00434706
0.0045042
0.00493708
0.0056701
0.00656762
0.00746025
0.00832682
0.009323
0.0107062
0.0123077
0.0135518
0.014038
0.0139071
0.0134851
0.0130097
0.0125961
0.0122663
0.0119987
0.0117648
0.0115429
0.0113238
0.0111111
0.0109123
0.010707
0.0104939
0.0102773
0.0100695
0.00988149
0.0096813
0.00926331
0.00818195
0.00626946
0.00419793
0.00288569
0.00229084
0.00198181
0.00166265
0.00205619
0.00390671
0.00565098
0.0071783
0.0084675
0.00936783
0.00989018
0.0102884
0.0107627
0.0113164
0.011782
0.0119659
0.0118506
0.0115609
0.0112165
0.0108931
0.0106313
0.0104358
0.0102921
0.0101801
0.0100829
0.0099915
0.00990333
0.0098187
0.00973682
0.00963568
0.00951974
0.00938516
0.0092237
0.00902306
0.00871209
0.00817726
0.00733643
0.00620926
0.00509433
0.00424593
0.00353092
0.00189781
0.00208274
0.00470298
0.00709035
0.00884235
0.0102289
0.0107421
0.010566
0.0102629
0.0100767
0.0100109
0.00998353
0.00993911
0.00987987
0.00983165
0.00981388
0.00983211
0.00987905
0.00993983
0.00999799
0.0100415
0.0100659
0.010074
0.010073
0.0100696
0.010068
0.0100672
0.0100588
0.0100206
0.00991801
0.00971074
0.00936397
0.00886759
0.00823814
0.00747145
0.00669404
0.00618753
0.00556463
0.0022287
0.00162013
0.00173169
0.00187253
0.00201629
0.00214989
0.00226652
0.00231018
0.00229431
0.00226187
0.00222202
0.00219127
0.0021716
0.00216154
0.00215799
0.00215941
0.0021649
0.00217332
0.00218321
0.00219301
0.00220141
0.00220761
0.00221163
0.0022139
0.00221481
0.00221474
0.0022142
0.00221347
0.0022127
0.00221129
0.00220856
0.00220289
0.00219166
0.00217176
0.00213939
0.00208765
0.00200546
0.00191115
0.00181005
0.00175369
0.00173355
)
;

boundaryField
{
    floor
    {
        type            compressible::alphatWallFunction;
        Prt             0.85;
        value           nonuniform List<scalar> 
29
(
0.000150763
0.000117114
0.000133686
0.000135775
0.000137003
0.000134847
0.000124444
0.00010391
8.71003e-05
7.63932e-05
7.12403e-05
6.93107e-05
6.88032e-05
6.90853e-05
7.06622e-05
7.58034e-05
8.84964e-05
0.000101694
0.000111709
0.000110527
0.000110526
0.000144596
0.000173143
0.000199375
0.000150761
0.000117113
0.000162228
0.00019557
0.000218551
)
;
    }
    ceiling
    {
        type            compressible::alphatWallFunction;
        Prt             0.85;
        value           nonuniform List<scalar> 
43
(
0.000227325
0.000242132
0.000260689
0.000279574
0.00029695
0.000311995
0.000317601
0.000315575
0.000311416
0.000306312
0.000302373
0.000299853
0.000298563
0.000298108
0.000298291
0.000298997
0.000300081
0.000301352
0.000302612
0.000303689
0.000304483
0.000304997
0.000305288
0.000305403
0.000305393
0.000305323
0.000305228
0.000305128
0.000304947
0.000304595
0.000303867
0.000302421
0.000299859
0.000295682
0.000288986
0.000278307
0.000265987
0.000252698
0.000245256
0.000242592
0.000429245
0.000490335
0.000287998
)
;
    }
    sWall
    {
        type            compressible::alphatWallFunction;
        Prt             0.85;
        value           uniform 0.000226244;
    }
    nWall
    {
        type            compressible::alphatWallFunction;
        Prt             0.85;
        value           nonuniform List<scalar> 6(0.000160906 0.000178434 0.000189049 0.00026376 0.000306729 0.00024212);
    }
    sideWalls
    {
        type            empty;
    }
    glass1
    {
        type            compressible::alphatWallFunction;
        Prt             0.85;
        value           nonuniform List<scalar> 9(0.00018173 0.000248246 0.000297478 0.000339224 0.000376638 0.000411659 0.000437937 0.000439595 0.000424579);
    }
    glass2
    {
        type            compressible::alphatWallFunction;
        Prt             0.85;
        value           nonuniform List<scalar> 2(0.000188897 0.000232113);
    }
    sun
    {
        type            compressible::alphatWallFunction;
        Prt             0.85;
        value           nonuniform List<scalar> 
14
(
0.000185053
0.000203001
0.000201044
0.000208618
0.000217569
0.000227682
0.000235832
0.000240849
0.000241557
0.000236926
0.000226341
0.00020841
0.00018789
0.000167504
)
;
    }
    heatsource1
    {
        type            compressible::alphatWallFunction;
        Prt             0.85;
        value           nonuniform List<scalar> 3(0.000209789 0.000188026 0.000161061);
    }
    heatsource2
    {
        type            compressible::alphatWallFunction;
        Prt             0.85;
        value           nonuniform List<scalar> 4(0.000177065 0.000121655 0.000121654 0.000172949);
    }
    Table_master
    {
        type            compressible::alphatWallFunction;
        Prt             0.85;
        value           nonuniform List<scalar> 9(0.000148806 0.00010277 8.09531e-05 7.22755e-05 6.94936e-05 6.8943e-05 6.98035e-05 7.44925e-05 9.67951e-05);
    }
    Table_slave
    {
        type            compressible::alphatWallFunction;
        Prt             0.85;
        value           nonuniform List<scalar> 9(0.000182192 0.000161218 0.000156904 0.000156285 0.00015757 0.000160286 0.000164052 0.000168485 0.000175228);
    }
    inlet
    {
        type            fixedValue;
        value           uniform 1.94e-05;
    }
    outlet
    {
        type            zeroGradient;
    }
}


// ************************************************************************* //
