/*--------------------------------*- C++ -*----------------------------------*\
  =========                 |
  \\      /  F ield         | OpenFOAM: The Open Source CFD Toolbox
   \\    /   O peration     | Website:  https://openfoam.org
    \\  /    A nd           | Version:  6
     \\/     M anipulation  |
\*---------------------------------------------------------------------------*/
FoamFile
{
    version     2.0;
    format      ascii;
    class       volVectorField;
    location    "30";
    object      U;
}
// * * * * * * * * * * * * * * * * * * * * * * * * * * * * * * * * * * * * * //

dimensions      [0 1 -1 0 0 0 0];

internalField   nonuniform List<vector> 
459
(
(0.0323035 0.0661897 0)
(-0.130617 0.0172827 0)
(-0.141813 0.00808255 0)
(-0.156658 0.00298514 0)
(-0.162327 -0.00351983 0)
(-0.157082 -0.0106709 0)
(-0.140898 -0.0180301 0)
(-0.115097 -0.024103 0)
(-0.083229 -0.0272368 0)
(-0.0501301 -0.026434 0)
(-0.0206189 -0.0217674 0)
(0.00324017 -0.0132301 0)
(0.0140387 -0.00483388 0)
(0.0138204 0.00257114 0)
(0.0562255 0.0115688 0)
(-0.0872954 -0.00744701 0)
(0.0267961 -0.00310625 0)
(0.0159056 0.0015464 0)
(0.00773306 -1.82019e-05 0)
(0.00901033 -0.00133757 0)
(0.0115176 -0.00130792 0)
(0.0125289 -8.47589e-05 0)
(0.0121094 0.000405629 0)
(0.0115018 0.000380642 0)
(0.01115 0.000293252 0)
(0.0109508 0.00026041 0)
(0.0107604 0.000296548 0)
(0.0104275 0.000489984 0)
(0.00957935 0.00112591 0)
(0.00758486 0.00265287 0)
(0.00365332 0.00436836 0)
(-0.0161698 0.00520924 0)
(-0.0318322 -0.00125329 0)
(0.0957634 -0.0127537 0)
(0.160355 0.136828 0)
(-0.123617 0.050318 0)
(-0.121115 0.030163 0)
(-0.139135 0.0176317 0)
(-0.147131 0.00295931 0)
(-0.144255 -0.0134827 0)
(-0.130559 -0.0299675 0)
(-0.107875 -0.0430729 0)
(-0.0799291 -0.049553 0)
(-0.0512869 -0.0480788 0)
(-0.0259688 -0.039714 0)
(-0.00624735 -0.0267675 0)
(0.0069133 -0.0125492 0)
(0.0132777 -0.00170237 0)
(0.0243568 0.0103511 0)
(0.0188574 0.0142736 0)
(0.00585042 0.00911054 0)
(-0.115833 -0.00619761 0)
(0.0118652 -0.005612 0)
(0.00330328 -0.00157665 0)
(0.00388708 -0.00235637 0)
(0.0067701 -0.00339646 0)
(0.00956184 -0.00308822 0)
(0.0113701 -0.000278039 0)
(0.0115455 0.000732581 0)
(0.0112789 0.000774389 0)
(0.0111929 0.000673677 0)
(0.0111816 0.000640204 0)
(0.0111629 0.000737395 0)
(0.0111134 0.00112442 0)
(0.0108978 0.00221827 0)
(0.0106155 0.00451035 0)
(0.0118201 0.00634914 0)
(0.00701148 0.00871195 0)
(-0.0175741 0.00436636 0)
(0.140524 -0.00858367 0)
(0.273326 0.205841 0)
(-0.132636 0.0829156 0)
(-0.100551 0.0525716 0)
(-0.120134 0.0300741 0)
(-0.129734 0.00575122 0)
(-0.128058 -0.0209078 0)
(-0.115047 -0.0471567 0)
(-0.0936983 -0.0670454 0)
(-0.0682847 -0.0758294 0)
(-0.0430637 -0.0723973 0)
(-0.021345 -0.0592814 0)
(-0.00478127 -0.0408778 0)
(0.00640879 -0.0218645 0)
(0.0120798 -0.00614642 0)
(0.0152942 0.00766401 0)
(0.0136057 0.0164769 0)
(0.000478955 0.0207237 0)
(-0.112454 0.00742352 0)
(0.00765396 -0.00497288 0)
(0.00231876 -0.00574271 0)
(0.00337397 -0.00556142 0)
(0.00529362 -0.00592991 0)
(0.00733174 -0.00630303 0)
(0.0105493 -0.00341873 0)
(0.0104396 -0.00269942 0)
(0.0101912 -0.00324441 0)
(0.0104942 -0.00371464 0)
(0.0107876 -0.00390988 0)
(0.0110424 -0.00389745 0)
(0.0113914 -0.00360876 0)
(0.0117736 -0.00259686 0)
(0.0146978 0.00222405 0)
(0.0239918 0.0029023 0)
(0.0260724 0.00769976 0)
(0.00915521 0.0102082 0)
(0.149725 0.0133229 0)
(0.373296 0.263115 0)
(-0.150544 0.114976 0)
(-0.0778304 0.0754613 0)
(-0.0970972 0.0433634 0)
(-0.106553 0.00947964 0)
(-0.10322 -0.028446 0)
(-0.0885074 -0.0651486 0)
(-0.0680461 -0.0911238 0)
(-0.0461181 -0.101203 0)
(-0.0256544 -0.0952214 0)
(-0.00867515 -0.0772108 0)
(0.00405065 -0.0530503 0)
(0.0120973 -0.029526 0)
(0.0161936 -0.0095678 0)
(0.0178983 0.00673377 0)
(0.018367 0.0176011 0)
(0.0175493 0.0160675 0)
(0.0230217 -0.0774609 0)
(0.00980121 -0.00780675 0)
(0.0146956 -0.00710904 0)
(0.007721 -0.00627285 0)
(0.00502092 -0.00581017 0)
(0.0036837 -0.0058948 0)
(0.00198317 -0.00583649 0)
(-0.000769328 -0.00248026 0)
(0.000636642 -0.00182389 0)
(0.00187701 -0.0019481 0)
(0.00301593 -0.00245311 0)
(0.00503089 -0.0033193 0)
(0.00845061 -0.00456609 0)
(0.0136469 -0.0061518 0)
(0.0207532 -0.00788524 0)
(0.0310832 -0.0097006 0)
(0.038521 -0.00679557 0)
(0.0425489 0.0020025 0)
(0.0328715 0.0149367 0)
(0.152624 0.0498354 0)
(0.461137 0.309085 0)
(-0.172676 0.142715 0)
(-0.0522014 0.0929347 0)
(-0.0661435 0.0534359 0)
(-0.0714046 0.0109324 0)
(-0.0603671 -0.0384135 0)
(-0.0423481 -0.083574 0)
(-0.0247778 -0.111942 0)
(-0.00974837 -0.120853 0)
(0.00244232 -0.111552 0)
(0.0116784 -0.0892282 0)
(0.0181507 -0.0613161 0)
(0.021737 -0.0341237 0)
(0.0228338 -0.0113373 0)
(0.0228531 0.00613232 0)
(0.0234631 0.0172427 0)
(0.0245678 0.0193632 0)
(0.0225661 0.00917183 0)
(0.0157541 0.00754325 0)
(0.012283 0.000677779 0)
(0.00820478 -0.00221369 0)
(0.00542188 -0.00338368 0)
(0.00336018 -0.00381131 0)
(0.00157262 -0.00331442 0)
(0.00064819 -0.00149985 0)
(0.00100977 -0.00105306 0)
(0.00183597 -0.00139973 0)
(0.00306362 -0.00242839 0)
(0.00504159 -0.00413749 0)
(0.0080714 -0.00649425 0)
(0.0123881 -0.00936982 0)
(0.0180696 -0.0124105 0)
(0.025305 -0.0145321 0)
(0.0337491 -0.0136587 0)
(0.0436211 -0.00759233 0)
(0.0506364 0.00581408 0)
(0.0992786 0.0413441 0)
(0.103533 0.0358886 0)
(0.09162 0.032946 0)
(-0.0385786 0.04849 0)
(0.530768 0.347298 0)
(-0.197089 0.161214 0)
(-0.0265406 0.0967588 0)
(-0.0249038 0.0561912 0)
(-0.0170136 0.00800259 0)
(0.00786125 -0.0549584 0)
(0.0260321 -0.101321 0)
(0.036663 -0.125142 0)
(0.0410939 -0.129428 0)
(0.0410716 -0.117335 0)
(0.0389333 -0.0930592 0)
(0.0360822 -0.0628831 0)
(0.0326056 -0.033687 0)
(0.0286789 -0.00984796 0)
(0.0252487 0.00727314 0)
(0.023425 0.0170068 0)
(0.0226475 0.0184172 0)
(0.0193892 0.012087 0)
(0.0143276 0.00852341 0)
(0.0109376 0.00396682 0)
(0.00779164 0.000857208 0)
(0.0052122 -0.000993678 0)
(0.00314909 -0.00187875 0)
(0.00156423 -0.0018933 0)
(0.00078679 -0.00133376 0)
(0.000812203 -0.00141998 0)
(0.00129209 -0.00224452 0)
(0.00218282 -0.00383003 0)
(0.00360767 -0.00623103 0)
(0.00569712 -0.00944213 0)
(0.00854522 -0.0133153 0)
(0.0121603 -0.017439 0)
(0.016645 -0.020894 0)
(0.022515 -0.0221062 0)
(0.0304086 -0.0197243 0)
(0.0389326 -0.0125447 0)
(0.0593052 0.00773652 0)
(0.0707261 0.0159956 0)
(0.0781288 0.0388381 0)
(-0.0486725 0.0851982 0)
(0.591535 0.380951 0)
(-0.209262 0.152238 0)
(0.00767891 0.0630245 0)
(0.0376307 0.0303425 0)
(0.0715813 -0.0227683 0)
(0.0963783 -0.0770758 0)
(0.108879 -0.113216 0)
(0.109699 -0.128198 0)
(0.101259 -0.125626 0)
(0.0867594 -0.109775 0)
(0.0700202 -0.0844959 0)
(0.0543121 -0.054508 0)
(0.0411896 -0.0259531 0)
(0.0308114 -0.00336447 0)
(0.0234249 0.0117116 0)
(0.019317 0.0192772 0)
(0.0171917 0.0199297 0)
(0.0145356 0.0154579 0)
(0.011376 0.0111954 0)
(0.00886122 0.00685235 0)
(0.00647893 0.00344495 0)
(0.00437519 0.00114157 0)
(0.00262083 -0.000198486 0)
(0.00127134 -0.000773763 0)
(0.000487831 -0.000979926 0)
(0.000226969 -0.0015436 0)
(0.000280821 -0.0027342 0)
(0.000573806 -0.00469813 0)
(0.00109724 -0.00752823 0)
(0.00182933 -0.0112158 0)
(0.00269189 -0.0155883 0)
(0.0035341 -0.0202421 0)
(0.00431009 -0.024474 0)
(0.00537433 -0.0272816 0)
(0.00717707 -0.0277715 0)
(0.00978716 -0.0253488 0)
(0.0188179 -0.0174604 0)
(0.039458 -0.00735794 0)
(0.0613513 0.0374751 0)
(-0.0638546 0.126276 0)
(0.69432 0.377903 0)
(-0.0384685 0.120611 0)
(0.0924552 -0.0170357 0)
(0.16497 -0.0587299 0)
(0.197092 -0.082059 0)
(0.206317 -0.104864 0)
(0.201416 -0.118606 0)
(0.184401 -0.118831 0)
(0.158021 -0.107068 0)
(0.126207 -0.0867374 0)
(0.0934235 -0.0611724 0)
(0.0637934 -0.0338784 0)
(0.0408046 -0.00933032 0)
(0.0248689 0.00877085 0)
(0.0158045 0.0190053 0)
(0.0114604 0.0231382 0)
(0.00970999 0.0223349 0)
(0.00845605 0.0181987 0)
(0.00710575 0.013678 0)
(0.00582295 0.0093189 0)
(0.00441564 0.00579668 0)
(0.00300907 0.0032933 0)
(0.00171709 0.00169672 0)
(0.000634506 0.00076629 0)
(-0.000145142 0.000131871 0)
(-0.00066632 -0.000705483 0)
(-0.00108332 -0.00205022 0)
(-0.00151384 -0.00409599 0)
(-0.00207292 -0.00692672 0)
(-0.00295062 -0.0104816 0)
(-0.00448825 -0.0144982 0)
(-0.00723077 -0.0184964 0)
(-0.0117877 -0.0218631 0)
(-0.0188674 -0.0238076 0)
(-0.0300893 -0.0228457 0)
(-0.0467876 -0.0148719 0)
(-0.0667124 0.00921221 0)
(-0.0830187 0.0502083 0)
(-0.119163 0.101095 0)
(-0.331764 0.154149 0)
(0.839845 0.375379 0)
(0.390187 0.260394 0)
(0.39349 0.150154 0)
(0.413793 0.0716166 0)
(0.383284 0.0118488 0)
(0.331049 -0.0355672 0)
(0.279417 -0.0630373 0)
(0.228993 -0.0702947 0)
(0.178919 -0.0622275 0)
(0.13012 -0.0447852 0)
(0.085209 -0.0227866 0)
(0.0460331 -0.000621507 0)
(0.0205614 0.0146168 0)
(0.00757608 0.0225274 0)
(0.00180345 0.0260504 0)
(0.000177601 0.0263184 0)
(0.000626509 0.0238729 0)
(0.00147605 0.019645 0)
(0.00203069 0.015199 0)
(0.00218269 0.0111109 0)
(0.00188179 0.00781917 0)
(0.00127335 0.00543208 0)
(0.000511122 0.00383917 0)
(-0.000280222 0.00281754 0)
(-0.00101761 0.00206204 0)
(-0.00173429 0.00120942 0)
(-0.00257534 -5.58333e-06 0)
(-0.00369447 -0.00174734 0)
(-0.00528684 -0.00403306 0)
(-0.00768132 -0.00665656 0)
(-0.0114592 -0.00907194 0)
(-0.0176398 -0.0103224 0)
(-0.0277436 -0.00915839 0)
(-0.0441941 -0.00400733 0)
(-0.0707521 0.00645247 0)
(-0.107279 0.0201813 0)
(-0.14086 0.0300704 0)
(-0.170191 0.0286438 0)
(-0.22552 0.00334788 0)
(-0.358325 -0.0621683 0)
(-0.204345 0.0255361 0)
(0.0814388 -0.0180009 0)
(0.153835 -0.058345 0)
(0.139068 -0.0637646 0)
(0.118785 -0.0540169 0)
(0.0932192 -0.0390825 0)
(0.0634474 -0.0203269 0)
(0.0309069 -0.000944455 0)
(0.00413899 0.0141171 0)
(-0.00962125 0.0217443 0)
(-0.0159448 0.0247638 0)
(-0.0174482 0.0252337 0)
(-0.0160576 0.024141 0)
(-0.0129444 0.0216877 0)
(-0.0091893 0.0179902 0)
(-0.00578499 0.0135451 0)
(-0.00321079 0.00920495 0)
(-0.00154521 0.00540333 0)
(-0.000716737 0.00239687 0)
(-0.000520074 0.000214843 0)
(-0.00074215 -0.00126433 0)
(-0.00121184 -0.00223828 0)
(-0.00182715 -0.00294421 0)
(-0.00259522 -0.00361411 0)
(-0.00362525 -0.00441193 0)
(-0.00510763 -0.00559989 0)
(-0.00728688 -0.00700786 0)
(-0.010416 -0.00821563 0)
(-0.0147014 -0.00837644 0)
(-0.0202054 -0.00618455 0)
(-0.0266288 -0.000627534 0)
(-0.0330483 0.00881758 0)
(-0.0388617 0.0223269 0)
(-0.0430672 0.0391111 0)
(-0.0421317 0.0564865 0)
(-0.0355613 0.065341 0)
(-0.0122577 0.028915 0)
(-0.0475266 -0.15578 0)
(-0.115882 0.0804903 0)
(0.0832345 -0.0249436 0)
(0.0632473 -0.0774119 0)
(0.0238197 -0.0792132 0)
(-0.00699355 -0.0688675 0)
(-0.0304599 -0.0596828 0)
(-0.0489223 -0.0484722 0)
(-0.0566925 -0.0380415 0)
(-0.0576636 -0.0305976 0)
(-0.0540319 -0.027032 0)
(-0.0479714 -0.0264341 0)
(-0.0406806 -0.0280048 0)
(-0.0328982 -0.0309437 0)
(-0.0251742 -0.0348437 0)
(-0.0180997 -0.0394501 0)
(-0.0122102 -0.0443379 0)
(-0.00774106 -0.0489271 0)
(-0.00465064 -0.0529063 0)
(-0.00275591 -0.0561417 0)
(-0.0017862 -0.0586559 0)
(-0.00146774 -0.0605781 0)
(-0.00157713 -0.0621036 0)
(-0.00197095 -0.0634487 0)
(-0.00259985 -0.0648007 0)
(-0.00350779 -0.0662591 0)
(-0.00488691 -0.0677057 0)
(-0.00699266 -0.0691631 0)
(-0.00998831 -0.07042 0)
(-0.0137905 -0.0709731 0)
(-0.0176915 -0.0699463 0)
(-0.0201985 -0.0658633 0)
(-0.0192617 -0.0578845 0)
(-0.0124441 -0.0477354 0)
(0.0032028 -0.0399803 0)
(0.0276315 -0.0443083 0)
(0.0565972 -0.0705147 0)
(0.108716 -0.109342 0)
(0.0264563 -0.200761 0)
(0.441232 -0.105222 0)
(-0.261759 -0.0866481 0)
(-0.148403 0.198861 0)
(-0.0901626 0.233804 0)
(-0.104083 0.235082 0)
(-0.117608 0.23463 0)
(-0.127835 0.237121 0)
(-0.131722 0.238165 0)
(-0.129239 0.238021 0)
(-0.120889 0.239758 0)
(-0.108052 0.24316 0)
(-0.0926582 0.248035 0)
(-0.0766903 0.253881 0)
(-0.0613835 0.260432 0)
(-0.0474282 0.267344 0)
(-0.0352276 0.274277 0)
(-0.0250751 0.280927 0)
(-0.0171342 0.28694 0)
(-0.0113216 0.291973 0)
(-0.00735608 0.295944 0)
(-0.00489126 0.298922 0)
(-0.00356209 0.301075 0)
(-0.00304546 0.302635 0)
(-0.00309401 0.303833 0)
(-0.00355443 0.304852 0)
(-0.0043685 0.305794 0)
(-0.00555885 0.306679 0)
(-0.00714661 0.307216 0)
(-0.00912621 0.307544 0)
(-0.0114275 0.30779 0)
(-0.0137755 0.308126 0)
(-0.0155663 0.308779 0)
(-0.0157307 0.309397 0)
(-0.0130321 0.310401 0)
(-0.00689503 0.314922 0)
(0.00514752 0.321776 0)
(0.0182838 0.331824 0)
(0.0242336 0.356319 0)
(0.119955 0.363184 0)
(-0.326183 0.51263 0)
)
;

boundaryField
{
    floor
    {
        type            noSlip;
    }
    ceiling
    {
        type            noSlip;
    }
    sWall
    {
        type            noSlip;
    }
    nWall
    {
        type            noSlip;
    }
    sideWalls
    {
        type            empty;
    }
    glass1
    {
        type            noSlip;
    }
    glass2
    {
        type            noSlip;
    }
    sun
    {
        type            noSlip;
    }
    heatsource1
    {
        type            noSlip;
    }
    heatsource2
    {
        type            noSlip;
    }
    Table_master
    {
        type            noSlip;
    }
    Table_slave
    {
        type            noSlip;
    }
    inlet
    {
        type            fixedValue;
        value           uniform (0.2 0 0);
    }
    outlet
    {
        type            zeroGradient;
    }
}


// ************************************************************************* //
