/*--------------------------------*- C++ -*----------------------------------*\
  =========                 |
  \\      /  F ield         | OpenFOAM: The Open Source CFD Toolbox
   \\    /   O peration     | Website:  https://openfoam.org
    \\  /    A nd           | Version:  6
     \\/     M anipulation  |
\*---------------------------------------------------------------------------*/
FoamFile
{
    version     2.0;
    format      ascii;
    class       volScalarField;
    location    "300";
    object      T;
}
// * * * * * * * * * * * * * * * * * * * * * * * * * * * * * * * * * * * * * //

dimensions      [0 0 0 1 0 0 0];

internalField   nonuniform List<scalar> 
459
(
314.005
313.891
313.8
313.712
313.601
312.673
309.891
308.385
307.873
307.676
307.564
307.49
307.435
307.391
307.349
306.25
306.253
306.249
306.255
306.268
306.286
306.306
306.323
306.337
306.352
306.38
306.436
306.532
306.662
306.811
306.955
306.972
306.897
306.888
314.116
313.919
313.785
313.669
313.553
312.981
310.563
308.832
308.113
307.804
307.654
307.569
307.508
307.451
307.386
307.316
307.224
306.381
306.406
306.441
306.482
306.52
306.559
306.602
306.654
306.715
306.784
306.862
306.957
307.077
307.226
307.393
307.52
307.536
307.493
307.294
314.187
313.896
313.691
313.556
313.46
313.145
311.13
309.244
308.354
307.956
307.785
307.702
307.641
307.569
307.474
307.363
307.266
306.614
306.703
306.785
306.853
306.904
306.944
306.976
307.042
307.112
307.189
307.275
307.371
307.48
307.605
307.738
307.844
307.853
307.841
307.693
314.248
313.871
313.557
313.388
313.322
313.182
311.635
309.651
308.615
308.152
307.966
307.898
307.849
307.776
307.661
307.5
307.305
307.136
307.065
307.299
307.475
307.604
307.695
307.756
307.791
307.807
307.824
307.843
307.864
307.888
307.915
307.945
307.978
308.006
308.02
308.021
308.015
314.305
313.862
313.379
313.149
313.131
313.112
312.108
310.111
308.939
308.411
308.206
308.16
308.148
308.12
308.059
307.967
307.857
307.754
307.688
307.764
307.843
307.903
307.943
307.964
307.974
307.981
307.989
308.001
308.015
308.034
308.057
308.083
308.109
308.129
308.137
308.13
308.111
308.091
308.084
308.097
314.362
313.884
313.098
312.797
312.891
312.994
312.441
310.743
309.39
308.761
308.51
308.449
308.462
308.469
308.446
308.393
308.322
308.253
308.207
308.19
308.194
308.202
308.201
308.197
308.19
308.183
308.179
308.178
308.183
308.192
308.206
308.225
308.245
308.262
308.268
308.262
308.246
308.229
308.213
308.197
314.42
313.962
312.617
312.436
312.652
312.846
312.596
311.355
310.142
309.364
308.95
308.812
308.819
308.841
308.84
308.811
308.762
308.706
308.655
308.614
308.583
308.554
308.526
308.498
308.471
308.447
308.425
308.409
308.398
308.393
308.394
308.4
308.41
308.417
308.417
308.407
308.387
308.362
308.333
308.275
314.479
314.127
312.835
312.288
312.468
312.668
312.629
311.805
310.875
310.191
309.756
309.509
309.33
309.3
309.288
309.265
309.227
309.179
309.126
309.072
309.02
308.967
308.915
308.865
308.817
308.772
308.731
308.696
308.667
308.644
308.627
308.617
308.61
308.604
308.593
308.573
308.543
308.502
308.446
308.347
314.624
314.673
314.731
312.6
312.442
312.539
312.577
312.094
311.472
310.965
310.602
310.352
310.169
309.997
309.888
309.82
309.764
309.707
309.643
309.573
309.501
309.426
309.353
309.281
309.212
309.148
309.088
309.034
308.986
308.944
308.907
308.875
308.848
308.821
308.792
308.755
308.707
308.641
308.551
308.403
318.718
314.435
313.502
312.986
312.72
312.356
311.956
311.611
311.342
311.138
310.978
310.834
310.687
310.56
310.447
310.342
310.237
310.132
310.027
309.924
309.824
309.729
309.639
309.555
309.477
309.405
309.338
309.276
309.218
309.165
309.113
309.063
309.009
308.949
308.875
308.78
308.651
308.447
318.389
316.953
316.399
315.55
314.277
313.39
312.855
312.484
312.209
311.994
311.817
311.661
311.511
311.358
311.203
311.044
310.884
310.727
310.576
310.435
310.303
310.183
310.071
309.968
309.872
309.781
309.696
309.614
309.536
309.46
309.385
309.309
309.23
309.143
309.042
308.919
308.759
308.536
318.677
318.501
318.436
318.273
318.052
317.759
317.277
316.403
315.558
314.869
314.321
313.872
313.488
313.148
312.837
312.54
312.254
311.983
311.727
311.491
311.276
311.082
310.908
310.751
310.609
310.479
310.357
310.242
310.133
310.026
309.921
309.818
309.713
309.607
309.495
309.375
309.24
309.078
308.862
308.556
)
;

boundaryField
{
    floor
    {
        type            wallHeatTransfer;
        Tinf            uniform 305.2;
        alphaWall       uniform 0.24;
        value           nonuniform List<scalar> 
29
(
307.1
305.993
305.987
305.973
305.971
305.981
305.997
306.016
306.032
306.044
306.056
306.085
306.145
306.246
306.381
306.534
306.683
306.707
306.641
306.583
306.583
306.998
307.377
307.723
307.1
305.993
306.164
306.404
306.92
)
;
    }
    ceiling
    {
        type            wallHeatTransfer;
        Tinf            uniform 303.2;
        alphaWall       uniform 0.24;
        value           nonuniform List<scalar> 
43
(
317.124
317.46
317.94
317.745
317.479
317.133
316.608
315.717
314.866
314.175
313.627
313.179
312.798
312.462
312.159
311.874
311.607
311.36
311.135
310.929
310.742
310.573
310.418
310.276
310.146
310.023
309.907
309.796
309.689
309.584
309.48
309.377
309.274
309.17
309.06
308.943
308.812
308.653
308.434
308.105
314.324
314.421
318.094
)
;
    }
    sWall
    {
        type            wallHeatTransfer;
        Tinf            uniform 315.2;
        alphaWall       uniform 0.36;
        value           uniform 318.177;
    }
    nWall
    {
        type            wallHeatTransfer;
        Tinf            uniform 307.2;
        alphaWall       uniform 0.36;
        value           nonuniform List<scalar> 6(307.964 308.07 308.15 308.305 308.397 308.391);
    }
    sideWalls
    {
        type            empty;
    }
    glass1
    {
        type            wallHeatTransfer;
        Tinf            uniform 315.2;
        alphaWall       uniform 4.3;
        value           nonuniform List<scalar> 9(314.658 314.669 314.675 314.683 314.693 314.705 314.72 314.737 314.811);
    }
    glass2
    {
        type            wallHeatTransfer;
        Tinf            uniform 307.2;
        alphaWall       uniform 4.3;
        value           nonuniform List<scalar> 2(307.669 307.684);
    }
    sun
    {
        type            wallHeatTransfer;
        Tinf            uniform 305.2;
        alphaWall       uniform 0.24;
        value           nonuniform List<scalar> 
14
(
313.45
313.305
313.179
313.058
312.911
311.987
309.371
308.007
307.558
307.393
307.3
307.236
307.187
307.145
)
;
    }
    heatsource1
    {
        type            fixedGradient;
        gradient        uniform 0;
    }
    heatsource2
    {
        type            fixedGradient;
        gradient        uniform 0;
    }
    Table_master
    {
        type            zeroGradient;
    }
    Table_slave
    {
        type            zeroGradient;
    }
    inlet
    {
        type            fixedValue;
        value           uniform 290.15;
    }
    outlet
    {
        type            zeroGradient;
    }
}


// ************************************************************************* //
