/*--------------------------------*- C++ -*----------------------------------*\
  =========                 |
  \\      /  F ield         | OpenFOAM: The Open Source CFD Toolbox
   \\    /   O peration     | Website:  https://openfoam.org
    \\  /    A nd           | Version:  6
     \\/     M anipulation  |
\*---------------------------------------------------------------------------*/
FoamFile
{
    version     2.0;
    format      ascii;
    class       volScalarField;
    location    "1500";
    object      nut;
}
// * * * * * * * * * * * * * * * * * * * * * * * * * * * * * * * * * * * * * //

dimensions      [0 2 -1 0 0 0 0];

internalField   nonuniform List<scalar> 
459
(
0.000952304
0.00103316
0.00105197
0.00110181
0.00114698
0.00118843
0.00122793
0.00126755
0.00130425
0.00133012
0.00134008
0.00132929
0.0012957
0.00124387
0.00118428
0.00045191
0.000568148
0.000609279
0.000591229
0.000565205
0.000537012
0.000507936
0.000480944
0.000456833
0.000435516
0.000416705
0.000400062
0.000385202
0.000371845
0.000359436
0.000347156
0.00033363
0.00031939
0.000290771
0.00131495
0.00287446
0.00266872
0.0030982
0.00350258
0.00392129
0.0043246
0.00466471
0.00494318
0.0051982
0.00539247
0.00547055
0.00534599
0.00484481
0.00350008
0.00120948
0.000799494
0.000575257
0.000996807
0.0012629
0.00142102
0.00147839
0.00145166
0.00124667
0.00111005
0.00100593
0.00092218
0.000852735
0.000794364
0.000745954
0.00069963
0.00065037
0.000604237
0.000564809
0.000620486
0.000343058
0.00162564
0.00390894
0.00318155
0.00410223
0.00452749
0.00484911
0.00509869
0.00530312
0.00550447
0.00573872
0.00598416
0.00620459
0.00634468
0.00634223
0.00607132
0.00508783
0.00116284
0.00102289
0.00135518
0.00161281
0.00179886
0.00189756
0.0018267
0.000691803
0.000621648
0.000564246
0.000516892
0.000477324
0.000443802
0.00041509
0.00039062
0.000370595
0.000397411
0.000461399
0.000691271
0.000380484
0.00193503
0.00516931
0.00308254
0.0043124
0.00472992
0.00487666
0.00493354
0.00500218
0.00513906
0.00535948
0.00563773
0.00594978
0.00623561
0.00644916
0.00653174
0.00626594
0.00497997
0.00135529
0.00166489
0.00205592
0.00235201
0.0025342
0.00262168
0.00246617
0.000761979
0.000701113
0.000656474
0.000621237
0.000590518
0.000562979
0.000535931
0.00050714
0.000473232
0.00044296
0.000458506
0.000759873
0.000411096
0.00225876
0.00688828
0.00341176
0.00401872
0.00465031
0.0047338
0.0046609
0.0046362
0.00476932
0.00500585
0.00530604
0.00567018
0.00601272
0.00626391
0.00635959
0.00623483
0.00576413
0.00475965
0.00433125
0.00408419
0.00389887
0.00375716
0.00365615
0.00353834
0.00310624
0.00290236
0.00278211
0.00267791
0.00254432
0.0023372
0.00206747
0.00174577
0.00138756
0.0010105
0.000743034
0.000780746
0.000508074
0.000532784
0.00065461
0.000726933
0.00260697
0.00880691
0.00508347
0.00378538
0.00423925
0.00451731
0.00459632
0.00449923
0.00467958
0.00491236
0.00521032
0.00557405
0.00594049
0.00620709
0.00628176
0.0061271
0.00578094
0.00535498
0.00504044
0.00478117
0.00453672
0.00433074
0.00417698
0.00405877
0.00392027
0.00380515
0.00369301
0.00356672
0.00341531
0.00320516
0.00291556
0.00254269
0.00209147
0.00158945
0.00116512
0.000912754
0.00067253
0.000592282
0.000877866
0.000747867
0.00294282
0.0102718
0.00782965
0.00531821
0.00463734
0.0046101
0.00476808
0.00482228
0.00488852
0.00503677
0.00531308
0.00569397
0.00608525
0.00635667
0.0064012
0.00619305
0.00581678
0.0054433
0.00517704
0.00493274
0.00465351
0.00437331
0.00413794
0.00397328
0.00385792
0.00376375
0.00366233
0.00354596
0.00341952
0.00328611
0.00309894
0.0028038
0.00240832
0.00194862
0.00153846
0.00121149
0.000955521
0.00086609
0.000881255
0.000787043
0.00301935
0.00954613
0.00828377
0.00739743
0.00663721
0.00614764
0.00569979
0.00532061
0.00516171
0.00526267
0.00558601
0.0060302
0.00644781
0.00668366
0.00663759
0.00631925
0.00585791
0.00544756
0.00513079
0.0047132
0.00427164
0.00391513
0.00367588
0.00352702
0.00342299
0.00332815
0.00322644
0.00312201
0.00302867
0.00295965
0.00291003
0.00278155
0.00250763
0.00215288
0.00186255
0.00170658
0.0017109
0.0019947
0.00268337
0.00129777
0.00295235
0.00353874
0.00395094
0.00411734
0.00420799
0.00421666
0.00428581
0.00451174
0.00491927
0.00547764
0.00610487
0.00667459
0.00704481
0.00709445
0.00679077
0.00624982
0.00571437
0.0051759
0.00459776
0.00403456
0.00360842
0.00333426
0.00315788
0.00302651
0.002905
0.00277381
0.00262711
0.00247
0.00231154
0.0021579
0.00201085
0.00188146
0.00177221
0.00170281
0.00169381
0.00173772
0.00178333
0.00177263
0.00169064
0.00125434
0.00160462
0.00314729
0.00413123
0.00482681
0.00549984
0.00613405
0.00672257
0.00722649
0.00760638
0.00776159
0.00761647
0.0071274
0.00638258
0.00556121
0.00483533
0.00419988
0.00371008
0.00337165
0.0031467
0.00298113
0.00283748
0.00269525
0.00254479
0.00238365
0.0022156
0.00205078
0.00190465
0.00179361
0.00172516
0.00169032
0.00168276
0.00170236
0.00174412
0.00178762
0.00179766
0.00175296
0.00164935
0.00110786
0.00195478
0.00432269
0.00572875
0.00633574
0.00690381
0.00740647
0.00763547
0.00772417
0.00772096
0.00735908
0.00672865
0.0059414
0.00513826
0.00443171
0.00391293
0.00362217
0.00348556
0.00341027
0.00333645
0.00323933
0.00312247
0.00298093
0.00281462
0.00262993
0.00243823
0.00225306
0.00208661
0.0019529
0.00186146
0.00181255
0.0018039
0.00182946
0.00187503
0.00191815
0.00192519
0.00200692
0.00220699
0.00113975
0.00193252
0.00186682
0.00189783
0.00201505
0.00192529
0.00182686
0.00174111
0.0016625
0.00160382
0.0015402
0.00145724
0.00135967
0.00123834
0.00111369
0.00100801
0.00093502
0.000890915
0.000864715
0.000847133
0.000833106
0.000820112
0.000807831
0.000793974
0.000779377
0.000765738
0.000755147
0.000749647
0.000750875
0.000760016
0.000776383
0.00079875
0.000827091
0.000861961
0.000904034
0.000953201
0.00101076
0.00103879
0.00101846
0.000968565
0.000922214
)
;

boundaryField
{
    floor
    {
        type            nutkWallFunction;
        Cmu             0.09;
        kappa           0.41;
        E               9.8;
        value           nonuniform List<scalar> 
29
(
0.000142189
5.35167e-05
6.83445e-05
7.34928e-05
7.12377e-05
6.79709e-05
6.44107e-05
6.07148e-05
5.72601e-05
5.41536e-05
5.13899e-05
4.89371e-05
4.67551e-05
4.47972e-05
4.30288e-05
4.13787e-05
3.97384e-05
3.79226e-05
3.6e-05
3.21015e-05
3.21014e-05
3.91852e-05
4.41689e-05
4.81989e-05
0.000142189
5.35166e-05
6.92585e-05
0.000123405
0.000161768
)
;
    }
    ceiling
    {
        type            nutkWallFunction;
        Cmu             0.09;
        kappa           0.41;
        E               9.8;
        value           nonuniform List<scalar> 
43
(
0.000226011
0.000218744
0.000222128
0.000235001
0.000225238
0.000214452
0.000204994
0.000196276
0.000189746
0.000182638
0.000173314
0.00016228
0.000148426
0.000134027
0.000121671
0.000113051
0.000107804
0.000104674
0.000102567
0.000100882
9.93194e-05
9.78398e-05
9.61666e-05
9.44002e-05
9.27462e-05
9.14595e-05
9.07904e-05
9.09399e-05
9.20515e-05
9.40382e-05
9.6745e-05
0.000100162
0.000104347
0.000109371
0.000115207
0.000121996
0.000125286
0.000122902
0.000117024
0.000111534
0.000335173
0.000395963
0.000228245
)
;
    }
    sWall
    {
        type            nutkWallFunction;
        Cmu             0.09;
        kappa           0.41;
        E               9.8;
        value           uniform 0.00022607;
    }
    nWall
    {
        type            nutkWallFunction;
        Cmu             0.09;
        kappa           0.41;
        E               9.8;
        value           nonuniform List<scalar> 6(8.80192e-05 9.05726e-05 9.53272e-05 0.000133359 0.000137064 0.000111538);
    }
    sideWalls
    {
        type            empty;
    }
    glass1
    {
        type            nutkWallFunction;
        Cmu             0.09;
        kappa           0.41;
        E               9.8;
        value           nonuniform List<scalar> 9(0.000115146 0.000157356 0.000192461 0.000226685 0.000261867 0.000299114 0.000334547 0.00034257 0.000335571);
    }
    glass2
    {
        type            nutkWallFunction;
        Cmu             0.09;
        kappa           0.41;
        E               9.8;
        value           nonuniform List<scalar> 2(0.000155288 0.000150314);
    }
    sun
    {
        type            nutkWallFunction;
        Cmu             0.09;
        kappa           0.41;
        E               9.8;
        value           nonuniform List<scalar> 
14
(
0.000115089
0.00012461
0.000126811
0.000132627
0.000137871
0.000142664
0.000147213
0.000151758
0.000155956
0.000158907
0.000160041
0.000158813
0.000154981
0.000149047
)
;
    }
    heatsource1
    {
        type            nutkWallFunction;
        Cmu             0.09;
        kappa           0.41;
        E               9.8;
        value           nonuniform List<scalar> 3(6.38798e-05 7.91321e-05 8.8021e-05);
    }
    heatsource2
    {
        type            nutkWallFunction;
        Cmu             0.09;
        kappa           0.41;
        E               9.8;
        value           nonuniform List<scalar> 4(0.000145091 9.68357e-05 9.68357e-05 0.000139711);
    }
    Table_master
    {
        type            nutkWallFunction;
        Cmu             0.09;
        kappa           0.41;
        E               9.8;
        value           nonuniform List<scalar> 9(8.3709e-05 7.50362e-05 6.78516e-05 6.1857e-05 5.67958e-05 5.24669e-05 4.87262e-05 4.55122e-05 4.28634e-05);
    }
    Table_slave
    {
        type            nutkWallFunction;
        Cmu             0.09;
        kappa           0.41;
        E               9.8;
        value           nonuniform List<scalar> 9(9.2279e-05 8.48516e-05 7.93556e-05 7.49854e-05 7.11509e-05 6.76925e-05 6.42756e-05 6.06148e-05 5.62701e-05);
    }
    inlet
    {
        type            calculated;
        value           uniform 0.000100623;
    }
    outlet
    {
        type            calculated;
        value           nonuniform List<scalar> 2(0.00193252 0.00186682);
    }
}


// ************************************************************************* //
