/*--------------------------------*- C++ -*----------------------------------*\
  =========                 |
  \\      /  F ield         | OpenFOAM: The Open Source CFD Toolbox
   \\    /   O peration     | Website:  https://openfoam.org
    \\  /    A nd           | Version:  6
     \\/     M anipulation  |
\*---------------------------------------------------------------------------*/
FoamFile
{
    version     2.0;
    format      ascii;
    class       volScalarField;
    location    "600";
    object      epsilon;
}
// * * * * * * * * * * * * * * * * * * * * * * * * * * * * * * * * * * * * * //

dimensions      [0 2 -3 0 0 0 0];

internalField   nonuniform List<scalar> 
459
(
0.000132493
0.00015105
0.000146418
0.000160411
0.000172626
0.000183057
0.000192015
0.000199897
0.000207171
0.000214401
0.000219243
0.000220862
0.000219168
0.000215546
0.000210707
8.42736e-05
6.79187e-05
5.752e-05
5.09828e-05
4.63495e-05
4.23653e-05
3.83664e-05
3.47889e-05
3.15969e-05
2.87241e-05
2.61316e-05
2.37854e-05
2.16496e-05
1.96807e-05
1.78206e-05
1.59985e-05
1.41016e-05
1.26521e-05
9.80033e-06
0.00044974
0.000976004
0.000140366
0.000123303
0.000119866
0.000118545
0.000118988
0.000122086
0.00012879
0.000139835
0.000151602
0.000161709
0.000167991
0.000171058
0.000180324
0.000220047
0.000179467
0.00012805
6.59742e-05
4.58724e-05
3.74504e-05
3.24785e-05
2.89875e-05
2.75506e-05
2.52114e-05
2.28805e-05
2.05702e-05
1.83532e-05
1.62896e-05
1.43998e-05
1.26854e-05
1.12316e-05
1.05406e-05
1.07003e-05
2.71474e-05
1.9116e-05
0.00100785
0.00312994
0.000217674
0.0001242
0.00011844
0.000120914
0.000126663
0.000135953
0.000148892
0.000164827
0.000180662
0.000191536
0.000193697
0.000188246
0.000183563
0.000193969
0.000268929
0.000175228
5.70049e-05
3.98604e-05
3.3413e-05
2.96017e-05
2.87383e-05
6.41784e-05
4.70228e-05
3.61621e-05
2.89708e-05
2.39906e-05
2.04015e-05
1.77485e-05
1.58043e-05
1.454e-05
1.1794e-05
1.11522e-05
5.13978e-05
2.93094e-05
0.00195587
0.00747944
0.000459509
0.000135592
0.000122926
0.000130204
0.000141082
0.000155551
0.000174379
0.000197799
0.000221553
0.000236044
0.000235604
0.00022145
0.000199941
0.000182366
0.000193107
0.000251456
9.93003e-05
5.18748e-05
3.5821e-05
2.94442e-05
2.68707e-05
2.80579e-05
6.95024e-05
6.13989e-05
5.87221e-05
5.74099e-05
5.53518e-05
5.14162e-05
4.67954e-05
4.1888e-05
3.60749e-05
2.32216e-05
1.68922e-05
9.10198e-05
4.00868e-05
0.00343283
0.0143684
0.00112664
0.000167439
0.000124976
0.000133744
0.000149342
0.000171145
0.00020168
0.000242903
0.000284346
0.000306867
0.000304774
0.000281948
0.000244895
0.000202163
0.000168855
0.000146848
8.57219e-05
5.40356e-05
3.50112e-05
2.8528e-05
2.75208e-05
2.92602e-05
3.42503e-05
3.81346e-05
4.14197e-05
4.33641e-05
4.30901e-05
4.01831e-05
3.61466e-05
3.27641e-05
3.00521e-05
2.54129e-05
2.07898e-05
6.52821e-05
4.4796e-05
8.79203e-05
0.000149514
0.000204554
0.00560145
0.0218941
0.00298457
0.000328121
0.000151072
0.000142399
0.000155153
0.000180287
0.000225253
0.000307257
0.000375777
0.0004034
0.000394368
0.000359379
0.000306594
0.000241469
0.000176084
0.000123675
9.31525e-05
5.82823e-05
3.73688e-05
3.09125e-05
3.1458e-05
3.52257e-05
4.12811e-05
4.84216e-05
5.54396e-05
6.07256e-05
6.26528e-05
5.94878e-05
5.04918e-05
4.13741e-05
3.38378e-05
2.7915e-05
2.49557e-05
4.48417e-05
4.57265e-05
6.16071e-05
0.000279876
0.000229846
0.00863579
0.0261813
0.0077015
0.00154613
0.000546358
0.000307656
0.0002526
0.000254318
0.000301848
0.000456401
0.000529644
0.000537924
0.000505366
0.000448889
0.000377306
0.00029209
0.000202428
0.000129318
0.000103389
6.52443e-05
4.27574e-05
3.70399e-05
3.8833e-05
4.44097e-05
5.26262e-05
6.2783e-05
7.42774e-05
8.48122e-05
9.28463e-05
9.53955e-05
8.76058e-05
7.07868e-05
5.65364e-05
4.60674e-05
4.2596e-05
5.33297e-05
7.00302e-05
0.000123749
0.000325981
0.00029367
0.00964409
0.0331931
0.0163034
0.00899007
0.00454252
0.00226423
0.00130295
0.000929152
0.000853614
0.000846845
0.000803264
0.000729454
0.000640572
0.000545657
0.000447357
0.00034148
0.000232525
0.000140078
0.000113305
7.52088e-05
5.18355e-05
4.65915e-05
4.92578e-05
5.61701e-05
6.61728e-05
7.88152e-05
9.38036e-05
0.000110758
0.000129364
0.000148694
0.000166245
0.00016914
0.000165731
0.000176221
0.00020699
0.000322983
0.000646271
0.00143544
0.00474207
0.00126376
0.00920131
0.0167914
0.0137345
0.0102736
0.00734085
0.00502298
0.00344138
0.00246475
0.00187379
0.00145904
0.00116328
0.000943829
0.000772168
0.000629256
0.000501998
0.000375882
0.000248929
0.000140426
0.000119275
8.92696e-05
6.58299e-05
5.98205e-05
6.18605e-05
6.83856e-05
7.82646e-05
9.12765e-05
0.000107665
0.000128168
0.000154157
0.000187745
0.000231926
0.000290581
0.00036852
0.000492527
0.000682579
0.000946371
0.00125069
0.00151135
0.001688
0.00101136
0.00575051
0.0077872
0.00617615
0.00466427
0.00348459
0.00262768
0.00202214
0.00158182
0.00125275
0.00100164
0.00080348
0.000640679
0.000500557
0.000366643
0.000235211
0.000121874
0.000119159
0.000111179
8.84846e-05
7.98385e-05
7.9401e-05
8.33595e-05
9.04798e-05
0.000100496
0.000113562
0.000130305
0.000152022
0.000180988
0.000220924
0.000277542
0.000357221
0.000468795
0.000616975
0.000786337
0.000927119
0.00097081
0.000867495
0.000550055
0.00412373
0.00700795
0.00559107
0.00421404
0.00322159
0.00246916
0.00189477
0.0014603
0.00112856
0.000872396
0.000671983
0.000512637
0.000384051
0.00027783
0.000187475
8.82044e-05
8.58864e-05
9.72865e-05
9.26504e-05
8.65899e-05
8.45314e-05
8.59593e-05
9.05987e-05
9.86439e-05
0.000110593
0.000127279
0.00014999
0.000180651
0.000222121
0.000278383
0.000354733
0.000456794
0.000585869
0.000733559
0.000848651
0.00096737
0.000756486
0.000569257
0.00274964
0.00322113
0.00365829
0.00442533
0.00376296
0.00296411
0.00236623
0.00189445
0.00150542
0.00118576
0.000947492
0.000762236
0.000609271
0.000479047
0.000367034
0.000270621
0.000183939
7.01665e-05
7.05224e-05
7.39918e-05
7.55994e-05
7.91347e-05
8.50342e-05
9.30504e-05
0.000103171
0.000115536
0.000130411
0.000148243
0.000169809
0.000196506
0.00023103
0.000273691
0.000326758
0.000393086
0.000476425
0.000601749
0.000651137
0.000613396
0.000502901
0.000400005
)
;

boundaryField
{
    floor
    {
        Cmu             0.09;
        kappa           0.41;
        E               9.8;
        type            epsilonWallFunction;
        value           nonuniform List<scalar> 
29
(
0.000210707
8.42736e-05
6.79187e-05
5.752e-05
5.09828e-05
4.63495e-05
4.23653e-05
3.83664e-05
3.47889e-05
3.15969e-05
2.87241e-05
2.61316e-05
2.37854e-05
2.16496e-05
1.96807e-05
1.78206e-05
1.59985e-05
1.41016e-05
1.26521e-05
9.80033e-06
9.80033e-06
1.9116e-05
2.93094e-05
4.00868e-05
0.000210707
8.42736e-05
0.00012805
0.000175228
0.000251456
)
;
    }
    ceiling
    {
        Cmu             0.09;
        kappa           0.41;
        E               9.8;
        type            epsilonWallFunction;
        value           nonuniform List<scalar> 
43
(
0.00274964
0.00322113
0.00365829
0.00442533
0.00376296
0.00296411
0.00236623
0.00189445
0.00150542
0.00118576
0.000947492
0.000762236
0.000609271
0.000479047
0.000367034
0.000270621
0.000183939
7.01665e-05
7.05224e-05
7.39918e-05
7.55994e-05
7.91347e-05
8.50342e-05
9.30504e-05
0.000103171
0.000115536
0.000130411
0.000148243
0.000169809
0.000196506
0.00023103
0.000273691
0.000326758
0.000393086
0.000476425
0.000601749
0.000651137
0.000613396
0.000502901
0.000400005
0.00920131
0.0167914
0.00412373
)
;
    }
    sWall
    {
        Cmu             0.09;
        kappa           0.41;
        E               9.8;
        type            epsilonWallFunction;
        value           uniform 0.00274964;
    }
    nWall
    {
        Cmu             0.09;
        kappa           0.41;
        E               9.8;
        type            epsilonWallFunction;
        value           nonuniform List<scalar> 6(0.000204554 0.000229846 0.00029367 0.000550055 0.000569257 0.000400005);
    }
    sideWalls
    {
        type            empty;
    }
    glass1
    {
        Cmu             0.09;
        kappa           0.41;
        E               9.8;
        type            epsilonWallFunction;
        value           nonuniform List<scalar> 9(0.000132493 0.00044974 0.00100785 0.00195587 0.00343283 0.00560145 0.00863579 0.00964409 0.00920131);
    }
    glass2
    {
        Cmu             0.09;
        kappa           0.41;
        E               9.8;
        type            epsilonWallFunction;
        value           nonuniform List<scalar> 2(0.00126376 0.00101136);
    }
    sun
    {
        Cmu             0.09;
        kappa           0.41;
        E               9.8;
        type            epsilonWallFunction;
        value           nonuniform List<scalar> 
14
(
0.000132493
0.00015105
0.000146418
0.000160411
0.000172626
0.000183057
0.000192015
0.000199897
0.000207171
0.000214401
0.000219243
0.000220862
0.000219168
0.000215546
)
;
    }
    heatsource1
    {
        Cmu             0.09;
        kappa           0.41;
        E               9.8;
        type            epsilonWallFunction;
        value           nonuniform List<scalar> 3(8.79203e-05 0.000149514 0.000204554);
    }
    heatsource2
    {
        Cmu             0.09;
        kappa           0.41;
        E               9.8;
        type            epsilonWallFunction;
        value           nonuniform List<scalar> 4(0.000220047 0.000179467 0.000179467 0.000268929);
    }
    Table_master
    {
        Cmu             0.09;
        kappa           0.41;
        E               9.8;
        type            epsilonWallFunction;
        value           nonuniform List<scalar> 9(6.41784e-05 4.70228e-05 3.61621e-05 2.89708e-05 2.39906e-05 2.04015e-05 1.77485e-05 1.58043e-05 1.454e-05);
    }
    Table_slave
    {
        Cmu             0.09;
        kappa           0.41;
        E               9.8;
        type            epsilonWallFunction;
        value           nonuniform List<scalar> 9(6.95024e-05 6.13989e-05 5.87221e-05 5.74099e-05 5.53518e-05 5.14162e-05 4.67954e-05 4.1888e-05 3.60749e-05);
    }
    inlet
    {
        type            turbulentMixingLengthDissipationRateInlet;
        mixingLength    0.01;
        phi             phi;
        k               k;
        value           uniform 0.000101881;
    }
    outlet
    {
        type            zeroGradient;
    }
}


// ************************************************************************* //
