/*--------------------------------*- C++ -*----------------------------------*\
  =========                 |
  \\      /  F ield         | OpenFOAM: The Open Source CFD Toolbox
   \\    /   O peration     | Website:  https://openfoam.org
    \\  /    A nd           | Version:  6
     \\/     M anipulation  |
\*---------------------------------------------------------------------------*/
FoamFile
{
    version     2.0;
    format      ascii;
    class       surfaceScalarField;
    location    "600";
    object      phi;
}
// * * * * * * * * * * * * * * * * * * * * * * * * * * * * * * * * * * * * * //

dimensions      [1 0 -1 0 0 0 0];

internalField   nonuniform List<scalar> 
852
(
-0.00275933
0.0028232
-0.00336811
0.000608805
-0.00402107
0.000652991
-0.00462551
0.000604469
-0.0051447
0.000519212
-0.00556174
0.00041707
-0.00586018
0.000298465
-0.00601961
0.000159454
-0.00601526
-4.32361e-06
-0.00581543
-0.000199796
-0.00539384
-0.000421562
-0.00473543
-0.000658383
-0.00380018
-0.00093523
-0.00238872
-0.00141143
-0.00238641
0.000991616
-0.000988697
0.00152164
-0.000529988
0.00177329
-0.000251618
0.00192643
-0.000153101
0.00203653
-0.000110075
0.00210229
-6.57165e-05
0.00211248
-1.01634e-05
0.002092
2.05182e-05
0.0020622
2.98334e-05
0.00202971
3.25319e-05
0.00199526
3.44857e-05
0.00195775
3.75376e-05
0.00191299
4.47961e-05
0.00184973
6.32954e-05
0.00174192
0.000107848
0.00154654
0.000195415
0.00124537
0.000301213
0.000867553
0.000377852
0.000872236
-0.00200135
0.00499524
-0.00279125
0.00139874
-0.0035495
0.00141126
-0.00417799
0.00123299
-0.00470502
0.00104627
-0.00513078
0.000842855
-0.00544402
0.000611733
-0.005627
0.00034246
-0.00565802
2.67302e-05
-0.00552157
-0.000336217
-0.00520744
-0.000735673
-0.00471072
-0.00115507
-0.00403764
-0.00160829
-0.0033373
-0.00211175
-0.0033312
-0.00239248
-0.00140812
-0.00192311
-0.00140814
0.000741024
-0.00172181
0.00103763
-0.000826558
0.00122542
-0.000439375
0.00138195
-0.000309595
0.00151122
-0.000239311
0.00160715
-0.000161608
0.00162905
-3.20262e-05
0.00163755
1.20566e-05
0.00164468
2.27409e-05
0.00165088
2.63606e-05
0.00165598
2.94211e-05
0.00165996
3.35969e-05
0.001662
4.2799e-05
0.00165799
6.73422e-05
0.00161691
0.000148963
0.00143094
0.000381421
0.00110721
0.000624975
0.00070718
0.000777923
0.00159171
-0.00145806
0.00671112
-0.00225931
0.00220002
-0.00296837
0.00212034
-0.00352589
0.00179054
-0.00399913
0.00151955
-0.00439024
0.001234
-0.00468758
0.000909098
-0.00487311
0.000528015
-0.00492588
7.95328e-05
-0.00482578
-0.000436292
-0.00456598
-0.000995444
-0.00416163
-0.00155938
-0.00366751
-0.00210238
-0.00320448
-0.00257475
-0.00276562
-0.00283132
-0.00177689
-0.00291181
-0.00318501
0.000148246
-0.00185785
0.000434552
-0.00111283
0.000694001
-0.000698788
0.000903536
-0.000519094
0.00107649
-0.000412224
0.00123873
-0.000323815
0.00120689
0.00121914
0.00124207
0.00126862
0.00129823
0.00133202
0.00137501
0.00144255
0.0015917
0.00132403
0.000649131
0.000989742
0.000959301
0.00057338
0.00119432
0.00218383
-0.00107678
0.00811659
-0.00183123
0.0029545
-0.00233434
0.00262348
-0.00274787
0.0022041
-0.00312124
0.00189294
-0.00344594
0.00155873
-0.00370766
0.00117085
-0.00388684
0.000707223
-0.00395607
0.000148789
-0.00388446
-0.000507875
-0.00367218
-0.0012077
-0.0033614
-0.00187014
-0.00302239
-0.00244136
-0.00271712
-0.00288
-0.00239906
-0.00314935
-0.00204757
-0.00326328
-0.00227847
-0.00295408
-0.000202265
-0.00206292
-0.000115952
-0.00194413
0.00012433
-0.00135307
0.000370142
-0.000944564
0.000578149
-0.000727064
0.000753928
-0.000587967
0.00088832
-0.000458171
0.00119882
-0.000310616
0.00146389
-0.00026519
0.00169884
-0.000235067
0.0018933
-0.000194576
0.00202423
-0.000131043
0.00206148
-3.73649e-05
0.00197947
8.18936e-05
0.00175452
0.000224825
0.00133938
0.000415026
0.00117278
0.000815767
0.000839795
0.00129233
0.000350585
0.00168357
0.00255895
-0.000788137
0.00929144
-0.00147391
0.0036403
-0.00165762
0.00280722
-0.0018927
0.00243922
-0.00213631
0.00213658
-0.0023598
0.00178226
-0.00254814
0.00135922
-0.00268597
0.000845081
-0.00274582
0.000208671
-0.00267642
-0.000577249
-0.00249031
-0.00139377
-0.00225179
-0.00210863
-0.00202105
-0.00267207
-0.00182586
-0.00307518
-0.00164845
-0.00332673
-0.00148576
-0.00342595
-0.00117083
-0.00326899
-0.000432538
-0.00280118
-0.000194643
-0.00218199
-2.29609e-05
-0.00152472
0.000153619
-0.00112111
0.000320415
-0.000893823
0.000482139
-0.000749654
0.000659316
-0.000635311
0.000893205
-0.000544468
0.00111631
-0.000488255
0.00132238
-0.0004411
0.00150389
-0.000376049
0.00164366
-0.000270785
0.00171434
-0.000108003
0.00168961
0.000106661
0.00156554
0.000348931
0.00135839
0.000622216
0.00116968
0.00100451
0.000962296
0.00149975
0.000524771
0.00212113
0.000326944
0.00275681
-0.00122026
0.00154704
-0.00166048
0.000440051
-0.00160697
-0.000687973
0.0104143
-0.00126307
0.00421542
-0.000975404
0.00251958
-0.000977058
0.0024409
-0.00109242
0.00225197
-0.00120271
0.00189258
-0.00128302
0.00143956
-0.00133209
0.000894179
-0.00133131
0.000207926
-0.00122367
-0.000684859
-0.00106016
-0.00155726
-0.000906224
-0.00226254
-0.00079854
-0.00277973
-0.000745184
-0.00312851
-0.000731914
-0.00333999
-0.000718345
-0.00343951
-0.000566361
-0.00342096
-0.000279755
-0.00308776
-0.000158442
-0.00230326
-0.000102187
-0.00158094
-2.69244e-05
-0.00119633
6.43651e-05
-0.000985076
0.00017173
-0.000856983
0.000303892
-0.000767437
0.000462074
-0.000702613
0.000629607
-0.000655752
0.000797723
-0.00060918
0.000962278
-0.000540568
0.00111505
-0.000423521
0.00123833
-0.000231249
0.00129835
4.66733e-05
0.0012921
0.000355218
0.00124689
0.000667465
0.00122557
0.00102587
0.00128849
0.00143686
0.00143747
0.0019722
0.00192224
0.00227208
0.00216956
0.00129975
0.00178721
0.000822444
0.000244617
-0.00095694
0.0118469
-0.0010053
0.00426381
-0.000105512
0.00161982
0.000144524
0.00219089
0.000100175
0.00229635
5.61538e-05
0.00193663
8.41956e-05
0.00141155
0.000159057
0.000819348
0.000308556
5.84569e-05
0.000490016
-0.000866288
0.000602602
-0.00166981
0.000624927
-0.00228484
0.000560968
-0.00271575
0.000427611
-0.00299514
0.000250495
-0.00316285
7.38749e-05
-0.00326287
-1.56755e-05
-0.00333139
-1.60894e-05
-0.00308732
-7.3301e-05
-0.00224602
-0.000164161
-0.00149004
-0.000209977
-0.00115048
-0.00021893
-0.000976087
-0.000199939
-0.000875936
-0.000154258
-0.000813081
-8.45402e-05
-0.000772295
3.48277e-06
-0.000743739
0.000105381
-0.000711043
0.000221335
-0.000656486
0.000356111
-0.000558261
0.000512412
-0.000387515
0.000670752
-0.000111631
0.000810526
0.000215479
0.000938757
0.00053927
0.00111177
0.00085289
0.00139785
0.00115082
0.00186492
0.00150517
0.00260782
0.00152922
0.00318849
0.00071912
0.00330438
0.000706592
0.00362104
0.00225758
0.0101174
0.00270883
0.00381259
0.0025859
0.00174278
0.0024068
0.00237002
0.00214685
0.00255633
0.00200584
0.00207767
0.00202438
0.00139303
0.0021855
0.000658263
0.0024301
-0.000186113
0.00254777
-0.000983928
0.00249255
-0.00161456
0.00228625
-0.00207851
0.00197181
-0.00240129
0.00159062
-0.00261393
0.00118156
-0.00275378
0.000789621
-0.00287092
0.000480427
-0.00302219
0.000252245
-0.0028591
-1.37067e-05
-0.00198003
-0.000260213
-0.0012435
-0.000428339
-0.000982319
-0.000543393
-0.000860996
-0.000624127
-0.000795165
-0.000679466
-0.000757706
-0.000715069
-0.000736657
-0.000736136
-0.000722636
-0.000743411
-0.000703732
-0.000733017
-0.000666845
-0.000693287
-0.000597955
-0.000597929
-0.000482838
-0.000403641
-0.000305883
-0.000153532
-3.4595e-05
0.000110014
0.000275761
0.000417228
0.000545713
0.000787429
0.000780656
0.00128928
0.00100335
0.00184829
0.000970246
0.00201624
0.000551213
0.00110849
0.00161438
0.00501873
0.0106954
0.0145016
0.0121273
0.00411708
0.0100571
0.00444022
0.00839738
0.00421609
0.00727747
0.00319761
0.00656682
0.00210371
0.00610956
0.00111556
0.00566068
0.000262786
0.00512437
-0.00044759
0.00452638
-0.00101655
0.00388878
-0.00144089
0.00322564
-0.00173814
0.00255232
-0.00194059
0.00189026
-0.00209171
0.00128026
-0.00226092
0.000812485
-0.0025544
0.000446323
-0.00249291
-4.29716e-05
-0.0014907
-0.00042337
-0.000863065
-0.000693039
-0.000712613
-0.000900438
-0.000653561
-0.00107619
-0.00061938
-0.0012346
-0.000599253
-0.00138429
-0.000586929
-0.00153202
-0.000574877
-0.00168266
-0.000553052
-0.00184074
-0.000508735
-0.00201194
-0.000426718
-0.00220403
-0.000290705
-0.00242466
-8.52233e-05
-0.00265605
0.000196828
-0.00293887
0.00055862
-0.00340121
0.00100809
-0.00415772
0.0015372
-0.00526208
0.00210775
-0.00681465
0.00252284
-0.00867997
0.00241657
-0.00807835
0.00101279
-0.00273791
0.00507695
0.00497055
0.00485018
0.00466701
0.00576382
0.00330245
0.00617301
0.00278844
0.00623934
0.0020374
0.00616128
0.00119363
0.0059545
0.000469588
0.00558559
-7.8665e-05
0.00505925
-0.000490189
0.00441793
-0.000799558
0.00370324
-0.00102343
0.00294661
-0.00118396
0.00217217
-0.00131725
0.00142239
-0.00151113
0.000849493
-0.00198149
0.00040637
-0.00204974
-0.000253541
-0.000830748
-0.000694567
-0.000422002
-0.000997273
-0.000409869
-0.00124723
-0.000403571
-0.00147872
-0.000387849
-0.00170327
-0.000374669
-0.00192762
-0.000362535
-0.00215598
-0.00034649
-0.00238872
-0.000320273
-0.00262138
-0.000276035
-0.00284384
-0.000204227
-0.00303948
-9.50236e-05
-0.00318526
6.05899e-05
-0.00328338
0.000294987
-0.0033533
0.00062857
-0.00341942
0.00107425
-0.00349491
0.00161272
-0.00352446
0.00213734
-0.00342263
0.00242104
-0.00300481
0.00199879
-0.0016871
-0.000304882
-0.00434017
-0.000534247
0.00554847
0.00162468
0.00250809
0.00282812
0.00209903
0.00372817
0.00188841
0.0044286
0.00133698
0.00482226
0.000799992
0.00491971
0.000372155
0.00477848
6.25813e-05
0.00446015
-0.000171846
0.00400135
-0.000340745
0.00343867
-0.000460734
0.0027989
-0.000544175
0.00209491
-0.000613243
0.00133333
-0.00074954
0.000551128
-0.00119927
-0.000242153
-0.00125639
-0.000810861
-0.000262005
-0.00113447
-9.83584e-05
-0.00137587
-0.000168428
-0.00159118
-0.000188223
-0.00179594
-0.000183049
-0.00199456
-0.000176013
-0.00218844
-0.00016862
-0.00237682
-0.000158072
-0.0025562
-0.000140861
-0.00271941
-0.000112792
-0.00285484
-6.87556e-05
-0.00294847
-1.35395e-06
-0.00297736
8.95119e-05
-0.0029058
0.00022346
-0.00270092
0.000423723
-0.00233798
0.00071135
-0.0018228
0.00109758
-0.00114273
0.0014573
-9.09996e-05
0.00136934
0.00126552
0.000642306
0.00160953
-0.000648862
-0.00263722
-0.00839575
-0.0108045
-0.00521929
-0.00269096
-0.000576808
0.00132326
0.00267079
0.00348102
0.00386353
0.00393685
0.00377616
0.003447
0.00299834
0.0024668
0.00186687
0.00113148
-5.27891e-05
-0.00129685
-0.00154736
-0.00163453
-0.00179195
-0.0019694
-0.00214193
-0.00230772
-0.00246643
-0.00261492
-0.00274652
-0.00285038
-0.00291054
-0.00290363
-0.00280622
-0.00257523
-0.00214437
-0.00142627
-0.000322372
0.00114066
0.00251543
0.00316314
0.00251992
)
;

boundaryField
{
    floor
    {
        type            calculated;
        value           nonuniform List<scalar> 
29
(
0
0
0
0
0
0
0
0
0
0
0
0
0
0
0
0
0
0
0
0
-4.64599e-06
-1.2252e-05
-1.8711e-05
-2.44928e-05
-2.28378e-06
-2.88584e-06
-7.87268e-06
-1.21813e-05
-1.32518e-05
)
;
    }
    ceiling
    {
        type            calculated;
        value           nonuniform List<scalar> 
43
(
-3.90611e-05
-3.79249e-05
-3.66808e-05
-2.02322e-05
-1.51154e-05
-1.16465e-05
-1.05331e-05
-1.02229e-05
-1.03386e-05
-1.07244e-05
-1.11425e-05
-1.1574e-05
-1.20558e-05
-1.2619e-05
-1.32975e-05
-1.41289e-05
-1.49518e-05
-1.22629e-05
-1.14531e-05
-1.11553e-05
-1.09672e-05
-1.07452e-05
-1.04792e-05
-1.0185e-05
-9.87341e-06
-9.55189e-06
-9.2252e-06
-8.89558e-06
-8.56237e-06
-8.22143e-06
-7.86191e-06
-7.49254e-06
-7.1097e-06
-6.70885e-06
-6.28148e-06
-5.69697e-06
-5.39237e-06
-5.36517e-06
-5.61117e-06
-5.21816e-06
9.64614e-06
6.39233e-06
-4.36739e-05
)
;
    }
    sWall
    {
        type            calculated;
        value           uniform -0.000248558;
    }
    nWall
    {
        type            calculated;
        value           nonuniform List<scalar> 6(-5.36728e-05 -6.43436e-05 -7.20107e-05 -8.48016e-05 -9.33798e-05 -0.000112042);
    }
    sideWalls
    {
        type            empty;
        value           nonuniform 0();
    }
    glass1
    {
        type            calculated;
        value           nonuniform List<scalar> 9(-6.38472e-05 -0.000170665 -0.000257803 -0.000328671 -0.000386689 -0.00043483 -0.000475686 -0.000528008 -0.000587619);
    }
    glass2
    {
        type            calculated;
        value           nonuniform List<scalar> 2(-0.000289162 -0.000321678);
    }
    sun
    {
        type            calculated;
        value           uniform 0;
    }
    heatsource1
    {
        type            calculated;
        value           nonuniform List<scalar> 3(2.04839e-07 2.04728e-07 2.0474e-07);
    }
    heatsource2
    {
        type            calculated;
        value           nonuniform List<scalar> 4(5.09961e-08 5.12278e-08 0 0);
    }
    Table_master
    {
        type            calculated;
        value           nonuniform List<scalar> 9(-1.53725e-07 -1.53774e-07 -1.53782e-07 -1.53786e-07 -1.53788e-07 -1.53788e-07 -1.53784e-07 -1.53771e-07 -1.53728e-07);
    }
    Table_slave
    {
        type            calculated;
        value           nonuniform List<scalar> 9(1.53701e-07 1.53649e-07 1.53575e-07 1.53515e-07 1.53476e-07 1.53471e-07 1.53481e-07 1.5352e-07 1.53609e-07);
    }
    inlet
    {
        type            calculated;
        value           uniform -0.00593042;
    }
    outlet
    {
        type            calculated;
        value           nonuniform List<scalar> 2(0.00868338 0.00244663);
    }
}


// ************************************************************************* //
