// -*- C++ -*-
// File generated by PyFoam - sorry for the ugliness

FoamFile
{
 version 2.0;
 format ascii;
 class volVectorField;
 location "1800";
 object U;
}

dimensions [ 0 1 -1 0 0 0 0 ];

internalField nonuniform List<vector> 459
(
  (0.369401 -0.168187 0)
  (0.283529 -0.163531 0)
  (0.42881 -0.110575 0)
  (0.541338 -0.0740462 0)
  (0.595264 -0.0527672 0)
  (0.618045 -0.0384412 0)
  (0.627794 -0.0272111 0)
  (0.627282 -0.0175704 0)
  (0.615334 -0.00847864 0)
  (0.591489 0.000822227 0)
  (0.554707 0.0111966 0)
  (0.502749 0.0240116 0)
  (0.431012 0.0424653 0)
  (0.32544 0.0776803 0)
  (0.241207 0.172403 0)
  (0.0142126 0.00962608 0)
  (-0.0264418 -0.00289697 0)
  (-0.0172643 -0.00271877 0)
  (-0.0167244 0.000682493 0)
  (-0.0183318 0.000638929 0)
  (-0.0211126 -0.00165409 0)
  (-0.020863 -0.00510043 0)
  (-0.0157995 -0.00773736 0)
  (-0.00799242 -0.0102657 0)
  (0.00385437 -0.0143168 0)
  (0.0111198 -0.00914685 0)
  (0.0169422 -0.0066256 0)
  (0.0202804 -0.00516939 0)
  (0.0227334 -0.0041167 0)
  (0.0251868 -0.00311186 0)
  (0.0271388 -0.00226771 0)
  (0.0287012 -0.00283085 0)
  (0.0323047 0.000114289 0)
  (-0.00776452 0.0142234 0)
  (0.487421 -0.345285 0)
  (0.217958 -0.268844 0)
  (0.346987 -0.149738 0)
  (0.436738 -0.0791031 0)
  (0.472578 -0.0429247 0)
  (0.488279 -0.0192494 0)
  (0.497568 0.000605886 0)
  (0.500201 0.0183874 0)
  (0.492846 0.03474 0)
  (0.475072 0.0511966 0)
  (0.446338 0.0692724 0)
  (0.406213 0.0907842 0)
  (0.356011 0.118657 0)
  (0.299609 0.158676 0)
  (0.268584 0.229415 0)
  (0.238502 0.19957 0)
  (0.120104 0.142314 0)
  (0.0873316 0.0238229 0)
  (-0.0119341 -0.000484089 0)
  (-0.000103225 -0.00640532 0)
  (0.00513074 -0.00180801 0)
  (0.0060214 0.00169153 0)
  (0.00350294 0.00405815 0)
  (0.00023422 0.00134112 0)
  (-0.00459648 -0.00642826 0)
  (-0.00116066 -0.011243 0)
  (-0.00229302 -0.0158551 0)
  (-0.00296578 -0.00710781 0)
  (0.00152722 -0.00325917 0)
  (0.0017128 -0.00231337 0)
  (0.00012843 -0.00218692 0)
  (-0.00138449 -0.00238121 0)
  (-0.00173712 -0.00401366 0)
  (0.00119373 -0.00840912 0)
  (0.017956 -0.000781433 0)
  (-0.0582268 0.0301913 0)
  (0.539053 -0.527409 0)
  (0.0741246 -0.363858 0)
  (0.232994 -0.201184 0)
  (0.30051 -0.118585 0)
  (0.317087 -0.0775195 0)
  (0.327429 -0.0484216 0)
  (0.336977 -0.0229082 0)
  (0.34407 0.00214465 0)
  (0.343838 0.0285659 0)
  (0.335821 0.0570018 0)
  (0.319613 0.0880719 0)
  (0.295217 0.122433 0)
  (0.264133 0.160802 0)
  (0.227409 0.203315 0)
  (0.198783 0.249397 0)
  (0.156867 0.211829 0)
  (0.0911152 0.174077 0)
  (0.0934245 0.00422159 0)
  (0.0217297 0.000174609 0)
  (0.00506219 -0.000314286 0)
  (0.0023432 0.00114585 0)
  (0.00354077 0.00244839 0)
  (0.00433293 0.00313984 0)
  (0.0143429 0.00178998 0)
  (0.0148977 -0.00329551 0)
  (0.0108268 -0.00926873 0)
  (-0.010991 -0.0145097 0)
  (-0.0226576 -0.00877638 0)
  (-0.0260469 -0.00625727 0)
  (-0.0288405 -0.00478571 0)
  (-0.0308597 -0.00358641 0)
  (-0.0308793 -0.00280009 0)
  (-0.026716 -0.00137916 0)
  (-0.0291867 0.00306935 0)
  (-0.0464504 0.0119275 0)
  (-0.105182 0.022648 0)
  (0.563731 -0.642708 0)
  (-0.0664152 -0.41223 0)
  (0.149588 -0.226656 0)
  (0.182736 -0.136001 0)
  (0.176263 -0.0901488 0)
  (0.1831 -0.0555561 0)
  (0.192352 -0.0255227 0)
  (0.201415 0.00423858 0)
  (0.205626 0.0354973 0)
  (0.204254 0.0693041 0)
  (0.196904 0.106261 0)
  (0.183221 0.146376 0)
  (0.163571 0.188969 0)
  (0.136698 0.23229 0)
  (0.11321 0.27381 0)
  (0.0813876 0.260205 0)
  (0.0532859 0.232143 0)
  (-0.0294759 0.0904702 0)
  (-0.0534402 -0.0025425 0)
  (-0.0468441 0.00209907 0)
  (-0.0438407 0.00474754 0)
  (-0.0443972 0.00453455 0)
  (-0.0470123 0.00253477 0)
  (-0.0505406 -0.000478206 0)
  (-0.0528998 -0.00227112 0)
  (-0.0514276 -0.00353946 0)
  (-0.0489135 -0.00447291 0)
  (-0.0453924 -0.00508099 0)
  (-0.0412369 -0.00546927 0)
  (-0.0366683 -0.00574875 0)
  (-0.0316378 -0.00603276 0)
  (-0.025691 -0.00635395 0)
  (-0.0181002 -0.00638088 0)
  (-0.0122236 -0.00612356 0)
  (-0.00215782 -0.00380308 0)
  (0.0117759 -0.00171605 0)
  (-0.0431072 0.00269625 0)
  (0.556303 -0.703354 0)
  (-0.164508 -0.440731 0)
  (0.0939566 -0.242614 0)
  (0.0820336 -0.135207 0)
  (0.0531473 -0.0948449 0)
  (0.0644249 -0.0629142 0)
  (0.0743174 -0.0339534 0)
  (0.0818282 -0.00271964 0)
  (0.0882266 0.0326386 0)
  (0.0892238 0.0716165 0)
  (0.0860216 0.114168 0)
  (0.078162 0.159648 0)
  (0.0656444 0.206935 0)
  (0.0466262 0.254239 0)
  (0.0320376 0.299004 0)
  (0.00903229 0.298416 0)
  (-0.000618695 0.26156 0)
  (-0.0488937 0.0877722 0)
  (-0.0471995 0.00721073 0)
  (-0.0579827 0.00285738 0)
  (-0.061775 0.00493442 0)
  (-0.0629655 0.00554041 0)
  (-0.063191 0.00443795 0)
  (-0.0628347 0.00230357 0)
  (-0.0616863 -5.92943e-05 0)
  (-0.059741 -0.00247159 0)
  (-0.0573948 -0.00422249 0)
  (-0.0546456 -0.00542016 0)
  (-0.0515917 -0.00625329 0)
  (-0.0482882 -0.00698927 0)
  (-0.0446314 -0.00798215 0)
  (-0.0402585 -0.00962128 0)
  (-0.0345627 -0.0121974 0)
  (-0.0267471 -0.0156668 0)
  (-0.0149899 -0.0185822 0)
  (0.00768481 -0.020278 0)
  (0.0317085 -0.0174109 0)
  (0.0679147 -0.0238456 0)
  (0.098999 -0.00311665 0)
  (-0.0469527 0.0432135 0)
  (0.504766 -0.712429 0)
  (-0.204801 -0.447804 0)
  (0.0306033 -0.234326 0)
  (-0.00826905 -0.107423 0)
  (-0.0475073 -0.0957454 0)
  (-0.0327859 -0.070918 0)
  (-0.0263778 -0.0430537 0)
  (-0.0212531 -0.0101101 0)
  (-0.0164324 0.0287054 0)
  (-0.0157193 0.0717068 0)
  (-0.016559 0.11843 0)
  (-0.0199738 0.16815 0)
  (-0.0261384 0.219686 0)
  (-0.036243 0.270462 0)
  (-0.0407816 0.31363 0)
  (-0.0506279 0.313803 0)
  (-0.0446053 0.263704 0)
  (-0.0608828 0.0968742 0)
  (-0.0529893 0.0237767 0)
  (-0.0619676 0.0100989 0)
  (-0.0656773 0.0071066 0)
  (-0.066253 0.00543033 0)
  (-0.065243 0.00317699 0)
  (-0.0635772 0.000371669 0)
  (-0.0617011 -0.0024503 0)
  (-0.0599641 -0.00489406 0)
  (-0.0584624 -0.00669493 0)
  (-0.0572197 -0.00789491 0)
  (-0.0563273 -0.00867342 0)
  (-0.0558851 -0.00936525 0)
  (-0.0558943 -0.0104922 0)
  (-0.056165 -0.0126934 0)
  (-0.056213 -0.0165884 0)
  (-0.0550242 -0.0225993 0)
  (-0.0506911 -0.0306795 0)
  (-0.0406816 -0.0412004 0)
  (-0.025724 -0.0540016 0)
  (-0.00576641 -0.0618562 0)
  (0.0739046 -0.00937271 0)
  (-0.0798347 0.0889908 0)
  (0.393995 -0.650516 0)
  (-0.208924 -0.407765 0)
  (-0.0851854 -0.204195 0)
  (-0.091102 -0.0784088 0)
  (-0.145319 -0.093406 0)
  (-0.132246 -0.0754443 0)
  (-0.127496 -0.047414 0)
  (-0.12281 -0.0123077 0)
  (-0.118089 0.0278145 0)
  (-0.11535 0.0718946 0)
  (-0.112469 0.119663 0)
  (-0.109807 0.170666 0)
  (-0.107395 0.223495 0)
  (-0.105264 0.274278 0)
  (-0.0977026 0.312883 0)
  (-0.0910861 0.309925 0)
  (-0.0718757 0.249032 0)
  (-0.0664969 0.09609 0)
  (-0.0574986 0.031213 0)
  (-0.0610279 0.0140013 0)
  (-0.0614553 0.00781704 0)
  (-0.0598687 0.00417371 0)
  (-0.0572667 0.00101962 0)
  (-0.0544664 -0.00190126 0)
  (-0.0522934 -0.00437266 0)
  (-0.0508623 -0.00627022 0)
  (-0.0502178 -0.00747041 0)
  (-0.0504206 -0.00795263 0)
  (-0.0516958 -0.00782905 0)
  (-0.0544421 -0.00746731 0)
  (-0.0590748 -0.00759674 0)
  (-0.065856 -0.00913221 0)
  (-0.0745421 -0.0128465 0)
  (-0.0844108 -0.0193828 0)
  (-0.0945284 -0.0294947 0)
  (-0.103521 -0.0438239 0)
  (-0.108269 -0.0599922 0)
  (-0.102809 -0.0637174 0)
  (-0.0870371 -0.0163413 0)
  (-0.146953 0.160478 0)
  (0.226063 -0.506992 0)
  (-0.316569 -0.321203 0)
  (-0.303883 -0.191391 0)
  (-0.193948 -0.0610651 0)
  (-0.262737 -0.104261 0)
  (-0.23444 -0.0867578 0)
  (-0.224918 -0.0552549 0)
  (-0.218156 -0.0173017 0)
  (-0.211231 0.0243294 0)
  (-0.204879 0.0683301 0)
  (-0.196629 0.115161 0)
  (-0.185835 0.164825 0)
  (-0.172159 0.215847 0)
  (-0.155354 0.263647 0)
  (-0.133281 0.296912 0)
  (-0.110268 0.290123 0)
  (-0.0807176 0.223198 0)
  (-0.0621103 0.0866618 0)
  (-0.0521284 0.0309253 0)
  (-0.0507024 0.0132751 0)
  (-0.0471263 0.00555467 0)
  (-0.0422822 0.000933604 0)
  (-0.0375002 -0.00216994 0)
  (-0.0339762 -0.00425554 0)
  (-0.0316807 -0.00570108 0)
  (-0.0305235 -0.00660451 0)
  (-0.0303146 -0.0068485 0)
  (-0.0309386 -0.00624466 0)
  (-0.0324987 -0.00464465 0)
  (-0.0354052 -0.00208 0)
  (-0.0401466 0.00108557 0)
  (-0.0484337 0.00377675 0)
  (-0.0622012 0.00399786 0)
  (-0.0827944 -0.000723552 0)
  (-0.110376 -0.0120105 0)
  (-0.142663 -0.0290502 0)
  (-0.175031 -0.0485416 0)
  (-0.206096 -0.065732 0)
  (-0.256664 -0.0729827 0)
  (-0.467098 -0.057354 0)
  (-0.0224509 -0.365218 0)
  (-0.634804 -0.320747 0)
  (-0.832964 -0.31363 0)
  (-0.245675 -0.178609 0)
  (-0.359414 -0.143391 0)
  (-0.309585 -0.104248 0)
  (-0.298065 -0.0644856 0)
  (-0.292888 -0.0253275 0)
  (-0.286767 0.0153404 0)
  (-0.277338 0.0580596 0)
  (-0.263053 0.102069 0)
  (-0.242807 0.147788 0)
  (-0.216159 0.194126 0)
  (-0.183358 0.236796 0)
  (-0.145243 0.265048 0)
  (-0.106817 0.256672 0)
  (-0.0684935 0.190889 0)
  (-0.0397671 0.0728972 0)
  (-0.0285686 0.0263086 0)
  (-0.0242548 0.0100771 0)
  (-0.0169396 0.00247094 0)
  (-0.0100986 -0.00145612 0)
  (-0.00529696 -0.00316088 0)
  (-0.00217825 -0.00381665 0)
  (-0.000532453 -0.00409925 0)
  (-2.03387e-05 -0.00416818 0)
  (-0.000265722 -0.00386855 0)
  (-0.000924711 -0.00290206 0)
  (-0.00172152 -0.000961535 0)
  (-0.00245658 0.0021389 0)
  (-0.00283249 0.00647327 0)
  (-0.00328559 0.0117939 0)
  (-0.00406136 0.0167847 0)
  (-0.00540974 0.0193656 0)
  (-0.00708948 0.0175301 0)
  (-0.00995338 0.0101579 0)
  (-0.0130103 -0.0016425 0)
  (-0.00130121 -0.0193893 0)
  (0.0282913 -0.0859493 0)
  (-0.374979 -0.186914 0)
  (-1.78905 -0.334234 0)
  (-0.132056 -0.288985 0)
  (-0.346607 -0.17418 0)
  (-0.334168 -0.107009 0)
  (-0.33851 -0.0540514 0)
  (-0.340824 -0.0102539 0)
  (-0.337235 0.0259541 0)
  (-0.326488 0.0570612 0)
  (-0.307293 0.0896898 0)
  (-0.278133 0.124331 0)
  (-0.238648 0.160235 0)
  (-0.189905 0.194149 0)
  (-0.135153 0.217259 0)
  (-0.0812789 0.211191 0)
  (-0.0314022 0.156559 0)
  (0.0153163 0.0521059 0)
  (0.0242596 0.0191428 0)
  (0.0284197 0.00538782 0)
  (0.0337586 -0.00309729 0)
  (0.0363901 -0.00604798 0)
  (0.0376205 -0.00615309 0)
  (0.0379805 -0.00530836 0)
  (0.0377344 -0.0043609 0)
  (0.0370588 -0.00348286 0)
  (0.0361121 -0.00249542 0)
  (0.035101 -0.00107025 0)
  (0.034334 0.00114137 0)
  (0.0342524 0.00433742 0)
  (0.0351525 0.00803023 0)
  (0.0374487 0.0121244 0)
  (0.0411455 0.015452 0)
  (0.0460108 0.0158437 0)
  (0.0515719 0.0111972 0)
  (0.0578183 0.000216858 0)
  (0.06222 -0.0146317 0)
  (0.0695893 -0.0316762 0)
  (0.106389 -0.0685589 0)
  (-0.0812881 -0.132804 0)
  (-0.198408 0.0620395 0)
  (-0.0718637 -0.252987 0)
  (-0.260218 -0.172516 0)
  (-0.318051 -0.138503 0)
  (-0.354781 -0.113853 0)
  (-0.372969 -0.0887099 0)
  (-0.375361 -0.0584921 0)
  (-0.363471 -0.0215656 0)
  (-0.339071 0.0120118 0)
  (-0.300847 0.0445285 0)
  (-0.24844 0.0771815 0)
  (-0.183531 0.109205 0)
  (-0.111103 0.134596 0)
  (-0.0382184 0.134711 0)
  (0.0421496 0.0705631 0)
  (0.0906814 -0.00518426 0)
  (0.104103 -0.0477794 0)
  (0.104238 -0.0719559 0)
  (0.0991246 -0.0798559 0)
  (0.0929752 -0.0800451 0)
  (0.0875509 -0.0773104 0)
  (0.0833143 -0.074049 0)
  (0.0800928 -0.0712011 0)
  (0.077549 -0.068963 0)
  (0.0754184 -0.0672055 0)
  (0.0736195 -0.0656819 0)
  (0.072301 -0.0641214 0)
  (0.0718923 -0.0622027 0)
  (0.0725677 -0.0587349 0)
  (0.0747488 -0.0534969 0)
  (0.0786285 -0.0489103 0)
  (0.0837301 -0.0478111 0)
  (0.0889413 -0.0514297 0)
  (0.0920879 -0.0561477 0)
  (0.0906715 -0.0613059 0)
  (0.0832296 -0.0668094 0)
  (0.109055 -0.0782969 0)
  (-0.133367 -0.0914842 0)
  (0.641193 0.214531 0)
  (0.173583 -0.260094 0)
  (-0.204961 0.212884 0)
  (-0.0902541 0.0928144 0)
  (-0.231828 0.132912 0)
  (-0.297556 0.15622 0)
  (-0.342787 0.167723 0)
  (-0.369185 0.171777 0)
  (-0.378296 0.169923 0)
  (-0.369632 0.163803 0)
  (-0.342913 0.163507 0)
  (-0.297874 0.167807 0)
  (-0.234472 0.176398 0)
  (-0.156399 0.189245 0)
  (-0.0742375 0.204608 0)
  (0.0453689 0.206665 0)
  (0.118223 0.192368 0)
  (0.163003 0.194027 0)
  (0.178252 0.205283 0)
  (0.17733 0.21622 0)
  (0.170515 0.218015 0)
  (0.163451 0.214578 0)
  (0.156898 0.209409 0)
  (0.150629 0.204543 0)
  (0.144604 0.200849 0)
  (0.138933 0.198489 0)
  (0.133752 0.197228 0)
  (0.129205 0.196641 0)
  (0.125467 0.196245 0)
  (0.122765 0.195554 0)
  (0.121284 0.193044 0)
  (0.121246 0.187706 0)
  (0.122648 0.181456 0)
  (0.124452 0.176537 0)
  (0.12456 0.173707 0)
  (0.120164 0.168799 0)
  (0.109307 0.162225 0)
  (0.0887141 0.154839 0)
  (0.125134 0.139335 0)
  (-0.273596 0.177966 0)
)
;

boundaryField
{
  floor
  {
    type noSlip;
  }
  ceiling
  {
    type noSlip;
  }
  sWall
  {
    type noSlip;
  }
  nWall
  {
    type noSlip;
  }
  sideWalls
  {
    type empty;
  }
  glass1
  {
    type noSlip;
  }
  glass2
  {
    type noSlip;
  }
  sun
  {
    type noSlip;
  }
  heatsource1
  {
    type noSlip;
  }
  heatsource2
  {
    type noSlip;
  }
  Table_master
  {
    type noSlip;
  }
  Table_slave
  {
    type noSlip;
  }
  inlet
  {
    type fixedValue;
    value uniform (0.1 0 0);
  }
  outlet
  {
    type zeroGradient;
  }
} 	// ************************************************************************* //

