// -*- C++ -*-
// File generated by PyFoam - sorry for the ugliness

FoamFile
{
 version 2.0;
 format ascii;
 class volScalarField;
 location "30";
 object T;
}

dimensions [ 0 0 0 1 0 0 0 ];

internalField nonuniform List<scalar> 459
(
  305.791
  305.609
  305.563
  305.54
  305.526
  305.561
  305.659
  305.731
  305.788
  305.833
  305.869
  305.905
  305.949
  306.011
  306.116
  307.669
  307.72
  307.757
  307.781
  307.79
  307.785
  307.765
  307.748
  307.738
  307.734
  307.731
  307.731
  307.731
  307.731
  307.731
  307.733
  307.722
  307.71
  307.7
  305.867
  305.652
  305.585
  305.537
  305.488
  305.541
  305.691
  305.824
  305.926
  305.999
  306.049
  306.085
  306.115
  306.145
  306.192
  306.31
  306.606
  307.789
  307.812
  307.831
  307.846
  307.853
  307.855
  307.851
  307.849
  307.849
  307.85
  307.851
  307.851
  307.85
  307.845
  307.834
  307.824
  307.813
  307.807
  307.801
  305.946
  305.704
  305.622
  305.548
  305.438
  305.504
  305.719
  305.927
  306.081
  306.182
  306.242
  306.275
  306.294
  306.307
  306.332
  306.423
  306.662
  307.808
  307.829
  307.851
  307.865
  307.872
  307.876
  307.877
  307.88
  307.883
  307.886
  307.887
  307.887
  307.886
  307.883
  307.873
  307.867
  307.859
  307.854
  307.845
  306.028
  305.772
  305.684
  305.575
  305.382
  305.458
  305.749
  306.046
  306.263
  306.395
  306.464
  306.492
  306.497
  306.493
  306.498
  306.558
  306.73
  306.999
  307.533
  307.752
  307.838
  307.868
  307.88
  307.886
  307.894
  307.899
  307.902
  307.903
  307.903
  307.904
  307.904
  307.904
  307.903
  307.896
  307.89
  307.884
  307.874
  306.114
  305.856
  305.769
  305.589
  305.32
  305.411
  305.785
  306.182
  306.465
  306.627
  306.7
  306.721
  306.712
  306.693
  306.685
  306.729
  306.869
  307.134
  307.482
  307.714
  307.823
  307.865
  307.882
  307.89
  307.895
  307.899
  307.901
  307.902
  307.903
  307.903
  307.904
  307.904
  307.904
  307.904
  307.903
  307.902
  307.898
  307.94
  308.199
  308.304
  306.203
  305.957
  305.878
  305.558
  305.242
  305.365
  305.836
  306.338
  306.681
  306.861
  306.932
  306.944
  306.925
  306.9
  306.891
  306.932
  307.062
  307.316
  307.58
  307.75
  307.832
  307.868
  307.884
  307.891
  307.896
  307.898
  307.9
  307.901
  307.902
  307.903
  307.903
  307.904
  307.906
  307.908
  307.912
  307.918
  307.933
  308.008
  308.216
  308.352
  306.307
  306.073
  305.951
  305.466
  305.114
  305.323
  305.92
  306.526
  306.908
  307.084
  307.141
  307.144
  307.127
  307.11
  307.109
  307.155
  307.282
  307.498
  307.682
  307.792
  307.847
  307.874
  307.886
  307.893
  307.896
  307.898
  307.9
  307.9
  307.901
  307.902
  307.903
  307.904
  307.907
  307.911
  307.918
  307.93
  307.955
  308.034
  308.198
  308.408
  306.429
  306.271
  305.954
  305.222
  304.909
  305.312
  306.078
  306.774
  307.138
  307.27
  307.316
  307.32
  307.314
  307.311
  307.325
  307.374
  307.479
  307.639
  307.757
  307.825
  307.861
  307.879
  307.888
  307.893
  307.896
  307.898
  307.899
  307.899
  307.9
  307.901
  307.902
  307.904
  307.907
  307.914
  307.924
  307.94
  307.967
  308.035
  308.164
  308.504
  306.606
  306.526
  305.525
  304.559
  304.597
  305.437
  306.406
  307.091
  307.337
  307.43
  307.465
  307.474
  307.479
  307.488
  307.51
  307.556
  307.633
  307.733
  307.806
  307.849
  307.872
  307.884
  307.89
  307.893
  307.895
  307.896
  307.897
  307.898
  307.898
  307.899
  307.9
  307.903
  307.908
  307.918
  307.933
  307.956
  307.987
  308.044
  308.151
  308.479
  301.008
  302.513
  304.449
  306.12
  307.03
  307.376
  307.512
  307.569
  307.592
  307.604
  307.614
  307.628
  307.652
  307.688
  307.739
  307.796
  307.839
  307.865
  307.879
  307.887
  307.89
  307.893
  307.894
  307.895
  307.895
  307.895
  307.896
  307.897
  307.898
  307.902
  307.91
  307.924
  307.948
  307.982
  308.026
  308.087
  308.183
  308.385
  305.769
  306.163
  306.661
  307.127
  307.428
  307.576
  307.642
  307.673
  307.691
  307.703
  307.716
  307.73
  307.75
  307.775
  307.806
  307.837
  307.86
  307.875
  307.883
  307.887
  307.889
  307.89
  307.891
  307.892
  307.892
  307.892
  307.892
  307.893
  307.895
  307.9
  307.911
  307.931
  307.963
  308.009
  308.065
  308.13
  308.216
  308.332
  307.104
  307.089
  307.098
  307.239
  307.434
  307.582
  307.67
  307.716
  307.742
  307.759
  307.771
  307.782
  307.793
  307.804
  307.816
  307.831
  307.846
  307.859
  307.869
  307.875
  307.878
  307.879
  307.879
  307.879
  307.879
  307.879
  307.879
  307.879
  307.879
  307.879
  307.881
  307.887
  307.901
  307.928
  307.971
  308.028
  308.09
  308.152
  308.217
  308.298
)
;

boundaryField
{
  floor
  {
    type wallHeatTransfer;
    Tinf uniform 298.84999999999997;
    alphaWall uniform 0.24;
    value nonuniform List<scalar> 29
(
  305.472
  306.498
  306.627
  306.621
  306.651
  306.658
  306.588
  306.401
  306.213
  306.071
  305.987
  305.948
  305.935
  305.936
  305.953
  306.014
  306.181
  306.383
  306.535
  306.524
  306.524
  306.832
  306.983
  307.069
  305.472
  306.498
  306.869
  306.983
  306.217
)
;
  }
  ceiling
  {
    type wallHeatTransfer;
    Tinf uniform 298.84999999999997;
    alphaWall uniform 0.24;
    value nonuniform List<scalar> 43
(
  306.413
  306.462
  306.555
  306.74
  306.941
  307.071
  307.139
  307.17
  307.186
  307.195
  307.203
  307.211
  307.221
  307.233
  307.248
  307.267
  307.288
  307.309
  307.327
  307.34
  307.348
  307.353
  307.356
  307.358
  307.359
  307.36
  307.361
  307.361
  307.361
  307.362
  307.363
  307.367
  307.379
  307.404
  307.444
  307.5
  307.568
  307.643
  307.715
  307.749
  306.164
  306.113
  305.386
)
;
  }
  sWall
  {
    type wallHeatTransfer;
    Tinf uniform 311.1457986111111;
    alphaWall uniform 0.36;
    value uniform 307.593;
  }
  nWall
  {
    type wallHeatTransfer;
    Tinf uniform 299.15;
    alphaWall uniform 0.36;
    value nonuniform List<scalar> 6
(
  307.376
  307.591
  307.777
  307.818
  307.672
  307.524
)
;
  }
  sideWalls
  {
    type empty;
  }
  glass1
  {
    type wallHeatTransfer;
    Tinf uniform 311.1457986111111;
    alphaWall uniform 4.3;
    value nonuniform List<scalar> 9
(
  309.22
  309.054
  308.939
  308.848
  308.777
  308.732
  308.764
  308.845
  308.98
)
;
  }
  glass2
  {
    type wallHeatTransfer;
    Tinf uniform 299.15;
    alphaWall uniform 4.3;
    value nonuniform List<scalar> 2
(
  304.674
  304.796
)
;
  }
  sun
  {
    type wallHeatTransfer;
    Tinf uniform 298.84999999999997;
    alphaWall uniform 0.24;
    value nonuniform List<scalar> 14
(
  305.171
  305.066
  305.055
  305.068
  305.08
  305.128
  305.217
  305.275
  305.316
  305.342
  305.357
  305.371
  305.389
  305.417
)
;
  }
  heatsource1
  {
    type fixedGradient;
    gradient uniform 0;
  }
  heatsource2
  {
    type fixedGradient;
    gradient uniform 0;
  }
  Table_master
  {
    type zeroGradient;
  }
  Table_slave
  {
    type zeroGradient;
  }
  inlet
  {
    type fixedValue;
    value uniform 300.15;
  }
  outlet
  {
    type zeroGradient;
  }
} 	// ************************************************************************* //

