/*--------------------------------*- C++ -*----------------------------------*\
  =========                 |
  \\      /  F ield         | OpenFOAM: The Open Source CFD Toolbox
   \\    /   O peration     | Website:  https://openfoam.org
    \\  /    A nd           | Version:  6
     \\/     M anipulation  |
\*---------------------------------------------------------------------------*/
FoamFile
{
    version     2.0;
    format      ascii;
    class       volScalarField;
    location    "90";
    object      nut;
}
// * * * * * * * * * * * * * * * * * * * * * * * * * * * * * * * * * * * * * //

dimensions      [0 2 -1 0 0 0 0];

internalField   nonuniform List<scalar> 
459
(
0.00205587
0.00235111
0.00231078
0.00217071
0.002017
0.00187565
0.00175378
0.00164576
0.001548
0.00145766
0.00137209
0.00128835
0.00120254
0.00110762
0.00100228
0.000680033
0.000875134
0.000969766
0.000980161
0.00096563
0.000939025
0.000894593
0.000847402
0.000804095
0.000765514
0.000731193
0.000700558
0.000673009
0.000648062
0.000624622
0.000601281
0.000575882
0.000538518
0.00049827
0.00240729
0.00734056
0.00648747
0.00575245
0.00521332
0.00483069
0.00449353
0.00418835
0.00389582
0.00359723
0.00327269
0.00290325
0.00247658
0.00199015
0.00148366
0.000979137
0.000858292
0.000973764
0.00317315
0.00289006
0.00315826
0.00340995
0.00336675
0.00253858
0.00216483
0.00191985
0.00174219
0.00160637
0.00149754
0.00140645
0.0013123
0.0012057
0.00110036
0.00102784
0.000852259
0.000544546
0.00253036
0.00912219
0.00708736
0.0059045
0.00533522
0.00512052
0.00501631
0.00491554
0.00476251
0.00452973
0.00420422
0.00378196
0.00326964
0.00268797
0.00208038
0.00150512
0.00087781
0.000939374
0.00278952
0.0031242
0.00373836
0.00422165
0.00403091
0.00114893
0.00102905
0.00092932
0.000847387
0.000779973
0.000723967
0.000676773
0.000637827
0.000608665
0.000690403
0.000857094
0.000919153
0.000578028
0.00250704
0.00894697
0.00648024
0.00509816
0.00483908
0.00509475
0.00530024
0.00536272
0.00528603
0.00507712
0.00475184
0.00432591
0.00381645
0.00324802
0.00264452
0.00204137
0.00135244
0.000909617
0.00162283
0.00249516
0.00362239
0.00460708
0.00521954
0.00492158
0.00125099
0.00115442
0.00107639
0.0010128
0.000957112
0.000905063
0.000853326
0.000798733
0.000736292
0.000704956
0.00079803
0.00103817
0.000630936
0.00246155
0.00758164
0.00557969
0.00475939
0.00519542
0.00564388
0.00580574
0.00584379
0.00576599
0.00556744
0.00526775
0.00488776
0.00444052
0.00395721
0.00346041
0.00300311
0.00263839
0.00285065
0.00375807
0.00481772
0.00573398
0.00638177
0.00672757
0.00668731
0.00576216
0.00522062
0.00487409
0.00452044
0.00414119
0.00371879
0.00323667
0.0026827
0.00205524
0.00143838
0.00109299
0.00115382
0.000875136
0.000682833
0.000723871
0.00113741
0.0023803
0.0060989
0.00470004
0.00479055
0.00561336
0.00601645
0.00612591
0.00614237
0.00610095
0.00600577
0.00585075
0.00563705
0.00536025
0.00507611
0.00483061
0.00472748
0.00488288
0.00564738
0.00650161
0.00718584
0.00765291
0.00789165
0.00792433
0.00778237
0.00746699
0.00714217
0.00677786
0.0063389
0.00582262
0.00522255
0.00452979
0.00374202
0.00287915
0.00203754
0.00144323
0.00125078
0.00106391
0.0010866
0.00141396
0.00144048
0.00226412
0.00488903
0.00410109
0.00468644
0.00538991
0.00563817
0.00565682
0.00566424
0.00570192
0.00576909
0.00585814
0.00595295
0.00604273
0.00612667
0.00625407
0.00653053
0.00702506
0.00772412
0.00824093
0.00856367
0.0086895
0.00863277
0.00843523
0.00816431
0.00787582
0.00756347
0.00718294
0.00672349
0.00617671
0.0055376
0.00480397
0.00398194
0.00309907
0.00224922
0.001606
0.00128479
0.00111466
0.0013345
0.002237
0.00196117
0.00211227
0.00372391
0.00365112
0.00494396
0.00529545
0.00536937
0.00534375
0.00538895
0.00548855
0.00562292
0.00579283
0.0060003
0.00625369
0.00656731
0.0069618
0.0074676
0.0080142
0.00849541
0.00879676
0.00889406
0.00879445
0.00852546
0.00815008
0.00774179
0.00733414
0.00693028
0.00651659
0.00604965
0.00551093
0.00490059
0.00423045
0.00352147
0.00280512
0.00214198
0.00160801
0.00128351
0.00115315
0.00146419
0.00427507
0.00281004
0.00186522
0.00190569
0.00297453
0.00600132
0.00604326
0.00586857
0.00578203
0.00583148
0.00594781
0.00610129
0.00628688
0.00650452
0.00676154
0.00706649
0.0074246
0.00782507
0.00820788
0.00848236
0.00858389
0.00849907
0.0082484
0.00787542
0.00744573
0.00701146
0.00660509
0.00622946
0.00584624
0.00542505
0.00495286
0.00443045
0.00386813
0.00328423
0.00270589
0.00217276
0.00173091
0.00144249
0.00147227
0.00239745
0.00664741
0.00328576
0.00174635
0.00681605
0.00719641
0.00696065
0.00677294
0.00672227
0.00679981
0.006985
0.00720873
0.00744383
0.00768613
0.00793309
0.00817434
0.00838617
0.00852982
0.00856761
0.00849297
0.00833294
0.00812348
0.00789013
0.00765616
0.00743816
0.00722954
0.0070198
0.00679661
0.00654952
0.0062709
0.00595424
0.00559267
0.00517934
0.00471088
0.00419525
0.00366864
0.00324236
0.00323133
0.0044442
0.0077504
0.00290893
0.00275069
0.00871383
0.00889173
0.00842249
0.00808581
0.00785735
0.00779158
0.00800394
0.00826146
0.00849852
0.00870924
0.00889692
0.00906007
0.00918911
0.00926662
0.00927169
0.00919056
0.00905502
0.0089023
0.00875105
0.00861018
0.00848124
0.00835992
0.00824082
0.00811883
0.00798878
0.00784374
0.00767288
0.00745986
0.00718265
0.00681716
0.0063494
0.00580227
0.0052805
0.00502113
0.00541486
0.00607632
0.00249564
0.00111237
0.000916112
0.00129416
0.00198662
0.00217248
0.00217126
0.00212316
0.00206447
0.00202565
0.00204172
0.00206263
0.00208021
0.00209511
0.00210804
0.00211874
0.00212616
0.00212907
0.00212712
0.00212268
0.00211585
0.00210726
0.00209861
0.00209089
0.00208408
0.0020781
0.00207255
0.00206668
0.00205939
0.00204922
0.00203434
0.00201291
0.00198385
0.00194858
0.00191402
0.00189721
0.00192646
0.0020258
0.0021899
0.00230661
0.00209297
)
;

boundaryField
{
    floor
    {
        type            nutkWallFunction;
        Cmu             0.09;
        kappa           0.41;
        E               9.8;
        value           nonuniform List<scalar> 
29
(
0.000120997
8.2279e-05
0.000105929
0.000117176
0.000118401
0.000116688
0.000113542
0.000108263
0.000102622
9.74115e-05
9.27419e-05
8.85644e-05
8.48158e-05
8.1428e-05
7.83461e-05
7.54374e-05
7.25282e-05
6.93469e-05
6.46363e-05
5.95118e-05
5.95118e-05
6.53819e-05
6.95918e-05
7.61907e-05
0.000120997
8.22789e-05
0.000117635
0.000113565
0.000110033
)
;
    }
    ceiling
    {
        type            nutkWallFunction;
        Cmu             0.09;
        kappa           0.41;
        E               9.8;
        value           nonuniform List<scalar> 
43
(
0.000133915
0.00011082
0.000154879
0.000232131
0.000252309
0.000252158
0.000246931
0.000240541
0.000236312
0.000238063
0.000240338
0.000242248
0.000243867
0.000245271
0.000246433
0.000247239
0.000247557
0.000247348
0.000246868
0.000246129
0.000245199
0.000244262
0.000243425
0.000242687
0.000242037
0.000241435
0.000240797
0.000240003
0.000238894
0.000237272
0.000234931
0.000231755
0.000227896
0.000224111
0.000222272
0.000225487
0.000236342
0.000254149
0.00026673
0.000243662
0.000218653
0.000223076
0.000313928
)
;
    }
    sWall
    {
        type            nutkWallFunction;
        Cmu             0.09;
        kappa           0.41;
        E               9.8;
        value           uniform 0.000133909;
    }
    nWall
    {
        type            nutkWallFunction;
        Cmu             0.09;
        kappa           0.41;
        E               9.8;
        value           nonuniform List<scalar> 6(0.000136811 0.000171492 0.000229283 0.000330606 0.00028694 0.000243657);
    }
    sideWalls
    {
        type            empty;
    }
    glass1
    {
        type            nutkWallFunction;
        Cmu             0.09;
        kappa           0.41;
        E               9.8;
        value           nonuniform List<scalar> 9(0.000239369 0.000277204 0.000290312 0.000287832 0.000282989 0.000274316 0.00026186 0.000245475 0.00021855);
    }
    glass2
    {
        type            nutkWallFunction;
        Cmu             0.09;
        kappa           0.41;
        E               9.8;
        value           nonuniform List<scalar> 2(0.000319986 0.000369625);
    }
    sun
    {
        type            nutkWallFunction;
        Cmu             0.09;
        kappa           0.41;
        E               9.8;
        value           nonuniform List<scalar> 
14
(
0.000239502
0.000271354
0.000267033
0.000251953
0.000235285
0.000219837
0.000206417
0.000194439
0.000183524
0.00017337
0.000163689
0.000154149
0.000144301
0.000133316
)
;
    }
    heatsource1
    {
        type            nutkWallFunction;
        Cmu             0.09;
        kappa           0.41;
        E               9.8;
        value           nonuniform List<scalar> 3(8.25971e-05 8.76497e-05 0.000136826);
    }
    heatsource2
    {
        type            nutkWallFunction;
        Cmu             0.09;
        kappa           0.41;
        E               9.8;
        value           nonuniform List<scalar> 4(0.000118278 0.000103915 0.000103915 0.000106249);
    }
    Table_master
    {
        type            nutkWallFunction;
        Cmu             0.09;
        kappa           0.41;
        E               9.8;
        value           nonuniform List<scalar> 9(0.000138135 0.000124163 0.000112396 0.000102619 9.44913e-05 8.76746e-05 8.18804e-05 7.70608e-05 7.34278e-05);
    }
    Table_slave
    {
        type            nutkWallFunction;
        Cmu             0.09;
        kappa           0.41;
        E               9.8;
        value           nonuniform List<scalar> 9(0.000149896 0.000138762 0.00012969 0.00012224 0.000115673 0.000109497 0.000103317 9.67489e-05 8.91707e-05);
    }
    inlet
    {
        type            calculated;
        value           uniform 6.7082e-05;
    }
    outlet
    {
        type            calculated;
        value           nonuniform List<scalar> 2(0.00111237 0.000916112);
    }
}


// ************************************************************************* //
