/*--------------------------------*- C++ -*----------------------------------*\
  =========                 |
  \\      /  F ield         | OpenFOAM: The Open Source CFD Toolbox
   \\    /   O peration     | Website:  https://openfoam.org
    \\  /    A nd           | Version:  6
     \\/     M anipulation  |
\*---------------------------------------------------------------------------*/
FoamFile
{
    version     2.0;
    format      ascii;
    class       surfaceScalarField;
    location    "700";
    object      phi;
}
// * * * * * * * * * * * * * * * * * * * * * * * * * * * * * * * * * * * * * //

dimensions      [1 0 -1 0 0 0 0];

internalField   nonuniform List<scalar> 
852
(
-0.00287706
0.00293458
-0.00380537
0.000928316
-0.00456096
0.000755602
-0.00518918
0.000628223
-0.00566162
0.000472456
-0.00595966
0.000298043
-0.00606111
0.00010146
-0.00594006
-0.00012104
-0.00557624
-0.000363813
-0.00497811
-0.000598114
-0.00419004
-0.000788061
-0.00328043
-0.000909608
-0.00231151
-0.000968907
-0.00127359
-0.00103792
-0.0012721
-0.000520209
0.00052315
-6.77199e-05
-0.000452476
0.000531411
-0.000599118
0.000927923
-0.000396499
0.0011633
-0.000235364
0.00129396
-0.000130643
0.00135689
-6.29204e-05
0.00138659
-2.9686e-05
0.00140131
-1.47096e-05
0.00140744
-6.12088e-06
0.0014073
1.56952e-07
0.00140126
6.05688e-06
0.00138659
1.46814e-05
0.00135463
3.19733e-05
0.00128367
7.09797e-05
0.00113854
0.000145145
0.000910965
0.000227599
0.000666747
0.00024424
0.000670817
-0.00205417
0.0051433
-0.00299574
0.0018699
-0.00378717
0.00154704
-0.0044068
0.00124786
-0.00486822
0.000933887
-0.00516607
0.000595901
-0.00527882
0.000214217
-0.00517784
-0.000222008
-0.00484761
-0.000694036
-0.00430754
-0.00113818
-0.00361379
-0.0014818
-0.00284083
-0.00168256
-0.0020689
-0.00174083
-0.00142191
-0.0016849
-0.00123871
-0.00145529
-0.000390769
-0.000847977
-0.000390811
0.00067169
-0.000141059
0.000999604
-0.000780378
0.0011656
-0.000765099
0.00132982
-0.000560709
0.00144442
-0.000349955
0.00149817
-0.000184379
0.00150006
-6.47977e-05
0.00150079
-3.03991e-05
0.00150216
-1.60679e-05
0.0015034
-7.34229e-06
0.00150413
-5.6862e-07
0.00150406
6.14764e-06
0.00150219
1.65679e-05
0.00149482
3.93492e-05
0.00145342
0.000112402
0.00127975
0.000318826
0.000980353
0.000527017
0.000610026
0.000614586
0.00129096
-0.0014481
0.00682705
-0.00228276
0.00270458
-0.00298889
0.00225317
-0.00351789
0.00177687
-0.00392013
0.00133614
-0.00419237
0.00086815
-0.00430423
0.000326083
-0.00420918
-0.000317054
-0.00388711
-0.00101609
-0.00337428
-0.001651
-0.00274088
-0.0021152
-0.00206303
-0.0023604
-0.00141662
-0.00238723
-0.000882093
-0.00221942
-0.000495831
-0.00184155
-8.8989e-05
-0.00125481
-0.000479791
0.00127207
-0.00140458
0.00150818
-0.00101648
0.00152193
-0.000778832
0.00154831
-0.00058708
0.00158151
-0.000383141
0.00156456
-0.000167411
0.00149992
0.00146969
0.00145379
0.00144662
0.00144621
0.00145253
0.00146926
0.00150878
0.00162135
0.00134477
0.000595425
0.00100194
0.000869861
0.000555921
0.00106062
0.00186212
-0.00102596
0.008157
-0.00171449
0.00339312
-0.00218383
0.00272252
-0.00253761
0.00213066
-0.00281882
0.00161737
-0.00301993
0.00106927
-0.00310285
0.000409007
-0.00298504
-0.000434851
-0.00265115
-0.00134997
-0.00217034
-0.0021318
-0.00162464
-0.00266089
-0.00107969
-0.00290535
-0.000585931
-0.00288098
-0.000168584
-0.00263676
0.000197191
-0.00220731
0.000592318
-0.00164993
0.00120707
-0.00109453
0.0020153
-0.000800018
0.00157299
-0.000962257
0.00150708
-0.000950555
0.00147907
-0.000750811
0.00146132
-0.000569321
0.00148282
-0.00040463
0.00156129
-0.000245864
0.00168944
-0.000128283
0.00179859
-0.00010929
0.00189746
-9.90107e-05
0.00197934
-8.20203e-05
0.00202697
-4.77656e-05
0.00201599
1.08397e-05
0.00192108
9.47795e-05
0.00171176
0.00020918
0.00133587
0.000375755
0.00118904
0.000742272
0.000876224
0.00118269
0.000385179
0.00155169
0.00226715
-0.000729674
0.00924818
-0.00127971
0.00394316
-0.0013895
0.00283232
-0.00149597
0.00223713
-0.00159756
0.00171897
-0.00166761
0.00113932
-0.00166676
0.000408174
-0.00146796
-0.000633646
-0.00111385
-0.00170407
-0.000701426
-0.00254423
-0.000300019
-0.00306229
5.14049e-05
-0.00325677
0.000334508
-0.00316408
0.000551954
-0.0028542
0.000739732
-0.00239508
0.000950489
-0.00186068
0.00121372
-0.00135775
0.00143237
-0.00101866
0.00137465
-0.00090453
0.0012452
-0.000821093
0.00116389
-0.000669489
0.00111773
-0.00052314
0.00111401
-0.000400898
0.00116374
-0.000295579
0.00126388
-0.000228412
0.001362
-0.000207394
0.00146004
-0.000197035
0.00155117
-0.000173133
0.00162196
-0.000118533
0.00165105
-1.82362e-05
0.00161764
0.000128207
0.00151292
0.000313913
0.00134107
0.000547627
0.0011854
0.000897956
0.00101204
0.00135607
0.000636507
0.00192724
0.000468593
0.00243509
-0.00104576
0.00151417
-0.00149855
0.000452608
-0.00145011
-0.000643632
0.0103015
-0.00104904
0.00434858
-0.000664502
0.0024478
-0.000419255
0.0019919
-0.000297359
0.00159708
-0.00019503
0.001037
1.09098e-05
0.000202245
0.000349886
-0.000972613
0.000692047
-0.00204623
0.000967612
-0.00281979
0.00115063
-0.0032453
0.00124014
-0.00334628
0.00125629
-0.00318023
0.00122408
-0.00282199
0.00117339
-0.00234438
0.00113738
-0.00182467
0.00112265
-0.00134301
0.00108871
-0.000984701
0.000970352
-0.000786159
0.000812043
-0.00066277
0.000693794
-0.000551225
0.000628691
-0.000458022
0.000616028
-0.000388219
0.000656086
-0.00033562
0.000734171
-0.00030648
0.00082602
-0.000299225
0.000924297
-0.000295295
0.00102532
-0.00027414
0.00112273
-0.000215922
0.00120356
-9.90442e-05
0.00124757
8.42067e-05
0.0012529
0.00030861
0.00123239
0.000568147
0.00123722
0.000893145
0.00131567
0.00127764
0.00147795
0.00176498
0.00189729
0.00201577
0.0021371
0.00127439
0.00174707
0.000842655
0.000355361
-0.00076359
0.0115177
-0.000697847
0.00428284
0.00034388
0.00140608
0.000912294
0.0014235
0.0012356
0.00127379
0.00158278
0.000689837
0.00203351
-0.000248472
0.00242984
-0.00136893
0.002661
-0.00227738
0.00271232
-0.0028711
0.0026069
-0.00313988
0.00238188
-0.00312126
0.0020819
-0.00288025
0.00174987
-0.00248995
0.00142056
-0.00201506
0.00112322
-0.00152732
0.000865689
-0.00108547
0.000643477
-0.000762477
0.000432074
-0.000574741
0.000250061
-0.000480742
0.000123498
-0.000424646
5.53449e-05
-0.000389851
3.70014e-05
-0.000369858
6.06888e-05
-0.000359289
0.000112975
-0.000358748
0.000179816
-0.000366047
0.000255567
-0.000371027
0.000341877
-0.000360431
0.000444071
-0.000318096
0.000566847
-0.000221801
0.00069386
-4.27869e-05
0.000813637
0.000188852
0.000939446
0.000442357
0.00111579
0.000716815
0.00139276
0.00100069
0.0018339
0.00132385
0.00249513
0.00135456
0.00302419
0.000745347
0.00306329
0.00080358
0.00348302
0.00247694
0.00954609
0.00309446
0.00366534
0.00329206
0.00120849
0.00353786
0.00117771
0.00379324
0.00101843
0.0042127
0.000270385
0.00467286
-0.000708614
0.00486288
-0.00155894
0.00475566
-0.00217017
0.0044011
-0.00251654
0.00387241
-0.0026112
0.00324226
-0.00249111
0.00257687
-0.00221486
0.00192886
-0.00184194
0.00132681
-0.001413
0.000802996
-0.00100349
0.000362861
-0.000645318
2.60729e-05
-0.000425673
-0.000217708
-0.000330944
-0.000384987
-0.000313445
-0.000494498
-0.000315117
-0.000561283
-0.000323048
-0.000596974
-0.000334148
-0.000609258
-0.000346987
-0.000606205
-0.000361781
-0.000595312
-0.00037692
-0.000579368
-0.000386951
-0.000555545
-0.000384234
-0.000514154
-0.000359468
-0.000434247
-0.000301688
-0.0002809
-0.000196114
-8.38627e-05
-8.16502e-06
0.000136637
0.000221877
0.000413576
0.000439896
0.000761892
0.000652398
0.00122716
0.000858599
0.00173449
0.000847256
0.001942
0.000537848
0.00115192
0.00159369
0.00489236
0.0100992
0.0137562
0.0122741
0.00269066
0.011061
0.00239077
0.0101857
0.00189375
0.00949779
0.000958285
0.00868765
0.000101527
0.00770433
-0.000575635
0.00661879
-0.00108464
0.00549611
-0.00139386
0.00438356
-0.00149866
0.00331611
-0.00142366
0.00232999
-0.00122873
0.00145632
-0.000968263
0.000683314
-0.000639984
4.38255e-05
-0.00036399
-0.000419976
-0.0001815
-0.000709256
-0.000136377
-0.000891021
-0.00014916
-0.00102343
-0.000181019
-0.00112643
-0.000212098
-0.00121016
-0.000239297
-0.00128181
-0.000262475
-0.00134687
-0.000281913
-0.00141111
-0.000297522
-0.00148077
-0.000307236
-0.00156167
-0.000306034
-0.00165989
-0.000285997
-0.00178322
-0.000236109
-0.00194234
-0.000142551
-0.00214549
7.05748e-06
-0.00237281
0.000219169
-0.00265502
0.00050411
-0.00309238
0.000877277
-0.00377764
0.00133767
-0.00477543
0.00185641
-0.00620113
0.00227297
-0.00792707
0.00226381
-0.00744368
0.00111032
-0.002266
0.00480734
0.00395451
0.00439858
0.00279947
0.00522966
0.0010626
0.00544352
0.000744365
0.00519337
0.000351607
0.00472043
-0.000102744
0.0040729
-0.000437139
0.00329787
-0.000618853
0.00245249
-0.000653278
0.00158492
-0.000556079
0.000750378
-0.000394184
-1.40393e-05
-0.00020383
-0.000636343
-1.76635e-05
-0.00104624
4.59264e-05
-0.00127472
4.69966e-05
-0.00141766
6.5841e-06
-0.00152678
-4.00215e-05
-0.00162773
-8.0054e-05
-0.00172823
-0.00011158
-0.00183032
-0.000137181
-0.00193574
-0.00015704
-0.00204621
-0.000171424
-0.00216366
-0.00018005
-0.00228967
-0.000181197
-0.00242453
-0.00017116
-0.00256628
-0.000144225
-0.00270952
-9.28501e-05
-0.00284471
-7.3415e-06
-0.00295903
0.000121399
-0.00304867
0.00030883
-0.00312621
0.000581667
-0.00320165
0.000952741
-0.00327512
0.00141116
-0.00330247
0.00188379
-0.00323042
0.00220093
-0.00288877
0.00192218
-0.00161514
-0.000163294
-0.00380594
-0.000564421
0.00457416
0.000754819
0.00148018
0.00105841
0.000758956
0.00128307
0.000519671
0.00135479
0.00027986
0.00120262
4.94132e-05
0.000866514
-0.00010103
0.00038182
-0.000134151
-0.000192787
-7.865e-05
-0.000766529
1.76797e-05
-0.00125136
9.0668e-05
-0.00158887
0.000133691
-0.00175534
0.000148832
-0.00183612
0.000126721
-0.00188037
9.12667e-05
-0.00192365
4.98806e-05
-0.00197926
1.56051e-05
-0.00204872
-1.05685e-05
-0.00213015
-3.01351e-05
-0.00222193
-4.53745e-05
-0.00232191
-5.70435e-05
-0.00242781
-6.55019e-05
-0.00253715
-7.06881e-05
-0.00264653
-7.18004e-05
-0.00275066
-6.70101e-05
-0.00284156
-5.3305e-05
-0.00290779
-2.65968e-05
-0.00293428
1.91689e-05
-0.00291019
9.73285e-05
-0.00281478
0.000213436
-0.00261545
0.000382361
-0.00228606
0.000623374
-0.00181189
0.000937006
-0.00117132
0.00124323
-0.000188114
0.00121775
0.00114986
0.000584226
0.00159188
-0.00060529
-0.00213154
-0.0074363
-0.0102004
-0.00558414
-0.0040815
-0.00330701
-0.00277573
-0.00248735
-0.00243208
-0.00252934
-0.0026614
-0.00273935
-0.00272212
-0.00263286
-0.0025015
-0.00235586
-0.00223301
-0.00214605
-0.00210076
-0.0020899
-0.0021053
-0.00214033
-0.00219062
-0.00225259
-0.00232301
-0.00239859
-0.00247524
-0.00254703
-0.00260505
-0.00263627
-0.00262161
-0.00252868
-0.00231951
-0.0019413
-0.00132197
-0.000388911
0.000850414
0.00206417
0.00264425
0.00203458
)
;

boundaryField
{
    floor
    {
        type            calculated;
        value           nonuniform List<scalar> 
29
(
0
0
0
0
0
0
0
0
0
0
0
0
0
0
0
0
0
0
0
0
-4.04793e-06
-1.00937e-05
-1.52146e-05
-1.98385e-05
-1.47855e-06
-2.92843e-06
-7.4671e-06
-8.54168e-06
-8.20597e-06
)
;
    }
    ceiling
    {
        type            calculated;
        value           nonuniform List<scalar> 
43
(
-4.47515e-05
-4.3461e-05
-4.21477e-05
-2.24564e-05
-1.55165e-05
-1.15946e-05
-8.501e-06
-5.83517e-06
-3.7502e-06
-2.07442e-06
-6.83469e-07
4.65594e-07
1.42044e-06
2.34948e-06
3.2107e-06
3.88596e-06
4.33443e-06
4.60477e-06
4.76298e-06
4.8552e-06
4.90859e-06
4.93826e-06
4.94728e-06
4.93735e-06
4.90977e-06
4.86564e-06
4.80587e-06
4.73104e-06
4.64104e-06
4.53434e-06
4.41311e-06
4.29022e-06
4.17042e-06
4.06013e-06
3.97153e-06
3.92851e-06
4.00613e-06
4.16595e-06
4.40188e-06
5.43174e-06
1.15053e-05
8.28878e-06
-5.52734e-05
)
;
    }
    sWall
    {
        type            calculated;
        value           uniform -0.00027121;
    }
    nWall
    {
        type            calculated;
        value           nonuniform List<scalar> 6(-4.86259e-05 -5.83799e-05 -6.43486e-05 -7.51775e-05 -8.25034e-05 -0.000102366);
    }
    sideWalls
    {
        type            empty;
        value           nonuniform 0();
    }
    glass1
    {
        type            calculated;
        value           nonuniform List<scalar> 9(-5.75123e-05 -0.000154536 -0.000235644 -0.000303987 -0.000361497 -0.000409732 -0.00045258 -0.000505305 -0.000564571);
    }
    glass2
    {
        type            calculated;
        value           nonuniform List<scalar> 2(-0.000257401 -0.000285307);
    }
    sun
    {
        type            calculated;
        value           uniform 0;
    }
    heatsource1
    {
        type            calculated;
        value           nonuniform List<scalar> 3(2.04113e-07 2.04052e-07 2.04064e-07);
    }
    heatsource2
    {
        type            calculated;
        value           nonuniform List<scalar> 4(5.10336e-08 5.11806e-08 0 0);
    }
    Table_master
    {
        type            calculated;
        value           nonuniform List<scalar> 9(-1.53094e-07 -1.53145e-07 -1.53165e-07 -1.53179e-07 -1.53189e-07 -1.53194e-07 -1.53195e-07 -1.53187e-07 -1.53154e-07);
    }
    Table_slave
    {
        type            calculated;
        value           nonuniform List<scalar> 9(1.52984e-07 1.52983e-07 1.52954e-07 1.52929e-07 1.52917e-07 1.52923e-07 1.52934e-07 1.52975e-07 1.53056e-07);
    }
    inlet
    {
        type            calculated;
        value           uniform -0.00607122;
    }
    outlet
    {
        type            calculated;
        value           nonuniform List<scalar> 2(0.00775226 0.00280761);
    }
}


// ************************************************************************* //
