/*--------------------------------*- C++ -*----------------------------------*\
  =========                 |
  \\      /  F ield         | OpenFOAM: The Open Source CFD Toolbox
   \\    /   O peration     | Website:  https://openfoam.org
    \\  /    A nd           | Version:  6
     \\/     M anipulation  |
\*---------------------------------------------------------------------------*/
FoamFile
{
    version     2.0;
    format      ascii;
    class       volScalarField;
    location    "350";
    object      epsilon;
}
// * * * * * * * * * * * * * * * * * * * * * * * * * * * * * * * * * * * * * //

dimensions      [0 2 -3 0 0 0 0];

internalField   nonuniform List<scalar> 
459
(
0.000341068
0.000457801
0.000508605
0.0005933
0.000680861
0.000774817
0.0008835
0.000981897
0.00105217
0.00107367
0.00103079
0.000914089
0.000695417
0.000426578
0.000245707
6.78857e-05
0.000123447
0.000114795
0.000142103
0.000129363
0.00011044
8.43717e-05
6.31234e-05
4.80056e-05
3.73691e-05
2.97386e-05
2.41291e-05
1.98778e-05
1.66224e-05
1.39913e-05
1.17326e-05
1.01805e-05
1.07635e-05
2.58076e-05
0.000745615
0.000982575
0.000425704
0.000426129
0.000451755
0.000498603
0.000573279
0.0006591
0.00073173
0.000765476
0.000746108
0.000674535
0.000553948
0.000432217
0.00030364
0.000486331
0.000216683
0.000259348
0.000488453
0.000237675
0.000177273
0.000141232
0.000116099
0.000104251
7.74505e-05
5.59507e-05
4.0773e-05
3.02623e-05
2.29315e-05
1.77179e-05
1.39868e-05
1.13606e-05
9.9121e-06
1.6464e-05
4.26446e-05
5.28457e-05
0.00125657
0.00209655
0.000460911
0.000387348
0.000414244
0.000478389
0.00057593
0.000684239
0.000771626
0.000816964
0.00081065
0.000751141
0.000643733
0.000533223
0.000425157
0.000384809
0.000480972
0.000383229
0.000829264
0.000402793
0.000256025
0.000184645
0.000149938
0.000256809
0.000155253
9.79498e-05
6.46663e-05
4.45703e-05
3.19641e-05
2.37937e-05
1.85165e-05
1.52645e-05
1.15684e-05
1.72666e-05
7.35161e-05
8.02507e-05
0.00192009
0.00410887
0.000624571
0.00037183
0.0003936
0.000479945
0.000620136
0.000751076
0.000842223
0.000890822
0.000890587
0.000830997
0.000731018
0.000620633
0.000520676
0.000445681
0.000404622
0.000723499
0.000665636
0.000448217
0.000315816
0.00023645
0.000185993
0.000162348
0.000363232
0.000263456
0.000201065
0.00015905
0.00012807
0.000103568
8.30958e-05
6.52255e-05
4.88158e-05
2.56993e-05
2.2361e-05
0.000117543
0.000112664
0.00281008
0.00725886
0.00110529
0.000404251
0.000395026
0.000533024
0.00076199
0.000900676
0.00097751
0.00101721
0.00100773
0.000936075
0.000813455
0.000672311
0.000544618
0.000446486
0.00038157
0.000361452
0.000320984
0.000284624
0.00024794
0.000213425
0.000182397
0.000157041
0.000148621
0.000132428
0.000116514
0.000102143
8.86493e-05
7.57259e-05
6.31905e-05
5.09439e-05
3.88151e-05
2.63461e-05
2.19865e-05
7.114e-05
0.000108327
0.0001166
0.000192499
0.000614616
0.00404893
0.0109805
0.00242018
0.000676663
0.000535818
0.000839429
0.00108948
0.00117133
0.00120336
0.00121929
0.00119022
0.0010869
0.000919167
0.000728552
0.000558409
0.000433707
0.000360032
0.000324211
0.00030081
0.0002794
0.00025479
0.000227052
0.000197996
0.000170072
0.000147083
0.00012826
0.000112356
9.8042e-05
8.45505e-05
7.15963e-05
5.91039e-05
4.71934e-05
3.61419e-05
2.69269e-05
2.34723e-05
3.49483e-05
7.22083e-05
0.000195221
0.000929881
0.00147678
0.00552038
0.0134346
0.00520297
0.00212121
0.00156562
0.0017215
0.00168765
0.00160015
0.00154907
0.00152406
0.00145727
0.00129955
0.00106589
0.000812487
0.000595992
0.000448036
0.000371285
0.000341905
0.00032752
0.000310423
0.000286481
0.000256505
0.000223419
0.000191129
0.000162833
0.000139857
0.00012142
0.000105652
9.14359e-05
7.83164e-05
6.61794e-05
5.51568e-05
4.55392e-05
3.80763e-05
3.43685e-05
3.77295e-05
8.39707e-05
0.000543322
0.00299894
0.00353023
0.00594344
0.0159024
0.00860819
0.00553847
0.00415033
0.00316746
0.00251583
0.00215956
0.00201811
0.00195803
0.00183629
0.0015872
0.00125482
0.000921773
0.000657752
0.000497307
0.000425723
0.000402363
0.000390234
0.000372412
0.00034443
0.000309234
0.000270584
0.000234503
0.000204414
0.000180837
0.000162315
0.0001473
0.000134964
0.000125011
0.000117354
0.00011188
0.000108188
0.000105454
0.000102605
0.000107547
0.000201965
0.00124817
0.0109372
0.00878406
0.00559932
0.00966447
0.00735044
0.0055158
0.00423531
0.0033264
0.00279804
0.00260372
0.00260666
0.0025843
0.00236057
0.0019297
0.00144814
0.00103764
0.000756893
0.00063824
0.000589346
0.000571231
0.000557351
0.000536168
0.000506101
0.000470488
0.000434017
0.000401233
0.000374387
0.000354167
0.000340127
0.000331838
0.000329294
0.000332738
0.000342238
0.000357125
0.000375208
0.000392163
0.000402882
0.000410578
0.000569657
0.00218709
0.0153945
0.0121037
0.00178249
0.00219444
0.00231296
0.00270179
0.00315938
0.00358874
0.00380918
0.00360299
0.00297737
0.00215187
0.00159744
0.00134478
0.00122766
0.00118067
0.0011665
0.00116347
0.00115953
0.00114964
0.00113363
0.00111387
0.00109353
0.00107549
0.00106188
0.00105455
0.0010552
0.0010657
0.00108819
0.00112483
0.00117718
0.00124466
0.00132176
0.0013957
0.00145669
0.00147162
0.00166526
0.00326135
0.0113454
0.0072626
0.000953095
0.00268145
0.00479528
0.0060674
0.00665669
0.0070612
0.00698066
0.00621162
0.00511196
0.00409769
0.0034389
0.0030879
0.00294217
0.00291025
0.00293485
0.00298749
0.00304793
0.00310045
0.00313643
0.00315529
0.00316191
0.00316275
0.00316405
0.00317209
0.0031925
0.00323063
0.00329227
0.00338396
0.00351223
0.00367998
0.00387525
0.00404538
0.00407052
0.00388545
0.00370376
0.00423342
0.00606405
0.00421178
0.000841066
0.00104279
0.00128903
0.00192995
0.00235144
0.00259443
0.00296571
0.00323781
0.00332642
0.00318391
0.00294705
0.00269122
0.00247635
0.00234218
0.00227023
0.00223761
0.00222691
0.00222501
0.00222354
0.00221877
0.00221046
0.00220031
0.00219052
0.00218312
0.00217973
0.00218151
0.00218936
0.00220396
0.00222579
0.0022548
0.00228949
0.00232493
0.00234886
0.00234026
0.00229311
0.00226405
0.00239763
0.00279376
0.00318193
0.00237667
)
;

boundaryField
{
    floor
    {
        Cmu             0.09;
        kappa           0.41;
        E               9.8;
        type            epsilonWallFunction;
        value           nonuniform List<scalar> 
29
(
0.000245707
6.78857e-05
0.000123447
0.000114795
0.000142103
0.000129363
0.00011044
8.43717e-05
6.31234e-05
4.80056e-05
3.73691e-05
2.97386e-05
2.41291e-05
1.98778e-05
1.66224e-05
1.39913e-05
1.17326e-05
1.01805e-05
1.07635e-05
2.58076e-05
2.58076e-05
5.28457e-05
8.02507e-05
0.000112664
0.000245707
6.78857e-05
0.000259348
0.000383229
0.000723499
)
;
    }
    ceiling
    {
        Cmu             0.09;
        kappa           0.41;
        E               9.8;
        type            epsilonWallFunction;
        value           nonuniform List<scalar> 
43
(
0.000841066
0.00104279
0.00128903
0.00192995
0.00235144
0.00259443
0.00296571
0.00323781
0.00332642
0.00318391
0.00294705
0.00269122
0.00247635
0.00234218
0.00227023
0.00223761
0.00222691
0.00222501
0.00222354
0.00221877
0.00221046
0.00220031
0.00219052
0.00218312
0.00217973
0.00218151
0.00218936
0.00220396
0.00222579
0.0022548
0.00228949
0.00232493
0.00234886
0.00234026
0.00229311
0.00226405
0.00239763
0.00279376
0.00318193
0.00237667
0.00559932
0.00966447
0.000953095
)
;
    }
    sWall
    {
        Cmu             0.09;
        kappa           0.41;
        E               9.8;
        type            epsilonWallFunction;
        value           uniform 0.000841066;
    }
    nWall
    {
        Cmu             0.09;
        kappa           0.41;
        E               9.8;
        type            epsilonWallFunction;
        value           nonuniform List<scalar> 6(0.000614616 0.00147678 0.00353023 0.0072626 0.00421178 0.00237667);
    }
    sideWalls
    {
        type            empty;
    }
    glass1
    {
        Cmu             0.09;
        kappa           0.41;
        E               9.8;
        type            epsilonWallFunction;
        value           nonuniform List<scalar> 9(0.000341068 0.000745615 0.00125657 0.00192009 0.00281008 0.00404893 0.00552038 0.00594344 0.00559932);
    }
    glass2
    {
        Cmu             0.09;
        kappa           0.41;
        E               9.8;
        type            epsilonWallFunction;
        value           nonuniform List<scalar> 2(0.00878406 0.0121037);
    }
    sun
    {
        Cmu             0.09;
        kappa           0.41;
        E               9.8;
        type            epsilonWallFunction;
        value           nonuniform List<scalar> 
14
(
0.000341068
0.000457801
0.000508605
0.0005933
0.000680861
0.000774817
0.0008835
0.000981897
0.00105217
0.00107367
0.00103079
0.000914089
0.000695417
0.000426578
)
;
    }
    heatsource1
    {
        Cmu             0.09;
        kappa           0.41;
        E               9.8;
        type            epsilonWallFunction;
        value           nonuniform List<scalar> 3(0.0001166 0.000192499 0.000614616);
    }
    heatsource2
    {
        Cmu             0.09;
        kappa           0.41;
        E               9.8;
        type            epsilonWallFunction;
        value           nonuniform List<scalar> 4(0.000486331 0.000216683 0.000216683 0.000480972);
    }
    Table_master
    {
        Cmu             0.09;
        kappa           0.41;
        E               9.8;
        type            epsilonWallFunction;
        value           nonuniform List<scalar> 9(0.000256809 0.000155253 9.79498e-05 6.46663e-05 4.45703e-05 3.19641e-05 2.37937e-05 1.85165e-05 1.52645e-05);
    }
    Table_slave
    {
        Cmu             0.09;
        kappa           0.41;
        E               9.8;
        type            epsilonWallFunction;
        value           nonuniform List<scalar> 9(0.000363232 0.000263456 0.000201065 0.00015905 0.00012807 0.000103568 8.30958e-05 6.52255e-05 4.88158e-05);
    }
    inlet
    {
        type            turbulentMixingLengthDissipationRateInlet;
        mixingLength    0.01;
        phi             phi;
        k               k;
        value           uniform 0.000101881;
    }
    outlet
    {
        type            zeroGradient;
    }
}


// ************************************************************************* //
