/*--------------------------------*- C++ -*----------------------------------*\
  =========                 |
  \\      /  F ield         | OpenFOAM: The Open Source CFD Toolbox
   \\    /   O peration     | Website:  https://openfoam.org
    \\  /    A nd           | Version:  6
     \\/     M anipulation  |
\*---------------------------------------------------------------------------*/
FoamFile
{
    version     2.0;
    format      ascii;
    class       surfaceScalarField;
    location    "1100";
    object      phi;
}
// * * * * * * * * * * * * * * * * * * * * * * * * * * * * * * * * * * * * * //

dimensions      [1 0 -1 0 0 0 0];

internalField   nonuniform List<scalar> 
852
(
-0.00204385
0.00207306
-0.00239725
0.000353933
-0.00229629
-0.000100428
-0.00197704
-0.000318742
-0.00149245
-0.000484109
-0.00110839
-0.000383585
-0.00083013
-0.000277809
-0.00061573
-0.000213967
-0.000439685
-0.000175634
-0.000290611
-0.000148687
-0.000162258
-0.000127989
-5.08887e-05
-0.000111023
4.28081e-05
-9.3366e-05
0.000133997
-9.0871e-05
0.000129179
8.0919e-05
-8.36257e-05
-0.000204833
0.000285975
-0.000389526
0.000184909
-0.000522516
0.000133214
-0.000609311
8.70391e-05
-0.000609524
4.88033e-07
-0.000536877
-7.23181e-05
-0.000421881
-0.000114656
5.75575e-05
-0.000478872
0.000399344
-0.000341224
0.000563335
-0.000163515
0.000646038
-8.22957e-05
0.000721837
-7.54224e-05
0.000824927
-0.000102717
0.00084743
-2.2136e-05
0.000660431
0.000187337
0.000391004
0.000269736
-2.96528e-05
0.000420938
-3.201e-05
-0.000255667
0.0024066
-0.00122103
0.00131997
-0.00159377
0.000272957
-0.00141758
-0.000494324
-0.00104291
-0.000858189
-0.000790823
-0.000635098
-0.000608481
-0.000459606
-0.000467186
-0.000354741
-0.000355788
-0.000286538
-0.000269745
-0.00023426
-0.000206888
-0.000190398
-0.000161902
-0.000155582
-0.000122115
-0.000132739
-5.82613e-05
-0.000154315
0.000202995
-0.000131734
0.000204414
-1.16068e-06
0.000204851
-7.00757e-05
-2.17944e-05
0.00012114
9.50572e-05
0.000130975
0.000175359
9.43011e-05
0.000170163
1.39956e-06
0.000180242
-0.00026667
0.000268866
-0.000375477
3.67855e-05
-0.000259656
-0.000230094
9.03225e-06
-0.000746912
0.000145759
-0.000477273
0.000221535
-0.000238665
0.000256146
-0.000116358
0.000223818
-4.25988e-05
0.000108059
1.35065e-05
-2.01825e-05
0.000106571
-0.000104912
0.000272542
-0.000102625
0.000267869
-1.79579e-05
0.000336631
-5.82585e-05
0.00329737
-0.000805476
0.00242092
0.00219744
0.00087684
0.00181785
-0.000180948
0.00056412
-0.000557466
-0.000480972
-0.000585392
-0.000606505
-0.000538097
-0.000506268
-0.000497667
-0.000394567
-0.000482863
-0.000300765
-0.000500232
-0.000216335
-0.000556065
-0.000134028
-0.000655648
-5.54789e-05
-0.000788988
1.10798e-06
-0.000956644
1.38514e-05
-0.00107361
-1.42637e-05
-0.000905509
-0.000168739
-0.000700139
-0.000446977
0.000409094
-0.000343873
-7.42749e-06
-0.000163447
-4.49991e-06
1.4216e-05
-6.96252e-06
0.000215402
-2.04597e-05
0.000561567
-7.68505e-05
0.000598953
0.000369624
-0.000376407
-0.00085278
-0.00109049
-0.00120591
-0.00124762
-0.00123327
-0.00112591
-0.000587553
-0.000265191
-0.000192695
-0.000126396
5.6503e-05
8.79699e-05
-1.81529e-05
0.000303298
-0.00113223
0.000568448
0.0019329
0.000249133
0.00213785
-0.000278273
0.00109221
-0.00059299
-0.000165465
-0.000659235
-0.000539495
-0.000691235
-0.000473543
-0.00075508
-0.000330025
-0.000859297
-0.000195867
-0.00100769
-6.72662e-05
-0.00119042
4.93908e-05
-0.00138703
0.000141831
-0.00157799
0.000192809
-0.00175094
0.000187571
-0.00187461
0.000110206
-0.00196444
-7.8075e-05
-0.00226935
-0.000394354
-0.00211928
-0.000175412
-0.00170805
-1.21947e-06
-0.00168445
-3.01037e-05
-0.00171961
3.16298e-05
-0.00180548
7.99173e-05
-0.00193317
0.000108266
-0.00211661
0.00010764
-0.00220574
9.00574e-05
-0.00223611
3.12927e-05
-0.00222419
-1.10055e-05
-0.00217801
-4.5263e-05
-0.00209961
-7.74967e-05
-0.00198715
-0.000111576
-0.00183478
-0.000151489
-0.00162977
-0.000204151
-0.00133864
-0.000290277
-0.00115278
-0.000450071
-0.000715067
-0.000563113
0.000113847
-0.000739966
6.62478e-05
0.000364838
-0.00157284
0.000812873
0.00148534
0.000540601
0.00241078
-0.000230777
0.00186438
-0.000785089
0.000389688
-0.000876069
-0.000447666
-0.00100108
-0.000347708
-0.00117783
-0.000152471
-0.00137816
5.27516e-06
-0.00157089
0.000126283
-0.00173592
0.000215282
-0.00187007
0.000276853
-0.00198231
0.000305957
-0.00208296
0.000289158
-0.00218148
0.000209688
-0.00231471
5.61559e-05
-0.00259634
-0.000111716
-0.00264809
-0.00012263
-0.00260061
-4.76541e-05
-0.00260801
-2.16428e-05
-0.00260301
2.77185e-05
-0.00258838
6.63747e-05
-0.00256517
8.61562e-05
-0.00253626
7.98352e-05
-0.00249204
4.69505e-05
-0.00245393
-5.71327e-06
-0.00240734
-5.64756e-05
-0.00234909
-0.000102402
-0.00228032
-0.00014515
-0.00220316
-0.000187612
-0.00212094
-0.000232579
-0.00203958
-0.000284385
-0.00197977
-0.000348938
-0.00201567
-0.000412993
-0.00213639
-0.000441207
-0.00250691
-0.000368216
-0.00227125
-0.000168159
-0.00214155
-0.000128671
-0.00196312
-0.000177379
-0.00200438
0.000767087
-0.00246288
0.00191888
0.000334066
0.00186193
0.00246837
0.000673175
0.00305397
-0.000541053
0.00160486
-0.00099643
8.63972e-06
-0.0013492
5.98568e-06
-0.00164281
0.000142078
-0.00187308
0.000236497
-0.00203752
0.000291689
-0.00214902
0.000327776
-0.00222024
0.000349097
-0.00226597
0.000352723
-0.002304
0.000328243
-0.00235469
0.000261461
-0.00244752
0.000150078
-0.00259346
3.53467e-05
-0.00269272
-2.22539e-05
-0.00271461
-2.46352e-05
-0.00271362
-2.149e-05
-0.00267915
-5.62336e-06
-0.00262025
8.62489e-06
-0.0025461
1.31483e-05
-0.00246606
9.53172e-07
-0.00238874
-2.92214e-05
-0.00232126
-7.20402e-05
-0.00225854
-0.000118038
-0.00219657
-0.00016321
-0.00213357
-0.000206985
-0.00207005
-0.000249966
-0.0020085
-0.000292965
-0.00195453
-0.000337174
-0.00192036
-0.00038191
-0.00191764
-0.000414506
-0.0019488
-0.000408819
-0.0019722
-0.000343578
-0.00182137
-0.000317741
-0.00147902
-0.000469763
-0.00103803
-0.000617098
-0.00308453
0.00105411
-0.00367645
0.0031078
-0.00171858
0.00314772
0.00242934
0.0015098
0.00469283
-2.68973e-05
0.00314255
-0.00107013
0.00105291
-0.00166987
0.000606776
-0.00201219
0.000485458
-0.00220366
0.000429046
-0.00229711
0.000386239
-0.00232091
0.000352706
-0.0022965
0.000325822
-0.00224428
0.000301655
-0.00218577
0.000270895
-0.00214401
0.000220885
-0.00213988
0.000147136
-0.00217153
6.81933e-05
-0.00220222
9.65912e-06
-0.0022017
-2.39436e-05
-0.00217985
-4.21179e-05
-0.00213568
-4.8577e-05
-0.0020738
-5.2049e-05
-0.00200046
-5.89785e-05
-0.00192413
-7.41664e-05
-0.00185232
-9.98216e-05
-0.00178882
-0.000134328
-0.00173215
-0.000173497
-0.00167929
-0.000214862
-0.00162744
-0.000257625
-0.00157428
-0.000301927
-0.00151762
-0.000348404
-0.00145542
-0.000398156
-0.00138464
-0.000451462
-0.00129427
-0.000503639
-0.00115912
-0.000542711
-0.000940048
-0.00056138
-0.000649664
-0.000606842
-0.000356652
-0.000761482
4.70457e-05
-0.00101949
-0.0030813
0.000153722
-0.004007
0.00260643
-0.00416978
0.00265602
0.00238103
0.000290439
0.00705949
-0.000834072
0.0042681
-0.00164653
0.00186646
-0.00205173
0.00101309
-0.002219
0.000653879
-0.00223944
0.000450676
-0.00216933
0.000317344
-0.00204546
0.000230062
-0.00188857
0.000170184
-0.00171698
0.00013132
-0.0015486
0.000103781
-0.00140243
7.59866e-05
-0.00129425
4.02287e-05
-0.00122431
-4.58912e-07
-0.00117845
-3.49041e-05
-0.00114143
-5.96592e-05
-0.00110517
-7.70798e-05
-0.00106376
-8.8678e-05
-0.00101638
-9.81297e-05
-0.000965144
-0.000108917
-0.000913988
-0.000124028
-0.000867243
-0.000145277
-0.000827589
-0.000172698
-0.000794811
-0.000204995
-0.000767113
-0.000241284
-0.000741964
-0.000281501
-0.000716244
-0.000326378
-0.000685886
-0.000377493
-0.000645195
-0.000437575
-0.000584786
-0.000510592
-0.000485614
-0.000601523
-0.000307938
-0.000719087
2.1728e-05
-0.00088973
0.000577166
-0.00116095
0.0013394
-0.00152237
0.00196076
-0.00163952
-0.00146771
-0.00424323
-0.00845333
-0.00411924
-0.00195147
-0.00318383
0.00612526
-0.00269324
0.00377863
-0.00246555
0.00163987
-0.00217182
0.000720504
-0.00186471
0.000347937
-0.00155011
0.000137298
-0.00122863
-2.88401e-06
-0.000915837
-8.14407e-05
-0.000629392
-0.000114936
-0.000372218
-0.000124509
-0.000145129
-0.000121949
4.66734e-05
-0.000114449
0.000194334
-0.000106057
0.000295172
-9.9916e-05
0.000360059
-9.84061e-05
0.000402083
-0.000100293
0.000430686
-0.000104293
0.000452801
-0.000109403
0.000472026
-0.000115967
0.000489349
-0.000124856
0.000503846
-0.000137143
0.000513659
-0.000153714
0.000517243
-0.00017491
0.000514249
-0.000200635
0.000505309
-0.000230983
0.000491761
-0.000266599
0.000475631
-0.000308897
0.000459842
-0.000360356
0.000448677
-0.000425064
0.00044899
-0.000509559
0.000473102
-0.000624285
0.000542518
-0.000787145
0.000685763
-0.00103161
0.000941994
-0.0014158
0.00142511
-0.00200411
0.00229054
-0.00250359
0.000420187
-0.0100452
0.00388776
-0.00640702
0.00248846
-0.00346884
0.000841583
-0.00158609
-0.000241885
-0.000452893
-0.000411682
0.00027626
-0.000380141
0.000797111
-0.000382394
0.00117681
-0.000381347
0.00146238
-0.00036573
0.00168727
-0.000338503
0.00186782
-0.000303703
0.00201151
-0.000264266
0.00212199
-0.000223528
0.00220211
-0.000184759
0.00225471
-0.00015108
0.00228298
-0.000125222
0.00229183
-0.00010769
0.00228653
-9.7535e-05
0.00227188
-9.32883e-05
0.00225122
-9.384e-05
0.00222629
-9.84639e-05
0.0021974
-0.000106794
0.00216386
-0.000118716
0.00212464
-0.000134228
0.00207891
-0.00015345
0.00202622
-0.00017684
0.00196645
-0.000205374
0.00189969
-0.000240697
0.00182613
-0.000285357
0.00174566
-0.000343167
0.00165727
-0.000419743
0.0015577
-0.00052328
0.00143797
-0.000665996
0.00127492
-0.000867124
0.00101321
-0.00115266
0.000527177
-0.00151666
-0.000600383
-0.00137465
-0.000258616
-5.89448e-05
0.00389204
0.0032233
-0.000792316
0.0041973
-0.000131132
0.00429913
-0.000342475
0.00445366
-0.00056499
0.00465072
-0.00057599
0.00477878
-0.000509221
0.00484016
-0.000441475
0.00485478
-0.00037906
0.00483453
-0.000316931
0.00478725
-0.000255067
0.00472078
-0.000196403
0.00464293
-0.000144249
0.0045607
-0.000101081
0.00447918
-6.80804e-05
0.00440063
-4.51806e-05
0.00432555
-3.11173e-05
0.00425348
-2.3951e-05
0.00418341
-2.17026e-05
0.00411389
-2.27966e-05
0.00404312
-2.61709e-05
0.0039691
-3.12443e-05
0.00388975
-3.78342e-05
0.00380312
-4.60629e-05
0.00370752
-5.63034e-05
0.00360139
-6.91796e-05
0.00348314
-8.55826e-05
0.00335067
-0.000106695
0.00320088
-0.000134038
0.00302877
-0.000169535
0.00282615
-0.00021561
0.00257973
-0.00027535
0.00226788
-0.00035265
0.00185459
-0.000452338
0.00129194
-0.000588539
0.000617372
-0.000840622
5.42638e-05
-0.000810119
-0.000298731
-0.000289177
0.0105839
0.0143797
0.0134906
0.0132587
0.0128106
0.0121345
0.0114414
0.0108092
0.0102389
0.00972583
0.00927034
0.00887326
0.00853269
0.00824346
0.00799779
0.00778642
0.00759975
0.00742916
0.00726771
0.00711035
0.00695353
0.00679477
0.0066322
0.00646418
0.00628899
0.00610455
0.00590819
0.00569635
0.00546432
0.00520581
0.00491264
0.0045742
0.0041768
0.0037029
0.00313027
0.00242285
0.00146622
0.000538535
)
;

boundaryField
{
    floor
    {
        type            calculated;
        value           nonuniform List<scalar> 
29
(
0
0
0
0
0
0
0
0
0
0
0
0
0
0
0
0
0
0
0
0
2.60679e-06
8.65868e-06
1.69481e-05
3.0406e-05
5.10277e-06
2.92972e-06
8.55307e-06
1.66953e-05
2.62423e-05
)
;
    }
    ceiling
    {
        type            calculated;
        value           nonuniform List<scalar> 
43
(
0.000185318
0.000159636
9.7639e-05
9.82069e-05
0.000102117
0.000107003
0.000112536
0.000118426
0.000124378
0.000130129
0.000135412
0.000139934
0.000143398
0.000145577
0.000146408
0.000146036
0.000144771
0.000142981
0.00014099
0.000139023
0.000137207
0.000135589
0.000134168
0.000132914
0.000131787
0.000130748
0.000129765
0.000128816
0.000127891
0.000126987
0.000126111
0.000125267
0.000124457
0.000123665
0.00012284
0.000121864
0.000120427
0.000117531
0.000119055
0.000124779
5.51952e-05
4.19093e-05
5.69113e-05
)
;
    }
    sWall
    {
        type            calculated;
        value           uniform 0.000102805;
    }
    nWall
    {
        type            calculated;
        value           nonuniform List<scalar> 6(4.2332e-05 4.34289e-05 4.51518e-05 7.97209e-05 9.57122e-05 0.000116428);
    }
    sideWalls
    {
        type            empty;
        value           nonuniform 0();
    }
    glass1
    {
        type            calculated;
        value           nonuniform List<scalar> 9(-2.86761e-05 -7.72971e-05 -8.39616e-05 2.4199e-05 7.6648e-05 0.000124173 0.000160983 0.000178453 0.000182662);
    }
    glass2
    {
        type            calculated;
        value           nonuniform List<scalar> 2(0.000348556 0.000404036);
    }
    sun
    {
        type            calculated;
        value           uniform 0;
    }
    heatsource1
    {
        type            calculated;
        value           nonuniform List<scalar> 3(1.89333e-07 1.89182e-07 1.89242e-07);
    }
    heatsource2
    {
        type            calculated;
        value           nonuniform List<scalar> 4(4.91657e-08 4.92549e-08 0 0);
    }
    Table_master
    {
        type            calculated;
        value           nonuniform List<scalar> 9(-1.48321e-07 -1.48684e-07 -1.49021e-07 -1.48815e-07 -1.48453e-07 -1.48151e-07 -1.47877e-07 -1.47605e-07 -1.4727e-07);
    }
    Table_slave
    {
        type            calculated;
        value           nonuniform List<scalar> 9(1.44139e-07 1.44063e-07 1.44003e-07 1.43953e-07 1.43926e-07 1.4392e-07 1.43942e-07 1.43999e-07 1.44083e-07);
    }
    inlet
    {
        type            calculated;
        value           uniform 0.00420855;
    }
    outlet
    {
        type            calculated;
        value           nonuniform List<scalar> 2(1.93683e-06 -0.0110317);
    }
}


// ************************************************************************* //
