/*--------------------------------*- C++ -*----------------------------------*\
  =========                 |
  \\      /  F ield         | OpenFOAM: The Open Source CFD Toolbox
   \\    /   O peration     | Website:  https://openfoam.org
    \\  /    A nd           | Version:  6
     \\/     M anipulation  |
\*---------------------------------------------------------------------------*/
FoamFile
{
    version     2.0;
    format      ascii;
    class       volScalarField;
    location    "620";
    object      nut;
}
// * * * * * * * * * * * * * * * * * * * * * * * * * * * * * * * * * * * * * //

dimensions      [0 2 -1 0 0 0 0];

internalField   nonuniform List<scalar> 
459
(
0.000839619
0.000909721
0.000926537
0.000968285
0.00100551
0.00103916
0.00107073
0.00110186
0.00113313
0.0011584
0.00117447
0.00117713
0.00116206
0.0011266
0.00107497
0.000605206
0.000745522
0.00068312
0.000609283
0.000538812
0.00048069
0.0004294
0.000385481
0.000349825
0.000320558
0.000295997
0.000274997
0.000256845
0.000240707
0.000225847
0.000211989
0.000216827
0.000341808
0.000472092
0.00114395
0.00248274
0.00223947
0.00254144
0.00283618
0.00314977
0.00346038
0.00373303
0.00393787
0.00413919
0.00431358
0.00441673
0.00437266
0.00401701
0.00295078
0.00111098
0.000804176
0.000811821
0.00219993
0.00187369
0.0017723
0.0016695
0.00152732
0.00124783
0.00106221
0.000925302
0.000819628
0.000735551
0.000668053
0.000609788
0.000558185
0.00051544
0.000481218
0.000549052
0.000788892
0.000572345
0.00140454
0.00336345
0.00273652
0.00338981
0.00367764
0.00389217
0.00405105
0.00417451
0.00428367
0.00443861
0.00463305
0.0048482
0.00505515
0.00519543
0.00510235
0.00425648
0.00114053
0.00100689
0.00171267
0.0020321
0.00216439
0.00215815
0.00196819
0.000663923
0.000567573
0.000496435
0.000441734
0.000398438
0.000363467
0.000334914
0.00031171
0.00029365
0.000326123
0.000480228
0.000869927
0.00062941
0.00165897
0.00433071
0.00268045
0.00362779
0.00385958
0.00389815
0.00386254
0.003829
0.00385341
0.0039643
0.00415885
0.00442857
0.0047647
0.00514653
0.00548461
0.00548808
0.00444886
0.00129389
0.00191519
0.00233431
0.00261584
0.00274208
0.00272799
0.00244903
0.000787429
0.00070854
0.000644174
0.000591032
0.000546364
0.000507718
0.000472743
0.00043899
0.000402773
0.000377797
0.000465562
0.000916989
0.000672778
0.00192013
0.00561731
0.00277433
0.00348318
0.00382029
0.0037604
0.00359199
0.00345021
0.00343093
0.00352775
0.00372386
0.0040132
0.00439192
0.00484373
0.00526399
0.00550182
0.00536927
0.00471119
0.00447426
0.0043379
0.00420365
0.00404717
0.0038699
0.00359313
0.00289532
0.00259042
0.0023846
0.00222538
0.00208912
0.0019518
0.00179048
0.00158612
0.00132459
0.00102925
0.000802186
0.000811579
0.000813515
0.00065154
0.000801754
0.00117625
0.00219756
0.00707151
0.00370671
0.00312702
0.00360548
0.00365316
0.00350151
0.00328584
0.00321516
0.00331181
0.00351099
0.00381404
0.00421552
0.00467449
0.0051037
0.00539042
0.00546346
0.00536192
0.00524341
0.00511934
0.00497788
0.00482651
0.0046703
0.00445955
0.00413587
0.00386366
0.00362775
0.00341415
0.00320984
0.00299713
0.00275811
0.00247926
0.00215629
0.00180806
0.00149875
0.00117019
0.000899415
0.00106134
0.00174722
0.00157269
0.00247841
0.00824491
0.00568252
0.00349715
0.00310616
0.00318428
0.00332742
0.00325267
0.00323527
0.00330162
0.00347889
0.00378792
0.00421397
0.00470661
0.00517312
0.00549998
0.00563156
0.00562191
0.00555743
0.00546172
0.00533953
0.0052025
0.00502648
0.00482126
0.00458624
0.00435214
0.00412282
0.00389856
0.00367603
0.00344728
0.00320338
0.00293798
0.0026503
0.00235249
0.00207325
0.00173196
0.00113019
0.00169297
0.00329728
0.00208808
0.00256135
0.00811769
0.00656713
0.00518008
0.00420821
0.00371592
0.00362987
0.00350286
0.0033807
0.00338676
0.00356743
0.0039132
0.0043855
0.00492642
0.00544028
0.00580312
0.00594785
0.00591873
0.00579556
0.0056115
0.00537555
0.00510296
0.00484794
0.00463748
0.00445406
0.00428389
0.00412226
0.00397034
0.00382771
0.00369021
0.00355131
0.00340309
0.00323518
0.00303218
0.00278316
0.00243594
0.00175643
0.00233163
0.00562762
0.00280647
0.00251979
0.00306959
0.00340829
0.00352634
0.00347558
0.00335517
0.00325851
0.00319244
0.0032115
0.00338916
0.00373308
0.00419683
0.00474302
0.00533089
0.00587306
0.00623302
0.00633152
0.00619732
0.00593793
0.00562785
0.00530956
0.00503547
0.00483404
0.00469541
0.00460149
0.00453671
0.0044926
0.0044657
0.00445306
0.00444997
0.00444901
0.0044387
0.00440093
0.0043072
0.00412713
0.00380535
0.00318961
0.00348104
0.00712191
0.00310449
0.00142185
0.00221332
0.00265413
0.00285239
0.00296216
0.0030923
0.00339039
0.0038263
0.00433017
0.00485518
0.0054131
0.00599182
0.00650625
0.0067924
0.00679492
0.00663572
0.00644386
0.00625429
0.0060804
0.00594323
0.00584604
0.00578442
0.00575306
0.00574717
0.00576313
0.00579835
0.00585033
0.00591556
0.00598789
0.00605595
0.0060987
0.00607678
0.00594668
0.00566426
0.0052064
0.00528064
0.00736017
0.00260692
0.00158297
0.00232901
0.00280773
0.00314158
0.00354013
0.00412856
0.00476781
0.00533868
0.00578533
0.00614004
0.00661731
0.00719484
0.0077381
0.00799986
0.00799393
0.00784643
0.00761637
0.00742446
0.00728462
0.00718842
0.00712377
0.00708493
0.00707019
0.00707773
0.00710482
0.00714868
0.00720697
0.00727732
0.00735601
0.00743492
0.00749448
0.00748794
0.00733878
0.00697987
0.00646123
0.00609014
0.00571624
0.0021714
0.00132922
0.00142457
0.0015198
0.00165156
0.00165353
0.00160366
0.00155507
0.00151081
0.00150417
0.00154719
0.00160643
0.00166925
0.00176999
0.00184921
0.00188397
0.00187716
0.00185131
0.001824
0.00180656
0.00179329
0.00178423
0.00177827
0.00177495
0.00177387
0.0017747
0.00177707
0.00178067
0.00178524
0.00179059
0.00179655
0.00180274
0.00180808
0.00180991
0.00180426
0.00178987
0.00178094
0.00181391
0.00190684
0.00198878
0.00179763
)
;

boundaryField
{
    floor
    {
        type            nutkWallFunction;
        Cmu             0.09;
        kappa           0.41;
        E               9.8;
        value           nonuniform List<scalar> 
29
(
0.000129501
7.30031e-05
9.02877e-05
8.2652e-05
7.35088e-05
6.46568e-05
5.72495e-05
5.06205e-05
4.48654e-05
4.01321e-05
3.62008e-05
3.28657e-05
2.99855e-05
2.74725e-05
2.52185e-05
2.31252e-05
2.11565e-05
2.18462e-05
3.9063e-05
5.61491e-05
5.6149e-05
6.88894e-05
7.60175e-05
8.13823e-05
0.000129501
7.30031e-05
9.83216e-05
0.000121528
0.000154775
)
;
    }
    ceiling
    {
        type            nutkWallFunction;
        Cmu             0.09;
        kappa           0.41;
        E               9.8;
        value           nonuniform List<scalar> 
43
(
0.000158781
0.000169597
0.000180321
0.000195048
0.000195274
0.000189723
0.000184294
0.000179333
0.00017859
0.000183417
0.000190041
0.000197038
0.000208209
0.000216938
0.000220755
0.000220008
0.000217169
0.000214167
0.000212247
0.000210785
0.000209785
0.000209128
0.000208762
0.000208643
0.000208734
0.000208997
0.000209394
0.000209898
0.000210488
0.000211146
0.000211828
0.000212416
0.000212618
0.000211996
0.000210409
0.000209425
0.00021306
0.000223267
0.000232224
0.000211268
0.000289439
0.000347305
0.000187382
)
;
    }
    sWall
    {
        type            nutkWallFunction;
        Cmu             0.09;
        kappa           0.41;
        E               9.8;
        value           uniform 0.000158817;
    }
    nWall
    {
        type            nutkWallFunction;
        Cmu             0.09;
        kappa           0.41;
        E               9.8;
        value           nonuniform List<scalar> 6(0.000141261 0.000186287 0.000243018 0.00029863 0.000252041 0.000211262);
    }
    sideWalls
    {
        type            empty;
    }
    glass1
    {
        type            nutkWallFunction;
        Cmu             0.09;
        kappa           0.41;
        E               9.8;
        value           nonuniform List<scalar> 9(0.000101682 0.000137617 0.000167508 0.000196098 0.000224946 0.00025513 0.000285276 0.000294112 0.000289697);
    }
    glass2
    {
        type            nutkWallFunction;
        Cmu             0.09;
        kappa           0.41;
        E               9.8;
        value           nonuniform List<scalar> 2(0.00031955 0.000350719);
    }
    sun
    {
        type            nutkWallFunction;
        Cmu             0.09;
        kappa           0.41;
        E               9.8;
        value           nonuniform List<scalar> 
14
(
0.000101666
0.000110043
0.000112041
0.000116983
0.00012137
0.000125318
0.000129011
0.000132639
0.000136272
0.0001392
0.000141057
0.000141363
0.000139622
0.000135511
)
;
    }
    heatsource1
    {
        type            nutkWallFunction;
        Cmu             0.09;
        kappa           0.41;
        E               9.8;
        value           nonuniform List<scalar> 3(7.87553e-05 9.71076e-05 0.000141273);
    }
    heatsource2
    {
        type            nutkWallFunction;
        Cmu             0.09;
        kappa           0.41;
        E               9.8;
        value           nonuniform List<scalar> 4(0.000133702 9.73902e-05 9.73902e-05 0.000137128);
    }
    Table_master
    {
        type            nutkWallFunction;
        Cmu             0.09;
        kappa           0.41;
        E               9.8;
        value           nonuniform List<scalar> 9(8.02868e-05 6.82805e-05 5.92567e-05 5.22089e-05 4.6553e-05 4.19274e-05 3.81085e-05 3.49738e-05 3.25131e-05);
    }
    Table_slave
    {
        type            nutkWallFunction;
        Cmu             0.09;
        kappa           0.41;
        E               9.8;
        value           nonuniform List<scalar> 9(9.53775e-05 8.57741e-05 7.78444e-05 7.12255e-05 6.56059e-05 6.06984e-05 5.62169e-05 5.18529e-05 4.71228e-05);
    }
    inlet
    {
        type            calculated;
        value           uniform 0.000100623;
    }
    outlet
    {
        type            calculated;
        value           nonuniform List<scalar> 2(0.00132922 0.00142457);
    }
}


// ************************************************************************* //
