/*--------------------------------*- C++ -*----------------------------------*\
  =========                 |
  \\      /  F ield         | OpenFOAM: The Open Source CFD Toolbox
   \\    /   O peration     | Website:  https://openfoam.org
    \\  /    A nd           | Version:  6
     \\/     M anipulation  |
\*---------------------------------------------------------------------------*/
FoamFile
{
    version     2.0;
    format      ascii;
    class       volScalarField;
    location    "100";
    object      epsilon;
}
// * * * * * * * * * * * * * * * * * * * * * * * * * * * * * * * * * * * * * //

dimensions      [0 2 -3 0 0 0 0];

internalField   nonuniform List<scalar> 
459
(
0.000952875
0.00133412
0.00152774
0.00184403
0.00223843
0.0026392
0.00293585
0.00304817
0.00270956
0.00226764
0.00184453
0.00144263
0.00110428
0.000828996
0.000578946
0.000127447
0.00020793
0.000331455
0.000445934
0.000488476
0.000460387
0.000375712
0.000297953
0.000239094
0.000195585
0.000163035
0.000138281
0.000119027
0.000103706
9.11377e-05
8.01706e-05
6.96878e-05
5.8645e-05
4.44595e-05
0.00197861
0.00242774
0.0012307
0.00130167
0.00155633
0.00187563
0.00209625
0.00215035
0.00193006
0.00160071
0.00128791
0.00102332
0.000827166
0.000688249
0.000550078
0.000813873
0.000499782
0.000117905
0.00015679
0.000274753
0.000331417
0.000350175
0.000351705
0.00037538
0.000304529
0.000236861
0.00018473
0.000146116
0.000117674
9.64733e-05
8.03573e-05
6.80803e-05
6.02973e-05
5.67583e-05
6.05048e-05
5.5491e-05
0.00324846
0.00490998
0.00146347
0.00138441
0.00172164
0.00206832
0.00221546
0.00220442
0.00200817
0.00169644
0.00136242
0.00107486
0.000853092
0.000687693
0.000554101
0.000553389
0.000692554
0.000125653
0.000246831
0.000312272
0.000355106
0.000370926
0.000395653
0.000906061
0.000587653
0.000394187
0.000275377
0.00020027
0.000151196
0.000118112
9.57557e-05
8.20945e-05
6.24469e-05
5.32866e-05
6.23527e-05
6.03413e-05
0.00489148
0.00936814
0.00221084
0.00171516
0.00217796
0.00245489
0.00246913
0.00239728
0.00219435
0.00184808
0.00145983
0.00112693
0.000877331
0.000694969
0.000563723
0.000510007
0.000551385
0.000885822
0.000592988
0.000484459
0.000455126
0.000451919
0.000446019
0.000472813
0.00134208
0.00101357
0.000795455
0.000639439
0.000516698
0.00041434
0.000326132
0.000248653
0.000178477
9.36052e-05
5.86664e-05
6.46e-05
6.3937e-05
0.00704675
0.0160039
0.0040739
0.00256337
0.0031324
0.00307983
0.00292498
0.00278325
0.00251075
0.00206233
0.00156653
0.0011539
0.000862504
0.000670766
0.000553975
0.000505756
0.000547996
0.000666221
0.000636938
0.000618127
0.000613334
0.000597987
0.000561778
0.000519244
0.00053013
0.000499207
0.000461385
0.000418826
0.00036888
0.000313258
0.000254917
0.00019714
0.000141789
8.83737e-05
5.77292e-05
5.74471e-05
5.83748e-05
6.02008e-05
6.90552e-05
0.00011307
0.00982714
0.023508
0.00860713
0.00520236
0.00461391
0.00398628
0.00361789
0.0033574
0.00295753
0.00233887
0.00167651
0.00115349
0.000815346
0.000630604
0.000551232
0.000549669
0.000626409
0.000727666
0.000787742
0.000815541
0.000804173
0.000752021
0.000670917
0.000580782
0.000508174
0.000451624
0.000405064
0.00035873
0.000308655
0.000255918
0.00020328
0.00015416
0.000110983
7.57977e-05
5.64843e-05
5.35451e-05
5.60727e-05
5.57398e-05
0.000142274
0.000132497
0.012213
0.0277713
0.0152624
0.00923837
0.00650011
0.00514528
0.00451454
0.00410557
0.00352145
0.00264314
0.0017488
0.00110512
0.000752889
0.000616681
0.000597834
0.000652133
0.000765157
0.000886067
0.00096151
0.000968002
0.000912462
0.000813261
0.000692816
0.000573348
0.000471862
0.000398079
0.00034278
0.000293365
0.000244971
0.000198537
0.00015631
0.000120417
9.10819e-05
6.98397e-05
6.18295e-05
6.3235e-05
7.04703e-05
8.47647e-05
0.000190101
0.000176337
0.0124127
0.0253508
0.0160342
0.010691
0.00770387
0.00621597
0.0055261
0.00499008
0.00413398
0.00284225
0.00165514
0.00096898
0.000730926
0.000674039
0.000702553
0.000785506
0.000904362
0.00100362
0.00103571
0.000992265
0.000884868
0.000747183
0.000606859
0.0004846
0.00039205
0.000325299
0.000273117
0.000227853
0.000187442
0.000152941
0.000125988
0.000107721
9.83419e-05
9.86989e-05
0.000113208
0.000152788
0.00024201
0.000452315
0.0022365
0.000494441
0.0112232
0.0169927
0.0131377
0.00973543
0.00774753
0.00695219
0.00655024
0.00582213
0.00444644
0.0024226
0.00132072
0.000906839
0.00078328
0.000773863
0.000817411
0.000887153
0.000957555
0.000989728
0.000959202
0.000872169
0.000750627
0.000621153
0.000503861
0.000408129
0.000334873
0.000277993
0.000230661
0.00018938
0.000154132
0.000127072
0.000111804
0.000113804
0.000140632
0.000199507
0.000294016
0.00042608
0.00059971
0.000795049
0.000961854
0.00050829
0.0016018
0.00385375
0.0065055
0.0073147
0.00653611
0.00432106
0.00253846
0.00149763
0.00106701
0.000910997
0.000873132
0.0008843
0.000914128
0.000942879
0.000951412
0.000922619
0.000854732
0.000762193
0.000664106
0.000574986
0.000501286
0.000442502
0.000394573
0.000352253
0.000311482
0.000270453
0.000229796
0.000192645
0.000164485
0.000152016
0.000161378
0.000197834
0.000266479
0.000369131
0.000495068
0.000606735
0.000633578
0.000491205
0.00417028
0.014536
0.0102641
0.00657243
0.00400537
0.00241841
0.0016194
0.00123634
0.00108031
0.00102689
0.00101856
0.00102832
0.00104282
0.00105284
0.00105048
0.00103037
0.000992938
0.000944305
0.000892237
0.000842902
0.000799421
0.000761939
0.000728705
0.000696801
0.000662761
0.000623313
0.000576506
0.00052297
0.000466572
0.000413733
0.00037167
0.000346983
0.00034489
0.000366422
0.000403035
0.000455232
0.000737795
0.000609161
0.00267549
0.00334088
0.00395538
0.00501076
0.00351043
0.00280926
0.00231197
0.00190241
0.00162691
0.00147445
0.00139997
0.00137032
0.00136161
0.00135623
0.00134049
0.00130405
0.00124161
0.00115537
0.00105527
0.000954048
0.000861465
0.000781703
0.000714274
0.000656303
0.000604472
0.000556189
0.000510121
0.000466182
0.000425228
0.000388655
0.000357975
0.000334515
0.000319406
0.000313715
0.000318121
0.000331079
0.000345591
0.000342109
0.000338145
0.000342369
)
;

boundaryField
{
    floor
    {
        Cmu             0.09;
        kappa           0.41;
        E               9.8;
        type            epsilonWallFunction;
        value           nonuniform List<scalar> 
29
(
0.000578946
0.000127447
0.00020793
0.000331455
0.000445934
0.000488476
0.000460387
0.000375712
0.000297953
0.000239094
0.000195585
0.000163035
0.000138281
0.000119027
0.000103706
9.11377e-05
8.01706e-05
6.96878e-05
5.8645e-05
4.44595e-05
4.44595e-05
5.5491e-05
6.03413e-05
6.3937e-05
0.000578946
0.000127447
0.000117905
0.000125653
0.000885822
)
;
    }
    ceiling
    {
        Cmu             0.09;
        kappa           0.41;
        E               9.8;
        type            epsilonWallFunction;
        value           nonuniform List<scalar> 
43
(
0.00267549
0.00334088
0.00395538
0.00501076
0.00351043
0.00280926
0.00231197
0.00190241
0.00162691
0.00147445
0.00139997
0.00137032
0.00136161
0.00135623
0.00134049
0.00130405
0.00124161
0.00115537
0.00105527
0.000954048
0.000861465
0.000781703
0.000714274
0.000656303
0.000604472
0.000556189
0.000510121
0.000466182
0.000425228
0.000388655
0.000357975
0.000334515
0.000319406
0.000313715
0.000318121
0.000331079
0.000345591
0.000342109
0.000338145
0.000342369
0.0112232
0.0169927
0.00417028
)
;
    }
    sWall
    {
        Cmu             0.09;
        kappa           0.41;
        E               9.8;
        type            epsilonWallFunction;
        value           uniform 0.00267549;
    }
    nWall
    {
        Cmu             0.09;
        kappa           0.41;
        E               9.8;
        type            epsilonWallFunction;
        value           nonuniform List<scalar> 6(0.00011307 0.000132497 0.000176337 0.000491205 0.000609161 0.000342369);
    }
    sideWalls
    {
        type            empty;
    }
    glass1
    {
        Cmu             0.09;
        kappa           0.41;
        E               9.8;
        type            epsilonWallFunction;
        value           nonuniform List<scalar> 9(0.000952875 0.00197861 0.00324846 0.00489148 0.00704675 0.00982714 0.012213 0.0124127 0.0112232);
    }
    glass2
    {
        Cmu             0.09;
        kappa           0.41;
        E               9.8;
        type            epsilonWallFunction;
        value           nonuniform List<scalar> 2(0.000494441 0.00050829);
    }
    sun
    {
        Cmu             0.09;
        kappa           0.41;
        E               9.8;
        type            epsilonWallFunction;
        value           nonuniform List<scalar> 
14
(
0.000952875
0.00133412
0.00152774
0.00184403
0.00223843
0.0026392
0.00293585
0.00304817
0.00270956
0.00226764
0.00184453
0.00144263
0.00110428
0.000828996
)
;
    }
    heatsource1
    {
        Cmu             0.09;
        kappa           0.41;
        E               9.8;
        type            epsilonWallFunction;
        value           nonuniform List<scalar> 3(6.02008e-05 6.90552e-05 0.00011307);
    }
    heatsource2
    {
        Cmu             0.09;
        kappa           0.41;
        E               9.8;
        type            epsilonWallFunction;
        value           nonuniform List<scalar> 4(0.000813873 0.000499782 0.000499782 0.000692554);
    }
    Table_master
    {
        Cmu             0.09;
        kappa           0.41;
        E               9.8;
        type            epsilonWallFunction;
        value           nonuniform List<scalar> 9(0.000906061 0.000587653 0.000394187 0.000275377 0.00020027 0.000151196 0.000118112 9.57557e-05 8.20945e-05);
    }
    Table_slave
    {
        Cmu             0.09;
        kappa           0.41;
        E               9.8;
        type            epsilonWallFunction;
        value           nonuniform List<scalar> 9(0.00134208 0.00101357 0.000795455 0.000639439 0.000516698 0.00041434 0.000326132 0.000248653 0.000178477);
    }
    inlet
    {
        type            turbulentMixingLengthDissipationRateInlet;
        mixingLength    0.01;
        phi             phi;
        k               k;
        value           uniform 0.000101881;
    }
    outlet
    {
        type            zeroGradient;
    }
}


// ************************************************************************* //
