/*--------------------------------*- C++ -*----------------------------------*\
  =========                 |
  \\      /  F ield         | OpenFOAM: The Open Source CFD Toolbox
   \\    /   O peration     | Website:  https://openfoam.org
    \\  /    A nd           | Version:  6
     \\/     M anipulation  |
\*---------------------------------------------------------------------------*/
FoamFile
{
    version     2.0;
    format      ascii;
    class       volScalarField;
    location    "600";
    object      alphat;
}
// * * * * * * * * * * * * * * * * * * * * * * * * * * * * * * * * * * * * * //

dimensions      [1 -1 -1 0 0 0 0];

internalField   nonuniform List<scalar> 
459
(
0.00161929
0.00181221
0.00189404
0.00201628
0.00215305
0.00227165
0.00234841
0.00237031
0.00225235
0.00212299
0.00198171
0.00182926
0.00168395
0.00153796
0.00137276
0.000659259
0.00077584
0.000898206
0.00100386
0.00107096
0.00106889
0.00100258
0.000926498
0.000858349
0.000799802
0.000749626
0.000706465
0.000669048
0.000635808
0.000605076
0.000574147
0.000538975
0.000491807
0.000409908
0.00206708
0.00573728
0.00587766
0.00677702
0.00746377
0.00799539
0.00840221
0.00875336
0.00886747
0.00852485
0.00795462
0.00722628
0.00607779
0.00464388
0.00306003
0.00148975
0.00127569
0.000632241
0.00126784
0.00242931
0.00333532
0.00401618
0.00410077
0.00273342
0.00221274
0.00186588
0.0016095
0.00141319
0.00126518
0.00116356
0.00109791
0.00100258
0.000888619
0.000773383
0.000703475
0.000421297
0.00243839
0.00797851
0.00745704
0.00807796
0.00833774
0.00846938
0.0086841
0.00919595
0.0096619
0.00972879
0.00946916
0.00898896
0.00817686
0.00689074
0.00519227
0.00326953
0.00138325
0.000640088
0.00135001
0.00237081
0.00369861
0.00482521
0.00489264
0.00133118
0.0011536
0.000999871
0.000868367
0.00075337
0.000649716
0.000556896
0.000487423
0.000462737
0.000561329
0.000630899
0.000705532
0.000420896
0.00279263
0.00992626
0.0082825
0.00863289
0.00841173
0.00808382
0.00813143
0.00875002
0.00938747
0.0096948
0.00964141
0.00935847
0.00886131
0.00799033
0.00665268
0.00486383
0.00261642
0.00143776
0.0013825
0.00197702
0.00329654
0.00494775
0.00629145
0.00625988
0.00153291
0.00139652
0.00128946
0.00120403
0.00112865
0.00105702
0.000985242
0.000910166
0.000826578
0.000689464
0.000604242
0.000692299
0.000433303
0.00314837
0.0121793
0.00974029
0.00958493
0.0086959
0.00785936
0.00785125
0.00850461
0.00924833
0.0096571
0.00966543
0.00943844
0.00909142
0.00854988
0.00766476
0.00638906
0.00480575
0.00410629
0.00439581
0.00539911
0.00678672
0.00810811
0.00901081
0.00916637
0.00778795
0.0069245
0.00634925
0.0057362
0.00509427
0.00443216
0.00374673
0.00302559
0.00226014
0.00149503
0.000973999
0.000789944
0.000545916
0.000472255
0.000597524
0.000714735
0.00350845
0.0145236
0.0124691
0.0109248
0.0089167
0.00779041
0.00779228
0.00853812
0.00937987
0.00984121
0.00985937
0.00967579
0.00950931
0.00928414
0.00884169
0.00818265
0.00747905
0.00751567
0.00843742
0.00958919
0.0106009
0.0112706
0.0115123
0.0112875
0.0105701
0.00976552
0.00889213
0.00797795
0.00704044
0.00609091
0.00512948
0.00414824
0.0031457
0.00217812
0.00146496
0.00108859
0.000864198
0.000809911
0.00103297
0.000698161
0.00376412
0.0156445
0.0146269
0.0112001
0.00863794
0.00756997
0.00781303
0.00878288
0.00975416
0.0102513
0.0103228
0.0103939
0.0106667
0.010709
0.0105673
0.0104021
0.0104252
0.0110325
0.0119974
0.0127698
0.0131869
0.0132312
0.0129237
0.0123216
0.0114993
0.0105597
0.00956771
0.00855218
0.00752577
0.00650052
0.00548579
0.00448981
0.00352709
0.00263936
0.00196073
0.00163506
0.00151909
0.00160756
0.00180881
0.000962083
0.00378343
0.0122975
0.0111878
0.00868497
0.00715197
0.0070076
0.007926
0.00927957
0.0103562
0.0108522
0.0112229
0.0118249
0.0121274
0.0121982
0.012244
0.0123963
0.0127497
0.0133668
0.0139605
0.0142433
0.0141352
0.0136856
0.0129614
0.012053
0.0110548
0.0100443
0.00903236
0.00801309
0.00698621
0.00595567
0.00492717
0.0039195
0.00299543
0.00227535
0.00185055
0.00172171
0.00177233
0.00186141
0.0018106
0.00102009
0.00365417
0.00421825
0.0044375
0.00444587
0.00511889
0.00667735
0.0086118
0.01024
0.0110659
0.0117366
0.0122466
0.0126441
0.0127414
0.0128034
0.0129661
0.0132385
0.0135815
0.0138944
0.0140025
0.0137888
0.0132457
0.0124402
0.0114673
0.0104245
0.00939156
0.00840211
0.00744367
0.00649665
0.00555512
0.00462672
0.00373633
0.00294207
0.00233091
0.00194901
0.00175984
0.0016982
0.00168619
0.00164949
0.00154633
0.00128122
0.00119533
0.00326793
0.00740264
0.0101256
0.0114792
0.0119268
0.0116726
0.0117913
0.0118976
0.0118625
0.0118509
0.0119517
0.0121346
0.0123258
0.0124342
0.0123577
0.0120257
0.0114331
0.0106403
0.00974262
0.00883255
0.00797438
0.00719399
0.00648259
0.00581997
0.00519399
0.00460275
0.00404952
0.00354006
0.00308213
0.00268601
0.00236885
0.00215132
0.00203147
0.00197291
0.00195368
0.00187395
0.00136879
0.00227547
0.00934422
0.0114933
0.0115985
0.0109481
0.0102077
0.00963512
0.00924675
0.00898595
0.00886761
0.00887696
0.00896407
0.00907319
0.00914777
0.00913102
0.00897655
0.00867264
0.00824997
0.00776591
0.00727918
0.00682978
0.00643386
0.00608994
0.00578763
0.00551399
0.00525486
0.00499361
0.00471161
0.00439308
0.0040332
0.00364481
0.0032577
0.00290704
0.00261603
0.00238196
0.00246426
0.00294287
0.00153992
0.00215646
0.00230509
0.0024195
0.00266433
0.00241159
0.00221177
0.00204498
0.00190071
0.00180204
0.00174837
0.00172389
0.00171725
0.00172022
0.00172664
0.00173152
0.00173071
0.00172121
0.00170188
0.0016743
0.00164198
0.00160894
0.00157828
0.00155145
0.0015284
0.00150799
0.00148854
0.00146823
0.00144536
0.00141857
0.00138718
0.00135156
0.00131332
0.00127503
0.00123952
0.00120892
0.00118343
0.00116201
0.00118135
0.00124076
0.00129805
)
;

boundaryField
{
    floor
    {
        type            compressible::alphatWallFunction;
        Prt             0.85;
        value           nonuniform List<scalar> 
29
(
0.000193809
9.32443e-05
0.000110312
0.000127898
0.000142864
0.000152276
0.000151993
0.000142691
0.000131928
0.000122201
0.000113772
0.00010649
0.00010018
9.46728e-05
8.97488e-05
8.5168e-05
8.05274e-05
7.521e-05
6.80049e-05
5.52771e-05
5.52763e-05
5.7073e-05
5.70222e-05
5.89763e-05
0.000193807
9.32433e-05
8.92379e-05
9.04006e-05
0.00020261
)
;
    }
    ceiling
    {
        type            compressible::alphatWallFunction;
        Prt             0.85;
        value           nonuniform List<scalar> 
43
(
0.000297467
0.000316601
0.000331245
0.000362471
0.000330424
0.000304811
0.000283233
0.000264415
0.000251456
0.000244376
0.000241141
0.000240265
0.000240663
0.000241516
0.000242165
0.000242062
0.000240807
0.000238249
0.000234591
0.000230294
0.000225891
0.000221794
0.000218204
0.000215112
0.00021237
0.000209753
0.000207018
0.000203933
0.000200313
0.00019606
0.00019122
0.000186007
0.000180768
0.000175893
0.000171679
0.000168157
0.000165193
0.000167878
0.000176087
0.00018394
0.000485437
0.00055388
0.000312449
)
;
    }
    sWall
    {
        type            compressible::alphatWallFunction;
        Prt             0.85;
        value           uniform 0.00029632;
    }
    nWall
    {
        type            compressible::alphatWallFunction;
        Prt             0.85;
        value           nonuniform List<scalar> 6(0.000101313 9.88359e-05 0.000136908 0.000193286 0.000216407 0.000183671);
    }
    sideWalls
    {
        type            empty;
    }
    glass1
    {
        type            compressible::alphatWallFunction;
        Prt             0.85;
        value           nonuniform List<scalar> 9(0.000221726 0.000279893 0.000327201 0.000371699 0.000415849 0.000460059 0.000491226 0.000493719 0.000478278);
    }
    glass2
    {
        type            compressible::alphatWallFunction;
        Prt             0.85;
        value           nonuniform List<scalar> 2(0.000144498 0.000180838);
    }
    sun
    {
        type            compressible::alphatWallFunction;
        Prt             0.85;
        value           nonuniform List<scalar> 
14
(
0.000226972
0.000252519
0.00026327
0.000279238
0.00029698
0.000312265
0.00032211
0.000324907
0.000309781
0.000293093
0.000274739
0.000254773
0.000235574
0.000216098
)
;
    }
    heatsource1
    {
        type            compressible::alphatWallFunction;
        Prt             0.85;
        value           nonuniform List<scalar> 3(6.50659e-05 8.41033e-05 0.000101495);
    }
    heatsource2
    {
        type            compressible::alphatWallFunction;
        Prt             0.85;
        value           nonuniform List<scalar> 4(0.000209756 0.0001807 0.000180698 0.000195359);
    }
    Table_master
    {
        type            compressible::alphatWallFunction;
        Prt             0.85;
        value           nonuniform List<scalar> 9(0.000188242 0.000163843 0.000142368 0.000123689 0.000107076 9.18368e-05 7.79392e-05 6.73672e-05 6.35781e-05);
    }
    Table_slave
    {
        type            compressible::alphatWallFunction;
        Prt             0.85;
        value           nonuniform List<scalar> 9(0.00021553 0.000197145 0.000182572 0.000170845 0.000160418 0.000150434 0.000140351 0.000129711 0.000117741);
    }
    inlet
    {
        type            fixedValue;
        value           uniform 1.94e-05;
    }
    outlet
    {
        type            zeroGradient;
    }
}


// ************************************************************************* //
