// -*- C++ -*-
// File generated by PyFoam - sorry for the ugliness

FoamFile
{
 version 2.0;
 format ascii;
 class volScalarField;
 location "600";
 object T;
}

dimensions [ 0 0 0 1 0 0 0 ];

internalField nonuniform List<scalar> 459
(
  303.024
  302.769
  302.75
  302.742
  302.735
  302.73
  302.731
  302.755
  302.841
  302.888
  302.922
  302.945
  302.964
  302.983
  303.008
  304.088
  303.989
  303.908
  303.857
  303.852
  303.875
  303.907
  303.944
  303.982
  304.022
  304.062
  304.105
  304.149
  304.194
  304.241
  304.293
  304.354
  304.433
  304.535
  303.169
  302.789
  302.748
  302.733
  302.722
  302.704
  302.693
  302.729
  302.833
  302.913
  302.969
  303.002
  303.018
  303.025
  303.029
  303.043
  303.069
  304.13
  304.027
  303.8
  303.754
  303.763
  303.796
  303.83
  303.87
  303.913
  303.961
  304.015
  304.078
  304.146
  304.212
  304.277
  304.34
  304.406
  304.479
  304.564
  303.328
  302.833
  302.774
  302.76
  302.746
  302.701
  302.658
  302.703
  302.83
  302.949
  303.033
  303.078
  303.092
  303.09
  303.081
  303.079
  303.087
  304.117
  303.824
  303.683
  303.659
  303.702
  303.764
  303.793
  303.833
  303.882
  303.942
  304.02
  304.124
  304.253
  304.378
  304.453
  304.479
  304.5
  304.537
  304.592
  303.495
  302.901
  302.828
  302.824
  302.811
  302.715
  302.627
  302.677
  302.829
  302.995
  303.116
  303.179
  303.192
  303.18
  303.155
  303.133
  303.118
  303.141
  303.308
  303.363
  303.448
  303.564
  303.691
  303.803
  303.891
  303.954
  304.006
  304.057
  304.106
  304.154
  304.2
  304.246
  304.295
  304.4
  304.49
  304.555
  304.608
  303.663
  302.995
  302.913
  302.925
  302.905
  302.727
  302.6
  302.651
  302.838
  303.058
  303.225
  303.308
  303.323
  303.297
  303.255
  303.218
  303.195
  303.212
  303.276
  303.376
  303.517
  303.676
  303.831
  303.963
  304.071
  304.151
  304.218
  304.273
  304.319
  304.358
  304.39
  304.415
  304.433
  304.462
  304.514
  304.569
  304.614
  304.651
  304.794
  304.813
  303.827
  303.118
  303.039
  303.084
  302.971
  302.719
  302.565
  302.63
  302.868
  303.153
  303.369
  303.473
  303.488
  303.445
  303.388
  303.345
  303.329
  303.369
  303.465
  303.604
  303.767
  303.932
  304.081
  304.203
  304.298
  304.372
  304.426
  304.469
  304.503
  304.531
  304.551
  304.561
  304.56
  304.554
  304.565
  304.593
  304.624
  304.651
  304.7
  304.736
  304.002
  303.299
  303.236
  303.244
  302.986
  302.643
  302.489
  302.616
  302.938
  303.304
  303.568
  303.68
  303.684
  303.627
  303.57
  303.541
  303.557
  303.642
  303.781
  303.94
  304.103
  304.252
  304.376
  304.472
  304.545
  304.594
  304.626
  304.653
  304.675
  304.69
  304.699
  304.697
  304.684
  304.66
  304.644
  304.648
  304.664
  304.686
  304.711
  304.743
  304.229
  303.712
  303.636
  303.385
  302.846
  302.42
  302.359
  302.642
  303.098
  303.555
  303.844
  303.928
  303.909
  303.865
  303.834
  303.837
  303.895
  304.018
  304.175
  304.332
  304.471
  304.586
  304.673
  304.734
  304.771
  304.794
  304.811
  304.825
  304.836
  304.842
  304.841
  304.831
  304.813
  304.791
  304.778
  304.79
  304.823
  304.85
  304.852
  304.873
  304.565
  304.304
  304.071
  303.103
  302.166
  301.894
  302.223
  302.841
  303.461
  303.982
  304.164
  304.2
  304.189
  304.177
  304.186
  304.229
  304.315
  304.441
  304.579
  304.707
  304.808
  304.881
  304.929
  304.957
  304.973
  304.983
  304.99
  304.995
  304.998
  304.996
  304.99
  304.979
  304.967
  304.961
  304.975
  305.024
  305.116
  305.231
  305.353
  305.513
  295.3
  296.333
  298.899
  301.06
  302.676
  303.779
  304.222
  304.422
  304.488
  304.511
  304.524
  304.546
  304.586
  304.649
  304.736
  304.838
  304.938
  305.023
  305.085
  305.127
  305.151
  305.164
  305.169
  305.172
  305.172
  305.169
  305.163
  305.153
  305.139
  305.121
  305.105
  305.095
  305.102
  305.135
  305.201
  305.293
  305.44
  305.592
  296.388
  299.484
  302.029
  303.412
  304.166
  304.55
  304.708
  304.784
  304.826
  304.858
  304.89
  304.929
  304.978
  305.037
  305.104
  305.172
  305.234
  305.283
  305.316
  305.336
  305.347
  305.35
  305.349
  305.344
  305.337
  305.327
  305.314
  305.296
  305.276
  305.254
  305.233
  305.216
  305.209
  305.219
  305.259
  305.344
  305.46
  305.583
  301.768
  301.68
  301.656
  303.713
  304.535
  304.845
  305
  305.093
  305.153
  305.198
  305.237
  305.272
  305.305
  305.339
  305.373
  305.409
  305.444
  305.475
  305.5
  305.518
  305.527
  305.531
  305.529
  305.523
  305.514
  305.502
  305.488
  305.471
  305.453
  305.433
  305.411
  305.39
  305.37
  305.354
  305.344
  305.347
  305.381
  305.5
  305.677
  305.941
)
;

boundaryField
{
  floor
  {
    type wallHeatTransfer;
    Tinf uniform 305.2;
    alphaWall uniform 0.24;
    value nonuniform List<scalar> 29
(
  303.224
  304.275
  304.171
  304.082
  304.025
  304.012
  304.033
  304.069
  304.11
  304.152
  304.195
  304.237
  304.28
  304.324
  304.367
  304.412
  304.46
  304.517
  304.589
  304.687
  304.687
  304.707
  304.729
  304.739
  303.224
  304.275
  304.315
  304.303
  303.337
)
;
  }
  ceiling
  {
    type wallHeatTransfer;
    Tinf uniform 303.2;
    alphaWall uniform 0.24;
    value nonuniform List<scalar> 43
(
  301.868
  301.78
  301.753
  303.683
  304.451
  304.734
  304.87
  304.949
  304.998
  305.036
  305.069
  305.1
  305.131
  305.163
  305.195
  305.228
  305.259
  305.286
  305.306
  305.319
  305.325
  305.325
  305.32
  305.312
  305.302
  305.289
  305.274
  305.257
  305.237
  305.215
  305.191
  305.167
  305.145
  305.125
  305.112
  305.111
  305.138
  305.247
  305.414
  305.66
  304.504
  304.26
  296.84
)
;
  }
  sWall
  {
    type wallHeatTransfer;
    Tinf uniform 315.2;
    alphaWall uniform 0.36;
    value uniform 303.119;
  }
  nWall
  {
    type wallHeatTransfer;
    Tinf uniform 307.2;
    alphaWall uniform 0.36;
    value nonuniform List<scalar> 6
(
  305.34
  305.288
  305.188
  305.819
  305.793
  306.126
)
;
  }
  sideWalls
  {
    type empty;
  }
  glass1
  {
    type wallHeatTransfer;
    Tinf uniform 315.2;
    alphaWall uniform 4.3;
    value nonuniform List<scalar> 9
(
  310.752
  310.202
  309.849
  309.578
  309.355
  309.167
  309.087
  309.198
  309.461
)
;
  }
  glass2
  {
    type wallHeatTransfer;
    Tinf uniform 307.2;
    alphaWall uniform 4.3;
    value nonuniform List<scalar> 2
(
  306.54
  306.653
)
;
  }
  sun
  {
    type wallHeatTransfer;
    Tinf uniform 305.2;
    alphaWall uniform 0.24;
    value nonuniform List<scalar> 14
(
  303.213
  302.962
  302.938
  302.921
  302.906
  302.894
  302.89
  302.911
  302.999
  303.05
  303.091
  303.123
  303.153
  303.183
)
;
  }
  heatsource1
  {
    type fixedGradient;
    gradient uniform 0;
  }
  heatsource2
  {
    type fixedGradient;
    gradient uniform 0;
  }
  Table_master
  {
    type zeroGradient;
  }
  Table_slave
  {
    type zeroGradient;
  }
  inlet
  {
    type fixedValue;
    value uniform 293.15;
  }
  outlet
  {
    type zeroGradient;
  }
} 	// ************************************************************************* //

