/*--------------------------------*- C++ -*----------------------------------*\
  =========                 |
  \\      /  F ield         | OpenFOAM: The Open Source CFD Toolbox
   \\    /   O peration     | Website:  https://openfoam.org
    \\  /    A nd           | Version:  6
     \\/     M anipulation  |
\*---------------------------------------------------------------------------*/
FoamFile
{
    version     2.0;
    format      ascii;
    class       surfaceScalarField;
    location    "50";
    object      phi;
}
// * * * * * * * * * * * * * * * * * * * * * * * * * * * * * * * * * * * * * //

dimensions      [1 0 -1 0 0 0 0];

internalField   nonuniform List<scalar> 
852
(
-0.00253824
0.00257767
-0.00351376
0.000975378
-0.00420425
0.000690365
-0.00468037
0.000475999
-0.00490692
0.000226434
-0.00485263
-5.43891e-05
-0.00449045
-0.000362283
-0.00383115
-0.000659395
-0.0029384
-0.000892851
-0.0019129
-0.00102562
-0.000865106
-0.00104792
7.27737e-05
-0.000938044
0.000629543
-0.000556969
0.000694292
-6.49664e-05
0.000689718
0.000219877
-0.000225354
0.000251794
-3.19433e-05
0.000341984
-9.02127e-05
0.000452726
-0.000110764
0.000557474
-0.00010477
0.000634863
-7.74072e-05
0.000652787
-1.79393e-05
0.000635303
1.74701e-05
0.000614433
2.08541e-05
0.000598927
1.54842e-05
0.000586494
1.24069e-05
0.000573119
1.33435e-05
0.000554239
1.88448e-05
0.000522016
3.21863e-05
0.000455258
6.67199e-05
0.000326627
0.00012859
9.87854e-05
0.000227802
-0.000198097
0.000296843
-0.000204109
-0.00184637
0.00453164
-0.00276977
0.00189865
-0.00347433
0.00139483
-0.00395239
0.000953979
-0.00418701
0.000460991
-0.00414888
-9.25769e-05
-0.00381985
-0.000691353
-0.00323003
-0.00124926
-0.0024617
-0.00166123
-0.001625
-0.00186237
-0.000822361
-0.00185063
-0.000141426
-0.00161909
0.000404668
-0.00110323
0.000829597
-0.000490095
0.00132492
0.000194179
0.000798028
0.000526628
0.000797768
-0.000129359
-0.000109129
5.35272e-05
-0.000214867
0.000232741
-0.000269455
0.000369034
-0.000247077
0.000481259
-0.000217011
0.000570593
-0.000166755
0.000597271
-4.46281e-05
0.000599938
1.47911e-05
0.000601121
1.96569e-05
0.000600685
1.59031e-05
0.000598934
1.41395e-05
0.000596563
1.56953e-05
0.000593433
2.1957e-05
0.000589314
3.62893e-05
0.000563842
9.21779e-05
0.000496872
0.000195541
0.000356266
0.000368378
0.000263652
0.000389416
4.4149e-05
-0.00131826
0.00601602
-0.00210121
0.00268149
-0.00273022
0.00202376
-0.00315021
0.00137392
-0.00335886
0.000669602
-0.00330963
-0.000141843
-0.00297615
-0.00102485
-0.00242191
-0.00180352
-0.00175164
-0.00233151
-0.00107568
-0.00253835
-0.000468688
-0.00245766
2.38204e-05
-0.00211166
0.000436055
-0.00151559
0.000748845
-0.00080306
0.000969977
-2.7163e-05
0.000800465
0.000695918
0.00159801
-0.000174984
4.56772e-05
0.000181972
-0.000571906
0.000330933
-0.000418473
0.000385504
-0.000301683
0.000429482
-0.000261011
0.000546958
-0.000284245
0.00050247
0.000517401
0.000537197
0.000553238
0.000567515
0.00058335
0.000605449
0.000641881
0.000734204
0.000837678
9.20568e-05
0.000842553
0.000363482
0.000667857
0.000564081
0.000688798
-0.000935426
0.00716839
-0.00153795
0.00328391
-0.0019669
0.00245264
-0.00224953
0.0016565
-0.00237307
0.000793103
-0.00224801
-0.000266925
-0.00186449
-0.00140839
-0.00134136
-0.00232667
-0.000789221
-0.00288365
-0.000293787
-0.00303378
0.000110622
-0.00286207
0.000419721
-0.0024208
0.000683233
-0.00177918
0.000903984
-0.00102395
0.00109876
-0.000222127
0.00127266
0.00052179
0.00182576
0.00104469
0.00134413
0.000458697
0.00134648
4.31302e-05
0.000867513
-9.30986e-05
0.000597947
-0.00014901
0.000436694
-0.000140487
0.000317544
-0.000141891
0.000150182
-0.000116899
0.000168865
-1.88426e-05
0.000180347
-1.16378e-05
0.000221833
-4.16383e-05
0.000305673
-8.39916e-05
0.000436734
-0.000131212
0.000613143
-0.000176558
0.000823705
-0.000210709
0.00104223
-0.000218675
0.00122208
-0.000179988
0.00133164
-1.75053e-05
0.00139678
0.000298331
0.00124182
0.000719026
0.0019006
-0.000664272
0.0080936
-0.00109687
0.0037164
-0.00120662
0.00256231
-0.0012582
0.00170802
-0.00120185
0.0007367
-0.000899741
-0.000569082
-0.000449006
-0.00185917
5.81287e-06
-0.00278152
0.000379927
-0.00325778
0.000649357
-0.00330322
0.000821189
-0.00303391
0.000928985
-0.00252861
0.00101328
-0.00186352
0.00109942
-0.0011102
0.00121609
-0.000338959
0.00138121
0.000356459
0.00161914
0.000806532
0.00151545
0.000562162
0.00118475
0.000373609
0.000861383
0.000230096
0.000589028
0.00012323
0.000397039
5.14373e-05
0.000254868
2.46403e-07
0.000155001
-1.70494e-05
0.000137756
-1.60711e-06
0.000157001
-3.08872e-05
0.000205732
-9.03714e-05
0.000287002
-0.000165262
0.000402306
-0.000246514
0.000550182
-0.00032443
0.000726486
-0.000387008
0.000925349
-0.000417531
0.00113244
-0.000387068
0.00135845
-0.000243516
0.00163273
2.40509e-05
0.0020563
0.000295455
0.00310364
0.00085325
0.00231544
0.000787984
0.0014684
0.000846833
0.0014905
-0.000572786
0.00896511
-0.000834395
0.0039779
-0.000488291
0.0022161
-0.000166864
0.00138651
0.000238474
0.000331288
0.000766762
-0.00109744
0.00121591
-0.00230837
0.00150958
-0.00307523
0.00164089
-0.00338912
0.00165073
-0.00331307
0.00156662
-0.0029498
0.00143266
-0.00239465
0.00129629
-0.00172717
0.00119309
-0.00100708
0.00114687
-0.000292871
0.00116624
0.000336896
0.00123819
0.00073437
0.00109366
0.000706476
0.000871688
0.00059539
0.000646798
0.000454837
0.00044845
0.000321479
0.00029371
0.000206121
0.000177873
0.000116053
0.000103826
5.69818e-05
8.51908e-05
1.70203e-05
9.92466e-05
-4.49471e-05
0.000138127
-0.000129253
0.000200336
-0.00022747
0.000284555
-0.00033073
0.000389404
-0.000429272
0.000514735
-0.000512329
0.000663394
-0.000566176
0.000841263
-0.000564925
0.00106296
-0.000465203
0.0013359
-0.000248886
0.00158494
4.64142e-05
0.00190761
0.000530575
0.0018148
0.000880786
0.00119379
0.00146784
0.00270952
-0.00057867
0.00987709
-0.000410399
0.00380951
0.000575211
0.00123038
0.0013741
0.000587513
0.0021097
-0.00040441
0.00269421
-0.00168205
0.00301108
-0.00262532
0.00305882
-0.00312303
0.00288831
-0.00321865
0.00257157
-0.00299635
0.00217426
-0.0025525
0.0017586
-0.00197898
0.00137921
-0.0013478
0.00106989
-0.000697812
0.000846129
-6.92178e-05
0.000731038
0.000451826
0.000700007
0.000765215
0.000606583
0.000799718
0.000486793
0.000715024
0.000360313
0.0005812
0.000244554
0.000437162
0.000147127
0.000303503
7.04632e-05
0.000192693
2.0152e-05
0.00010728
2.57474e-06
3.45909e-05
6.39048e-06
-4.87662e-05
2.48785e-05
-0.000147742
5.42128e-05
-0.000256802
9.04114e-05
-0.000366922
0.000130337
-0.000469186
0.000174644
-0.000556619
0.000232769
-0.000624283
0.000322514
-0.000654652
0.000458281
-0.000600959
0.000632449
-0.000423048
0.000823767
-0.000144905
0.00110479
0.000249544
0.00135072
0.000634851
0.00113679
0.00168176
0.00387422
0.00220611
0.00804442
0.00289157
0.00312393
0.0032747
0.000847137
0.0040619
-0.000199806
0.00476894
-0.00111155
0.00504724
-0.00196044
0.00492807
-0.00250622
0.00449614
-0.00269115
0.00385957
-0.00258212
0.00312252
-0.00225931
0.00236929
-0.00179927
0.00166756
-0.00127725
0.00107121
-0.00075146
0.000589471
-0.000216114
0.000270824
0.000249339
0.000135246
0.000587276
0.000116554
0.000783761
0.000106217
0.000809916
8.47517e-05
0.000736374
5.234e-05
0.000613529
1.42506e-05
0.000475198
-2.55197e-05
0.000343243
-6.24775e-05
0.000229634
-9.08197e-05
0.000135613
-0.000107526
5.12921e-05
-0.00011852
-3.77755e-05
-0.000128159
-0.000138102
-0.000142459
-0.000242498
-0.000169123
-0.000340247
-0.000216247
-0.000422044
-0.000290761
-0.000482082
-0.000388328
-0.000526693
-0.00048556
-0.000557401
-0.000556471
-0.000530037
-0.000606199
-0.000373317
-0.000703601
-4.75056e-05
-0.000851507
0.000397441
-0.00110083
0.000884156
-0.00122021
0.00180112
0.00278792
0.00842245
0.0115133
0.0103904
0.00196995
0.00960353
0.000586939
0.00873009
-0.000238197
0.00767025
-0.000900672
0.00644545
-0.00128147
0.00515934
-0.00140507
0.00390786
-0.00133066
0.00275297
-0.00110442
0.00173075
-0.000777033
0.000867845
-0.00041433
0.000188729
-7.23443e-05
-0.000261834
0.000234412
-0.000468764
0.000456203
-0.000504394
0.000622815
-0.000446409
0.000725673
-0.000369026
0.000732437
-0.000300831
0.0006681
-0.000250819
0.000563461
-0.000220349
0.000444693
-0.000207353
0.000330225
-0.000207286
0.000229554
-0.000215237
0.000143556
-0.000230111
6.61618e-05
-0.00025637
-1.15191e-05
-0.000295289
-9.91812e-05
-0.000355907
-0.000181872
-0.000448671
-0.000247466
-0.00058707
-0.000283621
-0.000799563
-0.000269559
-0.00112213
-0.000204104
-0.00157121
-0.000108295
-0.00213617
3.49224e-05
-0.00276446
0.000254974
-0.00342394
0.00061197
-0.00418995
0.00116344
-0.00507009
0.00176429
-0.00491953
0.00165055
-0.00199244
0.00336679
0.00292097
0.00281091
0.00114284
0.00322338
-0.000650647
0.00324843
-0.000925711
0.00279038
-0.000823405
0.00207464
-0.000689311
0.00128203
-0.000538035
0.000496594
-0.000318955
-0.000210158
-7.02569e-05
-0.000749277
0.000124799
-0.00107224
0.000250616
-0.00119398
0.000356126
-0.00119024
0.000452414
-0.00109933
0.000531843
-0.000951979
0.000578259
-0.000791604
0.000572
-0.00064419
0.000520637
-0.000522685
0.000441921
-0.000431731
0.000353716
-0.00037039
0.00026887
-0.000334585
0.000193739
-0.000320021
0.000128985
-0.000325408
7.15444e-05
-0.000354618
1.76882e-05
-0.000410963
-4.28322e-05
-0.000502615
-9.02096e-05
-0.00062906
-0.000121002
-0.000782127
-0.000130526
-0.000957571
-9.40837e-05
-0.00115085
-1.07982e-05
-0.00135532
9.62014e-05
-0.001562
0.000241614
-0.0017474
0.000440381
-0.00188932
0.000753891
-0.00190713
0.00118124
-0.00146917
0.00132633
-0.000359405
0.000540781
-0.00232349
0.000757474
0.00215514
0.00154723
0.000353133
0.00114136
-0.000244728
0.000529162
-0.000313479
-6.14943e-05
-0.000232721
-0.000627931
-0.000122846
-0.0011499
-1.60358e-05
-0.00155735
8.85146e-05
-0.00180037
0.000172773
-0.00191201
0.000236445
-0.00193612
0.000274727
-0.00188335
0.000303331
-0.0017608
0.000329836
-0.00158058
0.000351588
-0.00136239
0.000360021
-0.00113631
0.000345882
-0.000927203
0.000311504
-0.000750289
0.000264985
-0.000611564
0.000214976
-0.000510346
0.000167641
-0.000442438
0.000125822
-0.000403095
8.96359e-05
-0.000389336
5.77801e-05
-0.000400423
2.87735e-05
-0.000449452
6.20035e-06
-0.000529556
-1.0094e-05
-0.000635242
-1.52959e-05
-0.000761913
-3.82657e-06
-0.0008794
2.34365e-05
-0.0009548
6.4636e-05
-0.000985786
0.000127216
-0.000949781
0.000205632
-0.000809272
0.000299888
-0.000453379
0.000398008
0.000257052
0.000470815
0.00122837
0.000355017
0.00193097
-0.000161813
-0.000364732
-0.00285662
-0.00447546
-0.00234732
-0.00203537
-0.00232688
-0.00268847
-0.00297045
-0.00314395
-0.00321251
-0.0031785
-0.00306253
-0.00288512
-0.00267128
-0.00243016
-0.00216337
-0.00187521
-0.00157863
-0.00129592
-0.00104712
-0.000844269
-0.000690849
-0.000584234
-0.00051899
-0.000489576
-0.000491744
-0.000522743
-0.000576252
-0.000646066
-0.00072121
-0.000785205
-0.000822423
-0.000819165
-0.000754271
-0.0006121
-0.00037703
-4.56297e-05
0.000355792
0.000638867
0.000403954
)
;

boundaryField
{
    floor
    {
        type            calculated;
        value           nonuniform List<scalar> 
29
(
0
0
0
0
0
0
0
0
0
0
0
0
0
0
0
0
0
0
0
0
5.97217e-06
1.53602e-05
2.31806e-05
3.0002e-05
4.36562e-06
5.45023e-06
1.31022e-05
2.01159e-05
2.26984e-05
)
;
    }
    ceiling
    {
        type            calculated;
        value           nonuniform List<scalar> 
43
(
3.26471e-05
2.89349e-05
2.70448e-05
4.12108e-05
4.68153e-05
4.81457e-05
4.92881e-05
5.06808e-05
5.25464e-05
5.45159e-05
5.68031e-05
5.90353e-05
6.08746e-05
6.21977e-05
6.30206e-05
6.34038e-05
6.34179e-05
6.31473e-05
6.26849e-05
6.2123e-05
6.15457e-05
6.1017e-05
6.05706e-05
6.02136e-05
5.99423e-05
5.97686e-05
5.97115e-05
5.97302e-05
5.98689e-05
6.01978e-05
6.06903e-05
6.14152e-05
6.23571e-05
6.34911e-05
6.48421e-05
6.66258e-05
6.94107e-05
7.19604e-05
7.31207e-05
7.65387e-05
3.95359e-05
3.29635e-05
8.39422e-06
)
;
    }
    sWall
    {
        type            calculated;
        value           uniform -0.000226084;
    }
    nWall
    {
        type            calculated;
        value           nonuniform List<scalar> 6(-2.23055e-05 -2.52367e-05 -2.79183e-05 -2.83413e-05 -2.77732e-05 -3.72935e-05);
    }
    sideWalls
    {
        type            empty;
        value           nonuniform 0();
    }
    glass1
    {
        type            calculated;
        value           nonuniform List<scalar> 9(-3.95908e-05 -0.000107746 -0.000166257 -0.000217073 -0.000261062 -0.000298844 -0.000333425 -0.000373556 -0.000417671);
    }
    glass2
    {
        type            calculated;
        value           nonuniform List<scalar> 2(-0.000133909 -0.00013918);
    }
    sun
    {
        type            calculated;
        value           uniform 0;
    }
    heatsource1
    {
        type            calculated;
        value           nonuniform List<scalar> 3(1.99323e-07 1.99706e-07 2.00121e-07);
    }
    heatsource2
    {
        type            calculated;
        value           nonuniform List<scalar> 4(5.00894e-08 5.01711e-08 0 0);
    }
    Table_master
    {
        type            calculated;
        value           nonuniform List<scalar> 9(-1.50354e-07 -1.5044e-07 -1.5045e-07 -1.50454e-07 -1.50455e-07 -1.50452e-07 -1.50447e-07 -1.50437e-07 -1.50402e-07);
    }
    Table_slave
    {
        type            calculated;
        value           nonuniform List<scalar> 9(1.50392e-07 1.50463e-07 1.50451e-07 1.50421e-07 1.50374e-07 1.50311e-07 1.50238e-07 1.50162e-07 1.50093e-07);
    }
    inlet
    {
        type            calculated;
        value           uniform -0.00431778;
    }
    outlet
    {
        type            calculated;
        value           nonuniform List<scalar> 2(0.00305008 0.00158995);
    }
}


// ************************************************************************* //
