/*--------------------------------*- C++ -*----------------------------------*\
  =========                 |
  \\      /  F ield         | OpenFOAM: The Open Source CFD Toolbox
   \\    /   O peration     | Website:  https://openfoam.org
    \\  /    A nd           | Version:  6
     \\/     M anipulation  |
\*---------------------------------------------------------------------------*/
FoamFile
{
    version     2.0;
    format      ascii;
    class       volScalarField;
    location    "1300";
    object      nut;
}
// * * * * * * * * * * * * * * * * * * * * * * * * * * * * * * * * * * * * * //

dimensions      [0 2 -1 0 0 0 0];

internalField   nonuniform List<scalar> 
459
(
0.00107994
0.0011798
0.00120167
0.0012594
0.00131285
0.00136286
0.00141187
0.00145984
0.00149373
0.00150806
0.00149776
0.00145968
0.00139364
0.00130525
0.00120834
0.000473986
0.000579753
0.000651795
0.000647275
0.000624717
0.000595261
0.000558547
0.000522227
0.000489267
0.000459992
0.000434057
0.000410997
0.000390477
0.000372042
0.000355036
0.000338606
0.000321497
0.000309259
0.000281691
0.00147168
0.003595
0.00343949
0.00400306
0.00455708
0.00511124
0.00560075
0.00596892
0.00630211
0.0065733
0.00674447
0.00677228
0.00659082
0.00603513
0.00451036
0.00123165
0.00072615
0.000512942
0.00107507
0.00148273
0.00177302
0.00192535
0.0019167
0.00154315
0.00133173
0.00118008
0.00106342
0.000970519
0.000894858
0.000829626
0.000768873
0.000710059
0.000657811
0.000612369
0.000718053
0.000367885
0.00179777
0.00491256
0.00426991
0.005355
0.00589718
0.00629979
0.00661268
0.00686192
0.00713231
0.00741435
0.00767481
0.0078661
0.00793553
0.00780585
0.00727284
0.00560905
0.0012238
0.00102402
0.00146873
0.0018778
0.00223968
0.00248214
0.0024099
0.000799651
0.000706225
0.000631213
0.000570697
0.000521389
0.000480778
0.000447065
0.000419104
0.000396412
0.000426858
0.000493012
0.000807905
0.000425415
0.00211073
0.0062802
0.00428484
0.00567036
0.00614755
0.00631061
0.00641664
0.00654532
0.00676107
0.00704946
0.00737657
0.00768328
0.00791499
0.00801093
0.00789779
0.00732585
0.00537372
0.00146555
0.00181734
0.00234324
0.00284561
0.00323766
0.00347151
0.00324479
0.000902449
0.000821632
0.00076374
0.000719633
0.000682212
0.000647974
0.000615136
0.000580715
0.000540806
0.000506937
0.000517789
0.000923258
0.000469999
0.00242984
0.00803493
0.00471311
0.00546119
0.00609242
0.00613578
0.00608545
0.00615583
0.00634702
0.00663935
0.00700549
0.00736428
0.00764053
0.00777281
0.00773889
0.00749639
0.00687816
0.00568603
0.00527558
0.0051363
0.00508361
0.00504694
0.00498488
0.00478654
0.00403983
0.00368125
0.00347277
0.00331192
0.00314289
0.00289997
0.00257225
0.00217387
0.00173038
0.0012823
0.000945524
0.000948376
0.000631028
0.000579292
0.000701543
0.000787565
0.00276802
0.00994506
0.00648799
0.00543985
0.00591363
0.00612675
0.00599578
0.00605502
0.00619891
0.00645987
0.00682736
0.00721901
0.00752237
0.00764974
0.00757969
0.0073582
0.00706153
0.00675151
0.00657427
0.00644035
0.00628917
0.00611849
0.00592982
0.00569784
0.0053601
0.00505882
0.0047914
0.00453498
0.00427437
0.00399158
0.00363613
0.0031944
0.00266602
0.00208048
0.00156164
0.00116883
0.000881436
0.000749046
0.00106825
0.000821982
0.00307565
0.0112825
0.00909048
0.00701637
0.00663418
0.00655349
0.00633567
0.00619659
0.00624026
0.00649245
0.00689808
0.00733383
0.00765308
0.00775233
0.00761982
0.00735165
0.00711784
0.0070333
0.00703483
0.00696169
0.00677028
0.00649657
0.00617344
0.00581814
0.0054459
0.00510029
0.00478282
0.00448706
0.00421401
0.00396997
0.00375409
0.00346022
0.00304907
0.00254641
0.00206174
0.00162635
0.00130674
0.0012093
0.00123506
0.000938494
0.00313514
0.0100412
0.00892108
0.00823775
0.00763432
0.00693606
0.0063877
0.00616745
0.00629721
0.0067026
0.00724339
0.00774071
0.00802675
0.00801953
0.0077576
0.00740758
0.00719337
0.00718559
0.0071818
0.00695442
0.006566
0.00609204
0.00559362
0.00512132
0.00470801
0.00436058
0.0040666
0.00381968
0.00362276
0.00348271
0.00340579
0.00336664
0.00316229
0.00284075
0.00255706
0.00241185
0.00250602
0.00288894
0.00354468
0.00146347
0.00305175
0.00361846
0.00401669
0.0041162
0.00419911
0.00442871
0.00489382
0.00560375
0.00647605
0.00735933
0.00809064
0.00851697
0.00853633
0.00819352
0.00767453
0.00731612
0.00711017
0.00692661
0.0066207
0.00614063
0.00555654
0.00495756
0.00441739
0.00397252
0.00362241
0.00334603
0.0031218
0.00293604
0.0027792
0.00264178
0.00251422
0.00239537
0.00230015
0.00222976
0.00220269
0.00221152
0.00219814
0.00210941
0.00197107
0.00137619
0.00148459
0.00306018
0.00497007
0.00656668
0.00781824
0.0087775
0.00938654
0.00963157
0.00954758
0.00912968
0.008469
0.00763441
0.00692095
0.00647533
0.00611196
0.0056666
0.00512318
0.00454409
0.00399618
0.00352538
0.00315583
0.00287463
0.0026595
0.00249227
0.00236158
0.0022613
0.00218806
0.00214029
0.00211979
0.00212473
0.00214211
0.00216865
0.00219692
0.00220295
0.002148
0.00201971
0.00182729
0.00114392
0.00198659
0.00512649
0.00766698
0.00864009
0.00913578
0.00929798
0.00909917
0.00859907
0.00790182
0.00711013
0.00636073
0.00569019
0.00514774
0.00468504
0.0042172
0.00375501
0.00334369
0.00300826
0.0027492
0.0025528
0.00239682
0.00226898
0.00216303
0.00208115
0.00202353
0.00198881
0.00197523
0.00198069
0.00201056
0.00206208
0.00213192
0.00221293
0.0022892
0.00234136
0.00232217
0.00234626
0.00237839
0.00116637
0.00177751
0.00188354
0.00195867
0.00210958
0.00204068
0.00195673
0.00190221
0.00182528
0.00171485
0.00157747
0.00142272
0.00126168
0.00110523
0.000970657
0.000868834
0.000796451
0.000745079
0.000707905
0.000680811
0.000661484
0.000648525
0.000641089
0.000638645
0.000641366
0.000649626
0.000662895
0.000681057
0.000704435
0.000733596
0.000769371
0.000810816
0.000857988
0.000911381
0.000971422
0.00103762
0.0011162
0.00114146
0.00111202
0.00104457
0.000972809
)
;

boundaryField
{
    floor
    {
        type            nutkWallFunction;
        Cmu             0.09;
        kappa           0.41;
        E               9.8;
        value           nonuniform List<scalar> 
29
(
0.00014497
5.6372e-05
6.9808e-05
7.87854e-05
7.82258e-05
7.5426e-05
7.17514e-05
6.71402e-05
6.25418e-05
5.83346e-05
5.4568e-05
5.12061e-05
4.81956e-05
4.54985e-05
4.306e-05
4.07968e-05
3.85969e-05
3.62913e-05
3.46322e-05
3.08624e-05
3.08623e-05
4.25076e-05
5.00797e-05
5.58581e-05
0.00014497
5.6372e-05
6.13598e-05
0.000123548
0.000174265
)
;
    }
    ceiling
    {
        type            nutkWallFunction;
        Cmu             0.09;
        kappa           0.41;
        E               9.8;
        value           nonuniform List<scalar> 
43
(
0.000208905
0.000220553
0.000228765
0.000245259
0.000237824
0.000228696
0.000222742
0.000214303
0.000202114
0.000186828
0.00016943
0.000151099
0.000133036
0.000117267
0.000105168
9.64666e-05
9.0235e-05
8.56941e-05
8.23666e-05
7.99833e-05
7.83806e-05
7.74592e-05
7.71562e-05
7.74936e-05
7.85169e-05
8.01576e-05
8.23968e-05
8.52687e-05
8.88352e-05
9.31879e-05
9.82005e-05
0.00010387
0.000110243
0.000117358
0.000125144
0.000134314
0.000137246
0.000133828
0.000125959
0.000117522
0.000345533
0.000404106
0.000231682
)
;
    }
    sWall
    {
        type            nutkWallFunction;
        Cmu             0.09;
        kappa           0.41;
        E               9.8;
        value           uniform 0.000208963;
    }
    nWall
    {
        type            nutkWallFunction;
        Cmu             0.09;
        kappa           0.41;
        E               9.8;
        value           nonuniform List<scalar> 6(9.53923e-05 9.95469e-05 0.000113466 0.000137541 0.00014014 0.000117528);
    }
    sideWalls
    {
        type            empty;
    }
    glass1
    {
        type            nutkWallFunction;
        Cmu             0.09;
        kappa           0.41;
        E               9.8;
        value           nonuniform List<scalar> 9(0.000130194 0.000175176 0.000211584 0.00024585 0.000280231 0.000316149 0.000348426 0.000354638 0.000345957);
    }
    glass2
    {
        type            nutkWallFunction;
        Cmu             0.09;
        kappa           0.41;
        E               9.8;
        value           nonuniform List<scalar> 2(0.000174104 0.000164224);
    }
    sun
    {
        type            nutkWallFunction;
        Cmu             0.09;
        kappa           0.41;
        E               9.8;
        value           nonuniform List<scalar> 
14
(
0.000130093
0.00014168
0.000144202
0.000150837
0.000156951
0.000162645
0.000168203
0.000173622
0.000177439
0.000179049
0.000177891
0.000173602
0.000166137
0.000156082
)
;
    }
    heatsource1
    {
        type            nutkWallFunction;
        Cmu             0.09;
        kappa           0.41;
        E               9.8;
        value           nonuniform List<scalar> 3(6.9752e-05 8.49144e-05 9.53921e-05);
    }
    heatsource2
    {
        type            nutkWallFunction;
        Cmu             0.09;
        kappa           0.41;
        E               9.8;
        value           nonuniform List<scalar> 4(0.000147647 8.79271e-05 8.79271e-05 0.000146745);
    }
    Table_master
    {
        type            nutkWallFunction;
        Cmu             0.09;
        kappa           0.41;
        E               9.8;
        value           nonuniform List<scalar> 9(9.6853e-05 8.54892e-05 7.62355e-05 6.86734e-05 6.24395e-05 5.72506e-05 5.29016e-05 4.92635e-05 4.62884e-05);
    }
    Table_slave
    {
        type            nutkWallFunction;
        Cmu             0.09;
        kappa           0.41;
        E               9.8;
        value           nonuniform List<scalar> 9(0.000109178 9.95032e-05 9.25045e-05 8.71302e-05 8.25399e-05 7.83136e-05 7.42349e-05 6.9931e-05 6.49017e-05);
    }
    inlet
    {
        type            calculated;
        value           uniform 0.000100623;
    }
    outlet
    {
        type            calculated;
        value           nonuniform List<scalar> 2(0.00177751 0.00188354);
    }
}


// ************************************************************************* //
