/*--------------------------------*- C++ -*----------------------------------*\
  =========                 |
  \\      /  F ield         | OpenFOAM: The Open Source CFD Toolbox
   \\    /   O peration     | Website:  https://openfoam.org
    \\  /    A nd           | Version:  6
     \\/     M anipulation  |
\*---------------------------------------------------------------------------*/
FoamFile
{
    version     2.0;
    format      ascii;
    class       volScalarField;
    location    "200";
    object      nut;
}
// * * * * * * * * * * * * * * * * * * * * * * * * * * * * * * * * * * * * * //

dimensions      [0 2 -1 0 0 0 0];

internalField   nonuniform List<scalar> 
459
(
0.00132872
0.00151087
0.00158197
0.00128389
0.00111779
0.000992035
0.000858689
0.000761279
0.000678032
0.000625799
0.000595681
0.000578119
0.000567995
0.000562892
0.000557818
0.00031361
0.000350393
0.000363926
0.00030194
0.000222534
0.000189264
0.000176516
0.000176198
0.000177869
0.000165234
0.000160378
0.000191939
0.000205519
0.000227039
0.000265758
0.000318542
0.000357327
0.000364695
0.000335716
0.00140162
0.00241137
0.003114
0.0038651
0.00397077
0.00387585
0.00347366
0.00257887
0.00230533
0.00254471
0.00256394
0.00237393
0.00212256
0.00177757
0.00126733
0.000618138
0.000445119
0.000440403
0.000965357
0.00114331
0.00121946
0.00113999
0.000869574
0.000629109
0.000494369
0.000375712
0.000250097
0.000199064
0.000246456
0.000308889
0.000480867
0.000807309
0.00124749
0.00132978
0.00127372
0.000445152
0.00267278
0.00313329
0.00325211
0.00339249
0.00365305
0.00391263
0.00406054
0.00384389
0.00306295
0.00308378
0.00338104
0.00317389
0.00279753
0.00233412
0.00177424
0.00120453
0.00070629
0.000756535
0.00231549
0.00231318
0.00215954
0.00177508
0.00123287
0.000451211
0.000358099
0.000303947
0.000256923
0.000217563
0.000297548
0.000359859
0.000428562
0.000521202
0.00132112
0.00140284
0.0012014
0.000483169
0.00338469
0.00395121
0.00382037
0.00363118
0.00362682
0.00383924
0.004143
0.00429694
0.00378289
0.00358354
0.00409365
0.00404094
0.00365361
0.00313447
0.00248179
0.00177908
0.00121275
0.000943385
0.00265908
0.00286953
0.00282392
0.00240341
0.00180929
0.00114842
0.000652666
0.000647145
0.000645915
0.000646044
0.000648192
0.000654995
0.000668103
0.000685082
0.000707971
0.00145522
0.00212475
0.00242745
0.000840991
0.00364554
0.00466799
0.00435462
0.00387446
0.00368985
0.00383318
0.00420324
0.00455359
0.00429256
0.00420025
0.00482853
0.00508313
0.00498616
0.00483122
0.00464011
0.00440606
0.0041749
0.00405465
0.00431371
0.00432349
0.00415397
0.00392357
0.00369577
0.00348705
0.00332116
0.0032464
0.00315902
0.00306067
0.00297121
0.00291739
0.00291352
0.00295752
0.00304046
0.00315209
0.00321323
0.00314416
0.00258679
0.00119206
0.00109626
0.000970789
0.00386885
0.00499225
0.00459834
0.00389689
0.00365242
0.00380752
0.00426797
0.00473375
0.00459496
0.00454866
0.0052599
0.00567244
0.00572193
0.00572772
0.00572794
0.00569976
0.00562722
0.00551622
0.00538371
0.00519637
0.00499336
0.00481512
0.00466984
0.00454282
0.00441085
0.00425266
0.0040539
0.00382962
0.00362317
0.00348528
0.00343924
0.00347411
0.00356479
0.00367815
0.00380566
0.00390862
0.00374507
0.00346606
0.0027107
0.0011096
0.00411653
0.00479556
0.00382803
0.00376195
0.00362145
0.00384414
0.00434145
0.00479976
0.00472805
0.0047167
0.0054086
0.00586292
0.00596699
0.00602336
0.00607235
0.00608712
0.0060404
0.00592295
0.00574786
0.00554239
0.00534422
0.00518319
0.00506565
0.00497691
0.00488739
0.00476225
0.00456984
0.00430484
0.00401506
0.00377872
0.00363806
0.0035826
0.00358186
0.00359306
0.00356905
0.00345382
0.00318239
0.00283221
0.0024153
0.00111045
0.00444742
0.00475327
0.00373543
0.00342824
0.00373347
0.00401961
0.00445704
0.00483303
0.0047915
0.00480043
0.00538436
0.00579829
0.00592374
0.00599164
0.00604547
0.00606686
0.00603251
0.00593004
0.0057678
0.00557211
0.00537847
0.00521903
0.00511259
0.00506434
0.00506544
0.0050863
0.00506443
0.00492475
0.00465302
0.00433194
0.0040289
0.00371418
0.00338226
0.00304909
0.00273651
0.00246858
0.0022231
0.00198583
0.00174356
0.00123075
0.00499552
0.00587705
0.00780068
0.00348311
0.00385255
0.00446716
0.00471768
0.00496321
0.00492972
0.00485702
0.00516126
0.00550104
0.00564234
0.00570071
0.00572723
0.005728
0.00569368
0.00561277
0.00548399
0.00532041
0.00514595
0.00498767
0.00487002
0.00481782
0.00485672
0.00500307
0.00523898
0.00547758
0.00558418
0.00547987
0.00523289
0.00497881
0.00476801
0.00459154
0.00438382
0.0040232
0.00357108
0.00324586
0.00308573
0.00145672
0.0133797
0.00698941
0.00319088
0.0050018
0.00520347
0.00529362
0.00510542
0.00487155
0.00490466
0.0050544
0.00511271
0.00511355
0.00508928
0.00505481
0.00501126
0.00495196
0.00487028
0.00476586
0.00464631
0.00452535
0.00442008
0.0043514
0.00434718
0.00444519
0.00468792
0.00508643
0.00554349
0.00579684
0.00576213
0.00556977
0.00535878
0.00519408
0.0050903
0.00505402
0.00494435
0.00441375
0.00414948
0.00145742
0.0055502
0.00346287
0.00451049
0.00512976
0.00520115
0.00501852
0.00463061
0.00432255
0.0041822
0.00415103
0.00411765
0.00409095
0.00407241
0.00405963
0.00404885
0.00403581
0.00401669
0.00398963
0.00395585
0.00391967
0.00388785
0.00386914
0.00387464
0.00391918
0.00402243
0.0042058
0.00447399
0.00474993
0.0048988
0.00489835
0.00480334
0.00467242
0.00452823
0.00436191
0.00398525
0.00338955
0.00334213
0.00128849
0.00191783
0.00279621
0.0040456
0.00187008
0.00161014
0.00174004
0.00169889
0.00160227
0.00149796
0.00140827
0.00133323
0.00126889
0.00121646
0.00117278
0.00113577
0.00110396
0.00107619
0.00105156
0.00102927
0.00100871
0.000989446
0.000971267
0.000954194
0.000938448
0.000924425
0.000912683
0.000903921
0.000898952
0.000898916
0.000912079
0.000939935
0.000973747
0.00100598
0.00102926
0.00103578
0.00101683
0.000986212
0.000949473
0.000965285
0.000932939
)
;

boundaryField
{
    floor
    {
        type            nutkWallFunction;
        Cmu             0.09;
        kappa           0.41;
        E               9.8;
        value           nonuniform List<scalar> 
29
(
6.70525e-05
3.52311e-05
4.01794e-05
4.19814e-05
3.3634e-05
2.26005e-05
1.78281e-05
1.59725e-05
1.59287e-05
1.61735e-05
1.43131e-05
1.35912e-05
1.82296e-05
2.01881e-05
2.32568e-05
2.86828e-05
3.59144e-05
4.11228e-05
4.21018e-05
3.82251e-05
3.8225e-05
5.26588e-05
5.75609e-05
0.000101836
6.70525e-05
3.5231e-05
5.20239e-05
9.16237e-05
0.000114043
)
;
    }
    ceiling
    {
        type            nutkWallFunction;
        Cmu             0.09;
        kappa           0.41;
        E               9.8;
        value           nonuniform List<scalar> 
43
(
0.000224573
0.000318742
0.000447589
0.000219276
0.00019052
0.000204959
0.000200397
0.000189639
0.000177946
0.000167822
0.000159296
0.000151943
0.000145921
0.000140881
0.000136594
0.000132896
0.000129659
0.000126779
0.000124166
0.00012175
0.00011948
0.000117335
0.000115315
0.000113449
0.000111784
0.000110387
0.000109343
0.000108751
0.000108747
0.000110313
0.000113622
0.000117623
0.000121423
0.000124157
0.000124923
0.000122699
0.000119096
0.000114757
0.000116628
0.000112803
0.000542945
0.00062974
0.000597643
)
;
    }
    sWall
    {
        type            nutkWallFunction;
        Cmu             0.09;
        kappa           0.41;
        E               9.8;
        value           uniform 0.000224626;
    }
    nWall
    {
        type            nutkWallFunction;
        Cmu             0.09;
        kappa           0.41;
        E               9.8;
        value           nonuniform List<scalar> 6(0.000117293 0.000133541 0.000133632 0.000173369 0.000154184 0.000112807);
    }
    sideWalls
    {
        type            empty;
    }
    glass1
    {
        type            nutkWallFunction;
        Cmu             0.09;
        kappa           0.41;
        E               9.8;
        value           nonuniform List<scalar> 9(0.00015895 0.000167256 0.000306115 0.000380558 0.000407403 0.000430229 0.000455388 0.000488765 0.000543521);
    }
    glass2
    {
        type            nutkWallFunction;
        Cmu             0.09;
        kappa           0.41;
        E               9.8;
        value           nonuniform List<scalar> 2(0.00014759 0.000173346);
    }
    sun
    {
        type            nutkWallFunction;
        Cmu             0.09;
        kappa           0.41;
        E               9.8;
        value           nonuniform List<scalar> 
14
(
0.000158797
0.000179408
0.000187376
0.000153664
0.000134506
0.000119793
0.000103956
9.2208e-05
8.20285e-05
7.55654e-05
7.1809e-05
6.96079e-05
6.83351e-05
6.76924e-05
)
;
    }
    heatsource1
    {
        type            nutkWallFunction;
        Cmu             0.09;
        kappa           0.41;
        E               9.8;
        value           nonuniform List<scalar> 3(0.000143103 0.000131997 0.000117287);
    }
    heatsource2
    {
        type            nutkWallFunction;
        Cmu             0.09;
        kappa           0.41;
        E               9.8;
        value           nonuniform List<scalar> 4(7.46133e-05 5.2653e-05 5.2653e-05 8.55002e-05);
    }
    Table_master
    {
        type            nutkWallFunction;
        Cmu             0.09;
        kappa           0.41;
        E               9.8;
        value           nonuniform List<scalar> 9(5.34348e-05 4.1215e-05 3.39245e-05 2.74541e-05 2.19187e-05 3.30698e-05 4.14697e-05 5.05159e-05 6.24313e-05);
    }
    Table_slave
    {
        type            nutkWallFunction;
        Cmu             0.09;
        kappa           0.41;
        E               9.8;
        value           nonuniform List<scalar> 9(7.88981e-05 7.82141e-05 7.80609e-05 7.80759e-05 7.83403e-05 7.918e-05 8.07978e-05 8.28892e-05 8.57019e-05);
    }
    inlet
    {
        type            calculated;
        value           uniform 3.3541e-05;
    }
    outlet
    {
        type            calculated;
        value           nonuniform List<scalar> 2(0.00191783 0.00279621);
    }
}


// ************************************************************************* //
