/*--------------------------------*- C++ -*----------------------------------*\
  =========                 |
  \\      /  F ield         | OpenFOAM: The Open Source CFD Toolbox
   \\    /   O peration     | Website:  https://openfoam.org
    \\  /    A nd           | Version:  6
     \\/     M anipulation  |
\*---------------------------------------------------------------------------*/
FoamFile
{
    version     2.0;
    format      ascii;
    class       volScalarField;
    location    "360";
    object      epsilon;
}
// * * * * * * * * * * * * * * * * * * * * * * * * * * * * * * * * * * * * * //

dimensions      [0 2 -3 0 0 0 0];

internalField   nonuniform List<scalar> 
459
(
0.000308676
0.000404608
0.000432018
0.000500579
0.000571295
0.000645118
0.000726364
0.000806961
0.000867816
0.000893882
0.000872589
0.000799782
0.000681149
0.000524048
0.00025717
7.50758e-05
0.000160065
0.000143285
0.000129286
0.000117095
0.000103774
8.63083e-05
7.03481e-05
5.752e-05
4.74618e-05
3.9606e-05
3.34e-05
2.84007e-05
2.42745e-05
2.07512e-05
1.75841e-05
1.47836e-05
1.17999e-05
1.65503e-05
0.00076463
0.00108102
0.000375828
0.000366419
0.000385656
0.000418576
0.000468973
0.000532575
0.000591506
0.00062641
0.000622709
0.000576961
0.000497518
0.000405431
0.000293254
0.000376109
0.000116113
0.000206958
0.000391386
0.000193805
0.000136957
0.000108789
9.18023e-05
8.64765e-05
7.05011e-05
5.60705e-05
4.45722e-05
3.56632e-05
2.88418e-05
2.35824e-05
1.95398e-05
1.67044e-05
1.53588e-05
1.95881e-05
2.34357e-05
3.29817e-05
0.00138075
0.00258784
0.00045367
0.000344288
0.000361647
0.000409076
0.000481068
0.000569556
0.000648382
0.000695026
0.000697797
0.000656485
0.000578802
0.000486925
0.000392963
0.000343789
0.000422729
0.000330151
0.000271434
0.000192949
0.000149225
0.00012093
0.000108899
0.000228925
0.00015174
0.000105085
7.59456e-05
5.70329e-05
4.43505e-05
3.56006e-05
2.95007e-05
2.543e-05
2.0174e-05
2.17749e-05
3.28384e-05
4.38666e-05
0.00221925
0.0052964
0.00069525
0.000344783
0.000350802
0.000416016
0.000522341
0.000647159
0.00074162
0.000790568
0.000791228
0.000746835
0.000660979
0.000563245
0.0004725
0.000403973
0.00036654
0.000730608
0.000461432
0.000301166
0.000215834
0.000165299
0.000133829
0.000123396
0.000307261
0.000230319
0.000187676
0.000161691
0.000143796
0.000128998
0.000113863
9.98062e-05
8.48766e-05
5.14795e-05
3.66875e-05
5.60724e-05
6.24892e-05
0.00336633
0.0093871
0.00132631
0.000396958
0.000353128
0.000441828
0.000633326
0.000804877
0.00089873
0.000933949
0.000918866
0.00085576
0.000751279
0.000626327
0.000504392
0.000403437
0.00033242
0.000307268
0.000270068
0.000232474
0.000197502
0.000167296
0.000143007
0.000126158
0.000126118
0.000119324
0.000112867
0.000106992
0.000100919
9.37123e-05
8.47087e-05
7.49693e-05
6.55961e-05
5.39555e-05
4.32574e-05
5.82709e-05
6.50415e-05
8.9283e-05
8.3547e-05
7.13729e-05
0.00495567
0.0139595
0.00292173
0.000707762
0.000480787
0.000573999
0.000947942
0.00110672
0.0011552
0.00115014
0.00110503
0.00101256
0.000872407
0.000705278
0.000542507
0.00041106
0.000324393
0.000279675
0.000252642
0.000228907
0.000205514
0.000183071
0.000163173
0.00014766
0.000139557
0.000136279
0.00013467
0.000132116
0.000127306
0.000119684
0.000109059
9.50878e-05
8.06224e-05
6.75596e-05
5.62727e-05
5.67608e-05
6.51444e-05
7.24808e-05
0.000171237
0.000132051
0.00685133
0.0168142
0.00622109
0.00225994
0.001477
0.00153222
0.00164862
0.00162685
0.00155321
0.00147038
0.00137089
0.00122836
0.00103457
0.000814058
0.000606729
0.000446312
0.000347351
0.000298972
0.000274435
0.000255429
0.000236783
0.000218969
0.000203837
0.000193419
0.000189417
0.000190083
0.000190738
0.000187833
0.000180246
0.000168988
0.000156094
0.000142711
0.00012546
0.000110586
0.000100113
9.48871e-05
9.68212e-05
0.00010452
0.000275356
0.00021585
0.0073562
0.0199182
0.0105832
0.0066525
0.0046886
0.00361192
0.00288138
0.00240551
0.00210353
0.0019043
0.00172873
0.0015122
0.00123951
0.00094921
0.000692946
0.000506982
0.000402169
0.000355466
0.000334438
0.000319757
0.000307486
0.00029817
0.000292758
0.000292019
0.000295457
0.000299705
0.000299393
0.000290328
0.000271872
0.000248446
0.000228368
0.000218726
0.000221682
0.00022774
0.000251528
0.000290549
0.000351418
0.000427181
0.00157114
0.000412832
0.0068594
0.0117409
0.00972509
0.0072854
0.00552086
0.00431704
0.0035025
0.00296935
0.00264288
0.00242145
0.0021852
0.00186156
0.00146766
0.00109369
0.000805204
0.000621902
0.000543669
0.000514679
0.000503844
0.000500882
0.000502839
0.000509559
0.000518742
0.000529657
0.000541029
0.000547626
0.000541597
0.000515459
0.000466549
0.00040249
0.000342359
0.000305188
0.000301206
0.000329805
0.000385877
0.000476317
0.000602352
0.000762778
0.000940122
0.000516553
0.00445772
0.00613839
0.00513653
0.00436722
0.00383237
0.00352114
0.00334121
0.00313441
0.00277073
0.00225272
0.00169242
0.00131898
0.00115241
0.00108813
0.00107565
0.00108288
0.00109841
0.00111656
0.00113825
0.00116626
0.0011897
0.00120895
0.00122724
0.00123742
0.00122528
0.00117211
0.00106189
0.00089605
0.000711041
0.00055818
0.000458842
0.000411071
0.000420615
0.000485285
0.000594414
0.00072508
0.000883032
0.000902
0.00274687
0.00418767
0.00457119
0.00468446
0.00484912
0.00512889
0.00533862
0.00524745
0.00475794
0.00407183
0.00345725
0.00305566
0.00284499
0.00277553
0.00279056
0.00284714
0.00292063
0.00299822
0.00307028
0.00312628
0.00316755
0.00320297
0.00325232
0.00331058
0.00335366
0.00333715
0.00320695
0.00293127
0.0025481
0.00210535
0.00166477
0.00128867
0.00101276
0.000848053
0.000773692
0.000770034
0.00191308
0.00134526
0.00111933
0.00143469
0.00183509
0.0019809
0.00182996
0.00200272
0.00226881
0.00251343
0.00267997
0.00271428
0.00260313
0.00244121
0.00225678
0.00210119
0.00200274
0.00194923
0.00192309
0.00191092
0.00190403
0.00189681
0.00188637
0.00187362
0.00186227
0.00185656
0.00184848
0.00183018
0.00178946
0.00171492
0.00160506
0.00147776
0.00133984
0.00120462
0.0010837
0.000983233
0.000907304
0.000854562
0.00081479
0.000773499
0.000854086
0.000775886
)
;

boundaryField
{
    floor
    {
        Cmu             0.09;
        kappa           0.41;
        E               9.8;
        type            epsilonWallFunction;
        value           nonuniform List<scalar> 
29
(
0.00025717
7.50758e-05
0.000160065
0.000143285
0.000129286
0.000117095
0.000103774
8.63083e-05
7.03481e-05
5.752e-05
4.74618e-05
3.9606e-05
3.34e-05
2.84007e-05
2.42745e-05
2.07512e-05
1.75841e-05
1.47836e-05
1.17999e-05
1.65503e-05
1.65503e-05
3.29817e-05
4.38666e-05
6.24892e-05
0.00025717
7.50758e-05
0.000206958
0.000330151
0.000730608
)
;
    }
    ceiling
    {
        Cmu             0.09;
        kappa           0.41;
        E               9.8;
        type            epsilonWallFunction;
        value           nonuniform List<scalar> 
43
(
0.00111933
0.00143469
0.00183509
0.0019809
0.00182996
0.00200272
0.00226881
0.00251343
0.00267997
0.00271428
0.00260313
0.00244121
0.00225678
0.00210119
0.00200274
0.00194923
0.00192309
0.00191092
0.00190403
0.00189681
0.00188637
0.00187362
0.00186227
0.00185656
0.00184848
0.00183018
0.00178946
0.00171492
0.00160506
0.00147776
0.00133984
0.00120462
0.0010837
0.000983233
0.000907304
0.000854562
0.00081479
0.000773499
0.000854086
0.000775886
0.0068594
0.0117409
0.00274687
)
;
    }
    sWall
    {
        Cmu             0.09;
        kappa           0.41;
        E               9.8;
        type            epsilonWallFunction;
        value           uniform 0.00111933;
    }
    nWall
    {
        Cmu             0.09;
        kappa           0.41;
        E               9.8;
        type            epsilonWallFunction;
        value           nonuniform List<scalar> 6(7.13729e-05 0.000132051 0.00021585 0.000902 0.00134526 0.000775886);
    }
    sideWalls
    {
        type            empty;
    }
    glass1
    {
        Cmu             0.09;
        kappa           0.41;
        E               9.8;
        type            epsilonWallFunction;
        value           nonuniform List<scalar> 9(0.000308676 0.00076463 0.00138075 0.00221925 0.00336633 0.00495567 0.00685133 0.0073562 0.0068594);
    }
    glass2
    {
        Cmu             0.09;
        kappa           0.41;
        E               9.8;
        type            epsilonWallFunction;
        value           nonuniform List<scalar> 2(0.000412832 0.000516553);
    }
    sun
    {
        Cmu             0.09;
        kappa           0.41;
        E               9.8;
        type            epsilonWallFunction;
        value           nonuniform List<scalar> 
14
(
0.000308676
0.000404608
0.000432018
0.000500579
0.000571295
0.000645118
0.000726364
0.000806961
0.000867816
0.000893882
0.000872589
0.000799782
0.000681149
0.000524048
)
;
    }
    heatsource1
    {
        Cmu             0.09;
        kappa           0.41;
        E               9.8;
        type            epsilonWallFunction;
        value           nonuniform List<scalar> 3(8.9283e-05 8.3547e-05 7.13729e-05);
    }
    heatsource2
    {
        Cmu             0.09;
        kappa           0.41;
        E               9.8;
        type            epsilonWallFunction;
        value           nonuniform List<scalar> 4(0.000376109 0.000116113 0.000116113 0.000422729);
    }
    Table_master
    {
        Cmu             0.09;
        kappa           0.41;
        E               9.8;
        type            epsilonWallFunction;
        value           nonuniform List<scalar> 9(0.000228925 0.00015174 0.000105085 7.59456e-05 5.70329e-05 4.43505e-05 3.56006e-05 2.95007e-05 2.543e-05);
    }
    Table_slave
    {
        Cmu             0.09;
        kappa           0.41;
        E               9.8;
        type            epsilonWallFunction;
        value           nonuniform List<scalar> 9(0.000307261 0.000230319 0.000187676 0.000161691 0.000143796 0.000128998 0.000113863 9.98062e-05 8.48766e-05);
    }
    inlet
    {
        type            turbulentMixingLengthDissipationRateInlet;
        mixingLength    0.01;
        phi             phi;
        k               k;
        value           uniform 3.01869e-05;
    }
    outlet
    {
        type            zeroGradient;
    }
}


// ************************************************************************* //
