// -*- C++ -*-
// File generated by PyFoam - sorry for the ugliness

FoamFile
{
 version 2.0;
 format ascii;
 class volScalarField;
 location "200";
 object T;
}

dimensions [ 0 0 0 1 0 0 0 ];

internalField nonuniform List<scalar> 459
(
  306.156
  305.93
  305.932
  305.942
  305.95
  305.957
  305.963
  305.968
  305.972
  305.975
  305.975
  305.972
  305.965
  305.956
  305.943
  305.29
  305.271
  305.252
  305.244
  305.243
  305.249
  305.261
  305.273
  305.285
  305.296
  305.307
  305.32
  305.34
  305.371
  305.421
  305.491
  305.54
  305.558
  305.573
  306.337
  306.006
  305.992
  306.006
  306.021
  306.034
  306.044
  306.052
  306.058
  306.06
  306.056
  306.046
  306.028
  306.002
  305.966
  305.929
  305.784
  305.386
  305.4
  305.406
  305.414
  305.421
  305.411
  305.399
  305.408
  305.424
  305.447
  305.473
  305.498
  305.525
  305.56
  305.606
  305.658
  305.664
  305.667
  305.669
  306.502
  306.077
  306.042
  306.059
  306.08
  306.1
  306.117
  306.131
  306.141
  306.146
  306.142
  306.129
  306.103
  306.063
  306.009
  305.946
  305.892
  305.594
  305.604
  305.624
  305.641
  305.64
  305.613
  305.541
  305.564
  305.589
  305.614
  305.64
  305.669
  305.701
  305.742
  305.795
  305.85
  305.842
  305.818
  305.78
  306.652
  306.154
  306.09
  306.105
  306.133
  306.161
  306.187
  306.21
  306.227
  306.238
  306.238
  306.225
  306.197
  306.151
  306.086
  306.002
  305.905
  305.819
  305.768
  305.813
  305.85
  305.877
  305.892
  305.904
  305.914
  305.917
  305.92
  305.924
  305.929
  305.935
  305.941
  305.946
  305.949
  305.944
  305.943
  305.935
  305.897
  306.789
  306.243
  306.152
  306.151
  306.179
  306.213
  306.248
  306.281
  306.309
  306.328
  306.336
  306.329
  306.306
  306.266
  306.211
  306.145
  306.077
  306.018
  305.975
  305.966
  305.968
  305.969
  305.969
  305.966
  305.963
  305.961
  305.96
  305.961
  305.964
  305.969
  305.975
  305.982
  305.989
  305.994
  306
  306.003
  306
  306.013
  306.004
  306
  306.909
  306.349
  306.252
  306.223
  306.234
  306.264
  306.301
  306.34
  306.377
  306.406
  306.422
  306.423
  306.407
  306.375
  306.328
  306.271
  306.21
  306.154
  306.111
  306.082
  306.064
  306.05
  306.037
  306.026
  306.016
  306.008
  306.002
  305.998
  305.996
  305.997
  306.001
  306.007
  306.015
  306.024
  306.033
  306.04
  306.044
  306.045
  306.027
  306.004
  307.017
  306.502
  306.433
  306.384
  306.353
  306.351
  306.373
  306.405
  306.443
  306.473
  306.491
  306.497
  306.49
  306.469
  306.432
  306.385
  306.331
  306.279
  306.232
  306.194
  306.164
  306.14
  306.119
  306.1
  306.084
  306.069
  306.056
  306.045
  306.036
  306.03
  306.028
  306.029
  306.034
  306.043
  306.052
  306.059
  306.064
  306.062
  306.05
  306.012
  307.181
  306.799
  306.748
  306.677
  306.597
  306.549
  306.53
  306.529
  306.537
  306.548
  306.556
  306.557
  306.55
  306.536
  306.511
  306.477
  306.435
  306.39
  306.345
  306.304
  306.269
  306.238
  306.211
  306.187
  306.165
  306.144
  306.125
  306.107
  306.091
  306.077
  306.065
  306.057
  306.055
  306.058
  306.065
  306.074
  306.084
  306.094
  306.104
  306.12
  307.407
  307.244
  307.069
  306.964
  306.858
  306.78
  306.727
  306.692
  306.667
  306.645
  306.628
  306.612
  306.597
  306.58
  306.56
  306.536
  306.506
  306.472
  306.436
  306.399
  306.365
  306.333
  306.304
  306.277
  306.251
  306.227
  306.205
  306.182
  306.161
  306.14
  306.121
  306.104
  306.091
  306.083
  306.079
  306.079
  306.08
  306.082
  306.086
  306.108
  305.863
  306.645
  306.724
  306.723
  306.709
  306.691
  306.675
  306.659
  306.644
  306.628
  306.613
  306.597
  306.58
  306.562
  306.541
  306.517
  306.491
  306.463
  306.435
  306.407
  306.38
  306.353
  306.328
  306.303
  306.279
  306.255
  306.231
  306.208
  306.184
  306.163
  306.142
  306.126
  306.113
  306.105
  306.098
  306.093
  306.087
  306.087
  305.997
  306.427
  306.551
  306.609
  306.63
  306.635
  306.631
  306.625
  306.616
  306.607
  306.597
  306.586
  306.574
  306.56
  306.545
  306.529
  306.51
  306.49
  306.469
  306.447
  306.424
  306.401
  306.378
  306.355
  306.331
  306.308
  306.284
  306.26
  306.236
  306.213
  306.19
  306.17
  306.152
  306.136
  306.122
  306.108
  306.091
  306.086
  307.812
  307.302
  306.133
  306.257
  306.43
  306.526
  306.557
  306.567
  306.568
  306.566
  306.562
  306.556
  306.55
  306.543
  306.535
  306.527
  306.517
  306.507
  306.495
  306.482
  306.468
  306.452
  306.435
  306.418
  306.399
  306.379
  306.359
  306.338
  306.316
  306.293
  306.27
  306.247
  306.223
  306.2
  306.177
  306.154
  306.132
  306.108
  306.074
  306.022
)
;

boundaryField
{
  floor
  {
    type wallHeatTransfer;
    Tinf uniform 305.2;
    alphaWall uniform 0.24;
    value nonuniform List<scalar> 29
(
  305.847
  305.267
  305.253
  305.238
  305.232
  305.231
  305.234
  305.242
  305.251
  305.259
  305.267
  305.274
  305.284
  305.298
  305.32
  305.357
  305.413
  305.452
  305.471
  305.477
  305.477
  305.573
  305.683
  305.798
  305.847
  305.267
  305.346
  305.53
  305.744
)
;
  }
  ceiling
  {
    type wallHeatTransfer;
    Tinf uniform 303.2;
    alphaWall uniform 0.24;
    value nonuniform List<scalar> 43
(
  307.465
  307.063
  306.021
  306.121
  306.261
  306.341
  306.353
  306.345
  306.33
  306.315
  306.3
  306.288
  306.279
  306.271
  306.265
  306.258
  306.251
  306.242
  306.231
  306.219
  306.206
  306.191
  306.175
  306.159
  306.141
  306.123
  306.104
  306.084
  306.064
  306.042
  306.021
  305.998
  305.976
  305.953
  305.93
  305.907
  305.883
  305.853
  305.816
  305.761
  307.207
  307.073
  305.917
)
;
  }
  sWall
  {
    type wallHeatTransfer;
    Tinf uniform 315.2;
    alphaWall uniform 0.36;
    value uniform 308.618;
  }
  nWall
  {
    type wallHeatTransfer;
    Tinf uniform 307.2;
    alphaWall uniform 0.36;
    value nonuniform List<scalar> 6
(
  306.25
  306.247
  306.243
  306.212
  306.202
  306.178
)
;
  }
  sideWalls
  {
    type empty;
  }
  glass1
  {
    type wallHeatTransfer;
    Tinf uniform 315.2;
    alphaWall uniform 4.3;
    value nonuniform List<scalar> 9
(
  313.064
  312.309
  311.819
  311.459
  311.192
  310.987
  310.847
  310.917
  311.109
)
;
  }
  glass2
  {
    type wallHeatTransfer;
    Tinf uniform 307.2;
    alphaWall uniform 4.3;
    value nonuniform List<scalar> 2
(
  306.803
  306.779
)
;
  }
  sun
  {
    type wallHeatTransfer;
    Tinf uniform 305.2;
    alphaWall uniform 0.24;
    value nonuniform List<scalar> 14
(
  306.012
  305.823
  305.816
  305.827
  305.837
  305.846
  305.853
  305.86
  305.866
  305.87
  305.872
  305.871
  305.866
  305.859
)
;
  }
  heatsource1
  {
    type fixedGradient;
    gradient uniform 0;
  }
  heatsource2
  {
    type fixedGradient;
    gradient uniform 0;
  }
  Table_master
  {
    type zeroGradient;
  }
  Table_slave
  {
    type zeroGradient;
  }
  inlet
  {
    type fixedValue;
    value uniform 299.15;
  }
  outlet
  {
    type zeroGradient;
  }
} 	// ************************************************************************* //

