// -*- C++ -*-
// File generated by PyFoam - sorry for the ugliness

FoamFile
{
 version 2.0;
 format ascii;
 class volVectorField;
 location "670";
 object U;
}

dimensions [ 0 1 -1 0 0 0 0 ];

internalField nonuniform List<vector> 459
(
  (0.0341768 0.0699947 0)
  (-0.135611 0.0202803 0)
  (-0.155361 0.0163533 0)
  (-0.183779 0.0128536 0)
  (-0.207289 0.00886701 0)
  (-0.225386 0.00462336 0)
  (-0.237344 4.14342e-05 0)
  (-0.242166 -0.00502863 0)
  (-0.238421 -0.0107282 0)
  (-0.22548 -0.0172438 0)
  (-0.202954 -0.0241829 0)
  (-0.17116 -0.0311604 0)
  (-0.131064 -0.0384027 0)
  (-0.0865934 -0.0473662 0)
  (-0.0521547 -0.0596129 0)
  (-0.102072 0.000841367 0)
  (0.0391328 -0.0104548 0)
  (0.0389882 -0.00877764 0)
  (0.0397242 -0.00474959 0)
  (0.0423577 -0.00126199 0)
  (0.0421608 0.000849551 0)
  (0.0393896 0.000650879 0)
  (0.0370828 0.000147807 0)
  (0.0361738 0.000123907 0)
  (0.0358083 0.000243592 0)
  (0.0353934 0.000294668 0)
  (0.0348338 0.000329309 0)
  (0.0340524 0.000484634 0)
  (0.0327331 0.000950586 0)
  (0.0302835 0.00211322 0)
  (0.0258128 0.00446992 0)
  (0.0198978 0.00600483 0)
  (-0.0478388 0.0118348 0)
  (0.141854 -0.0105606 0)
  (0.183061 0.143974 0)
  (-0.131976 0.0532687 0)
  (-0.128967 0.0466157 0)
  (-0.158915 0.039952 0)
  (-0.182229 0.0323469 0)
  (-0.200253 0.0239572 0)
  (-0.212493 0.0144491 0)
  (-0.218036 0.00340712 0)
  (-0.21538 -0.00942926 0)
  (-0.204282 -0.0233574 0)
  (-0.18496 -0.0368478 0)
  (-0.158738 -0.0482764 0)
  (-0.128341 -0.0568171 0)
  (-0.0990771 -0.0623766 0)
  (-0.0781264 -0.0619574 0)
  (-0.056977 -0.0390709 0)
  (-0.022514 -0.0214652 0)
  (-0.124952 -0.0064121 0)
  (0.0412077 -0.0286023 0)
  (0.0430007 -0.0189859 0)
  (0.0448875 -0.00828743 0)
  (0.0463279 0.00030836 0)
  (0.0444741 0.00552349 0)
  (0.0415216 0.00274372 0)
  (0.0409092 0.000657799 0)
  (0.0414568 0.000267144 0)
  (0.041842 0.000480554 0)
  (0.0419724 0.000785247 0)
  (0.0420438 0.00120763 0)
  (0.0420951 0.00193325 0)
  (0.0420193 0.00326699 0)
  (0.041302 0.0059753 0)
  (0.0377709 0.0126787 0)
  (0.0354406 0.0173863 0)
  (-0.0424443 0.0216517 0)
  (0.199301 -0.000102317 0)
  (0.320081 0.216797 0)
  (-0.150931 0.0865505 0)
  (-0.0991384 0.0764335 0)
  (-0.129219 0.0634914 0)
  (-0.149876 0.0503851 0)
  (-0.166275 0.0363238 0)
  (-0.177919 0.0205347 0)
  (-0.183687 0.0023949 0)
  (-0.181458 -0.0181588 0)
  (-0.170958 -0.0400782 0)
  (-0.152904 -0.0606027 0)
  (-0.129182 -0.0768412 0)
  (-0.102568 -0.0871151 0)
  (-0.0765502 -0.0901173 0)
  (-0.0536532 -0.0825273 0)
  (-0.0316663 -0.059878 0)
  (-0.00854195 -0.0412191 0)
  (-0.0232702 -0.0451597 0)
  (0.0405856 -0.0402356 0)
  (0.0534392 -0.0271573 0)
  (0.0541077 -0.0121012 0)
  (0.0528778 0.00167823 0)
  (0.0473473 0.0129449 0)
  (0.0395525 0.00572837 0)
  (0.0408174 0.00222484 0)
  (0.0431071 0.000330484 0)
  (0.0440363 -0.000794814 0)
  (0.044315 -0.00160577 0)
  (0.0446453 -0.00216296 0)
  (0.0453618 -0.00236751 0)
  (0.047029 -0.00194463 0)
  (0.0509833 0.000720753 0)
  (0.0501555 0.0160213 0)
  (0.0486193 0.0252985 0)
  (-0.0192079 0.0299467 0)
  (0.218706 0.0265012 0)
  (0.443962 0.27627 0)
  (-0.184257 0.116787 0)
  (-0.0662441 0.102279 0)
  (-0.0968676 0.0838559 0)
  (-0.112251 0.06722 0)
  (-0.125139 0.0494639 0)
  (-0.135048 0.0290254 0)
  (-0.140451 0.004701 0)
  (-0.137959 -0.0236853 0)
  (-0.127455 -0.0537222 0)
  (-0.110665 -0.0808817 0)
  (-0.0900018 -0.101217 0)
  (-0.0677232 -0.112973 0)
  (-0.0457836 -0.114873 0)
  (-0.0249561 -0.104818 0)
  (-0.00434855 -0.0831394 0)
  (0.0164367 -0.0636439 0)
  (0.0547 -0.110156 0)
  (0.0721519 -0.0695403 0)
  (0.0710898 -0.0467513 0)
  (0.0654555 -0.0298193 0)
  (0.0614969 -0.0133576 0)
  (0.0610461 0.0017145 0)
  (0.0629394 0.0146573 0)
  (0.0668434 0.011067 0)
  (0.0619483 0.00620471 0)
  (0.0564872 0.00335439 0)
  (0.0529581 0.0016962 0)
  (0.0503576 0.000654876 0)
  (0.0477098 7.62356e-05 0)
  (0.0445489 -4.17598e-05 0)
  (0.0403055 0.000386914 0)
  (0.0321871 0.00165484 0)
  (0.0335136 0.0202673 0)
  (0.0436428 0.0301347 0)
  (-0.00916439 0.0339157 0)
  (0.233767 0.0588316 0)
  (0.552641 0.323088 0)
  (-0.223651 0.142411 0)
  (-0.0316315 0.118681 0)
  (-0.0628441 0.0970283 0)
  (-0.0711405 0.0786612 0)
  (-0.0785027 0.0588018 0)
  (-0.0849456 0.0352393 0)
  (-0.0886361 0.00596715 0)
  (-0.0838065 -0.0294419 0)
  (-0.0725704 -0.0666412 0)
  (-0.0578836 -0.098642 0)
  (-0.0420902 -0.121041 0)
  (-0.0262905 -0.133118 0)
  (-0.0113287 -0.134443 0)
  (0.00335268 -0.123555 0)
  (0.0182546 -0.102492 0)
  (0.0343999 -0.0781816 0)
  (0.0504331 -0.0580532 0)
  (0.0572811 -0.0474377 0)
  (0.0541034 -0.0355913 0)
  (0.0497219 -0.0222599 0)
  (0.0468802 -0.00881411 0)
  (0.0464129 0.00274072 0)
  (0.0480065 0.00986588 0)
  (0.0482634 0.00752517 0)
  (0.0457203 0.00500674 0)
  (0.0424901 0.00414141 0)
  (0.0397796 0.0040165 0)
  (0.0374133 0.00415008 0)
  (0.0350549 0.00458786 0)
  (0.0325972 0.00548947 0)
  (0.030039 0.00704586 0)
  (0.0269531 0.00956432 0)
  (0.0270838 0.0174778 0)
  (0.038796 0.0244094 0)
  (0.0143703 0.0229853 0)
  (0.114647 0.0560874 0)
  (0.0834759 0.0548303 0)
  (-0.0942723 0.0568498 0)
  (0.329645 -0.0210133 0)
  (0.634189 0.362822 0)
  (-0.262462 0.161048 0)
  (-0.00188586 0.11986 0)
  (-0.0276176 0.10257 0)
  (-0.0286842 0.0844393 0)
  (-0.0297224 0.0637388 0)
  (-0.0313909 0.0392966 0)
  (-0.0316003 0.00725418 0)
  (-0.0189857 -0.0359299 0)
  (-0.00698906 -0.0786055 0)
  (0.00373091 -0.11268 0)
  (0.0123178 -0.134331 0)
  (0.0193356 -0.144868 0)
  (0.0249137 -0.144812 0)
  (0.0296707 -0.134006 0)
  (0.0346857 -0.114069 0)
  (0.0401032 -0.0898603 0)
  (0.0437479 -0.0678133 0)
  (0.0425844 -0.0509135 0)
  (0.0375062 -0.0348068 0)
  (0.0320402 -0.0199956 0)
  (0.0281736 -0.00734097 0)
  (0.0264495 0.00248102 0)
  (0.027071 0.00830601 0)
  (0.0274357 0.00881635 0)
  (0.0265635 0.00768392 0)
  (0.0249822 0.00682919 0)
  (0.0233459 0.00635326 0)
  (0.0218148 0.00617031 0)
  (0.0203788 0.00636665 0)
  (0.0191027 0.00705916 0)
  (0.0181319 0.00832556 0)
  (0.0174337 0.0101742 0)
  (0.0184721 0.013374 0)
  (0.0251194 0.0154733 0)
  (0.0130191 0.0066626 0)
  (0.038822 0.0330338 0)
  (0.0425988 0.0551548 0)
  (-0.132962 0.0724924 0)
  (0.34494 -0.0393186 0)
  (0.672973 0.398011 0)
  (-0.285707 0.151413 0)
  (0.0201132 0.0868068 0)
  (0.0157137 0.0977256 0)
  (0.0183298 0.0868538 0)
  (0.0224082 0.0642602 0)
  (0.0267146 0.036786 0)
  (0.0384065 -0.00163781 0)
  (0.0558259 -0.049087 0)
  (0.0657688 -0.0892788 0)
  (0.0696207 -0.118816 0)
  (0.0691534 -0.137495 0)
  (0.0657599 -0.145959 0)
  (0.0603764 -0.14454 0)
  (0.0539872 -0.133336 0)
  (0.0476659 -0.113636 0)
  (0.0417738 -0.0891312 0)
  (0.0354206 -0.0651573 0)
  (0.0276496 -0.0448611 0)
  (0.019234 -0.0279608 0)
  (0.0120983 -0.0144461 0)
  (0.00751697 -0.00408249 0)
  (0.00559103 0.00337683 0)
  (0.00619528 0.0077544 0)
  (0.00706536 0.00886346 0)
  (0.00728393 0.00837638 0)
  (0.00691382 0.00769733 0)
  (0.00630241 0.00721062 0)
  (0.00567953 0.00696129 0)
  (0.00520405 0.0069919 0)
  (0.00506507 0.00734692 0)
  (0.00546976 0.00803008 0)
  (0.00648123 0.00898788 0)
  (0.00858097 0.0104169 0)
  (0.012434 0.011691 0)
  (0.00596173 0.0100992 0)
  (0.0124566 0.0334411 0)
  (0.0319242 0.073828 0)
  (-0.181065 0.0889986 0)
  (0.432055 -0.0467919 0)
  (0.765133 0.406011 0)
  (-0.0978575 0.12348 0)
  (0.0752644 0.0199584 0)
  (0.108721 0.03324 0)
  (0.100784 0.0415806 0)
  (0.0996288 0.0275835 0)
  (0.106248 -0.000832148 0)
  (0.128836 -0.0354315 0)
  (0.142861 -0.0675581 0)
  (0.144557 -0.0952615 0)
  (0.137547 -0.116289 0)
  (0.124961 -0.129479 0)
  (0.108882 -0.134521 0)
  (0.0907976 -0.131245 0)
  (0.0720422 -0.119578 0)
  (0.0539373 -0.100406 0)
  (0.0373707 -0.0765188 0)
  (0.0226093 -0.0528319 0)
  (0.00963945 -0.0330764 0)
  (-0.00113473 -0.0179262 0)
  (-0.00852973 -0.00752914 0)
  (-0.0125817 -0.00054073 0)
  (-0.0139064 0.00422751 0)
  (-0.0132584 0.00712109 0)
  (-0.0121737 0.00829862 0)
  (-0.0113725 0.00840033 0)
  (-0.0109573 0.0081328 0)
  (-0.0107436 0.0078098 0)
  (-0.0105161 0.00752051 0)
  (-0.010065 0.00729582 0)
  (-0.0091602 0.00715142 0)
  (-0.00756271 0.00709737 0)
  (-0.00506714 0.00719504 0)
  (-0.00131081 0.00781028 0)
  (0.00391279 0.00972812 0)
  (0.00591558 0.0132122 0)
  (0.0159719 0.0334554 0)
  (0.0529354 0.0749013 0)
  (-0.144424 0.0747466 0)
  (0.719191 0.00380478 0)
  (0.886057 0.408436 0)
  (0.426882 0.289779 0)
  (0.426305 0.229236 0)
  (0.403142 0.168298 0)
  (0.353533 0.123736 0)
  (0.314791 0.0814483 0)
  (0.295499 0.0394302 0)
  (0.278588 -0.00224783 0)
  (0.255136 -0.0394722 0)
  (0.228129 -0.068793 0)
  (0.199338 -0.0895241 0)
  (0.169367 -0.102165 0)
  (0.138505 -0.107104 0)
  (0.107212 -0.104257 0)
  (0.0764379 -0.0936142 0)
  (0.0476299 -0.0761072 0)
  (0.0223169 -0.0541257 0)
  (0.00210804 -0.0326746 0)
  (-0.0124567 -0.0163413 0)
  (-0.0216237 -0.00608756 0)
  (-0.0273164 0.000384706 0)
  (-0.0303271 0.00454247 0)
  (-0.030961 0.00725312 0)
  (-0.030355 0.00906432 0)
  (-0.0292468 0.0100753 0)
  (-0.0281186 0.0104528 0)
  (-0.0271186 0.010446 0)
  (-0.0261932 0.0102144 0)
  (-0.0252257 0.00982939 0)
  (-0.0240769 0.00931668 0)
  (-0.0225825 0.00868457 0)
  (-0.0205471 0.00795516 0)
  (-0.0177262 0.00722701 0)
  (-0.013715 0.00677757 0)
  (-0.00820002 0.00731785 0)
  (-0.00101797 0.0101556 0)
  (0.0149416 0.0229199 0)
  (0.0518801 0.0529799 0)
  (-0.108996 0.0440642 0)
  (0.708377 0.0444781 0)
  (0.128948 0.0859537 0)
  (0.242753 0.122509 0)
  (0.280637 0.107769 0)
  (0.280816 0.0777708 0)
  (0.277059 0.0455572 0)
  (0.269518 0.017738 0)
  (0.254368 -0.00819264 0)
  (0.231819 -0.0329328 0)
  (0.202929 -0.054234 0)
  (0.169048 -0.0698957 0)
  (0.132241 -0.0783711 0)
  (0.0945015 -0.078659 0)
  (0.057741 -0.0708336 0)
  (0.023795 -0.0561684 0)
  (-0.00507714 -0.0366211 0)
  (-0.0235907 -0.0198103 0)
  (-0.0342085 -0.00789711 0)
  (-0.0399816 0.000425773 0)
  (-0.0429864 0.00533955 0)
  (-0.0441418 0.00779809 0)
  (-0.0440746 0.00932493 0)
  (-0.0432603 0.0103236 0)
  (-0.0420235 0.0108265 0)
  (-0.0406268 0.0108772 0)
  (-0.0392114 0.0105767 0)
  (-0.0378231 0.0100156 0)
  (-0.0364653 0.00924882 0)
  (-0.0351239 0.00829759 0)
  (-0.0337722 0.0071565 0)
  (-0.0323771 0.00579463 0)
  (-0.0309493 0.00409962 0)
  (-0.0296327 0.00158184 0)
  (-0.0280482 -0.000557497 0)
  (-0.0245176 0.000573111 0)
  (-0.0145698 0.0103966 0)
  (-0.00449516 0.0318256 0)
  (-0.156284 0.0250401 0)
  (0.431283 0.0710058 0)
  (-0.0144507 0.145995 0)
  (0.103856 0.118881 0)
  (0.147807 0.0697481 0)
  (0.177055 0.0245654 0)
  (0.19728 -0.0198144 0)
  (0.205742 -0.0632713 0)
  (0.201356 -0.0969575 0)
  (0.182163 -0.112084 0)
  (0.151931 -0.114035 0)
  (0.116303 -0.107859 0)
  (0.0803488 -0.0979985 0)
  (0.0468327 -0.0889167 0)
  (0.0175236 -0.0833426 0)
  (-0.00778366 -0.0812435 0)
  (-0.025262 -0.0828735 0)
  (-0.0372153 -0.0855569 0)
  (-0.0451216 -0.0876884 0)
  (-0.0497061 -0.0876449 0)
  (-0.0517705 -0.0869433 0)
  (-0.052405 -0.0861385 0)
  (-0.052305 -0.0854413 0)
  (-0.0516413 -0.0847658 0)
  (-0.0505463 -0.0842018 0)
  (-0.0491816 -0.083835 0)
  (-0.047693 -0.0836962 0)
  (-0.0461914 -0.0838034 0)
  (-0.0447642 -0.0841963 0)
  (-0.0434911 -0.0849487 0)
  (-0.0424651 -0.0861631 0)
  (-0.0418428 -0.0879373 0)
  (-0.0419881 -0.0902745 0)
  (-0.0436162 -0.0927529 0)
  (-0.0468106 -0.0947524 0)
  (-0.0489079 -0.0925039 0)
  (-0.0477844 -0.0776736 0)
  (-0.0575928 -0.0488992 0)
  (-0.126926 -0.0354575 0)
  (0.343008 -0.0092258 0)
  (0.123902 -0.193541 0)
  (-0.254791 -0.0264886 0)
  (-0.16232 0.234066 0)
  (-0.0741109 0.225383 0)
  (-0.0073581 0.218354 0)
  (0.0459366 0.225951 0)
  (0.0768251 0.241496 0)
  (0.091793 0.268529 0)
  (0.0935658 0.295401 0)
  (0.087109 0.30174 0)
  (0.0731624 0.294618 0)
  (0.0536443 0.281289 0)
  (0.0304042 0.269511 0)
  (0.00234097 0.269095 0)
  (-0.0213143 0.278213 0)
  (-0.0359387 0.285099 0)
  (-0.0462888 0.293506 0)
  (-0.0527839 0.30208 0)
  (-0.0566225 0.308973 0)
  (-0.0586416 0.311662 0)
  (-0.0594517 0.313058 0)
  (-0.0594544 0.313952 0)
  (-0.0589007 0.314653 0)
  (-0.05795 0.315106 0)
  (-0.0567388 0.315389 0)
  (-0.0554212 0.315563 0)
  (-0.0541463 0.315652 0)
  (-0.0530504 0.315675 0)
  (-0.0522581 0.315671 0)
  (-0.0518808 0.315717 0)
  (-0.0520209 0.315952 0)
  (-0.0528204 0.316597 0)
  (-0.0544875 0.317916 0)
  (-0.0568365 0.319674 0)
  (-0.0583412 0.321223 0)
  (-0.0568005 0.318455 0)
  (-0.0577782 0.30512 0)
  (-0.0861369 0.285639 0)
  (-0.152265 0.283783 0)
  (0.438555 0.322123 0)
)
;

boundaryField
{
  floor
  {
    type noSlip;
  }
  ceiling
  {
    type noSlip;
  }
  sWall
  {
    type noSlip;
  }
  nWall
  {
    type noSlip;
  }
  sideWalls
  {
    type empty;
  }
  glass1
  {
    type noSlip;
  }
  glass2
  {
    type noSlip;
  }
  sun
  {
    type noSlip;
  }
  heatsource1
  {
    type noSlip;
  }
  heatsource2
  {
    type noSlip;
  }
  Table_master
  {
    type noSlip;
  }
  Table_slave
  {
    type noSlip;
  }
  inlet
  {
    type fixedValue;
    value uniform (0.277164 -0.114805 0);
  }
  outlet
  {
    type zeroGradient;
  }
} 	// ************************************************************************* //

