/*--------------------------------*- C++ -*----------------------------------*\
  =========                 |
  \\      /  F ield         | OpenFOAM: The Open Source CFD Toolbox
   \\    /   O peration     | Website:  https://openfoam.org
    \\  /    A nd           | Version:  6
     \\/     M anipulation  |
\*---------------------------------------------------------------------------*/
FoamFile
{
    version     2.0;
    format      ascii;
    class       volScalarField;
    location    "100";
    object      epsilon;
}
// * * * * * * * * * * * * * * * * * * * * * * * * * * * * * * * * * * * * * //

dimensions      [0 2 -3 0 0 0 0];

internalField   nonuniform List<scalar> 
459
(
0.000134645
0.000150744
0.000141971
0.00015558
0.000167838
0.000178543
0.000187952
0.000196438
0.000204469
0.000212521
0.000218355
0.000221235
0.000221166
0.00021954
0.000216972
0.000116931
9.66323e-05
8.21856e-05
7.44336e-05
6.96932e-05
6.45308e-05
5.71481e-05
5.03195e-05
4.42621e-05
3.89469e-05
3.43394e-05
3.03747e-05
2.6971e-05
2.40362e-05
2.14652e-05
1.9142e-05
1.69538e-05
1.62077e-05
1.32271e-05
0.000495612
0.00112121
0.000139365
0.000117877
0.000115018
0.000114477
0.000115711
0.000119572
0.000126958
0.000138469
0.000150956
0.000162574
0.000171615
0.000178481
0.000191896
0.000237917
0.000198176
0.00019545
0.000103967
7.3419e-05
6.18096e-05
5.47713e-05
4.95232e-05
4.70854e-05
4.13038e-05
3.57251e-05
3.06668e-05
2.62674e-05
2.25444e-05
1.94362e-05
1.68648e-05
1.4848e-05
1.37084e-05
1.38097e-05
4.42354e-05
3.00836e-05
0.00115647
0.00369488
0.000237384
0.000120737
0.000113863
0.000116183
0.000121762
0.000130731
0.000143118
0.000158328
0.000173376
0.000184356
0.000188956
0.000189292
0.00019448
0.000221673
0.000322876
0.000293192
9.73292e-05
7.61806e-05
6.54963e-05
5.82817e-05
5.74567e-05
0.000126194
8.39483e-05
6.03767e-05
4.61476e-05
3.69368e-05
3.06214e-05
2.61094e-05
2.2842e-05
2.06364e-05
1.67095e-05
1.63433e-05
9.68823e-05
4.99894e-05
0.00228331
0.00877301
0.000528316
0.000136886
0.000120451
0.000127171
0.000137822
0.000151973
0.00016995
0.000191571
0.000212401
0.000224335
0.000223964
0.000214161
0.000203151
0.00020654
0.000257643
0.000382174
0.000179374
0.000107898
8.1989e-05
6.62711e-05
5.81431e-05
5.87906e-05
0.000140135
0.000117481
0.000110028
0.000106624
0.000102624
9.53719e-05
8.4736e-05
7.42914e-05
6.2692e-05
3.91568e-05
2.94724e-05
0.000196636
6.92166e-05
0.00400393
0.0165321
0.00128044
0.000175893
0.00012601
0.000134997
0.000151816
0.000174857
0.000205375
0.000243618
0.000279479
0.000296745
0.000292541
0.000271671
0.000240866
0.000209285
0.000190519
0.000190657
0.000148503
0.000120021
8.90469e-05
7.11923e-05
6.29079e-05
6.10392e-05
6.74687e-05
7.06421e-05
7.37419e-05
7.59336e-05
7.57505e-05
7.18472e-05
6.43074e-05
5.75126e-05
5.19993e-05
4.39339e-05
3.75251e-05
0.000125556
8.63094e-05
0.000121253
0.000200749
0.000284165
0.00645409
0.0246775
0.0031947
0.000338574
0.000152422
0.000146884
0.00016417
0.000194766
0.000243388
0.000318894
0.000378693
0.000399129
0.000387343
0.000354241
0.000307017
0.000251035
0.000192418
0.00015833
0.000154039
0.000140193
0.000103207
8.30915e-05
7.45576e-05
7.30709e-05
7.69346e-05
8.33597e-05
9.08676e-05
9.78448e-05
0.000102142
0.000100962
9.15282e-05
7.59705e-05
6.2778e-05
5.21163e-05
4.73118e-05
8.14537e-05
8.70695e-05
9.82441e-05
0.000378868
0.000336129
0.00978938
0.029061
0.00788324
0.00152657
0.000493498
0.000292335
0.000254856
0.000269066
0.000324379
0.000470789
0.000537771
0.000539515
0.000505016
0.000452038
0.000387899
0.000315597
0.00022953
0.000165362
0.000165535
0.000171738
0.000128545
0.000104562
9.50818e-05
9.36757e-05
9.78239e-05
0.000106206
0.000117804
0.000131344
0.000144804
0.000155217
0.00015659
0.000135322
0.000113139
9.58063e-05
9.04641e-05
0.000110689
0.000152109
0.000267152
0.000615884
0.000563862
0.0108661
0.0368202
0.0176633
0.00927226
0.00442895
0.00210306
0.00119325
0.000874216
0.000826096
0.000840144
0.0008004
0.000727281
0.000641834
0.000555547
0.000472029
0.000388912
0.000286618
0.000187726
0.000178947
0.000217025
0.00016972
0.00014071
0.000129247
0.000126735
0.000130214
0.000138904
0.000152729
0.000172202
0.000198217
0.000231353
0.000270302
0.000309373
0.000312789
0.000339165
0.000418276
0.000671778
0.0013457
0.00272697
0.00776731
0.00180501
0.0103098
0.0186829
0.0150384
0.0111301
0.00780023
0.00521643
0.0034969
0.00246295
0.00185972
0.00144078
0.00114706
0.000934587
0.000774179
0.000647121
0.00054208
0.000450334
0.000341796
0.000223549
0.000196559
0.000281102
0.000238202
0.000203057
0.000188783
0.000183277
0.000182722
0.000186881
0.000196852
0.000215011
0.000245245
0.000292791
0.000363677
0.000464444
0.000602877
0.000793907
0.00108083
0.00146036
0.00187062
0.00219073
0.00242033
0.00136678
0.00634645
0.00815148
0.0064965
0.00484555
0.00355939
0.00264344
0.0020124
0.00156787
0.00124754
0.00101106
0.0008305
0.000688406
0.00057549
0.000484106
0.000374448
0.000247636
0.000219807
0.000385349
0.000360526
0.000318324
0.000305192
0.000299578
0.000294594
0.000290372
0.000288397
0.000290989
0.000301989
0.000327302
0.000375433
0.000457117
0.000579998
0.000750721
0.000970217
0.00120385
0.0013689
0.00136308
0.00111326
0.000735374
0.00466667
0.00744431
0.00594346
0.0044222
0.0033464
0.0025424
0.00194322
0.00149917
0.00116724
0.000915901
0.00072413
0.000577586
0.000466819
0.000383627
0.000317025
0.000252974
0.000249701
0.000479747
0.000488195
0.000472547
0.000469061
0.000465956
0.000457212
0.000443965
0.000429729
0.000419131
0.000417468
0.000430358
0.000464209
0.000529203
0.000632959
0.00078064
0.000968603
0.00118619
0.0013561
0.00145444
0.000972901
0.000769578
0.00318311
0.00367653
0.00414713
0.00495791
0.00421306
0.00317896
0.00255411
0.00206061
0.00166322
0.00134346
0.00109808
0.000907632
0.000752054
0.000621904
0.000512704
0.0004221
0.00034703
0.000281599
0.000249597
0.000302199
0.000301228
0.000296134
0.000297404
0.000299169
0.000300529
0.000303097
0.000308899
0.000320068
0.000339094
0.000369542
0.000416704
0.000479584
0.00056325
0.000670742
0.000804247
0.00100947
0.00106597
0.000986722
0.000798931
0.000625403
)
;

boundaryField
{
    floor
    {
        Cmu             0.09;
        kappa           0.41;
        E               9.8;
        type            epsilonWallFunction;
        value           nonuniform List<scalar> 
29
(
0.000216972
0.000116931
9.66323e-05
8.21856e-05
7.44336e-05
6.96932e-05
6.45308e-05
5.71481e-05
5.03195e-05
4.42621e-05
3.89469e-05
3.43394e-05
3.03747e-05
2.6971e-05
2.40362e-05
2.14652e-05
1.9142e-05
1.69538e-05
1.62077e-05
1.32271e-05
1.32271e-05
3.00836e-05
4.99894e-05
6.92166e-05
0.000216972
0.000116931
0.00019545
0.000293192
0.000382174
)
;
    }
    ceiling
    {
        Cmu             0.09;
        kappa           0.41;
        E               9.8;
        type            epsilonWallFunction;
        value           nonuniform List<scalar> 
43
(
0.00318311
0.00367653
0.00414713
0.00495791
0.00421306
0.00317896
0.00255411
0.00206061
0.00166322
0.00134346
0.00109808
0.000907632
0.000752054
0.000621904
0.000512704
0.0004221
0.00034703
0.000281599
0.000249597
0.000302199
0.000301228
0.000296134
0.000297404
0.000299169
0.000300529
0.000303097
0.000308899
0.000320068
0.000339094
0.000369542
0.000416704
0.000479584
0.00056325
0.000670742
0.000804247
0.00100947
0.00106597
0.000986722
0.000798931
0.000625403
0.0103098
0.0186829
0.00466667
)
;
    }
    sWall
    {
        Cmu             0.09;
        kappa           0.41;
        E               9.8;
        type            epsilonWallFunction;
        value           uniform 0.00318311;
    }
    nWall
    {
        Cmu             0.09;
        kappa           0.41;
        E               9.8;
        type            epsilonWallFunction;
        value           nonuniform List<scalar> 6(0.000284165 0.000336129 0.000563862 0.000735374 0.000769578 0.000625403);
    }
    sideWalls
    {
        type            empty;
    }
    glass1
    {
        Cmu             0.09;
        kappa           0.41;
        E               9.8;
        type            epsilonWallFunction;
        value           nonuniform List<scalar> 9(0.000134645 0.000495612 0.00115647 0.00228331 0.00400393 0.00645409 0.00978938 0.0108661 0.0103098);
    }
    glass2
    {
        Cmu             0.09;
        kappa           0.41;
        E               9.8;
        type            epsilonWallFunction;
        value           nonuniform List<scalar> 2(0.00180501 0.00136678);
    }
    sun
    {
        Cmu             0.09;
        kappa           0.41;
        E               9.8;
        type            epsilonWallFunction;
        value           nonuniform List<scalar> 
14
(
0.000134645
0.000150744
0.000141971
0.00015558
0.000167838
0.000178543
0.000187952
0.000196438
0.000204469
0.000212521
0.000218355
0.000221235
0.000221166
0.00021954
)
;
    }
    heatsource1
    {
        Cmu             0.09;
        kappa           0.41;
        E               9.8;
        type            epsilonWallFunction;
        value           nonuniform List<scalar> 3(0.000121253 0.000200749 0.000284165);
    }
    heatsource2
    {
        Cmu             0.09;
        kappa           0.41;
        E               9.8;
        type            epsilonWallFunction;
        value           nonuniform List<scalar> 4(0.000237917 0.000198176 0.000198176 0.000322876);
    }
    Table_master
    {
        Cmu             0.09;
        kappa           0.41;
        E               9.8;
        type            epsilonWallFunction;
        value           nonuniform List<scalar> 9(0.000126194 8.39483e-05 6.03767e-05 4.61476e-05 3.69368e-05 3.06214e-05 2.61094e-05 2.2842e-05 2.06364e-05);
    }
    Table_slave
    {
        Cmu             0.09;
        kappa           0.41;
        E               9.8;
        type            epsilonWallFunction;
        value           nonuniform List<scalar> 9(0.000140135 0.000117481 0.000110028 0.000106624 0.000102624 9.53719e-05 8.4736e-05 7.42914e-05 6.2692e-05);
    }
    inlet
    {
        type            turbulentMixingLengthDissipationRateInlet;
        mixingLength    0.01;
        phi             phi;
        k               k;
        value           uniform 0.000101881;
    }
    outlet
    {
        type            zeroGradient;
    }
}


// ************************************************************************* //
