/*--------------------------------*- C++ -*----------------------------------*\
  =========                 |
  \\      /  F ield         | OpenFOAM: The Open Source CFD Toolbox
   \\    /   O peration     | Website:  https://openfoam.org
    \\  /    A nd           | Version:  6
     \\/     M anipulation  |
\*---------------------------------------------------------------------------*/
FoamFile
{
    version     2.0;
    format      ascii;
    class       surfaceScalarField;
    location    "100";
    object      phi;
}
// * * * * * * * * * * * * * * * * * * * * * * * * * * * * * * * * * * * * * //

dimensions      [1 0 -1 0 0 0 0];

internalField   nonuniform List<scalar> 
852
(
-0.00219843
0.00224895
-0.00238759
0.00018922
-0.00258037
0.000192829
-0.00280653
0.000226221
-0.00301396
0.000207484
-0.00317894
0.000165041
-0.00328629
0.000107409
-0.0033221
3.58802e-05
-0.0032715
-5.05378e-05
-0.00311713
-0.000154306
-0.0028426
-0.000274474
-0.00243436
-0.000408177
-0.00186968
-0.000564614
-0.00108424
-0.000785372
-0.00108438
-1.63414e-05
1.6468e-05
-0.0002155
0.00019916
-0.000395687
0.000180184
-0.000532781
0.000137087
-0.000645332
0.000112546
-0.000736555
9.12215e-05
-0.000807373
7.08196e-05
-0.000868444
6.10757e-05
-0.000935496
6.70613e-05
-0.00101473
7.92538e-05
-0.0011023
8.75972e-05
-0.0011875
8.52369e-05
-0.0012595
7.20446e-05
-0.00128894
2.95002e-05
-0.00116188
-0.000127
-0.000748037
-0.000413791
-0.000418003
-0.000329988
-0.000219527
-0.000198444
-0.000219432
-0.00158674
0.00396684
-0.00207009
0.000672633
-0.002397
0.000519798
-0.0026571
0.000486378
-0.00287797
0.000428418
-0.00305456
0.000341697
-0.00317761
0.000230521
-0.00323646
9.48005e-05
-0.00322036
-6.65703e-05
-0.00311955
-0.000255051
-0.00292389
-0.000470067
-0.00262414
-0.000707862
-0.00221677
-0.000971913
-0.00173975
-0.00126233
-0.00130749
-0.00151658
0.000158382
-0.00146587
0.000158382
-0.000388137
0.000404864
-0.000599077
0.000410094
-0.000715913
0.000297013
-0.000782098
0.000203265
-0.00081284
0.000143283
-0.000823877
0.000102257
-0.000825923
7.28663e-05
-0.00081524
5.03966e-05
-0.00080328
5.51083e-05
-0.000792785
6.87723e-05
-0.00078902
8.38566e-05
-0.000795926
9.21814e-05
-0.000813406
8.95778e-05
-0.000835855
5.20157e-05
-0.000751114
-0.00021167
-0.000354456
-0.00081039
-6.09461e-05
-0.000623446
3.26662e-05
-0.000292011
-0.000186632
-0.00117287
0.00533479
-0.00176443
0.00126425
-0.00212753
0.000882959
-0.00239225
0.000751162
-0.00261138
0.000647604
-0.00279022
0.000520609
-0.00292445
0.000364815
-0.00300654
0.000176964
-0.0030288
-4.42425e-05
-0.00298694
-0.000296837
-0.00288234
-0.000574594
-0.00272202
-0.000868115
-0.00252291
-0.00117096
-0.00232012
-0.00146505
-0.00214603
-0.00169061
-0.00185554
-0.0017563
-0.00169711
-0.000954538
0.00135965
-0.00112954
0.000585099
-0.00114894
0.000316404
-0.00110983
0.00016416
-0.00103012
6.35803e-05
-0.000906207
-2.166e-05
-0.000833188
-0.000782638
-0.000727375
-0.000658446
-0.000574427
-0.000482073
-0.000392305
-0.00034007
-0.000551499
2.58465e-05
-0.00138768
0.000261717
-0.00085927
0.000274781
-0.00030503
8.81701e-05
-0.000879178
0.00646136
-0.0014936
0.00187874
-0.0018082
0.00119762
-0.0020515
0.000994524
-0.00224903
0.000845199
-0.00240877
0.00068042
-0.00253284
0.000488953
-0.00261802
0.000262215
-0.00265851
-3.67558e-06
-0.00265466
-0.000300619
-0.00262228
-0.000606892
-0.00258646
-0.000903861
-0.00258065
-0.00117669
-0.0026439
-0.00140174
-0.00279828
-0.00153616
-0.00303789
-0.00151663
-0.0035765
-0.00115845
-0.00321542
-0.00036158
-0.00222675
0.000371003
-0.00203718
0.00039556
-0.00201908
0.000298357
-0.00204678
0.000191917
-0.00208014
9.70132e-05
-0.00211678
1.50567e-05
-0.00209403
-2.28193e-05
-0.00204346
-5.06412e-05
-0.00195627
-8.7262e-05
-0.00182223
-0.000134129
-0.00162328
-0.000199031
-0.00133547
-0.000287908
-0.000929699
-0.000405873
-0.000374977
-0.000554827
0.00040241
-0.000777489
0.000178942
-0.00116417
0.000323839
-0.00100411
0.000470481
-0.000451621
0.000558474
-0.000662649
0.00741574
-0.00126559
0.00248174
-0.00145318
0.00138528
-0.00163855
0.00117997
-0.00179616
0.00100288
-0.00191123
0.000795557
-0.00199096
0.000568749
-0.00203982
0.000311147
-0.00205578
1.23612e-05
-0.00204242
-0.000313905
-0.00202385
-0.000625382
-0.00203119
-0.000896445
-0.00209095
-0.00111685
-0.00221774
-0.00127487
-0.00240837
-0.00134546
-0.00265045
-0.00127448
-0.00284234
-0.000966502
-0.00273965
-0.000464218
-0.00234302
-2.55728e-05
-0.00206498
0.000117568
-0.00190213
0.000135569
-0.00181304
0.000102894
-0.00176652
5.05584e-05
-0.00174886
-2.53156e-06
-0.00172775
-4.38518e-05
-0.00169559
-8.27326e-05
-0.00164824
-0.000134547
-0.00157365
-0.000208663
-0.00145829
-0.000314343
-0.00128897
-0.000457192
-0.00105872
-0.000636083
-0.00077129
-0.000842222
-0.000487978
-0.00106075
-0.000408671
-0.00124341
-0.000205506
-0.0012072
0.000320213
-0.000977244
0.0014221
-0.00054332
0.00177579
-0.000353793
0.00148043
0.000295233
0.00150496
-0.000622914
0.00836898
-0.00115883
0.00301773
-0.00104109
0.0012676
-0.00107679
0.00121574
-0.00120698
0.00113314
-0.00127555
0.000864192
-0.00128711
0.000580384
-0.00126709
0.000291199
-0.00122205
-3.26132e-05
-0.00116727
-0.000368608
-0.00113434
-0.000658234
-0.00115109
-0.000879615
-0.00123255
-0.00103531
-0.0013791
-0.00112824
-0.00157571
-0.00114877
-0.00178609
-0.00106402
-0.00191544
-0.000837085
-0.00187282
-0.00050677
-0.00168678
-0.000211553
-0.00151337
-5.57815e-05
-0.0013811
3.35878e-06
-0.00129109
1.29525e-05
-0.00123892
-1.54666e-06
-0.00121672
-2.46746e-05
-0.00121077
-4.97284e-05
-0.00121164
-8.18019e-05
-0.00121549
-0.000130649
-0.0012171
-0.000207007
-0.0012105
-0.00032091
-0.00119197
-0.000475685
-0.00116397
-0.00066405
-0.00114101
-0.000865145
-0.00115158
-0.00105011
-0.00120854
-0.00118635
-0.00117761
-0.00123799
-0.000905851
-0.00124885
-0.000179476
-0.00126951
0.000659662
-0.00119272
0.00100077
-4.57517e-05
0.0025332
-0.000804739
0.00953951
-0.000846929
0.00305998
-0.000201775
0.000622517
-4.73958e-05
0.00106143
-0.000235518
0.00132134
-0.000313226
0.000941973
-0.000271694
0.000538924
-0.000181735
0.000201312
-8.18118e-05
-0.000132464
-7.45175e-06
-0.000442896
1.69077e-05
-0.00068252
-2.38676e-05
-0.000838765
-0.000133039
-0.000926066
-0.000302071
-0.000959131
-0.00050893
-0.000941828
-0.000712056
-0.000860818
-0.000848289
-0.000700775
-0.000871773
-0.000483212
-0.000804038
-0.000279217
-0.000715119
-0.000144633
-0.000639464
-7.22335e-05
-0.000586178
-4.02721e-05
-0.000556443
-3.12213e-05
-0.000547742
-3.33159e-05
-0.000556038
-4.13756e-05
-0.00058101
-5.6777e-05
-0.000626252
-8.53607e-05
-0.000696997
-0.000136223
-0.000798241
-0.000219633
-0.000937214
-0.000336684
-0.00112307
-0.000478158
-0.00136658
-0.000621572
-0.00167095
-0.000745628
-0.00200747
-0.000849686
-0.00228703
-0.000958236
-0.00241431
-0.00112134
-0.0023039
-0.00137968
-0.00186632
-0.00163005
-0.000741324
-0.00117051
0.00182433
0.00165252
0.00829718
0.002268
0.00244457
0.00250067
0.000389909
0.00209232
0.00146986
0.0017206
0.00169314
0.00156172
0.00110093
0.00150091
0.000599805
0.00148926
0.00021304
0.00149805
-0.000141187
0.00148082
-0.000425591
0.00141035
-0.000611978
0.00128829
-0.000716635
0.00112117
-0.000758871
0.000917069
-0.000754954
0.000690327
-0.000715007
0.000469564
-0.000639975
0.000296216
-0.000527346
0.000200881
-0.000387799
0.000174938
-0.000253197
0.00018281
-0.000152433
0.000199526
-8.88803e-05
0.000212711
-5.33918e-05
0.000217314
-3.57619e-05
0.000211944
-2.78864e-05
0.000195516
-2.48929e-05
0.000164108
-2.53186e-05
0.000109149
-3.03573e-05
1.62887e-05
-4.33228e-05
-0.000132557
-7.07502e-05
-0.000356306
-0.000112894
-0.000673082
-0.000161322
-0.00109641
-0.00019814
-0.00162885
-0.000213034
-0.0022466
-0.00023174
-0.00289976
-0.000304843
-0.00357818
-0.000442656
-0.00437188
-0.000585709
-0.00523354
-0.00076809
-0.00486158
-0.00154216
-0.00291082
0.00873553
0.0111613
0.00977189
0.00177935
0.0069856
0.00425621
0.00579247
0.00288633
0.00502726
0.00186619
0.00445209
0.00117505
0.00401982
0.000645377
0.00364464
0.000234063
0.0032909
-7.1781e-05
0.00296449
-0.000285507
0.00266537
-0.000417446
0.00238669
-0.000480119
0.00212225
-0.000490434
0.00187009
-0.000462774
0.00163609
-0.000405895
0.00143658
-0.00032775
0.00128808
-0.000239225
0.00119076
-0.00015579
0.00112925
-9.08525e-05
0.00108992
-4.94728e-05
0.00106195
-2.5343e-05
0.00103858
-1.23239e-05
0.00101591
-5.15314e-06
0.00099111
-3.39833e-08
0.000960426
5.42128e-06
0.000917725
1.23961e-05
0.000853885
2.05659e-05
0.000755765
2.74187e-05
0.000611876
3.10525e-05
0.000418866
3.17706e-05
0.000188955
3.1906e-05
-5.12417e-05
2.73699e-05
-0.000275682
-7.0747e-06
-0.000472663
-0.00010761
-0.000642664
-0.000272385
-0.000782296
-0.000445802
-0.00086526
-0.000684851
-0.000803417
-0.00160372
-0.00358467
-0.000162891
0.00269415
0.0027432
0.00135016
0.00399089
0.0016387
0.00426735
0.00158979
0.00428565
0.00115682
0.00423138
0.000699703
0.00411789
0.000347616
0.00394476
0.000101416
0.00373171
-7.23855e-05
0.00349492
-0.00018059
0.00324836
-0.000233493
0.00300362
-0.000245622
0.00277031
-0.000229387
0.00255459
-0.00019009
0.00236408
-0.000137168
0.00220667
-8.1731e-05
0.00208464
-3.36753e-05
0.00199347
4.00318e-07
0.00192539
1.86936e-05
0.00187277
2.73544e-05
0.00183045
3.00736e-05
0.00179501
3.03618e-05
0.00176397
3.10703e-05
0.00173535
3.41087e-05
0.00170699
4.08094e-05
0.00167593
5.16803e-05
0.00163748
6.593e-05
0.00158676
8.18242e-05
0.00152196
9.66373e-05
0.00144852
0.00010544
0.00137953
9.65095e-05
0.00132668
4.59538e-05
0.00129077
-7.14656e-05
0.00127018
-0.00025154
0.00130858
-0.000483916
0.00144054
-0.000816525
0.00130668
-0.00146956
-0.00225061
-0.000112012
0.00279479
0.00173656
-0.00049836
0.00270724
0.000668066
0.00325456
0.00104253
0.00365597
0.000755467
0.00391053
0.000445195
0.0040279
0.000230313
0.00403794
9.14406e-05
0.00395267
1.29489e-05
0.00379109
-1.89421e-05
0.00358433
-2.66641e-05
0.00335826
-1.94785e-05
0.0031333
-4.35417e-06
0.00292956
1.37256e-05
0.00276195
3.05243e-05
0.00263603
4.42691e-05
0.00254862
5.38205e-05
0.00249068
5.84286e-05
0.0024489
6.05566e-05
0.00241748
5.88568e-05
0.00239205
5.55872e-05
0.00237012
5.23679e-05
0.0023508
5.04711e-05
0.00233413
5.08523e-05
0.00232078
5.42204e-05
0.00231159
6.09318e-05
0.00230689
7.06904e-05
0.00230647
8.23106e-05
0.0023101
9.30781e-05
0.00231819
9.74303e-05
0.00232995
8.48581e-05
0.00233585
4.01935e-05
0.00230457
-4.0004e-05
0.00220842
-0.000155177
0.00204028
-0.000315536
0.00174281
-0.000518786
0.00109516
-0.000821613
-0.00112559
0.00421222
-0.00221352
0.000564296
4.47271e-05
0.000687765
0.00170294
0.00242831
0.00284062
0.00303539
0.00308882
0.00306158
0.00300079
0.00293118
0.00286819
0.00282023
0.00279062
0.00277826
0.00278013
0.00279196
0.00280871
0.00282783
0.00284544
0.00285996
0.00287143
0.00288118
0.00289151
0.00290544
0.00292633
0.00295726
0.00300015
0.00305419
0.00311302
0.00315975
0.0031622
0.00308474
0.00289242
0.00253984
0.00198382
0.00112534
)
;

boundaryField
{
    floor
    {
        type            calculated;
        value           nonuniform List<scalar> 
29
(
0
0
0
0
0
0
0
0
0
0
0
0
0
0
0
0
0
0
0
0
-7.39911e-08
-1.00843e-07
1.86708e-08
2.16042e-07
1.9767e-07
-1.23947e-07
-2.59774e-07
-2.46764e-07
5.27161e-07
)
;
    }
    ceiling
    {
        type            calculated;
        value           nonuniform List<scalar> 
43
(
4.90561e-05
3.28183e-05
1.70286e-05
2.1258e-05
2.50748e-05
2.74017e-05
3.01614e-05
3.29409e-05
3.56066e-05
3.8081e-05
4.02531e-05
4.19186e-05
4.30214e-05
4.35837e-05
4.36874e-05
4.34176e-05
4.29601e-05
4.24853e-05
4.20802e-05
4.17666e-05
4.15233e-05
4.13288e-05
4.11562e-05
4.09847e-05
4.08009e-05
4.05976e-05
4.03704e-05
4.01155e-05
3.98263e-05
3.94927e-05
3.91039e-05
3.86627e-05
3.82105e-05
3.78471e-05
3.75681e-05
3.72963e-05
3.72225e-05
3.74486e-05
3.71219e-05
4.01193e-05
2.28341e-05
1.88838e-05
1.14286e-05
)
;
    }
    sWall
    {
        type            calculated;
        value           uniform -0.000145226;
    }
    nWall
    {
        type            calculated;
        value           nonuniform List<scalar> 6(-2.4676e-05 -2.7407e-05 -3.23757e-05 -2.70561e-05 -2.95372e-05 -4.00505e-05);
    }
    sideWalls
    {
        type            empty;
        value           nonuniform 0();
    }
    glass1
    {
        type            calculated;
        value           nonuniform List<scalar> 9(-5.04751e-05 -0.000131096 -0.000195028 -0.000247341 -0.00029168 -0.00033027 -0.000365746 -0.000410136 -0.000461139);
    }
    glass2
    {
        type            calculated;
        value           nonuniform List<scalar> 2(-0.00012609 -0.000129249);
    }
    sun
    {
        type            calculated;
        value           uniform 0;
    }
    heatsource1
    {
        type            calculated;
        value           nonuniform List<scalar> 3(2.01239e-07 2.01317e-07 2.0151e-07);
    }
    heatsource2
    {
        type            calculated;
        value           nonuniform List<scalar> 4(5.03158e-08 5.05046e-08 0 0);
    }
    Table_master
    {
        type            calculated;
        value           nonuniform List<scalar> 9(-1.51497e-07 -1.51523e-07 -1.51539e-07 -1.51554e-07 -1.5157e-07 -1.51586e-07 -1.51595e-07 -1.51583e-07 -1.51431e-07);
    }
    Table_slave
    {
        type            calculated;
        value           nonuniform List<scalar> 9(1.50805e-07 1.50811e-07 1.50824e-07 1.50848e-07 1.50888e-07 1.5095e-07 1.51043e-07 1.51178e-07 1.51208e-07);
    }
    inlet
    {
        type            calculated;
        value           uniform -0.000751863;
    }
    outlet
    {
        type            calculated;
        value           nonuniform List<scalar> 2(-0.00411589 0.00639307);
    }
}


// ************************************************************************* //
