/*--------------------------------*- C++ -*----------------------------------*\
  =========                 |
  \\      /  F ield         | OpenFOAM: The Open Source CFD Toolbox
   \\    /   O peration     | Website:  https://openfoam.org
    \\  /    A nd           | Version:  6
     \\/     M anipulation  |
\*---------------------------------------------------------------------------*/
FoamFile
{
    version     2.0;
    format      ascii;
    class       volScalarField;
    location    "800";
    object      epsilon;
}
// * * * * * * * * * * * * * * * * * * * * * * * * * * * * * * * * * * * * * //

dimensions      [0 2 -3 0 0 0 0];

internalField   nonuniform List<scalar> 
459
(
0.000103845
0.000114653
8.8749e-05
9.76964e-05
0.000108548
0.000119735
0.000131246
0.000143378
0.00015673
0.000170533
0.000183127
0.000193677
0.000201465
0.000205775
0.000203677
6.12979e-06
5.58373e-06
4.37629e-06
3.53743e-06
3.15205e-06
3.01148e-06
3.11764e-06
3.71726e-06
4.45649e-06
5.19692e-06
5.76856e-06
5.89305e-06
5.69229e-06
5.8694e-06
6.59459e-06
8.07524e-06
8.32422e-06
7.71341e-06
4.50848e-06
0.000501222
0.00108227
0.00011779
7.2809e-05
7.41164e-05
7.88564e-05
8.44575e-05
9.11333e-05
9.95229e-05
0.000109674
0.000121068
0.000133813
0.000148078
0.000164094
0.000186858
0.000261323
6.09375e-05
1.47619e-05
1.48007e-05
1.08372e-05
9.30177e-06
8.17499e-06
7.59959e-06
7.3195e-06
9.13376e-06
1.14012e-05
1.35223e-05
1.52295e-05
1.6697e-05
1.83749e-05
2.05448e-05
2.32082e-05
2.3428e-05
2.25784e-05
2.91877e-05
1.89025e-05
0.00130826
0.0037433
0.000320519
8.97674e-05
7.79656e-05
8.28338e-05
9.04779e-05
9.96186e-05
0.000110249
0.000122313
0.000134725
0.000147206
0.000159882
0.000172953
0.000187878
0.000215435
0.000297847
5.94763e-05
3.29958e-05
2.3018e-05
1.92518e-05
1.74827e-05
1.56307e-05
9.15235e-06
1.1035e-05
1.36226e-05
1.67946e-05
2.09096e-05
2.6677e-05
3.54266e-05
5.01663e-05
7.83421e-05
5.27724e-05
6.1828e-05
0.000101363
5.9608e-05
0.00266621
0.00845629
0.000884751
0.000147182
9.57597e-05
9.81597e-05
0.000108464
0.000121547
0.000136473
0.000152476
0.000166941
0.000179478
0.000190873
0.00020146
0.000209773
0.000213877
0.000217892
0.000246954
6.4719e-05
4.47247e-05
3.82282e-05
3.93738e-05
4.47284e-05
5.4817e-05
7.41703e-05
7.21784e-05
7.14918e-05
7.19169e-05
7.3857e-05
7.79657e-05
8.5458e-05
9.90045e-05
0.000125542
7.00446e-05
8.44893e-05
0.000123968
0.000133246
0.00462227
0.0146249
0.00220136
0.000342009
0.000156911
0.000139322
0.00014794
0.000164867
0.000186582
0.000208436
0.000224542
0.000235793
0.000245655
0.000256168
0.000264522
0.00026254
0.000239854
0.000186652
0.000117585
8.00699e-05
6.52258e-05
6.01693e-05
5.87154e-05
5.83787e-05
5.78002e-05
5.61159e-05
5.50691e-05
5.48865e-05
5.58004e-05
5.81725e-05
6.25288e-05
6.95141e-05
7.93502e-05
8.97648e-05
0.000108357
0.000137537
0.000189816
0.00020861
0.000156863
9.70352e-05
0.0071954
0.0201063
0.0048496
0.00111916
0.000462877
0.00031037
0.000276667
0.000279865
0.000302766
0.000321221
0.000326116
0.00032282
0.000319903
0.000323178
0.000331014
0.000332509
0.000311504
0.000260215
0.000198096
0.000150712
0.000122047
0.000105943
9.71019e-05
9.18842e-05
8.79432e-05
8.45467e-05
8.19972e-05
8.03854e-05
7.98553e-05
8.07619e-05
8.37984e-05
9.01174e-05
0.000101153
0.000117796
0.000140455
0.000169708
0.000205269
0.000232881
0.000228526
0.000100717
0.00999461
0.0223265
0.00949547
0.00389072
0.00201218
0.00115872
0.000816259
0.000671258
0.000616742
0.00057111
0.000519491
0.000468317
0.000427008
0.000402713
0.000396483
0.000396429
0.000382089
0.000342168
0.000287451
0.000236801
0.000199119
0.000173832
0.000157831
0.000147719
0.000140736
0.000135515
0.000131639
0.000128919
0.00012732
0.000127084
0.000128977
0.000134626
0.000146526
0.000167091
0.000197413
0.000238503
0.000294239
0.000367098
0.000438093
0.000392194
0.0102642
0.0241299
0.0153201
0.011447
0.00716978
0.00433408
0.00279887
0.00194819
0.001429
0.00110365
0.000875785
0.000710182
0.000593039
0.000517178
0.000476266
0.000458482
0.000445214
0.000419431
0.000379343
0.000335638
0.00029772
0.00026886
0.00024871
0.000235328
0.000226439
0.000220398
0.000216265
0.00021353
0.000211858
0.000211146
0.000211925
0.000215898
0.000226371
0.000248297
0.000287499
0.000348832
0.000441679
0.000599319
0.000861682
0.000941858
0.00905403
0.0138838
0.03133
0.0243911
0.0155258
0.00963726
0.00608444
0.00396864
0.00268479
0.00187038
0.00135028
0.00101738
0.000807119
0.000679182
0.00060661
0.000569058
0.000548459
0.000529517
0.000505021
0.000476636
0.000449316
0.000426424
0.000409228
0.00039762
0.000390624
0.000386883
0.000385253
0.000384869
0.000385045
0.000384953
0.000384457
0.000384705
0.000388321
0.00039959
0.000424525
0.00046879
0.000527137
0.000591612
0.000999166
0.00118594
0.0942774
0.0892631
0.0272127
0.0129666
0.00731066
0.00452131
0.00299319
0.00210142
0.00156169
0.00123812
0.0010558
0.000959983
0.00091341
0.000891603
0.000879728
0.000869591
0.000857888
0.000845071
0.000834227
0.000825782
0.000820034
0.000818157
0.000820472
0.00082551
0.000832044
0.000839156
0.000845939
0.000850044
0.000850651
0.000848768
0.000846483
0.000846588
0.000851923
0.000863016
0.00087192
0.000867537
0.000965086
0.00143107
0.0617801
0.040383
0.0170215
0.00909022
0.00562197
0.00386768
0.00292402
0.00241956
0.00217667
0.00209084
0.00209065
0.00212888
0.00217129
0.00219786
0.0022013
0.00218372
0.00215325
0.00211994
0.00209086
0.00207139
0.00206338
0.00206531
0.00207425
0.00208776
0.00210348
0.00211948
0.0021336
0.00213902
0.0021324
0.00211395
0.00208517
0.002048
0.00200421
0.00195267
0.00188663
0.00179024
0.00201178
0.00205929
0.00166073
0.00433061
0.0216555
0.0122936
0.00634441
0.00498229
0.00366353
0.00274352
0.00215029
0.00177645
0.00154805
0.00142026
0.00136154
0.00134623
0.00135498
0.00137343
0.00139216
0.00140594
0.00141267
0.00141257
0.00140752
0.00139943
0.00139017
0.00138125
0.00137339
0.00136653
0.00136034
0.00135424
0.00134743
0.001341
0.00133223
0.00131853
0.00129846
0.00127076
0.00123353
0.00118308
0.0011121
0.00100926
0.000925375
0.000790432
)
;

boundaryField
{
    floor
    {
        Cmu             0.09;
        kappa           0.41;
        E               9.8;
        type            epsilonWallFunction;
        value           nonuniform List<scalar> 
29
(
0.000203677
6.12979e-06
5.58373e-06
4.37629e-06
3.53743e-06
3.15205e-06
3.01148e-06
3.11764e-06
3.71726e-06
4.45649e-06
5.19692e-06
5.76856e-06
5.89305e-06
5.69229e-06
5.8694e-06
6.59459e-06
8.07524e-06
8.32422e-06
7.71341e-06
4.50848e-06
4.50848e-06
1.89025e-05
5.9608e-05
0.000133246
0.000203677
6.12979e-06
1.47619e-05
5.94763e-05
0.000246954
)
;
    }
    ceiling
    {
        Cmu             0.09;
        kappa           0.41;
        E               9.8;
        type            epsilonWallFunction;
        value           nonuniform List<scalar> 
43
(
0.00166073
0.00433061
0.0216555
0.0122936
0.00634441
0.00498229
0.00366353
0.00274352
0.00215029
0.00177645
0.00154805
0.00142026
0.00136154
0.00134623
0.00135498
0.00137343
0.00139216
0.00140594
0.00141267
0.00141257
0.00140752
0.00139943
0.00139017
0.00138125
0.00137339
0.00136653
0.00136034
0.00135424
0.00134743
0.001341
0.00133223
0.00131853
0.00129846
0.00127076
0.00123353
0.00118308
0.0011121
0.00100926
0.000925375
0.000790432
0.00905403
0.0138838
0.0617801
)
;
    }
    sWall
    {
        Cmu             0.09;
        kappa           0.41;
        E               9.8;
        type            epsilonWallFunction;
        value           uniform 0.00166073;
    }
    nWall
    {
        Cmu             0.09;
        kappa           0.41;
        E               9.8;
        type            epsilonWallFunction;
        value           nonuniform List<scalar> 6(9.70352e-05 0.000100717 0.000392194 0.00143107 0.00205929 0.000790432);
    }
    sideWalls
    {
        type            empty;
    }
    glass1
    {
        Cmu             0.09;
        kappa           0.41;
        E               9.8;
        type            epsilonWallFunction;
        value           nonuniform List<scalar> 9(0.000103845 0.000501222 0.00130826 0.00266621 0.00462227 0.0071954 0.00999461 0.0102642 0.00905403);
    }
    glass2
    {
        Cmu             0.09;
        kappa           0.41;
        E               9.8;
        type            epsilonWallFunction;
        value           nonuniform List<scalar> 2(0.000941858 0.00118594);
    }
    sun
    {
        Cmu             0.09;
        kappa           0.41;
        E               9.8;
        type            epsilonWallFunction;
        value           nonuniform List<scalar> 
14
(
0.000103845
0.000114653
8.8749e-05
9.76964e-05
0.000108548
0.000119735
0.000131246
0.000143378
0.00015673
0.000170533
0.000183127
0.000193677
0.000201465
0.000205775
)
;
    }
    heatsource1
    {
        Cmu             0.09;
        kappa           0.41;
        E               9.8;
        type            epsilonWallFunction;
        value           nonuniform List<scalar> 3(0.00020861 0.000156863 9.70352e-05);
    }
    heatsource2
    {
        Cmu             0.09;
        kappa           0.41;
        E               9.8;
        type            epsilonWallFunction;
        value           nonuniform List<scalar> 4(0.000261323 6.09375e-05 6.09375e-05 0.000297847);
    }
    Table_master
    {
        Cmu             0.09;
        kappa           0.41;
        E               9.8;
        type            epsilonWallFunction;
        value           nonuniform List<scalar> 9(9.15235e-06 1.1035e-05 1.36226e-05 1.67946e-05 2.09096e-05 2.6677e-05 3.54266e-05 5.01663e-05 7.83421e-05);
    }
    Table_slave
    {
        Cmu             0.09;
        kappa           0.41;
        E               9.8;
        type            epsilonWallFunction;
        value           nonuniform List<scalar> 9(7.41703e-05 7.21784e-05 7.14918e-05 7.19169e-05 7.3857e-05 7.79657e-05 8.5458e-05 9.90045e-05 0.000125542);
    }
    inlet
    {
        type            turbulentMixingLengthDissipationRateInlet;
        mixingLength    0.01;
        phi             phi;
        k               k;
        value           uniform 3.77337e-06;
    }
    outlet
    {
        type            zeroGradient;
    }
}


// ************************************************************************* //
