// -*- C++ -*-
// File generated by PyFoam - sorry for the ugliness

FoamFile
{
 version 2.0;
 format ascii;
 class volVectorField;
 location "470";
 object U;
}

dimensions [ 0 1 -1 0 0 0 0 ];

internalField nonuniform List<vector> 459
(
  (0.0211634 0.0681308 0)
  (-0.132875 0.0217862 0)
  (-0.156084 0.0150652 0)
  (-0.18247 0.00987348 0)
  (-0.201299 0.00419887 0)
  (-0.211406 -0.00192703 0)
  (-0.211007 -0.00861823 0)
  (-0.198903 -0.0159979 0)
  (-0.175374 -0.0233134 0)
  (-0.142356 -0.0291713 0)
  (-0.103779 -0.0323095 0)
  (-0.0647368 -0.0318061 0)
  (-0.0306434 -0.0268391 0)
  (-0.0051572 -0.0146244 0)
  (0.04754 0.00699442 0)
  (-0.102528 0.0064388 0)
  (0.0316135 -0.00607242 0)
  (0.0186528 -0.0102063 0)
  (0.0298463 -0.0113582 0)
  (0.0441374 -0.0101284 0)
  (0.056138 -0.00772395 0)
  (0.0638911 -0.00446211 0)
  (0.0677021 -0.00257772 0)
  (0.068991 -0.0019097 0)
  (0.0692757 -0.00168591 0)
  (0.0692439 -0.00152764 0)
  (0.0689393 -0.00132091 0)
  (0.0681887 -0.000971459 0)
  (0.0666217 -0.000248271 0)
  (0.0633987 0.0013934 0)
  (0.0568314 0.00487709 0)
  (0.0461329 0.0101003 0)
  (-0.00194992 0.0200377 0)
  (0.0925836 -0.00253619 0)
  (0.15355 0.139515 0)
  (-0.124422 0.0572683 0)
  (-0.128165 0.0453951 0)
  (-0.155567 0.0350221 0)
  (-0.174538 0.0231197 0)
  (-0.185206 0.0094287 0)
  (-0.185776 -0.00643795 0)
  (-0.174998 -0.0239657 0)
  (-0.153664 -0.0405461 0)
  (-0.124106 -0.0528769 0)
  (-0.0903201 -0.058559 0)
  (-0.0568042 -0.0564901 0)
  (-0.027548 -0.0466777 0)
  (-0.00484898 -0.0297735 0)
  (0.016756 -0.00495995 0)
  (0.0217628 0.00828197 0)
  (0.0174735 0.0197788 0)
  (-0.121569 0.00373619 0)
  (0.032223 -0.0257236 0)
  (0.0322994 -0.0248484 0)
  (0.0427641 -0.0227291 0)
  (0.0540461 -0.0189199 0)
  (0.0629479 -0.0137282 0)
  (0.0674922 -0.00552871 0)
  (0.068472 -0.000622421 0)
  (0.0683585 0.00128895 0)
  (0.0684442 0.00204302 0)
  (0.0687075 0.0025293 0)
  (0.0688845 0.00298328 0)
  (0.0689017 0.00364783 0)
  (0.0687094 0.00500915 0)
  (0.0677138 0.00822553 0)
  (0.0632227 0.0165882 0)
  (0.0547676 0.0256784 0)
  (0.00883084 0.0368636 0)
  (0.136751 0.022407 0)
  (0.276419 0.209374 0)
  (-0.136025 0.0907727 0)
  (-0.0984168 0.0734706 0)
  (-0.125282 0.0552408 0)
  (-0.14287 0.0355644 0)
  (-0.153568 0.0132582 0)
  (-0.154727 -0.0124464 0)
  (-0.144184 -0.0404592 0)
  (-0.12385 -0.0660913 0)
  (-0.0968828 -0.0838301 0)
  (-0.0673907 -0.0905794 0)
  (-0.0392404 -0.0856434 0)
  (-0.0149705 -0.0700865 0)
  (0.0043383 -0.0457339 0)
  (0.0188894 -0.0179241 0)
  (0.0265908 0.00676689 0)
  (0.0258125 0.0380475 0)
  (-0.0304473 -0.025559 0)
  (0.0390644 -0.0380169 0)
  (0.0518389 -0.038019 0)
  (0.0572049 -0.0331606 0)
  (0.0629833 -0.0273389 0)
  (0.0682834 -0.022563 0)
  (0.0704394 -0.0168473 0)
  (0.0658586 -0.0110877 0)
  (0.062158 -0.00807279 0)
  (0.060919 -0.00642763 0)
  (0.0608567 -0.0053662 0)
  (0.0612103 -0.00453452 0)
  (0.0620171 -0.00367173 0)
  (0.063994 -0.00228896 0)
  (0.0688475 0.00203477 0)
  (0.0695895 0.0218434 0)
  (0.0637191 0.0374053 0)
  (0.0170366 0.0538461 0)
  (0.162239 0.0530149 0)
  (0.389784 0.266086 0)
  (-0.161629 0.120045 0)
  (-0.0659571 0.0980123 0)
  (-0.0917307 0.0734369 0)
  (-0.105512 0.0482644 0)
  (-0.114763 0.0189543 0)
  (-0.115107 -0.0165095 0)
  (-0.102975 -0.0556714 0)
  (-0.0832787 -0.0898822 0)
  (-0.059759 -0.111795 0)
  (-0.0358605 -0.118676 0)
  (-0.0143748 -0.110872 0)
  (0.00443561 -0.0903016 0)
  (0.019714 -0.0623952 0)
  (0.0337134 -0.0317959 0)
  (0.0488102 -0.00285732 0)
  (0.0665843 0.0239501 0)
  (0.0950464 -0.0290471 0)
  (0.0950756 -0.0333871 0)
  (0.0855435 -0.0380235 0)
  (0.0754904 -0.037945 0)
  (0.0688617 -0.0335709 0)
  (0.0652315 -0.0278426 0)
  (0.0624703 -0.0212815 0)
  (0.0634992 -0.0129788 0)
  (0.0707064 -0.00924381 0)
  (0.0769912 -0.00729156 0)
  (0.0814602 -0.00615326 0)
  (0.0849901 -0.00522175 0)
  (0.0876632 -0.00411653 0)
  (0.0886447 -0.00243708 0)
  (0.0860429 0.000400496 0)
  (0.0775688 0.00497654 0)
  (0.0690685 0.0264637 0)
  (0.0690134 0.0458072 0)
  (0.0298913 0.0673169 0)
  (0.177651 0.099435 0)
  (0.491436 0.310043 0)
  (-0.195037 0.143255 0)
  (-0.0320432 0.113262 0)
  (-0.0554131 0.0849997 0)
  (-0.0628599 0.0568649 0)
  (-0.0685272 0.0230048 0)
  (-0.0645461 -0.0209517 0)
  (-0.0486406 -0.0709603 0)
  (-0.0309932 -0.110828 0)
  (-0.0133973 -0.133872 0)
  (0.00250645 -0.138861 0)
  (0.0152869 -0.127517 0)
  (0.0257775 -0.104813 0)
  (0.0351126 -0.0756435 0)
  (0.0447212 -0.0451655 0)
  (0.0565313 -0.0187011 0)
  (0.0720218 -0.00270273 0)
  (0.0836159 -0.0113154 0)
  (0.0833577 -0.0206938 0)
  (0.0747405 -0.0266591 0)
  (0.0658059 -0.0282317 0)
  (0.0586689 -0.0264719 0)
  (0.0534347 -0.0228921 0)
  (0.0500242 -0.0177582 0)
  (0.0499308 -0.0104727 0)
  (0.0531186 -0.00673342 0)
  (0.0568084 -0.00549117 0)
  (0.0603234 -0.00500515 0)
  (0.0638153 -0.00426326 0)
  (0.0671347 -0.00256265 0)
  (0.0698962 0.000888735 0)
  (0.0712744 0.00661576 0)
  (0.0705552 0.0152969 0)
  (0.0696635 0.0303728 0)
  (0.0761951 0.0469987 0)
  (0.0644342 0.0633855 0)
  (0.134456 0.0980756 0)
  (0.127078 0.0783871 0)
  (0.11351 0.057099 0)
  (-0.147069 0.0581795 0)
  (0.569598 0.346404 0)
  (-0.23021 0.158251 0)
  (-0.00357578 0.113016 0)
  (-0.0179469 0.088867 0)
  (-0.0173338 0.061505 0)
  (-0.0181758 0.0258689 0)
  (-0.00116425 -0.0292655 0)
  (0.0179999 -0.0881764 0)
  (0.0303327 -0.127129 0)
  (0.0390275 -0.146852 0)
  (0.0440326 -0.148489 0)
  (0.0461817 -0.134983 0)
  (0.0468039 -0.110798 0)
  (0.0471649 -0.0813253 0)
  (0.0485603 -0.0519254 0)
  (0.0522742 -0.027628 0)
  (0.058443 -0.0131666 0)
  (0.0620508 -0.0127231 0)
  (0.0594423 -0.0175545 0)
  (0.0525915 -0.0207618 0)
  (0.0450737 -0.0215987 0)
  (0.0384407 -0.0206514 0)
  (0.0332383 -0.0184972 0)
  (0.0299045 -0.0153164 0)
  (0.0291536 -0.0115447 0)
  (0.0308414 -0.00970682 0)
  (0.0336638 -0.00934957 0)
  (0.0369793 -0.00929739 0)
  (0.0406281 -0.00873848 0)
  (0.0445318 -0.00700345 0)
  (0.0486214 -0.00320373 0)
  (0.0533038 0.00363793 0)
  (0.0572315 0.0134766 0)
  (0.0614548 0.0263655 0)
  (0.0697655 0.0396615 0)
  (0.0706572 0.0475565 0)
  (0.0945587 0.0641412 0)
  (0.0925089 0.0520948 0)
  (0.109697 0.0510961 0)
  (-0.144562 0.087349 0)
  (0.61468 0.378339 0)
  (-0.251596 0.14639 0)
  (0.019267 0.0781336 0)
  (0.0273057 0.0771084 0)
  (0.0348198 0.0572691 0)
  (0.0437901 0.0145066 0)
  (0.0746159 -0.0502294 0)
  (0.090997 -0.101809 0)
  (0.0959684 -0.134614 0)
  (0.093452 -0.148896 0)
  (0.0856417 -0.146499 0)
  (0.0747885 -0.13064 0)
  (0.0630439 -0.105639 0)
  (0.0521928 -0.0767932 0)
  (0.0435978 -0.0492164 0)
  (0.0383332 -0.0273946 0)
  (0.0362343 -0.014302 0)
  (0.0344256 -0.0109062 0)
  (0.0304442 -0.0123887 0)
  (0.0246114 -0.0142181 0)
  (0.0183179 -0.0151452 0)
  (0.0125601 -0.0151666 0)
  (0.00793397 -0.0145011 0)
  (0.004942 -0.0133716 0)
  (0.00405823 -0.0122328 0)
  (0.00507926 -0.0120685 0)
  (0.00717956 -0.0125738 0)
  (0.00983087 -0.0130221 0)
  (0.0128561 -0.0128509 0)
  (0.016304 -0.0115745 0)
  (0.0204521 -0.00850392 0)
  (0.0260468 -0.00246396 0)
  (0.0340262 0.00728972 0)
  (0.0420231 0.0188051 0)
  (0.0516244 0.0299768 0)
  (0.057851 0.0372915 0)
  (0.0705845 0.0497118 0)
  (0.0756666 0.0557387 0)
  (0.120523 0.0742157 0)
  (-0.112927 0.14362 0)
  (0.70535 0.382325 0)
  (-0.0756499 0.119344 0)
  (0.0783444 0.0107106 0)
  (0.121087 0.00351734 0)
  (0.124703 -0.0100375 0)
  (0.148352 -0.0472604 0)
  (0.170156 -0.0833688 0)
  (0.174378 -0.112675 0)
  (0.164021 -0.130752 0)
  (0.144241 -0.135964 0)
  (0.119175 -0.12875 0)
  (0.0925255 -0.111395 0)
  (0.0670574 -0.0871471 0)
  (0.0447949 -0.0607076 0)
  (0.0269956 -0.0367117 0)
  (0.0148539 -0.0191264 0)
  (0.00785185 -0.00931471 0)
  (0.00345488 -0.0063768 0)
  (-0.000964446 -0.00700501 0)
  (-0.00599497 -0.00841406 0)
  (-0.0111552 -0.00960074 0)
  (-0.0158648 -0.0104565 0)
  (-0.0196931 -0.0110966 0)
  (-0.022317 -0.0117086 0)
  (-0.0235457 -0.0124952 0)
  (-0.0236016 -0.0136458 0)
  (-0.0229567 -0.0149152 0)
  (-0.0219493 -0.0159021 0)
  (-0.0207603 -0.0162726 0)
  (-0.0194298 -0.0158195 0)
  (-0.0177153 -0.0144018 0)
  (-0.0148453 -0.0115564 0)
  (-0.00858204 -0.0061689 0)
  (0.00366279 0.00244917 0)
  (0.0140714 0.0103144 0)
  (0.0221257 0.0145489 0)
  (0.0328918 0.0200957 0)
  (0.042043 0.0228548 0)
  (0.119568 0.0763867 0)
  (-0.362747 0.210962 0)
  (0.826189 0.373401 0)
  (0.397764 0.260232 0)
  (0.402376 0.19765 0)
  (0.397 0.132105 0)
  (0.369325 0.0787608 0)
  (0.341356 0.0265109 0)
  (0.304595 -0.0250566 0)
  (0.263386 -0.0651043 0)
  (0.218727 -0.0886511 0)
  (0.17224 -0.0961679 0)
  (0.126459 -0.0905847 0)
  (0.0844291 -0.0758992 0)
  (0.0478842 -0.0554875 0)
  (0.0184228 -0.0341623 0)
  (-0.00371913 -0.0161416 0)
  (-0.0167475 -0.00571666 0)
  (-0.0238456 -0.00113959 0)
  (-0.0282559 -9.07665e-05 0)
  (-0.0320406 -0.000746472 0)
  (-0.0359439 -0.00194521 0)
  (-0.039874 -0.00324966 0)
  (-0.0435474 -0.00454618 0)
  (-0.0468271 -0.00584535 0)
  (-0.0496547 -0.0072497 0)
  (-0.0519946 -0.00879236 0)
  (-0.0539667 -0.0104428 0)
  (-0.0557545 -0.0120132 0)
  (-0.0575251 -0.0132574 0)
  (-0.0595495 -0.0139541 0)
  (-0.0623775 -0.0139097 0)
  (-0.0667911 -0.0128021 0)
  (-0.0734754 -0.00958429 0)
  (-0.0829695 -0.00229433 0)
  (-0.0939959 0.00967325 0)
  (-0.107718 0.0258447 0)
  (-0.130886 0.0475617 0)
  (-0.162962 0.0765469 0)
  (-0.203867 0.110216 0)
  (-0.270665 0.142104 0)
  (-0.538566 0.162589 0)
  (0.124614 0.0478738 0)
  (0.213288 0.0682765 0)
  (0.240125 0.0388681 0)
  (0.226985 0.00206275 0)
  (0.209016 -0.0264508 0)
  (0.184152 -0.045991 0)
  (0.150517 -0.0562816 0)
  (0.110584 -0.0575651 0)
  (0.0684407 -0.0507821 0)
  (0.0294367 -0.0384036 0)
  (-0.00493803 -0.0213969 0)
  (-0.0284317 -0.00662567 0)
  (-0.0422901 0.00258048 0)
  (-0.0499541 0.00680338 0)
  (-0.0540164 0.0084278 0)
  (-0.0565363 0.00871061 0)
  (-0.0586464 0.00834633 0)
  (-0.0608311 0.00764613 0)
  (-0.0632665 0.00652241 0)
  (-0.0659658 0.00528429 0)
  (-0.0690157 0.0042086 0)
  (-0.0725101 0.00326911 0)
  (-0.0764816 0.00263368 0)
  (-0.0809797 0.00253618 0)
  (-0.0859771 0.00332035 0)
  (-0.0913141 0.00540732 0)
  (-0.0967754 0.00918715 0)
  (-0.102341 0.0147095 0)
  (-0.108278 0.0208949 0)
  (-0.114869 0.0259004 0)
  (-0.121137 0.0306163 0)
  (-0.126387 0.0376705 0)
  (-0.130626 0.0493172 0)
  (-0.133594 0.0667101 0)
  (-0.132704 0.0882331 0)
  (-0.123681 0.100157 0)
  (-0.110596 0.0603928 0)
  (-0.184929 -0.167905 0)
  (0.0159938 0.151948 0)
  (0.064892 0.0885329 0)
  (0.0765032 0.0228269 0)
  (0.0791005 -0.0255124 0)
  (0.0768273 -0.0546331 0)
  (0.0628059 -0.0626431 0)
  (0.0396153 -0.0639991 0)
  (0.0123653 -0.0623829 0)
  (-0.0159835 -0.0609623 0)
  (-0.0377604 -0.0618019 0)
  (-0.0547272 -0.0618784 0)
  (-0.0648445 -0.0634132 0)
  (-0.0698897 -0.0654731 0)
  (-0.0720869 -0.0673835 0)
  (-0.073102 -0.0695977 0)
  (-0.0736802 -0.0720094 0)
  (-0.0742737 -0.074529 0)
  (-0.0751059 -0.0770196 0)
  (-0.0763342 -0.07921 0)
  (-0.0780821 -0.0810886 0)
  (-0.0803345 -0.0824856 0)
  (-0.0831038 -0.0843755 0)
  (-0.0865805 -0.0870811 0)
  (-0.0910114 -0.0908647 0)
  (-0.0966006 -0.0957878 0)
  (-0.10334 -0.101435 0)
  (-0.110752 -0.106549 0)
  (-0.117842 -0.108801 0)
  (-0.123525 -0.107347 0)
  (-0.12711 -0.0997739 0)
  (-0.128032 -0.0857224 0)
  (-0.124786 -0.065515 0)
  (-0.115062 -0.039747 0)
  (-0.0965129 -0.0101337 0)
  (-0.0685585 0.0184227 0)
  (-0.0351074 0.0311959 0)
  (0.0857731 -0.0698378 0)
  (-0.141111 -0.130198 0)
  (-0.0330193 -0.253366 0)
  (-0.308823 -0.0486808 0)
  (-0.217922 0.178066 0)
  (-0.153149 0.158407 0)
  (-0.0991753 0.1617 0)
  (-0.0719061 0.186852 0)
  (-0.0651747 0.206691 0)
  (-0.0675415 0.201215 0)
  (-0.0779072 0.200223 0)
  (-0.0882893 0.204283 0)
  (-0.0959965 0.211139 0)
  (-0.0999732 0.219869 0)
  (-0.100433 0.227312 0)
  (-0.0989736 0.235007 0)
  (-0.0967415 0.241244 0)
  (-0.0944725 0.245505 0)
  (-0.0926302 0.248855 0)
  (-0.0914378 0.251707 0)
  (-0.0909746 0.254268 0)
  (-0.0912584 0.25653 0)
  (-0.0922532 0.258244 0)
  (-0.0939163 0.259312 0)
  (-0.0961414 0.259467 0)
  (-0.0988657 0.260367 0)
  (-0.101963 0.262611 0)
  (-0.105254 0.266825 0)
  (-0.108525 0.273361 0)
  (-0.111539 0.28187 0)
  (-0.114019 0.290781 0)
  (-0.115589 0.297106 0)
  (-0.115811 0.300603 0)
  (-0.113864 0.299383 0)
  (-0.108364 0.293859 0)
  (-0.0973998 0.285494 0)
  (-0.0791595 0.276509 0)
  (-0.053823 0.27029 0)
  (-0.0241464 0.270818 0)
  (0.0170828 0.278635 0)
  (0.130369 0.335513 0)
  (-0.289157 0.334384 0)
)
;

boundaryField
{
  floor
  {
    type noSlip;
  }
  ceiling
  {
    type noSlip;
  }
  sWall
  {
    type noSlip;
  }
  nWall
  {
    type noSlip;
  }
  sideWalls
  {
    type empty;
  }
  glass1
  {
    type noSlip;
  }
  glass2
  {
    type noSlip;
  }
  sun
  {
    type noSlip;
  }
  heatsource1
  {
    type noSlip;
  }
  heatsource2
  {
    type noSlip;
  }
  Table_master
  {
    type noSlip;
  }
  Table_slave
  {
    type noSlip;
  }
  inlet
  {
    type fixedValue;
    value uniform (0.277164 -0.114805 0);
  }
  outlet
  {
    type zeroGradient;
  }
} 	// ************************************************************************* //

