/*--------------------------------*- C++ -*----------------------------------*\
  =========                 |
  \\      /  F ield         | OpenFOAM: The Open Source CFD Toolbox
   \\    /   O peration     | Website:  https://openfoam.org
    \\  /    A nd           | Version:  6
     \\/     M anipulation  |
\*---------------------------------------------------------------------------*/
FoamFile
{
    version     2.0;
    format      ascii;
    class       volScalarField;
    location    "200";
    object      alphat;
}
// * * * * * * * * * * * * * * * * * * * * * * * * * * * * * * * * * * * * * //

dimensions      [1 -1 -1 0 0 0 0];

internalField   nonuniform List<scalar> 
459
(
0.00132328
0.00145376
0.00148876
0.00156354
0.00163408
0.00170237
0.00177299
0.00182921
0.00186139
0.00186237
0.00182756
0.00175322
0.00163288
0.00144426
0.00115821
0.000589911
0.000705182
0.000812652
0.000846436
0.000833588
0.000804515
0.000754404
0.000701835
0.000654008
0.000611858
0.000574839
0.000542232
0.000513231
0.000487444
0.000463859
0.000441272
0.000417961
0.000397578
0.000359221
0.00177536
0.00446978
0.00433816
0.00505613
0.00577647
0.00646384
0.00698196
0.00743743
0.00782951
0.0081209
0.00828145
0.00828373
0.00808437
0.00757325
0.00617219
0.00139654
0.000974573
0.000598355
0.00141789
0.00209457
0.00263164
0.00295975
0.00295078
0.00219487
0.00184067
0.00160119
0.00142355
0.00128598
0.00117627
0.00108773
0.00100461
0.000920814
0.000843303
0.000776543
0.000871661
0.000442492
0.00214604
0.00607969
0.00540291
0.00657843
0.0071698
0.00761438
0.00795372
0.00830077
0.00867581
0.00904893
0.00937947
0.00962346
0.00970385
0.00951317
0.00875535
0.00649552
0.00146566
0.0010685
0.00174412
0.00247961
0.00321679
0.00375421
0.00364794
0.00106529
0.000929728
0.000820846
0.000733481
0.000662822
0.000605083
0.000557475
0.000518578
0.00048804
0.000533657
0.000625168
0.000991169
0.000500728
0.0024972
0.00764442
0.00545967
0.00688126
0.00727206
0.00743011
0.00758871
0.0078468
0.00820613
0.0086327
0.00907483
0.0094698
0.00970689
0.00975932
0.00953862
0.00860024
0.00518306
0.00169807
0.00209056
0.00283204
0.00372809
0.00456125
0.00511763
0.00478516
0.00120924
0.00109246
0.00100675
0.000939282
0.000881748
0.000830509
0.000780919
0.000729346
0.00067079
0.000620851
0.000639815
0.00113306
0.000547919
0.00285358
0.00964055
0.00596448
0.00674745
0.00717704
0.00717547
0.0072292
0.00743186
0.00777606
0.00823043
0.00871808
0.00913243
0.00938795
0.0094623
0.00937493
0.00905777
0.00817093
0.00709584
0.00684066
0.00695245
0.00718078
0.00736723
0.00740277
0.00708489
0.00579489
0.00514441
0.00474485
0.00443375
0.00410857
0.00370098
0.00321266
0.00265764
0.00206595
0.00150079
0.00110827
0.00115752
0.000729321
0.000669939
0.000812722
0.000914252
0.0032322
0.0118396
0.00805271
0.00696922
0.00734602
0.00727474
0.00726519
0.00735698
0.00762759
0.00807959
0.00860287
0.00904199
0.00927678
0.00928634
0.00916243
0.00904282
0.00899571
0.00904711
0.00920998
0.00933496
0.0093357
0.00919967
0.00892982
0.00849958
0.00783792
0.00723854
0.00672119
0.00624458
0.0057703
0.00524334
0.00464906
0.00397442
0.00322689
0.00245846
0.00182985
0.00140972
0.001045
0.000888062
0.00126347
0.000956472
0.00357158
0.013348
0.0110664
0.00889862
0.00843072
0.00791986
0.00753318
0.00745062
0.00770391
0.00821351
0.0088034
0.00926874
0.00947041
0.00940801
0.00925014
0.00926647
0.00961735
0.0101255
0.0104754
0.0105386
0.0103447
0.00996928
0.00946849
0.00886868
0.00818893
0.00752409
0.00690417
0.00632623
0.00579127
0.00530978
0.00488022
0.00436716
0.0037592
0.00307964
0.00247102
0.00196344
0.00158185
0.0014794
0.00151081
0.00111265
0.00363178
0.0116477
0.0104906
0.00953221
0.00854642
0.00771389
0.00731894
0.00742101
0.00793478
0.00867016
0.00937345
0.00981796
0.00990546
0.00972265
0.00957039
0.00979573
0.0103806
0.010859
0.0109515
0.0107217
0.0102527
0.00961881
0.00887546
0.00807211
0.00726845
0.00652492
0.00586392
0.00529461
0.00483144
0.00448975
0.00427364
0.00413294
0.00383121
0.00341267
0.00308097
0.00292906
0.00306306
0.00353786
0.00428615
0.00170684
0.00353143
0.00417506
0.00457578
0.00466388
0.00487966
0.0054321
0.00634378
0.00751986
0.00876297
0.00982104
0.0104587
0.0105651
0.0102545
0.00988872
0.00998241
0.0102612
0.0104828
0.0104787
0.0101931
0.00966743
0.0089609
0.00812947
0.00723426
0.00635074
0.00554598
0.00485718
0.00429018
0.00383854
0.00348924
0.00322203
0.00301241
0.00285209
0.00273783
0.00265851
0.00262722
0.00263
0.00260046
0.00248215
0.00231137
0.00159968
0.00159637
0.00357996
0.00678678
0.00908586
0.0106469
0.0116135
0.0120216
0.0119098
0.0113983
0.0106197
0.00984643
0.00940039
0.0093531
0.00932928
0.00912895
0.00872043
0.00812133
0.00738132
0.0065707
0.00576527
0.00502658
0.00438833
0.00386183
0.00344012
0.00311337
0.002872
0.00270473
0.00260253
0.0025568
0.00255016
0.00256817
0.00260173
0.00263759
0.00264612
0.00258423
0.00244495
0.00222134
0.00133883
0.0023265
0.00697008
0.0100437
0.0110652
0.0113504
0.0111323
0.0105198
0.00968458
0.00884297
0.00811901
0.00757023
0.00720872
0.00692806
0.00660473
0.00621286
0.00575615
0.00525138
0.00473762
0.00426046
0.00385044
0.00351527
0.00324654
0.00303066
0.00285577
0.00271397
0.00260311
0.00252564
0.00248378
0.00247876
0.00250969
0.00257242
0.00265583
0.0027375
0.00279591
0.0027631
0.002793
0.00284683
0.00136791
0.00209662
0.00222415
0.00231406
0.00249789
0.00240481
0.00230891
0.00222613
0.00210554
0.00194841
0.00177091
0.00158881
0.00142163
0.00128877
0.00119221
0.00112235
0.00106853
0.00102333
0.000982589
0.000945032
0.000911286
0.000882426
0.000859073
0.000841338
0.0008292
0.000822909
0.000823154
0.000830848
0.000846832
0.000871712
0.000905538
0.00094813
0.000999453
0.00105969
0.00112889
0.00120548
0.00129829
0.00132074
0.0012812
0.00120686
0.00112503
)
;

boundaryField
{
    floor
    {
        type            compressible::alphatWallFunction;
        Prt             0.85;
        value           nonuniform List<scalar> 
29
(
0.000164365
8.28716e-05
9.99699e-05
0.000115608
0.000120474
0.000118628
0.000114437
0.000107169
9.94821e-05
9.24278e-05
8.61587e-05
8.06091e-05
7.56842e-05
7.1273e-05
6.73244e-05
6.36901e-05
6.01875e-05
5.65486e-05
5.33457e-05
4.72599e-05
4.72593e-05
6.03775e-05
6.93621e-05
7.65466e-05
0.000164364
8.28706e-05
8.41352e-05
0.000151904
0.000237436
)
;
    }
    ceiling
    {
        type            compressible::alphatWallFunction;
        Prt             0.85;
        value           nonuniform List<scalar> 
43
(
0.00028959
0.000306062
0.000317617
0.000341224
0.00032941
0.000317158
0.000306529
0.000290961
0.000270524
0.000247218
0.000223039
0.000200568
0.0001825
0.000169236
0.000159563
0.000152065
0.000145733
0.000139997
0.000134685
0.00012989
0.000125772
0.000122429
0.000119882
0.000118135
0.000117228
0.000117262
0.00011837
0.000120667
0.000124234
0.000129064
0.000135116
0.000142367
0.000150822
0.000160467
0.000171065
0.000183803
0.000186869
0.000181466
0.000171256
0.000159936
0.000470426
0.0005487
0.000319008
)
;
    }
    sWall
    {
        type            compressible::alphatWallFunction;
        Prt             0.85;
        value           uniform 0.000288385;
    }
    nWall
    {
        type            compressible::alphatWallFunction;
        Prt             0.85;
        value           nonuniform List<scalar> 6(0.000129982 0.000135969 0.000157873 0.000189014 0.000192967 0.000159616);
    }
    sideWalls
    {
        type            empty;
    }
    glass1
    {
        type            compressible::alphatWallFunction;
        Prt             0.85;
        value           nonuniform List<scalar> 9(0.000182571 0.000242381 0.000290289 0.00033494 0.000379639 0.000426534 0.000468133 0.000475604 0.000463603);
    }
    glass2
    {
        type            compressible::alphatWallFunction;
        Prt             0.85;
        value           nonuniform List<scalar> 2(0.000237073 0.000222946);
    }
    sun
    {
        type            compressible::alphatWallFunction;
        Prt             0.85;
        value           nonuniform List<scalar> 
14
(
0.000187084
0.000204769
0.000209484
0.00021952
0.00022894
0.000238015
0.000247358
0.000254766
0.000258994
0.000259122
0.000254545
0.000244742
0.000228774
0.000203476
)
;
    }
    heatsource1
    {
        type            compressible::alphatWallFunction;
        Prt             0.85;
        value           nonuniform List<scalar> 3(9.48875e-05 0.000115729 0.00013028);
    }
    heatsource2
    {
        type            compressible::alphatWallFunction;
        Prt             0.85;
        value           nonuniform List<scalar> 4(0.000197159 0.000138842 0.000138841 0.000206493);
    }
    Table_master
    {
        type            compressible::alphatWallFunction;
        Prt             0.85;
        value           nonuniform List<scalar> 9(0.000151582 0.00013248 0.000116901 0.000104222 9.38345e-05 8.52461e-05 7.80887e-05 7.21845e-05 6.75103e-05);
    }
    Table_slave
    {
        type            compressible::alphatWallFunction;
        Prt             0.85;
        value           nonuniform List<scalar> 9(0.000171563 0.000155378 0.000143373 0.00013384 0.000125646 0.000118296 0.00011113 0.00010362 9.50151e-05);
    }
    inlet
    {
        type            fixedValue;
        value           uniform 1.94e-05;
    }
    outlet
    {
        type            zeroGradient;
    }
}


// ************************************************************************* //
