/*--------------------------------*- C++ -*----------------------------------*\
  =========                 |
  \\      /  F ield         | OpenFOAM: The Open Source CFD Toolbox
   \\    /   O peration     | Website:  https://openfoam.org
    \\  /    A nd           | Version:  6
     \\/     M anipulation  |
\*---------------------------------------------------------------------------*/
FoamFile
{
    version     2.0;
    format      ascii;
    class       volScalarField;
    location    "300";
    object      epsilon;
}
// * * * * * * * * * * * * * * * * * * * * * * * * * * * * * * * * * * * * * //

dimensions      [0 2 -3 0 0 0 0];

internalField   nonuniform List<scalar> 
459
(
0.000997793
0.00158388
0.00211923
0.00177575
0.000928008
0.000504143
0.000230348
0.000140934
0.000121364
0.000111831
0.000107078
0.000105688
0.000106206
0.000107411
0.000106136
1.26261e-05
1.63595e-05
1.78959e-05
1.0374e-05
5.38153e-06
3.59623e-06
2.9115e-06
2.22447e-06
2.21729e-06
2.72412e-06
2.91427e-06
3.55212e-06
5.09478e-06
8.17563e-06
1.29915e-05
1.93393e-05
2.44711e-05
2.43828e-05
1.75842e-05
0.00103585
0.00293712
0.00405258
0.00514578
0.00477934
0.0034729
0.00158044
0.000534481
0.000189766
0.000104431
8.20309e-05
8.03027e-05
8.58857e-05
9.35049e-05
0.000102342
0.000137731
5.21065e-05
3.86583e-05
5.53168e-05
4.32527e-05
2.87111e-05
1.8692e-05
1.16229e-05
5.47172e-06
3.79618e-06
3.36948e-06
4.24872e-06
5.62699e-06
8.38081e-06
1.39661e-05
2.40416e-05
3.80568e-05
4.79207e-05
5.78408e-05
7.65652e-05
3.98262e-05
0.00548885
0.00579972
0.00498083
0.00433011
0.00404942
0.00367825
0.00298421
0.00221285
0.000978662
0.000249975
0.000118141
9.56344e-05
9.86006e-05
0.000109185
0.000122619
0.000142134
0.000181264
0.000174961
0.000156367
7.32525e-05
5.28152e-05
4.34167e-05
3.82484e-05
2.59851e-05
1.20928e-05
6.12531e-06
7.45226e-06
1.27129e-05
1.98562e-05
3.02977e-05
4.64779e-05
7.34713e-05
6.28489e-05
7.65889e-05
8.97539e-05
8.08903e-05
0.013246
0.010569
0.00755845
0.00542485
0.00415821
0.00348574
0.00297042
0.00243168
0.00168363
0.000689016
0.000219679
0.000126288
0.000114186
0.000121203
0.000136965
0.000166357
0.000228863
0.000352523
0.000176795
8.42167e-05
6.38307e-05
5.87961e-05
6.13986e-05
7.14107e-05
9.85091e-05
0.00010164
0.000105419
0.000109009
0.000112651
0.000117136
0.000124441
0.000134447
0.000152786
0.000125732
0.000151551
0.000229391
0.000301207
0.0164221
0.0136923
0.00827166
0.00522983
0.00377603
0.00309352
0.00268647
0.00229799
0.00174477
0.000938104
0.000339614
0.00016948
0.000131589
0.000127016
0.00012855
0.000128081
0.00012368
0.000112108
8.37562e-05
6.6709e-05
5.93988e-05
5.73619e-05
5.86314e-05
6.2344e-05
6.81303e-05
7.43775e-05
8.22327e-05
9.21449e-05
0.000104765
0.000121384
0.000144172
0.000175468
0.000220519
0.000277457
0.000351152
0.000418871
0.000478538
0.000782932
0.000575167
0.000391113
0.0192879
0.0172704
0.00830774
0.00428832
0.00298918
0.00253256
0.00229429
0.00203766
0.00161242
0.000969773
0.000401228
0.000204243
0.000152902
0.00014504
0.000147655
0.00014787
0.000140093
0.000124471
0.000105944
9.08669e-05
8.07049e-05
7.53669e-05
7.39858e-05
7.59338e-05
8.09e-05
8.89899e-05
0.000100916
0.000117525
0.000140269
0.000171854
0.000216718
0.000280858
0.00037074
0.000489831
0.000638609
0.000811307
0.00090926
0.000836638
0.000544138
0.00049657
0.0226858
0.0217164
0.00878849
0.00276044
0.00222137
0.00205482
0.0019469
0.00177264
0.00142676
0.000902278
0.000435838
0.000229272
0.000171837
0.000163588
0.000169918
0.000176207
0.000174536
0.000163715
0.000147495
0.000130531
0.000116088
0.000105861
0.000100258
9.93084e-05
0.0001032
0.000112708
0.00012904
0.000153556
0.000187967
0.000235088
0.000299626
0.000387614
0.000502956
0.000641762
0.000787255
0.000903057
0.000932354
0.000845912
0.000601017
0.000455055
0.0277114
0.0301729
0.0192766
0.0028129
0.00184554
0.00178378
0.00170098
0.0015524
0.00126437
0.000816905
0.000450106
0.000264738
0.000195984
0.000180665
0.000186951
0.000198569
0.000204693
0.000201649
0.000190814
0.000175741
0.000160101
0.000146685
0.00013716
0.000132592
0.000134129
0.000143669
0.000163813
0.000197412
0.00024649
0.000310678
0.000385672
0.000464156
0.000539614
0.000610382
0.000679899
0.000758924
0.000850518
0.000948003
0.00101875
0.000724023
0.0374103
0.058484
0.0712349
0.0123562
0.00215443
0.00177799
0.00158188
0.00140588
0.00114904
0.000754897
0.000466964
0.00030987
0.000236426
0.000207947
0.000203208
0.000209944
0.000218855
0.000223866
0.000222573
0.000215564
0.000205009
0.000193412
0.000182911
0.000175275
0.000172366
0.000177038
0.000192597
0.000223034
0.000273108
0.000344896
0.000438251
0.000553867
0.000692623
0.000858328
0.00104639
0.00121044
0.00134281
0.00159813
0.00222861
0.00114553
0.16526
0.0403007
0.0037584
0.00195019
0.00156514
0.00134247
0.00108714
0.00073879
0.000506416
0.000370657
0.000295157
0.000254675
0.000235054
0.000228668
0.000230726
0.00023685
0.000243352
0.000247714
0.000248755
0.000246456
0.000241574
0.000235509
0.000230198
0.000228175
0.000232256
0.000245702
0.000272328
0.000315555
0.000377389
0.000454996
0.000542294
0.000631866
0.00071396
0.000779304
0.00078311
0.000716706
0.00125186
0.00112037
0.0305548
0.00406997
0.00213681
0.00157359
0.0014002
0.00124046
0.000986415
0.000702341
0.000522116
0.000412205
0.000346511
0.000308718
0.000289793
0.000284077
0.000289045
0.000302437
0.000321294
0.000341857
0.000360424
0.000374204
0.000381427
0.000381868
0.000376847
0.000368425
0.000358554
0.00034917
0.000342247
0.000339709
0.000348103
0.000370752
0.000402891
0.000433666
0.000449886
0.000440705
0.000409883
0.000396692
0.00103718
0.00076949
0.0021917
0.00435588
0.00973493
0.00133877
0.00138199
0.00165897
0.00176071
0.00168632
0.00134128
0.00103186
0.000807937
0.00064717
0.000530536
0.000445366
0.000385914
0.000345287
0.000319339
0.000304956
0.000299157
0.000299102
0.000301361
0.000302565
0.000301302
0.000297478
0.000291298
0.000284061
0.000277589
0.000273833
0.00027681
0.000292663
0.000321013
0.000358706
0.000398317
0.000428776
0.000437934
0.000415629
0.000385237
0.000347698
0.000357378
0.000309881
)
;

boundaryField
{
    floor
    {
        Cmu             0.09;
        kappa           0.41;
        E               9.8;
        type            epsilonWallFunction;
        value           nonuniform List<scalar> 
29
(
0.000106136
1.26261e-05
1.63595e-05
1.78959e-05
1.0374e-05
5.38153e-06
3.59623e-06
2.9115e-06
2.22447e-06
2.21729e-06
2.72412e-06
2.91427e-06
3.55212e-06
5.09478e-06
8.17563e-06
1.29915e-05
1.93393e-05
2.44711e-05
2.43828e-05
1.75842e-05
1.75842e-05
3.98262e-05
8.08903e-05
0.000301207
0.000106136
1.26261e-05
3.86583e-05
0.000174961
0.000352523
)
;
    }
    ceiling
    {
        Cmu             0.09;
        kappa           0.41;
        E               9.8;
        type            epsilonWallFunction;
        value           nonuniform List<scalar> 
43
(
0.0021917
0.00435588
0.00973493
0.00133877
0.00138199
0.00165897
0.00176071
0.00168632
0.00134128
0.00103186
0.000807937
0.00064717
0.000530536
0.000445366
0.000385914
0.000345287
0.000319339
0.000304956
0.000299157
0.000299102
0.000301361
0.000302565
0.000301302
0.000297478
0.000291298
0.000284061
0.000277589
0.000273833
0.00027681
0.000292663
0.000321013
0.000358706
0.000398317
0.000428776
0.000437934
0.000415629
0.000385237
0.000347698
0.000357378
0.000309881
0.0374103
0.058484
0.0305548
)
;
    }
    sWall
    {
        Cmu             0.09;
        kappa           0.41;
        E               9.8;
        type            epsilonWallFunction;
        value           uniform 0.0021917;
    }
    nWall
    {
        Cmu             0.09;
        kappa           0.41;
        E               9.8;
        type            epsilonWallFunction;
        value           nonuniform List<scalar> 6(0.000391113 0.00049657 0.000455055 0.00112037 0.00076949 0.000309881);
    }
    sideWalls
    {
        type            empty;
    }
    glass1
    {
        Cmu             0.09;
        kappa           0.41;
        E               9.8;
        type            epsilonWallFunction;
        value           nonuniform List<scalar> 9(0.000997793 0.00103585 0.00548885 0.013246 0.0164221 0.0192879 0.0226858 0.0277114 0.0374103);
    }
    glass2
    {
        Cmu             0.09;
        kappa           0.41;
        E               9.8;
        type            epsilonWallFunction;
        value           nonuniform List<scalar> 2(0.000724023 0.00114553);
    }
    sun
    {
        Cmu             0.09;
        kappa           0.41;
        E               9.8;
        type            epsilonWallFunction;
        value           nonuniform List<scalar> 
14
(
0.000997793
0.00158388
0.00211923
0.00177575
0.000928008
0.000504143
0.000230348
0.000140934
0.000121364
0.000111831
0.000107078
0.000105688
0.000106206
0.000107411
)
;
    }
    heatsource1
    {
        Cmu             0.09;
        kappa           0.41;
        E               9.8;
        type            epsilonWallFunction;
        value           nonuniform List<scalar> 3(0.000782932 0.000575167 0.000391113);
    }
    heatsource2
    {
        Cmu             0.09;
        kappa           0.41;
        E               9.8;
        type            epsilonWallFunction;
        value           nonuniform List<scalar> 4(0.000137731 5.21065e-05 5.21065e-05 0.000181264);
    }
    Table_master
    {
        Cmu             0.09;
        kappa           0.41;
        E               9.8;
        type            epsilonWallFunction;
        value           nonuniform List<scalar> 9(2.59851e-05 1.20928e-05 6.12531e-06 7.45226e-06 1.27129e-05 1.98562e-05 3.02977e-05 4.64779e-05 7.34713e-05);
    }
    Table_slave
    {
        Cmu             0.09;
        kappa           0.41;
        E               9.8;
        type            epsilonWallFunction;
        value           nonuniform List<scalar> 9(9.85091e-05 0.00010164 0.000105419 0.000109009 0.000112651 0.000117136 0.000124441 0.000134447 0.000152786);
    }
    inlet
    {
        type            turbulentMixingLengthDissipationRateInlet;
        mixingLength    0.01;
        phi             phi;
        k               k;
        value           uniform 3.77336e-06;
    }
    outlet
    {
        type            zeroGradient;
    }
}


// ************************************************************************* //
