/*--------------------------------*- C++ -*----------------------------------*\
  =========                 |
  \\      /  F ield         | OpenFOAM: The Open Source CFD Toolbox
   \\    /   O peration     | Website:  https://openfoam.org
    \\  /    A nd           | Version:  6
     \\/     M anipulation  |
\*---------------------------------------------------------------------------*/
FoamFile
{
    version     2.0;
    format      ascii;
    class       volVectorField;
    location    "300";
    object      U;
}
// * * * * * * * * * * * * * * * * * * * * * * * * * * * * * * * * * * * * * //

dimensions      [0 1 -1 0 0 0 0];

internalField   nonuniform List<vector> 
459
(
(-0.0216347 0.0532963 0)
(-0.135136 -0.0405804 0)
(-0.0631874 -0.043371 0)
(-0.0438304 0.000263097 0)
(-0.0480486 0.0193647 0)
(-0.0689878 0.0127135 0)
(-0.0893513 0.002138 0)
(-0.0957754 -0.00356881 0)
(-0.0932238 -0.00692941 0)
(-0.0862527 -0.00847127 0)
(-0.0772605 -0.00927304 0)
(-0.0662421 -0.0108286 0)
(-0.0523532 -0.0141138 0)
(-0.0402013 -0.0201584 0)
(-0.0497223 -0.0274286 0)
(0.0235127 0.0147131 0)
(-0.0394367 -0.00808129 0)
(-0.0268119 -0.00780726 0)
(-0.0251868 -0.0032643 0)
(-0.02496 -0.00117469 0)
(-0.0260344 -0.00240423 0)
(-0.023156 -0.00592693 0)
(-0.0183546 -0.00689179 0)
(-0.0099352 -0.00984467 0)
(-0.00192673 -0.0144794 0)
(0.00980244 -0.00954696 0)
(0.016668 -0.00716013 0)
(0.0214821 -0.00565347 0)
(0.0256027 -0.00440229 0)
(0.0293627 -0.00333706 0)
(0.0326988 -0.00343437 0)
(0.0359196 -0.00524359 0)
(0.0444436 -0.00110292 0)
(-0.014226 0.0188964 0)
(0.271575 0.213134 0)
(0.0951733 -0.0732956 0)
(0.138289 -0.0673005 0)
(0.134631 -0.00534952 0)
(0.113687 0.0415647 0)
(0.0671909 0.0538465 0)
(-0.00388515 0.0337978 0)
(-0.0558346 0.00678311 0)
(-0.0773057 -0.00871576 0)
(-0.0778206 -0.0127729 0)
(-0.0734396 -0.0136581 0)
(-0.0669529 -0.0155359 0)
(-0.0577733 -0.0199005 0)
(-0.046606 -0.0276612 0)
(-0.0361695 -0.0374249 0)
(-0.0257397 -0.0427092 0)
(0.0227143 0.00383821 0)
(0.119404 0.0178113 0)
(0.0498909 0.0109734 0)
(0.0231773 0.0053038 0)
(0.0124744 0.0039061 0)
(0.00773994 0.00506969 0)
(0.0016174 0.00784731 0)
(-0.00758234 -0.00291795 0)
(-0.01107 -0.0065182 0)
(-0.0056456 -0.0117222 0)
(-0.00849528 -0.0169379 0)
(-0.00325999 -0.00956102 0)
(-0.000286153 -0.00635003 0)
(-0.00100992 -0.00502337 0)
(-0.00246856 -0.00346277 0)
(-0.00397235 -0.00385135 0)
(-0.0034025 -0.00918924 0)
(-0.00134511 -0.0159112 0)
(0.0276111 -0.00333417 0)
(-0.0897252 0.0426291 0)
(0.570278 0.0268352 0)
(0.342768 -0.0963457 0)
(0.352246 -0.0528141 0)
(0.364096 0.0361582 0)
(0.30986 0.100943 0)
(0.231319 0.127348 0)
(0.146784 0.120151 0)
(0.0673694 0.0887991 0)
(-0.015704 0.0294395 0)
(-0.0549841 -0.00620355 0)
(-0.0639304 -0.0147572 0)
(-0.0662879 -0.0197252 0)
(-0.065595 -0.0264917 0)
(-0.0630086 -0.0352452 0)
(-0.0599173 -0.0434071 0)
(-0.05845 -0.0460649 0)
(-0.063266 -0.0409293 0)
(0.0840435 -0.00542479 0)
(-0.0305047 0.00697937 0)
(-0.0221086 0.0104221 0)
(-0.0171615 0.00783647 0)
(-0.0101554 0.00528086 0)
(-0.00561303 0.00178651 0)
(0.0175627 0.00138649 0)
(0.017452 -0.00298896 0)
(0.0114328 -0.0100233 0)
(-0.0160608 -0.0155941 0)
(-0.0262435 -0.00918398 0)
(-0.0330182 -0.00622544 0)
(-0.0379671 -0.00440595 0)
(-0.0412903 -0.00322642 0)
(-0.0412234 -0.00296962 0)
(-0.03385 -0.00350926 0)
(-0.0442987 0.00146484 0)
(-0.0713331 0.0124756 0)
(-0.148295 0.0248812 0)
(0.663982 -0.399719 0)
(0.26697 -0.288777 0)
(0.321981 -0.126355 0)
(0.353722 0.0230543 0)
(0.31522 0.132193 0)
(0.249935 0.185513 0)
(0.179108 0.190047 0)
(0.109261 0.159672 0)
(0.0414001 0.104631 0)
(-0.0193783 0.0357539 0)
(-0.0488238 -0.000216184 0)
(-0.0616403 -0.0132921 0)
(-0.0697479 -0.0225933 0)
(-0.0765942 -0.0313828 0)
(-0.0844778 -0.0377289 0)
(-0.095783 -0.0368843 0)
(-0.10919 -0.0206776 0)
(-0.106243 0.0194765 0)
(-0.083595 0.00305651 0)
(-0.0795951 0.00698265 0)
(-0.0694126 0.00463173 0)
(-0.0645264 0.00109128 0)
(-0.0620961 -0.00365435 0)
(-0.0610757 -0.00857214 0)
(-0.0577814 -0.00885702 0)
(-0.0481167 -0.00993007 0)
(-0.0377367 -0.0110588 0)
(-0.0266423 -0.0118255 0)
(-0.0154711 -0.0121544 0)
(-0.00467061 -0.0119133 0)
(0.00627473 -0.0106738 0)
(0.0144696 -0.0090228 0)
(0.0234991 -0.00601343 0)
(0.0243804 -0.00497319 0)
(0.0297568 0.000342876 0)
(0.0381141 0.00228243 0)
(-0.0541039 0.00153823 0)
(0.646993 -0.560132 0)
(0.0375938 -0.314111 0)
(0.165468 -0.0746228 0)
(0.221047 0.0871413 0)
(0.206776 0.188293 0)
(0.170583 0.240988 0)
(0.129998 0.246707 0)
(0.0872539 0.214621 0)
(0.0438301 0.1561 0)
(0.000396045 0.0822032 0)
(-0.0309786 0.026109 0)
(-0.0489004 0.00125008 0)
(-0.0610277 -0.0126871 0)
(-0.0705585 -0.0227124 0)
(-0.0800439 -0.0302357 0)
(-0.0896945 -0.0340468 0)
(-0.0967052 -0.0312259 0)
(-0.0986303 -0.0194342 0)
(-0.0951783 -0.0104198 0)
(-0.0893079 -0.00393672 0)
(-0.0820491 -0.0024745 0)
(-0.0759811 -0.00357891 0)
(-0.0708366 -0.00640748 0)
(-0.0663284 -0.0096586 0)
(-0.0610954 -0.0115949 0)
(-0.0544992 -0.0138214 0)
(-0.0473332 -0.015457 0)
(-0.0398698 -0.0163403 0)
(-0.0324932 -0.0163528 0)
(-0.0255231 -0.0155177 0)
(-0.018911 -0.0139764 0)
(-0.0122845 -0.0123927 0)
(-0.00440792 -0.0115222 0)
(0.00580148 -0.0134173 0)
(0.0212828 -0.0133737 0)
(0.0486233 -0.00890812 0)
(0.069031 -0.00034949 0)
(0.111734 -0.00463109 0)
(0.13102 0.0149405 0)
(-0.0392 0.0647005 0)
(0.601979 -0.63433 0)
(-0.143629 -0.339345 0)
(0.0737879 -0.0810016 0)
(0.102115 0.0902526 0)
(0.0843231 0.202552 0)
(0.0705932 0.263962 0)
(0.0581275 0.274492 0)
(0.0427192 0.244057 0)
(0.0248272 0.185861 0)
(0.00377771 0.112873 0)
(-0.0163642 0.049125 0)
(-0.0313222 0.0168485 0)
(-0.043297 -0.00148 0)
(-0.0525755 -0.0130409 0)
(-0.0611034 -0.0203288 0)
(-0.0693315 -0.0234888 0)
(-0.0755701 -0.0220007 0)
(-0.0784727 -0.0174475 0)
(-0.0781966 -0.0127448 0)
(-0.0754793 -0.0090809 0)
(-0.0714875 -0.00790122 0)
(-0.067489 -0.00871114 0)
(-0.0639457 -0.011047 0)
(-0.060924 -0.013969 0)
(-0.0580034 -0.0165985 0)
(-0.0549606 -0.0190183 0)
(-0.0519756 -0.0207574 0)
(-0.0492647 -0.0214804 0)
(-0.0471139 -0.0210443 0)
(-0.0457059 -0.0196507 0)
(-0.0449282 -0.0178964 0)
(-0.0443462 -0.0167616 0)
(-0.0432559 -0.017469 0)
(-0.0406145 -0.0212412 0)
(-0.0336377 -0.0276539 0)
(-0.0192636 -0.0370166 0)
(0.00212928 -0.0522766 0)
(0.0314768 -0.0536844 0)
(0.103566 0.0128302 0)
(-0.0691098 0.120333 0)
(0.493479 -0.606488 0)
(-0.21176 -0.346079 0)
(-0.000934145 -0.103337 0)
(-0.00985589 0.122692 0)
(-0.0385452 0.202067 0)
(-0.0238524 0.260563 0)
(-0.00938006 0.274997 0)
(-0.000255018 0.248107 0)
(0.00362865 0.193619 0)
(0.00216857 0.125435 0)
(-0.00311599 0.0652756 0)
(-0.0111874 0.0285605 0)
(-0.0192159 0.00796572 0)
(-0.0272829 -0.00514052 0)
(-0.0341498 -0.0130898 0)
(-0.0408408 -0.0169431 0)
(-0.0464114 -0.0172416 0)
(-0.0499181 -0.0154042 0)
(-0.0512826 -0.0130218 0)
(-0.0509813 -0.011114 0)
(-0.0497429 -0.0105011 0)
(-0.0483596 -0.011215 0)
(-0.0473358 -0.0130338 0)
(-0.0469063 -0.0154178 0)
(-0.0470509 -0.0178096 0)
(-0.0478105 -0.0198319 0)
(-0.0494189 -0.0209543 0)
(-0.0522387 -0.0208009 0)
(-0.0567197 -0.019336 0)
(-0.0631445 -0.0170647 0)
(-0.071501 -0.0148848 0)
(-0.0814095 -0.0137937 0)
(-0.0922014 -0.0151056 0)
(-0.103203 -0.0207034 0)
(-0.113203 -0.0324827 0)
(-0.120174 -0.051702 0)
(-0.120592 -0.0750756 0)
(-0.103696 -0.084575 0)
(-0.0341049 -0.031868 0)
(-0.150111 0.216952 0)
(0.302929 -0.481018 0)
(-0.293967 -0.28344 0)
(-0.221866 -0.106382 0)
(-0.119376 0.132427 0)
(-0.148092 0.175941 0)
(-0.101313 0.228525 0)
(-0.0622958 0.248787 0)
(-0.0324951 0.230607 0)
(-0.0112879 0.184263 0)
(0.00300101 0.121605 0)
(0.0102637 0.0694337 0)
(0.011146 0.0351958 0)
(0.00866974 0.0146297 0)
(0.00451948 0.00164981 0)
(-0.00101214 -0.00684537 0)
(-0.00634038 -0.0113166 0)
(-0.0112494 -0.0128075 0)
(-0.0150755 -0.0125281 0)
(-0.0176378 -0.0115968 0)
(-0.0191729 -0.010752 0)
(-0.0201168 -0.0105349 0)
(-0.0209786 -0.0110978 0)
(-0.0221707 -0.0123529 0)
(-0.0239659 -0.013976 0)
(-0.0264938 -0.0155187 0)
(-0.029923 -0.0164214 0)
(-0.034558 -0.0159328 0)
(-0.0409914 -0.0134332 0)
(-0.0501256 -0.0087271 0)
(-0.0625314 -0.00233981 0)
(-0.0790372 0.00427323 0)
(-0.101104 0.00857976 0)
(-0.128644 0.00789324 0)
(-0.160567 0.000492643 0)
(-0.194989 -0.0132679 0)
(-0.228091 -0.0303147 0)
(-0.256805 -0.0456312 0)
(-0.282093 -0.0489493 0)
(-0.343267 -0.0251601 0)
(-0.558812 0.0473256 0)
(0.0273069 -0.332263 0)
(-0.602439 -0.257088 0)
(-0.763394 -0.209158 0)
(-0.201384 0.0292456 0)
(-0.240298 0.112657 0)
(-0.154106 0.173178 0)
(-0.0957028 0.203123 0)
(-0.0505006 0.19609 0)
(-0.0163209 0.159864 0)
(0.0106471 0.104728 0)
(0.0266098 0.062393 0)
(0.0348505 0.0338867 0)
(0.0378089 0.0161971 0)
(0.0378228 0.00533891 0)
(0.0353517 -0.00154495 0)
(0.0318376 -0.00565942 0)
(0.0278806 -0.00761764 0)
(0.0240866 -0.00815184 0)
(0.020757 -0.00800622 0)
(0.0178875 -0.00773194 0)
(0.0152928 -0.0077109 0)
(0.0127091 -0.00810425 0)
(0.00988492 -0.00888792 0)
(0.00663241 -0.00987369 0)
(0.00288776 -0.010739 0)
(-0.00138809 -0.0109661 0)
(-0.00588053 -0.00973343 0)
(-0.0103836 -0.00632207 0)
(-0.0146759 -0.000372008 0)
(-0.0180965 0.00793858 0)
(-0.0225771 0.0176284 0)
(-0.0279742 0.0268722 0)
(-0.0345616 0.0328547 0)
(-0.0422963 0.0326829 0)
(-0.0520703 0.0234852 0)
(-0.0704127 0.00277138 0)
(-0.0888695 -0.0286074 0)
(-0.0853619 -0.0749949 0)
(-0.115153 -0.151273 0)
(-0.510952 -0.236572 0)
(-1.68383 -0.240286 0)
(-0.0850161 -0.143474 0)
(-0.24476 0.00933303 0)
(-0.166872 0.103101 0)
(-0.105432 0.144925 0)
(-0.0529209 0.149199 0)
(-0.0088198 0.122563 0)
(0.0268018 0.0786454 0)
(0.0482634 0.047377 0)
(0.0612141 0.0263865 0)
(0.0678581 0.0134055 0)
(0.0707224 0.00589257 0)
(0.0712048 0.00168479 0)
(0.069846 -0.000701101 0)
(0.0673388 -0.00176194 0)
(0.0641994 -0.0020068 0)
(0.0607934 -0.00191087 0)
(0.057294 -0.00183253 0)
(0.0537251 -0.0020123 0)
(0.0500382 -0.00254926 0)
(0.046155 -0.00340072 0)
(0.0420001 -0.00441808 0)
(0.0375689 -0.00533522 0)
(0.0329748 -0.00575573 0)
(0.0285765 -0.00506389 0)
(0.0249888 -0.00260284 0)
(0.023138 0.0019955 0)
(0.0231462 0.00859978 0)
(0.025354 0.0169224 0)
(0.0296326 0.0250549 0)
(0.0352382 0.0303904 0)
(0.0412644 0.0308029 0)
(0.046895 0.0257107 0)
(0.0514755 0.0163082 0)
(0.0597554 0.00585596 0)
(0.0718271 -0.00808907 0)
(0.133839 -0.0692137 0)
(-0.15468 -0.185086 0)
(-0.419825 0.0479411 0)
(0.0109804 -0.143319 0)
(-0.170382 -0.0421979 0)
(-0.14672 0.0384922 0)
(-0.0968113 0.082541 0)
(-0.0429779 0.0946062 0)
(0.0125627 0.0752653 0)
(0.0521373 0.0431135 0)
(0.07723 0.0198365 0)
(0.0924783 0.00294983 0)
(0.100547 -0.00925324 0)
(0.104156 -0.0180912 0)
(0.105227 -0.0238668 0)
(0.104438 -0.0275315 0)
(0.10247 -0.0298816 0)
(0.0997281 -0.0314282 0)
(0.0965011 -0.0324999 0)
(0.0929959 -0.033223 0)
(0.0893088 -0.0337513 0)
(0.0854424 -0.034223 0)
(0.0813992 -0.0345116 0)
(0.0772035 -0.0344319 0)
(0.072889 -0.033928 0)
(0.0685793 -0.032867 0)
(0.0645716 -0.0310574 0)
(0.0614825 -0.0282584 0)
(0.0603861 -0.0237468 0)
(0.0617806 -0.0165839 0)
(0.0665255 -0.00795153 0)
(0.0747592 0.000282567 0)
(0.085579 0.00595206 0)
(0.0972695 0.00725705 0)
(0.10773 0.00315456 0)
(0.115047 -0.00700334 0)
(0.116882 -0.0203978 0)
(0.109916 -0.0376137 0)
(0.147279 -0.0719237 0)
(-0.206324 -0.123545 0)
(0.769549 0.145096 0)
(-0.0223938 -0.302138 0)
(-0.277493 0.111269 0)
(-0.0350816 -0.00947966 0)
(-0.147914 0.0370016 0)
(-0.13024 0.0616298 0)
(-0.0833039 0.0795939 0)
(-0.0241832 0.0889183 0)
(0.046945 0.0784436 0)
(0.0845736 0.0679869 0)
(0.109286 0.0631811 0)
(0.123098 0.063143 0)
(0.128778 0.0667092 0)
(0.129478 0.072743 0)
(0.127628 0.0794747 0)
(0.125041 0.0863656 0)
(0.122637 0.0929075 0)
(0.120803 0.0986331 0)
(0.119628 0.103182 0)
(0.119001 0.106279 0)
(0.118709 0.107989 0)
(0.118493 0.108559 0)
(0.118076 0.107993 0)
(0.117271 0.106304 0)
(0.11604 0.103698 0)
(0.114458 0.100284 0)
(0.112755 0.0961234 0)
(0.111386 0.0912525 0)
(0.110995 0.0851837 0)
(0.112363 0.0770425 0)
(0.116765 0.0680153 0)
(0.124751 0.0595071 0)
(0.135756 0.0522118 0)
(0.147939 0.0459515 0)
(0.158438 0.0402236 0)
(0.164196 0.0346988 0)
(0.160424 0.027141 0)
(0.143997 0.0167848 0)
(0.166899 -0.00161361 0)
(-0.244195 -0.0339307 0)
)
;

boundaryField
{
    floor
    {
        type            noSlip;
    }
    ceiling
    {
        type            noSlip;
    }
    sWall
    {
        type            noSlip;
    }
    nWall
    {
        type            noSlip;
    }
    sideWalls
    {
        type            empty;
    }
    glass1
    {
        type            noSlip;
    }
    glass2
    {
        type            noSlip;
    }
    sun
    {
        type            noSlip;
    }
    heatsource1
    {
        type            noSlip;
    }
    heatsource2
    {
        type            noSlip;
    }
    Table_master
    {
        type            noSlip;
    }
    Table_slave
    {
        type            noSlip;
    }
    inlet
    {
        type            fixedValue;
        value           uniform (0.1 0 0);
    }
    outlet
    {
        type            zeroGradient;
    }
}


// ************************************************************************* //
