/*--------------------------------*- C++ -*----------------------------------*\
  =========                 |
  \\      /  F ield         | OpenFOAM: The Open Source CFD Toolbox
   \\    /   O peration     | Website:  https://openfoam.org
    \\  /    A nd           | Version:  6
     \\/     M anipulation  |
\*---------------------------------------------------------------------------*/
FoamFile
{
    version     2.0;
    format      ascii;
    class       surfaceScalarField;
    location    "300";
    object      phi;
}
// * * * * * * * * * * * * * * * * * * * * * * * * * * * * * * * * * * * * * //

dimensions      [1 0 -1 0 0 0 0];

internalField   nonuniform List<scalar> 
852
(
-0.00293845
0.00299624
-0.00394706
0.00100865
-0.0047162
0.000769176
-0.00532049
0.000604325
-0.00572666
0.000406218
-0.0059104
0.000183777
-0.00584936
-6.10078e-05
-0.00552663
-0.000322682
-0.00495624
-0.000570354
-0.00419206
-0.000764141
-0.00331585
-0.000876171
-0.00241782
-0.000897986
-0.00157296
-0.000844825
-0.000800392
-0.00077253
-0.000798652
-0.000688093
0.000691403
-0.000369167
-0.000318887
0.000211791
-0.000580921
0.000648392
-0.000436565
0.000928445
-0.000280017
0.00109618
-0.000167696
0.00118233
-8.61173e-05
0.00122043
-3.80715e-05
0.00123826
-1.77958e-05
0.00124646
-8.16506e-06
0.00124852
-2.03305e-06
0.00124583
2.722e-06
0.00123717
8.69358e-06
0.0012158
2.13985e-05
0.00116255
5.32832e-05
0.00104595
0.000116625
0.000865058
0.000180915
0.000674621
0.000190461
0.000679087
-0.00209997
0.00525133
-0.00309876
0.00200749
-0.00389796
0.00156842
-0.00449629
0.00120269
-0.00489761
0.000807582
-0.00508743
0.000373638
-0.00504058
-0.000107817
-0.00474352
-0.000619702
-0.00422097
-0.00109286
-0.00353601
-0.00144906
-0.00277048
-0.00164166
-0.00200525
-0.00166318
-0.0013112
-0.00153884
-0.000776185
-0.00130751
-0.000583299
-0.000991502
-0.000112718
-0.000470595
-0.000112717
0.000419229
0.000281517
0.000770105
-0.000669726
0.000967759
-0.00077854
0.00114479
-0.000613564
0.00127824
-0.000413427
0.00135473
-0.000244163
0.0013644
-9.57541e-05
0.00136611
-3.97493e-05
0.00136904
-2.06931e-05
0.00137161
-1.06956e-05
0.00137317
-3.5621e-06
0.00137366
2.25507e-06
0.00137247
9.91566e-06
0.00136672
2.71801e-05
0.00132989
9.01375e-05
0.00116843
0.000278111
0.000898593
0.000450782
0.000582387
0.00050669
0.00127252
-0.00147547
0.00696367
-0.00234808
0.00288014
-0.00306197
0.00228234
-0.00357668
0.00171745
-0.00392888
0.00115982
-0.00409952
0.000544317
-0.00404419
-0.000163106
-0.00374207
-0.000921779
-0.0032389
-0.00159598
-0.00261285
-0.00207506
-0.00194381
-0.00231066
-0.00129732
-0.00230962
-0.000721995
-0.00211413
-0.000269309
-0.00176016
3.61263e-05
-0.0012969
0.000253888
-0.000688323
0.000141207
0.00139306
-0.0011019
0.00159275
-0.000869377
0.00154328
-0.000729047
0.00152486
-0.000595115
0.00153852
-0.000427051
0.00154873
-0.000254351
0.00145316
0.00141359
0.00139308
0.00138257
0.00137919
0.00138163
0.00139173
0.00141909
0.00150941
0.00121727
0.000570283
0.000881771
0.000786307
0.000496079
0.000892405
0.00178511
-0.00103523
0.00830528
-0.00173602
0.00358097
-0.00221236
0.00275872
-0.00255267
0.00205779
-0.00278903
0.00139623
-0.00288679
0.000642108
-0.00277099
-0.000278859
-0.00242881
-0.00126392
-0.00194369
-0.00208105
-0.00140302
-0.00261566
-0.000871649
-0.00284198
-0.000389253
-0.00279196
2.8137e-05
-0.00253148
0.000375505
-0.00210749
0.000674076
-0.00159544
0.00102399
-0.00103821
0.00171572
-0.000550495
0.00221188
-0.000487476
0.00179577
-0.000685766
0.00168063
-0.000754211
0.00158963
-0.00063802
0.00151073
-0.000516194
0.00147335
-0.000389641
0.00147058
-0.000251563
0.00158894
-0.000118493
0.00168202
-9.32126e-05
0.00177101
-8.91278e-05
0.00185245
-8.15769e-05
0.00190811
-5.58028e-05
0.00190816
-1.86161e-07
0.00181958
8.84337e-05
0.00160632
0.000213121
0.00121287
0.000393308
0.00104677
0.000736396
0.000718031
0.00111507
0.000217892
0.00139257
0.00202452
-0.000727573
0.00939831
-0.0012656
0.00411903
-0.00137195
0.00286512
-0.0014427
0.00212858
-0.0014867
0.00144026
-0.00142091
0.000576356
-0.00116106
-0.000538673
-0.000762637
-0.00166229
-0.000333797
-0.00250983
5.83009e-05
-0.00300769
0.000382101
-0.00316572
0.000631858
-0.00304167
0.00081797
-0.00271754
0.000970143
-0.00225963
0.00111426
-0.00173953
0.00129633
-0.00122025
0.00154415
-0.000798292
0.00165967
-0.000602969
0.00156738
-0.000593456
0.00140019
-0.000587007
0.00126727
-0.000505078
0.0011626
-0.000411504
0.00109612
-0.000323143
0.00108116
-0.00023659
0.00113631
-0.000173637
0.00120476
-0.000161655
0.00128545
-0.0001698
0.00137251
-0.000168634
0.00145173
-0.00013502
0.00149936
-4.7813e-05
0.00148748
0.000100323
0.00139901
0.000301599
0.00124012
0.000552201
0.0010844
0.000892121
0.000907724
0.00129176
0.000515822
0.00178449
0.000352537
0.00218782
-0.000996696
0.00134904
-0.00144642
0.00044953
-0.00139683
-0.000635159
0.0104489
-0.00100671
0.00449063
-0.000596061
0.0024545
-0.000255938
0.00178849
-7.98896e-07
0.00118516
0.000349298
0.000226291
0.000815674
-0.00100501
0.00122374
-0.00207031
0.00150874
-0.00279476
0.00166143
-0.00316031
0.00170314
-0.00320736
0.00166538
-0.00300386
0.00157547
-0.00262759
0.00146851
-0.00215263
0.00137511
-0.0016461
0.00131831
-0.00116343
0.00129391
-0.000773867
0.00123284
-0.000541886
0.00109254
-0.000453138
0.000911341
-0.000405795
0.000757034
-0.000350759
0.000643623
-0.000298083
0.000575629
-0.00025514
0.000560693
-0.000221648
0.000595931
-0.00020887
0.000660023
-0.000225744
0.000744142
-0.000253919
0.000843681
-0.000268172
0.000952459
-0.000243799
0.00105891
-0.000154267
0.00113671
2.25265e-05
0.0011708
0.000267507
0.00117657
0.000546438
0.00120071
0.000867985
0.00129083
0.00120165
0.00146314
0.0016122
0.00189736
0.00175361
0.00217392
0.00107249
0.00180966
0.0008138
0.000472026
-0.000693692
0.0116032
-0.000581371
0.00437835
0.00053957
0.0013336
0.00130242
0.00102569
0.0019424
0.000545204
0.00259757
-0.000428855
0.00312556
-0.00153296
0.00340748
-0.00235217
0.00344328
-0.00283048
0.00327643
-0.00299339
0.0029662
-0.00289706
0.00257356
-0.00261116
0.00215028
-0.00220427
0.00174188
-0.00174419
0.00138242
-0.00128662
0.00108586
-0.000866856
0.000853399
-0.00054139
0.000655904
-0.000344381
0.000462593
-0.000259819
0.00028292
-0.000226115
0.000139185
-0.000207019
3.8523e-05
-0.000197417
-1.87819e-05
-0.000197833
-3.19645e-05
-0.000208465
-7.03573e-06
-0.0002338
4.27541e-05
-0.000275536
0.000109817
-0.000320985
0.000194079
-0.00035244
0.000300475
-0.0003502
0.000435526
-0.000289323
0.000596799
-0.000138751
0.000760666
0.000103637
0.00092454
0.000382563
0.00113158
0.000660944
0.0014291
0.000904132
0.00188875
0.00115256
0.00255727
0.00108511
0.0031074
0.000522374
0.00311275
0.000808456
0.00364646
0.00260677
0.00951192
0.00330934
0.00367583
0.00367403
0.000968952
0.00428569
0.000414052
0.00503977
-0.00020885
0.0056689
-0.00105794
0.00590089
-0.00176488
0.00575215
-0.00220334
0.00529947
-0.00237771
0.00463696
-0.00233079
0.00386062
-0.00212066
0.00305402
-0.00180451
0.0022776
-0.00142782
0.00157952
-0.00104609
0.000992032
-0.000699124
0.000517656
-0.000392476
0.000168112
-0.000191845
-8.01537e-05
-9.6115e-05
-0.000265497
-7.44746e-05
-0.00040874
-8.28723e-05
-0.000516718
-9.90425e-05
-0.000593249
-0.00012089
-0.000641808
-0.000149278
-0.000665415
-0.000184864
-0.000670233
-0.000228989
-0.000665771
-0.000280006
-0.000657058
-0.000329706
-0.000642324
-0.000367181
-0.000612181
-0.00038035
-0.000545982
-0.000355528
-0.000408316
-0.000276422
-0.000188433
-0.000116251
7.61574e-05
0.00011797
0.000375835
0.000361265
0.000713244
0.000566726
0.00111482
0.000750992
0.00148682
0.000713115
0.0015861
0.000423096
0.000866076
0.00152849
0.00477899
0.0100794
0.0137488
0.0125167
0.00220112
0.0117477
0.00118305
0.0110718
0.000467075
0.0101913
-0.000177277
0.00904091
-0.000614378
0.0077298
-0.00089209
0.00635585
-0.00100366
0.00499284
-0.000967696
0.00370743
-0.000835199
0.00255074
-0.000647786
0.00154164
-0.000418716
0.000702016
-0.00020646
3.36924e-05
-3.08049e-05
-0.000435093
7.62985e-05
-0.000714168
8.72225e-05
-0.000879166
6.88766e-05
-0.000992434
3.87859e-05
-0.00108255
7.2397e-06
-0.00115818
-2.34234e-05
-0.00122279
-5.62935e-05
-0.0012795
-9.25729e-05
-0.00133264
-0.00013173
-0.00138877
-0.000172873
-0.00145645
-0.000212332
-0.00154342
-0.00024275
-0.00165674
-0.000253866
-0.00180441
-0.000232686
-0.00199615
-0.000163795
-0.00224071
-3.18671e-05
-0.00253032
0.00017336
-0.00287764
0.000465292
-0.00336885
0.000852473
-0.00411946
0.00131733
-0.00518083
0.00181236
-0.00665425
0.00218654
-0.00837915
0.002148
-0.0077387
0.000888044
-0.00266375
0.0047354
0.00362673
0.00389519
0.00202354
0.00429449
6.81257e-05
0.00428293
-0.000165514
0.00386765
-0.00019899
0.00322913
-0.000253527
0.00246986
-0.000244379
0.00165648
-0.000154324
0.000830949
-9.68991e-06
4.91273e-05
0.000134001
-0.000594144
0.000224519
-0.00104008
0.000239457
-0.00130636
0.00023546
-0.0014425
0.000212431
-0.00152686
0.000171563
-0.00158709
0.000129095
-0.0016388
9.0489e-05
-0.00168824
5.66644e-05
-0.00173802
2.63458e-05
-0.00179193
-2.39728e-06
-0.00185276
-3.17577e-05
-0.00192309
-6.14112e-05
-0.00200647
-8.95046e-05
-0.00210662
-0.000112188
-0.00222531
-0.000124068
-0.00236112
-0.000118069
-0.00250827
-8.55412e-05
-0.00265561
-1.64564e-05
-0.00278915
0.000101667
-0.00290324
0.000287443
-0.00300441
0.000566461
-0.00310256
0.000950622
-0.0031977
0.00141247
-0.0032306
0.00184527
-0.00311114
0.00206707
-0.0026152
0.00165205
-0.00135098
-0.000376175
-0.00393825
-0.00068936
0.00437752
0.000166184
0.00116816
-0.000129116
0.000363437
-0.000426495
0.00013187
-0.000709116
8.36105e-05
-0.00105245
8.97726e-05
-0.00142181
0.00012494
-0.00175138
0.000175212
-0.00198453
0.000223428
-0.0021087
0.000258146
-0.0021562
0.000272001
-0.00216664
0.000249872
-0.00214676
0.000215561
-0.00211405
0.000179712
-0.00208843
0.000145918
-0.00207554
0.000116191
-0.0020745
8.94296e-05
-0.00208226
6.44165e-05
-0.00209642
4.04835e-05
-0.00211633
1.74948e-05
-0.00214453
-3.57421e-06
-0.00218409
-2.18608e-05
-0.00223662
-3.69886e-05
-0.00230111
-4.77133e-05
-0.00237348
-5.16992e-05
-0.00244605
-4.55099e-05
-0.00250706
-2.45401e-05
-0.0025412
1.76718e-05
-0.00253025
9.07188e-05
-0.0024484
0.000205589
-0.00226078
0.000378836
-0.00194199
0.000631829
-0.00148906
0.000959539
-0.00087358
0.00122978
7.19771e-05
0.00112151
0.00124133
0.000482699
0.00151329
-0.000648137
-0.00234094
-0.00756525
-0.0104828
-0.00606219
-0.0048722
-0.00449535
-0.00435396
-0.00426325
-0.00416814
-0.00403921
-0.00386107
-0.00363556
-0.00337604
-0.00310327
-0.00285315
-0.00263777
-0.00245858
-0.00231344
-0.00219819
-0.0021098
-0.00204646
-0.00200702
-0.00199051
-0.00199498
-0.00201766
-0.00205537
-0.00210372
-0.00215599
-0.00220199
-0.00222696
-0.00220966
-0.00211926
-0.00191395
-0.00153536
-0.000903781
5.54897e-05
0.00128489
0.00240589
0.00288795
0.00223906
)
;

boundaryField
{
    floor
    {
        type            calculated;
        value           nonuniform List<scalar> 
29
(
0
0
0
0
0
0
0
0
0
0
0
0
0
0
0
0
0
0
0
0
-4.44492e-06
-1.10285e-05
-1.64824e-05
-2.14999e-05
-1.70345e-06
-3.27081e-06
-9.30419e-06
-9.60855e-06
-8.65069e-06
)
;
    }
    ceiling
    {
        type            calculated;
        value           nonuniform List<scalar> 
43
(
-4.58171e-05
-4.44505e-05
-4.31331e-05
-2.18886e-05
-1.34716e-05
-9.57155e-06
-7.13876e-06
-5.3657e-06
-4.01162e-06
-2.9538e-06
-2.10477e-06
-1.39945e-06
-7.88385e-07
-2.67611e-07
1.61325e-07
4.99295e-07
7.51695e-07
9.23876e-07
1.02051e-06
1.04944e-06
1.02511e-06
9.65095e-07
8.84603e-07
7.95604e-07
7.08895e-07
6.27419e-07
5.52391e-07
4.83946e-07
4.2143e-07
3.63496e-07
3.11118e-07
2.70767e-07
2.45636e-07
2.40413e-07
2.64074e-07
3.83423e-07
5.04002e-07
6.29267e-07
7.51683e-07
1.59493e-06
9.3606e-06
6.51596e-06
-6.13198e-05
)
;
    }
    sWall
    {
        type            calculated;
        value           uniform -0.000270736;
    }
    nWall
    {
        type            calculated;
        value           nonuniform List<scalar> 6(-4.97959e-05 -5.91856e-05 -6.16747e-05 -7.64839e-05 -8.40321e-05 -0.000103477);
    }
    sideWalls
    {
        type            empty;
        value           nonuniform 0();
    }
    glass1
    {
        type            calculated;
        value           nonuniform List<scalar> 9(-5.77456e-05 -0.00015508 -0.00023682 -0.00030634 -0.000365419 -0.000415362 -0.000460611 -0.000515427 -0.000576833);
    }
    glass2
    {
        type            calculated;
        value           nonuniform List<scalar> 2(-0.000266452 -0.000295959);
    }
    sun
    {
        type            calculated;
        value           uniform 0;
    }
    heatsource1
    {
        type            calculated;
        value           nonuniform List<scalar> 3(2.04539e-07 2.04417e-07 2.04435e-07);
    }
    heatsource2
    {
        type            calculated;
        value           nonuniform List<scalar> 4(5.12064e-08 5.13381e-08 0 0);
    }
    Table_master
    {
        type            calculated;
        value           nonuniform List<scalar> 9(-1.53354e-07 -1.53434e-07 -1.53465e-07 -1.53487e-07 -1.53505e-07 -1.53518e-07 -1.53526e-07 -1.53528e-07 -1.53507e-07);
    }
    Table_slave
    {
        type            calculated;
        value           nonuniform List<scalar> 9(1.53214e-07 1.53232e-07 1.53203e-07 1.53176e-07 1.53158e-07 1.53161e-07 1.53168e-07 1.53207e-07 1.53291e-07);
    }
    inlet
    {
        type            calculated;
        value           uniform -0.00616089;
    }
    outlet
    {
        type            calculated;
        value           nonuniform List<scalar> 2(0.0078818 0.00296203);
    }
}


// ************************************************************************* //
