// -*- C++ -*-
// File generated by PyFoam - sorry for the ugliness

FoamFile
{
 version 2.0;
 format ascii;
 class volScalarField;
 location "460";
 object T;
}

dimensions [ 0 0 0 1 0 0 0 ];

internalField nonuniform List<scalar> 459
(
  301.061
  301.026
  301.026
  301.028
  301.029
  301.03
  301.032
  301.035
  301.041
  301.054
  301.076
  301.085
  301.089
  301.09
  301.084
  301.225
  301.235
  301.24
  301.253
  301.264
  301.273
  301.279
  301.283
  301.286
  301.289
  301.292
  301.295
  301.298
  301.301
  301.304
  301.308
  301.311
  301.315
  301.317
  301.08
  301.029
  301.027
  301.026
  301.026
  301.025
  301.025
  301.026
  301.034
  301.054
  301.083
  301.101
  301.109
  301.109
  301.102
  301.105
  301.108
  301.225
  301.222
  301.236
  301.256
  301.276
  301.292
  301.299
  301.305
  301.31
  301.315
  301.319
  301.324
  301.328
  301.332
  301.335
  301.336
  301.335
  301.333
  301.336
  301.098
  301.032
  301.026
  301.025
  301.024
  301.022
  301.019
  301.015
  301.022
  301.048
  301.086
  301.113
  301.127
  301.128
  301.124
  301.12
  301.117
  301.188
  301.203
  301.231
  301.263
  301.294
  301.317
  301.32
  301.324
  301.328
  301.332
  301.337
  301.343
  301.348
  301.352
  301.356
  301.358
  301.355
  301.349
  301.347
  301.118
  301.037
  301.028
  301.028
  301.028
  301.027
  301.019
  301.006
  301.009
  301.042
  301.087
  301.126
  301.149
  301.154
  301.149
  301.141
  301.132
  301.137
  301.159
  301.195
  301.241
  301.287
  301.328
  301.36
  301.388
  301.41
  301.429
  301.446
  301.461
  301.475
  301.487
  301.498
  301.506
  301.461
  301.419
  301.384
  301.365
  301.139
  301.044
  301.032
  301.033
  301.038
  301.04
  301.024
  301
  300.999
  301.034
  301.091
  301.144
  301.178
  301.189
  301.185
  301.176
  301.169
  301.181
  301.209
  301.25
  301.298
  301.345
  301.388
  301.424
  301.456
  301.481
  301.502
  301.519
  301.534
  301.544
  301.551
  301.553
  301.55
  301.523
  301.479
  301.432
  301.396
  301.399
  301.406
  301.435
  301.159
  301.054
  301.039
  301.041
  301.051
  301.051
  301.026
  300.995
  300.991
  301.03
  301.099
  301.17
  301.217
  301.236
  301.235
  301.228
  301.228
  301.248
  301.283
  301.327
  301.374
  301.42
  301.46
  301.493
  301.521
  301.543
  301.561
  301.575
  301.585
  301.592
  301.594
  301.592
  301.584
  301.564
  301.53
  301.49
  301.449
  301.436
  301.432
  301.447
  301.18
  301.073
  301.058
  301.06
  301.069
  301.058
  301.021
  300.983
  300.98
  301.03
  301.119
  301.209
  301.27
  301.297
  301.3
  301.298
  301.306
  301.333
  301.371
  301.415
  301.458
  301.498
  301.531
  301.558
  301.579
  301.594
  301.605
  301.613
  301.618
  301.62
  301.618
  301.614
  301.605
  301.589
  301.564
  301.534
  301.498
  301.474
  301.459
  301.461
  301.21
  301.126
  301.107
  301.104
  301.094
  301.053
  300.996
  300.956
  300.967
  301.043
  301.158
  301.27
  301.341
  301.371
  301.378
  301.382
  301.398
  301.429
  301.466
  301.505
  301.539
  301.568
  301.591
  301.607
  301.618
  301.625
  301.628
  301.628
  301.626
  301.622
  301.617
  301.611
  301.604
  301.593
  301.575
  301.553
  301.526
  301.504
  301.487
  301.512
  301.252
  301.211
  301.184
  301.159
  301.087
  300.991
  300.917
  300.901
  300.959
  301.086
  301.237
  301.366
  301.427
  301.452
  301.462
  301.474
  301.494
  301.523
  301.553
  301.58
  301.601
  301.617
  301.628
  301.633
  301.634
  301.632
  301.628
  301.622
  301.615
  301.607
  301.597
  301.587
  301.577
  301.566
  301.557
  301.548
  301.543
  301.544
  301.549
  301.571
  300.312
  300.376
  300.439
  300.535
  300.67
  300.834
  301.019
  301.229
  301.394
  301.476
  301.513
  301.531
  301.543
  301.558
  301.576
  301.595
  301.613
  301.626
  301.635
  301.639
  301.639
  301.636
  301.632
  301.625
  301.618
  301.61
  301.602
  301.594
  301.586
  301.579
  301.572
  301.566
  301.56
  301.557
  301.557
  301.562
  301.575
  301.614
  300.432
  300.626
  300.824
  300.986
  301.112
  301.233
  301.348
  301.446
  301.515
  301.554
  301.576
  301.59
  301.601
  301.612
  301.622
  301.632
  301.639
  301.642
  301.643
  301.641
  301.637
  301.631
  301.625
  301.619
  301.612
  301.606
  301.6
  301.594
  301.588
  301.583
  301.578
  301.573
  301.569
  301.566
  301.565
  301.568
  301.582
  301.603
  300.915
  300.906
  300.904
  301.085
  301.23
  301.339
  301.416
  301.476
  301.524
  301.561
  301.587
  301.603
  301.613
  301.62
  301.625
  301.63
  301.632
  301.633
  301.632
  301.629
  301.624
  301.619
  301.613
  301.607
  301.601
  301.595
  301.59
  301.585
  301.581
  301.578
  301.575
  301.573
  301.571
  301.569
  301.568
  301.567
  301.566
  301.569
  301.573
  301.6
)
;

boundaryField
{
  floor
  {
    type wallHeatTransfer;
    Tinf uniform 299.755;
    alphaWall uniform 0.24;
    value nonuniform List<scalar> 29
(
  300.883
  300.918
  300.979
  301.006
  301.021
  301.03
  301.033
  301.028
  301.02
  301.011
  301.002
  300.993
  300.985
  300.978
  300.97
  300.963
  300.954
  300.944
  300.926
  300.901
  300.901
  300.954
  300.981
  301.019
  300.883
  300.918
  300.99
  300.968
  300.956
)
;
  }
  ceiling
  {
    type wallHeatTransfer;
    Tinf uniform 299.755;
    alphaWall uniform 0.24;
    value nonuniform List<scalar> 43
(
  300.819
  300.815
  300.817
  300.996
  301.128
  301.223
  301.289
  301.338
  301.377
  301.404
  301.422
  301.433
  301.44
  301.446
  301.451
  301.455
  301.457
  301.458
  301.457
  301.454
  301.449
  301.444
  301.438
  301.432
  301.426
  301.42
  301.414
  301.408
  301.401
  301.395
  301.388
  301.382
  301.376
  301.371
  301.368
  301.365
  301.363
  301.362
  301.367
  301.387
  301.131
  301.108
  300.372
)
;
  }
  sWall
  {
    type wallHeatTransfer;
    Tinf uniform 303.161;
    alphaWall uniform 0.36;
    value uniform 301.182;
  }
  nWall
  {
    type wallHeatTransfer;
    Tinf uniform 303.145;
    alphaWall uniform 0.36;
    value nonuniform List<scalar> 6
(
  301.898
  301.836
  301.804
  301.847
  301.821
  301.852
)
;
  }
  sideWalls
  {
    type empty;
  }
  glass1
  {
    type wallHeatTransfer;
    Tinf uniform 303.161;
    alphaWall uniform 4.3;
    value nonuniform List<scalar> 9
(
  302.652
  302.586
  302.539
  302.499
  302.463
  302.427
  302.397
  302.399
  302.421
)
;
  }
  glass2
  {
    type wallHeatTransfer;
    Tinf uniform 303.145;
    alphaWall uniform 4.3;
    value nonuniform List<scalar> 2
(
  302.675
  302.676
)
;
  }
  sun
  {
    type wallHeatTransfer;
    Tinf uniform 299.755;
    alphaWall uniform 0.24;
    value nonuniform List<scalar> 14
(
  300.868
  300.853
  300.859
  300.867
  300.875
  300.882
  300.889
  300.896
  300.904
  300.916
  300.929
  300.928
  300.919
  300.906
)
;
  }
  heatsource1
  {
    type fixedGradient;
    gradient uniform 0;
  }
  heatsource2
  {
    type fixedGradient;
    gradient uniform 0;
  }
  Table_master
  {
    type zeroGradient;
  }
  Table_slave
  {
    type zeroGradient;
  }
  inlet
  {
    type fixedValue;
    value uniform 300.15;
  }
  outlet
  {
    type zeroGradient;
  }
} 	// ************************************************************************* //

