// -*- C++ -*-
// File generated by PyFoam - sorry for the ugliness

FoamFile
{
 version 2.0;
 format ascii;
 class volVectorField;
 location "400";
 object U;
}

dimensions [ 0 1 -1 0 0 0 0 ];

internalField nonuniform List<vector> 459
(
  (0.070522 0.0773122 0)
  (-0.152089 0.0134334 0)
  (-0.158829 0.0140772 0)
  (-0.186468 0.0116521 0)
  (-0.210663 0.00833031 0)
  (-0.230884 0.00462453 0)
  (-0.246424 0.000537217 0)
  (-0.256534 -0.00405358 0)
  (-0.260252 -0.00931949 0)
  (-0.25619 -0.0154964 0)
  (-0.242769 -0.0232114 0)
  (-0.217158 -0.032931 0)
  (-0.177789 -0.0464936 0)
  (-0.134396 -0.0678068 0)
  (-0.122659 -0.097738 0)
  (0.0768561 -0.0424436 0)
  (0.0525749 -0.0263148 0)
  (0.0659516 -0.0161156 0)
  (0.0793541 -0.0107429 0)
  (0.0862964 -0.00768278 0)
  (0.0896102 -0.00542176 0)
  (0.091088 -0.00347968 0)
  (0.0907566 -0.002268 0)
  (0.0894371 -0.0016483 0)
  (0.0878968 -0.00130299 0)
  (0.0863816 -0.0010529 0)
  (0.0848326 -0.000822076 0)
  (0.0830919 -0.000525647 0)
  (0.0808517 1.37142e-05 0)
  (0.0774167 0.00118944 0)
  (0.0714146 0.00356101 0)
  (0.0613373 0.00634746 0)
  (0.0502738 0.00904588 0)
  (-0.00724556 0.025028 0)
  (0.272501 0.164664 0)
  (-0.162513 0.0428795 0)
  (-0.13518 0.0449487 0)
  (-0.167087 0.0406969 0)
  (-0.191823 0.0354348 0)
  (-0.212401 0.0294812 0)
  (-0.228443 0.0225776 0)
  (-0.239373 0.0143494 0)
  (-0.244315 0.00439521 0)
  (-0.241947 -0.00763901 0)
  (-0.231838 -0.0211324 0)
  (-0.213146 -0.0358233 0)
  (-0.187212 -0.0530244 0)
  (-0.16083 -0.0752516 0)
  (-0.14081 -0.0950135 0)
  (-0.107045 -0.0778977 0)
  (-0.0643593 -0.0682293 0)
  (0.0785916 -0.0625535 0)
  (0.0346321 -0.0305991 0)
  (0.0440977 -0.013779 0)
  (0.0556172 -0.00771611 0)
  (0.0626326 -0.00523473 0)
  (0.0671542 -0.00268082 0)
  (0.0700778 0.00135821 0)
  (0.0706585 0.00351906 0)
  (0.0705596 0.00418697 0)
  (0.0706541 0.00429677 0)
  (0.0709078 0.00429332 0)
  (0.0711416 0.00434013 0)
  (0.0712896 0.00461251 0)
  (0.0712909 0.00548797 0)
  (0.0705731 0.00791511 0)
  (0.0665631 0.0146014 0)
  (0.0562058 0.0206799 0)
  (0.0500808 0.0251334 0)
  (-0.050011 0.0522823 0)
  (0.452241 0.250131 0)
  (-0.203323 0.076287 0)
  (-0.104322 0.0753955 0)
  (-0.140682 0.064689 0)
  (-0.162677 0.0545792 0)
  (-0.181431 0.0436428 0)
  (-0.196436 0.0311776 0)
  (-0.207166 0.0167034 0)
  (-0.212656 -4.22424e-05 0)
  (-0.211363 -0.0188484 0)
  (-0.203028 -0.0394065 0)
  (-0.188108 -0.0606079 0)
  (-0.16878 -0.0818665 0)
  (-0.148627 -0.102136 0)
  (-0.127089 -0.114839 0)
  (-0.0988296 -0.111575 0)
  (-0.0831303 -0.117738 0)
  (0.0521526 -0.0763543 0)
  (0.0102973 -0.0405731 0)
  (0.0224349 -0.0239053 0)
  (0.0339835 -0.0176855 0)
  (0.0427041 -0.014163 0)
  (0.0492461 -0.0110791 0)
  (0.0536684 -0.00786142 0)
  (0.0532368 -0.00545525 0)
  (0.0527708 -0.00431557 0)
  (0.0535449 -0.00376834 0)
  (0.0549037 -0.00342746 0)
  (0.0563758 -0.00313506 0)
  (0.0580172 -0.00272613 0)
  (0.0604089 -0.0018197 0)
  (0.0649894 0.00163927 0)
  (0.0642803 0.0199989 0)
  (0.0513264 0.0331637 0)
  (0.0552815 0.0419587 0)
  (-0.0888066 0.0797031 0)
  (0.606266 0.320887 0)
  (-0.256409 0.110956 0)
  (-0.0677621 0.102415 0)
  (-0.1105 0.0862585 0)
  (-0.127009 0.0736217 0)
  (-0.142208 0.0601666 0)
  (-0.155084 0.0446684 0)
  (-0.165049 0.0262977 0)
  (-0.170881 0.00442423 0)
  (-0.170417 -0.0208773 0)
  (-0.163443 -0.0480511 0)
  (-0.151671 -0.0746697 0)
  (-0.137569 -0.098773 0)
  (-0.123697 -0.118414 0)
  (-0.110533 -0.130283 0)
  (-0.0992499 -0.132598 0)
  (-0.0931812 -0.119136 0)
  (-0.0668657 -0.0495517 0)
  (-0.00283546 -0.0795894 0)
  (-0.00124929 -0.0535491 0)
  (0.00992638 -0.0360183 0)
  (0.0199505 -0.0275191 0)
  (0.0283035 -0.0220149 0)
  (0.035016 -0.0166192 0)
  (0.0438536 -0.0129638 0)
  (0.0564717 -0.0113998 0)
  (0.0678793 -0.0100973 0)
  (0.0773608 -0.00868389 0)
  (0.0845652 -0.00684632 0)
  (0.0886749 -0.0044471 0)
  (0.0882276 -0.00143018 0)
  (0.0820513 0.00245609 0)
  (0.0680269 0.00783403 0)
  (0.054254 0.0298382 0)
  (0.0410108 0.0483828 0)
  (0.0605347 0.0624468 0)
  (-0.13084 0.102911 0)
  (0.733442 0.378259 0)
  (-0.308784 0.144376 0)
  (-0.0285111 0.119592 0)
  (-0.0777764 0.100931 0)
  (-0.08744 0.087334 0)
  (-0.0975898 0.072397 0)
  (-0.106737 0.0547165 0)
  (-0.114433 0.0332531 0)
  (-0.119401 0.00709456 0)
  (-0.118377 -0.0236833 0)
  (-0.111502 -0.0562335 0)
  (-0.101901 -0.0861355 0)
  (-0.0917803 -0.110799 0)
  (-0.082888 -0.129156 0)
  (-0.0756541 -0.140715 0)
  (-0.0696663 -0.1457 0)
  (-0.059663 -0.139722 0)
  (-0.0384278 -0.109989 0)
  (-0.0137021 -0.0913748 0)
  (-0.006113 -0.0639664 0)
  (0.00196982 -0.0460315 0)
  (0.00961392 -0.0361305 0)
  (0.0167621 -0.0297956 0)
  (0.0240092 -0.024515 0)
  (0.0328082 -0.0196255 0)
  (0.0428204 -0.0167239 0)
  (0.0522729 -0.0146006 0)
  (0.0607248 -0.0120037 0)
  (0.0678018 -0.0080477 0)
  (0.072751 -0.00217674 0)
  (0.0743523 0.00523679 0)
  (0.0714606 0.0136471 0)
  (0.0641669 0.0236135 0)
  (0.0549345 0.0406881 0)
  (0.0417078 0.0610482 0)
  (0.0686057 0.0831484 0)
  (-0.0359465 0.117244 0)
  (0.041929 0.0211169 0)
  (-0.0749907 -0.0421236 0)
  (-0.284381 -0.0651615 0)
  (0.820926 0.42869 0)
  (-0.353117 0.172222 0)
  (0.00368438 0.120168 0)
  (-0.0418573 0.108929 0)
  (-0.04542 0.0957225 0)
  (-0.0503969 0.0798024 0)
  (-0.0546908 0.0610861 0)
  (-0.0584549 0.0382324 0)
  (-0.0609217 0.00944245 0)
  (-0.0558529 -0.0265231 0)
  (-0.0481776 -0.0637862 0)
  (-0.041257 -0.0950384 0)
  (-0.0359477 -0.118555 0)
  (-0.0329762 -0.134754 0)
  (-0.0322183 -0.144633 0)
  (-0.0328057 -0.148976 0)
  (-0.0295923 -0.14602 0)
  (-0.0204184 -0.129572 0)
  (-0.0102426 -0.0994566 0)
  (-0.00714029 -0.0690983 0)
  (-0.00362225 -0.0518012 0)
  (0.000164469 -0.0419145 0)
  (0.00458298 -0.0357882 0)
  (0.00975887 -0.0312992 0)
  (0.0160642 -0.027749 0)
  (0.0231455 -0.0254944 0)
  (0.0304158 -0.0234503 0)
  (0.0375518 -0.0204791 0)
  (0.0443791 -0.0155072 0)
  (0.0504645 -0.00756387 0)
  (0.0555473 0.0034205 0)
  (0.0568353 0.015659 0)
  (0.0555095 0.028786 0)
  (0.0540719 0.0450819 0)
  (0.0497372 0.0648974 0)
  (0.0770585 0.0903523 0)
  (0.0461632 0.111838 0)
  (0.094976 0.0718796 0)
  (0.121589 0.0450597 0)
  (-0.146134 -0.0166118 0)
  (0.844959 0.473849 0)
  (-0.374164 0.164399 0)
  (0.0234162 0.0776247 0)
  (0.00815095 0.108731 0)
  (0.00488637 0.105955 0)
  (0.00133999 0.0853903 0)
  (0.00113386 0.063024 0)
  (0.00219103 0.0389687 0)
  (0.00322596 0.00711366 0)
  (0.0192106 -0.0351363 0)
  (0.0263416 -0.0718106 0)
  (0.0283777 -0.0999335 0)
  (0.0267167 -0.119927 0)
  (0.0218278 -0.133123 0)
  (0.0145688 -0.141083 0)
  (0.00575051 -0.145379 0)
  (3.90544e-05 -0.146799 0)
  (-0.00235228 -0.136212 0)
  (-0.00244321 -0.101165 0)
  (-0.00693566 -0.0683065 0)
  (-0.00870262 -0.0521026 0)
  (-0.00970728 -0.0434991 0)
  (-0.00937495 -0.03843 0)
  (-0.00792504 -0.0351084 0)
  (-0.00540076 -0.032842 0)
  (-0.0020554 -0.0313088 0)
  (0.00203719 -0.0296815 0)
  (0.00652702 -0.0271008 0)
  (0.0116286 -0.0224654 0)
  (0.0174634 -0.0144312 0)
  (0.0252188 -0.00175003 0)
  (0.0330714 0.0129683 0)
  (0.038242 0.0271073 0)
  (0.0446932 0.0419694 0)
  (0.0507309 0.0581852 0)
  (0.0767088 0.0791752 0)
  (0.0870855 0.0881 0)
  (0.124323 0.0568169 0)
  (0.167675 0.0425593 0)
  (-0.0356621 0.0944976 0)
  (0.94249 0.49029 0)
  (-0.131333 0.14672 0)
  (0.0853328 0.00775339 0)
  (0.125104 0.045034 0)
  (0.103337 0.0719977 0)
  (0.0861331 0.0621455 0)
  (0.0829507 0.0396845 0)
  (0.085954 0.0136527 0)
  (0.0969037 -0.0189849 0)
  (0.110123 -0.04923 0)
  (0.111623 -0.0754808 0)
  (0.10486 -0.0963735 0)
  (0.0928512 -0.1116 0)
  (0.0773238 -0.121804 0)
  (0.0598274 -0.128279 0)
  (0.0414019 -0.132893 0)
  (0.026686 -0.137641 0)
  (0.0139975 -0.131466 0)
  (0.00568331 -0.0957372 0)
  (-0.00791178 -0.0613509 0)
  (-0.0152685 -0.0476192 0)
  (-0.0211305 -0.0408994 0)
  (-0.0252295 -0.0371502 0)
  (-0.0281052 -0.0349369 0)
  (-0.0300449 -0.0336357 0)
  (-0.0313011 -0.0327956 0)
  (-0.0320014 -0.0318432 0)
  (-0.0321149 -0.0301591 0)
  (-0.0313835 -0.0270955 0)
  (-0.0292885 -0.0219598 0)
  (-0.0243444 -0.0140321 0)
  (-0.0107374 -0.00249263 0)
  (-3.35892e-06 0.0106969 0)
  (0.0120974 0.0215495 0)
  (0.0239882 0.0297256 0)
  (0.0474896 0.0393026 0)
  (0.0679227 0.0321462 0)
  (0.0892416 -0.00385815 0)
  (0.152103 0.0403587 0)
  (-0.45078 0.218117 0)
  (1.06989 0.45176 0)
  (0.518068 0.301805 0)
  (0.519411 0.233542 0)
  (0.48846 0.195612 0)
  (0.405188 0.169553 0)
  (0.332748 0.131746 0)
  (0.291063 0.0895063 0)
  (0.269233 0.0493747 0)
  (0.255235 0.0119494 0)
  (0.233761 -0.0232679 0)
  (0.208834 -0.0524487 0)
  (0.182034 -0.0741059 0)
  (0.153944 -0.0888886 0)
  (0.12505 -0.0984228 0)
  (0.096081 -0.104713 0)
  (0.0675465 -0.110333 0)
  (0.0452016 -0.118548 0)
  (0.0239506 -0.116636 0)
  (0.0105655 -0.0800705 0)
  (-0.011548 -0.0487412 0)
  (-0.0241675 -0.0393369 0)
  (-0.0341692 -0.0352466 0)
  (-0.0422961 -0.0329487 0)
  (-0.0494492 -0.0315729 0)
  (-0.0560758 -0.030723 0)
  (-0.0625058 -0.0300177 0)
  (-0.0689813 -0.0289656 0)
  (-0.0756847 -0.0269752 0)
  (-0.0828209 -0.0233605 0)
  (-0.090713 -0.017384 0)
  (-0.0997273 -0.00836185 0)
  (-0.109888 0.00402833 0)
  (-0.11859 0.0186127 0)
  (-0.133435 0.0351682 0)
  (-0.159069 0.0537614 0)
  (-0.197368 0.0729004 0)
  (-0.252954 0.08733 0)
  (-0.317271 0.0943354 0)
  (-0.389479 0.0950295 0)
  (-0.657914 0.0896843 0)
  (-0.240204 0.101198 0)
  (0.175059 0.174049 0)
  (0.265231 0.168407 0)
  (0.262446 0.137516 0)
  (0.263314 0.0975577 0)
  (0.265489 0.0567763 0)
  (0.262169 0.0205278 0)
  (0.250929 -0.00901806 0)
  (0.231294 -0.0312255 0)
  (0.205845 -0.0471018 0)
  (0.17644 -0.0579105 0)
  (0.144607 -0.0649673 0)
  (0.111527 -0.0698427 0)
  (0.0779017 -0.0752524 0)
  (0.0518086 -0.0869999 0)
  (0.0203395 -0.090382 0)
  (0.00504467 -0.0488117 0)
  (-0.0202187 -0.0273869 0)
  (-0.0360632 -0.024171 0)
  (-0.0478824 -0.0235326 0)
  (-0.058134 -0.02334 0)
  (-0.0679248 -0.0232978 0)
  (-0.0776075 -0.0232351 0)
  (-0.0874171 -0.0229074 0)
  (-0.0974624 -0.0219414 0)
  (-0.107666 -0.0198165 0)
  (-0.117729 -0.0158801 0)
  (-0.12708 -0.00942032 0)
  (-0.134778 0.000217152 0)
  (-0.139585 0.0132259 0)
  (-0.142241 0.0298118 0)
  (-0.144161 0.0501614 0)
  (-0.14683 0.0731153 0)
  (-0.151039 0.0942967 0)
  (-0.153637 0.102069 0)
  (-0.135687 0.0738198 0)
  (-0.0838764 -0.0316531 0)
  (-0.291237 -0.223852 0)
  (-0.121384 0.253846 0)
  (0.0898052 0.182726 0)
  (0.107576 0.134634 0)
  (0.139555 0.110267 0)
  (0.173721 0.0811277 0)
  (0.199183 0.0515739 0)
  (0.211452 0.02787 0)
  (0.211221 0.0118882 0)
  (0.201588 0.000107635 0)
  (0.184596 -0.00893622 0)
  (0.162361 -0.0157877 0)
  (0.136374 -0.0209136 0)
  (0.107556 -0.0253904 0)
  (0.0761071 -0.0332131 0)
  (0.0495519 -0.0567549 0)
  (-0.00340698 -0.0677529 0)
  (-0.0236568 0.00717845 0)
  (-0.0406407 0.0281922 0)
  (-0.053741 0.0245009 0)
  (-0.0634809 0.0224753 0)
  (-0.0724298 0.0217265 0)
  (-0.0811218 0.0207303 0)
  (-0.0896167 0.019501 0)
  (-0.0979253 0.018306 0)
  (-0.105961 0.0173582 0)
  (-0.113504 0.0168187 0)
  (-0.120198 0.0168154 0)
  (-0.125501 0.0174539 0)
  (-0.12842 0.0187967 0)
  (-0.127433 0.0233835 0)
  (-0.120779 0.0328139 0)
  (-0.107461 0.0477737 0)
  (-0.087981 0.067722 0)
  (-0.0639939 0.0878276 0)
  (-0.0387371 0.0993598 0)
  (0.00471858 0.0812096 0)
  (0.146658 0.0040216 0)
  (-0.209967 -0.136624 0)
  (-0.153275 -0.366464 0)
  (-0.44508 -0.100075 0)
  (-0.323522 0.153961 0)
  (-0.169855 0.0611145 0)
  (-0.0827851 0.0363082 0)
  (0.0197025 0.0335257 0)
  (0.0845658 0.0129673 0)
  (0.131356 -0.00799115 0)
  (0.159783 -0.0266767 0)
  (0.170939 -0.0431849 0)
  (0.169437 -0.056402 0)
  (0.158672 -0.0672739 0)
  (0.141513 -0.0771556 0)
  (0.120115 -0.0872145 0)
  (0.0957727 -0.0989316 0)
  (0.0683821 -0.115251 0)
  (0.0426441 -0.141973 0)
  (-0.0447847 -0.148635 0)
  (-0.0632156 -0.136742 0)
  (-0.0674462 -0.131033 0)
  (-0.0731594 -0.126828 0)
  (-0.0806493 -0.121416 0)
  (-0.0882511 -0.115126 0)
  (-0.0955925 -0.108442 0)
  (-0.102665 -0.101583 0)
  (-0.109403 -0.0946065 0)
  (-0.1156 -0.0874437 0)
  (-0.12088 -0.0798953 0)
  (-0.124679 -0.071617 0)
  (-0.126218 -0.0620812 0)
  (-0.124384 -0.0505377 0)
  (-0.11716 -0.0381517 0)
  (-0.101509 -0.0243389 0)
  (-0.0751858 -0.00812582 0)
  (-0.0392978 0.0113056 0)
  (0.0192614 0.0357807 0)
  (0.0718107 0.0374037 0)
  (0.121284 0.0153503 0)
  (0.176656 -0.0255547 0)
  (-0.183354 -0.0938456 0)
)
;

boundaryField
{
  floor
  {
    type noSlip;
  }
  ceiling
  {
    type noSlip;
  }
  sWall
  {
    type noSlip;
  }
  nWall
  {
    type noSlip;
  }
  sideWalls
  {
    type empty;
  }
  glass1
  {
    type noSlip;
  }
  glass2
  {
    type noSlip;
  }
  sun
  {
    type noSlip;
  }
  heatsource1
  {
    type noSlip;
  }
  heatsource2
  {
    type noSlip;
  }
  Table_master
  {
    type noSlip;
  }
  Table_slave
  {
    type noSlip;
  }
  inlet
  {
    type fixedValue;
    value uniform (0.277164 -0.114805 0);
  }
  outlet
  {
    type zeroGradient;
  }
} 	// ************************************************************************* //

