/*--------------------------------*- C++ -*----------------------------------*\
  =========                 |
  \\      /  F ield         | OpenFOAM: The Open Source CFD Toolbox
   \\    /   O peration     | Website:  https://openfoam.org
    \\  /    A nd           | Version:  6
     \\/     M anipulation  |
\*---------------------------------------------------------------------------*/
FoamFile
{
    version     2.0;
    format      ascii;
    class       volScalarField;
    location    "100";
    object      alphat;
}
// * * * * * * * * * * * * * * * * * * * * * * * * * * * * * * * * * * * * * //

dimensions      [1 -1 -1 0 0 0 0];

internalField   nonuniform List<scalar> 
459
(
0.00192723
0.00233963
0.00235514
0.00211601
0.00188174
0.00164812
0.00106793
0.000734771
0.000677129
0.000619719
0.000574626
0.000541052
0.000511281
0.000487129
0.000510464
0.000563664
0.000698799
0.000698608
0.00068947
0.000678599
0.000647616
0.000597264
0.000554345
0.00051642
0.000483005
0.000453928
0.000429051
0.000407997
0.000390101
0.000374615
0.00036116
0.000353817
0.00038282
0.000349979
0.00212326
0.00344274
0.0039475
0.00413678
0.00389988
0.00335253
0.00272296
0.00205833
0.00180124
0.00191307
0.0018883
0.00173391
0.00159222
0.00142642
0.00116688
0.000547347
0.000447173
0.000645578
0.00238563
0.0024819
0.00233755
0.00197447
0.00162534
0.00138904
0.00122021
0.00110357
0.0010168
0.000954219
0.000908978
0.000873538
0.000838269
0.000802992
0.00077723
0.000785741
0.00116525
0.000497701
0.00352159
0.00441288
0.00451483
0.00447915
0.00435771
0.00402302
0.00349356
0.00296666
0.00272593
0.00238572
0.00230269
0.00203145
0.00178784
0.00154628
0.00126476
0.000978289
0.000590048
0.000925983
0.00306293
0.00283293
0.00227532
0.00169336
0.00122633
0.000530198
0.000460103
0.000431862
0.000406808
0.000385108
0.000365167
0.000346923
0.000331392
0.000326932
0.000610617
0.000841197
0.00190485
0.000641514
0.00385968
0.00561867
0.00538732
0.00496635
0.00463562
0.00429377
0.00384859
0.00349743
0.00340479
0.00294593
0.00282114
0.00247164
0.00211173
0.00175723
0.00141492
0.00115273
0.00102211
0.00103308
0.00210024
0.0025913
0.00230498
0.00180496
0.00139449
0.00104836
0.000783814
0.000805157
0.000830961
0.000856099
0.000865489
0.000867961
0.00085878
0.000829436
0.000779627
0.000848803
0.000992077
0.00185673
0.000793417
0.00408023
0.00658049
0.00609773
0.00515586
0.00466267
0.00430214
0.00395369
0.00382824
0.00376992
0.00351392
0.00371214
0.00360185
0.00339135
0.00314787
0.0028646
0.00258541
0.00238624
0.00229234
0.00224848
0.00245986
0.00237757
0.00225429
0.00222782
0.00229518
0.00244474
0.00265936
0.00289035
0.00312923
0.0032872
0.00331736
0.00327159
0.0031373
0.0028766
0.00244703
0.00199729
0.00169312
0.00147862
0.00085768
0.000917162
0.00105451
0.00428053
0.00655297
0.0061049
0.00508294
0.00448489
0.00417311
0.00398592
0.00401028
0.00391886
0.00391395
0.00449182
0.00461792
0.00457838
0.00446746
0.00426222
0.00395738
0.00358238
0.00319623
0.00284779
0.00263286
0.0024326
0.00231368
0.00226748
0.00228747
0.00238367
0.0025523
0.00278508
0.00306193
0.00332242
0.00347205
0.00352563
0.00351274
0.00342368
0.00315629
0.00275567
0.00209878
0.00179053
0.00144485
0.00181261
0.00113916
0.00451904
0.00563372
0.00458479
0.00481526
0.00428765
0.0040694
0.00400893
0.00408194
0.00399465
0.00429695
0.00505771
0.00535157
0.00544568
0.00545015
0.00534611
0.00511311
0.004747
0.00427172
0.00373955
0.0032301
0.00282053
0.00252872
0.00231862
0.00217825
0.00213108
0.00219968
0.0023961
0.00269557
0.00302389
0.00326885
0.00342822
0.00354243
0.00362816
0.003616
0.003334
0.00287004
0.00251025
0.002346
0.00228746
0.00137731
0.00485261
0.00515192
0.00364185
0.00411058
0.00415614
0.00407132
0.00405793
0.00411054
0.00408829
0.00463563
0.00543995
0.0058304
0.00600667
0.00608315
0.00605917
0.00591797
0.005645
0.00524014
0.00472853
0.00416582
0.00362129
0.00313593
0.00270958
0.00234474
0.0020929
0.00199466
0.00210157
0.00240583
0.00282146
0.00316947
0.00338189
0.00355497
0.00377482
0.00409126
0.00433729
0.0042999
0.00460982
0.00498263
0.00543461
0.00189276
0.00543352
0.00639226
0.00819558
0.00344702
0.00395135
0.00432865
0.00423814
0.00423611
0.00425342
0.00476252
0.00550206
0.00594274
0.00612599
0.00621204
0.00621587
0.00613262
0.00594919
0.00565658
0.0052643
0.00480667
0.00432662
0.00384485
0.00334716
0.00280587
0.00232899
0.00197175
0.00187875
0.00211983
0.00261631
0.00311998
0.00334928
0.00340689
0.00339806
0.00336481
0.0033275
0.00327666
0.00313718
0.0028774
0.00261961
0.00173987
0.0144099
0.00742565
0.00288271
0.00474597
0.00471687
0.00462256
0.00445301
0.00460647
0.0050427
0.00540358
0.00559055
0.00566809
0.00567109
0.00561254
0.00549096
0.00529973
0.00503827
0.00471925
0.0043645
0.00399236
0.00360726
0.00319793
0.0027289
0.00215502
0.00170743
0.00173539
0.00220691
0.00293707
0.00337715
0.00353822
0.00359352
0.00360118
0.00353478
0.00338369
0.00313604
0.00279939
0.00240605
0.00142234
0.00648196
0.00397775
0.00405672
0.00502712
0.0049558
0.00462347
0.00427156
0.00413449
0.00417148
0.00425533
0.00430487
0.00432274
0.00431026
0.00426659
0.00418953
0.00407609
0.00392471
0.00373809
0.00352372
0.0032911
0.00304725
0.00279074
0.0024978
0.0021154
0.00161376
0.00127322
0.0015192
0.00220442
0.00281711
0.0031806
0.00338212
0.00358202
0.00371725
0.00374746
0.00362519
0.00346139
0.00300979
0.00144404
0.00313668
0.00383494
0.00481145
0.00217918
0.00180858
0.00187026
0.00177786
0.00166995
0.00157122
0.00149079
0.00142381
0.00136661
0.00131874
0.00127732
0.0012402
0.00120569
0.00117242
0.00113934
0.00110563
0.00107081
0.00103467
0.000997253
0.000958701
0.000919042
0.000877669
0.000832826
0.000782792
0.000735254
0.000745314
0.000872139
0.000948725
0.00102879
0.00114038
0.00126368
0.00140189
0.00152518
0.00156015
0.00150937
0.00140725
0.00129236
)
;

boundaryField
{
    floor
    {
        type            compressible::alphatWallFunction;
        Prt             0.85;
        value           nonuniform List<scalar> 
29
(
7.08205e-05
7.88877e-05
9.89929e-05
9.89897e-05
9.76591e-05
9.60647e-05
9.14876e-05
8.39801e-05
7.75213e-05
7.17622e-05
6.66436e-05
6.21524e-05
5.82803e-05
5.49804e-05
5.21577e-05
4.97011e-05
4.75547e-05
4.6371e-05
5.0949e-05
4.57395e-05
4.57389e-05
6.8831e-05
9.05038e-05
0.000112725
7.08196e-05
7.88867e-05
9.11347e-05
0.000131813
0.000146942
)
;
    }
    ceiling
    {
        type            compressible::alphatWallFunction;
        Prt             0.85;
        value           nonuniform List<scalar> 
43
(
0.000421571
0.000507364
0.000624745
0.000300441
0.00025218
0.000260295
0.000248146
0.000233857
0.000220689
0.000209895
0.000200857
0.0001931
0.000186579
0.000180916
0.000175823
0.00017107
0.000166475
0.000161889
0.000157201
0.00015234
0.000147277
0.000142012
0.000136565
0.000130933
0.000125027
0.000118586
0.000111352
0.000104443
0.000106013
0.000124317
0.00013518
0.000146469
0.000162033
0.000179024
0.00019784
0.000214474
0.000219159
0.00021235
0.000198572
0.00018294
0.000698384
0.000810101
0.000820404
)
;
    }
    sWall
    {
        type            compressible::alphatWallFunction;
        Prt             0.85;
        value           uniform 0.000420446;
    }
    nWall
    {
        type            compressible::alphatWallFunction;
        Prt             0.85;
        value           nonuniform List<scalar> 6(0.000149686 0.00016147 0.000194128 0.000200261 0.00020319 0.000182588);
    }
    sideWalls
    {
        type            empty;
    }
    glass1
    {
        type            compressible::alphatWallFunction;
        Prt             0.85;
        value           nonuniform List<scalar> 9(0.000263022 0.000288879 0.000462634 0.000503466 0.000529955 0.000553887 0.000582247 0.000621696 0.000689866);
    }
    glass2
    {
        type            compressible::alphatWallFunction;
        Prt             0.85;
        value           nonuniform List<scalar> 2(0.000261076 0.000241113);
    }
    sun
    {
        type            compressible::alphatWallFunction;
        Prt             0.85;
        value           nonuniform List<scalar> 
14
(
0.000267823
0.000321223
0.000323111
0.000292353
0.000261863
0.000231035
0.000152207
0.000104316
9.58139e-05
8.73033e-05
8.05458e-05
7.54713e-05
7.09421e-05
6.72483e-05
)
;
    }
    heatsource1
    {
        type            compressible::alphatWallFunction;
        Prt             0.85;
        value           nonuniform List<scalar> 3(0.000122164 0.000130696 0.00015007);
    }
    heatsource2
    {
        type            compressible::alphatWallFunction;
        Prt             0.85;
        value           nonuniform List<scalar> 4(7.65687e-05 6.12109e-05 6.12102e-05 8.30213e-05);
    }
    Table_master
    {
        type            compressible::alphatWallFunction;
        Prt             0.85;
        value           nonuniform List<scalar> 9(7.40025e-05 6.3242e-05 5.88462e-05 5.49214e-05 5.14951e-05 4.83243e-05 4.54036e-05 4.29006e-05 4.21741e-05);
    }
    Table_slave
    {
        type            compressible::alphatWallFunction;
        Prt             0.85;
        value           nonuniform List<scalar> 9(0.000111559 0.000114645 0.00011836 0.000121957 0.000123287 0.000123635 0.000122314 0.000118092 0.000110899);
    }
    inlet
    {
        type            fixedValue;
        value           uniform 1.94e-05;
    }
    outlet
    {
        type            zeroGradient;
    }
}


// ************************************************************************* //
