// -*- C++ -*-
// File generated by PyFoam - sorry for the ugliness

FoamFile
{
 version 2.0;
 format ascii;
 class volVectorField;
 location "100";
 object U;
}

dimensions [ 0 1 -1 0 0 0 0 ];

internalField nonuniform List<vector> 459
(
  (0.0159498 0.0198833 0)
  (-0.0393573 -0.111942 0)
  (0.0669912 -0.0837484 0)
  (0.0997663 -0.0264031 0)
  (0.10986 0.0153228 0)
  (0.0829578 0.0542459 0)
  (-0.0574383 0.0452164 0)
  (-0.102652 -0.00381018 0)
  (-0.0884198 -0.0183789 0)
  (-0.0681419 -0.0194122 0)
  (-0.0487654 -0.0162407 0)
  (-0.0312216 -0.0117959 0)
  (-0.0147679 -0.00735513 0)
  (-0.00538752 -0.00465451 0)
  (-0.0683912 -0.00684075 0)
  (0.02228 0.00850895 0)
  (-0.025162 -0.00744488 0)
  (-0.0129558 -0.0123075 0)
  (0.00505236 -0.014775 0)
  (0.0203132 -0.0158645 0)
  (0.032765 -0.0106623 0)
  (0.0404364 -0.00417647 0)
  (0.0371731 -0.0012188 0)
  (0.031392 0.000144325 0)
  (0.0268256 0.000640645 0)
  (0.0237644 0.000554377 0)
  (0.021857 0.000162211 0)
  (0.0208677 -0.00031747 0)
  (0.0206326 -0.000731624 0)
  (0.0208311 -0.000929142 0)
  (0.0214523 -0.00128144 0)
  (0.0230098 -0.00231303 0)
  (0.0338186 -0.00265963 0)
  (-0.0277374 0.0164494 0)
  (0.286817 0.21093 0)
  (0.183051 -0.109201 0)
  (0.206229 -0.0921682 0)
  (0.219783 -0.00499176 0)
  (0.1973 0.0659694 0)
  (0.146191 0.113463 0)
  (0.0605182 0.122415 0)
  (-0.024327 0.0598413 0)
  (-0.0620033 -0.0161855 0)
  (-0.0581562 -0.0274806 0)
  (-0.0516564 -0.0257193 0)
  (-0.0421206 -0.0215132 0)
  (-0.0302944 -0.0179954 0)
  (-0.0165756 -0.0157518 0)
  (-0.00828007 -0.0178306 0)
  (0.00905126 -0.0177152 0)
  (0.0168363 0.00187142 0)
  (0.103852 0.0219129 0)
  (-0.00546839 0.00633831 0)
  (-0.0141494 -0.00786926 0)
  (-0.0109658 -0.0165102 0)
  (-0.00456733 -0.0231404 0)
  (0.00246497 -0.017834 0)
  (0.0202152 0.00151493 0)
  (0.0165337 0.00484243 0)
  (0.0137003 0.00584899 0)
  (0.0131006 0.00549945 0)
  (0.0134584 0.00448506 0)
  (0.0139814 0.00335106 0)
  (0.014447 0.00234664 0)
  (0.0148263 0.00151542 0)
  (0.0147116 0.00109235 0)
  (0.0142627 -0.000263538 0)
  (0.0135002 -0.00349706 0)
  (0.0367676 -0.00452754 0)
  (-0.0895197 0.0338757 0)
  (0.653465 -0.237764 0)
  (0.308091 -0.239079 0)
  (0.30577 -0.134745 0)
  (0.308822 -0.0113494 0)
  (0.248468 0.0967465 0)
  (0.172569 0.169202 0)
  (0.0945424 0.189966 0)
  (0.017376 0.136552 0)
  (-0.0349035 0.0175718 0)
  (-0.0497096 -0.0227608 0)
  (-0.0571087 -0.0273714 0)
  (-0.0580474 -0.0267211 0)
  (-0.0548622 -0.0270912 0)
  (-0.0486897 -0.0288649 0)
  (-0.04164 -0.0304915 0)
  (-0.0338546 -0.0275612 0)
  (-0.0183643 -0.0192342 0)
  (0.0666376 0.0301987 0)
  (-0.0420985 0.0122376 0)
  (-0.0392804 -0.00179039 0)
  (-0.0407597 -0.0181762 0)
  (-0.0409304 -0.0319151 0)
  (-0.0430071 -0.0386797 0)
  (0.0137114 -0.00331585 0)
  (-0.00316675 -0.000986864 0)
  (-0.00280286 -0.000628722 0)
  (0.00051611 -0.00159551 0)
  (0.00366546 -0.00279162 0)
  (0.00563478 -0.00386085 0)
  (0.00637837 -0.00471847 0)
  (0.00612598 -0.00519769 0)
  (0.00339519 -0.00257777 0)
  (0.00997588 0.000810644 0)
  (0.00530966 -0.00240747 0)
  (0.0492345 -0.00536733 0)
  (-0.150131 0.0464279 0)
  (0.681608 -0.445749 0)
  (0.0980782 -0.2773 0)
  (0.17507 -0.086425 0)
  (0.199577 0.0654869 0)
  (0.161967 0.170471 0)
  (0.108448 0.237464 0)
  (0.0560245 0.25321 0)
  (0.00263115 0.187229 0)
  (-0.0340865 0.0503427 0)
  (-0.0517558 -0.00467728 0)
  (-0.0683201 -0.018086 0)
  (-0.0782567 -0.0217467 0)
  (-0.0845135 -0.0243151 0)
  (-0.088885 -0.0256386 0)
  (-0.0929646 -0.0226306 0)
  (-0.0979659 -0.00991761 0)
  (-0.103969 0.01762 0)
  (-0.102228 0.0596371 0)
  (-0.0700528 0.0307236 0)
  (-0.0833522 0.0171095 0)
  (-0.0763539 -0.000296975 0)
  (-0.0772737 -0.0176751 0)
  (-0.0831053 -0.0314435 0)
  (-0.0903542 -0.0370369 0)
  (-0.0820631 -0.0260021 0)
  (-0.0549262 -0.0253832 0)
  (-0.0276941 -0.027716 0)
  (0.00743239 -0.0266412 0)
  (0.0349244 -0.0230221 0)
  (0.0598918 -0.0196871 0)
  (0.0816639 -0.0157518 0)
  (0.097576 -0.0103131 0)
  (0.104793 -0.0039762 0)
  (0.0977361 0.00423236 0)
  (0.0748205 0.0152823 0)
  (0.0770797 0.0246027 0)
  (-0.172229 0.0564374 0)
  (0.692185 -0.556945 0)
  (-0.127621 -0.275503 0)
  (0.0735639 -0.0408502 0)
  (0.0937866 0.10037 0)
  (0.0607779 0.207942 0)
  (0.0264203 0.281346 0)
  (-0.00212976 0.292887 0)
  (-0.0282077 0.210431 0)
  (-0.0447566 0.0752568 0)
  (-0.0595083 0.0163072 0)
  (-0.0751546 -0.00415914 0)
  (-0.0864981 -0.0126961 0)
  (-0.0951985 -0.0186262 0)
  (-0.102646 -0.023378 0)
  (-0.109314 -0.0261193 0)
  (-0.114322 -0.0251964 0)
  (-0.11603 -0.0183204 0)
  (-0.114087 -0.00330944 0)
  (-0.104147 0.0132126 0)
  (-0.0955305 0.0113433 0)
  (-0.0872215 -0.00198972 0)
  (-0.0838537 -0.0164627 0)
  (-0.0840262 -0.0287661 0)
  (-0.0830584 -0.0352761 0)
  (-0.0744629 -0.0343253 0)
  (-0.05754 -0.0383671 0)
  (-0.0366919 -0.0436032 0)
  (-0.012852 -0.0455405 0)
  (0.0146396 -0.0413384 0)
  (0.0378781 -0.035901 0)
  (0.0589268 -0.0285988 0)
  (0.0764803 -0.0168839 0)
  (0.088418 -4.52794e-05 0)
  (0.0900736 0.0181134 0)
  (0.0791408 0.0367577 0)
  (0.086464 0.0559708 0)
  (-0.00431708 0.0706804 0)
  (0.0590413 0.0373144 0)
  (-0.0435879 -0.022302 0)
  (-0.289079 -0.0490324 0)
  (0.661605 -0.588464 0)
  (-0.248489 -0.281158 0)
  (0.0493593 -0.0389876 0)
  (0.00208955 0.121564 0)
  (-0.0290557 0.232575 0)
  (-0.0441174 0.301029 0)
  (-0.0500927 0.30365 0)
  (-0.0534867 0.215831 0)
  (-0.0550138 0.0894214 0)
  (-0.0621752 0.0308324 0)
  (-0.0713124 0.00828563 0)
  (-0.0790228 -0.00284635 0)
  (-0.0850043 -0.0097853 0)
  (-0.0904168 -0.0141987 0)
  (-0.0955338 -0.0158174 0)
  (-0.0997144 -0.01421 0)
  (-0.101489 -0.00980569 0)
  (-0.0996719 -0.00398664 0)
  (-0.0937819 0.00206709 0)
  (-0.0854295 0.000803855 0)
  (-0.0788779 -0.00788778 0)
  (-0.076276 -0.0192464 0)
  (-0.0760352 -0.0304757 0)
  (-0.0748931 -0.0393678 0)
  (-0.0694745 -0.0462443 0)
  (-0.0590596 -0.0546079 0)
  (-0.0447859 -0.0628156 0)
  (-0.02746 -0.067296 0)
  (-0.00735532 -0.0649619 0)
  (0.0130621 -0.0585217 0)
  (0.0313788 -0.0499693 0)
  (0.0491829 -0.035428 0)
  (0.0658999 -0.0121061 0)
  (0.0783218 0.016369 0)
  (0.0802346 0.0425235 0)
  (0.0925702 0.0668515 0)
  (0.0756392 0.0755186 0)
  (0.104366 0.0624306 0)
  (0.121042 0.0471202 0)
  (-0.111297 0.0105712 0)
  (0.556665 -0.555688 0)
  (-0.232564 -0.292519 0)
  (0.0105876 -0.0321533 0)
  (-0.0729745 0.157796 0)
  (-0.0966565 0.243015 0)
  (-0.0930926 0.298754 0)
  (-0.0800864 0.294003 0)
  (-0.0666109 0.20696 0)
  (-0.0574232 0.0924301 0)
  (-0.0573432 0.037013 0)
  (-0.0597522 0.0137499 0)
  (-0.0622597 0.00158929 0)
  (-0.0644925 -0.00633078 0)
  (-0.0666321 -0.0114209 0)
  (-0.0687988 -0.0137429 0)
  (-0.0704886 -0.0131806 0)
  (-0.0708043 -0.0102199 0)
  (-0.0688922 -0.00636268 0)
  (-0.0647389 -0.00368617 0)
  (-0.0599689 -0.00505244 0)
  (-0.0569529 -0.0108513 0)
  (-0.056788 -0.0196532 0)
  (-0.0587239 -0.0298688 0)
  (-0.0607088 -0.0404146 0)
  (-0.0605926 -0.0516243 0)
  (-0.057325 -0.0641616 0)
  (-0.0505144 -0.0761279 0)
  (-0.0401411 -0.0835862 0)
  (-0.0271864 -0.0826028 0)
  (-0.014661 -0.0762444 0)
  (-0.00316321 -0.0684314 0)
  (0.0098699 -0.0555193 0)
  (0.025556 -0.0332638 0)
  (0.0497172 0.00184218 0)
  (0.0642838 0.0332726 0)
  (0.0817066 0.0567051 0)
  (0.095037 0.0613515 0)
  (0.122056 0.0472826 0)
  (0.161729 0.0482366 0)
  (-0.034602 0.105468 0)
  (0.365668 -0.443337 0)
  (-0.273346 -0.245852 0)
  (-0.112154 -0.0477878 0)
  (-0.125632 0.193949 0)
  (-0.149735 0.237184 0)
  (-0.121486 0.277995 0)
  (-0.0903343 0.26931 0)
  (-0.0635926 0.188091 0)
  (-0.0458765 0.0866271 0)
  (-0.040164 0.0360452 0)
  (-0.0381746 0.0137986 0)
  (-0.0367938 0.00181852 0)
  (-0.0352804 -0.00583919 0)
  (-0.0347765 -0.0106467 0)
  (-0.0347752 -0.0129745 0)
  (-0.0347808 -0.0130454 0)
  (-0.0341181 -0.0113191 0)
  (-0.0322451 -0.00878457 0)
  (-0.0292571 -0.00698092 0)
  (-0.0262621 -0.00750465 0)
  (-0.0249242 -0.0109153 0)
  (-0.0263854 -0.0170522 0)
  (-0.0306702 -0.0255707 0)
  (-0.0367669 -0.0362949 0)
  (-0.0430953 -0.0494157 0)
  (-0.0482896 -0.0649808 0)
  (-0.0505712 -0.0805915 0)
  (-0.0486285 -0.0913249 0)
  (-0.0438346 -0.091101 0)
  (-0.0405845 -0.0824482 0)
  (-0.0417136 -0.0742114 0)
  (-0.042724 -0.0649673 0)
  (-0.0403685 -0.0519194 0)
  (-0.0299053 -0.0331126 0)
  (0.0083466 -0.00474015 0)
  (0.0243958 0.016243 0)
  (0.0381577 0.0132759 0)
  (0.0550529 -0.00269989 0)
  (0.124706 0.0582689 0)
  (-0.466807 0.231552 0)
  (0.0734746 -0.279291 0)
  (-0.554987 -0.180998 0)
  (-0.694647 -0.109661 0)
  (-0.162376 0.152731 0)
  (-0.198626 0.195832 0)
  (-0.128623 0.235932 0)
  (-0.0791295 0.231811 0)
  (-0.0399535 0.162729 0)
  (-0.0125724 0.0750627 0)
  (-0.0032427 0.0301364 0)
  (-0.000589528 0.00988027 0)
  (0.00238936 -0.00126717 0)
  (0.00503187 -0.00767493 0)
  (0.00634076 -0.011301 0)
  (0.00683773 -0.0129509 0)
  (0.00696441 -0.0130337 0)
  (0.00728757 -0.0119607 0)
  (0.00825668 -0.0103483 0)
  (0.00987922 -0.00905885 0)
  (0.011535 -0.00888805 0)
  (0.0121898 -0.0101701 0)
  (0.0108222 -0.0130387 0)
  (0.00662372 -0.0179145 0)
  (-0.00170094 -0.0263405 0)
  (-0.0133649 -0.0386839 0)
  (-0.0273307 -0.0555556 0)
  (-0.0402364 -0.074275 0)
  (-0.0478604 -0.0884292 0)
  (-0.0520429 -0.0884111 0)
  (-0.0585413 -0.0734843 0)
  (-0.0765612 -0.0591379 0)
  (-0.101986 -0.0444432 0)
  (-0.132583 -0.0251674 0)
  (-0.166469 0.000582788 0)
  (-0.198555 0.0303591 0)
  (-0.230566 0.056654 0)
  (-0.279998 0.0755601 0)
  (-0.334377 0.084984 0)
  (-0.399356 0.0858768 0)
  (-0.662372 0.0787342 0)
  (-1.70782 -0.136728 0)
  (-0.0347841 -0.0236808 0)
  (-0.187439 0.10289 0)
  (-0.100531 0.173263 0)
  (-0.0427611 0.182476 0)
  (0.0113822 0.124277 0)
  (0.045452 0.0598737 0)
  (0.0572386 0.0263726 0)
  (0.0596654 0.00891495 0)
  (0.0607016 -0.00142552 0)
  (0.0608379 -0.00761768 0)
  (0.0601374 -0.0108285 0)
  (0.0588036 -0.0120832 0)
  (0.0571747 -0.012092 0)
  (0.0556469 -0.0113557 0)
  (0.054521 -0.0103155 0)
  (0.0538408 -0.00941692 0)
  (0.0533125 -0.00903489 0)
  (0.0523965 -0.00935423 0)
  (0.0504833 -0.010417 0)
  (0.0469289 -0.0123082 0)
  (0.0406461 -0.0155977 0)
  (0.02994 -0.0216899 0)
  (0.0120848 -0.0342091 0)
  (-0.0120131 -0.0555576 0)
  (-0.0292146 -0.0746722 0)
  (-0.0425752 -0.0774751 0)
  (-0.0503194 -0.0534637 0)
  (-0.0666667 -0.0342112 0)
  (-0.0889143 -0.0201591 0)
  (-0.108539 -0.00368316 0)
  (-0.123824 0.018188 0)
  (-0.13762 0.0447332 0)
  (-0.147674 0.0705781 0)
  (-0.15248 0.0834056 0)
  (-0.133045 0.0621996 0)
  (-0.0707772 -0.0357938 0)
  (-0.287068 -0.230717 0)
  (-0.640911 0.0794514 0)
  (0.177205 -0.0888969 0)
  (-0.104547 0.00681858 0)
  (-0.0470391 0.0988021 0)
  (0.0223865 0.116547 0)
  (0.0815075 0.0733329 0)
  (0.11904 0.0323747 0)
  (0.134975 0.007059 0)
  (0.138948 -0.00824552 0)
  (0.137487 -0.0173815 0)
  (0.13359 -0.0218866 0)
  (0.128691 -0.0235257 0)
  (0.123455 -0.023464 0)
  (0.118335 -0.0224623 0)
  (0.113638 -0.020989 0)
  (0.109515 -0.0193455 0)
  (0.105936 -0.0177423 0)
  (0.102698 -0.0163117 0)
  (0.0994711 -0.0150949 0)
  (0.0958812 -0.0140677 0)
  (0.0915295 -0.0132137 0)
  (0.0858433 -0.0126722 0)
  (0.0778291 -0.0128679 0)
  (0.0653863 -0.0155625 0)
  (0.0451548 -0.0262267 0)
  (0.0186839 -0.0541768 0)
  (-0.0149399 -0.0751602 0)
  (-0.0357616 -0.0394204 0)
  (-0.0425666 -0.00144639 0)
  (-0.0530888 0.0141592 0)
  (-0.059047 0.0202945 0)
  (-0.0601709 0.0310415 0)
  (-0.0540101 0.0491949 0)
  (-0.0403613 0.0692489 0)
  (-0.0217114 0.0828122 0)
  (0.0162847 0.0701675 0)
  (0.14056 -0.00129849 0)
  (-0.20385 -0.142383 0)
  (0.160428 -0.155476 0)
  (-0.169588 -0.0249487 0)
  (-0.290119 0.167255 0)
  (0.134869 0.00276276 0)
  (-0.0743627 0.0612402 0)
  (-0.00387707 0.0960547 0)
  (0.0854271 0.0985784 0)
  (0.151118 0.0789513 0)
  (0.194139 0.0630467 0)
  (0.215037 0.0534507 0)
  (0.221768 0.0479348 0)
  (0.221161 0.0441879 0)
  (0.216698 0.0407073 0)
  (0.210496 0.0374472 0)
  (0.203451 0.0343865 0)
  (0.196133 0.0314626 0)
  (0.188948 0.0285987 0)
  (0.182123 0.0257082 0)
  (0.175713 0.02269 0)
  (0.16965 0.0194319 0)
  (0.163781 0.0158197 0)
  (0.157929 0.0117378 0)
  (0.151922 0.00705743 0)
  (0.145568 0.00161564 0)
  (0.138568 -0.00481482 0)
  (0.130267 -0.0128275 0)
  (0.119124 -0.0247588 0)
  (0.100761 -0.0512345 0)
  (0.0484756 -0.113174 0)
  (-0.0257794 -0.135146 0)
  (-0.0404593 -0.111103 0)
  (-0.0457989 -0.0913986 0)
  (-0.0400331 -0.0671862 0)
  (-0.0243639 -0.0430094 0)
  (0.00380236 -0.0149183 0)
  (0.0477141 0.00796691 0)
  (0.0901248 0.0126602 0)
  (0.132121 -0.0049664 0)
  (0.1782 -0.0426364 0)
  (-0.166564 -0.109317 0)
)
;

boundaryField
{
  floor
  {
    type noSlip;
  }
  ceiling
  {
    type noSlip;
  }
  sWall
  {
    type noSlip;
  }
  nWall
  {
    type noSlip;
  }
  sideWalls
  {
    type empty;
  }
  glass1
  {
    type noSlip;
  }
  glass2
  {
    type noSlip;
  }
  sun
  {
    type noSlip;
  }
  heatsource1
  {
    type noSlip;
  }
  heatsource2
  {
    type noSlip;
  }
  Table_master
  {
    type noSlip;
  }
  Table_slave
  {
    type noSlip;
  }
  inlet
  {
    type fixedValue;
    value uniform (0.1 0 0);
  }
  outlet
  {
    type zeroGradient;
  }
} 	// ************************************************************************* //

