// -*- C++ -*-
// File generated by PyFoam - sorry for the ugliness

FoamFile
{
 version 2.0;
 format ascii;
 class volVectorField;
 location "1300";
 object U;
}

dimensions [ 0 1 -1 0 0 0 0 ];

internalField nonuniform List<vector> 459
(
  (0.0541557 0.14984 0)
  (0.107038 -0.169976 0)
  (0.197975 -0.108532 0)
  (0.26951 -0.0530131 0)
  (0.289327 -0.017354 0)
  (0.260663 0.00779537 0)
  (0.200384 0.0298539 0)
  (0.123971 0.0543836 0)
  (0.000305538 0.0544396 0)
  (-0.0571918 -0.00451468 0)
  (-0.0292165 -0.0148175 0)
  (-0.0157361 -0.0140615 0)
  (-0.00212089 -0.0107809 0)
  (0.0166091 -0.00420043 0)
  (-0.0489557 0.00481612 0)
  (0.0300554 0.00605419 0)
  (-0.0170884 -0.00832662 0)
  (-0.000283719 -0.0120447 0)
  (0.012273 -0.00994162 0)
  (0.0187743 -0.00697382 0)
  (0.0212878 -0.00314637 0)
  (0.0171181 0.000581685 0)
  (0.00878054 0.00320417 0)
  (-0.000491524 0.00462335 0)
  (-0.00703219 0.00312608 0)
  (-0.00958476 0.00137001 0)
  (-0.0108504 0.000112214 0)
  (-0.0108984 -0.00101445 0)
  (-0.00921666 -0.00239527 0)
  (-0.00642111 -0.0046122 0)
  (0.00188296 -0.00976354 0)
  (0.0142051 -0.01874 0)
  (0.0307317 -0.0126996 0)
  (-0.0114389 0.0093829 0)
  (0.494564 -0.103181 0)
  (0.260396 -0.187557 0)
  (0.291816 -0.115454 0)
  (0.331911 -0.0261668 0)
  (0.3203 0.0371458 0)
  (0.270565 0.078191 0)
  (0.200499 0.106978 0)
  (0.125725 0.127648 0)
  (0.0366243 0.119357 0)
  (-0.0131625 0.0378919 0)
  (-0.0189457 -0.0139946 0)
  (-0.0177077 -0.01846 0)
  (-0.0127398 -0.0156361 0)
  (-0.00289887 -0.0088244 0)
  (-0.00213559 6.24982e-05 0)
  (0.0152741 -0.00398032 0)
  (0.0180122 0.00341766 0)
  (0.102721 0.00726054 0)
  (0.0108609 -0.00217249 0)
  (-0.00178537 -0.0077814 0)
  (-0.00143552 -0.0083127 0)
  (-0.00163558 -0.00556211 0)
  (0.00529848 0.00354434 0)
  (0.00657556 0.00987134 0)
  (0.00156655 0.00842781 0)
  (0.00114979 0.00761103 0)
  (0.00156424 0.00538985 0)
  (0.00230057 0.00348666 0)
  (0.0025465 0.0022704 0)
  (0.002665 0.000932945 0)
  (0.00304472 -0.00163607 0)
  (-0.0019283 -0.00472906 0)
  (0.0113562 -0.0129855 0)
  (0.0117763 -0.0185242 0)
  (0.021802 -0.00883492 0)
  (-0.0697728 0.0325481 0)
  (0.614181 -0.376805 0)
  (0.172347 -0.293732 0)
  (0.235329 -0.147898 0)
  (0.273849 -0.0314061 0)
  (0.248927 0.0587112 0)
  (0.200028 0.124484 0)
  (0.141299 0.169056 0)
  (0.0830333 0.192854 0)
  (0.0212757 0.171859 0)
  (-0.0102253 0.0666963 0)
  (-0.0156777 -0.00366113 0)
  (-0.0256983 -0.0165277 0)
  (-0.0291651 -0.018082 0)
  (-0.0272803 -0.0173045 0)
  (-0.0226221 -0.0168588 0)
  (-0.0158542 -0.0164887 0)
  (0.0070143 -0.00915743 0)
  (0.0682518 0.00491804 0)
  (-0.0339337 0.00363057 0)
  (-0.0311852 0.000554923 0)
  (-0.0349437 -0.00501157 0)
  (-0.0365874 -0.00765964 0)
  (-0.0317828 -0.0061217 0)
  (-0.000580919 0.00693111 0)
  (-0.00296785 0.00240627 0)
  (0.00315063 0.000920983 0)
  (0.00848605 -0.00150318 0)
  (0.0119911 -0.00374212 0)
  (0.0136502 -0.00542372 0)
  (0.0139577 -0.00697992 0)
  (0.0121677 -0.00846108 0)
  (-0.00476024 -0.00613735 0)
  (0.0258244 -0.00452571 0)
  (-0.00340088 0.0041158 0)
  (-0.046367 0.00971823 0)
  (-0.126625 0.0164816 0)
  (0.650873 -0.523461 0)
  (-0.0227214 -0.311068 0)
  (0.126388 -0.115972 0)
  (0.153788 0.0109601 0)
  (0.131789 0.101493 0)
  (0.0962449 0.172725 0)
  (0.0553938 0.221874 0)
  (0.0191984 0.242796 0)
  (-0.0156664 0.197983 0)
  (-0.024474 0.0765782 0)
  (-0.0311214 0.0123503 0)
  (-0.0449164 -0.00639033 0)
  (-0.0557309 -0.0111342 0)
  (-0.0626601 -0.0112276 0)
  (-0.0676406 -0.0068124 0)
  (-0.0717846 0.00463216 0)
  (-0.0746352 0.024983 0)
  (-0.0798943 0.0539419 0)
  (-0.0677778 0.0135998 0)
  (-0.0809299 0.00982448 0)
  (-0.0821918 0.00264883 0)
  (-0.0872118 -0.00430425 0)
  (-0.0927652 -0.00929973 0)
  (-0.0972587 -0.0118865 0)
  (-0.095713 -0.00977141 0)
  (-0.0867608 -0.0109583 0)
  (-0.0746969 -0.0141605 0)
  (-0.0581596 -0.0184034 0)
  (-0.0370207 -0.0235172 0)
  (-0.0118336 -0.0289551 0)
  (0.0227037 -0.0309206 0)
  (0.0505715 -0.0273034 0)
  (0.0755921 -0.0213899 0)
  (0.0887317 -0.00967268 0)
  (0.0828872 0.0113779 0)
  (0.0674994 0.0235812 0)
  (-0.0157475 0.0235988 0)
  (0.660072 -0.596813 0)
  (-0.187346 -0.314194 0)
  (0.0743896 -0.100343 0)
  (0.0544932 0.0182257 0)
  (0.021611 0.123602 0)
  (-0.00442534 0.208684 0)
  (-0.0275266 0.255473 0)
  (-0.0402967 0.263077 0)
  (-0.0477137 0.200511 0)
  (-0.0420025 0.082306 0)
  (-0.0478284 0.0260578 0)
  (-0.06048 0.00624524 0)
  (-0.0710185 -0.00322727 0)
  (-0.0793893 -0.00816114 0)
  (-0.0856315 -0.00989905 0)
  (-0.0890621 -0.00812005 0)
  (-0.0884779 -0.00213103 0)
  (-0.0875095 0.00546321 0)
  (-0.0854341 0.0104903 0)
  (-0.0847076 0.0116742 0)
  (-0.0832937 0.00704084 0)
  (-0.084032 0.001318 0)
  (-0.0854595 -0.00395708 0)
  (-0.0863312 -0.00748065 0)
  (-0.0844339 -0.00934896 0)
  (-0.0790461 -0.0134265 0)
  (-0.0705792 -0.0193044 0)
  (-0.0587327 -0.0267213 0)
  (-0.043576 -0.0349761 0)
  (-0.0258396 -0.0426082 0)
  (-0.005236 -0.0463455 0)
  (0.0173573 -0.0426981 0)
  (0.0382329 -0.031963 0)
  (0.0571287 -0.0121201 0)
  (0.0725556 0.0155578 0)
  (0.0802053 0.0359248 0)
  (0.0635307 0.0466903 0)
  (0.0842102 0.0473579 0)
  (0.0664973 0.0326529 0)
  (-0.340517 -0.0263445 0)
  (0.622008 -0.613335 0)
  (-0.250415 -0.322031 0)
  (0.0495533 -0.0861882 0)
  (-0.0455554 0.0620332 0)
  (-0.0716507 0.150406 0)
  (-0.0840927 0.223114 0)
  (-0.0885185 0.262859 0)
  (-0.0814962 0.258582 0)
  (-0.0687164 0.187233 0)
  (-0.0536264 0.0822501 0)
  (-0.0537985 0.0349367 0)
  (-0.058799 0.015872 0)
  (-0.0640989 0.00594471 0)
  (-0.0691075 0.000186399 0)
  (-0.0730265 -0.0021518 0)
  (-0.0752499 -0.00132649 0)
  (-0.0750754 0.00162408 0)
  (-0.0730499 0.00474436 0)
  (-0.0703798 0.00777795 0)
  (-0.0678567 0.00845942 0)
  (-0.0659034 0.00545063 0)
  (-0.0656723 0.000731211 0)
  (-0.0666603 -0.0042794 0)
  (-0.0677622 -0.00875083 0)
  (-0.0679085 -0.0131788 0)
  (-0.0664889 -0.0192397 0)
  (-0.0632825 -0.0273573 0)
  (-0.0580931 -0.0371869 0)
  (-0.0510756 -0.0475476 0)
  (-0.0427074 -0.0566179 0)
  (-0.0331508 -0.0619839 0)
  (-0.0220691 -0.061392 0)
  (-0.00912457 -0.0531941 0)
  (0.00795676 -0.0330048 0)
  (0.0339968 -0.00157526 0)
  (0.0595412 0.0259214 0)
  (0.0733135 0.0367957 0)
  (0.0966267 0.0423843 0)
  (0.1216 0.0604224 0)
  (-0.0635408 0.0666098 0)
  (0.512347 -0.574253 0)
  (-0.221116 -0.314637 0)
  (-0.0147529 -0.0635439 0)
  (-0.110126 0.104599 0)
  (-0.137848 0.165063 0)
  (-0.137317 0.221439 0)
  (-0.124837 0.251439 0)
  (-0.102481 0.237333 0)
  (-0.0766229 0.164158 0)
  (-0.0558911 0.0751682 0)
  (-0.0504515 0.0356348 0)
  (-0.0489634 0.0181729 0)
  (-0.0488158 0.00834419 0)
  (-0.0493832 0.00225864 0)
  (-0.0501404 -0.000874499 0)
  (-0.0503061 -0.00118706 0)
  (-0.0494273 0.000543517 0)
  (-0.0472486 0.00288439 0)
  (-0.0441702 0.00497391 0)
  (-0.0409823 0.00569732 0)
  (-0.0385372 0.00429759 0)
  (-0.0377328 0.00137151 0)
  (-0.0387836 -0.00243205 0)
  (-0.0408966 -0.00662762 0)
  (-0.0436572 -0.0116299 0)
  (-0.0467907 -0.0184531 0)
  (-0.050062 -0.0276325 0)
  (-0.0532901 -0.0387385 0)
  (-0.0565215 -0.0501964 0)
  (-0.0598152 -0.0601436 0)
  (-0.0628003 -0.0666799 0)
  (-0.0646026 -0.0680763 0)
  (-0.0640278 -0.0631239 0)
  (-0.0587294 -0.0509335 0)
  (-0.0441742 -0.0327925 0)
  (-0.0116885 -0.0140548 0)
  (0.0215115 -0.0168637 0)
  (0.0609691 -0.0264266 0)
  (0.120714 0.011932 0)
  (-0.0567956 0.121306 0)
  (0.326629 -0.455662 0)
  (-0.274417 -0.255853 0)
  (-0.145877 -0.0623063 0)
  (-0.154692 0.146552 0)
  (-0.189107 0.16531 0)
  (-0.166869 0.204315 0)
  (-0.137706 0.225299 0)
  (-0.10382 0.205373 0)
  (-0.070396 0.135857 0)
  (-0.0466481 0.062702 0)
  (-0.0374313 0.0301617 0)
  (-0.0318698 0.0152448 0)
  (-0.0279231 0.00676052 0)
  (-0.0250601 0.00139497 0)
  (-0.0228919 -0.00157514 0)
  (-0.021272 -0.0022851 0)
  (-0.0193918 -0.00137648 0)
  (-0.0171375 0.000234334 0)
  (-0.0141952 0.00179805 0)
  (-0.0109188 0.00266204 0)
  (-0.00809137 0.00243483 0)
  (-0.00642867 0.00127149 0)
  (-0.00646955 -0.000660008 0)
  (-0.0083012 -0.00321805 0)
  (-0.0119656 -0.00667754 0)
  (-0.0178845 -0.0118699 0)
  (-0.0263958 -0.0195592 0)
  (-0.0377839 -0.0295572 0)
  (-0.0517968 -0.0400525 0)
  (-0.0680941 -0.049261 0)
  (-0.0860856 -0.0557035 0)
  (-0.104779 -0.0579747 0)
  (-0.122663 -0.0547673 0)
  (-0.137756 -0.0445904 0)
  (-0.148163 -0.026558 0)
  (-0.153425 -0.00166101 0)
  (-0.155771 0.0275143 0)
  (-0.159788 0.0636892 0)
  (-0.208091 0.115652 0)
  (-0.503938 0.186784 0)
  (0.044586 -0.289147 0)
  (-0.56642 -0.193447 0)
  (-0.71774 -0.126807 0)
  (-0.186901 0.109848 0)
  (-0.235845 0.130832 0)
  (-0.173272 0.167707 0)
  (-0.127617 0.186618 0)
  (-0.085404 0.167067 0)
  (-0.0475777 0.105961 0)
  (-0.0222218 0.0477278 0)
  (-0.0119836 0.0216062 0)
  (-0.00534208 0.00959403 0)
  (0.000290772 0.00287228 0)
  (0.00515807 -0.00109442 0)
  (0.00816337 -0.00294503 0)
  (0.0104743 -0.00323151 0)
  (0.0126199 -0.00247598 0)
  (0.0149081 -0.00128259 0)
  (0.0173662 -0.000141845 0)
  (0.0198914 0.000636228 0)
  (0.0222395 0.000929234 0)
  (0.0240012 0.000833862 0)
  (0.024801 0.000429467 0)
  (0.0242569 -0.000255391 0)
  (0.0220801 -0.00127511 0)
  (0.0175527 -0.00294327 0)
  (0.00969172 -0.00598433 0)
  (-0.00448901 -0.0117029 0)
  (-0.0245638 -0.0185729 0)
  (-0.0496525 -0.0246711 0)
  (-0.0794477 -0.0285892 0)
  (-0.113599 -0.0293812 0)
  (-0.150732 -0.0269688 0)
  (-0.18848 -0.0219207 0)
  (-0.222938 -0.0156683 0)
  (-0.252193 -0.0126843 0)
  (-0.272803 -0.0207413 0)
  (-0.283219 -0.0483035 0)
  (-0.313021 -0.0972303 0)
  (-0.548332 -0.15511 0)
  (-1.749 -0.155728 0)
  (-0.0288041 -0.0644076 0)
  (-0.217364 0.0469879 0)
  (-0.141598 0.113782 0)
  (-0.0918335 0.139017 0)
  (-0.0456373 0.125539 0)
  (-0.00273909 0.074154 0)
  (0.0224547 0.0314128 0)
  (0.0307645 0.0133219 0)
  (0.0355875 0.00443937 0)
  (0.0403765 -0.00106622 0)
  (0.0430759 -0.0037452 0)
  (0.044676 -0.00452583 0)
  (0.0457461 -0.00415175 0)
  (0.0466755 -0.00309636 0)
  (0.0477395 -0.00174418 0)
  (0.0490209 -0.000417939 0)
  (0.0504464 0.000669787 0)
  (0.0518238 0.00147485 0)
  (0.0529478 0.00210104 0)
  (0.0536715 0.00265459 0)
  (0.0538554 0.00319001 0)
  (0.0533445 0.00375104 0)
  (0.0518898 0.00431752 0)
  (0.0490409 0.00483832 0)
  (0.0437746 0.0047627 0)
  (0.0351092 0.00370349 0)
  (0.0228453 0.00196582 0)
  (0.00788344 0.000547367 0)
  (-0.00807665 0.000950214 0)
  (-0.0206514 0.00370286 0)
  (-0.0301984 0.00908988 0)
  (-0.0394797 0.0181363 0)
  (-0.0487927 0.0312696 0)
  (-0.0521739 0.0436808 0)
  (-0.0344533 0.0388396 0)
  (0.106266 -0.0573079 0)
  (-0.176811 -0.20584 0)
  (-0.646907 0.0753239 0)
  (0.188365 -0.101692 0)
  (-0.11303 -0.0352387 0)
  (-0.0820819 0.0505632 0)
  (-0.0369774 0.0831999 0)
  (0.0189081 0.0681322 0)
  (0.0610923 0.0286818 0)
  (0.0836808 -0.00178424 0)
  (0.0912299 -0.0207306 0)
  (0.0933446 -0.0325098 0)
  (0.0925532 -0.0381269 0)
  (0.0904995 -0.0403328 0)
  (0.088023 -0.0407366 0)
  (0.0856344 -0.040262 0)
  (0.0836298 -0.0393926 0)
  (0.0821574 -0.0384065 0)
  (0.0812239 -0.0374819 0)
  (0.0807195 -0.0367161 0)
  (0.0804755 -0.0361228 0)
  (0.0803457 -0.0356545 0)
  (0.0802462 -0.0352575 0)
  (0.0801314 -0.0348904 0)
  (0.0799879 -0.0344341 0)
  (0.0798051 -0.0332814 0)
  (0.0795369 -0.0314986 0)
  (0.0790535 -0.0293233 0)
  (0.0780124 -0.0268941 0)
  (0.0760804 -0.024263 0)
  (0.0732079 -0.021574 0)
  (0.0697311 -0.0188497 0)
  (0.0665567 -0.0155072 0)
  (0.0647571 -0.0104617 0)
  (0.0656833 -0.00360595 0)
  (0.069921 0.00194449 0)
  (0.0786406 -0.0030767 0)
  (0.0934347 -0.0276731 0)
  (0.1298 -0.0716708 0)
  (-0.169848 -0.13536 0)
  (0.726795 0.144998 0)
  (0.018097 -0.28329 0)
  (-0.370539 0.15857 0)
  (0.153217 0.0236934 0)
  (-0.0766706 0.099243 0)
  (-0.0426062 0.106441 0)
  (0.0300772 0.116854 0)
  (0.0845992 0.107229 0)
  (0.125584 0.0985014 0)
  (0.147411 0.0964941 0)
  (0.154339 0.0991981 0)
  (0.153391 0.103124 0)
  (0.149022 0.105539 0)
  (0.143751 0.107025 0)
  (0.138297 0.108001 0)
  (0.132977 0.108655 0)
  (0.128042 0.10909 0)
  (0.123646 0.109388 0)
  (0.119838 0.109623 0)
  (0.116587 0.10986 0)
  (0.113822 0.110158 0)
  (0.11149 0.110565 0)
  (0.109583 0.111106 0)
  (0.108141 0.111781 0)
  (0.107252 0.112449 0)
  (0.107018 0.11233 0)
  (0.107737 0.111451 0)
  (0.109598 0.109729 0)
  (0.112634 0.106928 0)
  (0.116743 0.102746 0)
  (0.121724 0.097076 0)
  (0.127341 0.0901158 0)
  (0.13357 0.0822838 0)
  (0.140845 0.0740923 0)
  (0.149864 0.0662382 0)
  (0.160139 0.05908 0)
  (0.169503 0.0514681 0)
  (0.166547 0.0382265 0)
  (0.168019 0.0138447 0)
  (-0.14317 -0.032188 0)
)
;

boundaryField
{
  floor
  {
    type noSlip;
  }
  ceiling
  {
    type noSlip;
  }
  sWall
  {
    type noSlip;
  }
  nWall
  {
    type noSlip;
  }
  sideWalls
  {
    type empty;
  }
  glass1
  {
    type noSlip;
  }
  glass2
  {
    type noSlip;
  }
  sun
  {
    type noSlip;
  }
  heatsource1
  {
    type noSlip;
  }
  heatsource2
  {
    type noSlip;
  }
  Table_master
  {
    type noSlip;
  }
  Table_slave
  {
    type noSlip;
  }
  inlet
  {
    type fixedValue;
    value uniform (0.1 0 0);
  }
  outlet
  {
    type zeroGradient;
  }
} 	// ************************************************************************* //

