/*--------------------------------*- C++ -*----------------------------------*\
  =========                 |
  \\      /  F ield         | OpenFOAM: The Open Source CFD Toolbox
   \\    /   O peration     | Website:  https://openfoam.org
    \\  /    A nd           | Version:  6
     \\/     M anipulation  |
\*---------------------------------------------------------------------------*/
FoamFile
{
    version     2.0;
    format      ascii;
    class       surfaceScalarField;
    location    "400";
    object      phi;
}
// * * * * * * * * * * * * * * * * * * * * * * * * * * * * * * * * * * * * * //

dimensions      [1 0 -1 0 0 0 0];

internalField   nonuniform List<scalar> 
852
(
-0.00238028
0.00241833
-0.00304295
0.000662953
-0.00325574
0.000213083
-0.00335244
9.69841e-05
-0.00332324
-2.89105e-05
-0.0031692
-0.000153739
-0.00292247
-0.000246437
-0.00264192
-0.000280257
-0.00236407
-0.000277549
-0.00209395
-0.000269822
-0.00181815
-0.000275502
-0.00151225
-0.000305601
-0.0011425
-0.000369447
-0.000661463
-0.000480729
-0.000663895
0.000284753
-0.00028681
0.000389628
-0.000104643
0.000470157
-8.03155e-05
0.000508838
-3.84886e-05
0.000529845
-2.08352e-05
0.000581928
-5.19161e-05
0.000684138
-0.000102039
0.000781036
-9.67298e-05
0.000858796
-7.76005e-05
0.00092238
-6.34343e-05
0.000975199
-5.26769e-05
0.00101072
-3.53911e-05
0.00101704
-6.22946e-06
0.0009789
3.81333e-05
0.000888936
8.98503e-05
0.000711678
0.000177042
0.000392852
0.000318574
-5.67186e-05
0.00044945
-5.96766e-05
-0.00172961
0.00424737
-0.00233153
0.00126518
-0.00252569
0.000407556
-0.00277978
0.000351391
-0.00293687
0.000128477
-0.00291375
-0.000176549
-0.00273152
-0.000428368
-0.00251103
-0.000500439
-0.00230314
-0.000485128
-0.00211296
-0.000459701
-0.00193218
-0.000455975
-0.00174448
-0.000492986
-0.00152917
-0.000584441
-0.00126889
-0.000740693
-0.00098724
-0.000945217
4.03297e-05
-0.00102729
4.05334e-05
-0.000128012
-0.000165093
-0.000142604
-8.98028e-05
-0.000179653
-4.30399e-05
-0.000169519
-4.84204e-05
-0.000121243
-6.89381e-05
-0.000111395
-6.16121e-05
-6.32506e-05
-0.000150034
-4.99307e-05
-0.000109928
-5.96037e-05
-6.78355e-05
-8.59433e-05
-3.703e-05
-0.000129264
-9.315e-06
-0.00018183
1.71962e-05
-0.000226635
3.86e-05
-0.000251803
6.33092e-05
-0.000231496
6.95241e-05
-0.000135946
8.14446e-05
-5.20957e-05
0.000234634
4.19403e-05
0.000355348
-2.54639e-05
0.000395592
0.00400679
0.00017221
0.00148891
-0.000215084
0.00079522
-0.000986876
0.00112355
-0.00177829
0.000920227
-0.00224134
0.000286818
-0.00222877
-0.000440627
-0.00213545
-0.000593447
-0.00203063
-0.000589646
-0.00193373
-0.000556282
-0.00185413
-0.000535272
-0.00178985
-0.000556951
-0.00173363
-0.000640346
-0.00168629
-0.00078771
-0.00165551
-0.000975669
-0.00150528
-0.0011772
-0.00146442
-0.000834939
0.00065895
-0.00103052
0.000106046
-0.00106454
-8.78249e-06
-0.00103441
-7.83476e-05
-0.000956969
-0.000146196
-0.000782705
-0.00023572
-0.000932495
-0.0010422
-0.00110982
-0.00114665
-0.00115577
-0.00113836
-0.00109953
-0.00103596
-0.000966134
-0.000571462
-0.000313048
-0.000204324
-0.000132381
7.08746e-05
8.01685e-05
3.36921e-05
0.0059612
-0.00179841
0.00668544
0.000765367
0.00529931
0.00218196
0.0035318
0.00289157
0.00169155
0.0027609
-3.89017e-05
0.00201763
-0.00120324
0.000724031
-0.00152921
-0.000267162
-0.00159427
-0.000524277
-0.00160084
-0.000549401
-0.00161232
-0.000523475
-0.00165437
-0.000514593
-0.00173918
-0.000555217
-0.00187964
-0.000646939
-0.00208421
-0.000770776
-0.00236981
-0.000891286
-0.00296277
-0.000871154
-0.00270629
-0.000270327
-0.00208926
4.21925e-05
-0.00199568
1.27399e-05
-0.00199816
-6.01207e-06
-0.00202265
-5.35747e-05
-0.00206374
-0.000104814
-0.00217021
-0.000128959
-0.00208468
-8.53792e-05
-0.0020067
-7.78379e-05
-0.00192286
-8.37043e-05
-0.00183099
-9.17491e-05
-0.00172773
-0.000103141
-0.001608
-0.000119628
-0.00146432
-0.000143584
-0.00128288
-0.000181357
-0.00102756
-0.000255249
-0.000948033
-0.000392374
-0.000606848
-0.00047337
5.63002e-05
-0.000582781
7.27447e-05
0.00390662
-0.00561041
0.00567088
-0.000998453
0.00534271
0.00251055
0.00413334
0.00410133
0.00267403
0.00422058
0.00129467
0.00339732
-1.69989e-05
0.00203599
-0.000801122
0.000517268
-0.001065
-0.000260078
-0.00115714
-0.00045695
-0.0012186
-0.000461689
-0.00130046
-0.000432421
-0.00141949
-0.000435874
-0.00157972
-0.00048639
-0.00178197
-0.000568212
-0.00204062
-0.000632316
-0.00234464
-0.000566806
-0.00229743
-0.00031723
-0.00213698
-0.000117943
-0.00205497
-6.89715e-05
-0.002001
-5.96657e-05
-0.00197332
-8.09398e-05
-0.00196663
-0.00011119
-0.00196713
-0.00012814
-0.00192516
-0.000127036
-0.00187128
-0.000131416
-0.00181352
-0.000141165
-0.00175132
-0.000153653
-0.00168491
-0.00016926
-0.00161468
-0.000189583
-0.00154085
-0.000217142
-0.00146469
-0.000257254
-0.00140212
-0.000317571
-0.0014075
-0.000386743
-0.00145437
-0.000426262
-0.00167715
-0.000359756
-0.00145177
-0.000152372
-0.0013506
-0.000101101
-0.00115973
-0.000190805
-0.00117396
0.00218566
-0.00769278
0.00373609
-0.00254856
0.00379709
0.00244988
0.00304392
0.00485483
0.0021054
0.00515941
0.00123605
0.00426696
0.000494086
0.00277824
-0.000166172
0.00117782
-0.000525485
9.95511e-05
-0.000666079
-0.000316025
-0.000750322
-0.000377116
-0.000840012
-0.000342406
-0.000958501
-0.000317063
-0.00111259
-0.000331979
-0.00130259
-0.000377892
-0.00152022
-0.000414365
-0.00170845
-0.000378247
-0.00176178
-0.000263572
-0.00172353
-0.000155866
-0.00168229
-0.000109886
-0.00164564
-9.59946e-05
-0.00162103
-0.000105219
-0.00160749
-0.000124411
-0.00159431
-0.000140989
-0.00156908
-0.000151942
-0.00153566
-0.000164517
-0.00149727
-0.000179246
-0.00145477
-0.000195843
-0.00140898
-0.000214748
-0.00136129
-0.000236974
-0.00131405
-0.000264088
-0.00127245
-0.000298578
-0.00124836
-0.000341387
-0.00125292
-0.000381915
-0.00128676
-0.000392152
-0.00130795
-0.000338314
-0.00118228
-0.000277779
-0.00093677
-0.000346361
-0.000630365
-0.000496957
-0.00181921
0.000746764
-0.008325
0.00198069
-0.00378215
0.00223995
0.00219094
0.00148842
0.00560667
0.00097215
0.00567597
0.000663339
0.00457604
0.000497616
0.00294424
0.00027423
0.0014015
2.00754e-05
0.000354028
-0.000138389
-0.000157209
-0.000227687
-0.000287459
-0.000299594
-0.000270148
-0.000386538
-0.000229777
-0.000504518
-0.000213665
-0.000656373
-0.000225704
-0.000826351
-0.000244054
-0.00097039
-0.000233873
-0.00104694
-0.000186686
-0.00106423
-0.000138238
-0.00106065
-0.000113131
-0.00105019
-0.000106125
-0.00104149
-0.000113581
-0.00103655
-0.000129016
-0.00103135
-0.000145862
-0.00102127
-0.000161696
-0.00100671
-0.000178749
-0.0009883
-0.000197327
-0.000966251
-0.000217571
-0.000940713
-0.000239969
-0.00091205
-0.000265327
-0.000881057
-0.000294778
-0.00084959
-0.000329746
-0.000820281
-0.000370405
-0.000790796
-0.000411118
-0.000745756
-0.000436918
-0.000648395
-0.000435411
-0.00048735
-0.000438566
-0.000297785
-0.000535674
-1.28497e-05
-0.000781645
-0.0018479
-0.00138611
-0.0068153
-0.000360957
-0.00480696
0.000481597
0.0013487
-0.000453658
0.00654221
-0.000335173
0.00555776
2.32679e-05
0.00421788
0.000399699
0.00256808
0.000562529
0.00123897
0.000526648
0.000390247
0.000432543
-6.27222e-05
0.000368366
-0.000222879
0.000332082
-0.000233465
0.000295016
-0.000192327
0.000233319
-0.000151599
0.000137088
-0.000129115
1.65175e-05
-0.000123132
-9.72898e-05
-0.000119716
-0.000175566
-0.00010806
-0.000217746
-9.57102e-05
-0.000239119
-9.14112e-05
-0.000249863
-9.50357e-05
-0.00025733
-0.000105769
-0.000265028
-0.000120975
-0.000272789
-0.00013776
-0.000279093
-0.000155053
-0.000283898
-0.000173607
-0.000287136
-0.000193755
-0.000288541
-0.000215836
-0.000287761
-0.000240424
-0.000284401
-0.000268366
-0.000278018
-0.000300846
-0.00026803
-0.000339426
-0.000252526
-0.000385609
-0.000223777
-0.000439575
-0.000159897
-0.000500514
-1.87201e-05
-0.000576315
0.000241983
-0.000699007
0.000613598
-0.000907036
0.000937435
-0.00110524
-0.00101317
-0.00671832
-0.0115499
-0.00654998
-0.00365087
-0.00323998
0.00323249
-0.00156318
0.00388123
-0.000404353
0.00305933
0.00047211
0.00169192
0.000927814
0.000783598
0.00107368
0.000244767
0.00109917
-8.77679e-05
0.00110802
-0.000231265
0.00111993
-0.000244908
0.00112388
-0.000195831
0.00110649
-0.000133785
0.00105882
-8.10404e-05
0.000986538
-5.04624e-05
0.000907514
-4.03086e-05
0.000839817
-3.99866e-05
0.000788782
-4.43032e-05
0.000751709
-5.39708e-05
0.000723931
-6.68943e-05
0.000700726
-8.22048e-05
0.000678394
-9.82861e-05
0.000655039
-0.000114052
0.000630533
-0.000130198
0.000604852
-0.00014758
0.000578149
-0.000166711
0.00055072
-0.000188069
0.000522932
-0.000212303
0.000495223
-0.000240329
0.000468149
-0.000273449
0.000442536
-0.000313497
0.000420186
-0.000362951
0.000405992
-0.000425081
0.000410978
-0.000505211
0.00045091
-0.000615969
0.000544283
-0.000792114
0.000743942
-0.00110644
0.00114093
-0.00150199
8.9039e-06
-0.00739449
0.00239385
-0.00520511
0.00104343
-0.00221269
0.000889103
-3.62643e-05
0.000883223
0.00115341
0.000502611
0.00171888
0.000218551
0.00198714
-2.2988e-05
0.00210259
-0.000202689
0.0021366
-0.000264747
0.0021318
-0.000239587
0.00211257
-0.000176102
0.00208745
-0.000108193
0.00205335
-4.64817e-05
0.00201174
-8.41993e-06
0.0019654
6.4592e-06
0.00191853
7.29651e-06
0.00187442
2.09372e-07
0.00183358
-1.27357e-05
0.00179477
-2.76972e-05
0.0017565
-4.35543e-05
0.00171686
-5.82752e-05
0.00167435
-7.1171e-05
0.00162881
-8.42995e-05
0.00158015
-9.85718e-05
0.0015283
-0.000114503
0.00147315
-0.000132582
0.00141461
-0.000153422
0.00135249
-0.000177877
0.00128651
-0.000207139
0.00121617
-0.00024284
0.00114066
-0.000287121
0.00105852
-0.000342643
0.000966343
-0.000412738
0.000852818
-0.000502161
0.000679142
-0.000618167
0.000331927
-0.000758973
-0.000413457
-0.000756368
-0.000431627
-0.000307514
0.00266977
0.0014445
-0.000708174
0.00215767
0.000176344
0.00279915
0.000242206
0.00331385
-1.15572e-05
0.00363272
-9.97338e-05
0.00373794
-0.000127627
0.00365022
-0.000114391
0.00347489
-8.88558e-05
0.00329068
-5.48247e-05
0.00313789
-2.27748e-05
0.00302835
1.85514e-06
0.00296285
1.95163e-05
0.00292671
2.81954e-05
0.00290236
3.12672e-05
0.00288044
2.96485e-05
0.0028564
2.4679e-05
0.00282521
1.8879e-05
0.00278595
1.19604e-05
0.00273831
4.48744e-06
0.00268344
-3.01321e-06
0.00262322
-1.05775e-05
0.00255806
-1.87734e-05
0.00248758
-2.7722e-05
0.00241109
-3.76551e-05
0.00232773
-4.88774e-05
0.00223647
-6.18218e-05
0.00213602
-7.70844e-05
0.00202466
-9.54494e-05
0.00190006
-0.000117924
0.00175905
-0.00014579
0.00159738
-0.000180668
0.00140946
-0.000224514
0.00118757
-0.00027999
0.000925507
-0.000355826
0.000641538
-0.000474749
0.000323306
-0.0004379
-0.000135516
0.0042102
0.00375077
0.00636023
0.00558808
0.0056946
0.00586096
0.00576733
0.00558013
0.00536075
0.00515187
0.00496764
0.00481826
0.00470283
0.00461431
0.00454572
0.00448773
0.00443434
0.00438055
0.00432278
0.00426008
0.00419124
0.00411567
0.00403333
0.00394414
0.00384745
0.00374246
0.00362814
0.00350319
0.00336584
0.00321375
0.00304381
0.00285189
0.00263259
0.00237887
0.00208177
0.00172967
0.00130227
0.000756562
0.000246653
)
;

boundaryField
{
    floor
    {
        type            calculated;
        value           nonuniform List<scalar> 
29
(
0
0
0
0
0
0
0
0
0
0
0
0
0
0
0
0
0
0
0
0
2.97413e-06
7.71855e-06
1.17528e-05
1.73474e-05
2.74553e-06
2.30827e-06
6.56576e-06
1.11967e-05
1.4145e-05
)
;
    }
    ceiling
    {
        type            calculated;
        value           nonuniform List<scalar> 
43
(
0.00021096
0.000159441
6.09001e-05
6.45522e-05
7.03863e-05
7.64293e-05
8.26482e-05
8.80483e-05
9.23355e-05
9.50702e-05
9.59454e-05
9.5115e-05
9.31989e-05
9.09022e-05
8.8612e-05
8.66784e-05
8.51363e-05
8.39095e-05
8.29008e-05
8.20223e-05
8.12224e-05
8.04708e-05
7.97355e-05
7.9005e-05
7.83054e-05
7.76456e-05
7.70245e-05
7.64373e-05
7.58778e-05
7.53413e-05
7.48241e-05
7.43236e-05
7.38372e-05
7.33612e-05
7.28894e-05
7.24056e-05
7.18624e-05
7.1218e-05
7.22485e-05
7.79131e-05
3.1044e-05
2.5001e-05
3.21004e-05
)
;
    }
    sWall
    {
        type            calculated;
        value           uniform -1.99043e-05;
    }
    nWall
    {
        type            calculated;
        value           nonuniform List<scalar> 6(1.42931e-05 1.51324e-05 1.60873e-05 2.72939e-05 2.74111e-05 3.34403e-05);
    }
    sideWalls
    {
        type            empty;
        value           nonuniform 0();
    }
    glass1
    {
        type            calculated;
        value           nonuniform List<scalar> 9(-3.77893e-05 -9.91541e-05 -0.000154713 -0.000155143 -9.42966e-05 -0.000102968 -0.000114214 -0.000123257 -0.000127676);
    }
    glass2
    {
        type            calculated;
        value           nonuniform List<scalar> 2(0.000102956 0.0001191);
    }
    sun
    {
        type            calculated;
        value           uniform 0;
    }
    heatsource1
    {
        type            calculated;
        value           nonuniform List<scalar> 3(1.96829e-07 1.96823e-07 1.96961e-07);
    }
    heatsource2
    {
        type            calculated;
        value           nonuniform List<scalar> 4(4.95497e-08 4.97953e-08 0 0);
    }
    Table_master
    {
        type            calculated;
        value           nonuniform List<scalar> 9(-1.49339e-07 -1.49269e-07 -1.49198e-07 -1.49139e-07 -1.4909e-07 -1.49045e-07 -1.48996e-07 -1.48938e-07 -1.48835e-07);
    }
    Table_slave
    {
        type            calculated;
        value           nonuniform List<scalar> 9(1.47889e-07 1.4791e-07 1.47923e-07 1.47938e-07 1.47956e-07 1.47979e-07 1.48008e-07 1.48049e-07 1.48082e-07);
    }
    inlet
    {
        type            calculated;
        value           uniform 0.00135029;
    }
    outlet
    {
        type            calculated;
        value           nonuniform List<scalar> 2(-0.0044006 0.000300636);
    }
}


// ************************************************************************* //
