/*--------------------------------*- C++ -*----------------------------------*\
  =========                 |
  \\      /  F ield         | OpenFOAM: The Open Source CFD Toolbox
   \\    /   O peration     | Website:  https://openfoam.org
    \\  /    A nd           | Version:  6
     \\/     M anipulation  |
\*---------------------------------------------------------------------------*/
FoamFile
{
    version     2.0;
    format      ascii;
    class       volScalarField;
    location    "1300";
    object      nut;
}
// * * * * * * * * * * * * * * * * * * * * * * * * * * * * * * * * * * * * * //

dimensions      [0 2 -1 0 0 0 0];

internalField   nonuniform List<scalar> 
459
(
0.00108002
0.00117986
0.00120183
0.00125959
0.00131307
0.00136312
0.00141217
0.00146013
0.00149398
0.00150823
0.00149783
0.00145964
0.0013935
0.001305
0.00120793
0.000474075
0.000579959
0.000652102
0.000647609
0.000625076
0.000595647
0.000558934
0.000522617
0.000489651
0.000460363
0.000434405
0.00041132
0.000390776
0.000372316
0.000355287
0.000338837
0.000321707
0.000309404
0.000281783
0.00147145
0.00359124
0.00343762
0.00400146
0.00455562
0.00510994
0.00559942
0.00596782
0.00630091
0.00657162
0.00674217
0.00676969
0.00658869
0.00603459
0.00451216
0.00123143
0.000725741
0.000512997
0.00107625
0.00148475
0.00177536
0.0019276
0.00191848
0.00154375
0.00133199
0.00118028
0.00106375
0.000971008
0.000895473
0.000830219
0.000769375
0.000710456
0.000658191
0.000612831
0.000717479
0.000367863
0.00179729
0.00490605
0.00426605
0.00535038
0.00589245
0.00629551
0.0066092
0.00685944
0.00713013
0.00741174
0.00767125
0.00786175
0.00793118
0.00780255
0.00727057
0.00560825
0.00122428
0.00102397
0.00146926
0.00187934
0.00224201
0.00248478
0.00241224
0.000800075
0.000706613
0.000631548
0.000570982
0.000521636
0.000480995
0.00044726
0.000419279
0.000396572
0.000427124
0.000493351
0.000806433
0.000425256
0.00211008
0.00627202
0.00428001
0.00566392
0.0061411
0.00630586
0.00641441
0.00654508
0.00676129
0.00704909
0.00737462
0.00767962
0.00791022
0.00800605
0.00789417
0.00732389
0.00536853
0.00146569
0.00181748
0.00234397
0.00284716
0.00323966
0.00347348
0.00324639
0.000902727
0.00082192
0.000764079
0.000720028
0.000682653
0.000648421
0.000615554
0.000581081
0.000541102
0.000507234
0.000517839
0.000920394
0.000469741
0.00242911
0.00802656
0.00470807
0.00545556
0.00608738
0.00613435
0.00608792
0.00615984
0.00635077
0.00664233
0.00700653
0.00736298
0.00763698
0.00776806
0.00773436
0.00749346
0.00687706
0.00568735
0.00527778
0.00513868
0.00508554
0.00504823
0.00498576
0.00478752
0.00404157
0.00368451
0.00347806
0.00331908
0.00315123
0.0029086
0.0025801
0.00218008
0.00173451
0.00128439
0.000945998
0.000946042
0.000629817
0.0005791
0.000701362
0.000787296
0.0027673
0.00993807
0.00648462
0.00543823
0.00591439
0.00613243
0.00600294
0.00606154
0.00620449
0.0064645
0.00683063
0.0072202
0.00752106
0.00764631
0.00757551
0.00735498
0.00706053
0.00675287
0.00657672
0.00644263
0.00629071
0.00611972
0.00593189
0.0057021
0.00536756
0.00506972
0.00480522
0.00455026
0.00428949
0.0040055
0.00364828
0.00320416
0.00267295
0.00208438
0.00156287
0.00116742
0.000880028
0.000748341
0.0010666
0.000821582
0.00307498
0.0112773
0.00908976
0.00701963
0.00664129
0.00656131
0.00634184
0.00620166
0.006245
0.00649705
0.0069022
0.00733644
0.00765336
0.00775033
0.0076167
0.00734892
0.00711693
0.00703428
0.00703652
0.00696331
0.00677229
0.00650067
0.00618139
0.00583077
0.00546263
0.00511929
0.00480181
0.00450366
0.00422667
0.00397849
0.00375943
0.0034629
0.00304947
0.00254537
0.00206059
0.00162659
0.00130994
0.00121594
0.0012411
0.000938716
0.00313456
0.010037
0.00891895
0.00823774
0.00763311
0.00693419
0.00638703
0.00616859
0.00630001
0.00670655
0.00724768
0.00774405
0.00802781
0.00801845
0.0077555
0.00740521
0.00719206
0.00718519
0.0071821
0.00695691
0.0065728
0.00610473
0.00561204
0.00514324
0.00473008
0.0043794
0.00407966
0.00382586
0.00362261
0.00347796
0.0033984
0.00335777
0.00315262
0.00283238
0.00255263
0.00241538
0.00251957
0.00290787
0.00356061
0.00146408
0.00305136
0.00361793
0.00401562
0.00411405
0.00419726
0.00442838
0.00489549
0.0056073
0.00648089
0.00736478
0.00809594
0.0085205
0.00853638
0.00819159
0.0076721
0.007312
0.00710592
0.00692396
0.00662259
0.00614971
0.00557374
0.00498109
0.00444301
0.00399511
0.00363782
0.00335213
0.00311882
0.00292622
0.00276606
0.00262888
0.00250437
0.00239005
0.00229971
0.00223332
0.00220932
0.00222018
0.00220721
0.00211693
0.00197655
0.00137637
0.00148284
0.00305633
0.00497196
0.00657134
0.00782374
0.00878268
0.0093909
0.00963518
0.00955018
0.00912795
0.00846037
0.00762501
0.00691374
0.00646989
0.00610956
0.00566988
0.00513477
0.0045641
0.00402124
0.00354977
0.00317406
0.00288305
0.00265709
0.0024805
0.00234367
0.00224088
0.0021684
0.00212368
0.00210756
0.00211743
0.00213963
0.00217048
0.00220213
0.00221017
0.00215534
0.00202534
0.0018305
0.0011431
0.00198529
0.0051236
0.00766225
0.00863836
0.00913307
0.00929268
0.00909137
0.0085899
0.00789236
0.00710054
0.00635065
0.00568201
0.0051428
0.00468437
0.00422278
0.00376866
0.00336503
0.0030342
0.00277491
0.00257362
0.00240926
0.00227171
0.0021569
0.00206816
0.00200661
0.00197057
0.00195765
0.00196504
0.00199764
0.00205243
0.00212595
0.00221085
0.00229081
0.00234585
0.00232814
0.00235173
0.0023836
0.0011657
0.00177687
0.00188272
0.00195766
0.00210843
0.0020396
0.00195612
0.00190182
0.00182494
0.00171452
0.00157717
0.00142247
0.00126144
0.0011049
0.000970398
0.000868757
0.000796642
0.00074564
0.000708918
0.000682256
0.000663228
0.000650359
0.000642796
0.000640027
0.000642298
0.000650056
0.000662892
0.000680672
0.000703721
0.000732602
0.000768144
0.000809409
0.000856457
0.000909792
0.000969862
0.00103618
0.00111491
0.00114045
0.00111108
0.00104347
0.000971695
)
;

boundaryField
{
    floor
    {
        type            nutkWallFunction;
        Cmu             0.09;
        kappa           0.41;
        E               9.8;
        value           nonuniform List<scalar> 
29
(
0.000144922
5.63836e-05
6.9834e-05
7.88234e-05
7.82671e-05
7.54706e-05
7.17997e-05
6.71891e-05
6.25915e-05
5.83838e-05
5.46159e-05
5.12514e-05
4.82378e-05
4.55379e-05
4.30964e-05
4.08304e-05
3.86279e-05
3.63196e-05
3.46519e-05
3.08751e-05
3.0875e-05
4.25046e-05
5.0059e-05
5.58249e-05
0.000144923
5.63835e-05
6.13667e-05
0.000123542
0.000174281
)
;
    }
    ceiling
    {
        type            nutkWallFunction;
        Cmu             0.09;
        kappa           0.41;
        E               9.8;
        value           nonuniform List<scalar> 
43
(
0.000208834
0.000220463
0.000228656
0.000245134
0.000237707
0.000228629
0.000222699
0.000214265
0.000202078
0.000186794
0.000169401
0.000151072
0.000132999
0.000117236
0.000105158
9.64896e-05
9.03034e-05
8.58182e-05
8.25444e-05
8.01987e-05
7.86077e-05
7.76709e-05
7.73276e-05
7.76091e-05
7.85702e-05
8.01571e-05
8.23494e-05
8.51812e-05
8.87139e-05
9.3039e-05
9.80309e-05
0.000103686
0.000110054
0.000117174
0.000124975
0.000134164
0.000137129
0.000133719
0.00012583
0.000117391
0.000345492
0.000404052
0.00023154
)
;
    }
    sWall
    {
        type            nutkWallFunction;
        Cmu             0.09;
        kappa           0.41;
        E               9.8;
        value           uniform 0.000208892;
    }
    nWall
    {
        type            nutkWallFunction;
        Cmu             0.09;
        kappa           0.41;
        E               9.8;
        value           nonuniform List<scalar> 6(9.53598e-05 9.94988e-05 0.000113492 0.000137447 0.000140062 0.000117396);
    }
    sideWalls
    {
        type            empty;
    }
    glass1
    {
        type            nutkWallFunction;
        Cmu             0.09;
        kappa           0.41;
        E               9.8;
        value           nonuniform List<scalar> 9(0.000130203 0.00017515 0.000211532 0.00024578 0.000280152 0.000316073 0.000348356 0.000354578 0.000345916);
    }
    glass2
    {
        type            nutkWallFunction;
        Cmu             0.09;
        kappa           0.41;
        E               9.8;
        value           nonuniform List<scalar> 2(0.000174172 0.000164245);
    }
    sun
    {
        type            nutkWallFunction;
        Cmu             0.09;
        kappa           0.41;
        E               9.8;
        value           nonuniform List<scalar> 
14
(
0.000130103
0.000141686
0.000144221
0.000150859
0.000156975
0.000162674
0.000168237
0.000173655
0.000177467
0.000179069
0.000177899
0.000173598
0.000166121
0.000156053
)
;
    }
    heatsource1
    {
        type            nutkWallFunction;
        Cmu             0.09;
        kappa           0.41;
        E               9.8;
        value           nonuniform List<scalar> 3(6.97278e-05 8.48923e-05 9.53596e-05);
    }
    heatsource2
    {
        type            nutkWallFunction;
        Cmu             0.09;
        kappa           0.41;
        E               9.8;
        value           nonuniform List<scalar> 4(0.000147621 8.78771e-05 8.78771e-05 0.000146801);
    }
    Table_master
    {
        type            nutkWallFunction;
        Cmu             0.09;
        kappa           0.41;
        E               9.8;
        value           nonuniform List<scalar> 9(9.69041e-05 8.55367e-05 7.62771e-05 6.87092e-05 6.24709e-05 5.72785e-05 5.29268e-05 4.92863e-05 4.63094e-05);
    }
    Table_slave
    {
        type            nutkWallFunction;
        Cmu             0.09;
        kappa           0.41;
        E               9.8;
        value           nonuniform List<scalar> 9(0.000109211 9.95379e-05 9.25456e-05 8.71786e-05 8.25942e-05 7.83689e-05 7.4287e-05 6.99769e-05 6.49391e-05);
    }
    inlet
    {
        type            calculated;
        value           uniform 0.000100623;
    }
    outlet
    {
        type            calculated;
        value           nonuniform List<scalar> 2(0.00177687 0.00188272);
    }
}


// ************************************************************************* //
