/*--------------------------------*- C++ -*----------------------------------*\
  =========                 |
  \\      /  F ield         | OpenFOAM: The Open Source CFD Toolbox
   \\    /   O peration     | Website:  https://openfoam.org
    \\  /    A nd           | Version:  6
     \\/     M anipulation  |
\*---------------------------------------------------------------------------*/
FoamFile
{
    version     2.0;
    format      ascii;
    class       volScalarField;
    location    "1000";
    object      alphat;
}
// * * * * * * * * * * * * * * * * * * * * * * * * * * * * * * * * * * * * * //

dimensions      [1 -1 -1 0 0 0 0];

internalField   nonuniform List<scalar> 
459
(
0.00169819
0.00190534
0.00198285
0.00211592
0.0022628
0.00236825
0.00241559
0.00233213
0.00220574
0.00207101
0.00193089
0.00178548
0.00165485
0.00151852
0.00136123
0.000716545
0.000845233
0.000981229
0.00108612
0.00113532
0.00112409
0.00105881
0.000985189
0.000918546
0.000860458
0.000809978
0.000766092
0.000727701
0.000693526
0.000662822
0.000633776
0.000603852
0.00056995
0.000519353
0.00220625
0.00642737
0.00658633
0.00740347
0.00794027
0.00827219
0.00848956
0.00862624
0.00837393
0.00787866
0.0072473
0.00651154
0.00539802
0.00411807
0.002756
0.00144305
0.00124352
0.000689927
0.00137822
0.00276625
0.00370899
0.00437093
0.00438913
0.00299297
0.00246731
0.00212877
0.00188426
0.00169806
0.00155057
0.0014313
0.00133703
0.00123069
0.00111874
0.00101388
0.000965963
0.00055519
0.00263621
0.00911392
0.0085355
0.00891839
0.0088929
0.00873437
0.00879552
0.00913176
0.00922853
0.00901483
0.00859796
0.00806157
0.00720767
0.00598828
0.00448308
0.0028875
0.00132714
0.000694352
0.00148621
0.00266125
0.00413501
0.00528165
0.00521452
0.00139425
0.00121979
0.00107361
0.000953827
0.000855604
0.000774277
0.000705995
0.000648103
0.000605402
0.000688319
0.000816287
0.00102714
0.000571266
0.00304903
0.0115667
0.00998032
0.009842
0.00907667
0.00839187
0.00837124
0.00879415
0.00908623
0.00903958
0.00875604
0.00836627
0.00780751
0.00693406
0.00569453
0.00416326
0.00234133
0.00137162
0.0014173
0.00220073
0.00373163
0.00548704
0.00679335
0.00658216
0.00158872
0.00144697
0.00133494
0.0012431
0.00116101
0.00108303
0.00100573
0.000926205
0.00083943
0.000755734
0.000766918
0.00107785
0.000590483
0.00345542
0.0142481
0.0121747
0.0110424
0.00926156
0.00817278
0.00816879
0.00866075
0.00904976
0.00905989
0.00879708
0.00844829
0.00807021
0.00750906
0.00665733
0.00554598
0.00430167
0.00397115
0.00454838
0.00579756
0.00732473
0.00865191
0.00946274
0.00947048
0.00790801
0.00694709
0.00626158
0.00557762
0.00489416
0.00421153
0.00352342
0.00282152
0.00210958
0.00146747
0.00108572
0.00112205
0.000717427
0.000610981
0.000703627
0.000809531
0.0038464
0.0166778
0.0150983
0.0118266
0.00919771
0.00807278
0.00815035
0.00876177
0.00923865
0.00927043
0.00903335
0.00881412
0.00869398
0.00843755
0.00799345
0.00746376
0.00705764
0.00748292
0.00874461
0.0100472
0.0110767
0.0116687
0.0117813
0.0114115
0.0105411
0.00959835
0.0085935
0.00759703
0.00662102
0.00566655
0.00472618
0.00379187
0.00287126
0.00204663
0.00149476
0.00127177
0.000943749
0.000818481
0.00112371
0.000838129
0.00406313
0.0172497
0.0157122
0.0111531
0.00857833
0.00779858
0.00820567
0.00904669
0.00962086
0.00968141
0.0096666
0.0100844
0.0102021
0.0101157
0.00999161
0.00998258
0.0102838
0.0111955
0.0123424
0.0131206
0.01346
0.0133729
0.0129138
0.0121633
0.0111886
0.010119
0.00903186
0.00796809
0.00694114
0.00595649
0.00501355
0.00410121
0.00319907
0.00242399
0.00189563
0.00160047
0.00134077
0.00125796
0.00115681
0.000927357
0.00403745
0.0126592
0.0105142
0.0080964
0.00705312
0.00732741
0.00839613
0.00954083
0.0101551
0.0103326
0.0110326
0.0116162
0.0117775
0.0118168
0.0119448
0.0122489
0.0127911
0.013558
0.0141833
0.0143843
0.0141394
0.0135282
0.012649
0.0116058
0.0104929
0.00938909
0.0083128
0.00727181
0.00627557
0.00533746
0.00447151
0.00368671
0.00299014
0.00242919
0.00206126
0.00196235
0.00199189
0.00207822
0.00288339
0.00122721
0.0038693
0.00430331
0.00443871
0.00458676
0.00559105
0.00736677
0.00916165
0.0102717
0.0107484
0.0113427
0.0121214
0.0124354
0.0125184
0.0126501
0.0129055
0.0132663
0.0136746
0.0140007
0.0140488
0.0137175
0.0130324
0.0120868
0.0109917
0.0098479
0.00873033
0.00766523
0.00663425
0.00561312
0.00458986
0.00358404
0.0026872
0.0020424
0.00169497
0.00156157
0.00154966
0.00160269
0.00165104
0.00164547
0.00158936
0.00120532
0.00101979
0.00534603
0.00897666
0.0110046
0.0115373
0.0110479
0.0110128
0.0114613
0.0116817
0.0117079
0.0117843
0.0119612
0.012193
0.0124026
0.012495
0.0123624
0.0119309
0.0112053
0.0102644
0.00922258
0.00818549
0.00722166
0.00635077
0.00555252
0.00479827
0.00407492
0.00338998
0.00276985
0.00225531
0.00188827
0.00168394
0.00161469
0.0016311
0.00168087
0.00170922
0.00167722
0.00153185
0.0011975
0.00298895
0.010319
0.0107461
0.0101732
0.00943059
0.008981
0.00881136
0.00868415
0.00857745
0.00856723
0.00865086
0.00878161
0.00890387
0.00895774
0.00888211
0.00862909
0.00819331
0.00762305
0.00700006
0.00640212
0.00587366
0.00542184
0.00502959
0.00467104
0.00432202
0.00396524
0.00359361
0.00321344
0.00284377
0.0025102
0.00223729
0.00204207
0.00192384
0.00185458
0.00179069
0.00176358
0.00202783
0.00125796
0.00206077
0.00216689
0.0022824
0.00225223
0.00206248
0.00191703
0.00180252
0.00171305
0.0016562
0.00162454
0.00161021
0.00160645
0.00160735
0.00160786
0.00160362
0.00159099
0.00156764
0.00153345
0.00149125
0.00144576
0.00140157
0.00136138
0.00132552
0.00129251
0.0012601
0.00122621
0.00118967
0.00115077
0.00111136
0.00107452
0.0010437
0.00102195
0.00101167
0.00101455
0.00103079
0.00105627
0.00107843
0.00106208
0.00103961
0.00110117
)
;

boundaryField
{
    floor
    {
        type            compressible::alphatWallFunction;
        Prt             0.85;
        value           nonuniform List<scalar> 
29
(
0.000192171
0.000101624
0.00012028
0.000139631
0.000154347
0.000161199
0.000159643
0.000150542
0.000140201
0.000130762
0.000122469
0.000115209
0.000108854
0.00010326
9.82501e-05
9.37241e-05
8.94193e-05
8.49595e-05
7.98739e-05
7.22134e-05
7.22125e-05
7.76467e-05
8.00696e-05
8.29588e-05
0.000192169
0.000101622
9.77176e-05
9.83637e-05
0.000193583
)
;
    }
    ceiling
    {
        type            compressible::alphatWallFunction;
        Prt             0.85;
        value           nonuniform List<scalar> 
43
(
0.000285283
0.000298907
0.000313744
0.000309914
0.000285422
0.000266473
0.000251445
0.000239634
0.000232097
0.000227888
0.000225983
0.000225486
0.000225611
0.000225683
0.000225119
0.000223437
0.000220318
0.000215739
0.000210071
0.00020394
0.000197962
0.000192508
0.000187625
0.000183118
0.000178679
0.000174023
0.000168987
0.000163604
0.000158127
0.000152984
0.000148661
0.000145598
0.000144142
0.000144536
0.000146806
0.000150368
0.000153463
0.0001512
0.000148085
0.00015674
0.000511616
0.000564059
0.00040295
)
;
    }
    sWall
    {
        type            compressible::alphatWallFunction;
        Prt             0.85;
        value           uniform 0.000284261;
    }
    nWall
    {
        type            compressible::alphatWallFunction;
        Prt             0.85;
        value           nonuniform List<scalar> 6(0.000114997 0.000119099 0.000131835 0.000169734 0.000178054 0.000156456);
    }
    sideWalls
    {
        type            empty;
    }
    glass1
    {
        type            compressible::alphatWallFunction;
        Prt             0.85;
        value           nonuniform List<scalar> 9(0.000231578 0.000297126 0.000351468 0.000402862 0.000452822 0.000500372 0.000526602 0.000523691 0.0005037);
    }
    glass2
    {
        type            compressible::alphatWallFunction;
        Prt             0.85;
        value           nonuniform List<scalar> 2(0.000172285 0.000169681);
    }
    sun
    {
        type            compressible::alphatWallFunction;
        Prt             0.85;
        value           nonuniform List<scalar> 
14
(
0.000237398
0.000264682
0.000274811
0.000292104
0.000311054
0.000324576
0.000330626
0.000319933
0.000303694
0.00028627
0.000268019
0.000248928
0.000231631
0.000213415
)
;
    }
    heatsource1
    {
        type            compressible::alphatWallFunction;
        Prt             0.85;
        value           nonuniform List<scalar> 3(8.61194e-05 9.9828e-05 0.000115255);
    }
    heatsource2
    {
        type            compressible::alphatWallFunction;
        Prt             0.85;
        value           nonuniform List<scalar> 4(0.000203447 0.000176278 0.000176276 0.000187717);
    }
    Table_master
    {
        type            compressible::alphatWallFunction;
        Prt             0.85;
        value           nonuniform List<scalar> 9(0.000196842 0.000173011 0.000152743 0.000135897 0.000121897 0.00011016 0.000100191 9.16466e-05 8.52834e-05);
    }
    Table_slave
    {
        type            compressible::alphatWallFunction;
        Prt             0.85;
        value           nonuniform List<scalar> 9(0.000223023 0.000203985 0.000188792 0.00017623 0.00016491 0.000154074 0.000143241 0.000131995 0.000119593);
    }
    inlet
    {
        type            fixedValue;
        value           uniform 1.94e-05;
    }
    outlet
    {
        type            zeroGradient;
    }
}


// ************************************************************************* //
