/*--------------------------------*- C++ -*----------------------------------*\
  =========                 |
  \\      /  F ield         | OpenFOAM: The Open Source CFD Toolbox
   \\    /   O peration     | Website:  https://openfoam.org
    \\  /    A nd           | Version:  6
     \\/     M anipulation  |
\*---------------------------------------------------------------------------*/
FoamFile
{
    version     2.0;
    format      ascii;
    class       volScalarField;
    location    "1100";
    object      alphat;
}
// * * * * * * * * * * * * * * * * * * * * * * * * * * * * * * * * * * * * * //

dimensions      [1 -1 -1 0 0 0 0];

internalField   nonuniform List<scalar> 
459
(
0.00125404
0.00137132
0.00139689
0.00146405
0.00152624
0.00158445
0.00164153
0.00169726
0.00173655
0.00175303
0.0017408
0.00169624
0.00161915
0.00151601
0.00140285
0.000550785
0.000673481
0.00075743
0.000752512
0.000726497
0.000692405
0.000649739
0.000607483
0.000569114
0.000535021
0.000504807
0.000477941
0.000454033
0.000432553
0.000412739
0.000393601
0.000373683
0.000359457
0.000327318
0.00170759
0.0041804
0.00400195
0.00465801
0.00530292
0.00594757
0.00651613
0.00694431
0.00733155
0.00764639
0.00784469
0.00787629
0.00766492
0.00701956
0.00524938
0.00143045
0.00084163
0.000595628
0.00124931
0.00172378
0.00206197
0.00224009
0.00223071
0.00179465
0.0015488
0.00137279
0.00123765
0.00113019
0.00104275
0.000967302
0.000896898
0.000828518
0.000767649
0.00071473
0.000837721
0.000427612
0.00208434
0.00571104
0.00496919
0.00623068
0.00686079
0.00732828
0.00769131
0.00798118
0.008296
0.00862452
0.00892764
0.00914993
0.00923003
0.00907744
0.00845408
0.00651662
0.00142268
0.00118823
0.00170586
0.00218264
0.00260504
0.00288874
0.00280553
0.000930157
0.000821392
0.000734037
0.000663559
0.000606138
0.000558849
0.000519596
0.000487042
0.000460635
0.000496498
0.000574483
0.000942301
0.000494507
0.00244529
0.00729659
0.00498671
0.00659693
0.00715024
0.0073384
0.00746085
0.00761069
0.00786256
0.0081996
0.00858114
0.00893835
0.00920752
0.00931684
0.00918251
0.00851342
0.00623217
0.00170262
0.00211085
0.00272225
0.00330764
0.00376582
0.00404043
0.00377753
0.0010496
0.000955457
0.000888009
0.000836603
0.000792986
0.000753027
0.00071469
0.000674507
0.000627963
0.000589136
0.000602852
0.00107581
0.000546366
0.0028129
0.00932948
0.00548291
0.00635398
0.00708495
0.00713335
0.00707321
0.00715586
0.00737928
0.00772194
0.00814944
0.00856758
0.00888844
0.00904081
0.00899935
0.0087152
0.00799394
0.00660955
0.00613275
0.00597174
0.00591241
0.0058728
0.00580414
0.00557562
0.00470502
0.00428747
0.00404548
0.00385947
0.00366387
0.00338172
0.00299945
0.00253384
0.00201546
0.00149273
0.00110106
0.00110517
0.000734328
0.000672303
0.000814245
0.00091432
0.00320229
0.0115408
0.00754081
0.0063294
0.00687837
0.00712334
0.00696797
0.00703666
0.00720546
0.00751189
0.00794217
0.00839922
0.00875173
0.00889808
0.0088146
0.00855571
0.00821038
0.00785044
0.00764491
0.00749061
0.00731772
0.00712355
0.00690898
0.00664306
0.00625184
0.00590257
0.00559305
0.00529635
0.00499411
0.0046653
0.0042503
0.00373314
0.0031139
0.00242817
0.0018217
0.0013633
0.00102722
0.000872036
0.00124289
0.000954487
0.00355596
0.0130832
0.0105526
0.00815465
0.0077139
0.00761391
0.00735722
0.00719677
0.00725173
0.00755002
0.00802588
0.00853449
0.00890496
0.00901786
0.0088612
0.00854813
0.0082767
0.00817923
0.00818157
0.00809848
0.00788015
0.0075681
0.0071991
0.00679135
0.00636154
0.00596139
0.00559358
0.00525027
0.00493217
0.00464675
0.00439383
0.00404985
0.00356666
0.0029756
0.00240682
0.00189752
0.0015238
0.00140979
0.00143951
0.00109098
0.00362197
0.0116233
0.0103347
0.00954889
0.00884656
0.00803647
0.00740652
0.00716
0.00732009
0.00779896
0.00843247
0.00901175
0.00934146
0.00932877
0.00902073
0.00861256
0.00836404
0.0083543
0.0083497
0.00808899
0.00764459
0.00710262
0.00653164
0.00598844
0.00551101
0.00510828
0.00476609
0.00447674
0.00424392
0.00407652
0.0039828
0.00393399
0.00369428
0.00331445
0.00298099
0.00281005
0.00291829
0.00336157
0.00412034
0.00169853
0.00352196
0.00417943
0.00464278
0.00475969
0.00486077
0.00513601
0.00568734
0.0065235
0.00754628
0.00857797
0.00942849
0.00991957
0.00993319
0.00952762
0.00892129
0.00850459
0.00826086
0.00804334
0.00768893
0.00713841
0.00647139
0.00578785
0.00517004
0.00465897
0.00425403
0.00393132
0.00366632
0.00344411
0.00325499
0.00308902
0.00293566
0.00279339
0.00267982
0.00259584
0.00256268
0.00257142
0.00255432
0.00244999
0.00228876
0.00159657
0.00176092
0.00361032
0.00586009
0.00772722
0.00917846
0.0102805
0.0109706
0.0112375
0.0111248
0.0106254
0.0098416
0.00886587
0.00803512
0.00751243
0.00708243
0.00656227
0.00593752
0.00527887
0.00465923
0.00412645
0.00370648
0.00338366
0.00313248
0.00293315
0.00277441
0.00265076
0.00255953
0.00249934
0.00247219
0.0024757
0.00249418
0.00252348
0.00255484
0.00256034
0.00249499
0.00234454
0.00211997
0.00132706
0.00235332
0.00604753
0.00899986
0.0101156
0.0106737
0.0108434
0.0105951
0.0100008
0.00918274
0.00825857
0.00738241
0.00659822
0.0059606
0.00541388
0.00486561
0.00433233
0.00386524
0.00348982
0.00320293
0.0029867
0.00281333
0.00266793
0.00254389
0.00244433
0.00237218
0.00232692
0.00230704
0.00231056
0.00234317
0.00240145
0.00248132
0.00257428
0.00266166
0.00272087
0.00269724
0.00272321
0.00276054
0.00135324
0.00208725
0.00221237
0.00230062
0.00246322
0.00237677
0.0022771
0.00221246
0.00212182
0.0019924
0.00183197
0.00165169
0.00146438
0.00128252
0.0011264
0.00100838
0.00092447
0.000864967
0.000822095
0.000791106
0.000769246
0.000754761
0.000746553
0.000743873
0.000746891
0.000756098
0.000771162
0.000791895
0.00081872
0.000852325
0.00089362
0.000941554
0.000996187
0.00105807
0.00112769
0.00120444
0.0012954
0.00132467
0.0012904
0.00121205
0.00112859
)
;

boundaryField
{
    floor
    {
        type            compressible::alphatWallFunction;
        Prt             0.85;
        value           nonuniform List<scalar> 
29
(
0.000197887
7.69805e-05
9.53077e-05
0.00010761
0.000106894
0.000103097
9.80966e-05
9.17959e-05
8.55059e-05
7.97477e-05
7.45909e-05
6.99866e-05
6.58633e-05
6.21694e-05
5.88296e-05
5.57301e-05
5.2718e-05
4.95633e-05
4.72968e-05
4.21324e-05
4.21318e-05
5.80585e-05
6.84092e-05
7.63117e-05
0.000197885
7.69796e-05
8.3731e-05
0.000168542
0.00023805
)
;
    }
    ceiling
    {
        type            compressible::alphatWallFunction;
        Prt             0.85;
        value           nonuniform List<scalar> 
43
(
0.000288364
0.000304532
0.000315881
0.000336791
0.000325808
0.000313058
0.000304756
0.000293059
0.000276256
0.000255256
0.000231414
0.000206332
0.000181634
0.000160112
0.000143615
0.00013175
0.000123259
0.000117099
0.000112622
0.000109451
0.000107344
0.000106148
0.000105757
0.000106197
0.000107539
0.000109729
0.000112736
0.000116612
0.000121446
0.000127356
0.000134176
0.0001419
0.00015059
0.000160296
0.000170916
0.000183404
0.0001874
0.000182721
0.000171967
0.000160425
0.000469275
0.00054924
0.000322465
)
;
    }
    sWall
    {
        type            compressible::alphatWallFunction;
        Prt             0.85;
        value           uniform 0.000287155;
    }
    nWall
    {
        type            compressible::alphatWallFunction;
        Prt             0.85;
        value           nonuniform List<scalar> 6(0.000129987 0.000135684 0.000154852 0.000187402 0.000190964 0.000160103);
    }
    sideWalls
    {
        type            empty;
    }
    glass1
    {
        type            compressible::alphatWallFunction;
        Prt             0.85;
        value           nonuniform List<scalar> 9(0.000173317 0.000233618 0.000282484 0.000328499 0.000374688 0.000422974 0.00046635 0.000474527 0.000462558);
    }
    glass2
    {
        type            compressible::alphatWallFunction;
        Prt             0.85;
        value           nonuniform List<scalar> 2(0.000235954 0.000222504);
    }
    sun
    {
        type            compressible::alphatWallFunction;
        Prt             0.85;
        value           nonuniform List<scalar> 
14
(
0.000177622
0.000193615
0.000197084
0.000206164
0.00021453
0.000222326
0.000229938
0.000237344
0.000242549
0.000244727
0.000243109
0.000237206
0.000226953
0.000213151
)
;
    }
    heatsource1
    {
        type            compressible::alphatWallFunction;
        Prt             0.85;
        value           nonuniform List<scalar> 3(9.5237e-05 0.000115949 0.00013029);
    }
    heatsource2
    {
        type            compressible::alphatWallFunction;
        Prt             0.85;
        value           nonuniform List<scalar> 4(0.000201743 0.000119892 0.000119891 0.00020069);
    }
    Table_master
    {
        type            compressible::alphatWallFunction;
        Prt             0.85;
        value           nonuniform List<scalar> 9(0.000132539 0.000116978 0.000104303 9.39431e-05 8.54038e-05 7.82964e-05 7.23398e-05 6.73571e-05 6.32845e-05);
    }
    Table_slave
    {
        type            compressible::alphatWallFunction;
        Prt             0.85;
        value           nonuniform List<scalar> 9(0.000149387 0.00013613 0.000126539 0.000119171 0.000112877 0.000107075 0.000101473 9.55628e-05 8.86626e-05);
    }
    inlet
    {
        type            fixedValue;
        value           uniform 1.94e-05;
    }
    outlet
    {
        type            zeroGradient;
    }
}


// ************************************************************************* //
