// -*- C++ -*-
// File generated by PyFoam - sorry for the ugliness

FoamFile
{
 version 2.0;
 format ascii;
 class volVectorField;
 location "400";
 object U;
}

dimensions [ 0 1 -1 0 0 0 0 ];

internalField nonuniform List<vector> 459
(
  (0.016081 0.0930111 0)
  (-0.185107 0.0288792 0)
  (-0.21661 0.0135225 0)
  (-0.242514 0.00184674 0)
  (-0.249601 -0.0104643 0)
  (-0.235245 -0.0233148 0)
  (-0.201585 -0.0360963 0)
  (-0.152594 -0.0462849 0)
  (-0.0959748 -0.0523995 0)
  (-0.0411826 -0.0534384 0)
  (0.0214094 -0.0393157 0)
  (0.0521096 -0.0247337 0)
  (0.0707841 -0.00981167 0)
  (0.0704763 0.00868047 0)
  (0.0507714 0.0429526 0)
  (-0.0277506 0.0163821 0)
  (-0.051175 -0.0143765 0)
  (-0.025528 -0.031223 0)
  (0.00341677 -0.0333017 0)
  (0.032916 -0.0263415 0)
  (0.0563891 -0.0188899 0)
  (0.07284 -0.0110336 0)
  (0.0824847 -0.0067253 0)
  (0.0871513 -0.0050451 0)
  (0.089543 -0.004332 0)
  (0.0911971 -0.00385521 0)
  (0.092441 -0.00344276 0)
  (0.0931694 -0.00298616 0)
  (0.0930208 -0.00222987 0)
  (0.0911533 -0.00066331 0)
  (0.0858661 0.00243426 0)
  (0.0751498 0.00649881 0)
  (0.0588809 0.0122143 0)
  (0.012153 0.029232 0)
  (0.186451 0.191794 0)
  (-0.164539 0.0817869 0)
  (-0.171948 0.0531765 0)
  (-0.199135 0.0280925 0)
  (-0.207057 -0.000342562 0)
  (-0.19389 -0.0312638 0)
  (-0.163023 -0.059598 0)
  (-0.119939 -0.0792636 0)
  (-0.0719631 -0.0878599 0)
  (-0.0264299 -0.0848553 0)
  (0.0169993 -0.0653107 0)
  (0.0458315 -0.0404213 0)
  (0.0657037 -0.0139944 0)
  (0.0777072 0.0148454 0)
  (0.0821808 0.04797 0)
  (0.0830934 0.0486794 0)
  (0.055609 0.050771 0)
  (0.0349182 0.0515934 0)
  (0.00725331 -0.0175552 0)
  (0.0299347 -0.0448749 0)
  (0.0461598 -0.0462291 0)
  (0.0619529 -0.0387841 0)
  (0.0754799 -0.0281587 0)
  (0.0823805 -0.0130509 0)
  (0.084227 -0.00398482 0)
  (0.0843064 -0.000534202 0)
  (0.0845357 0.000732442 0)
  (0.0849734 0.00140158 0)
  (0.0853181 0.00190004 0)
  (0.0854995 0.00257359 0)
  (0.0854215 0.00396067 0)
  (0.0843914 0.00718234 0)
  (0.0794476 0.0153365 0)
  (0.0673353 0.0238517 0)
  (0.0528755 0.0335974 0)
  (-0.0236167 0.0605499 0)
  (0.342381 0.285809 0)
  (-0.171312 0.126873 0)
  (-0.129146 0.0841332 0)
  (-0.155415 0.0419775 0)
  (-0.161809 -0.00500932 0)
  (-0.146277 -0.0543113 0)
  (-0.115346 -0.0971339 0)
  (-0.077086 -0.123469 0)
  (-0.0375557 -0.131441 0)
  (-0.00183422 -0.12145 0)
  (0.0283407 -0.09536 0)
  (0.0514524 -0.0630883 0)
  (0.0684662 -0.0289852 0)
  (0.0799042 0.00575608 0)
  (0.086311 0.0381272 0)
  (0.0830026 0.0563326 0)
  (0.0692474 0.093526 0)
  (0.106755 0.00103774 0)
  (0.0820796 -0.0386583 0)
  (0.0818623 -0.0550715 0)
  (0.0857091 -0.0558773 0)
  (0.0896928 -0.0484904 0)
  (0.094463 -0.0398472 0)
  (0.0943858 -0.0299643 0)
  (0.0839414 -0.0194028 0)
  (0.0757535 -0.0136677 0)
  (0.0719703 -0.0104262 0)
  (0.0701798 -0.00832627 0)
  (0.0689236 -0.00686328 0)
  (0.0680576 -0.00566121 0)
  (0.0683851 -0.00402461 0)
  (0.0717446 0.000689078 0)
  (0.0699483 0.0215146 0)
  (0.0561962 0.0378031 0)
  (0.0499824 0.0534765 0)
  (-0.0591538 0.0915706 0)
  (0.483555 0.360925 0)
  (-0.19635 0.165747 0)
  (-0.0861367 0.111445 0)
  (-0.109332 0.054838 0)
  (-0.108709 -0.00993218 0)
  (-0.0858058 -0.0782228 0)
  (-0.0540635 -0.132794 0)
  (-0.0228167 -0.16155 0)
  (0.00653743 -0.16613 0)
  (0.0298283 -0.149843 0)
  (0.0487117 -0.119157 0)
  (0.0639116 -0.0813013 0)
  (0.0754613 -0.0419073 0)
  (0.0846786 -0.00390978 0)
  (0.0935672 0.0308761 0)
  (0.105468 0.0589062 0)
  (0.124801 0.0943148 0)
  (0.159173 0.0826185 0)
  (0.148898 0.0142861 0)
  (0.132637 -0.0267396 0)
  (0.120603 -0.0456836 0)
  (0.110331 -0.0497728 0)
  (0.101195 -0.0448418 0)
  (0.0930512 -0.0347448 0)
  (0.091581 -0.019869 0)
  (0.0988962 -0.0121532 0)
  (0.103305 -0.00782526 0)
  (0.102939 -0.00499417 0)
  (0.0998108 -0.00273146 0)
  (0.094843 -0.000619054 0)
  (0.0876656 0.00170752 0)
  (0.077092 0.00478537 0)
  (0.0590292 0.00953286 0)
  (0.0466629 0.0331902 0)
  (0.0373803 0.0530004 0)
  (0.0489342 0.072156 0)
  (-0.095046 0.116646 0)
  (0.605884 0.418339 0)
  (-0.230684 0.196271 0)
  (-0.0458898 0.127316 0)
  (-0.0604954 0.0603473 0)
  (-0.0414239 -0.0218213 0)
  (-0.00858009 -0.105728 0)
  (0.0208318 -0.164089 0)
  (0.0409111 -0.187532 0)
  (0.0555966 -0.186361 0)
  (0.0653927 -0.165792 0)
  (0.071894 -0.131644 0)
  (0.0762636 -0.0907534 0)
  (0.0794288 -0.0492751 0)
  (0.0831837 -0.0112083 0)
  (0.0893852 0.0214122 0)
  (0.100256 0.044666 0)
  (0.118603 0.0542087 0)
  (0.13281 0.0199579 0)
  (0.131777 -0.0127325 0)
  (0.123704 -0.0300499 0)
  (0.111945 -0.0378825 0)
  (0.098972 -0.0388967 0)
  (0.0866679 -0.0343348 0)
  (0.076412 -0.0250346 0)
  (0.0709629 -0.0107223 0)
  (0.0699314 -0.00198966 0)
  (0.0684998 0.00233401 0)
  (0.0660073 0.00485526 0)
  (0.0631184 0.00702502 0)
  (0.0599813 0.00954582 0)
  (0.056198 0.0129781 0)
  (0.0512651 0.0179829 0)
  (0.043914 0.02552 0)
  (0.0372266 0.0418218 0)
  (0.0304934 0.0618397 0)
  (0.0567361 0.0856469 0)
  (-0.0192226 0.125879 0)
  (0.0495342 0.0420617 0)
  (-0.0638199 -0.0362799 0)
  (-0.276531 -0.0585183 0)
  (0.698964 0.464261 0)
  (-0.266029 0.214393 0)
  (-0.0123698 0.12037 0)
  (-0.00240486 0.045299 0)
  (0.0490545 -0.0583072 0)
  (0.0820571 -0.135236 0)
  (0.101523 -0.181711 0)
  (0.108696 -0.198455 0)
  (0.107258 -0.191382 0)
  (0.100394 -0.16671 0)
  (0.0909982 -0.130285 0)
  (0.0813827 -0.0884767 0)
  (0.0733013 -0.0475916 0)
  (0.0684746 -0.0120582 0)
  (0.0680844 0.0156003 0)
  (0.0739507 0.0322179 0)
  (0.086023 0.0345126 0)
  (0.0951174 0.0163743 0)
  (0.095528 -0.00222618 0)
  (0.088769 -0.015858 0)
  (0.0779279 -0.0235683 0)
  (0.0658054 -0.0255177 0)
  (0.0540924 -0.0225754 0)
  (0.0441078 -0.0157685 0)
  (0.0373723 -0.00649483 0)
  (0.0337946 -1.10665e-05 0)
  (0.0316901 0.00344609 0)
  (0.0304046 0.0054703 0)
  (0.0297026 0.00740614 0)
  (0.0295495 0.0100764 0)
  (0.0297893 0.0141334 0)
  (0.0303385 0.0202345 0)
  (0.030827 0.0289747 0)
  (0.0327643 0.0423477 0)
  (0.0343295 0.0602867 0)
  (0.0637737 0.0852555 0)
  (0.0460733 0.111068 0)
  (0.0930944 0.0741557 0)
  (0.117727 0.046217 0)
  (-0.134151 -0.00790484 0)
  (0.774898 0.505128 0)
  (-0.280993 0.193133 0)
  (0.0383731 0.0427642 0)
  (0.10823 -0.0354175 0)
  (0.159517 -0.108183 0)
  (0.183827 -0.161704 0)
  (0.188141 -0.189895 0)
  (0.176303 -0.193346 0)
  (0.15337 -0.177663 0)
  (0.125221 -0.148974 0)
  (0.096484 -0.111953 0)
  (0.0706525 -0.0717343 0)
  (0.0500854 -0.0342459 0)
  (0.036067 -0.00391823 0)
  (0.0304473 0.0163862 0)
  (0.033604 0.0262644 0)
  (0.0416964 0.0259994 0)
  (0.0475378 0.0149926 0)
  (0.047232 0.00203444 0)
  (0.0422879 -0.00803216 0)
  (0.0335301 -0.0135809 0)
  (0.0233288 -0.0147893 0)
  (0.013275 -0.0124859 0)
  (0.00470382 -0.00766602 0)
  (-0.0011332 -0.00170705 0)
  (-0.0041422 0.00242297 0)
  (-0.00469995 0.00436907 0)
  (-0.0040655 0.00533522 0)
  (-0.00238299 0.00638265 0)
  (0.000442484 0.0082683 0)
  (0.00453162 0.011601 0)
  (0.0100567 0.0169054 0)
  (0.0170346 0.0245584 0)
  (0.0265286 0.0350604 0)
  (0.0367343 0.0483815 0)
  (0.0643177 0.0681813 0)
  (0.0799041 0.0810176 0)
  (0.11696 0.0558035 0)
  (0.160217 0.0434521 0)
  (-0.0412579 0.0925015 0)
  (0.889828 0.492473 0)
  (-0.0165789 0.16225 0)
  (0.161088 -0.0570218 0)
  (0.279843 -0.128713 0)
  (0.310703 -0.158672 0)
  (0.302119 -0.174417 0)
  (0.273007 -0.176084 0)
  (0.229412 -0.163307 0)
  (0.177104 -0.139486 0)
  (0.12368 -0.109102 0)
  (0.0743212 -0.074772 0)
  (0.0335069 -0.0399532 0)
  (0.00393302 -0.01014 0)
  (-0.0135044 0.00931926 0)
  (-0.0165156 0.0183811 0)
  (-0.0134521 0.02189 0)
  (-0.00753098 0.0201713 0)
  (-0.0035646 0.0129948 0)
  (-0.00411748 0.00451891 0)
  (-0.00807104 -0.0019767 0)
  (-0.0148281 -0.00530928 0)
  (-0.0227092 -0.00581565 0)
  (-0.0302205 -0.00422652 0)
  (-0.0362878 -0.0014316 0)
  (-0.0401232 0.00140374 0)
  (-0.0411913 0.00297396 0)
  (-0.0406522 0.00329951 0)
  (-0.0390141 0.00301647 0)
  (-0.0363293 0.00269584 0)
  (-0.032451 0.00279799 0)
  (-0.0270915 0.00368296 0)
  (-0.0198723 0.00561341 0)
  (-0.0105099 0.00875045 0)
  (0.00258997 0.0132764 0)
  (0.0168193 0.0182126 0)
  (0.0405544 0.0263176 0)
  (0.063598 0.0239225 0)
  (0.0863417 -0.000684626 0)
  (0.149172 0.0476285 0)
  (-0.451763 0.206452 0)
  (1.05065 0.422933 0)
  (0.49407 0.269495 0)
  (0.515888 0.14736 0)
  (0.526573 0.0287802 0)
  (0.478563 -0.0486928 0)
  (0.398522 -0.0887303 0)
  (0.311846 -0.100501 0)
  (0.225114 -0.0924866 0)
  (0.141643 -0.0727838 0)
  (0.0679163 -0.0476061 0)
  (0.0042657 -0.0198079 0)
  (-0.0393464 0.00139891 0)
  (-0.058472 0.0111374 0)
  (-0.0645428 0.0154507 0)
  (-0.0643333 0.0173517 0)
  (-0.0610352 0.0176548 0)
  (-0.0568498 0.0158192 0)
  (-0.0543807 0.0117121 0)
  (-0.054949 0.00696934 0)
  (-0.0581024 0.0031794 0)
  (-0.0626291 0.00103111 0)
  (-0.0676936 0.000388669 0)
  (-0.0723702 0.000777885 0)
  (-0.0759003 0.00159361 0)
  (-0.0779515 0.0022068 0)
  (-0.0790626 0.00219324 0)
  (-0.0799549 0.00166362 0)
  (-0.0811848 0.000966756 0)
  (-0.0831728 0.00054483 0)
  (-0.0862636 0.00093563 0)
  (-0.090797 0.00274292 0)
  (-0.0973096 0.006613 0)
  (-0.106848 0.0132726 0)
  (-0.121117 0.0235022 0)
  (-0.142769 0.0376643 0)
  (-0.173397 0.0550198 0)
  (-0.217859 0.0720179 0)
  (-0.275468 0.0856568 0)
  (-0.353673 0.0936987 0)
  (-0.624437 0.0880032 0)
  (-0.130145 -0.140267 0)
  (0.107446 -0.126544 0)
  (0.143818 -0.103427 0)
  (0.102996 -0.0724749 0)
  (0.054887 -0.0418443 0)
  (0.000366236 -0.0132515 0)
  (-0.051438 0.00582126 0)
  (-0.0854698 0.0148233 0)
  (-0.104636 0.0183388 0)
  (-0.111983 0.0180638 0)
  (-0.113638 0.0167945 0)
  (-0.112307 0.0160451 0)
  (-0.109389 0.0157042 0)
  (-0.10576 0.0153994 0)
  (-0.102412 0.0145482 0)
  (-0.100496 0.0129301 0)
  (-0.100562 0.0111059 0)
  (-0.102306 0.00977707 0)
  (-0.104961 0.0093605 0)
  (-0.107769 0.00981238 0)
  (-0.110179 0.0107809 0)
  (-0.111961 0.0118465 0)
  (-0.113203 0.0126383 0)
  (-0.114232 0.0129305 0)
  (-0.115363 0.0127469 0)
  (-0.116762 0.012324 0)
  (-0.118461 0.0120904 0)
  (-0.120417 0.0126384 0)
  (-0.122559 0.0146841 0)
  (-0.124789 0.0190526 0)
  (-0.127007 0.0266959 0)
  (-0.129169 0.0385903 0)
  (-0.131257 0.0550616 0)
  (-0.132533 0.0742358 0)
  (-0.13015 0.0888262 0)
  (-0.114114 0.0832316 0)
  (-0.0806592 0.0292317 0)
  (-0.186946 -0.182203 0)
  (0.105746 0.117309 0)
  (-0.0422713 0.0223751 0)
  (-0.0807029 -0.0095645 0)
  (-0.124263 -0.00268317 0)
  (-0.153686 0.00851519 0)
  (-0.16815 0.0149763 0)
  (-0.172749 0.0158707 0)
  (-0.172846 0.0137807 0)
  (-0.169516 0.0110008 0)
  (-0.164351 0.00781106 0)
  (-0.158906 0.00473464 0)
  (-0.153657 0.00240152 0)
  (-0.148617 0.000721595 0)
  (-0.143826 -0.000789799 0)
  (-0.13958 -0.00273661 0)
  (-0.136352 -0.0055217 0)
  (-0.134431 -0.00911527 0)
  (-0.133737 -0.0132117 0)
  (-0.133904 -0.0173803 0)
  (-0.134457 -0.021192 0)
  (-0.134965 -0.0242861 0)
  (-0.135137 -0.0264069 0)
  (-0.13486 -0.0274392 0)
  (-0.134151 -0.0273701 0)
  (-0.13308 -0.0261897 0)
  (-0.131697 -0.0238575 0)
  (-0.129975 -0.0202992 0)
  (-0.127762 -0.0154052 0)
  (-0.124691 -0.00900981 0)
  (-0.120055 -0.000819022 0)
  (-0.112745 0.00971998 0)
  (-0.101473 0.0233993 0)
  (-0.0852775 0.0404499 0)
  (-0.0639851 0.0582325 0)
  (-0.0391355 0.0687295 0)
  (0.0276261 0.0386273 0)
  (0.150083 -0.0387865 0)
  (-0.0437568 -0.0715207 0)
  (0.898057 0.0844028 0)
  (-0.340705 -0.471498 0)
  (-0.366778 0.00633281 0)
  (-0.303816 -0.00795139 0)
  (-0.285827 -0.00449481 0)
  (-0.28261 0.00430061 0)
  (-0.275586 0.0123028 0)
  (-0.263782 0.0182764 0)
  (-0.249494 0.0221229 0)
  (-0.235262 0.024757 0)
  (-0.222396 0.0271557 0)
  (-0.211407 0.029648 0)
  (-0.202141 0.0325006 0)
  (-0.193994 0.0359336 0)
  (-0.186322 0.0400321 0)
  (-0.178711 0.0448401 0)
  (-0.171078 0.0503907 0)
  (-0.1636 0.0566771 0)
  (-0.156513 0.0635879 0)
  (-0.149965 0.0708107 0)
  (-0.143989 0.0778096 0)
  (-0.138546 0.0839231 0)
  (-0.13357 0.0885502 0)
  (-0.128997 0.0913079 0)
  (-0.124785 0.0920582 0)
  (-0.120923 0.0908336 0)
  (-0.117407 0.0877771 0)
  (-0.114173 0.0831516 0)
  (-0.111026 0.0773779 0)
  (-0.107541 0.071054 0)
  (-0.102912 0.0649302 0)
  (-0.0957226 0.0598572 0)
  (-0.0838753 0.0567815 0)
  (-0.0653318 0.0567742 0)
  (-0.0398556 0.0607074 0)
  (-0.00653208 0.0678572 0)
  (0.0307023 0.0658401 0)
  (0.0831005 0.0355676 0)
  (0.127731 0.00451012 0)
  (-0.505379 0.0875754 0)
)
;

boundaryField
{
  floor
  {
    type noSlip;
  }
  ceiling
  {
    type noSlip;
  }
  sWall
  {
    type noSlip;
  }
  nWall
  {
    type noSlip;
  }
  sideWalls
  {
    type empty;
  }
  glass1
  {
    type noSlip;
  }
  glass2
  {
    type noSlip;
  }
  sun
  {
    type noSlip;
  }
  heatsource1
  {
    type noSlip;
  }
  heatsource2
  {
    type noSlip;
  }
  Table_master
  {
    type noSlip;
  }
  Table_slave
  {
    type noSlip;
  }
  inlet
  {
    type fixedValue;
    value uniform (0.0382683 -0.092388 0);
  }
  outlet
  {
    type zeroGradient;
  }
} 	// ************************************************************************* //

