/*--------------------------------*- C++ -*----------------------------------*\
  =========                 |
  \\      /  F ield         | OpenFOAM: The Open Source CFD Toolbox
   \\    /   O peration     | Website:  https://openfoam.org
    \\  /    A nd           | Version:  6
     \\/     M anipulation  |
\*---------------------------------------------------------------------------*/
FoamFile
{
    version     2.0;
    format      ascii;
    class       volScalarField;
    location    "100";
    object      nut;
}
// * * * * * * * * * * * * * * * * * * * * * * * * * * * * * * * * * * * * * //

dimensions      [0 2 -1 0 0 0 0];

internalField   nonuniform List<scalar> 
459
(
0.00107577
0.0012052
0.00127067
0.00135195
0.00143661
0.00152258
0.00159138
0.00163246
0.0016325
0.00154965
0.00145836
0.00135167
0.00123027
0.00111698
0.000994459
0.000649066
0.000824957
0.000947229
0.00102649
0.00104158
0.00102878
0.000976667
0.000916945
0.000862231
0.00081411
0.000772012
0.000735236
0.000702863
0.000673786
0.000647209
0.00062124
0.000593117
0.000554403
0.000501626
0.00133365
0.00352109
0.00365164
0.0042983
0.00489656
0.00534831
0.00576222
0.00614623
0.00646347
0.00651521
0.00627988
0.00586095
0.00517841
0.00406575
0.00266968
0.00114199
0.000973187
0.000800158
0.00273178
0.00304542
0.00358981
0.00403267
0.00400959
0.00280226
0.0023412
0.00204596
0.00183209
0.00166655
0.00153157
0.00142001
0.00133129
0.0012232
0.0011065
0.00100838
0.000827621
0.000521475
0.00154783
0.00486788
0.00462846
0.00513868
0.0054467
0.00567729
0.00595093
0.00640461
0.00698811
0.00735496
0.00743517
0.00727562
0.00689388
0.00606751
0.00476318
0.00299967
0.00109869
0.000892043
0.00298952
0.00335752
0.00420695
0.00495215
0.00477072
0.00126556
0.00111631
0.000991089
0.000888185
0.000803209
0.000731643
0.000669646
0.000615405
0.000578246
0.000672438
0.000824656
0.000836781
0.000531335
0.00175455
0.00594859
0.00497978
0.00533808
0.00535976
0.00534453
0.00547123
0.00599487
0.006713
0.00728075
0.00756446
0.00758715
0.00740873
0.00695115
0.00608762
0.00467157
0.00244943
0.00120403
0.00162814
0.00254068
0.00395939
0.00534449
0.00624438
0.00587176
0.00136986
0.00124316
0.00114555
0.00106535
0.00099809
0.000937755
0.000880064
0.000821266
0.00075642
0.00070132
0.000755271
0.00088231
0.000560336
0.00196988
0.00722866
0.00558328
0.00571276
0.00548284
0.00517023
0.00520363
0.00577026
0.00657815
0.00726099
0.00763136
0.00770889
0.0075997
0.00734575
0.00687949
0.00606563
0.00482535
0.00431333
0.00498126
0.00603725
0.00709806
0.00787906
0.00824231
0.00802097
0.00656938
0.00572667
0.00518125
0.00477686
0.00434143
0.00386478
0.00333351
0.00273562
0.00207444
0.00143023
0.00104525
0.00100367
0.000729173
0.000584775
0.000539982
0.000472278
0.00220133
0.00867647
0.0071065
0.00656403
0.00575292
0.00513302
0.00513772
0.00578757
0.00671498
0.00749091
0.00789997
0.00798039
0.00790637
0.00782219
0.00773124
0.00755492
0.00733878
0.00769619
0.008536
0.00925849
0.00971889
0.00985512
0.0096702
0.0091872
0.00842675
0.00772635
0.00711415
0.00649882
0.00584229
0.0051347
0.00436666
0.00353567
0.00266099
0.00183907
0.00127174
0.00108157
0.000892375
0.000789514
0.000785317
0.00052163
0.00239187
0.00958342
0.00894892
0.0073105
0.00580743
0.00501036
0.00515117
0.00601869
0.00712785
0.00799828
0.00843312
0.00853945
0.00860161
0.00877637
0.00898623
0.0092219
0.00956815
0.0101824
0.0107856
0.0110661
0.0110238
0.0106798
0.0100964
0.00936904
0.00861464
0.00793026
0.00725617
0.0065594
0.00582763
0.00505404
0.0042379
0.00339115
0.00254025
0.00178278
0.00127555
0.00107757
0.000953982
0.000884848
0.000921837
0.000545355
0.00242709
0.0079776
0.00742215
0.00592872
0.00479351
0.00454397
0.00524148
0.00653575
0.00786804
0.00878212
0.00921687
0.00938935
0.00963288
0.0097731
0.00996822
0.0103029
0.0107554
0.0112238
0.0114818
0.0113772
0.0109465
0.0102322
0.0093523
0.00842996
0.00757383
0.00679631
0.00610475
0.00543371
0.00475594
0.00407168
0.00339052
0.00272606
0.00210211
0.0015784
0.00123423
0.0010696
0.0010355
0.00106622
0.00140885
0.000573829
0.00236758
0.00277186
0.00283711
0.0027707
0.00304997
0.00411861
0.00582902
0.00762567
0.00899752
0.00970122
0.0100665
0.00999216
0.00981875
0.00976684
0.00991057
0.0102013
0.0105198
0.0107008
0.0106098
0.0102072
0.00949953
0.00857517
0.00755087
0.00656122
0.00571885
0.0050394
0.00444444
0.00387868
0.00332792
0.00280365
0.00232672
0.00191604
0.00158034
0.0013197
0.00113575
0.00103306
0.00102705
0.00108305
0.00113339
0.000704864
0.000592285
0.00152694
0.00388332
0.00641324
0.00842333
0.00959999
0.010139
0.00996228
0.00957927
0.00922305
0.00904379
0.00902805
0.00910948
0.00920304
0.00920862
0.00903387
0.00865175
0.00811123
0.00749472
0.00688404
0.00635161
0.00591828
0.00556223
0.00524228
0.00491842
0.00456379
0.00416331
0.0037122
0.00321886
0.00270966
0.00222885
0.00182683
0.00153599
0.00135345
0.00125737
0.00123733
0.00130696
0.00105791
0.00162517
0.0069631
0.00919049
0.0101476
0.0104585
0.0101515
0.00950998
0.00885383
0.00838154
0.00812369
0.0080137
0.00798364
0.00798289
0.00797446
0.00792585
0.00781435
0.00764073
0.00742935
0.00721238
0.00701594
0.00685201
0.00671593
0.00659308
0.00646549
0.00631435
0.00612046
0.00586343
0.00552338
0.00508698
0.0045566
0.00395898
0.00334644
0.00278489
0.00233153
0.0020183
0.00186482
0.0021776
0.00129772
0.00165959
0.00180866
0.00196926
0.00223095
0.00224192
0.00220646
0.00212235
0.00202954
0.00193045
0.00185533
0.00181369
0.00179521
0.00179088
0.00179441
0.00180079
0.00180578
0.00180595
0.00179963
0.00178781
0.00177334
0.00175909
0.00174676
0.00173654
0.00172764
0.00171856
0.00170734
0.00169179
0.00166968
0.00163896
0.00159825
0.00154737
0.00148774
0.00142226
0.00135489
0.00129031
0.00123399
0.00119335
0.00118601
0.00131305
0.00137171
)
;

boundaryField
{
    floor
    {
        type            nutkWallFunction;
        Cmu             0.09;
        kappa           0.41;
        E               9.8;
        value           nonuniform List<scalar> 
29
(
0.000120074
7.84371e-05
9.98963e-05
0.000114493
0.000123837
0.00012561
0.000124113
0.000117983
0.00011091
0.000104383
9.86021e-05
9.35121e-05
8.90389e-05
8.50794e-05
8.15042e-05
7.82204e-05
7.49956e-05
7.14844e-05
6.66164e-05
5.99062e-05
5.99062e-05
6.24304e-05
6.36788e-05
6.73448e-05
0.000120074
7.84371e-05
9.69078e-05
0.000107938
0.000144476
)
;
    }
    ceiling
    {
        type            nutkWallFunction;
        Cmu             0.09;
        kappa           0.41;
        E               9.8;
        value           nonuniform List<scalar> 
43
(
0.000195994
0.000212494
0.000230108
0.000258511
0.000259717
0.000255907
0.000246822
0.000236746
0.000225931
0.000217693
0.000213111
0.000211073
0.000210596
0.000210987
0.000211692
0.000212243
0.000212262
0.000211567
0.000210263
0.000208665
0.000207092
0.000205728
0.000204598
0.000203613
0.000202608
0.000201365
0.000199642
0.000197188
0.000193771
0.000189231
0.00018354
0.000176842
0.000169451
0.000161806
0.000154438
0.000147976
0.000143292
0.000142444
0.000157029
0.000163707
0.00027321
0.000316136
0.000192078
)
;
    }
    sWall
    {
        type            nutkWallFunction;
        Cmu             0.09;
        kappa           0.41;
        E               9.8;
        value           uniform 0.000196029;
    }
    nWall
    {
        type            nutkWallFunction;
        Cmu             0.09;
        kappa           0.41;
        E               9.8;
        value           nonuniform List<scalar> 6(5.61107e-05 6.24267e-05 6.54363e-05 0.000127548 0.000155284 0.00016372);
    }
    sideWalls
    {
        type            empty;
    }
    glass1
    {
        type            nutkWallFunction;
        Cmu             0.09;
        kappa           0.41;
        E               9.8;
        value           nonuniform List<scalar> 9(0.000129665 0.000159428 0.000183654 0.000206686 0.000230365 0.000255509 0.000275999 0.00027977 0.000273407);
    }
    glass2
    {
        type            nutkWallFunction;
        Cmu             0.09;
        kappa           0.41;
        E               9.8;
        value           nonuniform List<scalar> 2(6.90181e-05 8.52902e-05);
    }
    sun
    {
        type            nutkWallFunction;
        Cmu             0.09;
        kappa           0.41;
        E               9.8;
        value           nonuniform List<scalar> 
14
(
0.000129605
0.00014461
0.000152129
0.000161406
0.000171002
0.000180684
0.000188388
0.000192972
0.000192978
0.000183723
0.000173462
0.000161378
0.000147498
0.000134405
)
;
    }
    heatsource1
    {
        type            nutkWallFunction;
        Cmu             0.09;
        kappa           0.41;
        E               9.8;
        value           nonuniform List<scalar> 3(7.04082e-05 6.47602e-05 5.61138e-05);
    }
    heatsource2
    {
        type            nutkWallFunction;
        Cmu             0.09;
        kappa           0.41;
        E               9.8;
        value           nonuniform List<scalar> 4(0.000137314 0.00011757 0.00011757 0.000132283);
    }
    Table_master
    {
        type            nutkWallFunction;
        Cmu             0.09;
        kappa           0.41;
        E               9.8;
        value           nonuniform List<scalar> 9(0.000151562 0.00013434 0.000119687 0.000107485 9.72825e-05 8.85899e-05 8.09754e-05 7.42416e-05 6.95893e-05);
    }
    Table_slave
    {
        type            nutkWallFunction;
        Cmu             0.09;
        kappa           0.41;
        E               9.8;
        value           nonuniform List<scalar> 9(0.000163458 0.000148985 0.000137723 0.000128389 0.000120499 0.000113371 0.000106505 9.94535e-05 9.16069e-05);
    }
    inlet
    {
        type            calculated;
        value           uniform 0.000100623;
    }
    outlet
    {
        type            calculated;
        value           nonuniform List<scalar> 2(0.00165959 0.00180866);
    }
}


// ************************************************************************* //
