/*--------------------------------*- C++ -*----------------------------------*\
  =========                 |
  \\      /  F ield         | OpenFOAM: The Open Source CFD Toolbox
   \\    /   O peration     | Website:  https://openfoam.org
    \\  /    A nd           | Version:  6
     \\/     M anipulation  |
\*---------------------------------------------------------------------------*/
FoamFile
{
    version     2.0;
    format      ascii;
    class       volScalarField;
    location    "100";
    object      nut;
}
// * * * * * * * * * * * * * * * * * * * * * * * * * * * * * * * * * * * * * //

dimensions      [0 2 -1 0 0 0 0];

internalField   nonuniform List<scalar> 
459
(
0.000672221
0.000695365
0.000632271
0.000652254
0.000675625
0.000698334
0.000720464
0.000742691
0.000766164
0.000787003
0.000803939
0.000815574
0.000820197
0.000815563
0.000796931
0.000287443
0.000283756
0.000259403
0.000226796
0.000200727
0.00019007
0.000197146
0.000219593
0.000253994
0.000296141
0.000341872
0.000388559
0.000435446
0.00048335
0.000535498
0.000584538
0.00057538
0.000531984
0.000397317
0.00114346
0.00221228
0.00174819
0.00241203
0.00267829
0.0029
0.00310875
0.0032893
0.00341781
0.00351561
0.00355726
0.00350514
0.0032952
0.00281837
0.0019429
0.000851826
0.000564713
0.000393522
0.000685267
0.000576678
0.000436784
0.000348778
0.000313997
0.000307063
0.000314969
0.000348255
0.000418447
0.000530447
0.000681662
0.00086076
0.00105695
0.00127632
0.00184735
0.00211301
0.00205563
0.000532589
0.00156691
0.00370927
0.00191656
0.00330009
0.00402969
0.00433807
0.00456202
0.00473727
0.00486035
0.00494686
0.00497978
0.00491833
0.00469072
0.00418459
0.00327767
0.00202041
0.00085647
0.00048455
0.000995737
0.000752131
0.000516455
0.000350526
0.000241431
0.00018878
0.000191009
0.000203514
0.00022499
0.000256268
0.000299285
0.000361291
0.000465862
0.000655088
0.00198507
0.00242453
0.00238521
0.000637364
0.00197678
0.00565509
0.00246651
0.00327169
0.0045203
0.00497083
0.00522146
0.00540786
0.00554978
0.00567408
0.00579372
0.00587601
0.00585068
0.00559873
0.00495311
0.00375337
0.00206673
0.000766245
0.00137177
0.0015789
0.00127124
0.00105037
0.0008931
0.000760688
0.000643343
0.000661227
0.000681174
0.000703163
0.00072798
0.000755545
0.000785105
0.00081584
0.000852636
0.0021633
0.00250709
0.00250311
0.000740582
0.00236574
0.00783851
0.00394396
0.00327519
0.00431537
0.00493599
0.00529219
0.00553684
0.00571026
0.00588541
0.0061239
0.00641624
0.0067173
0.00694265
0.00698068
0.00673602
0.00616616
0.00529847
0.00436641
0.00381629
0.00348588
0.00333893
0.00328837
0.00327052
0.00323864
0.00321623
0.0031903
0.00318264
0.00319754
0.00322817
0.00325417
0.00324096
0.00314818
0.00296039
0.00265237
0.00253142
0.00203216
0.000882466
0.000757332
0.000648665
0.00273389
0.00987996
0.00658072
0.0045435
0.0042379
0.00452319
0.00493511
0.0052799
0.00547813
0.00566584
0.00594495
0.00634482
0.0068564
0.00740914
0.00786648
0.00810123
0.00801666
0.00757666
0.00690001
0.00624083
0.00578231
0.00549539
0.00531385
0.00517381
0.00502655
0.00485379
0.00467495
0.00450808
0.00436238
0.00423292
0.00409131
0.00388273
0.0035529
0.00311069
0.00271506
0.00252087
0.00248381
0.0022574
0.00170158
0.000718114
0.0030421
0.0111414
0.00945364
0.00712622
0.00571318
0.00503552
0.00496257
0.00514636
0.00528385
0.00539434
0.0055687
0.00587546
0.00636889
0.00705247
0.00775892
0.00830857
0.0085737
0.00849652
0.00814657
0.00768703
0.00726072
0.00691876
0.00665485
0.00643652
0.00622659
0.00599612
0.00574644
0.00549098
0.00524333
0.00500958
0.00477246
0.00446775
0.00402814
0.00347866
0.00296145
0.00257331
0.00225342
0.00188471
0.00143084
0.000733454
0.00306404
0.0099086
0.00901957
0.00869213
0.00759608
0.00658445
0.00597663
0.00566194
0.00549314
0.00538886
0.00536743
0.00547334
0.00576053
0.00626579
0.00693702
0.00762028
0.00813465
0.00836447
0.0083153
0.00808957
0.00780115
0.00751173
0.00725452
0.00703404
0.00683585
0.00664264
0.00644275
0.00623633
0.00603166
0.00582944
0.0056341
0.00539738
0.00502826
0.00450318
0.00391231
0.00334853
0.00281585
0.00235896
0.00202714
0.00124817
0.0029364
0.00337833
0.0073894
0.00811297
0.00768728
0.0070182
0.00640166
0.0059197
0.00557236
0.00533341
0.00521293
0.00522671
0.00538526
0.00569499
0.00614001
0.00665949
0.00714635
0.00748924
0.00763823
0.00762189
0.0075023
0.00733134
0.00715402
0.00699044
0.00684514
0.00671558
0.00659927
0.00649629
0.00640996
0.0063456
0.00630301
0.00626755
0.00620631
0.0060875
0.00589324
0.00562343
0.00522443
0.00460198
0.00409651
0.00146109
0.0164054
0.0153594
0.00976139
0.00791517
0.00693065
0.0062995
0.00588538
0.00563317
0.00551764
0.00551587
0.00560399
0.00575071
0.00593882
0.00616203
0.00640514
0.00662799
0.00679149
0.00688196
0.00690828
0.00688963
0.00684483
0.00678858
0.00672989
0.00667324
0.00662087
0.00657505
0.0065399
0.00652138
0.00652409
0.00654553
0.00656441
0.00653513
0.00642126
0.0061915
0.00582311
0.00528605
0.00446697
0.0015851
0.00569601
0.0111715
0.0087758
0.00738338
0.00658495
0.00611505
0.00586711
0.00578659
0.00582971
0.00595006
0.00610169
0.00625054
0.00638161
0.00649122
0.00658149
0.00665435
0.00671095
0.00675165
0.00677714
0.00678935
0.00679111
0.00678511
0.00677333
0.0067571
0.00673768
0.00671698
0.00669825
0.00668645
0.00668756
0.00670609
0.00673665
0.0067249
0.00660651
0.00636788
0.00599828
0.00547988
0.00492962
0.00169002
0.00168543
0.00232193
0.00399889
0.00330019
0.00260689
0.00239673
0.00216806
0.00197512
0.00182759
0.00172067
0.00164787
0.00160289
0.0015795
0.00157117
0.00157151
0.00157585
0.00158105
0.0015854
0.00158783
0.00158797
0.00158611
0.00158286
0.00157894
0.00157499
0.00157146
0.00156864
0.00156671
0.0015658
0.00156603
0.00156736
0.00156934
0.00157062
0.00156871
0.0015635
0.00155448
0.00153582
0.00150308
0.00145249
0.00140846
0.00122675
)
;

boundaryField
{
    floor
    {
        type            nutkWallFunction;
        Cmu             0.09;
        kappa           0.41;
        E               9.8;
        value           nonuniform List<scalar> 
29
(
9.65249e-05
3.16175e-05
3.11255e-05
2.77596e-05
2.31768e-05
1.94399e-05
1.7882e-05
1.88907e-05
2.20964e-05
2.6937e-05
3.27575e-05
3.89552e-05
4.51742e-05
5.13244e-05
5.75208e-05
6.4179e-05
7.03703e-05
6.92267e-05
6.3752e-05
4.63596e-05
4.63595e-05
6.3825e-05
7.69813e-05
8.96865e-05
9.65249e-05
3.16174e-05
4.58958e-05
5.77375e-05
9.28185e-05
)
;
    }
    ceiling
    {
        type            nutkWallFunction;
        Cmu             0.09;
        kappa           0.41;
        E               9.8;
        value           nonuniform List<scalar> 
43
(
0.000199019
0.000268497
0.000443093
0.000371475
0.00029886
0.000276473
0.000251871
0.000230896
0.00021471
0.000202892
0.000194799
0.00018978
0.000187163
0.00018623
0.000186269
0.000186754
0.000187336
0.000187822
0.000188093
0.000188108
0.0001879
0.000187536
0.000187097
0.000186654
0.000186259
0.000185943
0.000185728
0.000185627
0.000185653
0.000185805
0.00018603
0.000186176
0.000185964
0.000185379
0.000184361
0.000182258
0.000178565
0.000172851
0.000167861
0.000147126
0.000333679
0.000379656
0.000612277
)
;
    }
    sWall
    {
        type            nutkWallFunction;
        Cmu             0.09;
        kappa           0.41;
        E               9.8;
        value           uniform 0.000199063;
    }
    nWall
    {
        type            nutkWallFunction;
        Cmu             0.09;
        kappa           0.41;
        E               9.8;
        value           nonuniform List<scalar> 6(7.83633e-05 8.69497e-05 8.88111e-05 0.00018775 0.000199462 0.000147134);
    }
    sideWalls
    {
        type            empty;
    }
    glass1
    {
        type            nutkWallFunction;
        Cmu             0.09;
        kappa           0.41;
        E               9.8;
        value           nonuniform List<scalar> 9(8.12541e-05 0.000137616 0.000185932 0.000231318 0.00027345 0.000312653 0.000345047 0.000347349 0.000333998);
    }
    glass2
    {
        type            nutkWallFunction;
        Cmu             0.09;
        kappa           0.41;
        E               9.8;
        value           nonuniform List<scalar> 2(0.000149508 0.000173825);
    }
    sun
    {
        type            nutkWallFunction;
        Cmu             0.09;
        kappa           0.41;
        E               9.8;
        value           nonuniform List<scalar> 
14
(
8.12941e-05
8.41453e-05
7.63463e-05
7.8826e-05
8.17148e-05
8.45102e-05
8.72237e-05
8.99393e-05
9.27968e-05
9.53247e-05
9.73733e-05
9.87777e-05
9.93347e-05
9.87756e-05
)
;
    }
    heatsource1
    {
        type            nutkWallFunction;
        Cmu             0.09;
        kappa           0.41;
        E               9.8;
        value           nonuniform List<scalar> 3(0.000106753 9.16944e-05 7.8365e-05);
    }
    heatsource2
    {
        type            nutkWallFunction;
        Cmu             0.09;
        kappa           0.41;
        E               9.8;
        value           nonuniform List<scalar> 4(0.000103138 6.78932e-05 6.78931e-05 0.000103698);
    }
    Table_master
    {
        type            nutkWallFunction;
        Cmu             0.09;
        kappa           0.41;
        E               9.8;
        value           nonuniform List<scalar> 9(1.76881e-05 1.80043e-05 1.98049e-05 2.28677e-05 2.72626e-05 3.31953e-05 4.15556e-05 5.52541e-05 7.91435e-05);
    }
    Table_slave
    {
        type            nutkWallFunction;
        Cmu             0.09;
        kappa           0.41;
        E               9.8;
        value           nonuniform List<scalar> 9(7.77307e-05 7.99469e-05 8.2409e-05 8.51136e-05 8.81541e-05 9.15172e-05 9.5108e-05 9.88247e-05 0.000103253);
    }
    inlet
    {
        type            calculated;
        value           uniform 3.3541e-05;
    }
    outlet
    {
        type            calculated;
        value           nonuniform List<scalar> 2(0.00168543 0.00232193);
    }
}


// ************************************************************************* //
