// -*- C++ -*-
// File generated by PyFoam - sorry for the ugliness

FoamFile
{
 version 2.0;
 format ascii;
 class volVectorField;
 location "400";
 object U;
}

dimensions [ 0 1 -1 0 0 0 0 ];

internalField nonuniform List<vector> 459
(
  (0.042644 0.0721343 0)
  (-0.138761 0.0158154 0)
  (-0.140949 0.00530842 0)
  (-0.147499 0.000963625 0)
  (-0.146519 -0.00325844 0)
  (-0.139053 -0.00700183 0)
  (-0.127538 -0.0090585 0)
  (-0.114887 -0.00921673 0)
  (-0.103039 -0.0088939 0)
  (-0.0922714 -0.0088728 0)
  (-0.0819423 -0.00952997 0)
  (-0.0706051 -0.0112017 0)
  (-0.0564734 -0.0144332 0)
  (-0.0395144 -0.0199723 0)
  (-0.0252973 -0.0273678 0)
  (-0.0118722 -0.0114931 0)
  (0.00556499 -0.00527215 0)
  (-0.000564968 -0.00141848 0)
  (-0.00697179 -0.000498299 0)
  (-0.00895745 -0.00132329 0)
  (-0.00725815 -0.00354291 0)
  (-0.00245221 -0.00570375 0)
  (0.00391674 -0.00495147 0)
  (0.00939609 -0.00406458 0)
  (0.0133799 -0.00347154 0)
  (0.0162263 -0.00294918 0)
  (0.0183734 -0.00226949 0)
  (0.0188584 -0.00155301 0)
  (0.0174834 -0.000652323 0)
  (0.0150552 0.00019841 0)
  (0.011756 0.0013329 0)
  (0.00793573 0.00214914 0)
  (0.00233452 0.00479018 0)
  (0.0111716 0.00325681 0)
  (0.17185 0.147045 0)
  (-0.145747 0.0445369 0)
  (-0.12755 0.0158048 0)
  (-0.136035 0.00552805 0)
  (-0.138641 -0.00609821 0)
  (-0.133098 -0.0159787 0)
  (-0.122806 -0.0198382 0)
  (-0.111297 -0.0187164 0)
  (-0.101298 -0.0165712 0)
  (-0.092823 -0.0149961 0)
  (-0.0853184 -0.0147188 0)
  (-0.0778122 -0.0162984 0)
  (-0.0691633 -0.0204371 0)
  (-0.0589357 -0.0279479 0)
  (-0.048532 -0.0381946 0)
  (-0.0410192 -0.0445384 0)
  (0.0260948 0.0117178 0)
  (-0.0431876 0.00128332 0)
  (-0.00663341 0.0078994 0)
  (-0.0144334 0.00902409 0)
  (-0.018646 0.00706892 0)
  (-0.0205802 0.00286388 0)
  (-0.0216935 -0.00380606 0)
  (-0.022377 -0.00995007 0)
  (-0.0196535 -0.00765407 0)
  (-0.0180591 -0.0052673 0)
  (-0.0187408 -0.00349509 0)
  (-0.0204473 -0.00140906 0)
  (-0.0228422 0.00107511 0)
  (-0.0242838 0.00325874 0)
  (-0.0253003 0.00546548 0)
  (-0.0259399 0.00693047 0)
  (-0.0250559 0.00628989 0)
  (-0.0231857 0.00593921 0)
  (-0.0199084 0.00600402 0)
  (0.0338455 -0.00593296 0)
  (0.356245 0.225536 0)
  (-0.11508 0.0477477 0)
  (-0.0586354 -0.00815026 0)
  (-0.0752109 -0.00827521 0)
  (-0.0978673 -0.0197025 0)
  (-0.105679 -0.0283123 0)
  (-0.103853 -0.031168 0)
  (-0.0963918 -0.0284359 0)
  (-0.0899755 -0.0246919 0)
  (-0.0847279 -0.0218089 0)
  (-0.080625 -0.0207105 0)
  (-0.0773919 -0.0221337 0)
  (-0.0744892 -0.0266449 0)
  (-0.0713964 -0.0343817 0)
  (-0.0680755 -0.0440813 0)
  (-0.0676464 -0.0523696 0)
  (-0.081223 -0.0576177 0)
  (-0.0724401 0.0299302 0)
  (-0.0347128 0.0146181 0)
  (-0.0381628 0.0104039 0)
  (-0.0375122 0.00654161 0)
  (-0.0356395 0.00185267 0)
  (-0.0355053 -0.00383815 0)
  (-0.0384024 -0.00827593 0)
  (-0.0493848 -0.00595267 0)
  (-0.0545489 -0.0037861 0)
  (-0.0575356 -0.00253351 0)
  (-0.0588384 -0.00171954 0)
  (-0.0585637 -0.00122357 0)
  (-0.0576721 -0.00120693 0)
  (-0.0562609 -0.001998 0)
  (-0.0519376 -0.00501726 0)
  (-0.0392362 -0.0103177 0)
  (-0.0275292 -0.00888248 0)
  (-0.0268581 -0.00830257 0)
  (0.0895436 -0.0135433 0)
  (0.559493 0.215893 0)
  (0.28303 0.163764 0)
  (0.229419 0.129406 0)
  (0.174732 0.105162 0)
  (0.0991922 0.0735109 0)
  (-0.00209021 0.0157563 0)
  (-0.0612828 -0.0245949 0)
  (-0.0702822 -0.0300715 0)
  (-0.0710912 -0.0278083 0)
  (-0.0700855 -0.0244054 0)
  (-0.069404 -0.0220954 0)
  (-0.0700326 -0.022235 0)
  (-0.0722869 -0.0254672 0)
  (-0.0762827 -0.0315119 0)
  (-0.0830169 -0.0389495 0)
  (-0.0963305 -0.0449984 0)
  (-0.117499 -0.0433372 0)
  (-0.120729 -0.0203035 0)
  (-0.0959988 0.0196042 0)
  (-0.0766441 0.0112217 0)
  (-0.0725348 0.00792056 0)
  (-0.0708621 0.00497356 0)
  (-0.0716969 0.00176129 0)
  (-0.0743749 -0.00185913 0)
  (-0.0760317 -0.00260349 0)
  (-0.0748252 -0.00263195 0)
  (-0.0729143 -0.00324149 0)
  (-0.0702175 -0.00387328 0)
  (-0.0667 -0.00467825 0)
  (-0.0621797 -0.00577232 0)
  (-0.0560973 -0.00729194 0)
  (-0.0473186 -0.00958174 0)
  (-0.0355117 -0.013511 0)
  (-0.0277467 -0.0213195 0)
  (-0.0223456 -0.0242833 0)
  (-0.0232116 -0.0257866 0)
  (0.103376 -0.0161206 0)
  (0.382718 -0.195962 0)
  (0.245961 -0.0106171 0)
  (0.243741 0.092388 0)
  (0.220217 0.138512 0)
  (0.154119 0.134704 0)
  (0.0733155 0.0956207 0)
  (0.00632603 0.0386098 0)
  (-0.0387642 -0.0150123 0)
  (-0.0478262 -0.0244134 0)
  (-0.0509636 -0.0235462 0)
  (-0.0526051 -0.0207058 0)
  (-0.0549121 -0.019193 0)
  (-0.0588132 -0.0203327 0)
  (-0.0645354 -0.0239661 0)
  (-0.0725634 -0.0288925 0)
  (-0.0840028 -0.0326784 0)
  (-0.0967003 -0.0301366 0)
  (-0.101033 -0.0156349 0)
  (-0.0951931 -0.00107779 0)
  (-0.0865971 0.00287092 0)
  (-0.0811266 0.00388133 0)
  (-0.077258 0.00330989 0)
  (-0.0747234 0.00184289 0)
  (-0.0730804 3.72995e-05 0)
  (-0.0713352 -0.00105008 0)
  (-0.0689289 -0.00238085 0)
  (-0.0661717 -0.00352362 0)
  (-0.0630071 -0.00462917 0)
  (-0.059377 -0.00589786 0)
  (-0.0552337 -0.00750609 0)
  (-0.0504303 -0.00964605 0)
  (-0.044733 -0.0127085 0)
  (-0.0385678 -0.0175394 0)
  (-0.0341881 -0.0245845 0)
  (-0.0332957 -0.0283084 0)
  (-0.0351564 -0.027367 0)
  (-0.0347292 -0.0136782 0)
  (-0.0574201 -4.58675e-07 0)
  (-0.0499088 -0.0108307 0)
  (0.0846796 -0.0386213 0)
  (0.309944 -0.296666 0)
  (0.117837 -0.0601605 0)
  (0.175482 0.12163 0)
  (0.1751 0.197149 0)
  (0.12436 0.195784 0)
  (0.0663711 0.15062 0)
  (0.0227996 0.0857767 0)
  (-0.00662392 0.0193013 0)
  (-0.0244891 -0.0145188 0)
  (-0.0303595 -0.0203122 0)
  (-0.0333052 -0.0183751 0)
  (-0.0359327 -0.0157983 0)
  (-0.0397196 -0.0152766 0)
  (-0.0452262 -0.017149 0)
  (-0.0527419 -0.0204451 0)
  (-0.0622285 -0.0229683 0)
  (-0.0716086 -0.0211063 0)
  (-0.0766024 -0.0132146 0)
  (-0.076003 -0.00573077 0)
  (-0.0726772 -0.00212963 0)
  (-0.0693273 -0.000443269 0)
  (-0.066179 -0.000271769 0)
  (-0.0634934 -0.00119591 0)
  (-0.061318 -0.00262962 0)
  (-0.0592898 -0.00394635 0)
  (-0.0571308 -0.0053408 0)
  (-0.0547933 -0.00673586 0)
  (-0.0522139 -0.00817216 0)
  (-0.0493656 -0.00976593 0)
  (-0.0462721 -0.0116433 0)
  (-0.0429829 -0.0139406 0)
  (-0.0396482 -0.0168738 0)
  (-0.0368632 -0.020706 0)
  (-0.0358676 -0.0248898 0)
  (-0.0372606 -0.0263091 0)
  (-0.0395252 -0.0228626 0)
  (-0.0406979 -0.0125998 0)
  (-0.0470847 -0.00372634 0)
  (-0.058197 -0.00860061 0)
  (0.118556 -0.0528331 0)
  (0.234855 -0.35471 0)
  (0.012107 -0.136923 0)
  (0.122415 0.120575 0)
  (0.113815 0.238069 0)
  (0.0647781 0.236747 0)
  (0.0312162 0.182769 0)
  (0.0161255 0.109801 0)
  (0.00847976 0.0419454 0)
  (-0.000875467 -0.00181453 0)
  (-0.00878447 -0.0160574 0)
  (-0.0124767 -0.0163565 0)
  (-0.0145253 -0.0134594 0)
  (-0.0168102 -0.0115468 0)
  (-0.0204856 -0.0116646 0)
  (-0.0260325 -0.0132932 0)
  (-0.0331858 -0.0148499 0)
  (-0.0403786 -0.0141363 0)
  (-0.0452073 -0.0105396 0)
  (-0.0467857 -0.00668399 0)
  (-0.0462456 -0.00429153 0)
  (-0.0448945 -0.00306217 0)
  (-0.0432367 -0.00287293 0)
  (-0.0416128 -0.00352029 0)
  (-0.0401705 -0.00468143 0)
  (-0.0388477 -0.00603206 0)
  (-0.0375317 -0.00751877 0)
  (-0.0361597 -0.00908194 0)
  (-0.0346756 -0.0107292 0)
  (-0.033063 -0.0125173 0)
  (-0.0313551 -0.0145161 0)
  (-0.0296339 -0.0167951 0)
  (-0.0280708 -0.019419 0)
  (-0.0270317 -0.0223282 0)
  (-0.026983 -0.024873 0)
  (-0.027661 -0.0254186 0)
  (-0.0270187 -0.0227121 0)
  (-0.022911 -0.0170715 0)
  (-0.0225664 -0.0135201 0)
  (-0.0636433 -0.0203152 0)
  (0.176519 -0.0615008 0)
  (0.11029 -0.304392 0)
  (-0.139894 -0.184379 0)
  (0.0723311 0.0595044 0)
  (0.0519529 0.28387 0)
  (-0.012923 0.255921 0)
  (-0.0103668 0.187113 0)
  (0.00452824 0.108735 0)
  (0.0163686 0.0461741 0)
  (0.0191203 0.00758709 0)
  (0.0146699 -0.0101246 0)
  (0.0112107 -0.0141138 0)
  (0.0102454 -0.0125573 0)
  (0.0101822 -0.0101423 0)
  (0.00930372 -0.00865595 0)
  (0.00668476 -0.00838868 0)
  (0.0022662 -0.00872928 0)
  (-0.00303474 -0.00851201 0)
  (-0.00729385 -0.00716444 0)
  (-0.00975844 -0.00551583 0)
  (-0.0107548 -0.00435444 0)
  (-0.0108936 -0.00376861 0)
  (-0.0105613 -0.00379724 0)
  (-0.0100741 -0.00437801 0)
  (-0.00964113 -0.00535202 0)
  (-0.00932432 -0.00656607 0)
  (-0.0091019 -0.00795336 0)
  (-0.00893969 -0.00946157 0)
  (-0.00879727 -0.011076 0)
  (-0.00865593 -0.0128115 0)
  (-0.00853042 -0.0146953 0)
  (-0.0084692 -0.0167558 0)
  (-0.00856116 -0.0190065 0)
  (-0.00893946 -0.0213653 0)
  (-0.00965693 -0.0234379 0)
  (-0.0101764 -0.0243983 0)
  (-0.008528 -0.0236249 0)
  (-0.00223244 -0.0219481 0)
  (0.00484894 -0.02329 0)
  (-0.0408788 -0.0321941 0)
  (0.291339 -0.0449258 0)
  (-0.0957655 -0.158605 0)
  (-0.408343 -0.104097 0)
  (-0.574602 -0.011436 0)
  (-0.0254293 0.270008 0)
  (-0.104151 0.231364 0)
  (-0.047438 0.161515 0)
  (0.000294639 0.0879577 0)
  (0.0280845 0.0379509 0)
  (0.0392667 0.0103944 0)
  (0.0418629 -0.00283854 0)
  (0.0419596 -0.0070641 0)
  (0.0429761 -0.00668885 0)
  (0.0446205 -0.00477618 0)
  (0.0456953 -0.00292256 0)
  (0.0453467 -0.00171763 0)
  (0.0433028 -0.0011552 0)
  (0.0400582 -0.000932483 0)
  (0.0367058 -0.00068179 0)
  (0.0340296 -0.000378292 0)
  (0.0321678 -0.000182055 0)
  (0.0309539 -0.000180765 0)
  (0.0301763 -0.000441106 0)
  (0.0295996 -0.000975093 0)
  (0.0290014 -0.00173276 0)
  (0.0282555 -0.00268654 0)
  (0.0273274 -0.00381478 0)
  (0.0262197 -0.00509266 0)
  (0.0249486 -0.00650905 0)
  (0.0235255 -0.00806851 0)
  (0.0219481 -0.00978643 0)
  (0.0201994 -0.0116837 0)
  (0.0182505 -0.0137755 0)
  (0.0160737 -0.0160354 0)
  (0.0137091 -0.0183168 0)
  (0.0114977 -0.020324 0)
  (0.0106134 -0.0219564 0)
  (0.0123791 -0.0243236 0)
  (0.0127051 -0.0301035 0)
  (-0.0318363 -0.0371429 0)
  (0.30323 -0.0112875 0)
  (-2.03591 -0.0272559 0)
  (-0.0598131 0.119207 0)
  (-0.142455 0.132766 0)
  (-0.050211 0.0983395 0)
  (0.0303943 0.045528 0)
  (0.06321 0.0237935 0)
  (0.0816646 0.00959893 0)
  (0.0885077 0.00149921 0)
  (0.0900994 -0.000433519 0)
  (0.0901579 0.0019258 0)
  (0.089849 0.00624882 0)
  (0.0893328 0.010648 0)
  (0.0884523 0.0140518 0)
  (0.0869951 0.0160528 0)
  (0.0850042 0.0165202 0)
  (0.0828003 0.0157891 0)
  (0.0806368 0.0145259 0)
  (0.078655 0.0130895 0)
  (0.0769251 0.0114856 0)
  (0.0753581 0.00983461 0)
  (0.0738493 0.00816824 0)
  (0.0722522 0.0064979 0)
  (0.0704578 0.00470906 0)
  (0.0684154 0.0027413 0)
  (0.0660921 0.000570058 0)
  (0.0634638 -0.00182153 0)
  (0.0605113 -0.00445256 0)
  (0.0572165 -0.00734624 0)
  (0.0535604 -0.0105277 0)
  (0.0495249 -0.0140164 0)
  (0.0450996 -0.0178065 0)
  (0.0403048 -0.021834 0)
  (0.0352617 -0.025961 0)
  (0.0303336 -0.0300904 0)
  (0.0252098 -0.0345998 0)
  (0.0140079 -0.0405347 0)
  (-0.0264625 -0.0444409 0)
  (0.113556 -0.0223068 0)
  (-0.882629 0.0810015 0)
  (0.352088 -0.0376663 0)
  (0.126115 -0.0328685 0)
  (0.109309 -0.0491744 0)
  (0.143828 -0.0785377 0)
  (0.16643 -0.100487 0)
  (0.172978 -0.117951 0)
  (0.169803 -0.130988 0)
  (0.161742 -0.139552 0)
  (0.151946 -0.143773 0)
  (0.142506 -0.14399 0)
  (0.134631 -0.140978 0)
  (0.128837 -0.135452 0)
  (0.125079 -0.128503 0)
  (0.122831 -0.121911 0)
  (0.121423 -0.116291 0)
  (0.120346 -0.111904 0)
  (0.119316 -0.108697 0)
  (0.118096 -0.106352 0)
  (0.116562 -0.104724 0)
  (0.114657 -0.103622 0)
  (0.112426 -0.102542 0)
  (0.109859 -0.101652 0)
  (0.106929 -0.100993 0)
  (0.103574 -0.100542 0)
  (0.099728 -0.100244 0)
  (0.0953365 -0.100038 0)
  (0.090355 -0.0998637 0)
  (0.0847461 -0.0996696 0)
  (0.0784821 -0.0994116 0)
  (0.0715543 -0.0990562 0)
  (0.0639981 -0.0985802 0)
  (0.0559577 -0.0979714 0)
  (0.0478756 -0.0972305 0)
  (0.0403262 -0.0965125 0)
  (0.0316417 -0.0976509 0)
  (0.0111338 -0.111188 0)
  (0.121998 -0.2119 0)
  (0.502299 0.236208 0)
  (0.352746 -0.0537072 0)
  (0.0259584 0.133912 0)
  (0.304837 0.120127 0)
  (0.305085 0.16178 0)
  (0.269962 0.199947 0)
  (0.261506 0.236451 0)
  (0.255412 0.27056 0)
  (0.244096 0.303458 0)
  (0.230277 0.333284 0)
  (0.217519 0.357744 0)
  (0.207319 0.374523 0)
  (0.199765 0.382418 0)
  (0.194402 0.382283 0)
  (0.190603 0.375874 0)
  (0.187825 0.365612 0)
  (0.185694 0.354816 0)
  (0.183806 0.345069 0)
  (0.181899 0.337011 0)
  (0.179809 0.330693 0)
  (0.177445 0.325817 0)
  (0.174779 0.322173 0)
  (0.171774 0.319488 0)
  (0.168362 0.316994 0)
  (0.164565 0.314879 0)
  (0.160316 0.313219 0)
  (0.155537 0.31199 0)
  (0.150156 0.311123 0)
  (0.144101 0.310536 0)
  (0.13729 0.310151 0)
  (0.129631 0.309905 0)
  (0.121012 0.309757 0)
  (0.111305 0.309697 0)
  (0.100353 0.309764 0)
  (0.0879745 0.310084 0)
  (0.0740355 0.310854 0)
  (0.0582726 0.312212 0)
  (0.0374247 0.316444 0)
  (-0.0192011 0.354422 0)
  (0.17904 0.549842 0)
)
;

boundaryField
{
  floor
  {
    type noSlip;
  }
  ceiling
  {
    type noSlip;
  }
  sWall
  {
    type noSlip;
  }
  nWall
  {
    type noSlip;
  }
  sideWalls
  {
    type empty;
  }
  glass1
  {
    type noSlip;
  }
  glass2
  {
    type noSlip;
  }
  sun
  {
    type noSlip;
  }
  heatsource1
  {
    type noSlip;
  }
  heatsource2
  {
    type noSlip;
  }
  Table_master
  {
    type noSlip;
  }
  Table_slave
  {
    type noSlip;
  }
  inlet
  {
    type fixedValue;
    value uniform (0.0707107 -0.0707107 0);
  }
  outlet
  {
    type zeroGradient;
  }
} 	// ************************************************************************* //

