/*--------------------------------*- C++ -*----------------------------------*\
  =========                 |
  \\      /  F ield         | OpenFOAM: The Open Source CFD Toolbox
   \\    /   O peration     | Website:  https://openfoam.org
    \\  /    A nd           | Version:  6
     \\/     M anipulation  |
\*---------------------------------------------------------------------------*/
FoamFile
{
    version     2.0;
    format      ascii;
    class       volScalarField;
    location    "600";
    object      alphat;
}
// * * * * * * * * * * * * * * * * * * * * * * * * * * * * * * * * * * * * * //

dimensions      [1 -1 -1 0 0 0 0];

internalField   nonuniform List<scalar> 
459
(
0.00119044
0.00129509
0.00131411
0.00137493
0.00143067
0.00148209
0.00153141
0.00158154
0.00162217
0.00164551
0.00164542
0.00161708
0.0015597
0.00148045
0.0013938
0.00051973
0.000641398
0.000707975
0.000691029
0.000661098
0.000626822
0.000588954
0.000552792
0.000520105
0.000490962
0.000465005
0.000441842
0.000421179
0.000402449
0.000385024
0.000368032
0.000350135
0.000338891
0.000310557
0.00163977
0.00383991
0.00361627
0.00419921
0.00475417
0.00531911
0.00584428
0.0062495
0.00660169
0.00690168
0.00710283
0.00714291
0.00692503
0.00624042
0.00447572
0.00141338
0.000913695
0.00057824
0.00112779
0.00149926
0.00174463
0.00185734
0.00184146
0.00154615
0.00136066
0.00122262
0.00111389
0.00102559
0.000951884
0.000885497
0.000823417
0.000763923
0.000712292
0.000665687
0.000791766
0.000416437
0.0020177
0.00525292
0.00442162
0.00565191
0.0062299
0.00665236
0.00697562
0.00722586
0.00748189
0.00776044
0.00803107
0.00824309
0.00832418
0.00819725
0.00768441
0.00619459
0.00136738
0.00118148
0.00159895
0.00194699
0.00223069
0.00240636
0.00232909
0.000834514
0.000743661
0.000670302
0.000610719
0.00056185
0.000521354
0.000487533
0.000459272
0.000436047
0.000467883
0.000536646
0.000886043
0.000485767
0.00238424
0.00682204
0.00438623
0.006002
0.00657097
0.00674967
0.00682295
0.00690772
0.00707551
0.00733438
0.00765529
0.00798964
0.00825253
0.00839318
0.00833404
0.007837
0.00608153
0.00160387
0.00199511
0.00250643
0.00292972
0.0032233
0.00338571
0.00317308
0.000934073
0.000858547
0.000805699
0.000766205
0.000732548
0.000700224
0.000669006
0.000635737
0.000596272
0.000560706
0.000568098
0.00101386
0.00053894
0.00275906
0.00886267
0.00484761
0.00570443
0.00653154
0.0066196
0.00652587
0.00647273
0.00661177
0.00686718
0.00721843
0.0076184
0.00794585
0.00813036
0.0081211
0.00786789
0.00721695
0.00589599
0.00537023
0.00511458
0.00495796
0.00485397
0.00477683
0.00462868
0.00401219
0.00373618
0.00358568
0.00346623
0.00332663
0.00310954
0.002785
0.00237456
0.00190796
0.00142464
0.0010485
0.0010366
0.000715779
0.000673751
0.000815088
0.000912584
0.00315574
0.011081
0.00684457
0.00551737
0.00613033
0.0064633
0.00637572
0.00630842
0.00644049
0.00667575
0.00702355
0.00743284
0.00779242
0.0079842
0.00793808
0.00766004
0.00722193
0.0067251
0.00638402
0.00613142
0.00591233
0.00572994
0.00557779
0.00541967
0.00518926
0.00498806
0.00480445
0.00461781
0.004416
0.00418791
0.00387049
0.00344385
0.00290664
0.00228758
0.00172053
0.0012678
0.00097354
0.000838961
0.00120816
0.000950007
0.00352398
0.0126797
0.00990457
0.00721724
0.00659457
0.00666584
0.00663405
0.00653461
0.00653371
0.00671088
0.00706502
0.00750598
0.00788739
0.00806277
0.00795364
0.00759344
0.0071352
0.00677428
0.00657941
0.00641626
0.00620136
0.00594254
0.00566273
0.00539007
0.00514232
0.00493195
0.00473871
0.00454957
0.00436367
0.00418753
0.00402144
0.00374585
0.00331955
0.00278125
0.0022534
0.00176593
0.00142064
0.00131508
0.00135106
0.00106673
0.00359788
0.0114871
0.0100807
0.0091291
0.0083895
0.00779654
0.00715853
0.00672815
0.00663637
0.00687402
0.00733359
0.00784579
0.0082241
0.00831247
0.00805929
0.00755079
0.0070154
0.00668835
0.00654316
0.00626061
0.00584635
0.00539799
0.00499766
0.00468533
0.00445393
0.0042734
0.00411768
0.00397955
0.00386473
0.00378513
0.00375382
0.00374575
0.00350291
0.00313637
0.00280715
0.00263499
0.0027363
0.00318099
0.003975
0.00168634
0.00350316
0.00417529
0.00467801
0.00488043
0.0049879
0.00506953
0.00528945
0.00574465
0.00642633
0.0072311
0.00799568
0.00855262
0.00876715
0.00854739
0.00795334
0.00721287
0.00668831
0.00631005
0.00590344
0.00536606
0.00479964
0.00432292
0.00397424
0.00373111
0.00355379
0.00340987
0.00328096
0.00315943
0.0030415
0.00292317
0.00279984
0.00267302
0.00256721
0.00248887
0.00246389
0.0024855
0.00248574
0.00239911
0.00224911
0.00158762
0.00194021
0.00377702
0.00520594
0.00632803
0.00735204
0.00826906
0.00901942
0.00950571
0.0096654
0.00948095
0.00895654
0.00807809
0.00703701
0.00617891
0.00560029
0.00505802
0.00447139
0.00391635
0.00348355
0.00318123
0.0029736
0.00282386
0.00270731
0.00261083
0.00252909
0.00246109
0.00240792
0.00237193
0.00235748
0.00236961
0.00239301
0.00242641
0.00246341
0.00247719
0.00242214
0.00228039
0.00206623
0.00131822
0.00240334
0.00544793
0.00762361
0.00851627
0.00921517
0.00963882
0.00973571
0.00945079
0.00882172
0.00793328
0.00692163
0.00595393
0.00514072
0.00447619
0.00389387
0.00339433
0.00302265
0.00276967
0.00258801
0.00244669
0.00233814
0.00225624
0.00219604
0.00215564
0.00213452
0.00213231
0.00214785
0.00217808
0.00222772
0.00229793
0.00238596
0.00248508
0.00257868
0.00264457
0.00263292
0.00267087
0.00269775
0.0013423
0.00209408
0.00221807
0.00230665
0.00244158
0.00232906
0.00220365
0.00210487
0.00200016
0.00188367
0.00174502
0.00157999
0.00139669
0.00121095
0.00104122
0.000905017
0.000809354
0.0007485
0.00071213
0.000691988
0.000682883
0.000681627
0.000686998
0.000697087
0.000711136
0.000729151
0.000751257
0.000777678
0.000808785
0.000845222
0.000888163
0.000937455
0.000992496
0.00105406
0.0011229
0.00119895
0.00128924
0.00132164
0.00129033
0.00121122
0.00112811
)
;

boundaryField
{
    floor
    {
        type            compressible::alphatWallFunction;
        Prt             0.85;
        value           nonuniform List<scalar> 
29
(
0.000196661
7.22642e-05
9.05571e-05
0.000100382
9.78921e-05
9.3476e-05
8.8389e-05
8.27289e-05
7.72818e-05
7.23202e-05
6.78634e-05
6.38658e-05
6.02747e-05
5.70509e-05
5.41111e-05
5.13605e-05
4.86625e-05
4.58032e-05
4.39974e-05
3.9411e-05
3.94105e-05
5.63085e-05
6.7066e-05
7.51844e-05
0.000196659
7.22633e-05
8.11203e-05
0.00016761
0.000224913
)
;
    }
    ceiling
    {
        type            compressible::alphatWallFunction;
        Prt             0.85;
        value           nonuniform List<scalar> 
43
(
0.000289249
0.000305267
0.000316654
0.000334023
0.000319686
0.00030359
0.000290839
0.000277246
0.00026203
0.000243779
0.000221843
0.000197174
0.000171798
0.000148217
0.000128971
0.00011525
0.000106422
0.000101105
9.81473e-05
9.6807e-05
9.66225e-05
9.74147e-05
9.88999e-05
0.000100963
0.000103602
0.000106829
0.000110671
0.000115174
0.000120423
0.000126574
0.000133592
0.000141377
0.000150025
0.000159627
0.000170156
0.000182557
0.000186984
0.000182707
0.000171849
0.000160354
0.00046697
0.000548743
0.000328889
)
;
    }
    sWall
    {
        type            compressible::alphatWallFunction;
        Prt             0.85;
        value           uniform 0.000288039;
    }
    nWall
    {
        type            compressible::alphatWallFunction;
        Prt             0.85;
        value           nonuniform List<scalar> 6(0.000129736 0.000135046 0.000151463 0.00018619 0.00018947 0.000160031);
    }
    sideWalls
    {
        type            empty;
    }
    glass1
    {
        type            compressible::alphatWallFunction;
        Prt             0.85;
        value           nonuniform List<scalar> 9(0.00016472 0.000224748 0.00027395 0.000320812 0.00036801 0.000417279 0.000462488 0.000471632 0.000460297);
    }
    glass2
    {
        type            compressible::alphatWallFunction;
        Prt             0.85;
        value           nonuniform List<scalar> 2(0.000234322 0.000221291);
    }
    sun
    {
        type            compressible::alphatWallFunction;
        Prt             0.85;
        value           nonuniform List<scalar> 
14
(
0.00016887
0.000183229
0.000185826
0.000194105
0.000201657
0.000208593
0.000215222
0.000221935
0.000227358
0.000230467
0.000230454
0.000226678
0.000219011
0.000208369
)
;
    }
    heatsource1
    {
        type            compressible::alphatWallFunction;
        Prt             0.85;
        value           nonuniform List<scalar> 3(9.54514e-05 0.000116071 0.000130043);
    }
    heatsource2
    {
        type            compressible::alphatWallFunction;
        Prt             0.85;
        value           nonuniform List<scalar> 4(0.000199432 0.000130201 0.000130199 0.000193191);
    }
    Table_master
    {
        type            compressible::alphatWallFunction;
        Prt             0.85;
        value           nonuniform List<scalar> 9(0.000118865 0.000105705 9.49381e-05 8.60871e-05 7.87483e-05 7.26067e-05 6.74316e-05 6.30726e-05 5.94646e-05);
    }
    Table_slave
    {
        type            compressible::alphatWallFunction;
        Prt             0.85;
        value           nonuniform List<scalar> 9(0.000133095 0.00012232 0.000114714 0.000108991 0.000104086 9.93491e-05 9.47493e-05 8.98185e-05 8.3928e-05);
    }
    inlet
    {
        type            fixedValue;
        value           uniform 1.94e-05;
    }
    outlet
    {
        type            zeroGradient;
    }
}


// ************************************************************************* //
