/*--------------------------------*- C++ -*----------------------------------*\
  =========                 |
  \\      /  F ield         | OpenFOAM: The Open Source CFD Toolbox
   \\    /   O peration     | Website:  https://openfoam.org
    \\  /    A nd           | Version:  6
     \\/     M anipulation  |
\*---------------------------------------------------------------------------*/
FoamFile
{
    version     2.0;
    format      ascii;
    class       volScalarField;
    location    "500";
    object      alphat;
}
// * * * * * * * * * * * * * * * * * * * * * * * * * * * * * * * * * * * * * //

dimensions      [1 -1 -1 0 0 0 0];

internalField   nonuniform List<scalar> 
459
(
0.00104271
0.00113944
0.00116848
0.00122524
0.00127698
0.00132525
0.00137254
0.00142203
0.00146413
0.0014938
0.0015049
0.0014905
0.001442
0.00134478
0.00117723
0.000709348
0.000777569
0.000715684
0.000673122
0.000628292
0.000581151
0.000528971
0.000481403
0.000439922
0.000404196
0.00037345
0.0003467
0.000323376
0.000302966
0.000284323
0.000266907
0.000267597
0.000390407
0.000547241
0.00139293
0.00321827
0.00298665
0.00341992
0.00386691
0.00433401
0.00477302
0.00510227
0.00543539
0.00576379
0.00605418
0.00626295
0.00631953
0.00607095
0.00494939
0.00122997
0.000744717
0.000998084
0.00290488
0.00241389
0.00235565
0.00232698
0.00218395
0.00165189
0.00134139
0.0011332
0.000983084
0.000870273
0.00078428
0.000715978
0.000653252
0.000596554
0.000552931
0.000641537
0.000923126
0.00067195
0.00168797
0.00434594
0.00369157
0.0044713
0.00485079
0.00512954
0.00534109
0.00551283
0.00574484
0.00605022
0.00641874
0.00682277
0.00719261
0.00741618
0.00716155
0.00557598
0.00123765
0.00113663
0.00245885
0.0026658
0.00283657
0.00290882
0.00266933
0.000846917
0.000717423
0.000619165
0.000542918
0.000482683
0.000434444
0.000395576
0.000364605
0.000341108
0.000386049
0.00057504
0.00107185
0.00075545
0.0019719
0.00547025
0.00364478
0.00469556
0.00492914
0.00493846
0.00490445
0.00493847
0.00508823
0.00536499
0.00577604
0.00631077
0.00688004
0.00740049
0.00762973
0.00721271
0.00508207
0.00150736
0.00216731
0.00259576
0.00302174
0.00335274
0.00353309
0.00329683
0.000993431
0.000893399
0.000815063
0.000751206
0.000697114
0.000649331
0.000604981
0.000561296
0.000514305
0.00047426
0.000578101
0.00113533
0.000809525
0.00226264
0.00694531
0.00376145
0.00449821
0.00479923
0.00465669
0.00446619
0.00443213
0.00455302
0.00481206
0.00523781
0.00583813
0.00646577
0.00700499
0.00735324
0.00739018
0.00692784
0.00594551
0.0055626
0.00542407
0.00535743
0.00529475
0.00520687
0.00500582
0.00423823
0.00377827
0.00344133
0.00316495
0.00291429
0.00266312
0.00238872
0.00207161
0.00170085
0.00131966
0.00103794
0.00102004
0.000990457
0.00077974
0.000951508
0.00138588
0.00257401
0.00861983
0.00492172
0.0041475
0.00457132
0.00457833
0.0043912
0.0042367
0.00434259
0.00458753
0.00502136
0.00561914
0.0062634
0.00680095
0.00713045
0.00723499
0.00716388
0.00701633
0.00692379
0.00684904
0.00675157
0.00661904
0.00645639
0.0062306
0.00584664
0.00544236
0.00505492
0.00468785
0.00433188
0.00397153
0.00358957
0.00317249
0.00271971
0.00226582
0.00188164
0.00146742
0.00110475
0.0012814
0.00207934
0.00185378
0.00288197
0.00992684
0.00719696
0.00479133
0.00432823
0.00443823
0.00443601
0.00435215
0.00437028
0.00458233
0.00503351
0.00567513
0.00636569
0.0069248
0.00724595
0.0073525
0.00737628
0.00743316
0.00750295
0.00750497
0.00740679
0.00721685
0.00695932
0.0066548
0.00630192
0.00592664
0.00554767
0.00517349
0.00480402
0.00443356
0.0040549
0.00366396
0.00326462
0.002876
0.00252537
0.00209611
0.00137604
0.00203362
0.00391259
0.0024611
0.00296686
0.00948613
0.00788479
0.00653698
0.00563736
0.00526867
0.00487142
0.00453791
0.00446355
0.00471211
0.00525941
0.00600156
0.00676458
0.00734635
0.00765328
0.00774005
0.00775556
0.00777194
0.00773008
0.00757671
0.00729497
0.00695298
0.00660211
0.00625816
0.00592402
0.00560247
0.00529662
0.0050096
0.00474249
0.00449368
0.00425952
0.00403458
0.00380994
0.00356829
0.00328752
0.00289079
0.00211201
0.00278164
0.00665186
0.00330706
0.00291197
0.00352884
0.00392596
0.0040833
0.00407541
0.00398534
0.0039277
0.00400954
0.0043459
0.00495427
0.0057637
0.00665576
0.0074655
0.00799283
0.00819838
0.00816961
0.00801787
0.00775073
0.00739829
0.00704209
0.0067042
0.00639078
0.00611466
0.00587879
0.00568126
0.00551883
0.0053891
0.00529072
0.0052219
0.00517881
0.00515426
0.0051358
0.00510253
0.00502027
0.00484237
0.00450009
0.00380697
0.00413604
0.00840019
0.00365609
0.00155276
0.00243755
0.0029989
0.00337181
0.00378637
0.00445128
0.00524411
0.00609402
0.00696338
0.00778912
0.00844177
0.00870458
0.00860755
0.00833511
0.00803438
0.00774777
0.00751124
0.00731291
0.00714418
0.00700316
0.00689007
0.00680454
0.00674608
0.00671435
0.00670924
0.00673067
0.00677794
0.00684857
0.00693648
0.00702896
0.00710187
0.00711107
0.00699207
0.00669359
0.00618114
0.00626131
0.00867653
0.00306929
0.00176988
0.00274171
0.00360166
0.00454333
0.00572055
0.00667508
0.00735086
0.00800162
0.00868946
0.00936814
0.00989651
0.0099527
0.00961626
0.00918924
0.00885735
0.00863844
0.00849844
0.00840156
0.00832899
0.00827379
0.00823449
0.00821135
0.00820533
0.00821737
0.00824798
0.00829738
0.00836556
0.00845165
0.00855251
0.0086594
0.00875014
0.00877205
0.00862888
0.00823683
0.00764588
0.0072051
0.0067334
0.0025558
0.00151717
0.00162331
0.00173033
0.00189369
0.00192459
0.00191956
0.0019247
0.00196469
0.00205489
0.00214605
0.00222331
0.00226918
0.00226953
0.00222909
0.00218129
0.00214324
0.00211639
0.0020997
0.00208913
0.0020824
0.00207815
0.00207575
0.00207494
0.00207558
0.00207756
0.00208082
0.00208528
0.0020909
0.00209764
0.00210538
0.00211372
0.00212146
0.00212551
0.0021207
0.00210561
0.00209614
0.00213464
0.00224286
0.00233777
0.00211447
)
;

boundaryField
{
    floor
    {
        type            compressible::alphatWallFunction;
        Prt             0.85;
        value           nonuniform List<scalar> 
29
(
0.000167408
0.000100935
0.000110895
0.000101867
9.56076e-05
8.896e-05
8.19046e-05
7.40097e-05
6.67263e-05
6.02999e-05
5.47025e-05
4.98335e-05
4.55547e-05
4.17879e-05
3.8462e-05
3.53975e-05
3.25098e-05
3.26238e-05
5.25176e-05
7.6774e-05
7.67731e-05
9.54309e-05
0.000107682
0.000115529
0.000167406
0.000100934
0.000142415
0.00016179
0.000212392
)
;
    }
    ceiling
    {
        type            compressible::alphatWallFunction;
        Prt             0.85;
        value           nonuniform List<scalar> 
43
(
0.000213626
0.000227826
0.000242041
0.000263574
0.000267632
0.000266983
0.000267665
0.000272906
0.000284668
0.000296493
0.000306471
0.000312377
0.000312423
0.000307221
0.00030106
0.000296145
0.000292672
0.00029051
0.00028914
0.000288267
0.000287716
0.000287406
0.000287301
0.000287383
0.000287641
0.000288064
0.000288643
0.000289372
0.000290246
0.000291249
0.000292329
0.000293332
0.000293856
0.000293233
0.00029128
0.000290052
0.000295039
0.000309004
0.000321193
0.000292431
0.000393932
0.000470357
0.00024725
)
;
    }
    sWall
    {
        type            compressible::alphatWallFunction;
        Prt             0.85;
        value           uniform 0.000212633;
    }
    nWall
    {
        type            compressible::alphatWallFunction;
        Prt             0.85;
        value           nonuniform List<scalar> 6(0.000196105 0.00025854 0.000337073 0.000413653 0.000349118 0.000292548);
    }
    sideWalls
    {
        type            empty;
    }
    glass1
    {
        type            compressible::alphatWallFunction;
        Prt             0.85;
        value           nonuniform List<scalar> 9(0.000145873 0.000193654 0.000232914 0.000270028 0.000307469 0.000347024 0.000385674 0.000396321 0.000389604);
    }
    glass2
    {
        type            compressible::alphatWallFunction;
        Prt             0.85;
        value           nonuniform List<scalar> 2(0.000445736 0.00048877);
    }
    sun
    {
        type            compressible::alphatWallFunction;
        Prt             0.85;
        value           nonuniform List<scalar> 
14
(
0.000148702
0.000162184
0.000166209
0.000174041
0.000181144
0.000187743
0.00019418
0.00020089
0.000206577
0.000210574
0.000212066
0.000210127
0.000203586
0.000190398
)
;
    }
    heatsource1
    {
        type            compressible::alphatWallFunction;
        Prt             0.85;
        value           nonuniform List<scalar> 3(0.000110958 0.000135571 0.000195707);
    }
    heatsource2
    {
        type            compressible::alphatWallFunction;
        Prt             0.85;
        value           nonuniform List<scalar> 4(0.000174407 0.000105871 0.00010587 0.000175469);
    }
    Table_master
    {
        type            compressible::alphatWallFunction;
        Prt             0.85;
        value           nonuniform List<scalar> 9(0.000120655 0.000101875 8.73524e-05 7.58877e-05 6.66887e-05 5.92171e-05 5.31197e-05 4.82057e-05 4.44414e-05);
    }
    Table_slave
    {
        type            compressible::alphatWallFunction;
        Prt             0.85;
        value           nonuniform List<scalar> 9(0.000141498 0.000127311 0.000116071 0.000106813 9.88961e-05 9.18406e-05 8.5235e-05 7.86698e-05 7.15363e-05);
    }
    inlet
    {
        type            fixedValue;
        value           uniform 1.94e-05;
    }
    outlet
    {
        type            zeroGradient;
    }
}


// ************************************************************************* //
