/*--------------------------------*- C++ -*----------------------------------*\
  =========                 |
  \\      /  F ield         | OpenFOAM: The Open Source CFD Toolbox
   \\    /   O peration     | Website:  https://openfoam.org
    \\  /    A nd           | Version:  6
     \\/     M anipulation  |
\*---------------------------------------------------------------------------*/
FoamFile
{
    version     2.0;
    format      ascii;
    class       volScalarField;
    location    "300";
    object      nut;
}
// * * * * * * * * * * * * * * * * * * * * * * * * * * * * * * * * * * * * * //

dimensions      [0 2 -1 0 0 0 0];

internalField   nonuniform List<scalar> 
459
(
0.00066096
0.000683015
0.000621149
0.000639462
0.000661015
0.000681896
0.000702201
0.000722574
0.000744067
0.000764005
0.000781114
0.000794621
0.000803791
0.000807677
0.00080244
0.000271003
0.000262593
0.000248578
0.000234378
0.000227257
0.000226273
0.000230937
0.000239304
0.000247409
0.000253348
0.000255667
0.000255761
0.00025936
0.000268225
0.000284049
0.00030538
0.000322651
0.000376122
0.000336938
0.00112532
0.00216177
0.00168871
0.00232759
0.00257998
0.00278275
0.00296816
0.00312354
0.0032292
0.00329903
0.00331465
0.00324432
0.00303308
0.00258583
0.00179602
0.000873277
0.00054385
0.00037219
0.00110625
0.00109349
0.000951499
0.000847011
0.00079698
0.000801214
0.000856495
0.000908697
0.000938619
0.000948388
0.000955628
0.000971229
0.00102217
0.00112177
0.00128817
0.00125795
0.00145734
0.000488489
0.00155308
0.00371399
0.00187828
0.00316669
0.00389342
0.0041956
0.00440734
0.00456669
0.00467203
0.0047364
0.0047503
0.00467929
0.00445972
0.00398664
0.00314226
0.00198121
0.000909302
0.000549788
0.00140166
0.00111288
0.000798069
0.000591037
0.000441062
0.000317415
0.000331987
0.000349547
0.000369502
0.000393352
0.000423098
0.000462286
0.000516282
0.000594071
0.00158829
0.00169098
0.00197496
0.00060689
0.00197105
0.00575958
0.00255786
0.00313293
0.00433155
0.00479648
0.00505344
0.00523484
0.00536315
0.00547032
0.00557537
0.00565359
0.00564646
0.00544461
0.00487733
0.00375766
0.00212329
0.0008503
0.00194534
0.00233651
0.00192131
0.00150208
0.00114859
0.000834579
0.000582969
0.000575248
0.000570863
0.000569473
0.000572169
0.000580321
0.000595955
0.000622681
0.000667584
0.00179854
0.00174287
0.00154472
0.000672234
0.00236779
0.00804536
0.00427484
0.00336557
0.00415126
0.00472826
0.00509684
0.00534643
0.00550123
0.0056562
0.00586553
0.00612997
0.00642249
0.00667814
0.00679969
0.00668975
0.00630312
0.00568467
0.00523402
0.0047563
0.00438459
0.00412834
0.00390923
0.00369339
0.0034929
0.00335595
0.00322554
0.00309462
0.00296155
0.00282671
0.0026931
0.00256631
0.00244747
0.00232167
0.00200844
0.00166099
0.00133099
0.000787068
0.000750342
0.000616316
0.00274045
0.0101426
0.00709979
0.00504374
0.00449967
0.00457387
0.00487985
0.00517966
0.00533424
0.00548671
0.00570694
0.00603292
0.00647561
0.00698878
0.00746315
0.00775504
0.00776091
0.00745028
0.00695763
0.00644939
0.00604037
0.00572504
0.00547401
0.00526149
0.00506868
0.00488794
0.00471417
0.00454418
0.00437271
0.00419149
0.00398956
0.00375536
0.00347826
0.00314352
0.00273902
0.00231081
0.00193683
0.0016368
0.00134284
0.000771058
0.00304484
0.0113304
0.00982714
0.00769707
0.00632613
0.0055531
0.00530755
0.00532601
0.00534995
0.00538413
0.00547714
0.00568352
0.00605634
0.006608
0.00726249
0.00779642
0.00805702
0.0080004
0.00770333
0.00731027
0.00693245
0.00660465
0.0063286
0.00609237
0.00588089
0.00568494
0.00550213
0.00533151
0.00517102
0.00501569
0.00485679
0.00468105
0.00446774
0.00418146
0.00377171
0.00321598
0.00260994
0.00216339
0.00185907
0.0011612
0.00305753
0.0098603
0.0090054
0.00888376
0.00798504
0.00703907
0.00638816
0.00597853
0.00570129
0.00551427
0.00542133
0.00545119
0.00564385
0.00602965
0.00658077
0.00716073
0.0075933
0.00777043
0.00770242
0.00748234
0.00720633
0.00693012
0.00667801
0.00645347
0.0062513
0.00606636
0.00589639
0.00574044
0.00559838
0.00546855
0.00534851
0.00523665
0.00513045
0.00501949
0.00486405
0.0045635
0.00395955
0.00323026
0.0028964
0.00132506
0.00292472
0.00335254
0.00798626
0.00874041
0.00819752
0.00744563
0.0067608
0.00621738
0.00581521
0.00553388
0.00537614
0.0053549
0.00547091
0.00571455
0.00606174
0.00645841
0.0068186
0.00705734
0.00713917
0.00709045
0.00696355
0.00680377
0.00663988
0.00648342
0.00633835
0.00620524
0.00608312
0.00597011
0.00586496
0.0057648
0.00566702
0.00557103
0.00547838
0.00539093
0.00530626
0.00520878
0.00504804
0.00471541
0.00427019
0.00144117
0.0178188
0.0162906
0.0101627
0.00824001
0.00723025
0.00658504
0.00616715
0.00592156
0.00581648
0.00581413
0.00587851
0.00597978
0.0061004
0.00623764
0.00638557
0.00652223
0.00662143
0.0066736
0.00668448
0.00666686
0.0066333
0.00658913
0.00654152
0.00649468
0.00644966
0.00640428
0.00635365
0.00629407
0.00622392
0.00614266
0.0060501
0.00594573
0.00582767
0.0056894
0.00550649
0.00519953
0.00443436
0.0015823
0.00591647
0.0113332
0.00879288
0.00746971
0.00674094
0.00634163
0.00615578
0.00611867
0.00617963
0.00629204
0.0064172
0.00653093
0.00662436
0.0066999
0.0067622
0.00681382
0.00685595
0.00688962
0.00691584
0.00693618
0.00695259
0.00696648
0.00697928
0.0069919
0.00700437
0.00701314
0.00700101
0.00696709
0.00691435
0.00684426
0.00675511
0.00664132
0.00649283
0.00629368
0.00601745
0.00560832
0.00499186
0.00184691
0.00163571
0.00224988
0.00408581
0.00336057
0.00258316
0.00231437
0.00210793
0.00193963
0.00181443
0.00172661
0.00166906
0.00163494
0.00161788
0.00161199
0.00161241
0.00161558
0.00161934
0.00162254
0.00162452
0.00162504
0.00162431
0.00162273
0.0016207
0.00161864
0.00161663
0.00161469
0.00161275
0.00161063
0.00160924
0.00160721
0.0016037
0.0015984
0.00159109
0.00158126
0.00156778
0.00154854
0.00151994
0.0014769
0.00143637
0.00132406
)
;

boundaryField
{
    floor
    {
        type            nutkWallFunction;
        Cmu             0.09;
        kappa           0.41;
        E               9.8;
        value           nonuniform List<scalar> 
29
(
9.71938e-05
2.93397e-05
2.81715e-05
2.62185e-05
2.42241e-05
2.32185e-05
2.30795e-05
2.37402e-05
2.49205e-05
2.60584e-05
2.68892e-05
2.72131e-05
2.72262e-05
2.77278e-05
2.89591e-05
3.11434e-05
3.40622e-05
3.64053e-05
4.35617e-05
3.83288e-05
3.83287e-05
5.82016e-05
7.31805e-05
8.12994e-05
9.71938e-05
2.93396e-05
4.30346e-05
6.60054e-05
0.000102955
)
;
    }
    ceiling
    {
        type            nutkWallFunction;
        Cmu             0.09;
        kappa           0.41;
        E               9.8;
        value           nonuniform List<scalar> 
43
(
0.000193503
0.000260774
0.000451936
0.000377739
0.000296347
0.000267653
0.000245366
0.000227024
0.000213267
0.000203557
0.000197164
0.000193363
0.00019146
0.000190801
0.000190849
0.000191203
0.000191623
0.000191979
0.0001922
0.000192258
0.000192176
0.000191998
0.000191772
0.000191541
0.000191316
0.000191099
0.000190881
0.000190644
0.000190487
0.00019026
0.000189867
0.000189274
0.000188456
0.000187356
0.000185846
0.000183688
0.000180476
0.00017563
0.000171052
0.000158293
0.000332466
0.000377005
0.000633892
)
;
    }
    sWall
    {
        type            nutkWallFunction;
        Cmu             0.09;
        kappa           0.41;
        E               9.8;
        value           uniform 0.000193544;
    }
    nWall
    {
        type            nutkWallFunction;
        Cmu             0.09;
        kappa           0.41;
        E               9.8;
        value           nonuniform List<scalar> 6(7.43588e-05 9.33837e-05 0.000139588 0.000187482 0.000216835 0.000158303);
    }
    sideWalls
    {
        type            empty;
    }
    glass1
    {
        type            nutkWallFunction;
        Cmu             0.09;
        kappa           0.41;
        E               9.8;
        value           nonuniform List<scalar> 9(7.9859e-05 0.000135504 0.000184379 0.000230693 0.000273672 0.000313349 0.00034534 0.000346675 0.000332778);
    }
    glass2
    {
        type            nutkWallFunction;
        Cmu             0.09;
        kappa           0.41;
        E               9.8;
        value           nonuniform List<scalar> 2(0.000158432 0.00017162);
    }
    sun
    {
        type            nutkWallFunction;
        Cmu             0.09;
        kappa           0.41;
        E               9.8;
        value           nonuniform List<scalar> 
14
(
7.99025e-05
8.26256e-05
7.49627e-05
7.72404e-05
7.99112e-05
8.24887e-05
8.4986e-05
8.74831e-05
9.01083e-05
9.25358e-05
9.46127e-05
9.62486e-05
9.73574e-05
9.78267e-05
)
;
    }
    heatsource1
    {
        type            nutkWallFunction;
        Cmu             0.09;
        kappa           0.41;
        E               9.8;
        value           nonuniform List<scalar> 3(9.53395e-05 9.0875e-05 7.43602e-05);
    }
    heatsource2
    {
        type            nutkWallFunction;
        Cmu             0.09;
        kappa           0.41;
        E               9.8;
        value           nonuniform List<scalar> 4(0.000105712 6.52552e-05 6.52552e-05 0.000110011);
    }
    Table_master
    {
        type            nutkWallFunction;
        Cmu             0.09;
        kappa           0.41;
        E               9.8;
        value           nonuniform List<scalar> 9(3.56867e-05 3.76557e-05 4.00139e-05 4.26753e-05 4.58323e-05 4.97359e-05 5.48266e-05 6.17538e-05 7.158e-05);
    }
    Table_slave
    {
        type            nutkWallFunction;
        Cmu             0.09;
        kappa           0.41;
        E               9.8;
        value           nonuniform List<scalar> 9(7.01853e-05 6.92153e-05 6.86637e-05 6.84888e-05 6.88282e-05 6.98534e-05 7.18146e-05 7.51528e-05 8.07226e-05);
    }
    inlet
    {
        type            calculated;
        value           uniform 3.3541e-05;
    }
    outlet
    {
        type            calculated;
        value           nonuniform List<scalar> 2(0.00163571 0.00224988);
    }
}


// ************************************************************************* //
