/*--------------------------------*- C++ -*----------------------------------*\
  =========                 |
  \\      /  F ield         | OpenFOAM: The Open Source CFD Toolbox
   \\    /   O peration     | Website:  https://openfoam.org
    \\  /    A nd           | Version:  6
     \\/     M anipulation  |
\*---------------------------------------------------------------------------*/
FoamFile
{
    version     2.0;
    format      ascii;
    class       volScalarField;
    location    "1100";
    object      T;
}
// * * * * * * * * * * * * * * * * * * * * * * * * * * * * * * * * * * * * * //

dimensions      [0 0 0 1 0 0 0];

internalField   nonuniform List<scalar> 
459
(
311.311
311.187
311.104
311.042
310.99
310.946
310.907
310.868
310.828
310.788
310.746
310.699
310.646
310.578
310.47
304.711
304.736
304.755
304.771
304.8
304.84
304.869
304.85
304.832
304.819
304.809
304.805
304.803
304.793
304.785
304.788
304.779
304.761
304.777
311.353
311.129
310.966
310.847
310.758
310.694
310.651
310.617
310.591
310.571
310.556
310.541
310.523
310.489
310.335
308.948
307.698
304.987
304.988
304.993
304.99
304.984
304.999
305.019
305.019
305.012
305.01
305.011
305.014
305.025
305.067
305.114
305.176
305.169
305.189
305.401
311.372
311.029
310.734
310.516
310.358
310.258
310.217
310.21
310.231
310.271
310.32
310.368
310.403
310.38
310.016
308.631
306.591
305.372
305.333
305.342
305.355
305.353
305.324
305.178
305.245
305.317
305.389
305.465
305.549
305.642
305.754
305.91
306.092
306.077
306.041
306.017
311.388
310.932
310.457
310.103
309.87
309.742
309.705
309.753
309.857
309.988
310.121
310.238
310.298
310.124
309.374
307.592
306.18
305.986
305.912
306.051
306.184
306.31
306.418
306.493
306.543
306.557
306.568
306.578
306.586
306.594
306.6
306.604
306.605
306.594
306.614
306.634
306.673
311.403
310.865
310.169
309.694
309.481
309.406
309.388
309.479
309.639
309.83
310.019
310.161
310.133
309.751
308.745
307.156
306.473
306.402
306.4
306.446
306.507
306.565
306.611
306.645
306.666
306.681
306.693
306.704
306.716
306.728
306.741
306.754
306.769
306.783
306.803
306.824
306.845
306.864
306.884
306.904
311.419
310.844
309.918
309.442
309.384
309.374
309.382
309.46
309.617
309.805
309.974
310.052
309.901
309.347
308.254
307.019
306.66
306.627
306.644
306.67
306.7
306.73
306.756
306.774
306.787
306.796
306.804
306.811
306.82
306.828
306.838
306.849
306.861
306.872
306.884
306.895
306.907
306.922
306.944
306.968
311.437
310.88
309.872
309.454
309.452
309.466
309.501
309.56
309.668
309.802
309.908
309.902
309.647
308.997
307.943
307.03
306.825
306.821
306.851
306.881
306.903
306.919
306.928
306.933
306.935
306.935
306.936
306.936
306.937
306.939
306.942
306.946
306.95
306.954
306.956
306.958
306.961
306.968
306.985
307.006
311.484
311.061
310.198
309.589
309.561
309.534
309.565
309.621
309.689
309.766
309.808
309.735
309.428
308.769
307.818
307.126
306.996
307.019
307.069
307.108
307.129
307.136
307.134
307.127
307.117
307.107
307.097
307.089
307.08
307.073
307.067
307.062
307.057
307.051
307.045
307.036
307.027
307.021
307.023
307.034
311.63
311.643
311.697
310.229
309.816
309.558
309.524
309.585
309.641
309.682
309.684
309.585
309.288
308.706
307.891
307.335
307.226
307.253
307.317
307.358
307.376
307.375
307.364
307.347
307.327
307.307
307.287
307.267
307.249
307.231
307.214
307.198
307.182
307.167
307.15
307.131
307.11
307.088
307.07
307.057
314.382
311.846
310.562
309.693
309.436
309.469
309.53
309.562
309.553
309.466
309.232
308.704
308.14
307.801
307.665
307.625
307.634
307.644
307.642
307.629
307.607
307.581
307.552
307.522
307.491
307.462
307.432
307.403
307.375
307.346
307.318
307.29
307.261
307.23
307.196
307.159
307.121
307.081
314.355
313.917
312.013
310.194
309.374
309.345
309.39
309.422
309.421
309.367
309.171
308.819
308.498
308.296
308.176
308.099
308.036
307.986
307.943
307.902
307.861
307.82
307.779
307.737
307.696
307.654
307.613
307.571
307.53
307.488
307.447
307.406
307.364
307.319
307.272
307.22
307.162
307.098
318.903
318.265
316.352
316.01
315.06
311.799
309.3
309.205
309.234
309.271
309.285
309.263
309.131
308.959
308.812
308.706
308.625
308.557
308.489
308.418
308.347
308.275
308.206
308.138
308.072
308.009
307.947
307.886
307.826
307.767
307.708
307.65
307.592
307.533
307.473
307.411
307.345
307.269
307.175
307.047
)
;

boundaryField
{
    floor
    {
        type            wallHeatTransfer;
        Tinf            uniform 305.2;
        alphaWall       uniform 0.24;
        value           nonuniform List<scalar> 
29
(
309.947
304.876
304.891
304.905
304.917
304.937
304.965
304.989
304.981
304.968
304.955
304.942
304.932
304.926
304.919
304.914
304.915
304.911
304.9
304.911
304.911
305.353
305.874
306.446
309.947
304.876
305.044
305.34
305.864
)
;
    }
    ceiling
    {
        type            wallHeatTransfer;
        Tinf            uniform 303.2;
        alphaWall       uniform 0.24;
        value           nonuniform List<scalar> 
43
(
317.43
317.136
315.858
315.46
314.462
311.226
308.791
308.686
308.702
308.735
308.741
308.716
308.588
308.425
308.291
308.199
308.135
308.086
308.043
307.999
307.952
307.9
307.845
307.786
307.726
307.666
307.605
307.546
307.487
307.43
307.373
307.317
307.261
307.205
307.148
307.088
307.022
306.947
306.851
306.697
311.393
311.442
314.094
)
;
    }
    sWall
    {
        type            wallHeatTransfer;
        Tinf            uniform 315.2;
        alphaWall       uniform 0.36;
        value           uniform 318.404;
    }
    nWall
    {
        type            wallHeatTransfer;
        Tinf            uniform 307.2;
        alphaWall       uniform 0.36;
        value           nonuniform List<scalar> 6(306.961 307.007 307.036 307.094 307.109 307.067);
    }
    sideWalls
    {
        type            empty;
    }
    glass1
    {
        type            wallHeatTransfer;
        Tinf            uniform 315.2;
        alphaWall       uniform 4.3;
        value           nonuniform List<scalar> 9(313.331 313.227 313.152 313.091 313.035 312.98 312.92 312.864 312.846);
    }
    glass2
    {
        type            wallHeatTransfer;
        Tinf            uniform 307.2;
        alphaWall       uniform 4.3;
        value           nonuniform List<scalar> 2(307.144 307.148);
    }
    sun
    {
        type            wallHeatTransfer;
        Tinf            uniform 305.2;
        alphaWall       uniform 0.24;
        value           nonuniform List<scalar> 
14
(
310.965
310.829
310.735
310.662
310.601
310.548
310.5
310.453
310.406
310.357
310.304
310.246
310.177
310.087
)
;
    }
    heatsource1
    {
        type            fixedGradient;
        gradient        uniform 0;
    }
    heatsource2
    {
        type            fixedGradient;
        gradient        uniform 0;
    }
    Table_master
    {
        type            zeroGradient;
    }
    Table_slave
    {
        type            zeroGradient;
    }
    inlet
    {
        type            fixedValue;
        value           uniform 290.15;
    }
    outlet
    {
        type            zeroGradient;
    }
}


// ************************************************************************* //
