/*--------------------------------*- C++ -*----------------------------------*\
  =========                 |
  \\      /  F ield         | OpenFOAM: The Open Source CFD Toolbox
   \\    /   O peration     | Website:  https://openfoam.org
    \\  /    A nd           | Version:  6
     \\/     M anipulation  |
\*---------------------------------------------------------------------------*/
FoamFile
{
    version     2.0;
    format      ascii;
    class       volScalarField;
    location    "1600";
    object      nut;
}
// * * * * * * * * * * * * * * * * * * * * * * * * * * * * * * * * * * * * * //

dimensions      [0 2 -1 0 0 0 0];

internalField   nonuniform List<scalar> 
459
(
0.00228639
0.00213238
0.00199921
0.00189009
0.00179817
0.00171738
0.00164246
0.00156925
0.00149368
0.00141092
0.00131418
0.00118381
0.000949855
0.000809191
0.000786486
0.00017831
0.000193546
0.000179952
0.000171653
0.000168176
0.000159986
0.000148514
0.000147954
0.000159086
0.000175569
0.000194083
0.000211009
0.000216962
0.000211983
0.00021774
0.000232679
0.000227742
0.000233698
0.000238639
0.00269175
0.00281563
0.00274248
0.00263312
0.00255877
0.00248619
0.00239511
0.00228988
0.00218464
0.00209278
0.00202398
0.00183528
0.00145802
0.00134
0.00125017
0.000770719
0.00065537
0.000297286
0.000839243
0.00071506
0.000561153
0.000397349
0.000301886
0.000297264
0.000358556
0.00045165
0.000557365
0.000652935
0.000717407
0.000746689
0.000791357
0.000913415
0.00112767
0.00105638
0.00104525
0.000398065
0.00301972
0.00317403
0.00290284
0.00265198
0.0025282
0.00246991
0.00242854
0.00238919
0.00235397
0.00233422
0.0023225
0.00210534
0.00186392
0.00200608
0.00208012
0.00155591
0.000789166
0.000555383
0.00138359
0.00115457
0.000871321
0.000608654
0.000404218
0.000284191
0.000309917
0.000340879
0.000374941
0.000413295
0.000457677
0.000510942
0.000578958
0.000669734
0.00175468
0.00176306
0.00187648
0.000579983
0.00332441
0.00349175
0.00287493
0.00241108
0.00223547
0.00221902
0.00225663
0.00230395
0.00235999
0.00243784
0.00245361
0.00230132
0.00235748
0.00279784
0.00293961
0.00235374
0.00139012
0.00077904
0.00151261
0.00171742
0.00143877
0.001201
0.00101164
0.000850498
0.000687747
0.000687483
0.000687062
0.000687781
0.000691316
0.000699127
0.000712993
0.000736021
0.00077391
0.00206773
0.00190721
0.00149508
0.000693194
0.00364067
0.00374148
0.00270661
0.00215035
0.00224065
0.00238769
0.00231933
0.00228603
0.00235985
0.00248735
0.00250311
0.00248552
0.00288763
0.00379444
0.004502
0.00460901
0.00437826
0.00404943
0.00375519
0.00365766
0.00367156
0.00374827
0.00382551
0.00381037
0.00374485
0.00367254
0.0035812
0.00347773
0.00336835
0.00325761
0.00314868
0.00304356
0.0029364
0.00279463
0.0024026
0.00186998
0.00126638
0.000772995
0.000758181
0.00075695
0.00399608
0.00394758
0.00248035
0.00259117
0.00321461
0.00300626
0.00252417
0.00233124
0.00238522
0.00249888
0.00252022
0.00262041
0.00325646
0.00440189
0.00536763
0.00577044
0.00591187
0.00586733
0.00573385
0.00560241
0.00554301
0.00552192
0.00548873
0.00543835
0.00536055
0.00525188
0.00511871
0.00496786
0.00480443
0.00463146
0.00444998
0.00426034
0.00406218
0.00384466
0.0035753
0.00322762
0.00278365
0.002248
0.00163538
0.000906974
0.00442444
0.00423919
0.00233634
0.0028813
0.00338217
0.00309925
0.00269737
0.00246915
0.00247303
0.00253986
0.00253513
0.00266137
0.00334406
0.00450468
0.00562539
0.00633662
0.00678655
0.00698006
0.00699245
0.00692837
0.00684913
0.00676642
0.0066762
0.00657272
0.00644759
0.00629723
0.00612564
0.00593837
0.00573999
0.00553356
0.00532115
0.00510569
0.00489138
0.00467611
0.00443964
0.00414676
0.0037494
0.00317995
0.00234288
0.00104552
0.0049972
0.00504573
0.00356295
0.00228027
0.00315562
0.00313953
0.00308578
0.00287369
0.00276032
0.00271197
0.00261219
0.00263748
0.00315944
0.00411101
0.00539596
0.0065122
0.00723236
0.00763519
0.0077914
0.00781821
0.00778325
0.00770802
0.00759829
0.00745709
0.00728703
0.00709272
0.00688127
0.0066594
0.00643187
0.00620142
0.00596976
0.00573932
0.00551362
0.00529188
0.00506129
0.0047963
0.00445456
0.00395623
0.00310074
0.00118656
0.00589222
0.00724367
0.0112713
0.00391658
0.00331204
0.00395536
0.00404311
0.00385862
0.00352079
0.0032218
0.00290676
0.00276172
0.00302358
0.00349534
0.00442484
0.00582877
0.00701322
0.00767125
0.00800304
0.00817762
0.00826058
0.0082641
0.00819242
0.00805581
0.0078694
0.00764973
0.00741208
0.00716813
0.00692516
0.00668646
0.00645269
0.00622362
0.00599895
0.00577619
0.00554705
0.00529498
0.00498801
0.00455179
0.00373022
0.00135386
0.0220241
0.0127945
0.0055805
0.0053145
0.00553008
0.0056131
0.00524024
0.004494
0.003724
0.0033541
0.00335602
0.00350789
0.00396931
0.00482757
0.00587626
0.00674778
0.00742303
0.007932
0.00827773
0.00845988
0.00849302
0.0084065
0.00823603
0.00801572
0.00777356
0.00752939
0.0072948
0.00707418
0.00686648
0.00666742
0.00647138
0.00627199
0.00606086
0.00582432
0.00553521
0.00512532
0.00432801
0.00155841
0.00823649
0.00872565
0.00816062
0.00653638
0.00621828
0.00603181
0.00604674
0.00511871
0.00405505
0.00355522
0.00341655
0.00349876
0.00383649
0.00442266
0.00520932
0.00614404
0.00705052
0.00780268
0.00831553
0.0085714
0.00860792
0.00848859
0.00827812
0.00802978
0.00778186
0.0075582
0.00737026
0.00721937
0.0070992
0.00699834
0.00690247
0.00679563
0.0066601
0.00647509
0.00621297
0.00581828
0.00510756
0.00178277
0.00155624
0.00209312
0.00470851
0.00410613
0.003503
0.00289361
0.00234983
0.00185057
0.00160552
0.00159992
0.00152568
0.00145566
0.00140951
0.0013835
0.00137556
0.00138317
0.00140433
0.00144357
0.00151289
0.00160306
0.00169765
0.00178084
0.00184289
0.00188085
0.00189653
0.00189422
0.00187901
0.00185577
0.00182871
0.00180107
0.00177508
0.00175189
0.00173159
0.00171337
0.00169547
0.00167514
0.00164834
0.00160853
0.0015447
0.00133941
)
;

boundaryField
{
    floor
    {
        type            nutkWallFunction;
        Cmu             0.09;
        kappa           0.41;
        E               9.8;
        value           nonuniform List<scalar> 
29
(
9.52602e-05
1.61909e-05
1.84034e-05
1.64311e-05
1.5215e-05
1.47042e-05
1.34897e-05
1.17699e-05
1.16794e-05
1.33407e-05
1.57751e-05
1.84743e-05
2.09138e-05
2.17708e-05
2.10583e-05
2.18721e-05
2.39832e-05
2.32829e-05
2.41188e-05
2.48194e-05
2.48193e-05
4.64255e-05
6.9791e-05
8.38495e-05
9.52602e-05
1.61908e-05
3.29404e-05
6.66921e-05
9.42987e-05
)
;
    }
    ceiling
    {
        type            nutkWallFunction;
        Cmu             0.09;
        kappa           0.41;
        E               9.8;
        value           nonuniform List<scalar> 
43
(
0.000184878
0.000244239
0.000515922
0.000455057
0.000393215
0.000329595
0.000271564
0.000217004
0.000189975
0.000189431
0.00018114
0.000173251
0.000168027
0.000165074
0.000164174
0.000165043
0.000167451
0.000171896
0.000179719
0.000189838
0.000200384
0.000209604
0.000216447
0.000220616
0.000222331
0.000222071
0.000220394
0.000217835
0.000214853
0.000211805
0.000208935
0.00020637
0.000204124
0.000202103
0.000200116
0.000197856
0.000194871
0.000190426
0.000183279
0.000160058
0.000632544
0.000763557
0.000859024
)
;
    }
    sWall
    {
        type            nutkWallFunction;
        Cmu             0.09;
        kappa           0.41;
        E               9.8;
        value           uniform 0.000184904;
    }
    nWall
    {
        type            nutkWallFunction;
        Cmu             0.09;
        kappa           0.41;
        E               9.8;
        value           nonuniform List<scalar> 6(9.16703e-05 0.000109735 0.00012611 0.000184823 0.000209803 0.000160067);
    }
    sideWalls
    {
        type            empty;
    }
    glass1
    {
        type            nutkWallFunction;
        Cmu             0.09;
        kappa           0.41;
        E               9.8;
        value           nonuniform List<scalar> 9(0.000265113 0.000308428 0.000342968 0.000374707 0.000407339 0.000443668 0.000487029 0.000544373 0.000632742);
    }
    glass2
    {
        type            nutkWallFunction;
        Cmu             0.09;
        kappa           0.41;
        E               9.8;
        value           nonuniform List<scalar> 2(0.000142524 0.00016171);
    }
    sun
    {
        type            nutkWallFunction;
        Cmu             0.09;
        kappa           0.41;
        E               9.8;
        value           nonuniform List<scalar> 
14
(
0.000264989
0.000248328
0.000233822
0.000221861
0.000211729
0.000202779
0.000194441
0.000186256
0.000177767
0.00016842
0.000157426
0.000142564
0.000115247
9.81584e-05
)
;
    }
    heatsource1
    {
        type            nutkWallFunction;
        Cmu             0.09;
        kappa           0.41;
        E               9.8;
        value           nonuniform List<scalar> 3(9.36041e-05 9.18128e-05 9.16704e-05);
    }
    heatsource2
    {
        type            nutkWallFunction;
        Cmu             0.09;
        kappa           0.41;
        E               9.8;
        value           nonuniform List<scalar> 4(9.33278e-05 7.92308e-05 7.92308e-05 9.55331e-05);
    }
    Table_master
    {
        type            nutkWallFunction;
        Cmu             0.09;
        kappa           0.41;
        E               9.8;
        value           nonuniform List<scalar> 9(3.11383e-05 3.46507e-05 3.88301e-05 4.33718e-05 4.84235e-05 5.41965e-05 6.10347e-05 6.96417e-05 8.09444e-05);
    }
    Table_slave
    {
        type            nutkWallFunction;
        Cmu             0.09;
        kappa           0.41;
        E               9.8;
        value           nonuniform List<scalar> 9(8.31687e-05 8.31395e-05 8.30902e-05 8.31807e-05 8.3617e-05 8.4578e-05 8.62797e-05 8.90966e-05 9.37086e-05);
    }
    inlet
    {
        type            calculated;
        value           uniform 0.0220241;
    }
    outlet
    {
        type            calculated;
        value           nonuniform List<scalar> 2(0.00155624 0.00209312);
    }
}


// ************************************************************************* //
