/*--------------------------------*- C++ -*----------------------------------*\
  =========                 |
  \\      /  F ield         | OpenFOAM: The Open Source CFD Toolbox
   \\    /   O peration     | Website:  https://openfoam.org
    \\  /    A nd           | Version:  6
     \\/     M anipulation  |
\*---------------------------------------------------------------------------*/
FoamFile
{
    version     2.0;
    format      ascii;
    class       volScalarField;
    location    "1600";
    object      T;
}
// * * * * * * * * * * * * * * * * * * * * * * * * * * * * * * * * * * * * * //

dimensions      [0 0 0 1 0 0 0];

internalField   nonuniform List<scalar> 
459
(
312.084
311.951
311.857
311.783
311.721
311.663
311.605
311.546
311.483
311.413
311.328
311.182
310.541
309.591
308.287
304.749
304.785
304.806
304.828
304.864
304.896
304.907
304.891
304.879
304.871
304.866
304.866
304.862
304.849
304.852
304.874
304.865
304.866
304.986
312.162
311.926
311.746
311.619
311.529
311.457
311.397
311.347
311.304
311.262
311.204
310.839
309.606
307.957
306.839
306.491
306.361
304.984
305.011
305.035
305.055
305.072
305.093
305.103
305.1
305.098
305.101
305.11
305.128
305.173
305.247
305.364
305.537
305.55
305.515
305.661
312.206
311.842
311.521
311.292
311.141
311.056
311.019
311.021
311.047
311.077
311.052
310.518
309.152
307.576
306.646
306.34
306.203
305.334
305.375
305.436
305.477
305.49
305.479
305.374
305.447
305.527
305.614
305.709
305.816
305.936
306.086
306.275
306.448
306.453
306.454
306.311
312.241
311.754
311.23
310.841
310.588
310.488
310.52
310.634
310.776
310.903
310.863
310.172
308.693
307.209
306.579
306.363
306.189
306.033
305.948
306.184
306.373
306.515
306.613
306.663
306.7
306.711
306.72
306.73
306.741
306.753
306.766
306.781
306.796
306.805
306.829
306.849
306.874
312.276
311.694
310.902
310.318
309.995
309.933
310.082
310.32
310.57
310.769
310.662
309.861
308.398
307.191
306.785
306.686
306.636
306.595
306.573
306.641
306.718
306.776
306.814
306.833
306.844
306.851
306.859
306.867
306.877
306.889
306.904
306.92
306.938
306.955
306.973
306.989
307.001
307.013
307.029
307.049
312.312
311.681
310.565
309.85
309.729
309.764
309.924
310.181
310.457
310.642
310.481
309.643
308.271
307.281
306.979
306.928
306.922
306.92
306.925
306.94
306.961
306.979
306.988
306.992
306.992
306.992
306.992
306.994
306.998
307.004
307.012
307.023
307.035
307.046
307.055
307.061
307.066
307.075
307.091
307.112
312.351
311.733
310.324
309.827
309.812
309.862
309.967
310.153
310.379
310.525
310.352
309.558
308.302
307.437
307.179
307.143
307.163
307.183
307.199
307.209
307.214
307.212
307.204
307.192
307.179
307.166
307.155
307.146
307.14
307.137
307.136
307.137
307.14
307.142
307.141
307.139
307.135
307.135
307.142
307.154
312.414
311.932
310.692
310.026
310.003
310.021
310.049
310.157
310.31
310.419
310.282
309.621
308.518
307.702
307.43
307.383
307.415
307.455
307.486
307.501
307.501
307.488
307.466
307.439
307.41
307.382
307.357
307.335
307.316
307.3
307.287
307.276
307.267
307.258
307.247
307.234
307.219
307.204
307.195
307.189
312.59
312.626
312.691
310.824
310.58
310.319
310.138
310.136
310.231
310.317
310.235
309.696
308.867
308.249
307.94
307.803
307.756
307.783
307.815
307.828
307.821
307.797
307.762
307.721
307.678
307.635
307.595
307.558
307.525
307.494
307.466
307.441
307.417
307.394
307.371
307.345
307.316
307.284
307.253
307.222
316.427
313.232
312.118
311.075
310.385
310.098
310.122
310.198
310.166
309.784
309.242
308.828
308.573
308.419
308.314
308.264
308.237
308.212
308.179
308.135
308.084
308.028
307.971
307.914
307.86
307.808
307.758
307.711
307.667
307.624
307.584
307.544
307.504
307.462
307.417
307.368
307.314
307.255
316.228
315.504
314.201
312.637
311.205
310.228
309.982
310.045
310.068
309.847
309.547
309.305
309.132
309.005
308.907
308.813
308.726
308.645
308.568
308.493
308.419
308.345
308.273
308.202
308.132
308.064
307.998
307.934
307.871
307.81
307.75
307.691
307.633
307.573
307.511
307.443
307.366
307.279
319.228
318.707
317.507
317.212
316.698
315.845
314.14
311.22
309.773
309.804
309.899
309.826
309.704
309.592
309.499
309.419
309.347
309.275
309.198
309.115
309.028
308.938
308.846
308.753
308.66
308.567
308.475
308.384
308.294
308.205
308.118
308.032
307.948
307.864
307.781
307.697
307.609
307.512
307.394
307.238
)
;

boundaryField
{
    floor
    {
        type            wallHeatTransfer;
        Tinf            uniform 305.2;
        alphaWall       uniform 0.24;
        value           nonuniform List<scalar> 
29
(
307.876
304.9
304.918
304.937
304.955
304.98
305.003
305.014
305.004
304.992
304.982
304.973
304.968
304.964
304.957
304.957
304.969
304.964
304.963
305.048
305.048
305.562
306.126
306.628
307.876
304.9
305.039
305.311
305.92
)
;
    }
    ceiling
    {
        type            wallHeatTransfer;
        Tinf            uniform 303.2;
        alphaWall       uniform 0.24;
        value           nonuniform List<scalar> 
43
(
317.904
317.696
317.031
316.69
316.123
315.215
313.492
310.645
309.253
309.281
309.348
309.261
309.135
309.025
308.938
308.868
308.808
308.754
308.702
308.648
308.589
308.521
308.447
308.367
308.283
308.197
308.109
308.02
307.932
307.846
307.761
307.677
307.596
307.516
307.436
307.355
307.27
307.174
307.054
306.873
312.336
312.412
315.96
)
;
    }
    sWall
    {
        type            wallHeatTransfer;
        Tinf            uniform 315.2;
        alphaWall       uniform 0.36;
        value           uniform 318.748;
    }
    nWall
    {
        type            wallHeatTransfer;
        Tinf            uniform 307.2;
        alphaWall       uniform 0.36;
        value           nonuniform List<scalar> 6(307.078 307.127 307.161 307.249 307.271 307.233);
    }
    sideWalls
    {
        type            empty;
    }
    glass1
    {
        type            wallHeatTransfer;
        Tinf            uniform 315.2;
        alphaWall       uniform 4.3;
        value           nonuniform List<scalar> 9(313.747 313.675 313.622 313.579 313.54 313.503 313.464 313.433 313.458);
    }
    glass2
    {
        type            wallHeatTransfer;
        Tinf            uniform 307.2;
        alphaWall       uniform 4.3;
        value           nonuniform List<scalar> 2(307.196 307.208);
    }
    sun
    {
        type            wallHeatTransfer;
        Tinf            uniform 305.2;
        alphaWall       uniform 0.24;
        value           nonuniform List<scalar> 
14
(
311.673
311.524
311.413
311.324
311.249
311.177
311.107
311.034
310.956
310.869
310.762
310.584
309.917
309.015
)
;
    }
    heatsource1
    {
        type            fixedGradient;
        gradient        uniform 0;
    }
    heatsource2
    {
        type            fixedGradient;
        gradient        uniform 0;
    }
    Table_master
    {
        type            zeroGradient;
    }
    Table_slave
    {
        type            zeroGradient;
    }
    inlet
    {
        type            fixedValue;
        value           uniform 290.15;
    }
    outlet
    {
        type            zeroGradient;
    }
}


// ************************************************************************* //
