// -*- C++ -*-
// File generated by PyFoam - sorry for the ugliness

FoamFile
{
 version 2.0;
 format ascii;
 class volScalarField;
 location "500";
 object T;
}

dimensions [ 0 0 0 1 0 0 0 ];

internalField nonuniform List<scalar> 459
(
  304.743
  304.473
  304.471
  304.478
  304.484
  304.489
  304.493
  304.495
  304.497
  304.499
  304.496
  304.489
  304.478
  304.463
  304.443
  303.059
  303.077
  303.095
  303.068
  303.044
  303.045
  303.056
  303.049
  303.037
  303.031
  303.029
  303.031
  303.027
  303.024
  303.034
  303.074
  303.149
  303.145
  303.13
  304.952
  304.547
  304.53
  304.545
  304.561
  304.574
  304.586
  304.594
  304.599
  304.601
  304.595
  304.58
  304.553
  304.512
  304.457
  304.402
  304.256
  303.201
  303.231
  303.258
  303.27
  303.238
  303.203
  303.214
  303.201
  303.194
  303.195
  303.207
  303.235
  303.292
  303.356
  303.426
  303.492
  303.457
  303.398
  303.302
  305.147
  304.623
  304.586
  304.61
  304.636
  304.661
  304.683
  304.701
  304.714
  304.72
  304.715
  304.695
  304.657
  304.597
  304.515
  304.419
  304.334
  303.65
  303.624
  303.649
  303.703
  303.751
  303.718
  303.369
  303.395
  303.445
  303.498
  303.555
  303.616
  303.683
  303.777
  303.911
  304.08
  304.053
  304.035
  304.118
  305.326
  304.705
  304.639
  304.666
  304.704
  304.742
  304.777
  304.808
  304.833
  304.848
  304.849
  304.832
  304.792
  304.726
  304.629
  304.502
  304.346
  304.201
  304.086
  304.144
  304.223
  304.308
  304.37
  304.408
  304.438
  304.442
  304.446
  304.452
  304.458
  304.465
  304.472
  304.475
  304.469
  304.423
  304.415
  304.405
  304.393
  305.489
  304.793
  304.691
  304.713
  304.759
  304.807
  304.854
  304.899
  304.938
  304.966
  304.979
  304.973
  304.944
  304.891
  304.816
  304.725
  304.629
  304.544
  304.484
  304.467
  304.476
  304.491
  304.5
  304.504
  304.505
  304.505
  304.507
  304.511
  304.519
  304.529
  304.541
  304.554
  304.565
  304.571
  304.584
  304.597
  304.604
  304.625
  304.615
  304.614
  305.63
  304.891
  304.76
  304.755
  304.798
  304.85
  304.904
  304.958
  305.008
  305.05
  305.077
  305.085
  305.072
  305.035
  304.977
  304.902
  304.82
  304.743
  304.683
  304.643
  304.619
  304.603
  304.591
  304.58
  304.57
  304.562
  304.557
  304.557
  304.561
  304.571
  304.585
  304.603
  304.622
  304.64
  304.657
  304.672
  304.683
  304.689
  304.657
  304.631
  305.746
  305.036
  304.903
  304.844
  304.849
  304.888
  304.936
  304.988
  305.046
  305.1
  305.139
  305.16
  305.162
  305.145
  305.107
  305.051
  304.983
  304.912
  304.848
  304.794
  304.752
  304.719
  304.692
  304.669
  304.649
  304.631
  304.617
  304.606
  304.601
  304.604
  304.614
  304.631
  304.651
  304.67
  304.688
  304.702
  304.712
  304.714
  304.7
  304.64
  305.933
  305.38
  305.249
  305.129
  305.045
  305.017
  305.028
  305.059
  305.11
  305.156
  305.188
  305.207
  305.215
  305.212
  305.195
  305.162
  305.115
  305.058
  304.998
  304.941
  304.89
  304.846
  304.809
  304.776
  304.746
  304.719
  304.694
  304.671
  304.653
  304.642
  304.639
  304.646
  304.66
  304.678
  304.696
  304.713
  304.729
  304.746
  304.761
  304.786
  306.189
  305.955
  305.806
  305.649
  305.495
  305.391
  305.33
  305.299
  305.281
  305.272
  305.268
  305.266
  305.262
  305.256
  305.244
  305.226
  305.198
  305.161
  305.117
  305.069
  305.021
  304.975
  304.933
  304.895
  304.859
  304.824
  304.792
  304.76
  304.73
  304.705
  304.686
  304.674
  304.67
  304.671
  304.676
  304.681
  304.688
  304.697
  304.715
  304.784
  304.792
  305.403
  305.435
  305.409
  305.381
  305.36
  305.345
  305.332
  305.32
  305.309
  305.298
  305.286
  305.273
  305.258
  305.24
  305.217
  305.188
  305.155
  305.118
  305.08
  305.042
  305.004
  304.968
  304.932
  304.897
  304.861
  304.826
  304.793
  304.761
  304.734
  304.713
  304.7
  304.693
  304.691
  304.692
  304.694
  304.698
  304.71
  304.875
  305.298
  305.353
  305.364
  305.359
  305.35
  305.341
  305.332
  305.322
  305.312
  305.301
  305.289
  305.277
  305.264
  305.25
  305.233
  305.214
  305.191
  305.166
  305.138
  305.109
  305.078
  305.046
  305.014
  304.981
  304.948
  304.915
  304.88
  304.845
  304.811
  304.781
  304.758
  304.741
  304.73
  304.722
  304.715
  304.708
  304.713
  305.929
  305.449
  304.929
  305.172
  305.267
  305.298
  305.305
  305.303
  305.299
  305.292
  305.284
  305.276
  305.268
  305.258
  305.248
  305.237
  305.225
  305.212
  305.198
  305.183
  305.167
  305.149
  305.129
  305.108
  305.086
  305.062
  305.037
  305.01
  304.983
  304.954
  304.923
  304.892
  304.862
  304.833
  304.809
  304.786
  304.765
  304.743
  304.72
  304.718
)
;

boundaryField
{
  floor
  {
    type wallHeatTransfer;
    Tinf uniform 305.2;
    alphaWall uniform 0.24;
    value nonuniform List<scalar> 29
(
  304.534
  303.586
  303.568
  303.58
  303.626
  303.674
  303.708
  303.732
  303.699
  303.662
  303.629
  303.606
  303.594
  303.593
  303.595
  303.599
  303.608
  303.632
  303.639
  303.66
  303.66
  303.718
  304.289
  304.497
  304.534
  303.586
  303.597
  303.871
  304.31
)
;
  }
  ceiling
  {
    type wallHeatTransfer;
    Tinf uniform 303.2;
    alphaWall uniform 0.24;
    value nonuniform List<scalar> 43
(
  305.732
  305.314
  304.848
  305.077
  305.158
  305.177
  305.173
  305.161
  305.146
  305.129
  305.113
  305.097
  305.082
  305.067
  305.054
  305.041
  305.03
  305.019
  305.008
  304.997
  304.983
  304.968
  304.95
  304.931
  304.91
  304.888
  304.865
  304.841
  304.816
  304.789
  304.762
  304.733
  304.705
  304.679
  304.655
  304.632
  304.611
  304.588
  304.568
  304.56
  306.051
  305.844
  304.81
)
;
  }
  sWall
  {
    type wallHeatTransfer;
    Tinf uniform 315.2;
    alphaWall uniform 0.36;
    value uniform 306.898;
  }
  nWall
  {
    type wallHeatTransfer;
    Tinf uniform 307.2;
    alphaWall uniform 0.36;
    value nonuniform List<scalar> 6
(
  305.058
  305.056
  305.064
  304.992
  305.001
  305.087
)
;
  }
  sideWalls
  {
    type empty;
  }
  glass1
  {
    type wallHeatTransfer;
    Tinf uniform 315.2;
    alphaWall uniform 4.3;
    value nonuniform List<scalar> 9
(
  312.645
  311.803
  311.258
  310.857
  310.561
  310.332
  310.152
  310.207
  310.409
)
;
  }
  glass2
  {
    type wallHeatTransfer;
    Tinf uniform 307.2;
    alphaWall uniform 4.3;
    value nonuniform List<scalar> 2
(
  306.312
  306.245
)
;
  }
  sun
  {
    type wallHeatTransfer;
    Tinf uniform 305.2;
    alphaWall uniform 0.24;
    value nonuniform List<scalar> 14
(
  304.809
  304.575
  304.578
  304.582
  304.584
  304.586
  304.587
  304.587
  304.587
  304.586
  304.583
  304.575
  304.565
  304.551
)
;
  }
  heatsource1
  {
    type fixedGradient;
    gradient uniform 0;
  }
  heatsource2
  {
    type fixedGradient;
    gradient uniform 0;
  }
  Table_master
  {
    type zeroGradient;
  }
  Table_slave
  {
    type zeroGradient;
  }
  inlet
  {
    type fixedValue;
    value uniform 299.15;
  }
  outlet
  {
    type zeroGradient;
  }
} 	// ************************************************************************* //

