/*--------------------------------*- C++ -*----------------------------------*\
  =========                 |
  \\      /  F ield         | OpenFOAM: The Open Source CFD Toolbox
   \\    /   O peration     | Website:  https://openfoam.org
    \\  /    A nd           | Version:  6
     \\/     M anipulation  |
\*---------------------------------------------------------------------------*/
FoamFile
{
    version     2.0;
    format      ascii;
    class       volScalarField;
    location    "300";
    object      epsilon;
}
// * * * * * * * * * * * * * * * * * * * * * * * * * * * * * * * * * * * * * //

dimensions      [0 2 -3 0 0 0 0];

internalField   nonuniform List<scalar> 
459
(
0.00019025
0.000229782
0.000196254
0.000178995
0.000160674
0.00015019
0.000147878
0.000147312
0.000147426
0.000148042
0.000148851
0.000149423
0.000148808
0.00014528
0.000135455
1.17188e-05
8.84896e-06
5.09009e-06
3.59648e-06
3.19765e-06
3.20944e-06
3.41961e-06
3.73391e-06
3.93874e-06
3.99362e-06
3.91571e-06
4.17477e-06
5.07426e-06
7.3159e-06
1.18035e-05
2.20062e-05
2.55132e-05
3.88982e-05
2.97968e-05
0.000692949
0.000938484
0.000515804
0.000469805
0.000333513
0.00021576
0.000151326
0.000124331
0.000110764
0.000105494
0.000106818
0.000113336
0.000123079
0.000132997
0.000141767
0.000176543
5.30616e-05
3.05429e-05
2.30743e-05
1.42535e-05
1.02377e-05
8.79518e-06
8.21173e-06
8.26299e-06
9.4112e-06
1.05715e-05
1.18467e-05
1.35668e-05
1.62864e-05
2.11323e-05
2.96863e-05
4.28863e-05
5.46236e-05
7.92526e-05
0.000173519
8.05788e-05
0.0013234
0.00267934
0.00193331
0.00217227
0.00160379
0.00101097
0.000580351
0.000311805
0.000204289
0.000151656
0.000130792
0.00012777
0.000133895
0.000142809
0.000150054
0.000158354
0.000188975
6.34547e-05
4.21499e-05
2.15456e-05
1.64857e-05
1.49245e-05
1.36705e-05
9.98798e-06
1.17666e-05
1.4266e-05
1.76788e-05
2.25451e-05
2.99052e-05
4.17198e-05
6.20241e-05
9.94236e-05
6.89018e-05
0.000103868
0.000255319
0.000124271
0.00145202
0.00229527
0.00236618
0.00275663
0.00292185
0.00266577
0.00203919
0.00114371
0.000567698
0.000299034
0.000200043
0.000168159
0.000163563
0.000168077
0.00017097
0.000167205
0.000160969
0.000172551
6.35276e-05
4.78826e-05
3.72181e-05
3.91619e-05
4.53531e-05
5.53458e-05
7.35956e-05
7.04879e-05
6.85878e-05
6.77439e-05
6.83004e-05
7.0787e-05
7.62197e-05
8.70157e-05
0.000109617
6.38319e-05
8.42058e-05
0.000150675
0.000103357
0.00686162
0.00572356
0.00435571
0.00346445
0.00302268
0.00274827
0.00240299
0.00192984
0.0013901
0.000707617
0.000360637
0.000252121
0.000224283
0.000226538
0.000233295
0.000230231
0.000209348
0.000167412
0.000113023
8.063e-05
7.00641e-05
6.77258e-05
6.69607e-05
6.61705e-05
6.45845e-05
6.1681e-05
5.91285e-05
5.71583e-05
5.59019e-05
5.5541e-05
5.63606e-05
5.88415e-05
6.32873e-05
6.67606e-05
7.22329e-05
7.95168e-05
9.26914e-05
9.32218e-05
0.000103631
0.000117161
0.0136363
0.0102807
0.00647046
0.00425179
0.00313303
0.00256994
0.00218415
0.00180653
0.00141368
0.00101949
0.000645615
0.000390489
0.000304675
0.000298671
0.000316437
0.000330287
0.000320676
0.000280839
0.000226846
0.000180915
0.000152445
0.000135604
0.000125457
0.000118388
0.000112208
0.000106311
0.000101085
9.66247e-05
9.2949e-05
9.01343e-05
8.83493e-05
8.79819e-05
8.96485e-05
9.29907e-05
9.54117e-05
9.53022e-05
9.68544e-05
0.000112536
0.000155145
0.000231721
0.0181885
0.0166932
0.00944955
0.00490264
0.00310589
0.00233816
0.00191441
0.00157775
0.00125797
0.000958456
0.000705653
0.000534646
0.00039533
0.000364868
0.000390753
0.000430837
0.000451739
0.000434819
0.00038794
0.000333703
0.000288064
0.000254094
0.000230309
0.000213361
0.000200227
0.000189312
0.000180043
0.000172074
0.000165205
0.000159427
0.000154929
0.000152172
0.000151773
0.000153278
0.000153479
0.000149197
0.000144637
0.00016449
0.000251639
0.000387257
0.0245845
0.0300993
0.0241119
0.00562256
0.00261976
0.00199672
0.00163782
0.0013571
0.0010956
0.000856326
0.000656552
0.000513306
0.000434175
0.00040724
0.000436299
0.000511783
0.000585214
0.000616724
0.000600766
0.000554185
0.000498665
0.000447875
0.000407464
0.000377231
0.000354632
0.000337136
0.000323044
0.000311168
0.000300794
0.00029167
0.00028394
0.000278066
0.000274484
0.000272456
0.00026863
0.000257794
0.000238956
0.00024245
0.000377623
0.000584034
0.0357483
0.0651527
0.0677186
0.0178423
0.00326079
0.00197309
0.00147187
0.00120357
0.000980642
0.000783211
0.000620486
0.000501648
0.00043387
0.000427747
0.000481943
0.000593966
0.000730762
0.000840234
0.000888721
0.000878465
0.000832595
0.000774973
0.000721135
0.000677564
0.000644784
0.000620698
0.000602602
0.000588101
0.00057553
0.000564065
0.000553619
0.000544554
0.000537069
0.000530046
0.000519793
0.000500027
0.00046461
0.000428006
0.000514373
0.000858149
0.143115
0.0490996
0.00600534
0.00264414
0.00166049
0.00124403
0.00101957
0.000847189
0.000712795
0.000620404
0.000576391
0.000590769
0.000674841
0.000840487
0.00108139
0.00130949
0.00145834
0.00151223
0.00149488
0.00144184
0.00138153
0.00132957
0.00129113
0.00126516
0.001248
0.00123566
0.00122501
0.00121433
0.00120319
0.00119208
0.00118142
0.00117026
0.00115455
0.00112581
0.00107093
0.000984589
0.000976823
0.00136923
0.0258697
0.00808774
0.00433858
0.00223274
0.00144635
0.00110824
0.000985623
0.000915861
0.000891883
0.000923297
0.00102591
0.00122108
0.00153819
0.00199481
0.00251433
0.00294716
0.00319643
0.00326114
0.00320403
0.00309819
0.00299579
0.00292219
0.00288241
0.00286998
0.00287398
0.00288374
0.0028914
0.00289294
0.00288791
0.00287815
0.00286548
0.00284863
0.00282006
0.00276494
0.00266907
0.00255117
0.00271875
0.00243567
0.00068249
0.000662004
0.00366936
0.00241173
0.00164269
0.00155988
0.0015719
0.00144895
0.00137003
0.0012977
0.00124136
0.00120662
0.00119678
0.00121405
0.00125973
0.00133515
0.00143963
0.00157638
0.0017041
0.00179242
0.0018327
0.00183368
0.00181135
0.0017805
0.00175074
0.00172606
0.00170632
0.00168923
0.00167218
0.00165339
0.00163244
0.00160992
0.00158663
0.00156222
0.00153367
0.00149433
0.00143416
0.00134424
0.0012437
0.000885686
)
;

boundaryField
{
    floor
    {
        Cmu             0.09;
        kappa           0.41;
        E               9.8;
        type            epsilonWallFunction;
        value           nonuniform List<scalar> 
29
(
0.000135455
1.17188e-05
8.84896e-06
5.09009e-06
3.59648e-06
3.19765e-06
3.20944e-06
3.41961e-06
3.73391e-06
3.93874e-06
3.99362e-06
3.91571e-06
4.17477e-06
5.07426e-06
7.3159e-06
1.18035e-05
2.20062e-05
2.55132e-05
3.88982e-05
2.97968e-05
2.97968e-05
8.05788e-05
0.000124271
0.000103357
0.000135455
1.17188e-05
3.05429e-05
6.34547e-05
0.000172551
)
;
    }
    ceiling
    {
        Cmu             0.09;
        kappa           0.41;
        E               9.8;
        type            epsilonWallFunction;
        value           nonuniform List<scalar> 
43
(
0.00068249
0.000662004
0.00366936
0.00241173
0.00164269
0.00155988
0.0015719
0.00144895
0.00137003
0.0012977
0.00124136
0.00120662
0.00119678
0.00121405
0.00125973
0.00133515
0.00143963
0.00157638
0.0017041
0.00179242
0.0018327
0.00183368
0.00181135
0.0017805
0.00175074
0.00172606
0.00170632
0.00168923
0.00167218
0.00165339
0.00163244
0.00160992
0.00158663
0.00156222
0.00153367
0.00149433
0.00143416
0.00134424
0.0012437
0.000885686
0.0357483
0.0651527
0.0258697
)
;
    }
    sWall
    {
        Cmu             0.09;
        kappa           0.41;
        E               9.8;
        type            epsilonWallFunction;
        value           uniform 0.00068249;
    }
    nWall
    {
        Cmu             0.09;
        kappa           0.41;
        E               9.8;
        type            epsilonWallFunction;
        value           nonuniform List<scalar> 6(0.000117161 0.000231721 0.000387257 0.00136923 0.00243567 0.000885686);
    }
    sideWalls
    {
        type            empty;
    }
    glass1
    {
        Cmu             0.09;
        kappa           0.41;
        E               9.8;
        type            epsilonWallFunction;
        value           nonuniform List<scalar> 9(0.00019025 0.000692949 0.0013234 0.00145202 0.00686162 0.0136363 0.0181885 0.0245845 0.0357483);
    }
    glass2
    {
        Cmu             0.09;
        kappa           0.41;
        E               9.8;
        type            epsilonWallFunction;
        value           nonuniform List<scalar> 2(0.000584034 0.000858149);
    }
    sun
    {
        Cmu             0.09;
        kappa           0.41;
        E               9.8;
        type            epsilonWallFunction;
        value           nonuniform List<scalar> 
14
(
0.00019025
0.000229782
0.000196254
0.000178995
0.000160674
0.00015019
0.000147878
0.000147312
0.000147426
0.000148042
0.000148851
0.000149423
0.000148808
0.00014528
)
;
    }
    heatsource1
    {
        Cmu             0.09;
        kappa           0.41;
        E               9.8;
        type            epsilonWallFunction;
        value           nonuniform List<scalar> 3(9.32218e-05 0.000103631 0.000117161);
    }
    heatsource2
    {
        Cmu             0.09;
        kappa           0.41;
        E               9.8;
        type            epsilonWallFunction;
        value           nonuniform List<scalar> 4(0.000176543 5.30616e-05 5.30616e-05 0.000188975);
    }
    Table_master
    {
        Cmu             0.09;
        kappa           0.41;
        E               9.8;
        type            epsilonWallFunction;
        value           nonuniform List<scalar> 9(9.98798e-06 1.17666e-05 1.4266e-05 1.76788e-05 2.25451e-05 2.99052e-05 4.17198e-05 6.20241e-05 9.94236e-05);
    }
    Table_slave
    {
        Cmu             0.09;
        kappa           0.41;
        E               9.8;
        type            epsilonWallFunction;
        value           nonuniform List<scalar> 9(7.35956e-05 7.04879e-05 6.85878e-05 6.77439e-05 6.83004e-05 7.0787e-05 7.62197e-05 8.70157e-05 0.000109617);
    }
    inlet
    {
        type            turbulentMixingLengthDissipationRateInlet;
        mixingLength    0.01;
        phi             phi;
        k               k;
        value           uniform 0.143115;
    }
    outlet
    {
        type            zeroGradient;
    }
}


// ************************************************************************* //
