/*--------------------------------*- C++ -*----------------------------------*\
  =========                 |
  \\      /  F ield         | OpenFOAM: The Open Source CFD Toolbox
   \\    /   O peration     | Website:  https://openfoam.org
    \\  /    A nd           | Version:  6
     \\/     M anipulation  |
\*---------------------------------------------------------------------------*/
FoamFile
{
    version     2.0;
    format      ascii;
    class       volScalarField;
    location    "570";
    object      epsilon;
}
// * * * * * * * * * * * * * * * * * * * * * * * * * * * * * * * * * * * * * //

dimensions      [0 2 -3 0 0 0 0];

internalField   nonuniform List<scalar> 
459
(
0.000230025
0.000295906
0.000315773
0.000362206
0.00040775
0.000452755
0.000498814
0.000548512
0.000598225
0.000638631
0.000661359
0.000656612
0.000615208
0.000531949
0.000419838
7.80171e-05
0.000126321
9.50682e-05
6.89042e-05
4.94007e-05
3.53008e-05
2.5566e-05
1.92721e-05
1.48441e-05
1.16144e-05
9.22184e-06
7.40735e-06
6.0298e-06
4.96325e-06
4.10042e-06
3.39488e-06
3.67e-06
1.46471e-05
3.839e-05
0.000565679
0.000835887
0.000276209
0.000268629
0.000274847
0.000286558
0.000305967
0.000336762
0.000377638
0.000420648
0.000455351
0.000470658
0.000458465
0.000418658
0.000376832
0.000483614
9.8734e-05
0.000202512
0.000383249
0.000174479
0.000108229
7.41972e-05
5.2642e-05
3.95722e-05
2.96281e-05
2.20651e-05
1.65047e-05
1.24836e-05
9.57353e-06
7.46191e-06
5.95779e-06
5.00044e-06
4.74644e-06
1.56547e-05
7.09173e-05
6.99381e-05
0.00102838
0.00203324
0.000321405
0.000244526
0.000244153
0.000257962
0.000283114
0.000321785
0.00037294
0.00042796
0.000475615
0.000507824
0.000518307
0.000502747
0.000464226
0.000421526
0.000400929
0.000343349
0.000272056
0.000183928
0.000134461
0.000101133
7.8779e-05
0.000114872
7.10463e-05
4.66963e-05
3.21989e-05
2.31035e-05
1.71575e-05
1.31521e-05
1.04141e-05
8.57811e-06
6.6224e-06
1.41119e-05
8.84581e-05
9.4994e-05
0.00166956
0.00421512
0.00047578
0.00023246
0.000221248
0.000236727
0.00026576
0.000312908
0.000378126
0.000442725
0.000496063
0.000537356
0.000562531
0.000561926
0.000527602
0.000469618
0.000413481
0.000797116
0.000504032
0.000317085
0.000216511
0.000156444
0.000117832
9.54022e-05
0.000190257
0.000139281
0.000105498
8.21146e-05
6.52476e-05
5.25308e-05
4.24447e-05
3.39652e-05
2.62306e-05
1.42116e-05
1.54201e-05
0.00011337
0.000114613
0.00255889
0.00759973
0.00089238
0.000244991
0.000201195
0.000214824
0.000250938
0.000322377
0.000419113
0.000492944
0.000546137
0.000590249
0.000621352
0.000617781
0.000569302
0.000487553
0.000393332
0.000333698
0.000271275
0.000216477
0.000171193
0.000135129
0.000108082
9.03057e-05
8.70034e-05
7.69225e-05
6.59058e-05
5.58328e-05
4.71283e-05
3.96558e-05
3.31094e-05
2.71805e-05
2.15325e-05
1.57773e-05
1.4905e-05
5.47264e-05
9.78177e-05
0.000101919
0.00018929
0.000590489
0.00380576
0.0114906
0.00199067
0.000381592
0.000225041
0.000216534
0.000254289
0.000395012
0.00053121
0.000600688
0.000645693
0.000688677
0.000721381
0.000715109
0.000649187
0.000536633
0.000415605
0.000320618
0.000252266
0.000200563
0.000160064
0.000128728
0.000105805
9.04165e-05
8.10715e-05
7.26111e-05
6.42583e-05
5.63766e-05
4.91673e-05
4.25679e-05
3.64171e-05
3.05866e-05
2.50531e-05
2.03076e-05
1.88017e-05
2.54325e-05
5.80161e-05
0.000182022
0.000891647
0.00141181
0.00541009
0.0139894
0.00455275
0.00125893
0.000626388
0.000459241
0.000472789
0.000677315
0.000761543
0.000786767
0.000808697
0.000847953
0.000886067
0.000878084
0.000791704
0.000642863
0.000484874
0.000359642
0.000272928
0.000211948
0.000167542
0.000136166
0.00011492
0.000101032
9.18253e-05
8.43145e-05
7.73628e-05
7.09171e-05
6.50088e-05
5.95185e-05
5.4257e-05
4.90592e-05
4.3843e-05
3.88398e-05
3.537e-05
3.75052e-05
7.95936e-05
0.000566495
0.00285631
0.00329967
0.00594618
0.0180218
0.00900997
0.00502788
0.00294553
0.00191757
0.00155505
0.00133826
0.00117606
0.00107899
0.0010573
0.00109717
0.0011485
0.00113784
0.00101796
0.000813081
0.000600879
0.000434593
0.000325579
0.000254443
0.000206941
0.000179044
0.000160158
0.000147922
0.000139965
0.000134264
0.000129818
0.000126391
0.000123901
0.00012218
0.000120935
0.000119699
0.000117729
0.000113845
0.000107535
0.000107834
0.000194101
0.00119216
0.00993171
0.00799683
0.00565073
0.0101453
0.00774717
0.00570347
0.00417092
0.00310488
0.00239444
0.00187915
0.00154967
0.00140142
0.00140323
0.00149589
0.00158596
0.00156562
0.00138014
0.00108284
0.000803261
0.000597729
0.000485523
0.000421014
0.000383838
0.000357378
0.000339902
0.000329211
0.000323729
0.00032212
0.000323542
0.00032768
0.000334462
0.000343804
0.000355372
0.000368232
0.000380418
0.000388543
0.000387003
0.000381409
0.000518434
0.0019709
0.0135278
0.0108013
0.00234859
0.00291155
0.00273354
0.00233969
0.00196752
0.00173975
0.00172868
0.00186668
0.0020866
0.00232864
0.00248049
0.00241394
0.002101
0.00167393
0.00139218
0.00121291
0.0011269
0.00108296
0.00105105
0.00102907
0.00101478
0.00100755
0.00100726
0.0010137
0.00102666
0.00104619
0.00107272
0.00110692
0.00114925
0.00119885
0.00125219
0.00130443
0.00133378
0.00131338
0.00145725
0.00281635
0.00978978
0.00638767
0.00134058
0.00231556
0.00248104
0.00246092
0.00264346
0.00312964
0.00360785
0.00399042
0.00438976
0.00485456
0.00516918
0.00511724
0.00470109
0.00418739
0.00375747
0.00345254
0.00326684
0.00315894
0.00309532
0.00305446
0.00302914
0.00301874
0.00302416
0.00304514
0.00308048
0.00312948
0.00319283
0.00327272
0.00337196
0.00349089
0.00361787
0.00370642
0.00366992
0.00347044
0.00329831
0.00375925
0.00529648
0.00368922
0.000809378
0.000994143
0.00120573
0.00155663
0.00158471
0.00148048
0.00138378
0.00131225
0.0013834
0.00153439
0.00178826
0.002124
0.00236924
0.00247635
0.00242492
0.00229841
0.00219049
0.002117
0.00206602
0.00203233
0.00201014
0.0019968
0.00199059
0.00199054
0.0019958
0.00200555
0.00201904
0.00203573
0.00205526
0.00207717
0.00210027
0.00212098
0.00213004
0.00211282
0.00206565
0.00203689
0.00215205
0.00249811
0.00283093
0.0020917
)
;

boundaryField
{
    floor
    {
        Cmu             0.09;
        kappa           0.41;
        E               9.8;
        type            epsilonWallFunction;
        value           nonuniform List<scalar> 
29
(
0.000419838
7.80171e-05
0.000126321
9.50682e-05
6.89042e-05
4.94007e-05
3.53008e-05
2.5566e-05
1.92721e-05
1.48441e-05
1.16144e-05
9.22184e-06
7.40735e-06
6.0298e-06
4.96325e-06
4.10042e-06
3.39488e-06
3.67e-06
1.46471e-05
3.839e-05
3.839e-05
6.99381e-05
9.4994e-05
0.000114613
0.000419838
7.80171e-05
0.000202512
0.000343349
0.000797116
)
;
    }
    ceiling
    {
        Cmu             0.09;
        kappa           0.41;
        E               9.8;
        type            epsilonWallFunction;
        value           nonuniform List<scalar> 
43
(
0.000809378
0.000994143
0.00120573
0.00155663
0.00158471
0.00148048
0.00138378
0.00131225
0.0013834
0.00153439
0.00178826
0.002124
0.00236924
0.00247635
0.00242492
0.00229841
0.00219049
0.002117
0.00206602
0.00203233
0.00201014
0.0019968
0.00199059
0.00199054
0.0019958
0.00200555
0.00201904
0.00203573
0.00205526
0.00207717
0.00210027
0.00212098
0.00213004
0.00211282
0.00206565
0.00203689
0.00215205
0.00249811
0.00283093
0.0020917
0.00565073
0.0101453
0.00134058
)
;
    }
    sWall
    {
        Cmu             0.09;
        kappa           0.41;
        E               9.8;
        type            epsilonWallFunction;
        value           uniform 0.000809378;
    }
    nWall
    {
        Cmu             0.09;
        kappa           0.41;
        E               9.8;
        type            epsilonWallFunction;
        value           nonuniform List<scalar> 6(0.000590489 0.00141181 0.00329967 0.00638767 0.00368922 0.0020917);
    }
    sideWalls
    {
        type            empty;
    }
    glass1
    {
        Cmu             0.09;
        kappa           0.41;
        E               9.8;
        type            epsilonWallFunction;
        value           nonuniform List<scalar> 9(0.000230025 0.000565679 0.00102838 0.00166956 0.00255889 0.00380576 0.00541009 0.00594618 0.00565073);
    }
    glass2
    {
        Cmu             0.09;
        kappa           0.41;
        E               9.8;
        type            epsilonWallFunction;
        value           nonuniform List<scalar> 2(0.00799683 0.0108013);
    }
    sun
    {
        Cmu             0.09;
        kappa           0.41;
        E               9.8;
        type            epsilonWallFunction;
        value           nonuniform List<scalar> 
14
(
0.000230025
0.000295906
0.000315773
0.000362206
0.00040775
0.000452755
0.000498814
0.000548512
0.000598225
0.000638631
0.000661359
0.000656612
0.000615208
0.000531949
)
;
    }
    heatsource1
    {
        Cmu             0.09;
        kappa           0.41;
        E               9.8;
        type            epsilonWallFunction;
        value           nonuniform List<scalar> 3(0.000101919 0.00018929 0.000590489);
    }
    heatsource2
    {
        Cmu             0.09;
        kappa           0.41;
        E               9.8;
        type            epsilonWallFunction;
        value           nonuniform List<scalar> 4(0.000483614 9.8734e-05 9.8734e-05 0.000400929);
    }
    Table_master
    {
        Cmu             0.09;
        kappa           0.41;
        E               9.8;
        type            epsilonWallFunction;
        value           nonuniform List<scalar> 9(0.000114872 7.10463e-05 4.66963e-05 3.21989e-05 2.31035e-05 1.71575e-05 1.31521e-05 1.04141e-05 8.57811e-06);
    }
    Table_slave
    {
        Cmu             0.09;
        kappa           0.41;
        E               9.8;
        type            epsilonWallFunction;
        value           nonuniform List<scalar> 9(0.000190257 0.000139281 0.000105498 8.21146e-05 6.52476e-05 5.25308e-05 4.24447e-05 3.39652e-05 2.62306e-05);
    }
    inlet
    {
        type            turbulentMixingLengthDissipationRateInlet;
        mixingLength    0.01;
        phi             phi;
        k               k;
        value           uniform 0.000101881;
    }
    outlet
    {
        type            zeroGradient;
    }
}


// ************************************************************************* //
