/*--------------------------------*- C++ -*----------------------------------*\
  =========                 |
  \\      /  F ield         | OpenFOAM: The Open Source CFD Toolbox
   \\    /   O peration     | Website:  https://openfoam.org
    \\  /    A nd           | Version:  6
     \\/     M anipulation  |
\*---------------------------------------------------------------------------*/
FoamFile
{
    version     2.0;
    format      ascii;
    class       volScalarField;
    location    "570";
    object      nut;
}
// * * * * * * * * * * * * * * * * * * * * * * * * * * * * * * * * * * * * * //

dimensions      [0 2 -1 0 0 0 0];

internalField   nonuniform List<scalar> 
459
(
0.000866218
0.000942075
0.000962702
0.00100775
0.00104833
0.00108556
0.00112118
0.00115724
0.0011912
0.00121744
0.00123171
0.00122876
0.00120238
0.00114551
0.00105864
0.000604098
0.000709391
0.000645267
0.000579612
0.000518751
0.000463769
0.000416476
0.000379034
0.000347445
0.00032016
0.000296465
0.000275585
0.000257318
0.000241152
0.000226279
0.000212476
0.000218069
0.00034591
0.000476925
0.00116922
0.00260846
0.00238053
0.00271098
0.00304338
0.00339526
0.0037379
0.00402362
0.00426767
0.0045106
0.00472672
0.00487517
0.0048852
0.00458792
0.00347992
0.00110973
0.000653544
0.000830209
0.0022707
0.00190396
0.00182268
0.001755
0.00163795
0.00132647
0.00109506
0.000933542
0.000814745
0.000723766
0.000653734
0.000596551
0.000545202
0.000501303
0.000466292
0.00053911
0.000807951
0.000582479
0.001427
0.00352593
0.00292389
0.00358197
0.00388543
0.00410945
0.00427577
0.00440816
0.00455429
0.00475472
0.00500152
0.00527661
0.00554591
0.00572847
0.00562679
0.00469586
0.00104253
0.000989982
0.00178471
0.00206767
0.00221128
0.00223669
0.0020592
0.000687233
0.000585529
0.000509094
0.000449766
0.000402656
0.000364638
0.000333717
0.000308737
0.00028941
0.00032299
0.00047698
0.000899617
0.000645066
0.00167716
0.00449093
0.00287226
0.00379907
0.00401535
0.0040362
0.00399455
0.00397962
0.00404553
0.00420843
0.00446503
0.00481066
0.00523003
0.00566203
0.0059906
0.00587543
0.00466754
0.00131083
0.00185021
0.00222086
0.00252397
0.00271027
0.00276401
0.00253942
0.000813106
0.000732822
0.000668008
0.000614479
0.000569143
0.000529466
0.000493144
0.000457837
0.000420051
0.000389152
0.000474321
0.00094127
0.000686726
0.00193372
0.00576805
0.00296371
0.00364037
0.00393909
0.00384467
0.00366396
0.0035624
0.00359657
0.00374829
0.004007
0.00437852
0.00485409
0.00534168
0.00572529
0.00588289
0.00564588
0.00486761
0.00457728
0.00443885
0.00432948
0.00420908
0.00407052
0.00384294
0.0031743
0.00283781
0.00260109
0.00241222
0.00224586
0.00207915
0.00189127
0.00166427
0.00138536
0.00108318
0.000850353
0.000837559
0.000830305
0.000660376
0.000811741
0.00118608
0.00220728
0.00721515
0.00391681
0.00329928
0.00372254
0.00374135
0.00357546
0.00337112
0.00339379
0.00354087
0.00380118
0.00418796
0.00467
0.00516137
0.00554612
0.00574131
0.00573724
0.00560921
0.00550504
0.00540898
0.00529465
0.00515984
0.00501411
0.0048061
0.00448283
0.00418049
0.00390556
0.00365185
0.0034088
0.00316075
0.00289132
0.00258753
0.00224591
0.00188939
0.00157812
0.00123465
0.000926498
0.00108416
0.00177415
0.00158599
0.00248187
0.00836812
0.00588134
0.00373434
0.0033222
0.00338046
0.00353326
0.00341652
0.00342298
0.00352803
0.00377853
0.0041833
0.00469814
0.00522496
0.00563427
0.00584697
0.0058935
0.00588496
0.00587562
0.00583545
0.00574382
0.00560029
0.00540594
0.00517875
0.00491724
0.00464705
0.00437874
0.00411632
0.00385804
0.00359728
0.00332613
0.00303883
0.0027355
0.00242909
0.00214507
0.00178931
0.00116482
0.00173018
0.00334364
0.00210474
0.00256128
0.00814029
0.00665687
0.0053557
0.00444986
0.00400645
0.00387362
0.00366095
0.0035423
0.00361343
0.00389489
0.00435584
0.00492976
0.00550821
0.00594814
0.00616803
0.00620423
0.00617041
0.00609186
0.00594591
0.0057235
0.00543834
0.00517049
0.00492953
0.00470611
0.00449424
0.00429328
0.00410557
0.00393135
0.00376739
0.00360802
0.00344588
0.00327107
0.00306758
0.00282413
0.00247692
0.00179671
0.00237219
0.00568509
0.00282715
0.00251814
0.00306057
0.00340293
0.0035316
0.00350273
0.00340732
0.00332434
0.00328717
0.00338798
0.00368129
0.00414493
0.00472975
0.00537863
0.00599339
0.00642215
0.0065903
0.00653068
0.00635021
0.00607503
0.00575841
0.00544235
0.00518193
0.00497754
0.00482192
0.00470388
0.00461396
0.00454699
0.00450078
0.00447291
0.00445906
0.00445213
0.00444082
0.00440724
0.00432309
0.00415473
0.00384451
0.00323958
0.00352637
0.00717656
0.00312513
0.00139035
0.00217577
0.00263396
0.00286634
0.00303392
0.00330717
0.00375841
0.00429618
0.00487432
0.00549613
0.00613533
0.0067019
0.00701859
0.00703027
0.00684883
0.00663708
0.00642112
0.00622752
0.00606854
0.00594598
0.00585684
0.00579725
0.00576388
0.00575401
0.00576559
0.00579709
0.0058467
0.00591144
0.00598557
0.0060581
0.0061086
0.00609935
0.00598211
0.00571325
0.00526689
0.00533922
0.00741185
0.00262315
0.00155889
0.00233083
0.00288257
0.00333013
0.0039172
0.00468528
0.00532728
0.00580204
0.00625449
0.00681213
0.00741555
0.00796792
0.00821793
0.00815251
0.00791478
0.00764997
0.00744736
0.00730556
0.00720691
0.00713761
0.00709072
0.00706411
0.00705742
0.00706985
0.00709985
0.0071457
0.00720592
0.00727876
0.00736099
0.00744491
0.00751154
0.00751569
0.00737874
0.00703185
0.00652119
0.00614876
0.005756
0.00218451
0.00131755
0.00141102
0.00150475
0.00163849
0.00164827
0.0016113
0.00157541
0.00154777
0.00157522
0.00163055
0.00171586
0.0018172
0.00188465
0.00191268
0.00189938
0.00186577
0.00183609
0.00181532
0.00180063
0.00179079
0.00178424
0.00178028
0.00177844
0.00177842
0.00177998
0.00178288
0.00178687
0.00179178
0.00179749
0.00180385
0.00181051
0.00181644
0.00181903
0.00181411
0.00180051
0.00179211
0.00182527
0.00191829
0.00199995
0.00180805
)
;

boundaryField
{
    floor
    {
        type            nutkWallFunction;
        Cmu             0.09;
        kappa           0.41;
        E               9.8;
        value           nonuniform List<scalar> 
29
(
0.000127593
7.2865e-05
8.58767e-05
7.79808e-05
6.97987e-05
6.21134e-05
5.50748e-05
4.89371e-05
4.40154e-05
3.98151e-05
3.61476e-05
3.29299e-05
3.00666e-05
2.75381e-05
2.52808e-05
2.31861e-05
2.12256e-05
2.20221e-05
3.96103e-05
5.67691e-05
5.67691e-05
7.01601e-05
7.79586e-05
8.30988e-05
0.000127593
7.28649e-05
0.000100535
0.000119539
0.000156711
)
;
    }
    ceiling
    {
        type            nutkWallFunction;
        Cmu             0.09;
        kappa           0.41;
        E               9.8;
        value           nonuniform List<scalar> 
43
(
0.00015745
0.000168063
0.000178631
0.000193593
0.000194688
0.000190575
0.00018657
0.000183478
0.000186554
0.000192732
0.00020222
0.000213417
0.000220832
0.000223904
0.000222446
0.00021876
0.0002155
0.000213215
0.000211596
0.000210511
0.00020979
0.000209353
0.00020915
0.000209148
0.000209321
0.00020964
0.00021008
0.000210622
0.000211252
0.000211953
0.000212688
0.000213341
0.000213625
0.000213084
0.000211585
0.00021066
0.000214313
0.000224524
0.000233445
0.000212419
0.000289267
0.000346368
0.000184689
)
;
    }
    sWall
    {
        type            nutkWallFunction;
        Cmu             0.09;
        kappa           0.41;
        E               9.8;
        value           uniform 0.000157485;
    }
    nWall
    {
        type            nutkWallFunction;
        Cmu             0.09;
        kappa           0.41;
        E               9.8;
        value           nonuniform List<scalar> 6(0.000142397 0.000187776 0.000244829 0.000300355 0.00025346 0.000212413);
    }
    sideWalls
    {
        type            empty;
    }
    glass1
    {
        type            nutkWallFunction;
        Cmu             0.09;
        kappa           0.41;
        E               9.8;
        value           nonuniform List<scalar> 9(0.000104876 0.000140547 0.000170055 0.000198123 0.000226435 0.000256181 0.000285646 0.000294106 0.000289522);
    }
    glass2
    {
        type            nutkWallFunction;
        Cmu             0.09;
        kappa           0.41;
        E               9.8;
        value           nonuniform List<scalar> 2(0.000321726 0.000352869);
    }
    sun
    {
        type            nutkWallFunction;
        Cmu             0.09;
        kappa           0.41;
        E               9.8;
        value           nonuniform List<scalar> 
14
(
0.000104854
0.000113883
0.000116324
0.000121633
0.000126392
0.00013074
0.000134886
0.000139066
0.000142989
0.000146011
0.000147653
0.000147313
0.000144276
0.000137704
)
;
    }
    heatsource1
    {
        type            nutkWallFunction;
        Cmu             0.09;
        kappa           0.41;
        E               9.8;
        value           nonuniform List<scalar> 3(7.98476e-05 9.83126e-05 0.000142409);
    }
    heatsource2
    {
        type            nutkWallFunction;
        Cmu             0.09;
        kappa           0.41;
        E               9.8;
        value           nonuniform List<scalar> 4(0.000133557 7.89924e-05 7.89924e-05 0.000125713);
    }
    Table_master
    {
        type            nutkWallFunction;
        Cmu             0.09;
        kappa           0.41;
        E               9.8;
        value           nonuniform List<scalar> 9(8.31591e-05 7.05352e-05 6.08727e-05 5.32494e-05 4.71062e-05 4.20821e-05 3.79462e-05 3.45688e-05 3.19312e-05);
    }
    Table_slave
    {
        type            nutkWallFunction;
        Cmu             0.09;
        kappa           0.41;
        E               9.8;
        value           nonuniform List<scalar> 9(9.84784e-05 8.87426e-05 8.07907e-05 7.41535e-05 6.84773e-05 6.34642e-05 5.88344e-05 5.42932e-05 4.93842e-05);
    }
    inlet
    {
        type            calculated;
        value           uniform 0.000100623;
    }
    outlet
    {
        type            calculated;
        value           nonuniform List<scalar> 2(0.00131755 0.00141102);
    }
}


// ************************************************************************* //
