/*--------------------------------*- C++ -*----------------------------------*\
  =========                 |
  \\      /  F ield         | OpenFOAM: The Open Source CFD Toolbox
   \\    /   O peration     | Website:  https://openfoam.org
    \\  /    A nd           | Version:  6
     \\/     M anipulation  |
\*---------------------------------------------------------------------------*/
FoamFile
{
    version     2.0;
    format      ascii;
    class       volScalarField;
    location    "100";
    object      alphat;
}
// * * * * * * * * * * * * * * * * * * * * * * * * * * * * * * * * * * * * * //

dimensions      [1 -1 -1 0 0 0 0];

internalField   nonuniform List<scalar> 
459
(
0.00186911
0.00273781
0.00263598
0.00254342
0.00246906
0.00240725
0.00235363
0.00230488
0.00225792
0.0022103
0.00215946
0.00210218
0.00203333
0.0019421
0.00182044
0.000471301
0.000599008
0.000645195
0.000681168
0.000684002
0.000658427
0.00060897
0.000566036
0.000529276
0.000496341
0.000466052
0.000437791
0.000411188
0.000385944
0.000361714
0.000338074
0.0003149
0.000300686
0.000272255
0.00304636
0.00339812
0.00340353
0.00329681
0.00322888
0.00321325
0.00322403
0.00323321
0.00321711
0.0031715
0.00309469
0.00298378
0.0028262
0.00257864
0.00220503
0.00175044
0.00156264
0.000585835
0.00258322
0.00283685
0.00275552
0.00239108
0.00191907
0.00148542
0.00133309
0.00121628
0.00110407
0.000997904
0.000900276
0.000810435
0.000726184
0.000645194
0.000575535
0.000536553
0.000695293
0.000343351
0.00328027
0.00386991
0.00353501
0.00320673
0.00312738
0.00320277
0.00334252
0.0034754
0.00356442
0.00359071
0.00354593
0.00342869
0.00323765
0.00295411
0.00258554
0.00221937
0.00157569
0.000786706
0.00316868
0.00338397
0.00300702
0.00236818
0.0016182
0.000588142
0.000444873
0.000405741
0.000382866
0.000361841
0.000341571
0.000322712
0.00030601
0.000296082
0.000435485
0.000543681
0.0010149
0.00041986
0.00341287
0.00420336
0.00322052
0.00269838
0.00285165
0.00327727
0.0037504
0.00406902
0.00418103
0.00413157
0.00398199
0.003771
0.00351149
0.00318856
0.00281245
0.00243936
0.00187896
0.00133058
0.00229922
0.00322709
0.00330455
0.00280127
0.00211879
0.00135947
0.000796001
0.000789982
0.000788737
0.000789771
0.000791449
0.000790039
0.000779303
0.000751453
0.000704213
0.000755925
0.000804769
0.00124294
0.000555532
0.00351564
0.00429554
0.00252528
0.00242437
0.00373239
0.0049082
0.00566479
0.00596802
0.00555386
0.0049606
0.00443429
0.00401188
0.00364811
0.00328006
0.00289719
0.00253024
0.00208724
0.0018073
0.00277114
0.00341547
0.00342587
0.00317902
0.00300531
0.00293764
0.00296922
0.00308693
0.00320323
0.00331034
0.00338028
0.00338708
0.00332867
0.00318432
0.00290045
0.00242119
0.00196085
0.00165204
0.00117429
0.000676118
0.000758385
0.000886081
0.00361365
0.00411348
0.00186977
0.00329509
0.00545724
0.00614972
0.00645523
0.006479
0.00591745
0.00512966
0.00448032
0.00399729
0.00360613
0.00323162
0.00286644
0.00252237
0.00221321
0.00219253
0.00317178
0.00358677
0.00348182
0.00330297
0.00323332
0.00323133
0.00327436
0.00334708
0.00344569
0.00356077
0.00366804
0.00373245
0.00372497
0.00365592
0.00354226
0.0032774
0.00286107
0.00234247
0.00183249
0.00132894
0.0015716
0.000948346
0.00372888
0.0037186
0.00176115
0.00306191
0.00523623
0.0055869
0.00559928
0.00547881
0.0051601
0.00467457
0.00419871
0.0037948
0.00344314
0.00310664
0.00278625
0.00250351
0.00234755
0.00255243
0.00345509
0.00370335
0.00354733
0.00342201
0.00338104
0.00335021
0.00331732
0.00330386
0.00333753
0.00341502
0.00350073
0.0035633
0.00358072
0.00356955
0.00359022
0.00362423
0.00344693
0.00304699
0.00261203
0.00229419
0.0021146
0.00114937
0.00389473
0.00369602
0.00211813
0.00205129
0.00406207
0.00443936
0.00443011
0.00438655
0.00427829
0.00406428
0.00379496
0.00351951
0.00325042
0.00298366
0.00273079
0.00253525
0.00251556
0.00287061
0.00365787
0.00388679
0.00378591
0.00371915
0.00368548
0.00362025
0.00351846
0.00341666
0.00336887
0.00339097
0.00343878
0.00346677
0.00345404
0.00343852
0.00351284
0.00374532
0.00407857
0.00411063
0.0041641
0.00415137
0.00438517
0.00158276
0.00419351
0.00466179
0.00352746
0.00188787
0.00286676
0.00358457
0.00367102
0.00369453
0.00367131
0.00360012
0.00347564
0.00332046
0.00314794
0.00296449
0.00278602
0.00266754
0.00273321
0.00317934
0.00392025
0.00425841
0.0042799
0.00420401
0.00414033
0.00404434
0.00389702
0.00372035
0.00358224
0.00353589
0.00354283
0.00353248
0.0034459
0.00327547
0.00310603
0.00299995
0.00293482
0.00286747
0.00273615
0.00252899
0.00232294
0.0015197
0.00545924
0.00248088
0.0028502
0.00323811
0.00337828
0.00346662
0.00350425
0.00349285
0.00345233
0.00338864
0.0033034
0.00319691
0.00307801
0.00299693
0.00308568
0.00359547
0.00425086
0.00467315
0.00477573
0.00470245
0.00462205
0.00452812
0.00439215
0.00419753
0.00398144
0.00385115
0.00382171
0.00383593
0.00380555
0.00366212
0.00342633
0.00322112
0.00308917
0.00296344
0.00279038
0.0025754
0.00231168
0.00136273
0.00300974
0.00264483
0.00315289
0.00299154
0.00303836
0.00312058
0.00318789
0.00320319
0.00323107
0.00326169
0.00328262
0.00327993
0.0032416
0.00318583
0.00320383
0.00339927
0.00373167
0.00424187
0.0046406
0.0049109
0.00505827
0.00509918
0.00504981
0.00491675
0.00470153
0.00445181
0.00429649
0.00435226
0.00453694
0.00458745
0.004387
0.00393749
0.00354919
0.0032711
0.00300471
0.00284065
0.00304707
0.00142695
0.00184277
0.00174783
0.00179452
0.00129898
0.00133162
0.00135109
0.00137047
0.00138605
0.00139965
0.00141318
0.00142538
0.00143654
0.00144601
0.00145221
0.00145254
0.00144289
0.00139951
0.00132423
0.0012699
0.00123366
0.00122088
0.0012281
0.00124595
0.00126569
0.00128045
0.00128396
0.00126756
0.00122421
0.00117184
0.00115353
0.0011639
0.00115913
0.001153
0.00118542
0.00122998
0.00127248
0.00127305
0.00122103
0.00117304
0.00111481
)
;

boundaryField
{
    floor
    {
        type            compressible::alphatWallFunction;
        Prt             0.85;
        value           nonuniform List<scalar> 
29
(
0.000253758
6.48907e-05
8.42898e-05
9.11876e-05
9.6515e-05
9.69357e-05
9.31585e-05
8.58012e-05
7.93533e-05
7.37843e-05
6.87537e-05
6.40898e-05
5.97032e-05
5.55409e-05
5.15591e-05
4.77052e-05
4.39125e-05
4.01604e-05
3.78387e-05
3.31561e-05
3.31555e-05
4.47509e-05
5.68799e-05
7.77169e-05
0.000253756
6.48899e-05
8.23226e-05
0.00011192
0.000188176
)
;
    }
    ceiling
    {
        type            compressible::alphatWallFunction;
        Prt             0.85;
        value           nonuniform List<scalar> 
43
(
0.000256887
0.000244336
0.000250445
0.000183982
0.000188439
0.000191092
0.000193727
0.000195843
0.000197687
0.000199521
0.000201172
0.000202682
0.000203961
0.000204797
0.000204842
0.000203538
0.000197664
0.000187425
0.000179992
0.000175012
0.00017325
0.00017424
0.000176689
0.000179393
0.000181409
0.000181877
0.000179608
0.000173629
0.000166405
0.000163906
0.000165344
0.000164669
0.000163829
0.000168316
0.000174459
0.000180303
0.000180385
0.000173246
0.000166623
0.00015855
0.000550959
0.000607106
0.0004059
)
;
    }
    sWall
    {
        type            compressible::alphatWallFunction;
        Prt             0.85;
        value           uniform 0.000255912;
    }
    nWall
    {
        type            compressible::alphatWallFunction;
        Prt             0.85;
        value           nonuniform List<scalar> 6(0.000126022 0.000134873 0.000163024 0.000192307 0.00020101 0.000158245);
    }
    sideWalls
    {
        type            empty;
    }
    glass1
    {
        type            compressible::alphatWallFunction;
        Prt             0.85;
        value           nonuniform List<scalar> 9(0.00025605 0.000404693 0.000433457 0.000449662 0.000462166 0.000474047 0.000487971 0.000507968 0.000543849);
    }
    glass2
    {
        type            compressible::alphatWallFunction;
        Prt             0.85;
        value           nonuniform List<scalar> 2(0.000220933 0.000212553);
    }
    sun
    {
        type            compressible::alphatWallFunction;
        Prt             0.85;
        value           nonuniform List<scalar> 
14
(
0.000260226
0.000371732
0.000358873
0.00034714
0.000337681
0.000329796
0.000322938
0.00031669
0.000310657
0.000304525
0.000297964
0.000290551
0.000281612
0.000269716
)
;
    }
    heatsource1
    {
        type            compressible::alphatWallFunction;
        Prt             0.85;
        value           nonuniform List<scalar> 3(9.57888e-05 0.000107856 0.000126263);
    }
    heatsource2
    {
        type            compressible::alphatWallFunction;
        Prt             0.85;
        value           nonuniform List<scalar> 4(0.000244503 0.000219522 0.00021952 0.000221266);
    }
    Table_master
    {
        type            compressible::alphatWallFunction;
        Prt             0.85;
        value           nonuniform List<scalar> 9(8.27661e-05 6.08763e-05 5.47435e-05 5.11279e-05 4.77813e-05 4.4531e-05 4.14844e-05 3.87666e-05 3.71403e-05);
    }
    Table_slave
    {
        type            compressible::alphatWallFunction;
        Prt             0.85;
        value           nonuniform List<scalar> 9(0.000113323 0.000112444 0.000112255 0.0001124 0.000112641 0.000112434 0.000110875 0.000106824 9.99182e-05);
    }
    inlet
    {
        type            fixedValue;
        value           uniform 1.94e-05;
    }
    outlet
    {
        type            zeroGradient;
    }
}


// ************************************************************************* //
