/*--------------------------------*- C++ -*----------------------------------*\
  =========                 |
  \\      /  F ield         | OpenFOAM: The Open Source CFD Toolbox
   \\    /   O peration     | Website:  https://openfoam.org
    \\  /    A nd           | Version:  6
     \\/     M anipulation  |
\*---------------------------------------------------------------------------*/
FoamFile
{
    version     2.0;
    format      ascii;
    class       volScalarField;
    location    "500";
    object      epsilon;
}
// * * * * * * * * * * * * * * * * * * * * * * * * * * * * * * * * * * * * * //

dimensions      [0 2 -3 0 0 0 0];

internalField   nonuniform List<scalar> 
459
(
7.21374e-05
0.000115273
0.000250096
0.000276687
0.000266231
0.00024371
0.000219787
0.000197396
0.000177325
0.000159799
0.0001435
0.000127467
0.000110799
9.21977e-05
7.34784e-05
4.99505e-05
9.4683e-05
9.9933e-05
9.2572e-05
8.13788e-05
6.96451e-05
5.73996e-05
4.70937e-05
3.90266e-05
3.27619e-05
2.78505e-05
2.39396e-05
2.07631e-05
1.815e-05
1.58919e-05
1.38105e-05
1.18582e-05
9.38118e-06
1.02153e-05
0.000186165
0.000340875
0.000251894
0.000236942
0.000208528
0.00017299
0.000144738
0.000125368
0.000112516
0.000103752
9.64585e-05
8.89786e-05
8.05722e-05
7.0672e-05
6.07896e-05
7.13701e-05
5.1015e-05
0.000160721
0.000370633
0.000155031
0.00010019
7.61662e-05
6.16386e-05
5.60072e-05
4.56906e-05
3.6546e-05
2.92804e-05
2.36542e-05
1.9306e-05
1.5907e-05
1.32741e-05
1.13089e-05
1.03096e-05
1.316e-05
1.69804e-05
2.19802e-05
0.000297328
0.000478288
0.000281136
0.000237711
0.000208385
0.000162338
0.000128167
0.000108333
9.69704e-05
8.92797e-05
8.23428e-05
7.47909e-05
6.66231e-05
5.81907e-05
5.09707e-05
4.97371e-05
5.42994e-05
0.000127554
0.000268183
0.00013644
9.49407e-05
7.49843e-05
6.54434e-05
0.000131339
9.0553e-05
6.43001e-05
4.70928e-05
3.5518e-05
2.75261e-05
2.19011e-05
1.80391e-05
1.55655e-05
1.167e-05
1.36388e-05
2.9598e-05
3.42964e-05
0.000360905
0.000514259
0.000285327
0.000242269
0.000229483
0.000161091
0.000112831
8.97152e-05
7.9343e-05
7.37311e-05
6.85691e-05
6.24786e-05
5.57727e-05
4.91776e-05
4.40446e-05
4.16227e-05
4.5765e-05
6.09556e-05
0.000106461
8.99857e-05
8.03863e-05
7.40318e-05
6.77621e-05
6.60649e-05
0.000171935
0.000132925
0.000106561
8.66098e-05
7.02728e-05
5.62297e-05
4.38337e-05
3.27663e-05
2.25665e-05
1.23928e-05
1.30301e-05
6.15848e-05
5.4583e-05
0.000383471
0.000519113
0.000290553
0.000272583
0.000285983
0.000171488
9.63476e-05
6.63537e-05
5.81897e-05
5.64674e-05
5.45947e-05
5.13764e-05
4.74242e-05
4.36719e-05
4.14859e-05
4.1271e-05
4.824e-05
5.548e-05
6.38091e-05
7.5516e-05
8.26766e-05
8.31267e-05
7.81138e-05
7.15776e-05
7.25534e-05
7.01368e-05
6.68526e-05
6.16483e-05
5.4582e-05
4.61783e-05
3.69467e-05
2.74702e-05
1.7455e-05
1.08201e-05
1.14522e-05
5.07355e-05
6.54586e-05
7.11009e-05
8.4911e-05
0.000236498
0.000383995
0.000566923
0.000306485
0.000330161
0.000374043
0.000194921
8.50099e-05
5.10914e-05
4.56572e-05
4.59747e-05
4.63549e-05
4.57855e-05
4.48223e-05
4.44749e-05
4.64389e-05
5.23043e-05
6.60995e-05
8.34842e-05
0.000101122
0.000113434
0.00011687
0.000110969
9.89633e-05
8.56965e-05
7.55275e-05
6.80697e-05
6.16745e-05
5.46227e-05
4.65584e-05
3.77754e-05
2.86154e-05
2.01864e-05
1.35218e-05
1.1013e-05
1.32215e-05
3.04136e-05
5.42103e-05
0.000101907
0.000385354
0.00056463
0.000408664
0.000961163
0.000342921
0.000416944
0.000487996
0.000246176
0.000102323
5.95354e-05
5.14886e-05
5.14869e-05
5.28739e-05
5.44452e-05
5.65418e-05
6.05718e-05
6.8199e-05
8.21879e-05
0.000105105
0.000133178
0.000154888
0.000163
0.000155805
0.00013763
0.000114982
9.34632e-05
7.66487e-05
6.58844e-05
5.72242e-05
4.89359e-05
4.08503e-05
3.33937e-05
2.71769e-05
2.29874e-05
2.12919e-05
2.23855e-05
2.54012e-05
3.29079e-05
5.69729e-05
0.000233102
0.00124246
0.00142526
0.000452884
0.00109462
0.000398064
0.00053923
0.000634996
0.000322255
0.00014559
0.000101343
9.38344e-05
9.53516e-05
9.87501e-05
0.00010296
0.000108599
0.000117122
0.000130566
0.000152898
0.00018278
0.000212182
0.000224973
0.000217505
0.000191341
0.000160137
0.00013138
0.000108009
9.11266e-05
7.93445e-05
7.03869e-05
6.34242e-05
5.85957e-05
5.64327e-05
5.74977e-05
6.20661e-05
6.94958e-05
7.75297e-05
8.33783e-05
9.10768e-05
0.000127327
0.00056965
0.00473134
0.00372345
0.000434483
0.000740664
0.000535014
0.000701323
0.000783226
0.000432516
0.000264964
0.000233423
0.000238259
0.000249127
0.000259128
0.000267954
0.000276995
0.000288048
0.000302823
0.000322235
0.000342747
0.000355177
0.000349519
0.000326133
0.000293859
0.000260372
0.000231075
0.000207922
0.000190707
0.000178825
0.00017179
0.000169869
0.000173822
0.000184541
0.000202589
0.000227423
0.000256132
0.000282898
0.000304317
0.000307019
0.000357351
0.00107501
0.00689982
0.0052689
0.000645517
0.000974728
0.000920768
0.000612439
0.000589288
0.000642913
0.000703092
0.000749463
0.000780173
0.000798579
0.000808687
0.000813935
0.000816837
0.00081842
0.000817248
0.000809868
0.000793881
0.000770601
0.000743828
0.000716754
0.000691121
0.000668208
0.000649347
0.000636427
0.000631722
0.000637834
0.000657515
0.000693308
0.000746603
0.000815534
0.000891599
0.000958518
0.00100629
0.00100242
0.00104397
0.00167005
0.00520096
0.0031828
0.00293543
0.00304391
0.00208544
0.00149002
0.001587
0.00178604
0.00196519
0.00209344
0.00217208
0.00221273
0.00222776
0.00222796
0.00222286
0.00222071
0.00222608
0.0022363
0.00224095
0.00223215
0.00221028
0.00217982
0.0021442
0.00210678
0.00207194
0.00204559
0.00203431
0.00204526
0.00208619
0.00216513
0.00228875
0.00245699
0.00265083
0.00281349
0.00284054
0.0027216
0.00248912
0.00250529
0.00293086
0.00188617
0.000764403
0.000908852
0.00123711
0.00145093
0.00146739
0.00143084
0.00143256
0.00145121
0.00146924
0.00148229
0.00149096
0.00149713
0.00150259
0.0015086
0.00151555
0.00152245
0.00152671
0.00152532
0.00151709
0.00150339
0.00148684
0.00146988
0.00145441
0.0014419
0.00143366
0.00143105
0.00143541
0.00144801
0.00146966
0.00150012
0.00153706
0.00157445
0.00160092
0.00160096
0.00157602
0.00152945
0.00153681
0.00163606
0.0016667
0.00115196
)
;

boundaryField
{
    floor
    {
        Cmu             0.09;
        kappa           0.41;
        E               9.8;
        type            epsilonWallFunction;
        value           nonuniform List<scalar> 
29
(
7.34784e-05
4.99505e-05
9.4683e-05
9.9933e-05
9.2572e-05
8.13788e-05
6.96451e-05
5.73996e-05
4.70937e-05
3.90266e-05
3.27619e-05
2.78505e-05
2.39396e-05
2.07631e-05
1.815e-05
1.58919e-05
1.38105e-05
1.18582e-05
9.38118e-06
1.02153e-05
1.02153e-05
2.19802e-05
3.42964e-05
5.4583e-05
7.34784e-05
4.99505e-05
0.000160721
0.000127554
6.09556e-05
)
;
    }
    ceiling
    {
        Cmu             0.09;
        kappa           0.41;
        E               9.8;
        type            epsilonWallFunction;
        value           nonuniform List<scalar> 
43
(
0.000764403
0.000908852
0.00123711
0.00145093
0.00146739
0.00143084
0.00143256
0.00145121
0.00146924
0.00148229
0.00149096
0.00149713
0.00150259
0.0015086
0.00151555
0.00152245
0.00152671
0.00152532
0.00151709
0.00150339
0.00148684
0.00146988
0.00145441
0.0014419
0.00143366
0.00143105
0.00143541
0.00144801
0.00146966
0.00150012
0.00153706
0.00157445
0.00160092
0.00160096
0.00157602
0.00152945
0.00153681
0.00163606
0.0016667
0.00115196
0.000434483
0.000740664
0.00293543
)
;
    }
    sWall
    {
        Cmu             0.09;
        kappa           0.41;
        E               9.8;
        type            epsilonWallFunction;
        value           uniform 0.000764403;
    }
    nWall
    {
        Cmu             0.09;
        kappa           0.41;
        E               9.8;
        type            epsilonWallFunction;
        value           nonuniform List<scalar> 6(0.000236498 0.00056463 0.00142526 0.0031828 0.00188617 0.00115196);
    }
    sideWalls
    {
        type            empty;
    }
    glass1
    {
        Cmu             0.09;
        kappa           0.41;
        E               9.8;
        type            epsilonWallFunction;
        value           nonuniform List<scalar> 9(7.21374e-05 0.000186165 0.000297328 0.000360905 0.000383471 0.000383995 0.000408664 0.000452884 0.000434483);
    }
    glass2
    {
        Cmu             0.09;
        kappa           0.41;
        E               9.8;
        type            epsilonWallFunction;
        value           nonuniform List<scalar> 2(0.00372345 0.0052689);
    }
    sun
    {
        Cmu             0.09;
        kappa           0.41;
        E               9.8;
        type            epsilonWallFunction;
        value           nonuniform List<scalar> 
14
(
7.21374e-05
0.000115273
0.000250096
0.000276687
0.000266231
0.00024371
0.000219787
0.000197396
0.000177325
0.000159799
0.0001435
0.000127467
0.000110799
9.21977e-05
)
;
    }
    heatsource1
    {
        Cmu             0.09;
        kappa           0.41;
        E               9.8;
        type            epsilonWallFunction;
        value           nonuniform List<scalar> 3(7.11009e-05 8.4911e-05 0.000236498);
    }
    heatsource2
    {
        Cmu             0.09;
        kappa           0.41;
        E               9.8;
        type            epsilonWallFunction;
        value           nonuniform List<scalar> 4(7.13701e-05 5.1015e-05 5.1015e-05 5.42994e-05);
    }
    Table_master
    {
        Cmu             0.09;
        kappa           0.41;
        E               9.8;
        type            epsilonWallFunction;
        value           nonuniform List<scalar> 9(0.000131339 9.0553e-05 6.43001e-05 4.70928e-05 3.5518e-05 2.75261e-05 2.19011e-05 1.80391e-05 1.55655e-05);
    }
    Table_slave
    {
        Cmu             0.09;
        kappa           0.41;
        E               9.8;
        type            epsilonWallFunction;
        value           nonuniform List<scalar> 9(0.000171935 0.000132925 0.000106561 8.66098e-05 7.02728e-05 5.62297e-05 4.38337e-05 3.27663e-05 2.25665e-05);
    }
    inlet
    {
        type            turbulentMixingLengthDissipationRateInlet;
        mixingLength    0.01;
        phi             phi;
        k               k;
        value           uniform 0.000101881;
    }
    outlet
    {
        type            zeroGradient;
    }
}


// ************************************************************************* //
