// -*- C++ -*-
// File generated by PyFoam - sorry for the ugliness

FoamFile
{
 version 2.0;
 format ascii;
 class volScalarField;
 location "1200";
 object T;
}

dimensions [ 0 0 0 1 0 0 0 ];

internalField nonuniform List<scalar> 459
(
  303.57
  303.312
  303.299
  303.295
  303.291
  303.287
  303.282
  303.277
  303.268
  303.257
  303.245
  303.234
  303.226
  303.222
  303.224
  303.319
  303.297
  303.289
  303.292
  303.296
  303.3
  303.304
  303.308
  303.312
  303.316
  303.32
  303.324
  303.328
  303.332
  303.336
  303.34
  303.345
  303.351
  303.369
  303.744
  303.355
  303.331
  303.334
  303.336
  303.337
  303.334
  303.328
  303.312
  303.289
  303.263
  303.24
  303.222
  303.211
  303.207
  303.205
  303.205
  303.319
  303.281
  303.275
  303.278
  303.283
  303.287
  303.29
  303.292
  303.293
  303.295
  303.297
  303.299
  303.3
  303.302
  303.305
  303.309
  303.315
  303.325
  303.354
  303.925
  303.406
  303.367
  303.377
  303.391
  303.401
  303.405
  303.399
  303.376
  303.336
  303.291
  303.251
  303.222
  303.207
  303.202
  303.203
  303.205
  303.26
  303.259
  303.266
  303.276
  303.286
  303.294
  303.294
  303.295
  303.295
  303.296
  303.297
  303.297
  303.298
  303.299
  303.3
  303.303
  303.308
  303.316
  303.347
  304.108
  303.468
  303.403
  303.419
  303.447
  303.474
  303.492
  303.488
  303.451
  303.388
  303.319
  303.261
  303.22
  303.201
  303.197
  303.201
  303.207
  303.218
  303.232
  303.251
  303.271
  303.29
  303.306
  303.319
  303.329
  303.338
  303.347
  303.354
  303.36
  303.365
  303.37
  303.373
  303.374
  303.351
  303.332
  303.324
  303.347
  304.287
  303.547
  303.446
  303.457
  303.495
  303.54
  303.578
  303.574
  303.518
  303.427
  303.334
  303.26
  303.213
  303.192
  303.19
  303.2
  303.215
  303.232
  303.253
  303.278
  303.302
  303.325
  303.344
  303.359
  303.373
  303.384
  303.394
  303.402
  303.407
  303.409
  303.409
  303.406
  303.399
  303.381
  303.356
  303.336
  303.345
  303.417
  303.465
  303.47
  304.448
  303.65
  303.519
  303.508
  303.546
  303.602
  303.65
  303.627
  303.545
  303.435
  303.327
  303.243
  303.193
  303.175
  303.182
  303.203
  303.229
  303.258
  303.288
  303.318
  303.345
  303.369
  303.389
  303.404
  303.417
  303.427
  303.436
  303.441
  303.445
  303.444
  303.439
  303.432
  303.421
  303.403
  303.378
  303.354
  303.349
  303.379
  303.397
  303.431
  304.596
  303.813
  303.682
  303.654
  303.672
  303.72
  303.718
  303.644
  303.522
  303.386
  303.269
  303.189
  303.152
  303.151
  303.177
  303.216
  303.259
  303.3
  303.338
  303.37
  303.398
  303.42
  303.436
  303.449
  303.459
  303.467
  303.473
  303.476
  303.476
  303.473
  303.465
  303.454
  303.441
  303.423
  303.4
  303.376
  303.364
  303.372
  303.382
  303.411
  304.81
  304.225
  304.081
  303.996
  303.956
  303.89
  303.757
  303.578
  303.394
  303.241
  303.138
  303.092
  303.095
  303.133
  303.189
  303.255
  303.314
  303.362
  303.401
  303.429
  303.451
  303.467
  303.48
  303.489
  303.495
  303.5
  303.502
  303.503
  303.501
  303.496
  303.489
  303.477
  303.464
  303.448
  303.43
  303.413
  303.406
  303.418
  303.436
  303.557
  305.117
  304.841
  304.585
  304.35
  304.116
  303.801
  303.465
  303.188
  303.007
  302.924
  302.921
  302.975
  303.063
  303.157
  303.249
  303.339
  303.395
  303.434
  303.461
  303.481
  303.496
  303.507
  303.515
  303.52
  303.524
  303.525
  303.525
  303.524
  303.522
  303.519
  303.517
  303.516
  303.517
  303.523
  303.536
  303.558
  303.589
  303.62
  303.641
  303.693
  296.32
  298.143
  299.335
  300.224
  300.967
  301.59
  302.092
  302.479
  302.773
  303.007
  303.194
  303.305
  303.381
  303.434
  303.469
  303.493
  303.51
  303.522
  303.531
  303.538
  303.542
  303.545
  303.546
  303.547
  303.548
  303.548
  303.548
  303.549
  303.55
  303.552
  303.556
  303.563
  303.576
  303.594
  303.616
  303.639
  303.658
  303.68
  296.967
  298.79
  300.249
  301.248
  301.877
  302.335
  302.681
  302.937
  303.121
  303.255
  303.355
  303.422
  303.467
  303.497
  303.518
  303.533
  303.543
  303.55
  303.555
  303.558
  303.561
  303.563
  303.564
  303.565
  303.566
  303.567
  303.568
  303.569
  303.57
  303.572
  303.575
  303.58
  303.589
  303.601
  303.616
  303.634
  303.633
  303.662
  299.724
  299.646
  299.641
  301.489
  302.303
  302.691
  302.918
  303.086
  303.214
  303.311
  303.384
  303.438
  303.477
  303.504
  303.522
  303.534
  303.542
  303.547
  303.551
  303.553
  303.556
  303.558
  303.56
  303.562
  303.564
  303.566
  303.567
  303.569
  303.571
  303.573
  303.575
  303.577
  303.58
  303.583
  303.588
  303.598
  303.607
  303.612
  303.614
  303.654
)
;

boundaryField
{
  floor
  {
    type wallHeatTransfer;
    Tinf uniform 305.2;
    alphaWall uniform 0.24;
    value nonuniform List<scalar> 29
(
  303.416
  303.674
  303.611
  303.58
  303.583
  303.593
  303.607
  303.624
  303.642
  303.66
  303.678
  303.695
  303.712
  303.728
  303.743
  303.759
  303.774
  303.792
  303.807
  303.847
  303.847
  303.766
  303.725
  303.701
  303.416
  303.674
  303.657
  303.474
  303.383
)
;
  }
  ceiling
  {
    type wallHeatTransfer;
    Tinf uniform 303.2;
    alphaWall uniform 0.24;
    value nonuniform List<scalar> 43
(
  299.971
  299.887
  299.875
  301.596
  302.36
  302.725
  302.937
  303.094
  303.213
  303.303
  303.368
  303.416
  303.449
  303.47
  303.483
  303.49
  303.495
  303.498
  303.5
  303.501
  303.502
  303.503
  303.505
  303.507
  303.508
  303.511
  303.513
  303.516
  303.519
  303.523
  303.526
  303.53
  303.534
  303.539
  303.546
  303.557
  303.565
  303.57
  303.569
  303.602
  305.028
  304.775
  297.37
)
;
  }
  sWall
  {
    type wallHeatTransfer;
    Tinf uniform 315.2;
    alphaWall uniform 0.36;
    value uniform 301.325;
  }
  nWall
  {
    type wallHeatTransfer;
    Tinf uniform 307.2;
    alphaWall uniform 0.36;
    value nonuniform List<scalar> 6
(
  304.173
  304.121
  304.044
  304.189
  304.167
  304.231
)
;
  }
  sideWalls
  {
    type empty;
  }
  glass1
  {
    type wallHeatTransfer;
    Tinf uniform 315.2;
    alphaWall uniform 4.3;
    value nonuniform List<scalar> 9
(
  311.513
  310.885
  310.489
  310.188
  309.937
  309.709
  309.541
  309.614
  309.839
)
;
  }
  glass2
  {
    type wallHeatTransfer;
    Tinf uniform 307.2;
    alphaWall uniform 4.3;
    value nonuniform List<scalar> 2
(
  305.826
  305.92
)
;
  }
  sun
  {
    type wallHeatTransfer;
    Tinf uniform 305.2;
    alphaWall uniform 0.24;
    value nonuniform List<scalar> 14
(
  303.742
  303.498
  303.483
  303.473
  303.464
  303.455
  303.446
  303.437
  303.426
  303.415
  303.405
  303.398
  303.397
  303.403
)
;
  }
  heatsource1
  {
    type fixedGradient;
    gradient uniform 0;
  }
  heatsource2
  {
    type fixedGradient;
    gradient uniform 0;
  }
  Table_master
  {
    type zeroGradient;
  }
  Table_slave
  {
    type zeroGradient;
  }
  inlet
  {
    type fixedValue;
    value uniform 293.15;
  }
  outlet
  {
    type zeroGradient;
  }
} 	// ************************************************************************* //

