/*--------------------------------*- C++ -*----------------------------------*\
  =========                 |
  \\      /  F ield         | OpenFOAM: The Open Source CFD Toolbox
   \\    /   O peration     | Website:  https://openfoam.org
    \\  /    A nd           | Version:  6
     \\/     M anipulation  |
\*---------------------------------------------------------------------------*/
FoamFile
{
    version     2.0;
    format      ascii;
    class       volScalarField;
    location    "50";
    object      epsilon;
}
// * * * * * * * * * * * * * * * * * * * * * * * * * * * * * * * * * * * * * //

dimensions      [0 2 -3 0 0 0 0];

internalField   nonuniform List<scalar> 
459
(
0.000182363
0.000481015
0.000593335
0.000610936
0.000594387
0.000568091
0.000539289
0.000509426
0.000482929
0.000458216
0.000432799
0.000403948
0.000368466
0.000321753
0.00026665
9.91863e-05
0.000293229
0.000208506
0.000150184
9.78831e-05
6.81055e-05
4.58428e-05
2.91057e-05
1.85254e-05
1.26278e-05
9.64643e-06
8.26915e-06
7.7195e-06
7.70465e-06
8.67924e-06
1.32327e-05
2.91534e-05
7.42196e-05
9.01626e-05
0.000182201
0.00045449
0.000504492
0.000469934
0.000412306
0.000366926
0.000337948
0.000321224
0.000314809
0.00031287
0.000310003
0.000302058
0.000286635
0.000262251
0.00023142
0.000303609
0.000223519
0.000313907
0.000646495
0.000262883
0.000173852
0.000114931
7.80007e-05
5.39116e-05
3.42689e-05
2.14081e-05
1.38218e-05
9.83077e-06
7.97653e-06
7.28671e-06
7.43688e-06
9.40283e-06
1.73683e-05
5.3861e-05
0.000174031
0.000193626
0.000364314
0.000545423
0.000550174
0.000473663
0.000393752
0.00034634
0.00032684
0.000323054
0.000323321
0.000319939
0.000308713
0.000289029
0.000263477
0.000235278
0.000209418
0.000216227
0.000259041
0.000297515
0.000596026
0.000296666
0.000215764
0.000170785
0.000120545
0.000146931
6.81148e-05
3.29061e-05
1.74962e-05
1.12845e-05
8.98083e-06
8.33883e-06
8.86751e-06
1.3287e-05
2.15423e-05
5.93733e-05
0.000214284
0.000296173
0.000501486
0.000744157
0.000623929
0.000495417
0.000383043
0.000330982
0.000320644
0.000324946
0.000327018
0.000320146
0.000303091
0.000278033
0.000249139
0.000220758
0.000197916
0.000189994
0.000209636
0.000293288
0.000322536
0.000253286
0.000207937
0.000184123
0.000164223
0.0001345
0.000287248
0.000191353
0.000124449
9.29438e-05
8.36693e-05
8.28706e-05
8.52807e-05
9.06041e-05
0.000102235
5.46227e-05
8.30285e-05
0.000287995
0.000392533
0.000608092
0.000890446
0.00066719
0.000541613
0.00037435
0.000303468
0.000291267
0.00029738
0.000301634
0.00029697
0.00028297
0.000262081
0.000238435
0.000216547
0.00020152
0.000196818
0.000221057
0.000247341
0.000230235
0.0002122
0.000193745
0.00017383
0.000149278
0.000129144
0.000156173
0.000138206
0.000106325
8.51614e-05
7.61155e-05
7.33397e-05
7.35975e-05
7.56616e-05
7.89162e-05
7.9108e-05
9.51755e-05
0.000187907
0.000276512
0.000297985
0.000265515
0.000422322
0.000736563
0.00095821
0.000743624
0.000656968
0.000395186
0.000289702
0.000265143
0.000266607
0.000271064
0.00027012
0.000262373
0.000249245
0.000234815
0.000223188
0.000219648
0.000228301
0.000258913
0.00027892
0.000274311
0.000256201
0.000231779
0.000199824
0.000159536
0.000134441
0.000138451
0.000126287
0.000107092
9.48769e-05
9.004e-05
8.9492e-05
9.11793e-05
9.38567e-05
9.64806e-05
9.8354e-05
0.000105234
0.000130203
0.000181022
0.000287641
0.000729957
0.000940044
0.000807989
0.00103469
0.00088644
0.000873033
0.00049378
0.000322426
0.000270498
0.000258239
0.000257457
0.000256842
0.000253384
0.000247674
0.000242119
0.00024024
0.000246902
0.000264656
0.000294821
0.000313618
0.000310572
0.000288909
0.000251397
0.000197723
0.000154531
0.000138097
0.000139237
0.000133177
0.000125124
0.00012159
0.000122476
0.00012606
0.000130936
0.00013593
0.00013973
0.000141432
0.000144758
0.00016293
0.000223293
0.000531718
0.00191058
0.00200391
0.000794022
0.00105296
0.00108373
0.00121811
0.000686094
0.000419727
0.000332027
0.000301324
0.000289385
0.000284307
0.000280309
0.000277003
0.000275821
0.000279155
0.000289888
0.000309364
0.000334419
0.00034559
0.000332468
0.000293211
0.000240175
0.000198239
0.000175668
0.000170791
0.000175396
0.00017911
0.000183776
0.000191806
0.000202677
0.000214993
0.000227472
0.000238786
0.00024722
0.000251153
0.00025269
0.000269421
0.000354037
0.000924304
0.00506837
0.00442082
0.000628286
0.000762479
0.00134666
0.00160555
0.000976121
0.000638482
0.000527928
0.000480302
0.0004525
0.000436266
0.000424775
0.000416948
0.000413117
0.000414085
0.000420452
0.000430926
0.000439677
0.000432211
0.000402502
0.000360193
0.000322124
0.000299686
0.000294213
0.000303323
0.000322335
0.000346495
0.000375197
0.00040761
0.000441678
0.000475384
0.000507037
0.000534724
0.000556147
0.00056985
0.000570839
0.000582038
0.000688216
0.0014158
0.00623109
0.00564925
0.0017752
0.00188612
0.00138077
0.00117548
0.00112419
0.00109681
0.00106783
0.00103816
0.00101362
0.000994812
0.000980331
0.00096756
0.000952825
0.000931607
0.000899975
0.000857346
0.00081202
0.000775378
0.000756078
0.000758546
0.000783759
0.000830871
0.0008972
0.000978466
0.00106966
0.00116485
0.00125864
0.00134722
0.00142775
0.00149673
0.00154946
0.0015832
0.00159376
0.00159161
0.00166047
0.00211408
0.00462446
0.00324886
0.00477756
0.00442303
0.0036775
0.00319667
0.00301545
0.00289981
0.0027927
0.00269536
0.00261616
0.00255722
0.00251512
0.00248338
0.00245432
0.00242023
0.00237464
0.00231475
0.00224359
0.00217395
0.00212453
0.00211529
0.00216536
0.00229149
0.00249995
0.00277586
0.00308829
0.00340474
0.00370232
0.00396955
0.00420115
0.00439088
0.00452576
0.00458343
0.00455202
0.0044477
0.00436085
0.00445805
0.00382017
0.00215999
0.00100934
0.00123763
0.00180149
0.00220984
0.00219851
0.00211835
0.00203435
0.00197202
0.00193006
0.00190383
0.00188942
0.00188377
0.00188445
0.00188924
0.00189574
0.00190151
0.00190496
0.00190683
0.0019114
0.00192483
0.00195278
0.00199893
0.00206444
0.00214726
0.0022417
0.00233945
0.00243224
0.00251424
0.00258274
0.00263722
0.00267791
0.00270447
0.00271526
0.00270979
0.00269256
0.00267985
0.00270656
0.00273833
0.00240662
0.00140991
)
;

boundaryField
{
    floor
    {
        Cmu             0.09;
        kappa           0.41;
        E               9.8;
        type            epsilonWallFunction;
        value           nonuniform List<scalar> 
29
(
0.00026665
9.91863e-05
0.000293229
0.000208506
0.000150184
9.78831e-05
6.81055e-05
4.58428e-05
2.91057e-05
1.85254e-05
1.26278e-05
9.64643e-06
8.26915e-06
7.7195e-06
7.70465e-06
8.67924e-06
1.32327e-05
2.91534e-05
7.42196e-05
9.01626e-05
9.01626e-05
0.000193626
0.000296173
0.000392533
0.00026665
9.91863e-05
0.000313907
0.000297515
0.000293288
)
;
    }
    ceiling
    {
        Cmu             0.09;
        kappa           0.41;
        E               9.8;
        type            epsilonWallFunction;
        value           nonuniform List<scalar> 
43
(
0.00100934
0.00123763
0.00180149
0.00220984
0.00219851
0.00211835
0.00203435
0.00197202
0.00193006
0.00190383
0.00188942
0.00188377
0.00188445
0.00188924
0.00189574
0.00190151
0.00190496
0.00190683
0.0019114
0.00192483
0.00195278
0.00199893
0.00206444
0.00214726
0.0022417
0.00233945
0.00243224
0.00251424
0.00258274
0.00263722
0.00267791
0.00270447
0.00271526
0.00270979
0.00269256
0.00267985
0.00270656
0.00273833
0.00240662
0.00140991
0.000628286
0.000762479
0.00477756
)
;
    }
    sWall
    {
        Cmu             0.09;
        kappa           0.41;
        E               9.8;
        type            epsilonWallFunction;
        value           uniform 0.00100934;
    }
    nWall
    {
        Cmu             0.09;
        kappa           0.41;
        E               9.8;
        type            epsilonWallFunction;
        value           nonuniform List<scalar> 6(0.000422322 0.000940044 0.00200391 0.00324886 0.00215999 0.00140991);
    }
    sideWalls
    {
        type            empty;
    }
    glass1
    {
        Cmu             0.09;
        kappa           0.41;
        E               9.8;
        type            epsilonWallFunction;
        value           nonuniform List<scalar> 9(0.000182363 0.000182201 0.000364314 0.000501486 0.000608092 0.000736563 0.000807989 0.000794022 0.000628286);
    }
    glass2
    {
        Cmu             0.09;
        kappa           0.41;
        E               9.8;
        type            epsilonWallFunction;
        value           nonuniform List<scalar> 2(0.00442082 0.00564925);
    }
    sun
    {
        Cmu             0.09;
        kappa           0.41;
        E               9.8;
        type            epsilonWallFunction;
        value           nonuniform List<scalar> 
14
(
0.000182363
0.000481015
0.000593335
0.000610936
0.000594387
0.000568091
0.000539289
0.000509426
0.000482929
0.000458216
0.000432799
0.000403948
0.000368466
0.000321753
)
;
    }
    heatsource1
    {
        Cmu             0.09;
        kappa           0.41;
        E               9.8;
        type            epsilonWallFunction;
        value           nonuniform List<scalar> 3(0.000297985 0.000265515 0.000422322);
    }
    heatsource2
    {
        Cmu             0.09;
        kappa           0.41;
        E               9.8;
        type            epsilonWallFunction;
        value           nonuniform List<scalar> 4(0.000303609 0.000223519 0.000223519 0.000259041);
    }
    Table_master
    {
        Cmu             0.09;
        kappa           0.41;
        E               9.8;
        type            epsilonWallFunction;
        value           nonuniform List<scalar> 9(0.000146931 6.81148e-05 3.29061e-05 1.74962e-05 1.12845e-05 8.98083e-06 8.33883e-06 8.86751e-06 1.3287e-05);
    }
    Table_slave
    {
        Cmu             0.09;
        kappa           0.41;
        E               9.8;
        type            epsilonWallFunction;
        value           nonuniform List<scalar> 9(0.000287248 0.000191353 0.000124449 9.29438e-05 8.36693e-05 8.28706e-05 8.52807e-05 9.06041e-05 0.000102235);
    }
    inlet
    {
        type            turbulentMixingLengthDissipationRateInlet;
        mixingLength    0.01;
        phi             phi;
        k               k;
        value           uniform 0.000101881;
    }
    outlet
    {
        type            zeroGradient;
    }
}


// ************************************************************************* //
