// -*- C++ -*-
// File generated by PyFoam - sorry for the ugliness

FoamFile
{
 version 2.0;
 format ascii;
 class volScalarField;
 location "150";
 object T;
}

dimensions [ 0 0 0 1 0 0 0 ];

internalField nonuniform List<scalar> 459
(
  302.794
  302.848
  302.912
  302.961
  302.992
  303.014
  303.03
  303.046
  303.062
  303.077
  303.093
  303.108
  303.122
  303.137
  303.148
  303.861
  303.845
  303.816
  303.828
  303.855
  303.881
  303.903
  303.923
  303.941
  303.957
  303.972
  303.987
  304
  304.012
  304.024
  304.037
  304.05
  304.07
  304.121
  302.8
  302.912
  303.032
  303.132
  303.193
  303.228
  303.249
  303.265
  303.275
  303.28
  303.281
  303.276
  303.265
  303.244
  303.214
  303.235
  303.275
  303.858
  303.799
  303.758
  303.785
  303.832
  303.877
  303.912
  303.944
  303.974
  304.003
  304.029
  304.053
  304.075
  304.094
  304.108
  304.117
  304.12
  304.12
  304.167
  302.782
  302.939
  303.144
  303.345
  303.452
  303.499
  303.517
  303.517
  303.504
  303.485
  303.46
  303.43
  303.394
  303.352
  303.305
  303.292
  303.303
  303.75
  303.627
  303.67
  303.743
  303.822
  303.887
  303.918
  303.952
  303.987
  304.021
  304.054
  304.084
  304.111
  304.135
  304.153
  304.164
  304.165
  304.16
  304.193
  302.754
  302.938
  303.249
  303.63
  303.785
  303.82
  303.802
  303.757
  303.708
  303.659
  303.61
  303.56
  303.507
  303.45
  303.391
  303.354
  303.338
  303.363
  303.438
  303.523
  303.643
  303.77
  303.883
  303.97
  304.037
  304.091
  304.143
  304.193
  304.242
  304.29
  304.339
  304.39
  304.438
  304.314
  304.248
  304.212
  304.221
  302.717
  302.91
  303.302
  303.914
  304.076
  304.062
  303.997
  303.925
  303.857
  303.795
  303.734
  303.674
  303.61
  303.546
  303.481
  303.436
  303.412
  303.437
  303.514
  303.639
  303.787
  303.93
  304.05
  304.144
  304.22
  304.283
  304.334
  304.377
  304.414
  304.448
  304.479
  304.507
  304.522
  304.426
  304.332
  304.279
  304.254
  304.275
  304.413
  304.853
  302.655
  302.834
  303.266
  304.014
  304.225
  304.208
  304.142
  304.072
  304.004
  303.939
  303.874
  303.809
  303.735
  303.667
  303.605
  303.565
  303.556
  303.618
  303.741
  303.892
  304.042
  304.174
  304.279
  304.357
  304.42
  304.464
  304.498
  304.527
  304.551
  304.573
  304.59
  304.602
  304.595
  304.516
  304.433
  304.395
  304.324
  304.326
  304.506
  304.815
  302.548
  302.652
  303.052
  304.014
  304.347
  304.361
  304.308
  304.246
  304.185
  304.124
  304.062
  303.999
  303.934
  303.87
  303.817
  303.8
  303.83
  303.936
  304.075
  304.215
  304.341
  304.443
  304.517
  304.572
  304.606
  304.626
  304.642
  304.657
  304.671
  304.681
  304.687
  304.686
  304.67
  304.625
  304.576
  304.528
  304.398
  304.386
  304.561
  304.817
  302.389
  302.364
  302.636
  303.902
  304.456
  304.541
  304.515
  304.47
  304.422
  304.372
  304.321
  304.27
  304.22
  304.177
  304.148
  304.156
  304.216
  304.325
  304.439
  304.541
  304.629
  304.693
  304.734
  304.753
  304.761
  304.766
  304.771
  304.777
  304.783
  304.786
  304.787
  304.784
  304.774
  304.752
  304.719
  304.66
  304.516
  304.466
  304.591
  304.85
  302.208
  302.022
  301.979
  303.662
  304.54
  304.717
  304.736
  304.715
  304.686
  304.654
  304.621
  304.588
  304.559
  304.54
  304.536
  304.558
  304.612
  304.689
  304.764
  304.822
  304.864
  304.889
  304.9
  304.901
  304.899
  304.897
  304.896
  304.896
  304.896
  304.896
  304.894
  304.89
  304.883
  304.868
  304.839
  304.786
  304.672
  304.592
  304.664
  304.881
  301.411
  303.379
  304.646
  304.875
  304.915
  304.913
  304.9
  304.884
  304.869
  304.855
  304.845
  304.842
  304.85
  304.871
  304.904
  304.944
  304.98
  305.005
  305.02
  305.025
  305.024
  305.02
  305.014
  305.008
  305.003
  304.998
  304.994
  304.989
  304.983
  304.974
  304.962
  304.942
  304.91
  304.863
  304.797
  304.74
  304.771
  304.872
  304.59
  304.76
  304.946
  305.018
  305.038
  305.038
  305.033
  305.026
  305.02
  305.017
  305.018
  305.023
  305.033
  305.048
  305.066
  305.085
  305.099
  305.107
  305.11
  305.108
  305.103
  305.096
  305.089
  305.082
  305.074
  305.067
  305.059
  305.049
  305.038
  305.024
  305.005
  304.98
  304.947
  304.91
  304.873
  304.846
  304.861
  304.895
  305.275
  305.193
  305.054
  305.065
  305.113
  305.132
  305.135
  305.132
  305.129
  305.127
  305.128
  305.13
  305.135
  305.141
  305.148
  305.156
  305.163
  305.168
  305.17
  305.169
  305.165
  305.16
  305.153
  305.145
  305.137
  305.129
  305.12
  305.11
  305.099
  305.086
  305.07
  305.05
  305.026
  304.998
  304.97
  304.944
  304.924
  304.914
  304.921
  304.942
)
;

boundaryField
{
  floor
  {
    type wallHeatTransfer;
    Tinf uniform 297.948;
    alphaWall uniform 0.24;
    value nonuniform List<scalar> 29
(
  302.537
  302.937
  303.079
  303.081
  303.094
  303.092
  303.083
  303.061
  303.034
  303.006
  302.977
  302.949
  302.922
  302.895
  302.869
  302.842
  302.813
  302.782
  302.734
  302.797
  302.797
  303.043
  303.172
  303.301
  302.537
  302.937
  303.181
  303.106
  302.658
)
;
  }
  ceiling
  {
    type wallHeatTransfer;
    Tinf uniform 297.948;
    alphaWall uniform 0.24;
    value nonuniform List<scalar> 43
(
  304.579
  304.521
  304.535
  304.593
  304.648
  304.669
  304.675
  304.674
  304.672
  304.67
  304.67
  304.672
  304.675
  304.681
  304.687
  304.695
  304.701
  304.706
  304.707
  304.705
  304.699
  304.693
  304.685
  304.676
  304.668
  304.659
  304.651
  304.642
  304.634
  304.624
  304.612
  304.598
  304.578
  304.554
  304.527
  304.501
  304.485
  304.487
  304.502
  304.486
  301.849
  301.681
  304.228
)
;
  }
  sWall
  {
    type wallHeatTransfer;
    Tinf uniform 300.167;
    alphaWall uniform 0.36;
    value uniform 304.58;
  }
  nWall
  {
    type wallHeatTransfer;
    Tinf uniform 299.15;
    alphaWall uniform 0.36;
    value nonuniform List<scalar> 6
(
  304.069
  304.192
  304.325
  304.469
  304.426
  304.393
)
;
  }
  sideWalls
  {
    type empty;
  }
  glass1
  {
    type wallHeatTransfer;
    Tinf uniform 300.167;
    alphaWall uniform 4.3;
    value nonuniform List<scalar> 9
(
  301.17
  301.246
  301.251
  301.231
  301.213
  301.18
  301.125
  301.045
  300.938
)
;
  }
  glass2
  {
    type wallHeatTransfer;
    Tinf uniform 299.15;
    alphaWall uniform 4.3;
    value nonuniform List<scalar> 2
(
  302.222
  302.377
)
;
  }
  sun
  {
    type wallHeatTransfer;
    Tinf uniform 297.948;
    alphaWall uniform 0.24;
    value nonuniform List<scalar> 14
(
  302.391
  302.501
  302.56
  302.592
  302.604
  302.607
  302.606
  302.605
  302.603
  302.601
  302.597
  302.592
  302.582
  302.566
)
;
  }
  heatsource1
  {
    type fixedGradient;
    gradient uniform 0;
  }
  heatsource2
  {
    type fixedGradient;
    gradient uniform 0;
  }
  Table_master
  {
    type zeroGradient;
  }
  Table_slave
  {
    type zeroGradient;
  }
  inlet
  {
    type fixedValue;
    value uniform 300.15;
  }
  outlet
  {
    type zeroGradient;
  }
} 	// ************************************************************************* //

