/*--------------------------------*- C++ -*----------------------------------*\
  =========                 |
  \\      /  F ield         | OpenFOAM: The Open Source CFD Toolbox
   \\    /   O peration     | Website:  https://openfoam.org
    \\  /    A nd           | Version:  6
     \\/     M anipulation  |
\*---------------------------------------------------------------------------*/
FoamFile
{
    version     2.0;
    format      ascii;
    class       volScalarField;
    location    "700";
    object      epsilon;
}
// * * * * * * * * * * * * * * * * * * * * * * * * * * * * * * * * * * * * * //

dimensions      [0 2 -3 0 0 0 0];

internalField   nonuniform List<scalar> 
459
(
0.000141361
0.000162689
0.000159146
0.000174452
0.000187774
0.000199168
0.000208997
0.00021771
0.000225837
0.000233742
0.000238806
0.000240049
0.000237411
0.000232637
0.000226922
7.7455e-05
6.2145e-05
5.24617e-05
4.62258e-05
4.16854e-05
3.78826e-05
3.43485e-05
3.12451e-05
2.85015e-05
2.60472e-05
2.38386e-05
2.18403e-05
2.00178e-05
1.83302e-05
1.67235e-05
1.51307e-05
1.34438e-05
1.21103e-05
9.43795e-06
0.000463523
0.000976329
0.00015164
0.000134596
0.000130853
0.000129415
0.000129993
0.000133566
0.000141165
0.000153264
0.000165713
0.000175735
0.000180917
0.00018263
0.000192579
0.000236125
0.000186606
0.000116894
6.24237e-05
4.27735e-05
3.38149e-05
2.85278e-05
2.50465e-05
2.35026e-05
2.1549e-05
1.96578e-05
1.78054e-05
1.60295e-05
1.43659e-05
1.28272e-05
1.14157e-05
1.0217e-05
9.72459e-06
1.00403e-05
2.53226e-05
1.7966e-05
0.0010166
0.00307584
0.000226759
0.000134318
0.000128479
0.000131282
0.000137766
0.000148252
0.000162849
0.000180745
0.000198118
0.000209437
0.000210561
0.000203193
0.00019712
0.0002066
0.000285772
0.00015707
5.6499e-05
3.62039e-05
2.88591e-05
2.5006e-05
2.39603e-05
5.27354e-05
3.97304e-05
3.12083e-05
2.54162e-05
2.1326e-05
1.83371e-05
1.61082e-05
1.44686e-05
1.34063e-05
1.09454e-05
1.04204e-05
4.72907e-05
2.73008e-05
0.00194424
0.00731374
0.000463856
0.000144077
0.000131328
0.000138942
0.000150516
0.000166257
0.000187217
0.00021364
0.000239676
0.000254501
0.000252402
0.000235473
0.000211138
0.000191095
0.000198686
0.000253224
0.000100165
4.57687e-05
2.99122e-05
2.45258e-05
2.28121e-05
2.4362e-05
6.25587e-05
5.64518e-05
5.44045e-05
5.32944e-05
5.13548e-05
4.76397e-05
4.35314e-05
3.90601e-05
3.36685e-05
2.15254e-05
1.55961e-05
8.26893e-05
3.72149e-05
0.00338673
0.0140699
0.00112482
0.00017465
0.000131524
0.000140221
0.000156171
0.000179279
0.000213019
0.000259723
0.00030407
0.000325748
0.000320212
0.000292572
0.000250471
0.000205199
0.000172419
0.000154999
7.755e-05
4.28951e-05
2.77755e-05
2.37275e-05
2.40823e-05
2.66098e-05
3.17443e-05
3.57111e-05
3.88857e-05
4.06441e-05
4.0235e-05
3.73927e-05
3.38042e-05
3.07377e-05
2.82018e-05
2.37345e-05
1.93052e-05
6.00363e-05
4.13353e-05
8.45638e-05
0.000144515
0.000197221
0.00551408
0.0215234
0.00299421
0.000338161
0.000157924
0.000147763
0.000159837
0.000185854
0.000236623
0.000330086
0.000399948
0.00042403
0.000409281
0.000367249
0.000306233
0.000236837
0.000173289
0.000130262
8.37327e-05
4.44713e-05
2.87016e-05
2.60914e-05
2.84674e-05
3.31596e-05
3.95688e-05
4.66914e-05
5.33332e-05
5.8078e-05
5.94038e-05
5.58049e-05
4.72087e-05
3.87224e-05
3.16929e-05
2.61331e-05
2.33709e-05
4.17106e-05
4.2425e-05
5.85466e-05
0.000270407
0.00022067
0.00849909
0.0258254
0.00774879
0.00156448
0.000576046
0.000325091
0.00026338
0.000264574
0.00033415
0.000491296
0.000559161
0.000560316
0.000520025
0.000454784
0.000371646
0.000278161
0.00018944
0.000136988
9.43901e-05
4.8116e-05
3.28192e-05
3.16902e-05
3.57383e-05
4.24354e-05
5.11807e-05
6.15133e-05
7.25032e-05
8.23167e-05
8.93555e-05
9.07588e-05
8.14106e-05
6.59829e-05
5.29731e-05
4.32747e-05
4.00619e-05
4.99358e-05
6.5194e-05
0.000114989
0.000305612
0.000275152
0.0094903
0.0325843
0.0161453
0.00896831
0.0045945
0.00232951
0.00135756
0.000978904
0.00091516
0.000893121
0.000837117
0.000753474
0.000655459
0.000550386
0.000437444
0.000317821
0.000205317
0.000145396
0.000103587
5.3807e-05
3.95622e-05
3.97066e-05
4.50355e-05
5.33002e-05
6.39843e-05
7.68517e-05
9.16518e-05
0.000108076
0.000125788
0.00014387
0.000159896
0.000159432
0.000157334
0.000167647
0.000195462
0.000302692
0.000602178
0.0013406
0.00448481
0.00120946
0.00906457
0.0165533
0.0135776
0.0101748
0.00729737
0.00502361
0.00347014
0.00251337
0.0019143
0.00149425
0.00119271
0.000966359
0.000786139
0.000632024
0.000486065
0.0003394
0.000204229
0.000143828
0.000109988
6.22629e-05
4.88167e-05
4.8996e-05
5.42647e-05
6.25648e-05
7.34795e-05
8.70494e-05
0.000103611
0.000123897
0.000149173
0.000181372
0.000223261
0.000278395
0.000351478
0.0004702
0.000651294
0.000903471
0.00119624
0.00144955
0.00162117
0.000976304
0.00568476
0.00774967
0.006162
0.00467622
0.0035159
0.00266982
0.00206476
0.00161797
0.00128037
0.00101983
0.00081136
0.000636231
0.00047511
0.000317564
0.000172931
0.00012485
0.000116383
7.64039e-05
6.20787e-05
6.0556e-05
6.40679e-05
7.04106e-05
7.91039e-05
9.01423e-05
0.000103821
0.000120833
0.00014246
0.00017086
0.000209499
0.000263758
0.000339715
0.000446321
0.000588202
0.000751419
0.000889277
0.000936684
0.000846528
0.000536083
0.00407112
0.00697918
0.00558523
0.00422474
0.00323748
0.00248526
0.00190612
0.00146614
0.00112703
0.000864258
0.000658117
0.000493802
0.000359168
0.000242853
0.000114978
6.23796e-05
7.181e-05
6.84255e-05
6.25204e-05
6.10729e-05
6.30619e-05
6.76261e-05
7.466e-05
8.44215e-05
9.74427e-05
0.000114576
0.000137106
0.000166937
0.000206861
0.000260576
0.000333223
0.00043041
0.000553589
0.000694582
0.000804623
0.000922041
0.00074245
0.000555081
0.00270785
0.00317789
0.00361208
0.00437786
0.00372444
0.00294768
0.00234384
0.00186569
0.0014685
0.00114082
0.000904518
0.000719911
0.000566716
0.000435595
0.000321508
0.000217859
6.62774e-05
5.40703e-05
5.7035e-05
5.82477e-05
6.11464e-05
6.63891e-05
7.35047e-05
8.23492e-05
9.29912e-05
0.000105605
0.000120471
0.000138037
0.00015905
0.000184836
0.000217795
0.000258299
0.000308517
0.000371358
0.00045067
0.000568739
0.000616683
0.000581621
0.000477871
0.00038122
)
;

boundaryField
{
    floor
    {
        Cmu             0.09;
        kappa           0.41;
        E               9.8;
        type            epsilonWallFunction;
        value           nonuniform List<scalar> 
29
(
0.000226922
7.7455e-05
6.2145e-05
5.24617e-05
4.62258e-05
4.16854e-05
3.78826e-05
3.43485e-05
3.12451e-05
2.85015e-05
2.60472e-05
2.38386e-05
2.18403e-05
2.00178e-05
1.83302e-05
1.67235e-05
1.51307e-05
1.34438e-05
1.21103e-05
9.43795e-06
9.43795e-06
1.7966e-05
2.73008e-05
3.72149e-05
0.000226922
7.7455e-05
0.000116894
0.00015707
0.000253224
)
;
    }
    ceiling
    {
        Cmu             0.09;
        kappa           0.41;
        E               9.8;
        type            epsilonWallFunction;
        value           nonuniform List<scalar> 
43
(
0.00270785
0.00317789
0.00361208
0.00437786
0.00372444
0.00294768
0.00234384
0.00186569
0.0014685
0.00114082
0.000904518
0.000719911
0.000566716
0.000435595
0.000321508
0.000217859
6.62774e-05
5.40703e-05
5.7035e-05
5.82477e-05
6.11464e-05
6.63891e-05
7.35047e-05
8.23492e-05
9.29912e-05
0.000105605
0.000120471
0.000138037
0.00015905
0.000184836
0.000217795
0.000258299
0.000308517
0.000371358
0.00045067
0.000568739
0.000616683
0.000581621
0.000477871
0.00038122
0.00906457
0.0165533
0.00407112
)
;
    }
    sWall
    {
        Cmu             0.09;
        kappa           0.41;
        E               9.8;
        type            epsilonWallFunction;
        value           uniform 0.00270785;
    }
    nWall
    {
        Cmu             0.09;
        kappa           0.41;
        E               9.8;
        type            epsilonWallFunction;
        value           nonuniform List<scalar> 6(0.000197221 0.00022067 0.000275152 0.000536083 0.000555081 0.00038122);
    }
    sideWalls
    {
        type            empty;
    }
    glass1
    {
        Cmu             0.09;
        kappa           0.41;
        E               9.8;
        type            epsilonWallFunction;
        value           nonuniform List<scalar> 9(0.000141361 0.000463523 0.0010166 0.00194424 0.00338673 0.00551408 0.00849909 0.0094903 0.00906457);
    }
    glass2
    {
        Cmu             0.09;
        kappa           0.41;
        E               9.8;
        type            epsilonWallFunction;
        value           nonuniform List<scalar> 2(0.00120946 0.000976304);
    }
    sun
    {
        Cmu             0.09;
        kappa           0.41;
        E               9.8;
        type            epsilonWallFunction;
        value           nonuniform List<scalar> 
14
(
0.000141361
0.000162689
0.000159146
0.000174452
0.000187774
0.000199168
0.000208997
0.00021771
0.000225837
0.000233742
0.000238806
0.000240049
0.000237411
0.000232637
)
;
    }
    heatsource1
    {
        Cmu             0.09;
        kappa           0.41;
        E               9.8;
        type            epsilonWallFunction;
        value           nonuniform List<scalar> 3(8.45638e-05 0.000144515 0.000197221);
    }
    heatsource2
    {
        Cmu             0.09;
        kappa           0.41;
        E               9.8;
        type            epsilonWallFunction;
        value           nonuniform List<scalar> 4(0.000236125 0.000186606 0.000186606 0.000285772);
    }
    Table_master
    {
        Cmu             0.09;
        kappa           0.41;
        E               9.8;
        type            epsilonWallFunction;
        value           nonuniform List<scalar> 9(5.27354e-05 3.97304e-05 3.12083e-05 2.54162e-05 2.1326e-05 1.83371e-05 1.61082e-05 1.44686e-05 1.34063e-05);
    }
    Table_slave
    {
        Cmu             0.09;
        kappa           0.41;
        E               9.8;
        type            epsilonWallFunction;
        value           nonuniform List<scalar> 9(6.25587e-05 5.64518e-05 5.44045e-05 5.32944e-05 5.13548e-05 4.76397e-05 4.35314e-05 3.90601e-05 3.36685e-05);
    }
    inlet
    {
        type            turbulentMixingLengthDissipationRateInlet;
        mixingLength    0.01;
        phi             phi;
        k               k;
        value           uniform 0.000101881;
    }
    outlet
    {
        type            zeroGradient;
    }
}


// ************************************************************************* //
