/*--------------------------------*- C++ -*----------------------------------*\
  =========                 |
  \\      /  F ield         | OpenFOAM: The Open Source CFD Toolbox
   \\    /   O peration     | Website:  https://openfoam.org
    \\  /    A nd           | Version:  6
     \\/     M anipulation  |
\*---------------------------------------------------------------------------*/
FoamFile
{
    version     2.0;
    format      ascii;
    class       surfaceScalarField;
    location    "700";
    object      phi;
}
// * * * * * * * * * * * * * * * * * * * * * * * * * * * * * * * * * * * * * //

dimensions      [1 0 -1 0 0 0 0];

internalField   nonuniform List<scalar> 
852
(
-0.00278826
0.00285151
-0.00345098
0.000662737
-0.0041344
0.000683452
-0.00475854
0.000624163
-0.00528921
0.000530693
-0.00571046
0.000421278
-0.00600606
0.000295617
-0.00615547
0.000149432
-0.00613367
-2.17759e-05
-0.00590862
-0.000225024
-0.00545597
-0.000452628
-0.00476478
-0.000691164
-0.00380077
-0.000963987
-0.00237488
-0.00142587
-0.00237268
0.000937782
-0.000934917
0.00148867
-0.000550861
0.00176673
-0.00027803
0.00193219
-0.000165429
0.00204245
-0.00011022
0.00210262
-6.01383e-05
0.00211203
-9.38055e-06
0.00209519
1.68658e-05
0.00206962
2.56095e-05
0.00204078
2.88738e-05
0.00200946
3.13513e-05
0.00197455
3.49383e-05
0.00193168
4.29015e-05
0.00186934
6.23747e-05
0.00176113
0.000108247
0.00156339
0.000197778
0.00125651
0.000306909
0.0008681
0.000388445
0.000872627
-0.00201675
0.0050376
-0.00283218
0.00147818
-0.00361093
0.00146223
-0.00425426
0.00126752
-0.00478949
0.00106594
-0.00521708
0.000848896
-0.00552568
0.000604244
-0.00569692
0.000320688
-0.00570837
-1.03017e-05
-0.00554499
-0.000388376
-0.00519846
-0.000799138
-0.00466902
-0.00122057
-0.00396924
-0.00166375
-0.00325219
-0.0021429
-0.00324281
-0.00238203
-0.00138203
-0.00186082
-0.00138205
0.000762216
-0.00168935
0.00108596
-0.000874573
0.00128708
-0.000479114
0.00144222
-0.000320539
0.0015582
-0.000226166
0.00163433
-0.000136245
0.00164992
-2.49349e-05
0.00165693
9.88924e-06
0.00166293
1.96447e-05
0.0016683
2.35404e-05
0.00167292
2.67659e-05
0.00167666
3.12271e-05
0.00167857
4.10275e-05
0.00167432
6.66543e-05
0.00163264
0.000149966
0.00144434
0.000386111
0.0011162
0.000635087
0.000709444
0.000795234
0.00159402
-0.00146167
0.00675552
-0.00226745
0.00228399
-0.00298867
0.00218348
-0.00355431
0.00183319
-0.004031
0.00154265
-0.00442084
0.00123876
-0.00471147
0.000894908
-0.00488339
0.000492628
-0.00491386
2.01981e-05
-0.00478157
-0.000520641
-0.00448286
-0.00109782
-0.00403717
-0.00166624
-0.00350182
-0.00219908
-0.00299667
-0.00264802
-0.00251568
-0.002863
-0.00152498
-0.00285149
-0.00290701
0.000292501
-0.00196977
0.000584769
-0.00116681
0.000816533
-0.000710846
0.00100069
-0.000504664
0.00114827
-0.000373713
0.00126203
-0.000249966
0.00123728
0.00124736
0.00126719
0.00129092
0.00131787
0.00134929
0.0013905
0.00145735
0.0016075
0.00133668
0.000656967
0.000999306
0.000972495
0.000577211
0.00121736
0.0021895
-0.0010742
0.00815692
-0.00181974
0.00302956
-0.00232527
0.00268903
-0.00273925
0.0022472
-0.00311129
0.00191471
-0.00343234
0.00155984
-0.00368659
0.00114918
-0.00385187
0.000657941
-0.00389762
6.59757e-05
-0.0037906
-0.000627638
-0.00353591
-0.00135249
-0.0031797
-0.00202243
-0.00279067
-0.00258809
-0.00242539
-0.00301328
-0.00203177
-0.0032566
-0.00157073
-0.00331251
-0.00157118
-0.00290654
0.000313338
-0.00187169
0.000176456
-0.00183286
0.000327194
-0.00131752
0.00052112
-0.00090474
0.000695394
-0.000678904
0.000855971
-0.000534257
0.00100798
-0.00040194
0.00128364
-0.000275777
0.0015241
-0.000240587
0.00173722
-0.000213235
0.00191104
-0.000173942
0.00202283
-0.000111903
0.00204411
-2.13993e-05
0.00195187
9.21217e-05
0.00172334
0.000228406
0.00131182
0.000411398
0.00115727
0.000811558
0.000835798
0.001294
0.000359393
0.0016938
0.00257282
-0.000783634
0.00932589
-0.00145326
0.00369922
-0.00162745
0.00286324
-0.00185517
0.00247494
-0.00209328
0.00215285
-0.00231198
0.00177856
-0.00249419
0.00133142
-0.00262132
0.0007851
-0.00265872
0.0001034
-0.00255284
-0.000733489
-0.00232929
-0.00157601
-0.00205523
-0.00229647
-0.001788
-0.0028553
-0.00155087
-0.0032504
-0.00131806
-0.0034894
-0.001071
-0.00355956
-0.000703326
-0.00327419
-2.00257e-05
-0.00255496
0.000103133
-0.00195599
0.000170516
-0.00138487
0.000286459
-0.00102065
0.000422146
-0.000814557
0.000569796
-0.000681874
0.000742395
-0.000574506
0.0009616
-0.000494948
0.00116808
-0.000447031
0.00135824
-0.000403363
0.0015237
-0.000339369
0.00164705
-0.000235221
0.00170179
-7.61048e-05
0.00166512
0.000128826
0.00153561
0.000357953
0.00132826
0.000618778
0.00114488
0.000994974
0.000946668
0.00149225
0.000522724
0.00211778
0.000332673
0.00276291
-0.0012179
0.00155041
-0.00165505
0.000436973
-0.00160235
-0.000683088
0.0104425
-0.00123821
0.00425436
-0.000930417
0.00255548
-0.000916295
0.00246085
-0.00102185
0.00225844
-0.00112718
0.00188392
-0.00120292
0.00140719
-0.00124692
0.000829131
-0.00122134
7.78439e-05
-0.00107923
-0.000875572
-0.000891758
-0.00176346
-0.000719357
-0.00246885
-0.000593579
-0.00298106
-0.000517901
-0.00332606
-0.000469112
-0.00353818
-0.000395123
-0.00363354
-0.000220415
-0.00344887
-2.05348e-06
-0.00277329
3.02338e-05
-0.00198824
2.28864e-05
-0.00137749
5.97037e-05
-0.00105744
0.000131513
-0.000886333
0.000230212
-0.000780538
0.000359014
-0.000703275
0.000511598
-0.000647498
0.000670729
-0.000606129
0.000829368
-0.000561969
0.000983461
-0.000493428
0.00112417
-0.000375892
0.0012323
-0.000184202
0.00127816
8.29989e-05
0.0012659
0.000370247
0.00121902
0.00066569
0.00119955
0.00101448
0.00126666
0.00142517
0.00142011
0.00196436
0.00190581
0.00227725
0.00214954
0.00130671
0.00176877
0.000817773
0.0002299
-0.000946781
0.0118635
-0.000974573
0.00428217
-4.9793e-05
0.00163073
0.000221329
0.00218975
0.00019246
0.00228733
0.000158428
0.00191798
0.000197279
0.00136837
0.000293718
0.00073272
0.000462325
-9.07334e-05
0.000648182
-0.0010614
0.000757721
-0.00187297
0.000775
-0.00248611
0.000708787
-0.00291483
0.000579839
-0.00319711
0.000420418
-0.00337875
0.000284362
-0.00349748
0.000208953
-0.00337344
0.000135168
-0.00269948
-8.71652e-06
-0.00184432
-0.000130409
-0.00125576
-0.000187245
-0.00100057
-0.0001996
-0.000873945
-0.000179713
-0.000800391
-0.000130931
-0.000752023
-5.90077e-05
-0.000719388
2.90951e-05
-0.000694199
0.000129268
-0.000662108
0.000242598
-0.000606726
0.000374278
-0.000507538
0.000527209
-0.000337101
0.000674332
-6.40907e-05
0.000800672
0.000243941
0.000922785
0.000543611
0.0010935
0.000843804
0.00137859
0.00114011
0.00184427
0.00149872
0.00258467
0.00153688
0.00315785
0.000733562
0.00327536
0.000700304
0.00357674
0.00229358
0.0100963
0.00275724
0.00381853
0.00264807
0.00173992
0.00249051
0.00234733
0.00225172
0.00252615
0.00212911
0.00204061
0.00216321
0.00133429
0.0023511
0.000544865
0.00260157
-0.000341181
0.00268727
-0.00114707
0.00259683
-0.00178251
0.0023604
-0.00224967
0.0020239
-0.00257831
0.00163265
-0.00280584
0.00123274
-0.00297884
0.00088071
-0.00314544
0.000586883
-0.00307959
0.000262242
-0.0023748
-8.37181e-05
-0.00149833
-0.000325793
-0.00101365
-0.00047898
-0.000847344
-0.000580475
-0.000772416
-0.000649358
-0.000731475
-0.000693988
-0.00070736
-0.000720457
-0.000692886
-0.000733659
-0.000680964
-0.000734161
-0.000661572
-0.0007177
-0.000623154
-0.000672113
-0.000553092
-0.000570759
-0.000438422
-0.000370251
-0.000264566
-0.000128475
2.19885e-06
0.00012067
0.0002945
0.000420457
0.000544051
0.00078793
0.000772671
0.00129218
0.000994507
0.00186252
0.000966572
0.00204372
0.000552397
0.0011385
0.00160556
0.00499935
0.010672
0.0144839
0.0121539
0.00406987
0.0101159
0.00438537
0.00848673
0.00415538
0.00739468
0.00313268
0.00670218
0.00202683
0.00622481
0.00102226
0.00573082
0.00015284
0.00515037
-0.000566599
0.00450906
-0.00114118
0.00383076
-0.00157136
0.0031335
-0.00188105
0.00244013
-0.00211246
0.00178996
-0.00232867
0.00125888
-0.00261436
0.000824122
-0.00264481
0.000266825
-0.00181747
-0.000256229
-0.000975236
-0.000586731
-0.000683113
-0.000815132
-0.000618909
-0.000995537
-0.000591977
-0.00115127
-0.000575711
-0.00129299
-0.000565608
-0.00142791
-0.000557931
-0.0015619
-0.000546936
-0.00169945
-0.000523992
-0.00184494
-0.00047763
-0.00200413
-0.000393864
-0.00218511
-0.000257411
-0.00239581
-5.38318e-05
-0.00261418
0.0002206
-0.00288911
0.00056946
-0.00334883
0.00100381
-0.00409596
0.00151983
-0.0051847
0.00208328
-0.00671753
0.00249944
-0.00856643
0.00240133
-0.00798356
0.00102272
-0.00266844
0.00506811
0.00493268
0.00485385
0.00459963
0.00578171
0.00322753
0.00619329
0.00272112
0.00624683
0.0019733
0.00614323
0.00112587
0.00589793
0.000398146
0.00548305
-0.000151704
0.00491053
-0.000568657
0.00422356
-0.000884377
0.00346494
-0.00112243
0.0026714
-0.00131892
0.00189367
-0.00155094
0.0012629
-0.00198358
0.000761091
-0.00214296
6.82815e-06
-0.00106318
-0.000576832
-0.000391535
-0.000910338
-0.000349571
-0.00115973
-0.000369483
-0.00138233
-0.000369342
-0.0015942
-0.000363811
-0.00180245
-0.000357325
-0.00201202
-0.000348323
-0.0022257
-0.000333221
-0.00244302
-0.000306636
-0.00265931
-0.000261311
-0.00286485
-0.000188286
-0.00304395
-7.82819e-05
-0.00317626
7.85108e-05
-0.00326501
0.000309379
-0.00333026
0.000634753
-0.00339424
0.00106782
-0.00346695
0.00159258
-0.00349239
0.00210874
-0.00339005
0.00239714
-0.00297951
0.00199082
-0.00167167
-0.000285091
-0.00425668
-0.000516037
0.00549259
0.00162443
0.00245916
0.00280338
0.00204859
0.00367792
0.00184658
0.00434669
0.00130454
0.00470605
0.000766519
0.0047676
0.000336606
0.00459058
2.53246e-05
0.00423249
-0.000210561
0.00373006
-0.000381942
0.00311772
-0.000510069
0.00241811
-0.000619312
0.00165067
-0.000783483
0.000877535
-0.00121044
2.07039e-05
-0.00128606
-0.000684879
-0.000357548
-0.00105051
-2.58676e-05
-0.00129122
-0.000108821
-0.00149892
-0.000161749
-0.00169831
-0.000169925
-0.00189364
-0.000168439
-0.00208556
-0.000165379
-0.00227363
-0.000160218
-0.00245596
-0.000150857
-0.00262824
-0.000134324
-0.00278275
-0.000106762
-0.00290768
-6.33231e-05
-0.00298876
2.83097e-06
-0.00300377
9.3557e-05
-0.002922
0.000227641
-0.00271138
0.000424168
-0.00234794
0.000704408
-0.00183426
0.00107892
-0.00115298
0.0014275
-0.000107628
0.00135182
0.00124934
0.000633883
0.00160739
-0.000643104
-0.00255744
-0.00830859
-0.0107122
-0.00518292
-0.00270374
-0.000640315
0.00121763
0.00253234
0.00330869
0.00365525
0.00369093
0.00349112
0.00312035
0.00262193
0.00201485
0.00124432
4.75976e-05
-0.00122778
-0.00157596
-0.00159282
-0.00169283
-0.00184599
-0.00200758
-0.00216795
-0.00232556
-0.00247828
-0.00262192
-0.00274931
-0.00284941
-0.00290634
-0.00289739
-0.00279799
-0.0025648
-0.00213539
-0.00142605
-0.000342541
0.00108907
0.00244472
0.00308239
0.00244323
)
;

boundaryField
{
    floor
    {
        type            calculated;
        value           nonuniform List<scalar> 
29
(
0
0
0
0
0
0
0
0
0
0
0
0
0
0
0
0
0
0
0
0
-4.49302e-06
-1.19128e-05
-1.82345e-05
-2.38945e-05
-2.18083e-06
-2.83404e-06
-7.75092e-06
-1.20511e-05
-1.28067e-05
)
;
    }
    ceiling
    {
        type            calculated;
        value           nonuniform List<scalar> 
43
(
-3.90597e-05
-3.79203e-05
-3.66708e-05
-2.00127e-05
-1.48314e-05
-1.13526e-05
-1.01591e-05
-9.82653e-06
-9.9438e-06
-1.03446e-05
-1.07412e-05
-1.11597e-05
-1.16396e-05
-1.22197e-05
-1.29453e-05
-1.36926e-05
-1.05629e-05
-9.32538e-06
-8.97769e-06
-8.77743e-06
-8.55937e-06
-8.30323e-06
-8.02805e-06
-7.74548e-06
-7.46169e-06
-7.18028e-06
-6.90301e-06
-6.62993e-06
-6.35927e-06
-6.08698e-06
-5.80496e-06
-5.51602e-06
-5.2154e-06
-4.89717e-06
-4.55196e-06
-4.07414e-06
-3.80282e-06
-3.75229e-06
-3.91314e-06
-3.40226e-06
1.00287e-05
6.71886e-06
-4.3875e-05
)
;
    }
    sWall
    {
        type            calculated;
        value           uniform -0.00024935;
    }
    nWall
    {
        type            calculated;
        value           nonuniform List<scalar> 6(-5.28618e-05 -6.34447e-05 -7.14474e-05 -8.33959e-05 -9.18275e-05 -0.000110766);
    }
    sideWalls
    {
        type            empty;
        value           nonuniform 0();
    }
    glass1
    {
        type            calculated;
        value           nonuniform List<scalar> 9(-6.32258e-05 -0.000169315 -0.000256232 -0.000327183 -0.00038532 -0.000433454 -0.000474213 -0.000526404 -0.000585747);
    }
    glass2
    {
        type            calculated;
        value           nonuniform List<scalar> 2(-0.000284081 -0.000315734);
    }
    sun
    {
        type            calculated;
        value           uniform 0;
    }
    heatsource1
    {
        type            calculated;
        value           nonuniform List<scalar> 3(2.04702e-07 2.04594e-07 2.04606e-07);
    }
    heatsource2
    {
        type            calculated;
        value           nonuniform List<scalar> 4(5.09813e-08 5.12065e-08 0 0);
    }
    Table_master
    {
        type            calculated;
        value           nonuniform List<scalar> 9(-1.53628e-07 -1.53671e-07 -1.53677e-07 -1.53682e-07 -1.53684e-07 -1.53683e-07 -1.53679e-07 -1.53666e-07 -1.53622e-07);
    }
    Table_slave
    {
        type            calculated;
        value           nonuniform List<scalar> 9(1.53579e-07 1.53531e-07 1.53465e-07 1.53411e-07 1.53379e-07 1.53378e-07 1.53388e-07 1.5343e-07 1.53519e-07);
    }
    inlet
    {
        type            calculated;
        value           uniform -0.00593092;
    }
    outlet
    {
        type            calculated;
        value           nonuniform List<scalar> 2(0.008597 0.00244153);
    }
}


// ************************************************************************* //
