/*--------------------------------*- C++ -*----------------------------------*\
  =========                 |
  \\      /  F ield         | OpenFOAM: The Open Source CFD Toolbox
   \\    /   O peration     | Website:  https://openfoam.org
    \\  /    A nd           | Version:  6
     \\/     M anipulation  |
\*---------------------------------------------------------------------------*/
FoamFile
{
    version     2.0;
    format      ascii;
    class       volVectorField;
    location    "1400";
    object      U;
}
// * * * * * * * * * * * * * * * * * * * * * * * * * * * * * * * * * * * * * //

dimensions      [0 1 -1 0 0 0 0];

internalField   nonuniform List<vector> 
459
(
(0.0269735 0.0873591 0)
(-0.170525 0.0273082 0)
(-0.198306 0.0176352 0)
(-0.229008 0.0106574 0)
(-0.249144 0.00314643 0)
(-0.257389 -0.00472969 0)
(-0.251869 -0.0129346 0)
(-0.232997 -0.0212538 0)
(-0.202327 -0.028373 0)
(-0.163371 -0.0330063 0)
(-0.120719 -0.0344662 0)
(-0.0790357 -0.0324069 0)
(-0.0424365 -0.026478 0)
(-0.0148874 -0.0160202 0)
(-0.0164483 -0.00194766 0)
(-0.0134232 0.010332 0)
(-0.0324965 -0.0151536 0)
(-0.0116814 -0.0266178 0)
(0.0139066 -0.0227507 0)
(0.0310447 -0.0164067 0)
(0.0460073 -0.0111087 0)
(0.0559492 -0.0065421 0)
(0.0614633 -0.0040745 0)
(0.0641133 -0.00308776 0)
(0.0655179 -0.00266163 0)
(0.0664804 -0.00238671 0)
(0.0671562 -0.00215632 0)
(0.0674749 -0.00189577 0)
(0.0672106 -0.0014154 0)
(0.0657767 -0.000326426 0)
(0.0619168 0.00192748 0)
(0.0541967 0.00464286 0)
(0.0443616 0.00785434 0)
(-0.00246109 0.0220357 0)
(0.196258 0.178476 0)
(-0.156081 0.0721778 0)
(-0.158682 0.0540475 0)
(-0.190155 0.0394854 0)
(-0.210172 0.0230484 0)
(-0.218788 0.0047198 0)
(-0.213935 -0.0153254 0)
(-0.196447 -0.0350172 0)
(-0.168554 -0.0510154 0)
(-0.134127 -0.0606995 0)
(-0.0974118 -0.063299 0)
(-0.062239 -0.0589783 0)
(-0.0316825 -0.0481879 0)
(-0.0075279 -0.0312428 0)
(0.00703602 -0.0128079 0)
(0.0168072 -6.11656e-06 0)
(0.0134113 0.0191534 0)
(0.045828 0.0392183 0)
(0.02058 -0.0196447 0)
(0.0317505 -0.0339679 0)
(0.0437264 -0.0315002 0)
(0.053897 -0.0239092 0)
(0.0619034 -0.0159959 0)
(0.0656258 -0.0072535 0)
(0.0665099 -0.00210527 0)
(0.0665243 -2.29952e-05 0)
(0.066675 0.000840637 0)
(0.0669368 0.00134558 0)
(0.0671325 0.00175055 0)
(0.0672261 0.00227853 0)
(0.0671524 0.0032667 0)
(0.0663939 0.00561475 0)
(0.0625823 0.0118996 0)
(0.0529944 0.0178317 0)
(0.0447981 0.0234874 0)
(-0.0356622 0.0468286 0)
(0.351867 0.266491 0)
(-0.168428 0.113511 0)
(-0.118725 0.0866371 0)
(-0.148757 0.0614744 0)
(-0.166549 0.0344691 0)
(-0.174015 0.00461273 0)
(-0.167597 -0.0275897 0)
(-0.14943 -0.0582746 0)
(-0.122874 -0.0818408 0)
(-0.0924427 -0.0946272 0)
(-0.0616566 -0.096534 0)
(-0.0331121 -0.0885805 0)
(-0.00878284 -0.0723453 0)
(0.011631 -0.0484803 0)
(0.0254565 -0.0234565 0)
(0.0333059 0.00147763 0)
(0.0347887 0.037783 0)
(0.103278 -0.0186977 0)
(0.075042 -0.0363166 0)
(0.0713294 -0.0408234 0)
(0.0730459 -0.037061 0)
(0.0746836 -0.0295065 0)
(0.0765563 -0.0225537 0)
(0.0753705 -0.0177596 0)
(0.0693337 -0.0121292 0)
(0.0647775 -0.00905761 0)
(0.0626082 -0.00731054 0)
(0.0615527 -0.00619041 0)
(0.0608655 -0.00541934 0)
(0.0604968 -0.0047798 0)
(0.0609652 -0.00381672 0)
(0.0635054 -0.000463232 0)
(0.0616178 0.0166565 0)
(0.0492449 0.0293085 0)
(0.0476541 0.0397882 0)
(-0.0665694 0.0723358 0)
(0.493184 0.336997 0)
(-0.198788 0.149376 0)
(-0.0771342 0.114254 0)
(-0.104651 0.0802246 0)
(-0.117255 0.0447833 0)
(-0.120272 0.00418105 0)
(-0.107862 -0.0406343 0)
(-0.087427 -0.0814031 0)
(-0.0626596 -0.110505 0)
(-0.0380813 -0.124252 0)
(-0.0152699 -0.124434 0)
(0.00511218 -0.11258 0)
(0.021659 -0.0920705 0)
(0.0360012 -0.0657498 0)
(0.0491785 -0.0371019 0)
(0.0642381 -0.00843594 0)
(0.0843783 0.0241808 0)
(0.11608 0.0259034 0)
(0.118166 -0.0162634 0)
(0.10383 -0.0319801 0)
(0.0931851 -0.0348897 0)
(0.0858776 -0.0322653 0)
(0.0800083 -0.0264493 0)
(0.0754498 -0.0184551 0)
(0.0751447 -0.0105945 0)
(0.0794558 -0.00720346 0)
(0.0826002 -0.00532418 0)
(0.0837289 -0.00409815 0)
(0.0835112 -0.00294902 0)
(0.0819039 -0.00156884 0)
(0.0782342 0.00028224 0)
(0.0712749 0.00298509 0)
(0.0581453 0.00714511 0)
(0.0472825 0.026774 0)
(0.0373822 0.04345 0)
(0.049933 0.0580511 0)
(-0.0973457 0.0946188 0)
(0.616126 0.391167 0)
(-0.237964 0.177829 0)
(-0.0365298 0.129893 0)
(-0.0583598 0.0907666 0)
(-0.0625223 0.0499002 0)
(-0.0537599 -0.000164622 0)
(-0.0314324 -0.0573472 0)
(-0.00950201 -0.103944 0)
(0.0106813 -0.133969 0)
(0.0258585 -0.14458 0)
(0.0376826 -0.141113 0)
(0.046434 -0.126576 0)
(0.05307 -0.104159 0)
(0.0589905 -0.0770251 0)
(0.0655411 -0.0487937 0)
(0.0745108 -0.0233262 0)
(0.0881324 -0.00683441 0)
(0.0985753 -0.0129232 0)
(0.0983959 -0.0238703 0)
(0.0908765 -0.0276287 0)
(0.081196 -0.0270163 0)
(0.0723847 -0.0242816 0)
(0.0649637 -0.0198465 0)
(0.0594363 -0.0137797 0)
(0.0569785 -0.00625545 0)
(0.0573756 -0.00223907 0)
(0.0580871 -0.000615002 0)
(0.0585515 0.000383764 0)
(0.0589823 0.0018018 0)
(0.0590106 0.00411353 0)
(0.0580276 0.00765186 0)
(0.0554282 0.0128172 0)
(0.050383 0.0203596 0)
(0.0445914 0.0349591 0)
(0.036851 0.0527815 0)
(0.0584452 0.0733245 0)
(-0.0160618 0.105126 0)
(0.0464102 0.0363047 0)
(-0.0591154 -0.0331274 0)
(-0.266084 -0.0551983 0)
(0.706557 0.435647 0)
(-0.277299 0.195853 0)
(-0.00526435 0.124889 0)
(-0.0096733 0.0894719 0)
(-0.000241965 0.0436404 0)
(0.0328044 -0.0201162 0)
(0.0603859 -0.0797865 0)
(0.0792048 -0.122086 0)
(0.0896372 -0.145683 0)
(0.0930562 -0.152276 0)
(0.0915903 -0.145309 0)
(0.0869156 -0.128313 0)
(0.080879 -0.104859 0)
(0.0752518 -0.078182 0)
(0.0714766 -0.0516085 0)
(0.070658 -0.0287898 0)
(0.0730805 -0.013854 0)
(0.0744457 -0.0112732 0)
(0.0709289 -0.0144032 0)
(0.0632997 -0.0170787 0)
(0.0543007 -0.0174611 0)
(0.0459898 -0.016024 0)
(0.0390458 -0.0131924 0)
(0.0339465 -0.00922027 0)
(0.0312263 -0.00488812 0)
(0.0307353 -0.00263689 0)
(0.0313549 -0.00194549 0)
(0.0326259 -0.00152228 0)
(0.0345158 -0.000325721 0)
(0.0369547 0.00238884 0)
(0.0391053 0.00694104 0)
(0.0407181 0.0135616 0)
(0.0417353 0.0226891 0)
(0.0432813 0.0359415 0)
(0.0439161 0.0529518 0)
(0.066849 0.0754421 0)
(0.0507993 0.0957251 0)
(0.0905076 0.0676969 0)
(0.1131 0.0441607 0)
(-0.125746 -0.00590656 0)
(0.765381 0.475973 0)
(-0.296255 0.179345 0)
(0.0268428 0.0691529 0)
(0.0583501 0.0524684 0)
(0.092834 0.00986736 0)
(0.136875 -0.053095 0)
(0.162842 -0.102566 0)
(0.173101 -0.133415 0)
(0.170244 -0.147086 0)
(0.157725 -0.146353 0)
(0.139235 -0.13457 0)
(0.118013 -0.11528 0)
(0.0968559 -0.0918501 0)
(0.0778783 -0.0669269 0)
(0.0625404 -0.0431308 0)
(0.0516505 -0.0235987 0)
(0.0449881 -0.0110279 0)
(0.0401712 -0.00682431 0)
(0.0345592 -0.00755795 0)
(0.0276203 -0.00919856 0)
(0.0203261 -0.00978467 0)
(0.0136602 -0.00920498 0)
(0.0081396 -0.00772823 0)
(0.00419984 -0.00565421 0)
(0.00221916 -0.00367266 0)
(0.00204353 -0.0029472 0)
(0.00301994 -0.0032256 0)
(0.00482668 -0.00364797 0)
(0.00747529 -0.00332103 0)
(0.0112263 -0.00127522 0)
(0.0166576 0.00335877 0)
(0.022115 0.010084 0)
(0.028195 0.0188033 0)
(0.0361393 0.0300924 0)
(0.0451298 0.0436383 0)
(0.0677215 0.0615635 0)
(0.0824745 0.071303 0)
(0.114346 0.0513186 0)
(0.153531 0.0429068 0)
(-0.0367905 0.0898279 0)
(0.872159 0.473994 0)
(-0.0526894 0.155894 0)
(0.11857 -0.0203894 0)
(0.207573 -0.0647312 0)
(0.255927 -0.0871506 0)
(0.278451 -0.108994 0)
(0.282202 -0.125663 0)
(0.268683 -0.133213 0)
(0.241312 -0.131376 0)
(0.205148 -0.12149 0)
(0.165141 -0.105363 0)
(0.125374 -0.0854046 0)
(0.0889613 -0.0641014 0)
(0.0576819 -0.0430863 0)
(0.0329687 -0.0241439 0)
(0.0157056 -0.0100632 0)
(0.00496203 -0.0023049 0)
(-0.00141964 -0.000342783 0)
(-0.0062037 -0.00148335 0)
(-0.011105 -0.003071 0)
(-0.0160411 -0.00400123 0)
(-0.0205358 -0.00421139 0)
(-0.0242421 -0.00391445 0)
(-0.0268445 -0.00341957 0)
(-0.0281624 -0.00320054 0)
(-0.028396 -0.00372759 0)
(-0.0279773 -0.00487102 0)
(-0.0271309 -0.00617823 0)
(-0.0257951 -0.00711727 0)
(-0.0236297 -0.00706704 0)
(-0.0198273 -0.00527995 0)
(-0.0121439 -0.00117864 0)
(-0.00372524 0.00454409 0)
(0.00754565 0.0112558 0)
(0.0200527 0.0171384 0)
(0.0405681 0.0238918 0)
(0.0608174 0.0198531 0)
(0.0804691 -0.00070605 0)
(0.137839 0.0475139 0)
(-0.42112 0.198455 0)
(1.02179 0.423208 0)
(0.485849 0.278936 0)
(0.502838 0.176335 0)
(0.533575 0.0922651 0)
(0.507202 0.02852 0)
(0.454385 -0.0211382 0)
(0.39487 -0.054337 0)
(0.331285 -0.0709125 0)
(0.265082 -0.0739039 0)
(0.199853 -0.0675159 0)
(0.139066 -0.0551168 0)
(0.0856855 -0.0397747 0)
(0.0412398 -0.0240842 0)
(0.00477205 -0.00966664 0)
(-0.0204615 0.000196649 0)
(-0.0332973 0.00429271 0)
(-0.0397624 0.00522041 0)
(-0.0432043 0.00424261 0)
(-0.0459551 0.00246004 0)
(-0.0486663 0.000761714 0)
(-0.0514356 -0.000495997 0)
(-0.0541307 -0.00134054 0)
(-0.0565768 -0.00194313 0)
(-0.0585989 -0.00253082 0)
(-0.0602095 -0.00332351 0)
(-0.0616933 -0.00443552 0)
(-0.0634836 -0.00570038 0)
(-0.0659782 -0.00675956 0)
(-0.0695377 -0.00712455 0)
(-0.0745714 -0.0061621 0)
(-0.0816298 -0.0030947 0)
(-0.0904396 0.00252343 0)
(-0.100298 0.0107086 0)
(-0.113839 0.0217124 0)
(-0.134527 0.0357982 0)
(-0.164501 0.0525366 0)
(-0.207772 0.0691846 0)
(-0.262256 0.0831068 0)
(-0.337119 0.091685 0)
(-0.597086 0.0872776 0)
(-0.113894 -0.0130645 0)
(0.107459 -0.0360278 0)
(0.17834 -0.0641149 0)
(0.163519 -0.0604148 0)
(0.139624 -0.0477861 0)
(0.109804 -0.0345389 0)
(0.0745453 -0.021857 0)
(0.0359055 -0.00983484 0)
(-0.00417521 0.00101985 0)
(-0.0353159 0.00803964 0)
(-0.0560024 0.0119085 0)
(-0.0681061 0.0133471 0)
(-0.074177 0.0129245 0)
(-0.0771037 0.0117413 0)
(-0.0786433 0.0105993 0)
(-0.0797742 0.00955935 0)
(-0.0811376 0.0087649 0)
(-0.0828796 0.00842641 0)
(-0.0848782 0.00860036 0)
(-0.0869453 0.00915234 0)
(-0.0889319 0.00985509 0)
(-0.0908504 0.0104884 0)
(-0.0928079 0.0108468 0)
(-0.0950133 0.0108096 0)
(-0.0976896 0.01043 0)
(-0.100966 0.00994085 0)
(-0.104826 0.00974636 0)
(-0.109052 0.0103812 0)
(-0.113122 0.0124449 0)
(-0.116857 0.01689 0)
(-0.120137 0.0247529 0)
(-0.122885 0.0367106 0)
(-0.12516 0.0526355 0)
(-0.126488 0.0706539 0)
(-0.124356 0.0843259 0)
(-0.109291 0.0787369 0)
(-0.0797952 0.0243172 0)
(-0.18759 -0.174963 0)
(0.056457 0.181116 0)
(0.0277967 0.050822 0)
(-0.00822811 -0.00690681 0)
(-0.0356632 -0.0102679 0)
(-0.0609373 -0.00396831 0)
(-0.0821839 0.000661803 0)
(-0.0989801 0.00459204 0)
(-0.109218 0.0071555 0)
(-0.114518 0.00723711 0)
(-0.116767 0.00471681 0)
(-0.116495 0.00113766 0)
(-0.114551 -0.00254535 0)
(-0.111863 -0.00638997 0)
(-0.10931 -0.0104142 0)
(-0.107311 -0.0144534 0)
(-0.106029 -0.0186052 0)
(-0.105523 -0.0229304 0)
(-0.105706 -0.0273162 0)
(-0.106398 -0.0315557 0)
(-0.107409 -0.0354432 0)
(-0.108604 -0.0387943 0)
(-0.109913 -0.0414411 0)
(-0.111311 -0.0432087 0)
(-0.112785 -0.043876 0)
(-0.11427 -0.0431791 0)
(-0.115628 -0.0408732 0)
(-0.116635 -0.0367793 0)
(-0.116974 -0.0307832 0)
(-0.116166 -0.022789 0)
(-0.113437 -0.0126487 0)
(-0.107658 -6.29549e-05 0)
(-0.0975746 0.01536 0)
(-0.0822011 0.0333055 0)
(-0.0612713 0.0508437 0)
(-0.0366817 0.0606597 0)
(0.0256292 0.0328398 0)
(0.146044 -0.0377819 0)
(-0.0466824 -0.0724222 0)
(-0.038218 -0.315293 0)
(-0.409177 -0.123883 0)
(-0.300262 0.0582684 0)
(-0.269101 -0.00792454 0)
(-0.233211 -0.00644957 0)
(-0.227249 0.0042979 0)
(-0.22386 0.013502 0)
(-0.218813 0.0214936 0)
(-0.210935 0.0292097 0)
(-0.200227 0.0367433 0)
(-0.187748 0.04372 0)
(-0.175072 0.0499648 0)
(-0.163363 0.055825 0)
(-0.153149 0.0615423 0)
(-0.144499 0.0672747 0)
(-0.137258 0.0732714 0)
(-0.131151 0.0796941 0)
(-0.125939 0.0865338 0)
(-0.121465 0.093624 0)
(-0.117611 0.100657 0)
(-0.114274 0.107265 0)
(-0.111365 0.113114 0)
(-0.108815 0.117941 0)
(-0.10658 0.12152 0)
(-0.104651 0.123622 0)
(-0.103035 0.123993 0)
(-0.101719 0.12241 0)
(-0.100611 0.118792 0)
(-0.0994805 0.113323 0)
(-0.0978656 0.106511 0)
(-0.0949183 0.0991795 0)
(-0.089195 0.0923581 0)
(-0.0786722 0.0872025 0)
(-0.06155 0.0849131 0)
(-0.0377749 0.086369 0)
(-0.00648869 0.090647 0)
(0.0280474 0.0888234 0)
(0.0761727 0.0668938 0)
(0.134023 0.0293749 0)
(-0.505418 0.104446 0)
)
;

boundaryField
{
    floor
    {
        type            noSlip;
    }
    ceiling
    {
        type            noSlip;
    }
    sWall
    {
        type            noSlip;
    }
    nWall
    {
        type            noSlip;
    }
    sideWalls
    {
        type            empty;
    }
    glass1
    {
        type            noSlip;
    }
    glass2
    {
        type            noSlip;
    }
    sun
    {
        type            noSlip;
    }
    heatsource1
    {
        type            noSlip;
    }
    heatsource2
    {
        type            noSlip;
    }
    Table_master
    {
        type            noSlip;
    }
    Table_slave
    {
        type            noSlip;
    }
    inlet
    {
        type            fixedValue;
        value           uniform (0.277164 -0.114805 0);
    }
    outlet
    {
        type            zeroGradient;
    }
}


// ************************************************************************* //
