/*--------------------------------*- C++ -*----------------------------------*\
  =========                 |
  \\      /  F ield         | OpenFOAM: The Open Source CFD Toolbox
   \\    /   O peration     | Website:  https://openfoam.org
    \\  /    A nd           | Version:  6
     \\/     M anipulation  |
\*---------------------------------------------------------------------------*/
FoamFile
{
    version     2.0;
    format      ascii;
    class       volScalarField;
    location    "1000";
    object      alphat;
}
// * * * * * * * * * * * * * * * * * * * * * * * * * * * * * * * * * * * * * //

dimensions      [1 -1 -1 0 0 0 0];

internalField   nonuniform List<scalar> 
459
(
0.00126483
0.0013843
0.00141141
0.00147987
0.00154343
0.00160317
0.00166213
0.00171814
0.00175654
0.00177076
0.00175505
0.00170611
0.00162366
0.00151373
0.00139152
0.000556691
0.000678647
0.000766082
0.00076485
0.000740114
0.000706326
0.000662711
0.000619212
0.000579704
0.000544642
0.000513613
0.000486061
0.000461542
0.00043955
0.000419285
0.000399727
0.000379387
0.000364454
0.000331386
0.00171824
0.00422856
0.00405863
0.00472602
0.00538534
0.00604129
0.00661083
0.00704757
0.00743892
0.00775255
0.00794582
0.00797357
0.00776595
0.00714224
0.00541245
0.00142625
0.000809068
0.000597032
0.00127121
0.00176893
0.00212919
0.00232319
0.00231443
0.00184448
0.00158529
0.00140116
0.00126051
0.00114917
0.00105897
0.000982128
0.000910559
0.000840967
0.000778925
0.000725473
0.000847081
0.000430351
0.00209415
0.00577362
0.00504611
0.00630046
0.00693202
0.00740296
0.00777017
0.00807369
0.00840114
0.00873857
0.0090441
0.00926602
0.00934542
0.00918547
0.00852897
0.00654072
0.00144019
0.00117886
0.00171645
0.00222256
0.00267834
0.00298815
0.00290322
0.000948394
0.000836234
0.000746165
0.000673547
0.00061444
0.000565817
0.000525505
0.000492143
0.00046519
0.000502045
0.000582741
0.000953954
0.000496516
0.0024537
0.00735762
0.0050715
0.00666108
0.00719785
0.00738626
0.00752214
0.00769471
0.00796658
0.00832094
0.00870794
0.00906562
0.00933098
0.00942319
0.00927113
0.00856049
0.00608767
0.00170836
0.00211707
0.00274595
0.00336656
0.00386345
0.00416503
0.00389372
0.00107142
0.000974155
0.00090399
0.000850038
0.000803975
0.000762225
0.000722122
0.00068023
0.00063198
0.000591441
0.000607459
0.00108797
0.000547581
0.00281975
0.0093864
0.00557139
0.00643612
0.00713433
0.00718147
0.00713606
0.00724996
0.00749049
0.00785549
0.00828748
0.008703
0.00901156
0.00914852
0.00909493
0.00880227
0.00806275
0.00670385
0.00624825
0.00611422
0.00608122
0.00605842
0.00599149
0.00574459
0.00482366
0.004373
0.0041052
0.00389692
0.00368103
0.00337607
0.0029782
0.0025044
0.0019842
0.00146567
0.00108483
0.0011086
0.000732526
0.000672457
0.000813831
0.000913615
0.0032077
0.0115967
0.00763821
0.00645072
0.00698777
0.00723279
0.00706865
0.00714399
0.00732289
0.00764686
0.00809069
0.00854669
0.00888305
0.00900743
0.00890997
0.00865681
0.00833922
0.00802396
0.00785945
0.00773329
0.00757225
0.0073727
0.00713782
0.00684002
0.00640697
0.0060179
0.00567309
0.00534498
0.0050145
0.00465624
0.00421695
0.00368251
0.00305461
0.00237139
0.00177928
0.00134893
0.00102041
0.000869237
0.00124003
0.000953774
0.00355906
0.013133
0.0106498
0.00830719
0.00789848
0.00774847
0.00744957
0.00728739
0.00736511
0.00769364
0.00819032
0.00869848
0.00904827
0.00913364
0.00896212
0.00866596
0.00845063
0.00842455
0.00847292
0.00840404
0.00817766
0.0078432
0.00744285
0.00699662
0.00652141
0.00607493
0.00566451
0.00528423
0.00493615
0.00462869
0.00436127
0.00399792
0.00350538
0.00291607
0.00235938
0.00187177
0.00151307
0.00140711
0.00143822
0.00108988
0.00362396
0.0116321
0.0103639
0.00960433
0.00884536
0.00800872
0.00741195
0.00722348
0.00744489
0.00797285
0.00862934
0.00919847
0.00949513
0.00944879
0.00913167
0.00876162
0.0085974
0.00866292
0.00867253
0.00840561
0.00794321
0.00737211
0.00675961
0.00616382
0.00562941
0.00517417
0.00478879
0.00446724
0.00421356
0.00403559
0.00393902
0.00388837
0.00363775
0.00326593
0.002947
0.00279571
0.00292131
0.00337544
0.00413559
0.00169722
0.00352362
0.00417849
0.00463109
0.00472337
0.00484391
0.00517503
0.00580017
0.00670997
0.00778706
0.00884309
0.00967762
0.0101139
0.0100631
0.00962339
0.00904341
0.0087188
0.0085332
0.00834124
0.00798558
0.00742359
0.00673137
0.00600515
0.00532868
0.0047551
0.00429542
0.00393126
0.00363836
0.00340009
0.00320451
0.00303942
0.0028922
0.00276036
0.00265683
0.00258171
0.00255554
0.00256855
0.00255296
0.00244804
0.00228608
0.00159437
0.00172474
0.00358014
0.00607058
0.00805934
0.00955843
0.0106503
0.0112921
0.0114931
0.0112874
0.0107109
0.00987106
0.00892262
0.00817645
0.00772483
0.00732059
0.00679877
0.00615675
0.00546846
0.00481033
0.00423435
0.00376721
0.00340626
0.00312833
0.00291187
0.00274373
0.00261654
0.00252601
0.00246962
0.00244841
0.00245761
0.00248225
0.00251779
0.0025548
0.00256505
0.00250375
0.00235812
0.00213639
0.0013274
0.00233779
0.00614225
0.0091353
0.0103167
0.0108641
0.0109808
0.0106674
0.0100192
0.00916587
0.00825074
0.00740082
0.00666453
0.00607615
0.00555636
0.00501698
0.00447781
0.00399083
0.00358765
0.00327289
0.0030335
0.00284683
0.00269363
0.00256469
0.00245741
0.00237838
0.00232755
0.00230321
0.00230428
0.00233518
0.00239322
0.00247445
0.00257001
0.00266058
0.00272374
0.00270203
0.00273286
0.00277434
0.00135401
0.00208143
0.00220602
0.00229352
0.0024592
0.00237588
0.00228635
0.00222563
0.00213345
0.00200029
0.00183607
0.00165318
0.00146418
0.00128478
0.00113558
0.00102421
0.000944311
0.00088622
0.000842878
0.000810286
0.000786247
0.000769331
0.000758554
0.000753331
0.000753658
0.000760093
0.0007733
0.000792579
0.000818242
0.000850979
0.000891509
0.00093889
0.000993167
0.00105488
0.0011245
0.00120133
0.00129305
0.0013211
0.00128622
0.00120893
0.00112602
)
;

boundaryField
{
    floor
    {
        type            compressible::alphatWallFunction;
        Prt             0.85;
        value           nonuniform List<scalar> 
29
(
0.000196351
7.78733e-05
9.60699e-05
0.000108868
0.000108689
0.000105087
0.000100142
9.37171e-05
8.72574e-05
8.1342e-05
7.60505e-05
7.13322e-05
6.71129e-05
6.33325e-05
5.99201e-05
5.67565e-05
5.36846e-05
5.04691e-05
4.80945e-05
4.27898e-05
4.27892e-05
5.84866e-05
6.87176e-05
7.6496e-05
0.000196349
7.78724e-05
8.39412e-05
0.000167249
0.000238811
)
;
    }
    ceiling
    {
        type            compressible::alphatWallFunction;
        Prt             0.85;
        value           nonuniform List<scalar> 
43
(
0.00028761
0.000303715
0.00031497
0.000336281
0.000325697
0.000314249
0.000306454
0.000294566
0.000277285
0.000255798
0.000231614
0.000206308
0.000181946
0.000161389
0.000145843
0.000134568
0.000126301
0.000120092
0.000115397
0.00011192
0.000109465
0.000107898
0.000107137
0.000107185
0.000108121
0.000110041
0.000112836
0.000116544
0.000121254
0.000127056
0.000133799
0.000141475
0.000150143
0.000159852
0.000170487
0.000183081
0.000186913
0.000182148
0.000171536
0.000160067
0.000469478
0.000549125
0.000320471
)
;
    }
    sWall
    {
        type            compressible::alphatWallFunction;
        Prt             0.85;
        value           uniform 0.000286401;
    }
    nWall
    {
        type            compressible::alphatWallFunction;
        Prt             0.85;
        value           nonuniform List<scalar> 6(0.000129887 0.000135583 0.000154696 0.000187448 0.000191069 0.000159746);
    }
    sideWalls
    {
        type            empty;
    }
    glass1
    {
        type            compressible::alphatWallFunction;
        Prt             0.85;
        value           nonuniform List<scalar> 9(0.000174767 0.000235003 0.000283734 0.000329551 0.000375532 0.000423629 0.000466717 0.000474759 0.000462751);
    }
    glass2
    {
        type            compressible::alphatWallFunction;
        Prt             0.85;
        value           nonuniform List<scalar> 2(0.000235783 0.000222213);
    }
    sun
    {
        type            compressible::alphatWallFunction;
        Prt             0.85;
        value           nonuniform List<scalar> 
14
(
0.0001791
0.000195377
0.000199051
0.000208295
0.000216834
0.000224825
0.000232679
0.000240111
0.00024519
0.000247068
0.000244992
0.000238514
0.000227554
0.000212844
)
;
    }
    heatsource1
    {
        type            compressible::alphatWallFunction;
        Prt             0.85;
        value           nonuniform List<scalar> 3(9.52601e-05 0.00011589 0.000130189);
    }
    heatsource2
    {
        type            compressible::alphatWallFunction;
        Prt             0.85;
        value           nonuniform List<scalar> 4(0.000201176 0.000115201 0.0001152 0.000203058);
    }
    Table_master
    {
        type            compressible::alphatWallFunction;
        Prt             0.85;
        value           nonuniform List<scalar> 9(0.000135127 0.000119116 0.000106073 9.54194e-05 8.66446e-05 7.93484e-05 7.32402e-05 6.81407e-05 6.39892e-05);
    }
    Table_slave
    {
        type            compressible::alphatWallFunction;
        Prt             0.85;
        value           nonuniform List<scalar> 9(0.000152439 0.000138775 0.000128819 0.000121102 0.000114467 0.000108414 0.000102562 9.64073e-05 8.92606e-05);
    }
    inlet
    {
        type            fixedValue;
        value           uniform 1.94e-05;
    }
    outlet
    {
        type            zeroGradient;
    }
}


// ************************************************************************* //
