// -*- C++ -*-
// File generated by PyFoam - sorry for the ugliness

FoamFile
{
 version 2.0;
 format ascii;
 class volVectorField;
 location "1000";
 object U;
}

dimensions [ 0 1 -1 0 0 0 0 ];

internalField nonuniform List<vector> 459
(
  (0.0321658 0.0856964 0)
  (-0.166649 0.0259055 0)
  (-0.191644 0.0178312 0)
  (-0.222247 0.0121365 0)
  (-0.244279 0.00592668 0)
  (-0.256826 -0.000587426 0)
  (-0.258473 -0.00744481 0)
  (-0.248212 -0.0146268 0)
  (-0.226844 -0.0215206 0)
  (-0.196132 -0.027033 0)
  (-0.159328 -0.0303316 0)
  (-0.120037 -0.0311884 0)
  (-0.0816075 -0.0300895 0)
  (-0.048651 -0.0285771 0)
  (-0.0342316 -0.0284023 0)
  (-0.00409184 0.00777004 0)
  (-0.0236609 -0.0172363 0)
  (-0.000348514 -0.0263802 0)
  (0.0211786 -0.0198299 0)
  (0.0370699 -0.0134471 0)
  (0.0490792 -0.00864488 0)
  (0.0563105 -0.005168 0)
  (0.0599838 -0.00334503 0)
  (0.0616736 -0.0025669 0)
  (0.062565 -0.00219682 0)
  (0.0631385 -0.00195709 0)
  (0.0634601 -0.00175961 0)
  (0.0634618 -0.00151852 0)
  (0.0629332 -0.00105866 0)
  (0.0613032 3.86146e-06 0)
  (0.0573594 0.00221505 0)
  (0.0497687 0.00463954 0)
  (0.0416958 0.00684925 0)
  (-0.00957105 0.020563 0)
  (0.203947 0.175047 0)
  (-0.154459 0.0678254 0)
  (-0.153372 0.052362 0)
  (-0.184619 0.040481 0)
  (-0.206175 0.0271696 0)
  (-0.218741 0.0124071 0)
  (-0.220845 -0.00400863 0)
  (-0.211347 -0.0214189 0)
  (-0.191607 -0.0374802 0)
  (-0.163761 -0.0496643 0)
  (-0.131223 -0.0562927 0)
  (-0.0974452 -0.0571041 0)
  (-0.0655939 -0.0528352 0)
  (-0.0391961 -0.0450805 0)
  (-0.0224854 -0.035201 0)
  (-0.00934659 -0.0166338 0)
  (-0.00668213 0.0158698 0)
  (0.0580588 0.0324323 0)
  (0.030105 -0.0198897 0)
  (0.0376682 -0.0310811 0)
  (0.0486173 -0.0266625 0)
  (0.057275 -0.0185936 0)
  (0.0631491 -0.011104 0)
  (0.065531 -0.00465977 0)
  (0.0659154 -0.00105854 0)
  (0.0658425 0.000470396 0)
  (0.0659338 0.00117047 0)
  (0.0661102 0.00160788 0)
  (0.0662373 0.00198522 0)
  (0.0662737 0.00247796 0)
  (0.0661631 0.00342204 0)
  (0.0653739 0.00572802 0)
  (0.0614761 0.0120714 0)
  (0.0516894 0.0175158 0)
  (0.0450954 0.0215578 0)
  (-0.0429908 0.0442827 0)
  (0.361395 0.261518 0)
  (-0.169633 0.107408 0)
  (-0.114572 0.0842068 0)
  (-0.144331 0.06319 0)
  (-0.163131 0.0413708 0)
  (-0.174375 0.0174891 0)
  (-0.175633 -0.00910667 0)
  (-0.165173 -0.0368568 0)
  (-0.145541 -0.0615681 0)
  (-0.11959 -0.0792772 0)
  (-0.0909534 -0.087836 0)
  (-0.0624461 -0.0875337 0)
  (-0.0362257 -0.0796182 0)
  (-0.0144272 -0.0658499 0)
  (0.00163153 -0.0469387 0)
  (0.0132144 -0.0217413 0)
  (0.0194322 0.0129321 0)
  (0.105685 -0.0364184 0)
  (0.0734623 -0.0422593 0)
  (0.0694882 -0.039628 0)
  (0.071582 -0.0322995 0)
  (0.0731201 -0.0233221 0)
  (0.0740646 -0.0157041 0)
  (0.0723844 -0.012734 0)
  (0.0681401 -0.00905285 0)
  (0.0651615 -0.00705177 0)
  (0.0637946 -0.00590913 0)
  (0.0631804 -0.00518169 0)
  (0.0628609 -0.00467372 0)
  (0.0628617 -0.00419181 0)
  (0.0636613 -0.00336138 0)
  (0.0664769 -0.000192953 0)
  (0.06441 0.0170796 0)
  (0.0511349 0.0293219 0)
  (0.050371 0.0381221 0)
  (-0.0726611 0.0693612 0)
  (0.503224 0.330846 0)
  (-0.202485 0.142204 0)
  (-0.0741909 0.110863 0)
  (-0.101591 0.0820256 0)
  (-0.114643 0.0539596 0)
  (-0.121903 0.0225561 0)
  (-0.119062 -0.0140369 0)
  (-0.105226 -0.05244 0)
  (-0.0851112 -0.0847881 0)
  (-0.0619672 -0.106341 0)
  (-0.0391395 -0.115292 0)
  (-0.0179786 -0.113278 0)
  (0.000944139 -0.101936 0)
  (0.0167026 -0.0837099 0)
  (0.0299525 -0.061024 0)
  (0.0442122 -0.0348346 0)
  (0.0659877 -0.00729567 0)
  (0.0967212 0.00332728 0)
  (0.103619 -0.0309519 0)
  (0.0899183 -0.0375893 0)
  (0.0810628 -0.0342619 0)
  (0.0764891 -0.0284162 0)
  (0.0733787 -0.0211921 0)
  (0.0717057 -0.0126611 0)
  (0.0732559 -0.00742899 0)
  (0.0774345 -0.00574559 0)
  (0.0808442 -0.00479775 0)
  (0.0830361 -0.00407878 0)
  (0.0842631 -0.0031956 0)
  (0.0839595 -0.00188297 0)
  (0.0811384 6.4628e-05 0)
  (0.0745725 0.00293805 0)
  (0.0614394 0.0072867 0)
  (0.0504096 0.0275612 0)
  (0.0398028 0.0442906 0)
  (0.0530681 0.057791 0)
  (-0.103472 0.0919724 0)
  (0.625226 0.3844 0)
  (-0.242936 0.170432 0)
  (-0.0350195 0.125608 0)
  (-0.0571977 0.0922003 0)
  (-0.0619418 0.060556 0)
  (-0.0619526 0.0235851 0)
  (-0.0483574 -0.0225072 0)
  (-0.0293694 -0.0697882 0)
  (-0.0101969 -0.105904 0)
  (0.0074292 -0.127615 0)
  (0.0211804 -0.133924 0)
  (0.0320334 -0.128846 0)
  (0.0403371 -0.115124 0)
  (0.0468967 -0.0954107 0)
  (0.0529194 -0.0723311 0)
  (0.0603432 -0.0486427 0)
  (0.0717764 -0.0298689 0)
  (0.0821746 -0.0267094 0)
  (0.083458 -0.0332326 0)
  (0.0767419 -0.032702 0)
  (0.0684806 -0.0283395 0)
  (0.0620008 -0.0231521 0)
  (0.0572944 -0.0175837 0)
  (0.0546152 -0.0116812 0)
  (0.0544266 -0.00627056 0)
  (0.0563879 -0.00372939 0)
  (0.0586137 -0.00278998 0)
  (0.0607544 -0.00201873 0)
  (0.0627214 -0.000447333 0)
  (0.0641179 0.00243637 0)
  (0.0638123 0.00674543 0)
  (0.0612408 0.012649 0)
  (0.0557102 0.0208106 0)
  (0.0491054 0.03614 0)
  (0.040147 0.0545002 0)
  (0.0612464 0.0747851 0)
  (-0.0175905 0.10398 0)
  (0.045213 0.033533 0)
  (-0.0611102 -0.0342682 0)
  (-0.268574 -0.0565321 0)
  (0.713201 0.428893 0)
  (-0.282163 0.189107 0)
  (-0.00572028 0.120431 0)
  (-0.011257 0.091263 0)
  (-0.00428866 0.0601867 0)
  (0.00754858 0.0151858 0)
  (0.0393081 -0.0418229 0)
  (0.0602443 -0.0888188 0)
  (0.0743962 -0.120908 0)
  (0.0820399 -0.137652 0)
  (0.0841649 -0.14059 0)
  (0.0824368 -0.132682 0)
  (0.0782363 -0.116977 0)
  (0.0730407 -0.0964895 0)
  (0.068333 -0.0740286 0)
  (0.0654354 -0.0522922 0)
  (0.0651609 -0.0350264 0)
  (0.0648601 -0.0268678 0)
  (0.0608268 -0.025332 0)
  (0.05316 -0.023855 0)
  (0.0447825 -0.0207851 0)
  (0.0379293 -0.0171486 0)
  (0.0330678 -0.013429 0)
  (0.0304198 -0.00973314 0)
  (0.0300354 -0.00674388 0)
  (0.0314798 -0.00568496 0)
  (0.0337975 -0.00560709 0)
  (0.0366251 -0.00528265 0)
  (0.0397885 -0.00371555 0)
  (0.0431153 -6.0203e-05 0)
  (0.0459192 0.00587246 0)
  (0.0473647 0.0137879 0)
  (0.0476656 0.0239316 0)
  (0.0482246 0.038073 0)
  (0.0475768 0.0557912 0)
  (0.0697218 0.078376 0)
  (0.051682 0.0968082 0)
  (0.0911585 0.0678218 0)
  (0.114268 0.0443645 0)
  (-0.128108 -0.00730571 0)
  (0.76701 0.46944 0)
  (-0.300732 0.174246 0)
  (0.022662 0.0677781 0)
  (0.0510726 0.0614134 0)
  (0.0731077 0.0398517 0)
  (0.111548 -0.0125199 0)
  (0.141905 -0.065621 0)
  (0.158642 -0.104427 0)
  (0.162974 -0.127593 0)
  (0.157183 -0.136672 0)
  (0.144079 -0.134005 0)
  (0.126594 -0.122513 0)
  (0.107286 -0.105175 0)
  (0.0883099 -0.0848665 0)
  (0.0713681 -0.064017 0)
  (0.0574956 -0.0446649 0)
  (0.0471062 -0.0294791 0)
  (0.0388931 -0.0207639 0)
  (0.0307963 -0.0172298 0)
  (0.022416 -0.0154402 0)
  (0.0147452 -0.0135483 0)
  (0.00875568 -0.0116212 0)
  (0.00470542 -0.00986428 0)
  (0.00266818 -0.00834369 0)
  (0.00255193 -0.00746419 0)
  (0.0038895 -0.00768953 0)
  (0.00605081 -0.00840226 0)
  (0.00880019 -0.00871668 0)
  (0.0121754 -0.00774828 0)
  (0.0163036 -0.00447634 0)
  (0.0221916 0.00203126 0)
  (0.0277727 0.010658 0)
  (0.0332017 0.0208249 0)
  (0.0402604 0.0332389 0)
  (0.0481406 0.047628 0)
  (0.0700183 0.0657635 0)
  (0.0836882 0.0739279 0)
  (0.115695 0.0518633 0)
  (0.15522 0.0435892 0)
  (-0.0357343 0.0922541 0)
  (0.872139 0.470286 0)
  (-0.0625536 0.152587 0)
  (0.11136 -0.0150672 0)
  (0.184337 -0.0464682 0)
  (0.221679 -0.0601686 0)
  (0.252428 -0.082254 0)
  (0.267793 -0.102962 0)
  (0.265915 -0.116752 0)
  (0.248862 -0.122086 0)
  (0.220938 -0.119375 0)
  (0.186732 -0.109968 0)
  (0.150259 -0.0956255 0)
  (0.114658 -0.0782766 0)
  (0.0822453 -0.0600501 0)
  (0.0545087 -0.0426481 0)
  (0.0320245 -0.0272789 0)
  (0.0155223 -0.0161178 0)
  (0.00379711 -0.0102578 0)
  (-0.0051427 -0.00828203 0)
  (-0.0121945 -0.00785172 0)
  (-0.0179484 -0.00762034 0)
  (-0.0222769 -0.00747376 0)
  (-0.025209 -0.00748703 0)
  (-0.0268144 -0.00772696 0)
  (-0.0272759 -0.00836813 0)
  (-0.0269905 -0.00949546 0)
  (-0.0263625 -0.010796 0)
  (-0.0255114 -0.0117992 0)
  (-0.0242803 -0.0119881 0)
  (-0.0222643 -0.0107615 0)
  (-0.0184471 -0.00737497 0)
  (-0.00950754 -0.00120392 0)
  (-0.00144734 0.00657134 0)
  (0.00918941 0.014435 0)
  (0.020891 0.0212229 0)
  (0.0405782 0.0283573 0)
  (0.0594288 0.0218727 0)
  (0.079191 -0.00501707 0)
  (0.137653 0.0391859 0)
  (-0.405504 0.20246 0)
  (1.01961 0.422825 0)
  (0.484899 0.27932 0)
  (0.500027 0.181672 0)
  (0.528807 0.108399 0)
  (0.509685 0.0545534 0)
  (0.465505 0.00667675 0)
  (0.414823 -0.031312 0)
  (0.359417 -0.0559145 0)
  (0.299786 -0.0672389 0)
  (0.239006 -0.0679219 0)
  (0.180524 -0.061464 0)
  (0.126937 -0.0507458 0)
  (0.0800532 -0.0378614 0)
  (0.0410197 -0.0248976 0)
  (0.00971769 -0.0134341 0)
  (-0.0144675 -0.00482194 0)
  (-0.0279307 -0.00145176 0)
  (-0.0362777 -0.000877927 0)
  (-0.0419057 -0.00162075 0)
  (-0.0464043 -0.00270916 0)
  (-0.0502194 -0.00374582 0)
  (-0.0534014 -0.00475106 0)
  (-0.0560132 -0.00577588 0)
  (-0.0581524 -0.00685248 0)
  (-0.0600372 -0.00802854 0)
  (-0.062025 -0.00927762 0)
  (-0.0644926 -0.0103952 0)
  (-0.067742 -0.0110047 0)
  (-0.0720857 -0.0105663 0)
  (-0.0779367 -0.00837499 0)
  (-0.085816 -0.0036184 0)
  (-0.0955638 0.00418581 0)
  (-0.105528 0.0145158 0)
  (-0.1204 0.0276367 0)
  (-0.143714 0.0437051 0)
  (-0.177948 0.0616466 0)
  (-0.226392 0.0775889 0)
  (-0.282001 0.088923 0)
  (-0.349636 0.0956364 0)
  (-0.608187 0.0983764 0)
  (-0.143553 -0.00115197 0)
  (0.117679 -0.00639025 0)
  (0.191391 -0.0411175 0)
  (0.179899 -0.0472136 0)
  (0.163326 -0.0421178 0)
  (0.140492 -0.0348927 0)
  (0.110499 -0.0269493 0)
  (0.076653 -0.0183937 0)
  (0.0413289 -0.0096839 0)
  (0.00612292 -0.00154686 0)
  (-0.0242192 0.00479137 0)
  (-0.0447448 0.00837603 0)
  (-0.0584289 0.0101466 0)
  (-0.0661428 0.0101099 0)
  (-0.0706502 0.00909606 0)
  (-0.0738771 0.00815009 0)
  (-0.076542 0.00746268 0)
  (-0.0789479 0.00702089 0)
  (-0.0813185 0.0067103 0)
  (-0.083779 0.00627348 0)
  (-0.0863851 0.00559878 0)
  (-0.0891714 0.00476269 0)
  (-0.0922545 0.00383514 0)
  (-0.0957859 0.0029668 0)
  (-0.0998662 0.00239464 0)
  (-0.104484 0.00245161 0)
  (-0.109564 0.00348252 0)
  (-0.114921 0.00578826 0)
  (-0.119918 0.00994325 0)
  (-0.123931 0.0168527 0)
  (-0.127253 0.0275798 0)
  (-0.130132 0.0424816 0)
  (-0.133203 0.0607508 0)
  (-0.136878 0.079001 0)
  (-0.138086 0.087807 0)
  (-0.120289 0.0668426 0)
  (-0.0755566 -0.0230036 0)
  (-0.273406 -0.198298 0)
  (0.023954 0.192618 0)
  (0.0392256 0.0671568 0)
  (-0.0002473 0.00337038 0)
  (-0.016885 -0.00442865 0)
  (-0.0334323 -0.0012277 0)
  (-0.0501168 0.000396494 0)
  (-0.0666813 0.00245387 0)
  (-0.0811081 0.0051206 0)
  (-0.0908509 0.00687181 0)
  (-0.0965085 0.00655175 0)
  (-0.0997331 0.00394129 0)
  (-0.100722 -0.000192749 0)
  (-0.100369 -0.00470524 0)
  (-0.0993761 -0.00954781 0)
  (-0.0986356 -0.0147034 0)
  (-0.0985417 -0.0197895 0)
  (-0.0991028 -0.0245548 0)
  (-0.100204 -0.028741 0)
  (-0.101706 -0.0321362 0)
  (-0.103515 -0.0346112 0)
  (-0.105649 -0.0361737 0)
  (-0.10811 -0.036879 0)
  (-0.110804 -0.0366713 0)
  (-0.113604 -0.0354665 0)
  (-0.116386 -0.0334832 0)
  (-0.118922 -0.0305403 0)
  (-0.120844 -0.0262138 0)
  (-0.121696 -0.019958 0)
  (-0.121047 -0.0118408 0)
  (-0.117994 -0.00156163 0)
  (-0.111192 0.0115715 0)
  (-0.0993965 0.0281775 0)
  (-0.0821831 0.0477262 0)
  (-0.0602902 0.0662179 0)
  (-0.0366909 0.0768221 0)
  (0.00365087 0.0603641 0)
  (0.142508 -0.00934308 0)
  (-0.204438 -0.108061 0)
  (-0.0416009 -0.319126 0)
  (-0.412884 -0.123811 0)
  (-0.30112 0.0624995 0)
  (-0.254 -0.0166074 0)
  (-0.215086 -0.0204282 0)
  (-0.205406 -0.00918662 0)
  (-0.201422 0.000457968 0)
  (-0.197668 0.00841431 0)
  (-0.192345 0.0158889 0)
  (-0.184773 0.0233445 0)
  (-0.17497 0.0307819 0)
  (-0.163662 0.0380508 0)
  (-0.152066 0.0450545 0)
  (-0.141266 0.0519533 0)
  (-0.131871 0.0589324 0)
  (-0.124049 0.065982 0)
  (-0.117768 0.0730837 0)
  (-0.112833 0.0800155 0)
  (-0.109024 0.0863672 0)
  (-0.106153 0.0917329 0)
  (-0.104062 0.0958216 0)
  (-0.102619 0.0984733 0)
  (-0.101735 0.0996664 0)
  (-0.101373 0.0994101 0)
  (-0.101514 0.0976503 0)
  (-0.102108 0.0943798 0)
  (-0.103015 0.0901777 0)
  (-0.104022 0.0852113 0)
  (-0.104745 0.0795362 0)
  (-0.104488 0.0733711 0)
  (-0.101988 0.0679311 0)
  (-0.0954049 0.0641476 0)
  (-0.0823838 0.0629276 0)
  (-0.0611997 0.0652438 0)
  (-0.0324327 0.0716068 0)
  (0.0134036 0.0809228 0)
  (0.0555804 0.0815171 0)
  (0.0959769 0.0690284 0)
  (0.160643 0.0438775 0)
  (-0.232713 -0.00547542 0)
)
;

boundaryField
{
  floor
  {
    type noSlip;
  }
  ceiling
  {
    type noSlip;
  }
  sWall
  {
    type noSlip;
  }
  nWall
  {
    type noSlip;
  }
  sideWalls
  {
    type empty;
  }
  glass1
  {
    type noSlip;
  }
  glass2
  {
    type noSlip;
  }
  sun
  {
    type noSlip;
  }
  heatsource1
  {
    type noSlip;
  }
  heatsource2
  {
    type noSlip;
  }
  Table_master
  {
    type noSlip;
  }
  Table_slave
  {
    type noSlip;
  }
  inlet
  {
    type fixedValue;
    value uniform (0.277164 -0.114805 0);
  }
  outlet
  {
    type zeroGradient;
  }
} 	// ************************************************************************* //

