/*--------------------------------*- C++ -*----------------------------------*\
  =========                 |
  \\      /  F ield         | OpenFOAM: The Open Source CFD Toolbox
   \\    /   O peration     | Website:  https://openfoam.org
    \\  /    A nd           | Version:  6
     \\/     M anipulation  |
\*---------------------------------------------------------------------------*/
FoamFile
{
    version     2.0;
    format      ascii;
    class       volScalarField;
    location    "800";
    object      alphat;
}
// * * * * * * * * * * * * * * * * * * * * * * * * * * * * * * * * * * * * * //

dimensions      [1 -1 -1 0 0 0 0];

internalField   nonuniform List<scalar> 
459
(
0.00117202
0.00127257
0.00128913
0.00134777
0.00140138
0.00145064
0.00149766
0.00154511
0.00158482
0.00160846
0.00160996
0.00158437
0.00153073
0.00145622
0.0013748
0.000508809
0.000626989
0.00068767
0.000668988
0.000639253
0.000606058
0.000570111
0.000535962
0.000505081
0.000477494
0.000452866
0.000430908
0.000411244
0.000393357
0.000376663
0.000360331
0.000343082
0.00033326
0.000306548
0.0016215
0.00373978
0.00350246
0.00406344
0.00458973
0.00512719
0.00563094
0.00602843
0.00636482
0.00665324
0.00684731
0.00688384
0.00666395
0.00598148
0.00425994
0.00139274
0.000915838
0.000569531
0.00108221
0.00142465
0.00164911
0.00175052
0.00173655
0.00147414
0.00130553
0.00117875
0.00107815
0.000995939
0.000925691
0.000862286
0.000802956
0.00074632
0.000697543
0.0006524
0.000782188
0.000415874
0.00200073
0.00512016
0.00425666
0.00547155
0.00602426
0.00642516
0.00673
0.0069674
0.00720481
0.00746575
0.00772067
0.00792154
0.00799661
0.00787036
0.00738517
0.00601798
0.00134453
0.00116273
0.00154904
0.00186263
0.00211575
0.00227235
0.00220106
0.000803005
0.000717839
0.000648932
0.000592851
0.000546768
0.000508512
0.000476504
0.000449709
0.000427638
0.000459334
0.000526133
0.000876026
0.000487256
0.00236961
0.00668568
0.00420693
0.00581009
0.00636401
0.00653068
0.00658919
0.00665996
0.00680725
0.0070446
0.00734201
0.0076586
0.00790963
0.00804252
0.00799265
0.00752499
0.00585096
0.0015508
0.0019341
0.00241288
0.00279505
0.00305569
0.00320257
0.00300889
0.000896947
0.000828174
0.000780931
0.000746106
0.000716292
0.000686632
0.000657799
0.00062672
0.000589364
0.000554783
0.000560495
0.00100842
0.000541895
0.00274682
0.00872731
0.00465546
0.00550369
0.00632676
0.0064095
0.00630144
0.00623788
0.0063543
0.00658911
0.00691093
0.00729053
0.00760631
0.00778296
0.00776853
0.00751415
0.00687537
0.00560587
0.00507726
0.00480857
0.0046439
0.00454439
0.0044852
0.00437057
0.00382489
0.00359136
0.00346886
0.00336958
0.00324693
0.00305354
0.00274345
0.00234515
0.00188935
0.00141541
0.00104168
0.00102589
0.00071968
0.00067982
0.000820956
0.000918786
0.00314545
0.010945
0.00662185
0.00527563
0.00590243
0.00623706
0.00623036
0.00606343
0.00618273
0.00640024
0.00672167
0.00710446
0.00744568
0.00762925
0.0075789
0.00729121
0.00683191
0.00631047
0.00594727
0.0056868
0.00547773
0.00532045
0.00520057
0.00507868
0.00489415
0.00473539
0.00458875
0.00443471
0.00426224
0.00406207
0.0037756
0.0033761
0.0028625
0.00226228
0.00170547
0.00124865
0.000969939
0.000841506
0.00121555
0.000956673
0.00351802
0.0125594
0.00969418
0.00691666
0.00624012
0.00629781
0.00635891
0.00628404
0.00628135
0.00643279
0.0067495
0.00715528
0.0075137
0.00768162
0.00757098
0.0071991
0.00670376
0.00628928
0.00605783
0.00589277
0.00569929
0.00547092
0.00522818
0.00500438
0.00481459
0.00465974
0.0045154
0.00436861
0.00421853
0.00407142
0.00392841
0.00367518
0.00326743
0.00274429
0.00222709
0.00174308
0.00140798
0.00131003
0.00135286
0.00107379
0.00359445
0.0114515
0.00999916
0.00897489
0.00814125
0.0075923
0.00700111
0.00655285
0.00640874
0.0065799
0.00697643
0.00744227
0.0077975
0.0078872
0.00763992
0.00711839
0.00652952
0.00613605
0.00596806
0.00569894
0.00531625
0.00491909
0.00458814
0.00435088
0.00418787
0.00406456
0.00395616
0.00385699
0.00377339
0.00371771
0.00370369
0.00370806
0.00347603
0.0031156
0.00279075
0.00262459
0.00273903
0.00320417
0.00401511
0.00169872
0.00350147
0.00417917
0.00469504
0.0049179
0.00504056
0.0050795
0.005217
0.00556318
0.00612399
0.00682364
0.00751956
0.00804809
0.00826823
0.0080866
0.00751304
0.00673972
0.00613743
0.00572473
0.00532715
0.00482509
0.00432352
0.00393217
0.00366846
0.0034972
0.00337717
0.00327898
0.00318704
0.00309517
0.00300032
0.0028993
0.0027886
0.00266929
0.00256833
0.00249391
0.0024727
0.0024977
0.00249975
0.00241233
0.0022606
0.00159641
0.00201236
0.00385475
0.00509849
0.00601458
0.00688035
0.0076629
0.00833368
0.00882516
0.00904697
0.00893535
0.00847168
0.00765222
0.00659496
0.00566412
0.00505469
0.00453382
0.00398402
0.0034882
0.00313124
0.00290204
0.00275654
0.00265787
0.00258378
0.00252292
0.00247073
0.0024264
0.00239114
0.00236767
0.0023604
0.00237781
0.00240444
0.00243982
0.00247796
0.00249176
0.00243498
0.0022896
0.00207066
0.00132067
0.00242885
0.00531558
0.00713211
0.00786499
0.00851092
0.0089914
0.0091205
0.00901685
0.00852341
0.00767286
0.00661713
0.00556334
0.00468677
0.00400579
0.00343871
0.00296201
0.00262338
0.00240748
0.00226177
0.00216241
0.00209763
0.00205672
0.00203458
0.00202912
0.00203954
0.00206524
0.00210488
0.00215525
0.00221986
0.00230132
0.00239751
0.00250223
0.00259944
0.0026679
0.00265736
0.00269445
0.00269742
0.00134344
0.00228367
0.00227555
0.00232501
0.00244827
0.00231464
0.00216858
0.00204187
0.00191827
0.00180352
0.00167269
0.00152055
0.0013407
0.00115115
0.000975019
0.000834648
0.000738618
0.000681337
0.000651343
0.00063902
0.000638097
0.000645028
0.000657298
0.000673223
0.00069257
0.000715323
0.000741582
0.000771565
0.000805656
0.000844532
0.000889413
0.000940617
0.000997321
0.00106034
0.00113048
0.00120783
0.00130028
0.00133287
0.00130142
0.00122072
0.00113552
)
;

boundaryField
{
    floor
    {
        type            compressible::alphatWallFunction;
        Prt             0.85;
        value           nonuniform List<scalar> 
29
(
0.000194081
7.05955e-05
8.84125e-05
9.73958e-05
9.46404e-05
9.02356e-05
8.52886e-05
7.98938e-05
7.47297e-05
7.00245e-05
6.57904e-05
6.19846e-05
5.85691e-05
5.54915e-05
5.26755e-05
5.00325e-05
4.7432e-05
4.46689e-05
4.30876e-05
3.87553e-05
3.87548e-05
5.62177e-05
6.72922e-05
7.56301e-05
0.000194079
7.05947e-05
7.98073e-05
0.000165016
0.000217814
)
;
    }
    ceiling
    {
        type            compressible::alphatWallFunction;
        Prt             0.85;
        value           nonuniform List<scalar> 
43
(
0.00031383
0.000312676
0.00031901
0.000334873
0.000317834
0.00029906
0.00028266
0.00026655
0.000251491
0.00023419
0.000213876
0.000189562
0.000163532
0.000138898
0.000118892
0.000104976
9.65738e-05
9.21403e-05
9.03122e-05
9.01758e-05
9.12059e-05
9.30255e-05
9.53808e-05
9.8233e-05
0.000101575
0.000105415
0.000109781
0.000114719
0.000120321
0.000126749
0.000134037
0.000142054
0.000150901
0.000160677
0.000171376
0.000184065
0.000188512
0.00018422
0.000173153
0.00016138
0.000466761
0.000549209
0.000332152
)
;
    }
    sWall
    {
        type            compressible::alphatWallFunction;
        Prt             0.85;
        value           uniform 0.000312667;
    }
    nWall
    {
        type            compressible::alphatWallFunction;
        Prt             0.85;
        value           nonuniform List<scalar> 6(0.000130614 0.000135985 0.000152444 0.00018652 0.00018962 0.000161055);
    }
    sideWalls
    {
        type            empty;
    }
    glass1
    {
        type            compressible::alphatWallFunction;
        Prt             0.85;
        value           nonuniform List<scalar> 9(0.000162206 0.000222335 0.000271754 0.000318946 0.000366468 0.000415997 0.000461747 0.000471199 0.000460076);
    }
    glass2
    {
        type            compressible::alphatWallFunction;
        Prt             0.85;
        value           nonuniform List<scalar> 2(0.000235932 0.000222436);
    }
    sun
    {
        type            compressible::alphatWallFunction;
        Prt             0.85;
        value           nonuniform List<scalar> 
14
(
0.000166324
0.000180146
0.000182411
0.000190412
0.000197692
0.000204353
0.000210687
0.000217057
0.000222372
0.000225529
0.000225727
0.00022231
0.000215126
0.000205101
)
;
    }
    heatsource1
    {
        type            compressible::alphatWallFunction;
        Prt             0.85;
        value           nonuniform List<scalar> 3(9.63471e-05 0.000116918 0.000130926);
    }
    heatsource2
    {
        type            compressible::alphatWallFunction;
        Prt             0.85;
        value           nonuniform List<scalar> 4(0.000196635 0.000130506 0.000130504 0.000190084);
    }
    Table_master
    {
        type            compressible::alphatWallFunction;
        Prt             0.85;
        value           nonuniform List<scalar> 9(0.000114322 0.000101931 9.17753e-05 8.34127e-05 7.64678e-05 7.0647e-05 6.57345e-05 6.159e-05 5.81526e-05);
    }
    Table_slave
    {
        type            compressible::alphatWallFunction;
        Prt             0.85;
        value           nonuniform List<scalar> 9(0.000127812 0.000117956 0.000111129 0.000106065 0.000101707 9.735e-05 9.3092e-05 8.8477e-05 8.28922e-05);
    }
    inlet
    {
        type            fixedValue;
        value           uniform 1.94e-05;
    }
    outlet
    {
        type            zeroGradient;
    }
}


// ************************************************************************* //
