/*--------------------------------*- C++ -*----------------------------------*\
  =========                 |
  \\      /  F ield         | OpenFOAM: The Open Source CFD Toolbox
   \\    /   O peration     | Website:  https://openfoam.org
    \\  /    A nd           | Version:  6
     \\/     M anipulation  |
\*---------------------------------------------------------------------------*/
FoamFile
{
    version     2.0;
    format      ascii;
    class       surfaceScalarField;
    location    "100";
    object      phi;
}
// * * * * * * * * * * * * * * * * * * * * * * * * * * * * * * * * * * * * * //

dimensions      [1 0 -1 0 0 0 0];

internalField   nonuniform List<scalar> 
852
(
0.00471059
-0.00469001
0.00838283
-0.00367197
0.0103149
-0.0019318
0.0113018
-0.000986649
0.0118391
-0.000537038
0.0120676
-0.000228247
0.0120244
4.3516e-05
0.0117398
0.000284791
0.0112271
0.000513032
0.0104836
0.000743743
0.00948915
0.000994654
0.00819727
0.00129211
0.00650033
0.00169717
0.00409022
0.00241034
0.00408797
5.65203e-05
-5.94617e-05
-0.000179117
0.000235628
-0.000389278
0.000210145
-0.000520721
0.000131418
-0.000610258
8.9509e-05
-0.000672728
6.24473e-05
-0.000713794
4.10486e-05
-0.000743793
2.99829e-05
-0.000774597
3.07896e-05
-0.000809913
3.53044e-05
-0.000851042
4.11234e-05
-0.000899547
4.85089e-05
-0.000957566
5.80316e-05
-0.00100823
5.06802e-05
-0.000967181
-4.10216e-05
-0.000726481
-0.000240681
-0.000440368
-0.000286099
-0.000295372
-0.000144987
-0.000297896
0.0043792
-0.00901163
0.00679982
-0.0060923
0.00808992
-0.00322164
0.008825
-0.00172146
0.0092597
-0.000971472
0.00947679
-0.000445082
0.0094933
2.72563e-05
0.00930343
0.000474902
0.00890821
0.00090849
0.00830232
0.00134986
0.00748067
0.00181653
0.00644785
0.00232516
0.00524578
0.00289946
0.00410063
0.00355571
0.00391666
0.00427215
0.000127308
0.00378956
0.000128192
-0.000341157
0.000274083
-0.000477668
0.000372125
-0.000582848
0.00031531
-0.000653172
0.000201722
-0.00068987
0.000126188
-0.000705963
7.85261e-05
-0.000718902
5.39769e-05
-0.000720053
3.11201e-05
-0.000719807
3.05277e-05
-0.000718394
3.38752e-05
-0.000717233
3.99482e-05
-0.000718045
4.93155e-05
-0.000723282
6.32734e-05
-0.000733761
6.11731e-05
-0.000688003
-8.67648e-05
-0.000439522
-0.000489152
-0.000216765
-0.000508848
1.33914e-05
-0.000375137
-0.00029097
0.0031157
-0.0120353
0.00465391
-0.00763023
0.00539745
-0.0039649
0.00585085
-0.0021746
0.00616758
-0.00128795
0.00636883
-0.000646097
0.00645707
-6.07593e-05
0.00640915
0.000523039
0.00619834
0.00111951
0.00580766
0.00174075
0.00523611
0.00238828
0.0045064
0.00305507
0.00368059
0.00372546
0.00286539
0.00437111
0.00216574
0.00497201
0.00149877
0.00445681
0.0016276
-0.000704172
0.000966629
-0.000839762
0.000507706
-0.000877732
0.000353268
-0.000890871
0.00021485
-0.000865946
0.000101251
-0.00078267
-4.75982e-06
-0.000728547
-0.000697283
-0.000666614
-0.000632601
-0.000592516
-0.000543062
-0.000479644
-0.000418317
-0.000504926
-6.49837e-05
-0.000929093
0.000145842
-0.000719671
0.000232537
-0.00046183
-6.8471e-05
0.00191254
-0.0138227
0.00277253
-0.00848991
0.00307584
-0.00426795
0.00319849
-0.00229702
0.00336193
-0.00145118
0.00351773
-0.00080169
0.00364533
-0.000188176
0.00369723
0.000471321
0.0036217
0.00119521
0.00339316
0.00196947
0.00301023
0.00277138
0.00248893
0.00357654
0.00185922
0.00435534
0.0011373
0.00509322
0.000478769
0.00563075
-5.03543e-05
0.00498648
-0.000654091
0.00223267
-0.0013808
0.000713129
-0.00120257
0.000788394
-0.00121374
0.000518873
-0.00127071
0.000410232
-0.00133014
0.000274277
-0.0013705
0.000141609
-0.00139606
2.08056e-05
-0.00134756
-4.86414e-05
-0.00125538
-9.23217e-05
-0.00112413
-0.000131394
-0.000960054
-0.000164225
-0.00076688
-0.000193321
-0.000546801
-0.000220229
-0.000298532
-0.00024842
-6.28055e-06
-0.000292405
0.00041326
-0.000419694
0.000213463
-0.000729299
0.000277071
-0.000783282
0.000439806
-0.000624566
0.000357258
0.000897807
-0.0145637
0.00127751
-0.00886932
0.00118235
-0.00417253
0.000930987
-0.00204545
0.000992945
-0.00151296
0.00114676
-0.000955339
0.00129647
-0.000337732
0.00137779
0.000390147
0.00135024
0.0012229
0.00120129
0.00211857
0.000929581
0.00304324
0.000538257
0.00396802
3.96766e-05
0.00485408
-0.000494748
0.00562784
-0.000824996
0.00596134
-0.000866057
0.00502835
-0.000947075
0.00231497
-0.00123342
0.000999579
-0.00126253
0.000817502
-0.00131368
0.000570025
-0.00132853
0.000425086
-0.0013283
0.000274048
-0.00131527
0.000128597
-0.00129364
-8.13567e-07
-0.00124112
-0.000101142
-0.00115585
-0.000177573
-0.00104352
-0.000243706
-0.000904556
-0.000303164
-0.000740996
-0.000356864
-0.000556861
-0.000404351
-0.000358212
-0.000447062
-0.000154565
-0.000496051
4.73303e-06
-0.000578995
-1.67061e-05
-0.000707864
-5.3243e-05
-0.000746749
-1.16235e-05
-0.000666188
0.000450633
-0.000105001
0.000257856
0.000192576
0.000161742
9.59138e-05
0.000163094
2.17589e-06
-0.0143787
1.18588e-05
-0.0088787
-0.000386948
-0.00377348
-0.000929655
-0.00150257
-0.000959543
-0.00148291
-0.000858808
-0.00105593
-0.000765571
-0.000430835
-0.000720949
0.000345652
-0.000733519
0.0012356
-0.000816302
0.00220148
-0.000976778
0.00320385
-0.00121061
0.00420201
-0.00148485
0.00512849
-0.00168581
0.00582906
-0.0016441
0.00592011
-0.00134558
0.00473075
-0.00122492
0.0021952
-0.00130381
0.00107854
-0.00126281
0.000776509
-0.00124155
0.000548757
-0.00120011
0.00038366
-0.00115297
0.000226916
-0.00110532
8.09739e-05
-0.00105823
-4.78745e-05
-0.00100492
-0.000154417
-0.000938013
-0.000244437
-0.000855088
-0.000326583
-0.000754189
-0.000404015
-0.000635394
-0.000475615
-0.000502745
-0.000536963
-0.000367356
-0.000582426
-0.000253918
-0.000609477
-0.000210791
-0.00062212
-0.000297953
-0.000620706
-0.000485152
-0.000559555
-0.000764138
-0.000387206
-0.000780594
-8.85477e-05
-0.000659528
7.15077e-05
-0.000491044
-7.25759e-05
-0.000326375
-0.000947921
-0.0132153
-0.00152075
-0.00830556
-0.00212101
-0.00317299
-0.00289191
-0.000731482
-0.00297366
-0.001401
-0.00288282
-0.00114662
-0.00276906
-0.000544457
-0.00267693
0.000253644
-0.00261312
0.00117192
-0.00257685
0.00216535
-0.00256554
0.0031927
-0.00256629
0.00420292
-0.00253952
0.00510194
-0.00239758
0.00568746
-0.00204548
0.00556857
-0.0015367
0.00422279
-0.00129534
0.00195435
-0.00122003
0.00100327
-0.0011089
0.000665382
-0.00100422
0.000444079
-0.000897048
0.000276492
-0.000799602
0.000129488
-0.000718936
3.3594e-07
-0.000658226
-0.000108535
-0.000612163
-0.000200417
-0.000570926
-0.0002856
-0.000527644
-0.000369783
-0.00047732
-0.000454252
-0.000417225
-0.000535625
-0.000348709
-0.000605403
-0.000280786
-0.000650291
-0.000235743
-0.000654484
-0.000253302
-0.000604548
-0.000378946
-0.000495062
-0.000609822
-0.000328685
-0.000870777
-0.000126258
-0.00101195
5.26225e-05
-0.00100523
6.47773e-05
-0.000802525
-0.00027529
-0.00112745
-0.00342542
-0.00955012
-0.00513311
-0.00659756
-0.00525625
-0.00304957
-0.00557505
-0.000412482
-0.0051396
-0.00183626
-0.00475609
-0.00152996
-0.00448736
-0.000813044
-0.0042893
5.57321e-05
-0.00411828
0.00100104
-0.00392972
0.00197694
-0.00370502
0.00296817
-0.00342848
0.00392658
-0.00307602
0.00474973
-0.0026121
0.0052239
-0.00201688
0.00497388
-0.00138774
0.00359429
-0.00107723
0.00164408
-0.000904921
0.000830974
-0.000730418
0.000490871
-0.000553586
0.000267248
-0.000384964
0.000107884
-0.000242672
-1.27781e-05
-0.000142882
-9.93968e-05
-8.49428e-05
-0.000166398
-5.56384e-05
-0.000229629
-4.50622e-05
-0.00029607
-4.57125e-05
-0.000369013
-5.14406e-05
-0.000448393
-5.7159e-05
-0.000529771
-5.96357e-05
-0.000602796
-5.95152e-05
-0.000650302
-6.41413e-05
-0.000649781
-8.91702e-05
-0.000579479
-0.000153929
-0.000430292
-0.000263259
-0.000219358
-0.00039693
7.40688e-06
-0.00052691
0.000182594
-0.00063983
0.00017769
-0.000598405
-0.000316724
-0.00171915
-0.00931697
-0.015934
-0.0111896
-0.00779367
-0.00770721
-0.00389457
-0.00649881
-0.00304441
-0.00591006
-0.00211851
-0.00559851
-0.00112443
-0.00537455
-0.000168075
-0.00511913
0.000745779
-0.00477842
0.00163639
-0.0043318
0.0025217
-0.00376908
0.00336406
-0.00309284
0.00407372
-0.00232906
0.00446043
-0.00153195
0.0041772
-0.000793162
0.00285594
-0.000445203
0.00129622
-0.000226775
0.000612544
-1.27757e-05
0.000276867
0.000204764
4.97219e-05
0.000389118
-7.64333e-05
0.000514461
-0.000138044
0.000586911
-0.000171749
0.000621169
-0.000200545
0.000625825
-0.000234162
0.000606456
-0.000276566
0.000566843
-0.000329248
0.000510315
-0.000391696
0.000440907
-0.000460181
0.000364075
-0.000525777
0.000286748
-0.000572802
0.00021667
-0.000579566
0.000161047
-0.000523769
0.000124039
-0.000393244
0.000104029
-0.000199339
9.5875e-05
1.55559e-05
0.000100332
0.000178129
3.70656e-05
0.000240947
-0.000161781
-0.000117887
-0.00187329
-0.0086663
0.000322052
-0.00668651
-0.00587404
-0.00619398
-0.00353665
-0.00611835
-0.0021939
-0.00603921
-0.00120335
-0.00586577
-0.000341339
-0.00555765
0.000437809
-0.0051087
0.00118759
-0.00447353
0.00188668
-0.00364783
0.00253852
-0.00265594
0.00308203
-0.00158911
0.00339384
-0.00050781
0.00309619
0.00038205
0.00196637
0.000762643
0.000915665
0.000983896
0.000391297
0.00116262
9.8164e-05
0.00129515
-8.27475e-05
0.00137131
-0.000152497
0.00140503
-0.000171621
0.00141224
-0.000178813
0.00139961
-0.000187756
0.00136835
-0.000202739
0.00131688
-0.000224925
0.00124254
-0.000254721
0.00114305
-0.00029201
0.00101816
-0.00033507
0.000871549
-0.000378929
0.000712871
-0.00041389
0.00055895
-0.000425441
0.00043271
-0.000397378
0.000358691
-0.000319139
0.000353548
-0.000194162
0.000415066
-4.59574e-05
0.000526121
6.70669e-05
0.000614985
0.000152073
0.000420309
7.67787e-05
-0.00145138
-0.000336812
0.000627287
-0.0028347
-0.00337578
-0.0044105
-0.00196051
-0.00548358
-0.00112053
-0.00606739
-0.000619293
-0.00618141
-0.00022711
-0.00592174
0.000178319
-0.00535382
0.000619835
-0.00450296
0.00103597
-0.00339105
0.00142674
-0.00204201
0.00173313
-0.000485046
0.00183703
0.00103312
0.00157826
0.00200304
0.000996583
0.00240607
0.000512707
0.00255528
0.000242154
0.0025694
8.41332e-05
0.00249167
-4.87874e-06
0.00239208
-5.27328e-05
0.00230429
-8.36285e-05
0.00222841
-0.000102713
0.00215549
-0.00011462
0.00207507
-0.000122102
0.00197814
-0.000127783
0.00185815
-0.00013451
0.00171109
-0.000144725
0.00153602
-0.000159757
0.00133659
-0.000179222
0.00112342
-0.000200444
0.000916225
-0.000217981
0.000743091
-0.00022403
0.000635376
-0.000211285
0.000620429
-0.000179144
0.000714539
-0.000140046
0.000889475
-0.000107871
0.00116355
-0.000122012
0.00145699
-0.000216677
7.2053e-06
0.00498898
0.00175883
0.00231959
-0.0011289
-0.00316454
-0.00436422
-0.00506529
-0.00537599
-0.00528204
-0.00474699
-0.00379612
-0.00245443
-0.000805913
0.000947907
0.00244587
0.00336566
0.00380518
0.00397777
0.00399571
0.00392765
0.00381435
0.00367199
0.00351166
0.00334009
0.00316145
0.00297746
0.00278713
0.00258705
0.00237251
0.00213917
0.00188533
0.00161468
0.00133859
0.00107569
0.000845095
0.000653469
0.000493548
0.000318694
4.82825e-05
)
;

boundaryField
{
    floor
    {
        type            calculated;
        value           nonuniform List<scalar> 
29
(
0
0
0
0
0
0
0
0
0
0
0
0
0
0
0
0
0
0
0
0
2.52789e-06
6.46862e-06
1.00411e-05
1.40768e-05
2.47131e-06
2.9279e-06
7.6039e-06
1.1618e-05
1.36922e-05
)
;
    }
    ceiling
    {
        type            calculated;
        value           nonuniform List<scalar> 
43
(
0.000110538
0.000109716
6.69995e-05
7.31508e-05
7.55104e-05
7.9524e-05
8.21131e-05
8.38846e-05
8.46309e-05
8.50126e-05
8.53009e-05
8.52296e-05
8.47835e-05
8.341e-05
8.0485e-05
7.696e-05
7.33531e-05
6.9744e-05
6.64046e-05
6.34366e-05
6.08573e-05
5.90491e-05
5.79271e-05
5.72645e-05
5.6839e-05
5.64826e-05
5.60917e-05
5.56188e-05
5.5055e-05
5.44129e-05
5.37179e-05
5.301e-05
5.23538e-05
5.18419e-05
5.15747e-05
5.16258e-05
5.20545e-05
5.28333e-05
5.37249e-05
5.88753e-05
2.33552e-05
1.984e-05
3.19732e-05
)
;
    }
    sWall
    {
        type            calculated;
        value           uniform -0.000106964;
    }
    nWall
    {
        type            calculated;
        value           nonuniform List<scalar> 6(-1.55336e-06 -1.5827e-06 -1.4569e-06 -1.61968e-06 -1.60546e-06 -3.39807e-06);
    }
    sideWalls
    {
        type            empty;
        value           nonuniform 0();
    }
    glass1
    {
        type            calculated;
        value           nonuniform List<scalar> 9(-2.03167e-05 -5.72857e-05 -9.17753e-05 -0.000124763 -0.000156497 -0.000186908 -0.000215194 -0.000239401 -0.000256171);
    }
    glass2
    {
        type            calculated;
        value           nonuniform List<scalar> 2(-6.71766e-06 -7.64788e-06);
    }
    sun
    {
        type            calculated;
        value           uniform 0;
    }
    heatsource1
    {
        type            calculated;
        value           nonuniform List<scalar> 3(1.99506e-07 1.99615e-07 1.99676e-07);
    }
    heatsource2
    {
        type            calculated;
        value           nonuniform List<scalar> 4(4.88489e-08 4.95665e-08 0 0);
    }
    Table_master
    {
        type            calculated;
        value           nonuniform List<scalar> 9(-1.4957e-07 -1.49592e-07 -1.49603e-07 -1.49615e-07 -1.49626e-07 -1.49638e-07 -1.49649e-07 -1.49656e-07 -1.49607e-07);
    }
    Table_slave
    {
        type            calculated;
        value           nonuniform List<scalar> 9(1.49274e-07 1.49294e-07 1.49326e-07 1.4937e-07 1.49426e-07 1.49491e-07 1.49564e-07 1.49646e-07 1.49589e-07);
    }
    inlet
    {
        type            calculated;
        value           uniform 0.00055102;
    }
    outlet
    {
        type            calculated;
        value           nonuniform List<scalar> 2(-0.00499214 0.00312084);
    }
}


// ************************************************************************* //
