/*--------------------------------*- C++ -*----------------------------------*\
  =========                 |
  \\      /  F ield         | OpenFOAM: The Open Source CFD Toolbox
   \\    /   O peration     | Website:  https://openfoam.org
    \\  /    A nd           | Version:  6
     \\/     M anipulation  |
\*---------------------------------------------------------------------------*/
FoamFile
{
    version     2.0;
    format      ascii;
    class       volScalarField;
    location    "600";
    object      epsilon;
}
// * * * * * * * * * * * * * * * * * * * * * * * * * * * * * * * * * * * * * //

dimensions      [0 2 -3 0 0 0 0];

internalField   nonuniform List<scalar> 
459
(
8.95651e-05
0.000123191
0.000141469
0.000167147
0.0001943
0.000224685
0.000259695
0.000293568
0.000321302
0.000335629
0.000328666
0.000256972
0.000187123
0.000121842
7.85858e-05
2.00818e-05
6.08851e-05
6.57791e-05
6.85391e-05
6.74627e-05
6.27068e-05
5.36139e-05
4.46877e-05
3.72978e-05
3.13719e-05
2.66208e-05
2.28126e-05
1.96994e-05
1.70906e-05
1.48255e-05
1.27505e-05
1.06973e-05
7.96885e-06
5.64831e-06
0.00017887
0.000219599
0.000112389
0.00011452
0.000122786
0.000138063
0.000161863
0.000189731
0.000214363
0.000226807
0.00022123
0.000188653
0.000148258
0.000114478
8.41246e-05
0.000137873
7.28211e-05
6.99506e-05
0.000130284
7.44624e-05
6.03325e-05
5.27723e-05
4.79352e-05
4.86494e-05
4.09603e-05
3.34141e-05
2.71581e-05
2.21512e-05
1.82203e-05
1.51217e-05
1.26725e-05
1.08675e-05
9.98226e-06
1.07847e-05
8.83321e-06
9.97657e-06
0.000288936
0.000420079
0.000112965
0.000100848
0.000108818
0.000126832
0.000154295
0.000186078
0.000214474
0.000232431
0.000232623
0.000208016
0.000171654
0.000137021
0.000104267
9.7824e-05
0.000124974
9.29456e-05
9.10043e-05
7.38787e-05
6.36558e-05
5.61886e-05
5.47834e-05
0.00012935
8.77415e-05
6.1749e-05
4.5178e-05
3.42666e-05
2.68767e-05
2.17508e-05
1.81742e-05
1.58105e-05
1.23861e-05
1.18523e-05
1.06422e-05
1.28574e-05
0.000428757
0.00077766
0.000137111
9.34897e-05
0.00010011
0.000121573
0.000156549
0.000192726
0.000224662
0.000249072
0.000253237
0.000230069
0.000191914
0.000154792
0.00012391
0.000105773
0.000104418
0.000187459
0.000130926
9.92381e-05
8.23306e-05
7.12167e-05
6.29691e-05
6.21085e-05
0.00016884
0.000129019
0.000106394
9.2108e-05
8.17212e-05
7.2579e-05
6.37925e-05
5.53787e-05
4.63885e-05
2.78147e-05
1.8888e-05
1.77007e-05
1.81153e-05
0.000614554
0.00135218
0.000217212
9.46902e-05
9.55027e-05
0.000126063
0.000179349
0.000219157
0.000253909
0.000283586
0.000287195
0.000257904
0.000208872
0.000161437
0.000126705
0.000106127
0.00010177
0.000107706
0.000102972
9.74067e-05
9.0329e-05
8.17131e-05
7.2572e-05
6.50405e-05
6.59205e-05
6.32049e-05
6.05624e-05
5.78408e-05
5.4597e-05
5.04375e-05
4.53458e-05
4.00656e-05
3.49578e-05
2.81888e-05
2.17837e-05
2.21432e-05
2.02146e-05
2.7757e-05
2.89968e-05
3.12003e-05
0.00087399
0.00208331
0.000456447
0.000139544
0.000113656
0.000170024
0.000239603
0.000274254
0.000308846
0.000339363
0.000339949
0.000297919
0.000230136
0.000165949
0.000122215
0.000101244
9.90072e-05
0.00010575
0.000110543
0.000109905
0.000104209
9.49678e-05
8.43198e-05
7.47055e-05
6.92773e-05
6.73158e-05
6.66127e-05
6.54439e-05
6.31392e-05
5.93718e-05
5.38908e-05
4.66412e-05
3.94202e-05
3.28138e-05
2.68087e-05
2.48877e-05
2.43529e-05
2.73578e-05
0.00011286
7.65293e-05
0.00119522
0.00263016
0.00103728
0.000417285
0.000301095
0.000342123
0.000357401
0.000367623
0.000396382
0.000426243
0.000417381
0.000353767
0.000259598
0.000175201
0.000122749
0.000102837
0.000105512
0.000116932
0.000124848
0.000125065
0.000118782
0.000108759
9.80155e-05
8.93223e-05
8.48626e-05
8.40273e-05
8.39497e-05
8.29406e-05
8.08296e-05
7.79808e-05
7.44479e-05
6.88851e-05
6.10595e-05
5.42003e-05
4.92901e-05
4.72256e-05
4.78381e-05
5.4589e-05
0.000169131
0.000131645
0.00130423
0.00342012
0.0018298
0.00115969
0.000851654
0.000663606
0.000546396
0.000508288
0.000529966
0.000556405
0.000525503
0.000424505
0.000293934
0.000189726
0.000134537
0.00012069
0.000127479
0.000139414
0.000145658
0.000144303
0.000137729
0.00012941
0.000122227
0.000117815
0.000116208
0.000115821
0.000114514
0.000111477
0.000107695
0.00010542
0.000106863
0.000112767
0.000120028
0.000128401
0.000147625
0.000179986
0.000234702
0.000295452
0.0010583
0.000304865
0.00125217
0.0021322
0.00162395
0.00121951
0.000937385
0.00074101
0.000648331
0.000660363
0.000723896
0.000747406
0.000662721
0.000493864
0.000319085
0.000217317
0.000181017
0.00017489
0.00018053
0.000187979
0.000191103
0.000190663
0.000188392
0.000186301
0.000185518
0.00018622
0.000186918
0.000185284
0.000179162
0.000168009
0.000154038
0.00014229
0.000138564
0.000146033
0.000165521
0.000196914
0.00024332
0.000309332
0.000395416
0.000497514
0.000607823
0.000341665
0.000334969
0.000456909
0.000554232
0.000682683
0.000869375
0.00105365
0.00113134
0.00103452
0.000774036
0.000493786
0.000375417
0.000336722
0.000329712
0.000334025
0.000342536
0.000351116
0.000357814
0.000362247
0.000367537
0.000373769
0.000379221
0.000384521
0.00038708
0.000382731
0.000366729
0.000335657
0.000290403
0.000239011
0.000196659
0.000175695
0.00017288
0.000188232
0.000222471
0.000275759
0.000342092
0.000404517
0.000454591
0.000404001
0.000289801
0.0022887
0.0026355
0.00285753
0.00275137
0.00246993
0.00208214
0.00165124
0.00125721
0.000979386
0.000844472
0.000795492
0.000787929
0.000800049
0.000823689
0.000854677
0.000888106
0.000919405
0.00094455
0.000962695
0.000977149
0.000994329
0.00101205
0.00102301
0.00101511
0.000974384
0.00089236
0.000775074
0.000647669
0.000526077
0.000428289
0.000362081
0.000329275
0.000324868
0.000337399
0.000359151
0.000723607
0.000517779
0.000688582
0.000778837
0.000878155
0.00144067
0.00145036
0.00132865
0.00118696
0.00109831
0.0010166
0.000909497
0.000793777
0.000698712
0.000641597
0.000614038
0.000603187
0.000600768
0.000601463
0.000601702
0.000599694
0.000595106
0.000589015
0.000583385
0.000580111
0.000575524
0.000567039
0.000551204
0.000525154
0.000488711
0.000446245
0.000406718
0.000371475
0.000344108
0.000325102
0.00031488
0.000313292
0.000318508
0.000324463
0.000314476
0.000303034
0.000282489
)
;

boundaryField
{
    floor
    {
        Cmu             0.09;
        kappa           0.41;
        E               9.8;
        type            epsilonWallFunction;
        value           nonuniform List<scalar> 
29
(
7.85858e-05
2.00818e-05
6.08851e-05
6.57791e-05
6.85391e-05
6.74627e-05
6.27068e-05
5.36139e-05
4.46877e-05
3.72978e-05
3.13719e-05
2.66208e-05
2.28126e-05
1.96994e-05
1.70906e-05
1.48255e-05
1.27505e-05
1.06973e-05
7.96885e-06
5.64831e-06
5.64831e-06
9.97657e-06
1.28574e-05
1.81153e-05
7.85858e-05
2.00818e-05
6.99506e-05
9.29456e-05
0.000187459
)
;
    }
    ceiling
    {
        Cmu             0.09;
        kappa           0.41;
        E               9.8;
        type            epsilonWallFunction;
        value           nonuniform List<scalar> 
43
(
0.000688582
0.000778837
0.000878155
0.00144067
0.00145036
0.00132865
0.00118696
0.00109831
0.0010166
0.000909497
0.000793777
0.000698712
0.000641597
0.000614038
0.000603187
0.000600768
0.000601463
0.000601702
0.000599694
0.000595106
0.000589015
0.000583385
0.000580111
0.000575524
0.000567039
0.000551204
0.000525154
0.000488711
0.000446245
0.000406718
0.000371475
0.000344108
0.000325102
0.00031488
0.000313292
0.000318508
0.000324463
0.000314476
0.000303034
0.000282489
0.00125217
0.0021322
0.000289801
)
;
    }
    sWall
    {
        Cmu             0.09;
        kappa           0.41;
        E               9.8;
        type            epsilonWallFunction;
        value           uniform 0.000688582;
    }
    nWall
    {
        Cmu             0.09;
        kappa           0.41;
        E               9.8;
        type            epsilonWallFunction;
        value           nonuniform List<scalar> 6(3.12003e-05 7.65293e-05 0.000131645 0.000404001 0.000517779 0.000282489);
    }
    sideWalls
    {
        type            empty;
    }
    glass1
    {
        Cmu             0.09;
        kappa           0.41;
        E               9.8;
        type            epsilonWallFunction;
        value           nonuniform List<scalar> 9(8.95651e-05 0.00017887 0.000288936 0.000428757 0.000614554 0.00087399 0.00119522 0.00130423 0.00125217);
    }
    glass2
    {
        Cmu             0.09;
        kappa           0.41;
        E               9.8;
        type            epsilonWallFunction;
        value           nonuniform List<scalar> 2(0.000304865 0.000341665);
    }
    sun
    {
        Cmu             0.09;
        kappa           0.41;
        E               9.8;
        type            epsilonWallFunction;
        value           nonuniform List<scalar> 
14
(
8.95651e-05
0.000123191
0.000141469
0.000167147
0.0001943
0.000224685
0.000259695
0.000293568
0.000321302
0.000335629
0.000328666
0.000256972
0.000187123
0.000121842
)
;
    }
    heatsource1
    {
        Cmu             0.09;
        kappa           0.41;
        E               9.8;
        type            epsilonWallFunction;
        value           nonuniform List<scalar> 3(2.7757e-05 2.89968e-05 3.12003e-05);
    }
    heatsource2
    {
        Cmu             0.09;
        kappa           0.41;
        E               9.8;
        type            epsilonWallFunction;
        value           nonuniform List<scalar> 4(0.000137873 7.28211e-05 7.28211e-05 0.000124974);
    }
    Table_master
    {
        Cmu             0.09;
        kappa           0.41;
        E               9.8;
        type            epsilonWallFunction;
        value           nonuniform List<scalar> 9(0.00012935 8.77415e-05 6.1749e-05 4.5178e-05 3.42666e-05 2.68767e-05 2.17508e-05 1.81742e-05 1.58105e-05);
    }
    Table_slave
    {
        Cmu             0.09;
        kappa           0.41;
        E               9.8;
        type            epsilonWallFunction;
        value           nonuniform List<scalar> 9(0.00016884 0.000129019 0.000106394 9.2108e-05 8.17212e-05 7.2579e-05 6.37925e-05 5.53787e-05 4.63885e-05);
    }
    inlet
    {
        type            turbulentMixingLengthDissipationRateInlet;
        mixingLength    0.01;
        phi             phi;
        k               k;
        value           uniform 0.000101881;
    }
    outlet
    {
        type            zeroGradient;
    }
}


// ************************************************************************* //
