// -*- C++ -*-
// File generated by PyFoam - sorry for the ugliness

FoamFile
{
 version 2.0;
 format ascii;
 class volScalarField;
 location "600";
 object T;
}

dimensions [ 0 0 0 1 0 0 0 ];

internalField nonuniform List<scalar> 459
(
  301.015
  300.978
  300.978
  300.98
  300.981
  300.982
  300.983
  300.984
  300.986
  300.99
  300.997
  301.012
  301.016
  301.015
  301.007
  301.038
  301.084
  301.103
  301.116
  301.125
  301.131
  301.135
  301.136
  301.137
  301.138
  301.138
  301.138
  301.139
  301.139
  301.139
  301.139
  301.139
  301.137
  301.122
  301.036
  300.984
  300.982
  300.983
  300.983
  300.983
  300.982
  300.981
  300.982
  300.986
  300.998
  301.016
  301.026
  301.028
  301.023
  301.025
  301.027
  301.078
  301.097
  301.113
  301.129
  301.144
  301.155
  301.159
  301.161
  301.163
  301.165
  301.167
  301.168
  301.169
  301.17
  301.17
  301.167
  301.163
  301.155
  301.147
  301.056
  300.988
  300.984
  300.984
  300.984
  300.984
  300.982
  300.978
  300.974
  300.977
  300.993
  301.017
  301.033
  301.04
  301.039
  301.037
  301.034
  301.074
  301.094
  301.117
  301.14
  301.161
  301.177
  301.178
  301.179
  301.181
  301.182
  301.184
  301.186
  301.187
  301.189
  301.188
  301.187
  301.181
  301.17
  301.159
  301.078
  300.994
  300.986
  300.987
  300.989
  300.99
  300.988
  300.979
  300.968
  300.968
  300.987
  301.016
  301.041
  301.054
  301.055
  301.052
  301.047
  301.051
  301.07
  301.097
  301.129
  301.16
  301.187
  301.208
  301.227
  301.242
  301.254
  301.265
  301.275
  301.283
  301.289
  301.295
  301.299
  301.267
  301.233
  301.202
  301.178
  301.1
  301.001
  300.989
  300.992
  300.997
  301.002
  301
  300.983
  300.963
  300.959
  300.981
  301.017
  301.051
  301.072
  301.079
  301.078
  301.077
  301.087
  301.109
  301.137
  301.168
  301.199
  301.227
  301.25
  301.271
  301.287
  301.299
  301.31
  301.318
  301.324
  301.327
  301.328
  301.325
  301.308
  301.277
  301.24
  301.206
  301.207
  301.21
  301.24
  301.122
  301.012
  300.995
  300.996
  301.003
  301.015
  301.01
  300.985
  300.959
  300.952
  300.976
  301.02
  301.066
  301.098
  301.113
  301.116
  301.121
  301.136
  301.159
  301.187
  301.217
  301.246
  301.272
  301.293
  301.31
  301.324
  301.334
  301.341
  301.346
  301.349
  301.35
  301.349
  301.344
  301.332
  301.31
  301.28
  301.247
  301.235
  301.23
  301.247
  301.143
  301.03
  301.011
  301.009
  301.015
  301.025
  301.014
  300.981
  300.949
  300.943
  300.974
  301.03
  301.089
  301.133
  301.156
  301.166
  301.175
  301.192
  301.215
  301.242
  301.269
  301.294
  301.315
  301.331
  301.343
  301.351
  301.356
  301.36
  301.361
  301.362
  301.361
  301.358
  301.354
  301.344
  301.329
  301.307
  301.281
  301.263
  301.25
  301.256
  301.174
  301.083
  301.06
  301.049
  301.049
  301.042
  301.008
  300.96
  300.927
  300.932
  300.979
  301.053
  301.128
  301.18
  301.207
  301.221
  301.233
  301.251
  301.272
  301.295
  301.316
  301.334
  301.347
  301.356
  301.361
  301.364
  301.365
  301.365
  301.363
  301.361
  301.359
  301.356
  301.352
  301.345
  301.334
  301.319
  301.301
  301.285
  301.273
  301.311
  301.216
  301.173
  301.143
  301.116
  301.093
  301.036
  300.959
  300.899
  300.884
  300.922
  301.003
  301.102
  301.188
  301.237
  301.261
  301.275
  301.288
  301.304
  301.32
  301.335
  301.348
  301.357
  301.363
  301.365
  301.366
  301.365
  301.363
  301.361
  301.357
  301.354
  301.35
  301.345
  301.34
  301.335
  301.33
  301.327
  301.327
  301.332
  301.341
  301.367
  300.361
  300.481
  300.53
  300.569
  300.63
  300.72
  300.831
  300.954
  301.084
  301.198
  301.259
  301.29
  301.307
  301.318
  301.329
  301.339
  301.349
  301.356
  301.361
  301.364
  301.364
  301.364
  301.362
  301.36
  301.357
  301.355
  301.352
  301.349
  301.345
  301.342
  301.34
  301.338
  301.336
  301.337
  301.339
  301.346
  301.358
  301.385
  300.387
  300.518
  300.613
  300.725
  300.835
  300.947
  301.05
  301.143
  301.22
  301.275
  301.306
  301.323
  301.334
  301.341
  301.348
  301.353
  301.357
  301.36
  301.361
  301.36
  301.359
  301.358
  301.356
  301.355
  301.353
  301.352
  301.351
  301.349
  301.347
  301.346
  301.344
  301.343
  301.342
  301.342
  301.344
  301.348
  301.357
  301.373
  300.67
  300.662
  300.661
  300.793
  300.912
  301.025
  301.113
  301.176
  301.224
  301.262
  301.292
  301.311
  301.323
  301.33
  301.334
  301.337
  301.339
  301.34
  301.34
  301.339
  301.338
  301.337
  301.335
  301.334
  301.333
  301.332
  301.331
  301.331
  301.331
  301.331
  301.332
  301.333
  301.334
  301.335
  301.336
  301.337
  301.338
  301.341
  301.34
  301.364
)
;

boundaryField
{
  floor
  {
    type wallHeatTransfer;
    Tinf uniform 299.755;
    alphaWall uniform 0.24;
    value nonuniform List<scalar> 29
(
  300.807
  300.762
  300.859
  300.879
  300.891
  300.898
  300.9
  300.894
  300.886
  300.876
  300.866
  300.857
  300.848
  300.839
  300.831
  300.822
  300.812
  300.8
  300.778
  300.743
  300.743
  300.801
  300.828
  300.864
  300.807
  300.762
  300.861
  300.872
  300.883
)
;
  }
  ceiling
  {
    type wallHeatTransfer;
    Tinf uniform 299.755;
    alphaWall uniform 0.24;
    value nonuniform List<scalar> 43
(
  300.584
  300.579
  300.581
  300.713
  300.823
  300.925
  301.002
  301.057
  301.099
  301.13
  301.152
  301.166
  301.173
  301.177
  301.181
  301.183
  301.185
  301.186
  301.186
  301.185
  301.183
  301.182
  301.18
  301.179
  301.177
  301.175
  301.172
  301.169
  301.166
  301.162
  301.159
  301.156
  301.155
  301.154
  301.155
  301.156
  301.158
  301.159
  301.157
  301.175
  301.098
  301.074
  300.313
)
;
  }
  sWall
  {
    type wallHeatTransfer;
    Tinf uniform 303.161;
    alphaWall uniform 0.36;
    value uniform 301.005;
  }
  nWall
  {
    type wallHeatTransfer;
    Tinf uniform 303.145;
    alphaWall uniform 0.36;
    value nonuniform List<scalar> 6
(
  301.751
  301.671
  301.631
  301.655
  301.629
  301.661
)
;
  }
  sideWalls
  {
    type empty;
  }
  glass1
  {
    type wallHeatTransfer;
    Tinf uniform 303.161;
    alphaWall uniform 4.3;
    value nonuniform List<scalar> 9
(
  302.662
  302.59
  302.539
  302.496
  302.457
  302.418
  302.383
  302.383
  302.405
)
;
  }
  glass2
  {
    type wallHeatTransfer;
    Tinf uniform 303.145;
    alphaWall uniform 4.3;
    value nonuniform List<scalar> 2
(
  302.597
  302.602
)
;
  }
  sun
  {
    type wallHeatTransfer;
    Tinf uniform 299.755;
    alphaWall uniform 0.24;
    value nonuniform List<scalar> 14
(
  300.82
  300.803
  300.808
  300.816
  300.823
  300.829
  300.835
  300.841
  300.846
  300.851
  300.856
  300.86
  300.852
  300.833
)
;
  }
  heatsource1
  {
    type fixedGradient;
    gradient uniform 0;
  }
  heatsource2
  {
    type fixedGradient;
    gradient uniform 0;
  }
  Table_master
  {
    type zeroGradient;
  }
  Table_slave
  {
    type zeroGradient;
  }
  inlet
  {
    type fixedValue;
    value uniform 300.15;
  }
  outlet
  {
    type zeroGradient;
  }
} 	// ************************************************************************* //

