/*--------------------------------*- C++ -*----------------------------------*\
  =========                 |
  \\      /  F ield         | OpenFOAM: The Open Source CFD Toolbox
   \\    /   O peration     | Website:  https://openfoam.org
    \\  /    A nd           | Version:  6
     \\/     M anipulation  |
\*---------------------------------------------------------------------------*/
FoamFile
{
    version     2.0;
    format      ascii;
    class       surfaceScalarField;
    location    "10";
    object      phi;
}
// * * * * * * * * * * * * * * * * * * * * * * * * * * * * * * * * * * * * * //

dimensions      [1 0 -1 0 0 0 0];

internalField   nonuniform List<scalar> 
852
(
-0.00142564
0.00143948
-0.00140953
-1.65595e-05
-0.000723757
-0.000686484
0.000111406
-0.000836044
0.000799915
-0.000689288
0.00125305
-0.000453739
0.0014797
-0.00022708
0.00152352
-4.41201e-05
0.00143663
8.66733e-05
0.00126727
0.000169206
0.00105416
0.000212992
0.000822039
0.000232028
0.000580101
0.000241861
0.000322042
0.000257987
0.000317183
0.000171243
-0.000177683
0.000127651
4.34916e-05
7.40287e-05
5.3549e-05
7.23338e-05
1.63275e-06
9.63401e-05
-2.40657e-05
0.00012548
-2.92028e-05
0.000142869
-1.74634e-05
0.000144368
-1.58107e-06
0.000142238
2.04319e-06
0.000140793
1.3565e-06
0.000140661
4.33833e-08
0.000142128
-1.55555e-06
0.000144498
-2.45867e-06
0.000139013
5.39814e-06
9.41879e-05
4.47382e-05
-1.99245e-05
0.000114029
-0.000205135
0.000185116
-0.000320511
0.000115255
-0.000327171
-0.000800239
0.00227799
-0.000760555
-5.70948e-05
-0.000325716
-0.00112263
0.000273069
-0.00143646
0.000806045
-0.00122378
0.00117569
-0.000824582
0.00136909
-0.00042136
0.00141248
-8.81108e-05
0.00134571
0.000153043
0.00120907
0.000305577
0.00103639
0.000385493
0.000853366
0.000414936
0.000680994
0.000414148
0.00054751
0.000391403
0.000478605
0.000386024
0.000150672
0.000327842
0.000150608
-0.000151321
-4.11989e-05
-5.24898e-05
-5.53852e-05
3.30451e-05
-3.2023e-05
7.94857e-05
-4.48392e-05
0.000109479
-5.40883e-05
0.000134497
-5.42491e-05
0.000143765
-2.67615e-05
0.000143669
-1.51535e-06
0.000144205
1.47814e-06
0.000144407
1.12688e-06
0.000144419
2.6454e-09
0.000144295
-1.45907e-06
0.000143943
-2.13456e-06
0.000144119
5.19192e-06
0.000135193
5.36291e-05
0.000126141
0.000123042
0.000126068
0.000185142
0.000127664
0.000113604
-0.00021608
-0.000496436
0.00283508
-0.00048513
-6.96439e-05
-0.00014834
-0.00146129
0.000378671
-0.00196586
0.000842353
-0.00168968
0.00115309
-0.0011371
0.00130419
-0.000573767
0.00132498
-0.000109799
0.00125416
0.000223262
0.00112886
0.000430495
0.000978665
0.000535446
0.000824523
0.000568923
0.000678972
0.000559599
0.00054024
0.000530065
0.000414492
0.000511719
0.000250818
0.000491481
0.000401407
-3.27902e-05
-2.87418e-05
2.03515e-05
-0.000108552
8.73637e-05
-9.90572e-05
0.000124948
-8.24425e-05
0.000144377
-7.35353e-05
0.000162349
-7.22373e-05
0.00013572
0.00013434
0.000135957
0.000137222
0.000137364
0.000136045
0.000134049
0.000139379
0.00019314
0.000253887
6.22752e-05
0.000343499
9.55067e-05
0.000366588
9.04889e-05
0.000126357
-0.000407466
0.00332488
-0.000484871
6.16698e-06
-0.000167986
-0.00178046
0.000395133
-0.0025321
0.000857006
-0.00215448
0.00113569
-0.00141811
0.00124763
-0.000687413
0.00123725
-0.000100604
0.00115064
0.00030909
0.00102611
0.000554519
0.000890247
0.000670997
0.000759188
0.000699787
0.000640997
0.000677669
0.000537986
0.000632998
0.000462726
0.000586928
0.000426128
0.000528045
0.000437476
0.000390038
0.000354229
6.19109e-05
0.000297667
2.78038e-05
0.000235955
-4.68554e-05
0.000208679
-7.17956e-05
0.000200338
-7.41149e-05
0.000196522
-6.97304e-05
0.000183184
-5.89088e-05
0.000212781
-2.97514e-05
0.000225605
-1.29753e-05
0.000229937
-4.48115e-06
0.000229558
2.28819e-07
0.000226492
2.91672e-06
0.00022152
4.82239e-06
0.000214696
6.67465e-06
0.000205772
8.77408e-06
0.000198582
7.03796e-06
0.000237743
2.31067e-05
0.00030981
2.34296e-05
0.000351748
4.85421e-05
0.000448048
-0.000492968
0.00392307
-0.000684107
0.000195488
-0.000322052
-0.00214477
0.000333065
-0.00319081
0.000824003
-0.00264886
0.0010846
-0.00168147
0.00115963
-0.000764477
0.00111551
-5.78977e-05
0.00101068
0.000412992
0.000886172
0.000678427
0.00076527
0.000791529
0.000659187
0.000805644
0.000572652
0.000764066
0.000508697
0.000696867
0.000475491
0.000620081
0.000478103
0.000525398
0.000489772
0.000378347
0.000401965
0.000149701
0.000355257
7.44985e-05
0.000307893
4.97466e-07
0.000274293
-3.82063e-05
0.00025369
-5.35212e-05
0.000239834
-5.58822e-05
0.000229532
-4.86139e-05
0.000231098
-3.13219e-05
0.000233351
-1.52318e-05
0.000232888
-4.02047e-06
0.000229787
3.328e-06
0.000224197
8.50473e-06
0.000215715
1.33031e-05
0.000202882
1.95067e-05
0.000182992
2.86618e-05
0.00014726
4.27676e-05
9.73033e-05
7.3061e-05
-7.21448e-06
0.000127946
-0.000223846
0.000265178
-0.000412924
0.000637151
-0.00120946
0.000796483
-0.00154837
0.000338969
-0.00160147
-0.000665953
0.00472119
-0.000905297
0.0004336
-0.000451082
-0.00260034
0.000271926
-0.00391735
0.000774583
-0.00315523
0.00099982
-0.00190974
0.00102321
-0.000790104
0.000938416
2.53544e-05
0.000816751
0.000533633
0.000698212
0.000796316
0.000599244
0.000890094
0.000524053
0.00088059
0.000472286
0.000815684
0.000443356
0.000725707
0.000438362
0.000625019
0.000452957
0.000510768
0.00046197
0.000369311
0.000407081
0.000204575
0.000373488
0.00010808
0.000338657
3.5318e-05
0.000308796
-8.35358e-06
0.000285484
-3.02163e-05
0.000267068
-3.74729e-05
0.000252583
-3.41344e-05
0.000243985
-2.27284e-05
0.00023857
-9.82055e-06
0.000233654
8.92459e-07
0.00022803
8.94973e-06
0.000221143
1.53898e-05
0.000212415
2.20282e-05
0.000200593
3.13273e-05
0.000182551
4.67012e-05
0.000151344
7.3973e-05
9.91185e-05
0.000125287
4.44352e-06
0.000222624
-0.000149264
0.000418898
-0.00030291
0.000790835
-0.000563259
0.00105695
-0.000835924
0.000611848
-0.0024903
-0.000645777
0.00552993
-0.000715985
0.000503968
-0.000238352
-0.0030772
0.000426929
-0.00458532
0.000831991
-0.00356404
0.00092615
-0.00200705
0.00084124
-0.000707507
0.000695619
0.000169385
0.000559638
0.000668575
0.000458289
0.000897009
0.000393198
0.00095478
0.000358126
0.000915417
0.000346287
0.000827373
0.000352629
0.000719275
0.000373215
0.000604378
0.000400182
0.000483766
0.000415619
0.000353852
0.000396643
0.000223535
0.000375936
0.000128777
0.000350956
6.02889e-05
0.000326026
1.65695e-05
0.000303384
-7.58117e-06
0.00028339
-1.74848e-05
0.000266308
-1.70581e-05
0.000253176
-9.60009e-06
0.000243136
2.14663e-07
0.000234766
9.25959e-06
0.000227168
1.65449e-05
0.000220021
2.25331e-05
0.000213392
2.86551e-05
0.000207483
3.72339e-05
0.000202284
5.18979e-05
0.000197496
7.87591e-05
0.000194116
0.000128667
0.000195966
0.000220778
0.000221206
0.00039367
0.000304025
0.000708047
0.000309974
0.00105108
0.000223193
0.000698784
-0.00231968
0.000497255
0.00522283
0.000669421
0.000333074
0.00106073
-0.00346495
0.00128989
-0.00481533
0.00118737
-0.00346515
0.000900735
-0.00172365
0.000599885
-0.000408956
0.000370679
0.00039707
0.000232508
0.000805776
0.000168186
0.000960723
0.000153953
0.000968637
0.000170651
0.000898488
0.000205366
0.000792518
0.000249859
0.000674698
0.000298008
0.000556177
0.00034205
0.000439692
0.000370776
0.000325105
0.000375627
0.00021867
0.0003684
0.000135994
0.000352915
7.57655e-05
0.000333485
3.59915e-05
0.000312993
1.29048e-05
0.000293018
2.48464e-06
0.000274682
1.27229e-06
0.000259019
6.05807e-06
0.00024599
1.324e-05
0.000235069
2.01766e-05
0.000225939
2.56708e-05
0.000218814
2.96546e-05
0.000214636
3.28293e-05
0.00021534
3.65268e-05
0.000224386
4.28488e-05
0.000248149
5.49953e-05
0.000299351
7.74652e-05
0.000404985
0.000115148
0.000625807
0.00017286
0.00108364
0.000250238
0.00184298
0.000291794
0.00239718
0.000144701
-0.000317477
0.00537977
0.00565519
0.00444304
-0.00224939
0.00293646
-0.00330826
0.00165417
-0.00218632
0.000738569
-0.00081131
0.00018448
0.000142983
-8.4121e-05
0.000664368
-0.000174376
0.000895208
-0.000165902
0.000951726
-0.000106854
0.000909259
-2.52719e-05
0.000816702
6.25842e-05
0.000704537
0.000148044
0.000589163
0.000225685
0.00047849
0.000289574
0.000375775
0.000333406
0.000281254
0.000354387
0.000197676
0.00035864
0.000131731
0.000351113
8.32841e-05
0.000336394
5.07034e-05
0.000317983
3.13089e-05
0.00029831
2.21521e-05
0.000279125
2.04512e-05
0.000261691
2.34875e-05
0.000246471
2.84548e-05
0.000233475
3.31679e-05
0.000222773
3.63683e-05
0.000214904
3.75186e-05
0.000211246
3.64832e-05
0.00021446
3.33097e-05
0.000229197
2.81081e-05
0.000263474
2.07163e-05
0.000331449
9.49006e-06
0.000460817
-1.42149e-05
0.000707786
-7.40963e-05
0.00117903
-0.000220974
0.00195664
-0.000485766
0.00260646
-0.000505008
0.0018505
0.00478128
-0.000644947
0.00230052
-0.000830216
0.000682702
-0.000572498
-0.00022733
9.59415e-05
-0.000629665
0.000543829
-0.000722416
0.000756162
-0.0006634
0.000835559
-0.000532995
0.000820905
-0.000375341
0.000751337
-0.000215778
0.000656972
-6.82377e-05
0.000556895
6.12983e-05
0.000459565
0.000169746
0.000370006
0.000253357
0.00029214
0.000310315
0.00022428
0.000341918
0.000166062
0.000353603
0.000120037
0.000350842
8.60376e-05
0.000338638
6.29004e-05
0.000321036
4.89046e-05
0.000301048
4.21336e-05
0.000280839
4.06547e-05
0.000261847
4.24732e-05
0.000244757
4.55393e-05
0.000229772
4.81476e-05
0.00021704
4.90953e-05
0.00020704
4.75129e-05
0.000200919
4.25995e-05
0.000200756
3.34685e-05
0.000209733
1.91266e-05
0.000232117
-1.67075e-06
0.000270653
-2.90468e-05
0.000328439
-7.19956e-05
0.00039855
-0.000144193
0.000434348
-0.000256735
0.000307018
-0.000358357
-3.54776e-05
-0.000162364
0.00173958
-0.000916527
0.000213776
-0.00140014
-0.000347075
-0.00175346
-0.000220149
-0.00181022
0.000151714
-0.00169299
0.000425765
-0.00147787
0.000540423
-0.00120532
0.000562558
-0.000916399
0.000531684
-0.000639662
0.000474403
-0.000391034
0.00040822
-0.0001762
0.000341985
5.77379e-06
0.000277545
0.000147997
0.000227756
0.00024708
0.00019304
0.00031094
0.000160408
0.00034577
0.000131223
0.000358534
0.000107265
0.000355791
8.87742e-05
0.000343148
7.55365e-05
0.000324938
6.71085e-05
0.000304232
6.28336e-05
0.000283078
6.18029e-05
0.000262719
6.2827e-05
0.000243717
6.45353e-05
0.000226212
6.56472e-05
0.000210205
6.50976e-05
0.000195799
6.19129e-05
0.000183418
5.49756e-05
0.000174004
4.28777e-05
0.00016893
2.4196e-05
0.000165496
1.76026e-06
0.000163404
-2.69554e-05
0.000155023
-6.36103e-05
0.000124015
-0.000113168
3.78508e-05
-0.000170525
-0.000206724
-0.000113681
-0.000816885
0.000447982
0.000824223
-0.00276513
-0.00243565
-0.00231117
-0.00274133
-0.00304287
-0.00297179
-0.00262622
-0.00216603
-0.00168393
-0.00123302
-0.000839788
-0.000513164
-0.000253241
-5.825e-05
8.652e-05
0.000196231
0.000273001
0.000320325
0.000343493
0.000348023
0.000339201
0.000321847
0.00030011
0.000277223
0.000255232
0.00023482
0.000215398
0.000195315
0.000171941
0.000141515
9.88437e-05
3.7274e-05
-4.70491e-05
-0.000160384
-0.000310736
-0.000510716
-0.000767155
-0.000965357
-0.00060248
)
;

boundaryField
{
    floor
    {
        type            calculated;
        value           nonuniform List<scalar> 
29
(
0
0
0
0
0
0
0
0
0
0
0
0
0
0
0
0
0
0
0
0
6.54833e-06
1.65211e-05
2.41271e-05
3.005e-05
4.775e-06
6.31098e-06
1.47807e-05
2.0302e-05
2.13188e-05
)
;
    }
    ceiling
    {
        type            calculated;
        value           nonuniform List<scalar> 
43
(
0.000113444
0.000102306
8.9283e-05
8.27561e-05
8.09708e-05
8.02481e-05
7.97858e-05
7.98916e-05
8.01964e-05
8.06002e-05
8.10533e-05
8.1527e-05
8.2021e-05
8.25309e-05
8.29725e-05
8.33202e-05
8.36317e-05
8.38929e-05
8.40925e-05
8.42396e-05
8.43541e-05
8.44575e-05
8.45657e-05
8.46852e-05
8.48135e-05
8.49427e-05
8.50648e-05
8.51766e-05
8.52828e-05
8.53971e-05
8.55443e-05
8.57615e-05
8.60798e-05
8.63783e-05
8.67455e-05
8.68298e-05
8.59699e-05
8.46418e-05
8.53032e-05
9.40711e-05
5.97593e-05
5.73419e-05
5.77425e-05
)
;
    }
    sWall
    {
        type            calculated;
        value           uniform -8.26414e-05;
    }
    nWall
    {
        type            calculated;
        value           nonuniform List<scalar> 6(5.32125e-05 5.31919e-05 5.28428e-05 7.56938e-05 9.87437e-05 0.000127947);
    }
    sideWalls
    {
        type            empty;
        value           nonuniform 0();
    }
    glass1
    {
        type            calculated;
        value           nonuniform List<scalar> 9(-1.40828e-05 -3.86814e-05 -6.12693e-05 -8.3206e-05 -0.000106333 -0.000133133 -0.000163388 -0.000190521 -0.000217269);
    }
    glass2
    {
        type            calculated;
        value           nonuniform List<scalar> 2(0.000395231 0.000438717);
    }
    sun
    {
        type            calculated;
        value           uniform 0;
    }
    heatsource1
    {
        type            calculated;
        value           nonuniform List<scalar> 3(1.97643e-07 1.97606e-07 1.977e-07);
    }
    heatsource2
    {
        type            calculated;
        value           nonuniform List<scalar> 4(4.94826e-08 4.96354e-08 0 0);
    }
    Table_master
    {
        type            calculated;
        value           nonuniform List<scalar> 9(-1.48617e-07 -1.48849e-07 -1.48876e-07 -1.48882e-07 -1.48883e-07 -1.48883e-07 -1.48881e-07 -1.48869e-07 -1.48723e-07);
    }
    Table_slave
    {
        type            calculated;
        value           nonuniform List<scalar> 9(1.48301e-07 1.48541e-07 1.48558e-07 1.48567e-07 1.48572e-07 1.48576e-07 1.48579e-07 1.48578e-07 1.48438e-07);
    }
    inlet
    {
        type            calculated;
        value           uniform -0.006386;
    }
    outlet
    {
        type            calculated;
        value           nonuniform List<scalar> 2(0.00273411 -0.000431781);
    }
}


// ************************************************************************* //
