/*--------------------------------*- C++ -*----------------------------------*\
  =========                 |
  \\      /  F ield         | OpenFOAM: The Open Source CFD Toolbox
   \\    /   O peration     | Website:  https://openfoam.org
    \\  /    A nd           | Version:  6
     \\/     M anipulation  |
\*---------------------------------------------------------------------------*/
FoamFile
{
    version     2.0;
    format      ascii;
    class       volScalarField;
    location    "60";
    object      epsilon;
}
// * * * * * * * * * * * * * * * * * * * * * * * * * * * * * * * * * * * * * //

dimensions      [0 2 -3 0 0 0 0];

internalField   nonuniform List<scalar> 
459
(
0.00318029
0.00485338
0.00463039
0.00386232
0.00312159
0.00252815
0.00207914
0.00172776
0.00144454
0.00121024
0.00101122
0.000837154
0.00067931
0.00052822
0.000387724
0.000139655
0.000293971
0.000312705
0.00026255
0.00022149
0.000181746
0.000143004
0.000108822
8.0561e-05
5.76817e-05
3.99198e-05
2.71511e-05
1.86523e-05
1.33082e-05
1.00893e-05
8.41111e-06
9.37041e-06
2.10546e-05
6.90731e-05
0.00506056
0.0111666
0.00633451
0.00406318
0.00284833
0.0021435
0.00169003
0.00137178
0.00113164
0.000939667
0.000779072
0.000640365
0.000519103
0.000412983
0.000326422
0.000358177
0.000234193
0.000377765
0.00103283
0.000410305
0.000255858
0.000186795
0.000142326
0.000118274
8.83544e-05
6.46341e-05
4.61595e-05
3.21594e-05
2.21325e-05
1.53217e-05
1.09626e-05
8.78959e-06
9.01165e-06
2.04392e-05
4.73324e-05
0.000105618
0.00582638
0.014632
0.00636861
0.00339504
0.00213643
0.00154638
0.00122143
0.00101217
0.000854932
0.000723157
0.000606493
0.000502088
0.000410761
0.000333305
0.000272718
0.000247574
0.000249705
0.000373023
0.00094964
0.000423875
0.000262376
0.000192429
0.000156404
0.000247368
0.000144389
8.95972e-05
6.00033e-05
4.18789e-05
2.98017e-05
2.15743e-05
1.61716e-05
1.31422e-05
1.08487e-05
2.22995e-05
6.69226e-05
0.000134
0.00564825
0.012854
0.00446913
0.00186361
0.0010645
0.000809396
0.000717535
0.000651425
0.000584053
0.000513419
0.000443121
0.000377085
0.000318281
0.000268698
0.000230676
0.000205948
0.000205922
0.00026054
0.000392893
0.000302278
0.000237734
0.00019702
0.000166402
0.000147539
0.000327251
0.000247007
0.000186865
0.000136047
9.47475e-05
6.93036e-05
6.07907e-05
6.09431e-05
5.94255e-05
2.56943e-05
3.07454e-05
0.000138674
0.000197215
0.00535563
0.00899488
0.00245151
0.000773657
0.000473696
0.000427348
0.000425803
0.000413575
0.000388468
0.000354027
0.000316801
0.000281637
0.000250036
0.000224588
0.000207507
0.000196705
0.000209249
0.000214346
0.000213656
0.000218735
0.000213842
0.000197016
0.000170565
0.000143186
0.00013429
0.000130893
0.000123503
0.000104392
8.18438e-05
6.70962e-05
6.16239e-05
6.07491e-05
6.07222e-05
5.36387e-05
5.22923e-05
0.000147994
0.000213606
0.000283355
0.00037006
0.000875306
0.00482918
0.00629946
0.00160722
0.000525954
0.000317395
0.0002881
0.000289395
0.000286776
0.000276747
0.000261548
0.000244473
0.000228433
0.000214429
0.000205967
0.000205865
0.000214751
0.000240898
0.000260869
0.000276561
0.000282034
0.000271526
0.000243105
0.000203142
0.000164901
0.00013879
0.000123549
0.000110152
9.5857e-05
8.62643e-05
8.37979e-05
8.56925e-05
8.80693e-05
8.77077e-05
8.38392e-05
8.26735e-05
0.000128491
0.00019112
0.000388254
0.00126135
0.00199015
0.00413926
0.00471412
0.00132577
0.000606237
0.000340729
0.000290994
0.000285844
0.000284004
0.000276717
0.000264195
0.000249399
0.000235928
0.000228538
0.000227235
0.000235724
0.000255708
0.000290093
0.000330144
0.000357909
0.000362156
0.000335553
0.000283731
0.000221724
0.000163498
0.000133315
0.000122259
0.000117038
0.000116872
0.000123045
0.000133965
0.000146064
0.000154995
0.000155501
0.000146127
0.000135889
0.000151597
0.000223707
0.000806812
0.00375536
0.00465089
0.00333157
0.00361319
0.00152989
0.00116198
0.000589121
0.00047545
0.000473306
0.000480486
0.000475443
0.000458105
0.000433981
0.000408276
0.000383424
0.000366452
0.000363382
0.000382598
0.000421743
0.00046688
0.00048449
0.000459504
0.000388443
0.000299572
0.000231707
0.000191293
0.000176987
0.000178263
0.000189661
0.000210419
0.000239239
0.000272196
0.000303495
0.000325963
0.000330661
0.000312382
0.000283215
0.000280126
0.000419475
0.00173691
0.0139846
0.0118571
0.00224161
0.00232986
0.00221426
0.00252314
0.00125844
0.00100869
0.00102874
0.00105524
0.00105406
0.00102853
0.000989732
0.000947817
0.000907825
0.000872069
0.000842146
0.000819219
0.000804192
0.000785014
0.000737984
0.000654968
0.00056146
0.00048377
0.000430124
0.00040626
0.000408632
0.000433014
0.000477137
0.000538694
0.000612208
0.000688229
0.000755807
0.000804878
0.000825085
0.000793625
0.000732903
0.000697109
0.000929998
0.00309454
0.0208291
0.0166314
0.0029235
0.00410262
0.00267515
0.00242708
0.0024655
0.00248203
0.00247644
0.00244668
0.00240149
0.00235456
0.00230843
0.00225644
0.00218713
0.00208927
0.00196201
0.0018328
0.00171474
0.00159907
0.00149237
0.00140619
0.00135215
0.00133718
0.00136612
0.00144044
0.00155687
0.00170573
0.00187004
0.00202847
0.00216154
0.00225575
0.00230342
0.00227032
0.00215169
0.00206947
0.00238943
0.0046761
0.0159837
0.0102584
0.00639992
0.00928985
0.0078422
0.00662292
0.0062543
0.00606576
0.00599556
0.00596405
0.00593233
0.00590942
0.00589606
0.00587522
0.00581735
0.00569396
0.00550242
0.00530514
0.00509533
0.00486737
0.00463171
0.00441087
0.00423149
0.00412422
0.00412029
0.00424025
0.00448582
0.00483462
0.00523947
0.00563872
0.00597423
0.00619922
0.00626449
0.00613513
0.00576628
0.00524101
0.0050121
0.00596339
0.00860118
0.0060385
0.000421788
0.000235465
0.000664809
0.00243117
0.00321029
0.00323084
0.00310529
0.00301619
0.00304656
0.00311386
0.00318178
0.00324343
0.00329178
0.00331699
0.00331161
0.00327963
0.00324761
0.00320559
0.00314963
0.00308669
0.00302885
0.00298882
0.00297714
0.00300103
0.00306294
0.00315916
0.00327927
0.00340754
0.00352663
0.00362211
0.00368462
0.00370925
0.00369297
0.00362373
0.00351898
0.0034892
0.0037106
0.004253
0.00464111
0.00341321
)
;

boundaryField
{
    floor
    {
        Cmu             0.09;
        kappa           0.41;
        E               9.8;
        type            epsilonWallFunction;
        value           nonuniform List<scalar> 
29
(
0.000387724
0.000139655
0.000293971
0.000312705
0.00026255
0.00022149
0.000181746
0.000143004
0.000108822
8.0561e-05
5.76817e-05
3.99198e-05
2.71511e-05
1.86523e-05
1.33082e-05
1.00893e-05
8.41111e-06
9.37041e-06
2.10546e-05
6.90731e-05
6.90731e-05
0.000105618
0.000134
0.000197215
0.000387724
0.000139655
0.000377765
0.000373023
0.00026054
)
;
    }
    ceiling
    {
        Cmu             0.09;
        kappa           0.41;
        E               9.8;
        type            epsilonWallFunction;
        value           nonuniform List<scalar> 
43
(
0.000421788
0.000235465
0.000664809
0.00243117
0.00321029
0.00323084
0.00310529
0.00301619
0.00304656
0.00311386
0.00318178
0.00324343
0.00329178
0.00331699
0.00331161
0.00327963
0.00324761
0.00320559
0.00314963
0.00308669
0.00302885
0.00298882
0.00297714
0.00300103
0.00306294
0.00315916
0.00327927
0.00340754
0.00352663
0.00362211
0.00368462
0.00370925
0.00369297
0.00362373
0.00351898
0.0034892
0.0037106
0.004253
0.00464111
0.00341321
0.00224161
0.00232986
0.00639992
)
;
    }
    sWall
    {
        Cmu             0.09;
        kappa           0.41;
        E               9.8;
        type            epsilonWallFunction;
        value           uniform 0.000421788;
    }
    nWall
    {
        Cmu             0.09;
        kappa           0.41;
        E               9.8;
        type            epsilonWallFunction;
        value           nonuniform List<scalar> 6(0.000875306 0.00199015 0.00465089 0.0102584 0.0060385 0.00341321);
    }
    sideWalls
    {
        type            empty;
    }
    glass1
    {
        Cmu             0.09;
        kappa           0.41;
        E               9.8;
        type            epsilonWallFunction;
        value           nonuniform List<scalar> 9(0.00318029 0.00506056 0.00582638 0.00564825 0.00535563 0.00482918 0.00413926 0.00333157 0.00224161);
    }
    glass2
    {
        Cmu             0.09;
        kappa           0.41;
        E               9.8;
        type            epsilonWallFunction;
        value           nonuniform List<scalar> 2(0.0118571 0.0166314);
    }
    sun
    {
        Cmu             0.09;
        kappa           0.41;
        E               9.8;
        type            epsilonWallFunction;
        value           nonuniform List<scalar> 
14
(
0.00318029
0.00485338
0.00463039
0.00386232
0.00312159
0.00252815
0.00207914
0.00172776
0.00144454
0.00121024
0.00101122
0.000837154
0.00067931
0.00052822
)
;
    }
    heatsource1
    {
        Cmu             0.09;
        kappa           0.41;
        E               9.8;
        type            epsilonWallFunction;
        value           nonuniform List<scalar> 3(0.000283355 0.00037006 0.000875306);
    }
    heatsource2
    {
        Cmu             0.09;
        kappa           0.41;
        E               9.8;
        type            epsilonWallFunction;
        value           nonuniform List<scalar> 4(0.000358177 0.000234193 0.000234193 0.000249705);
    }
    Table_master
    {
        Cmu             0.09;
        kappa           0.41;
        E               9.8;
        type            epsilonWallFunction;
        value           nonuniform List<scalar> 9(0.000247368 0.000144389 8.95972e-05 6.00033e-05 4.18789e-05 2.98017e-05 2.15743e-05 1.61716e-05 1.31422e-05);
    }
    Table_slave
    {
        Cmu             0.09;
        kappa           0.41;
        E               9.8;
        type            epsilonWallFunction;
        value           nonuniform List<scalar> 9(0.000327251 0.000247007 0.000186865 0.000136047 9.47475e-05 6.93036e-05 6.07907e-05 6.09431e-05 5.94255e-05);
    }
    inlet
    {
        type            turbulentMixingLengthDissipationRateInlet;
        mixingLength    0.01;
        phi             phi;
        k               k;
        value           uniform 3.01869e-05;
    }
    outlet
    {
        type            zeroGradient;
    }
}


// ************************************************************************* //
