/*--------------------------------*- C++ -*----------------------------------*\
  =========                 |
  \\      /  F ield         | OpenFOAM: The Open Source CFD Toolbox
   \\    /   O peration     | Website:  https://openfoam.org
    \\  /    A nd           | Version:  6
     \\/     M anipulation  |
\*---------------------------------------------------------------------------*/
FoamFile
{
    version     2.0;
    format      ascii;
    class       volScalarField;
    location    "60";
    object      nut;
}
// * * * * * * * * * * * * * * * * * * * * * * * * * * * * * * * * * * * * * //

dimensions      [0 2 -1 0 0 0 0];

internalField   nonuniform List<scalar> 
459
(
0.00207895
0.00239352
0.00235628
0.00221805
0.00206607
0.00192585
0.00180432
0.00169634
0.00159807
0.00150652
0.00141895
0.00133235
0.00124272
0.00114276
0.00103083
0.000733436
0.000939558
0.000959741
0.000905494
0.000855706
0.00080132
0.000740029
0.000675911
0.000611698
0.000547476
0.000484431
0.000426078
0.000375907
0.000335777
0.000306005
0.000287779
0.000297903
0.000389522
0.000579487
0.0024271
0.00744932
0.00660383
0.00588446
0.00536372
0.0049991
0.0046767
0.00437615
0.00407912
0.00376817
0.00342494
0.00303208
0.00257854
0.00206164
0.00152951
0.00100394
0.000871371
0.00102185
0.00335581
0.00252436
0.00242773
0.00241894
0.00227818
0.00180217
0.00160047
0.00139606
0.00118273
0.00100375
0.000865043
0.000757924
0.000674274
0.000618966
0.000591172
0.00062993
0.000741189
0.000667134
0.00254381
0.009201
0.00718917
0.00605569
0.00554814
0.00539339
0.00533051
0.0052447
0.0050828
0.00482326
0.00445861
0.00398952
0.00342648
0.00279355
0.00214418
0.00153719
0.000890186
0.00101795
0.0029939
0.00251709
0.00263937
0.00281266
0.00266028
0.000888198
0.000742437
0.000633226
0.000554049
0.00049155
0.000438954
0.000394221
0.000358126
0.000334127
0.000395893
0.000619569
0.000921585
0.000722066
0.00251761
0.008999
0.00660715
0.00536151
0.00525195
0.00559766
0.00580902
0.00584433
0.0057248
0.00546358
0.00507672
0.00458297
0.00400189
0.00336176
0.00269426
0.00204045
0.00133748
0.000902892
0.00160492
0.0020368
0.002648
0.00319807
0.00348645
0.00326188
0.000974739
0.000887484
0.000808779
0.000727787
0.000645197
0.000581031
0.000555736
0.000556001
0.000551272
0.000680245
0.000876109
0.00132662
0.000821387
0.00247335
0.00763069
0.00580229
0.00527214
0.00585382
0.00632203
0.00643284
0.00640396
0.00625161
0.00597241
0.00558137
0.0051055
0.00455739
0.00397172
0.00337586
0.00281929
0.00233587
0.00230598
0.00285619
0.00358884
0.00422049
0.00460255
0.00468205
0.00443991
0.0036561
0.00292823
0.00228986
0.00192938
0.00192145
0.00222685
0.00263028
0.00291035
0.00292667
0.00240198
0.00189745
0.00188184
0.00135215
0.000927635
0.00101436
0.00135199
0.0023895
0.00617541
0.00497991
0.00535718
0.00632312
0.00678365
0.00686601
0.00681175
0.00666666
0.00643774
0.00613035
0.00575301
0.00529363
0.00482289
0.00438637
0.00406579
0.00393982
0.0043507
0.00497975
0.00550073
0.00583073
0.00592395
0.00577818
0.00540352
0.00476442
0.003937
0.00333026
0.00318735
0.00347325
0.00389882
0.00420179
0.00430569
0.0042127
0.00383262
0.00329368
0.00281302
0.00203384
0.00177658
0.00215391
0.00177777
0.00226982
0.00496206
0.004312
0.00509381
0.00597403
0.00638035
0.00644715
0.00642445
0.00637962
0.0063188
0.00623142
0.00610096
0.00590665
0.00569236
0.00551758
0.00548575
0.00568225
0.00618209
0.00655452
0.00677549
0.00682682
0.00667759
0.00634416
0.00580277
0.00507552
0.0045172
0.00427676
0.0043578
0.00460843
0.00483173
0.00493703
0.00492272
0.00481811
0.00461839
0.00429072
0.00377482
0.00269676
0.00256052
0.00375424
0.00235929
0.00211139
0.00375916
0.00371893
0.0051025
0.00552762
0.0056682
0.00563045
0.00560939
0.00561564
0.00563691
0.0056683
0.00571294
0.00578022
0.00588053
0.00603642
0.00627157
0.00659593
0.00691351
0.00708815
0.00709232
0.0069119
0.00653474
0.00597353
0.00542826
0.00502869
0.00482264
0.00480196
0.00492327
0.0051071
0.00527767
0.00538917
0.00541313
0.00534446
0.00519475
0.00494655
0.00447867
0.00337668
0.00311765
0.00635308
0.0032233
0.00185016
0.00187414
0.00291136
0.00591686
0.00602799
0.00588888
0.00581506
0.00583811
0.00589267
0.00595195
0.00600987
0.00607087
0.00614543
0.00624913
0.00639767
0.00659505
0.00680554
0.00692611
0.00687634
0.00664019
0.00623089
0.00576598
0.00538905
0.00515111
0.00506024
0.00509873
0.00524638
0.00547627
0.00574557
0.00600267
0.00619769
0.00628972
0.00625856
0.00612054
0.00586578
0.0054367
0.00453724
0.00438527
0.00834906
0.00360843
0.00167618
0.00649701
0.00696925
0.00683311
0.00677172
0.00681144
0.0069157
0.00704374
0.00717191
0.00729448
0.00740804
0.00750498
0.00757158
0.00758833
0.00753421
0.00739314
0.00716984
0.00690941
0.00665104
0.00643479
0.00629379
0.00624486
0.0062931
0.00643475
0.00665637
0.00693157
0.0072216
0.00748384
0.00768133
0.00778606
0.00777584
0.00766122
0.00740961
0.00696456
0.00632535
0.00634061
0.00876924
0.00307181
0.00262497
0.0082459
0.00845082
0.00810121
0.0079485
0.00792681
0.00804746
0.00822687
0.00840549
0.00857357
0.00872648
0.00885099
0.00892279
0.00891176
0.00879804
0.00863915
0.00846114
0.00827225
0.00808441
0.00791599
0.00778678
0.00771785
0.00772998
0.00783542
0.00802982
0.00828898
0.00857303
0.00883809
0.00904713
0.00917091
0.00917828
0.00903847
0.00870313
0.00815166
0.00750774
0.00712496
0.00673186
0.00257447
0.00106033
0.000873072
0.00123397
0.0019011
0.00208568
0.00209012
0.00206267
0.00204266
0.00204943
0.00206441
0.00207933
0.00209269
0.00210306
0.00210845
0.00210735
0.00210059
0.00209375
0.0020847
0.00207251
0.00205861
0.00204566
0.00203657
0.00203386
0.00203922
0.00205308
0.00207429
0.0021002
0.00212722
0.00215172
0.002171
0.00218346
0.00218832
0.00218507
0.00217125
0.00215007
0.00214401
0.00218852
0.00229047
0.00235824
0.00212865
)
;

boundaryField
{
    floor
    {
        type            nutkWallFunction;
        Cmu             0.09;
        kappa           0.41;
        E               9.8;
        value           nonuniform List<scalar> 
29
(
0.00012435
8.88204e-05
0.000113633
0.000115966
0.000109524
0.000103568
9.70094e-05
8.95537e-05
8.16745e-05
7.36991e-05
6.56238e-05
5.75921e-05
5.00539e-05
4.34796e-05
3.81491e-05
3.41488e-05
3.16865e-05
3.31136e-05
4.54609e-05
6.98266e-05
6.98266e-05
8.07838e-05
8.75528e-05
9.96143e-05
0.00012435
8.88203e-05
0.000123312
0.000122817
0.000109237
)
;
    }
    ceiling
    {
        type            nutkWallFunction;
        Cmu             0.09;
        kappa           0.41;
        E               9.8;
        value           nonuniform List<scalar> 
43
(
0.000127825
0.000105678
0.000147959
0.00022274
0.000242869
0.000243339
0.000240347
0.000238167
0.000238904
0.000240532
0.000242152
0.000243602
0.000244727
0.000245311
0.00024519
0.000244454
0.000243712
0.000242729
0.000241406
0.000239896
0.000238489
0.000237504
0.000237214
0.000237803
0.000239317
0.000241628
0.000244445
0.000247377
0.000250031
0.000252114
0.000253459
0.000253986
0.00025364
0.000252154
0.000249868
0.000249212
0.000254019
0.000264998
0.000272266
0.000247529
0.000217012
0.00021963
0.000300625
)
;
    }
    sWall
    {
        type            nutkWallFunction;
        Cmu             0.09;
        kappa           0.41;
        E               9.8;
        value           uniform 0.000127821;
    }
    nWall
    {
        type            nutkWallFunction;
        Cmu             0.09;
        kappa           0.41;
        E               9.8;
        value           nonuniform List<scalar> 6(0.000161479 0.000209194 0.000272422 0.000347664 0.000295332 0.000247524);
    }
    sideWalls
    {
        type            empty;
    }
    glass1
    {
        type            nutkWallFunction;
        Cmu             0.09;
        kappa           0.41;
        E               9.8;
        value           nonuniform List<scalar> 9(0.00024189 0.000279339 0.000291764 0.00028898 0.00028427 0.00027532 0.00026249 0.000245395 0.00021691);
    }
    glass2
    {
        type            nutkWallFunction;
        Cmu             0.09;
        kappa           0.41;
        E               9.8;
        value           nonuniform List<scalar> 2(0.000363212 0.000402909);
    }
    sun
    {
        type            nutkWallFunction;
        Cmu             0.09;
        kappa           0.41;
        E               9.8;
        value           nonuniform List<scalar> 
14
(
0.000242029
0.000275915
0.000271934
0.000257082
0.00024064
0.000225354
0.00021201
0.000200072
0.000189135
0.00017888
0.000169006
0.000159176
0.000148926
0.000137396
)
;
    }
    heatsource1
    {
        type            nutkWallFunction;
        Cmu             0.09;
        kappa           0.41;
        E               9.8;
        value           nonuniform List<scalar> 3(0.000112271 0.000122492 0.0001615);
    }
    heatsource2
    {
        type            nutkWallFunction;
        Cmu             0.09;
        kappa           0.41;
        E               9.8;
        value           nonuniform List<scalar> 4(0.0001212 0.000105479 0.000105479 0.000107727);
    }
    Table_master
    {
        type            nutkWallFunction;
        Cmu             0.09;
        kappa           0.41;
        E               9.8;
        value           nonuniform List<scalar> 9(0.000107422 8.98425e-05 7.6416e-05 6.65008e-05 5.85458e-05 5.17518e-05 4.58944e-05 4.11116e-05 3.79066e-05);
    }
    Table_slave
    {
        type            nutkWallFunction;
        Cmu             0.09;
        kappa           0.41;
        E               9.8;
        value           nonuniform List<scalar> 9(0.000117714 0.000107362 9.79099e-05 8.80617e-05 7.78946e-05 6.99215e-05 6.67802e-05 6.68321e-05 6.62416e-05);
    }
    inlet
    {
        type            calculated;
        value           uniform 6.7082e-05;
    }
    outlet
    {
        type            calculated;
        value           nonuniform List<scalar> 2(0.00106033 0.000873072);
    }
}


// ************************************************************************* //
