/*--------------------------------*- C++ -*----------------------------------*\
  =========                 |
  \\      /  F ield         | OpenFOAM: The Open Source CFD Toolbox
   \\    /   O peration     | Website:  https://openfoam.org
    \\  /    A nd           | Version:  6
     \\/     M anipulation  |
\*---------------------------------------------------------------------------*/
FoamFile
{
    version     2.0;
    format      ascii;
    class       volScalarField;
    location    "100";
    object      epsilon;
}
// * * * * * * * * * * * * * * * * * * * * * * * * * * * * * * * * * * * * * //

dimensions      [0 2 -3 0 0 0 0];

internalField   nonuniform List<scalar> 
459
(
0.000538891
0.000718569
0.000781822
0.000909851
0.00104287
0.00118447
0.00134582
0.00148015
0.0015593
0.00156029
0.00147327
0.00130061
0.00105053
0.000722979
0.000357368
6.5219e-05
0.00011522
0.000181043
0.000207343
0.000203643
0.00018828
0.000159666
0.000131849
0.000109284
9.15949e-05
7.77094e-05
6.67144e-05
5.78583e-05
5.05193e-05
4.43547e-05
3.88518e-05
3.34718e-05
2.77945e-05
1.99963e-05
0.0012675
0.00172844
0.000676969
0.000672004
0.000718791
0.000797908
0.000915184
0.00103661
0.00112331
0.00114625
0.00109695
0.000985065
0.000831302
0.000652061
0.00052466
0.000746898
0.000266177
6.56837e-05
0.000168427
0.000199384
0.000198053
0.000182381
0.000164975
0.000163325
0.000134799
0.000107792
8.60665e-05
6.91375e-05
5.6041e-05
4.58111e-05
3.76156e-05
3.12646e-05
2.73362e-05
2.60477e-05
3.24752e-05
2.6547e-05
0.00221197
0.00394953
0.000795645
0.000640318
0.000698505
0.000823167
0.00099824
0.0011664
0.0012729
0.00129791
0.00124378
0.00112586
0.000966358
0.000805214
0.000677855
0.000636591
0.000849395
0.000378159
0.000332408
0.000292707
0.000253363
0.000216801
0.000198056
0.000419335
0.000287976
0.00020325
0.000147714
0.000110189
8.39644e-05
6.50678e-05
5.12558e-05
4.18485e-05
3.0652e-05
2.53768e-05
3.79611e-05
3.08101e-05
0.00346427
0.00797908
0.00119576
0.000657246
0.000713752
0.000907265
0.00118155
0.00139194
0.00149111
0.00149508
0.00141687
0.00127077
0.00109464
0.000920036
0.000779268
0.000704074
0.000716587
0.00134733
0.000818973
0.000545556
0.000400437
0.000312835
0.000254208
0.000228832
0.000562648
0.000408132
0.000312395
0.000247459
0.000200672
0.000164088
0.000133426
0.000106264
8.07322e-05
4.62441e-05
2.95205e-05
4.46642e-05
3.47349e-05
0.00516155
0.0141246
0.00229863
0.000812421
0.000821746
0.00118386
0.0015807
0.00177451
0.00181837
0.00177109
0.00164839
0.00146012
0.00123059
0.000996117
0.000794164
0.000649357
0.000575556
0.000560474
0.000497586
0.000431171
0.000370526
0.000314355
0.000262722
0.000220245
0.00020799
0.000186674
0.000166708
0.000147786
0.000129739
0.000111987
9.44064e-05
7.72274e-05
6.05629e-05
4.29115e-05
2.99737e-05
3.88538e-05
3.15561e-05
5.43934e-05
0.000100676
0.000137929
0.00751109
0.0210466
0.00516205
0.00162263
0.00144734
0.00211933
0.00236813
0.00238572
0.00230924
0.00217807
0.00198383
0.00171998
0.00140733
0.00109091
0.000820411
0.000626772
0.000518093
0.000474349
0.000448379
0.000414211
0.00036747
0.000313875
0.000260039
0.000212549
0.000179908
0.000159517
0.000144587
0.000130057
0.000114678
9.85012e-05
8.19505e-05
6.57871e-05
5.09587e-05
3.85556e-05
3.07146e-05
3.39729e-05
3.13923e-05
4.08252e-05
0.000183429
0.000151115
0.0101453
0.0252274
0.0106424
0.00518618
0.00443731
0.00408562
0.00367344
0.0033086
0.00301383
0.0027453
0.00243818
0.00206006
0.00163122
0.0012099
0.0008647
0.000632252
0.000510842
0.000463181
0.000435845
0.000398246
0.000346957
0.000290356
0.000236774
0.00019269
0.000163246
0.000146784
0.000135551
0.000124413
0.000111963
9.83433e-05
8.40225e-05
6.95215e-05
5.57523e-05
4.4599e-05
3.96493e-05
4.27663e-05
4.94232e-05
7.68886e-05
0.000188416
0.000182397
0.0106943
0.0264664
0.0154088
0.0109434
0.00830306
0.00640624
0.00516206
0.00438987
0.00389154
0.0034817
0.00301984
0.00246545
0.00186188
0.00129322
0.000864957
0.000607291
0.000485875
0.000434659
0.000396125
0.000348901
0.000295278
0.0002438
0.000200707
0.000169276
0.000149997
0.000139633
0.000133342
0.000128443
0.000124011
0.00011972
0.000115637
0.000111852
0.000108508
0.000107372
0.000116651
0.000169466
0.000317979
0.000706328
0.00254907
0.00078133
0.00987718
0.0162498
0.0128737
0.00994232
0.0078099
0.00650519
0.00575671
0.00531004
0.00492813
0.00441185
0.00365875
0.00276884
0.00188911
0.00112561
0.000697221
0.000503431
0.000414502
0.000366004
0.000325408
0.000282709
0.000240362
0.000203238
0.000174248
0.000154079
0.000141638
0.00013466
0.000131069
0.000130129
0.000132244
0.000138609
0.000151208
0.000173773
0.000212544
0.000278071
0.000386147
0.000554189
0.000776289
0.00099885
0.00114706
0.000711879
0.00293111
0.00462836
0.00640959
0.0069688
0.00701672
0.00662335
0.00576428
0.0044797
0.00285894
0.00175803
0.00107261
0.000678656
0.000480106
0.000382342
0.000329652
0.000293757
0.0002625
0.000233432
0.000207561
0.000186043
0.000168982
0.000155599
0.000144902
0.000136303
0.000130007
0.000126884
0.000128095
0.000135056
0.000149715
0.000174993
0.000215444
0.000277456
0.000367353
0.000484285
0.00060729
0.000691334
0.000698607
0.000488816
0.00239724
0.00733652
0.00787983
0.00661148
0.0055299
0.00440208
0.00326084
0.00226773
0.00147895
0.000960592
0.000655914
0.000492094
0.000410305
0.000369982
0.000349053
0.000336251
0.000326169
0.000316558
0.000306343
0.000294777
0.00028128
0.000265647
0.000248307
0.00023035
0.000213367
0.000199206
0.000189652
0.000186283
0.000190852
0.000205649
0.000233867
0.000279351
0.000344157
0.000422864
0.000498269
0.000589523
0.000694117
0.000534404
0.00191904
0.00230711
0.00260941
0.00345897
0.00317371
0.00292411
0.00266077
0.00226787
0.00181174
0.00138094
0.00102695
0.000771775
0.000607582
0.000505157
0.000438282
0.00039032
0.000352076
0.000319262
0.000290546
0.000265795
0.000244845
0.000227221
0.00021241
0.000200136
0.000190448
0.000183645
0.000180116
0.000180187
0.000184084
0.000192044
0.000204454
0.000222059
0.000246144
0.000278569
0.00032117
0.000374865
0.000415802
0.000395539
0.000337212
0.000290782
)
;

boundaryField
{
    floor
    {
        Cmu             0.09;
        kappa           0.41;
        E               9.8;
        type            epsilonWallFunction;
        value           nonuniform List<scalar> 
29
(
0.000357368
6.5219e-05
0.00011522
0.000181043
0.000207343
0.000203643
0.00018828
0.000159666
0.000131849
0.000109284
9.15949e-05
7.77094e-05
6.67144e-05
5.78583e-05
5.05193e-05
4.43547e-05
3.88518e-05
3.34718e-05
2.77945e-05
1.99963e-05
1.99963e-05
2.6547e-05
3.08101e-05
3.47349e-05
0.000357368
6.5219e-05
6.56837e-05
0.000378159
0.00134733
)
;
    }
    ceiling
    {
        Cmu             0.09;
        kappa           0.41;
        E               9.8;
        type            epsilonWallFunction;
        value           nonuniform List<scalar> 
43
(
0.00191904
0.00230711
0.00260941
0.00345897
0.00317371
0.00292411
0.00266077
0.00226787
0.00181174
0.00138094
0.00102695
0.000771775
0.000607582
0.000505157
0.000438282
0.00039032
0.000352076
0.000319262
0.000290546
0.000265795
0.000244845
0.000227221
0.00021241
0.000200136
0.000190448
0.000183645
0.000180116
0.000180187
0.000184084
0.000192044
0.000204454
0.000222059
0.000246144
0.000278569
0.00032117
0.000374865
0.000415802
0.000395539
0.000337212
0.000290782
0.00987718
0.0162498
0.00239724
)
;
    }
    sWall
    {
        Cmu             0.09;
        kappa           0.41;
        E               9.8;
        type            epsilonWallFunction;
        value           uniform 0.00191904;
    }
    nWall
    {
        Cmu             0.09;
        kappa           0.41;
        E               9.8;
        type            epsilonWallFunction;
        value           nonuniform List<scalar> 6(0.000137929 0.000151115 0.000182397 0.000488816 0.000534404 0.000290782);
    }
    sideWalls
    {
        type            empty;
    }
    glass1
    {
        Cmu             0.09;
        kappa           0.41;
        E               9.8;
        type            epsilonWallFunction;
        value           nonuniform List<scalar> 9(0.000538891 0.0012675 0.00221197 0.00346427 0.00516155 0.00751109 0.0101453 0.0106943 0.00987718);
    }
    glass2
    {
        Cmu             0.09;
        kappa           0.41;
        E               9.8;
        type            epsilonWallFunction;
        value           nonuniform List<scalar> 2(0.00078133 0.000711879);
    }
    sun
    {
        Cmu             0.09;
        kappa           0.41;
        E               9.8;
        type            epsilonWallFunction;
        value           nonuniform List<scalar> 
14
(
0.000538891
0.000718569
0.000781822
0.000909851
0.00104287
0.00118447
0.00134582
0.00148015
0.0015593
0.00156029
0.00147327
0.00130061
0.00105053
0.000722979
)
;
    }
    heatsource1
    {
        Cmu             0.09;
        kappa           0.41;
        E               9.8;
        type            epsilonWallFunction;
        value           nonuniform List<scalar> 3(5.43934e-05 0.000100676 0.000137929);
    }
    heatsource2
    {
        Cmu             0.09;
        kappa           0.41;
        E               9.8;
        type            epsilonWallFunction;
        value           nonuniform List<scalar> 4(0.000746898 0.000266177 0.000266177 0.000849395);
    }
    Table_master
    {
        Cmu             0.09;
        kappa           0.41;
        E               9.8;
        type            epsilonWallFunction;
        value           nonuniform List<scalar> 9(0.000419335 0.000287976 0.00020325 0.000147714 0.000110189 8.39644e-05 6.50678e-05 5.12558e-05 4.18485e-05);
    }
    Table_slave
    {
        Cmu             0.09;
        kappa           0.41;
        E               9.8;
        type            epsilonWallFunction;
        value           nonuniform List<scalar> 9(0.000562648 0.000408132 0.000312395 0.000247459 0.000200672 0.000164088 0.000133426 0.000106264 8.07322e-05);
    }
    inlet
    {
        type            turbulentMixingLengthDissipationRateInlet;
        mixingLength    0.01;
        phi             phi;
        k               k;
        value           uniform 0.000101881;
    }
    outlet
    {
        type            zeroGradient;
    }
}


// ************************************************************************* //
