/*--------------------------------*- C++ -*----------------------------------*\
  =========                 |
  \\      /  F ield         | OpenFOAM: The Open Source CFD Toolbox
   \\    /   O peration     | Website:  https://openfoam.org
    \\  /    A nd           | Version:  6
     \\/     M anipulation  |
\*---------------------------------------------------------------------------*/
FoamFile
{
    version     2.0;
    format      ascii;
    class       volScalarField;
    location    "1200";
    object      alphat;
}
// * * * * * * * * * * * * * * * * * * * * * * * * * * * * * * * * * * * * * //

dimensions      [1 -1 -1 0 0 0 0];

internalField   nonuniform List<scalar> 
459
(
0.00151094
0.00167699
0.00173712
0.00183762
0.001942
0.0020482
0.00212753
0.00216674
0.00215595
0.0020418
0.00189083
0.00173388
0.00155219
0.00139185
0.00121914
0.00068763
0.000805709
0.000946923
0.00104137
0.00106328
0.00104188
0.000978049
0.00090905
0.000847024
0.000793168
0.000746517
0.000705977
0.000670385
0.00063881
0.000610142
0.000582726
0.00055418
0.000523279
0.000473718
0.00196727
0.00522692
0.00520743
0.00603483
0.00679687
0.00734824
0.00781975
0.00818918
0.008452
0.00849355
0.00814918
0.0075671
0.00676525
0.00525934
0.00342518
0.00140516
0.00117022
0.000668469
0.00167619
0.0028088
0.00372461
0.00427548
0.00419515
0.00288275
0.00236836
0.00204064
0.00180697
0.00163191
0.00149636
0.00139004
0.00129517
0.00119016
0.00108558
0.000989274
0.000988659
0.000527821
0.00234177
0.00716169
0.00650251
0.0073294
0.0077334
0.00802298
0.00830855
0.0086671
0.00912211
0.00947839
0.00949193
0.00922943
0.00870425
0.00764193
0.00599102
0.00376548
0.0013379
0.000752727
0.00171059
0.00297618
0.0043454
0.00530509
0.00505356
0.00131831
0.00114595
0.00100601
0.000893754
0.000803432
0.000730217
0.000670457
0.000622775
0.000588601
0.000672744
0.00080659
0.00110131
0.000560017
0.00269638
0.00891629
0.00693288
0.00768177
0.00775922
0.007786
0.00787289
0.00820666
0.00878319
0.00927149
0.00950697
0.00946468
0.00919097
0.00859357
0.00750316
0.00577131
0.00307365
0.00146744
0.00172593
0.00268495
0.00421775
0.00578535
0.00682653
0.00636088
0.00149673
0.00135592
0.00124556
0.00115499
0.00107403
0.000996948
0.00092009
0.000840365
0.000751918
0.00069146
0.00075996
0.00120736
0.000584096
0.00305449
0.0110644
0.00797256
0.00823852
0.00805121
0.00775156
0.0076301
0.00795685
0.008547
0.00910551
0.00940791
0.00941944
0.00923182
0.00888679
0.00830381
0.00733664
0.00589207
0.00531032
0.00597541
0.00701544
0.00812922
0.00899554
0.00941779
0.00914127
0.00741195
0.00642871
0.00573896
0.00506188
0.00438262
0.00369659
0.00300538
0.00232181
0.00167233
0.00115181
0.000937162
0.00116498
0.000696293
0.000644767
0.000774748
0.000872996
0.00342696
0.0134005
0.0105376
0.00958431
0.00866407
0.00788775
0.00761805
0.00793305
0.0085804
0.0091909
0.0095048
0.00950436
0.0093613
0.00925371
0.00918859
0.00902082
0.00877082
0.00909686
0.0100472
0.0108495
0.0113731
0.0115518
0.01138
0.0108419
0.00986871
0.00887433
0.00787059
0.00688957
0.00592798
0.00497855
0.00403792
0.00311998
0.00227908
0.00160497
0.00125863
0.00121937
0.000918817
0.000811465
0.00116999
0.000911366
0.00372613
0.0148071
0.0134511
0.0110083
0.0090484
0.00787293
0.0076063
0.00806087
0.0088521
0.00953603
0.00985243
0.00987226
0.00995116
0.0103544
0.0108014
0.0111433
0.0115034
0.0121402
0.012837
0.0131603
0.0131237
0.0127707
0.0121572
0.011331
0.0103052
0.00922647
0.0081655
0.0071527
0.00619003
0.00527213
0.00438465
0.00352411
0.00276996
0.00214627
0.00177427
0.00158067
0.00134939
0.00128267
0.00128616
0.00102873
0.00376414
0.0121409
0.0112071
0.00919283
0.00770471
0.00714019
0.00745238
0.00836227
0.00940846
0.0101382
0.0104263
0.0106013
0.0114322
0.0120842
0.0125134
0.0128702
0.0132561
0.0136752
0.0139218
0.0137933
0.0133099
0.0125528
0.0115979
0.0105146
0.00937445
0.0082627
0.00721594
0.00625277
0.00538794
0.00463489
0.00399873
0.00347406
0.00305169
0.00267486
0.00246386
0.00244014
0.00256832
0.00293751
0.00380398
0.00158388
0.00364795
0.00425212
0.00445936
0.00452272
0.00500623
0.00614056
0.00770158
0.00929024
0.0104201
0.0108432
0.0111698
0.0117951
0.0124845
0.012881
0.0131026
0.0132972
0.0134636
0.013503
0.0132839
0.0127415
0.0119144
0.0108853
0.00973817
0.00854478
0.00736344
0.00622841
0.00515564
0.0041833
0.00338191
0.00280994
0.00246192
0.00228023
0.00220305
0.00218955
0.00221527
0.00225775
0.00227247
0.00221644
0.0020954
0.00149359
0.00122629
0.00354901
0.00740972
0.00997281
0.0113329
0.011875
0.0116925
0.0112559
0.0113021
0.0116704
0.0118889
0.0119523
0.0119814
0.0119792
0.0118632
0.0115338
0.0109341
0.0100816
0.00905765
0.00796562
0.00689447
0.0059018
0.0050132
0.00423458
0.00357386
0.00304591
0.00265796
0.00239917
0.0022471
0.00217935
0.00217701
0.0022213
0.00228823
0.00234395
0.00234858
0.00228908
0.0020979
0.00128628
0.00252935
0.00949554
0.0112501
0.0113119
0.0107461
0.010004
0.00939237
0.00903726
0.00886264
0.00872222
0.00860021
0.00852834
0.00847983
0.0083903
0.00818892
0.00782523
0.0072969
0.00665554
0.0059823
0.00534993
0.00479904
0.00433889
0.00396109
0.00365182
0.00339718
0.00318332
0.00299694
0.00282912
0.00268012
0.00255982
0.00248119
0.00244826
0.00244662
0.0024528
0.00239139
0.00241568
0.00243216
0.00132917
0.00213015
0.00234896
0.00247683
0.00264051
0.00235472
0.00215713
0.00200454
0.0018539
0.00171891
0.00161627
0.00154871
0.00150718
0.00148152
0.00146324
0.00144546
0.00142288
0.00139208
0.00135236
0.00130616
0.00125786
0.00121182
0.00117073
0.00113539
0.0011052
0.00107911
0.00105624
0.00103624
0.00101945
0.00100692
0.00100042
0.00100217
0.00101442
0.00103912
0.00107714
0.00112632
0.00118812
0.00119605
0.00113606
0.00108154
0.00107652
)
;

boundaryField
{
    floor
    {
        type            compressible::alphatWallFunction;
        Prt             0.85;
        value           nonuniform List<scalar> 
29
(
0.000172777
9.73871e-05
0.000114602
0.000134802
0.000148115
0.000151185
0.000148192
0.000139213
0.000129429
0.00012056
0.000112797
0.000106021
0.000100092
9.48529e-05
9.01767e-05
8.59067e-05
8.18e-05
7.74988e-05
7.28114e-05
6.52202e-05
6.52194e-05
7.35017e-05
7.83787e-05
8.20037e-05
0.000172775
9.7386e-05
9.45595e-05
0.000106896
0.000206577
)
;
    }
    ceiling
    {
        type            compressible::alphatWallFunction;
        Prt             0.85;
        value           nonuniform List<scalar> 
43
(
0.00029423
0.000322222
0.0003385
0.000359388
0.000323064
0.000297668
0.00027788
0.000258183
0.000240384
0.000226751
0.000217727
0.000212159
0.000208711
0.000206251
0.000203856
0.000200806
0.000196635
0.000191241
0.000184944
0.000178333
0.000172002
0.000166331
0.000161432
0.000157234
0.000153595
0.000150396
0.000147591
0.00014523
0.000143465
0.000142546
0.000142787
0.000144505
0.000147967
0.000153282
0.000160125
0.000168677
0.000169773
0.000161476
0.000153893
0.00015321
0.000484664
0.000557946
0.000344915
)
;
    }
    sWall
    {
        type            compressible::alphatWallFunction;
        Prt             0.85;
        value           uniform 0.00029318;
    }
    nWall
    {
        type            compressible::alphatWallFunction;
        Prt             0.85;
        value           nonuniform List<scalar> 6(0.000124104 0.000129571 0.000146142 0.00018187 0.000187728 0.000152906);
    }
    sideWalls
    {
        type            empty;
    }
    glass1
    {
        type            compressible::alphatWallFunction;
        Prt             0.85;
        value           nonuniform List<scalar> 9(0.000207295 0.000266904 0.000314818 0.000359521 0.000404101 0.000449938 0.000486439 0.000491201 0.000477347);
    }
    glass2
    {
        type            compressible::alphatWallFunction;
        Prt             0.85;
        value           nonuniform List<scalar> 2(0.000220814 0.000208879);
    }
    sun
    {
        type            compressible::alphatWallFunction;
        Prt             0.85;
        value           nonuniform List<scalar> 
14
(
0.00021245
0.000234614
0.000242587
0.000255844
0.000269529
0.00028337
0.000293658
0.000298726
0.000297332
0.000282521
0.000262822
0.000242155
0.000217969
0.000196366
)
;
    }
    heatsource1
    {
        type            compressible::alphatWallFunction;
        Prt             0.85;
        value           nonuniform List<scalar> 3(9.11547e-05 0.000110225 0.000124383);
    }
    heatsource2
    {
        type            compressible::alphatWallFunction;
        Prt             0.85;
        value           nonuniform List<scalar> 4(0.000198329 0.000166183 0.000166182 0.000189188);
    }
    Table_master
    {
        type            compressible::alphatWallFunction;
        Prt             0.85;
        value           nonuniform List<scalar> 9(0.000186528 0.000162825 0.000143278 0.000127369 0.000114397 0.000103755 9.49725e-05 8.78971e-05 8.27856e-05);
    }
    Table_slave
    {
        type            compressible::alphatWallFunction;
        Prt             0.85;
        value           nonuniform List<scalar> 9(0.000210702 0.000191656 0.000176573 0.000164081 0.000152819 0.000142004 0.000131123 0.000119723 0.000106923);
    }
    inlet
    {
        type            fixedValue;
        value           uniform 1.94e-05;
    }
    outlet
    {
        type            zeroGradient;
    }
}


// ************************************************************************* //
