/*--------------------------------*- C++ -*----------------------------------*\
  =========                 |
  \\      /  F ield         | OpenFOAM: The Open Source CFD Toolbox
   \\    /   O peration     | Website:  https://openfoam.org
    \\  /    A nd           | Version:  6
     \\/     M anipulation  |
\*---------------------------------------------------------------------------*/
FoamFile
{
    version     2.0;
    format      ascii;
    class       volScalarField;
    location    "500";
    object      epsilon;
}
// * * * * * * * * * * * * * * * * * * * * * * * * * * * * * * * * * * * * * //

dimensions      [0 2 -3 0 0 0 0];

internalField   nonuniform List<scalar> 
459
(
0.000118397
0.000126274
8.21489e-05
8.95426e-05
0.000100305
0.00011221
0.000125225
0.000139669
0.000156223
0.000172373
0.000186552
0.000196526
0.000199502
0.000192414
0.000170858
7.59051e-06
7.42697e-06
5.89164e-06
5.76598e-06
5.84899e-06
5.92493e-06
6.12807e-06
6.66033e-06
7.77591e-06
9.66937e-06
1.26835e-05
1.7579e-05
2.46292e-05
3.41026e-05
4.78111e-05
6.32725e-05
6.79188e-05
5.59774e-05
3.46927e-05
0.00070504
0.00166415
0.000146498
6.91075e-05
7.01842e-05
7.68994e-05
8.50117e-05
9.45369e-05
0.000105976
0.000118693
0.00013223
0.000145572
0.000156347
0.0001604
0.000158376
0.000198275
6.94353e-05
2.02694e-05
3.42779e-05
8.52203e-06
6.3415e-06
5.94589e-06
5.22373e-06
4.40675e-06
5.04804e-06
6.86251e-06
9.79504e-06
1.41146e-05
2.07161e-05
3.0712e-05
4.57445e-05
6.6434e-05
7.5698e-05
7.81157e-05
8.39591e-05
6.594e-05
0.0019311
0.00583151
0.000470634
9.7107e-05
7.81426e-05
8.37297e-05
9.3063e-05
0.000104238
0.000117179
0.000131671
0.000146773
0.000161265
0.000172869
0.000177997
0.000174721
0.000171993
0.00019982
5.55319e-05
9.69028e-05
3.40912e-05
2.90753e-05
3.10205e-05
3.20187e-05
5.00867e-06
6.21911e-06
1.03519e-05
1.68758e-05
2.60727e-05
3.95239e-05
6.14932e-05
0.000100551
0.000172087
0.000129731
0.000141448
0.000172021
0.000241379
0.00392553
0.0128363
0.00130202
0.000171836
9.82497e-05
9.9802e-05
0.00011095
0.000124968
0.00014079
0.000158273
0.000175682
0.000191625
0.000203864
0.00020905
0.000205053
0.000197227
0.000204961
0.000258496
0.000138069
8.93151e-05
8.13754e-05
9.14017e-05
0.000107265
0.000132948
0.000179651
0.000182493
0.000182908
0.000181518
0.000180785
0.0001848
0.000200201
0.000238268
0.00032056
0.000201582
0.000237006
0.000296509
0.000501515
0.00665299
0.021546
0.00301618
0.000380453
0.000148793
0.000131649
0.000142181
0.000159785
0.000180714
0.000203926
0.000226625
0.000248195
0.00026696
0.00027844
0.000276022
0.00025536
0.00022069
0.000179179
0.000123609
9.82347e-05
9.59508e-05
0.000102522
0.000112239
0.000122566
0.000130696
0.000135145
0.00013891
0.000143171
0.000149648
0.000160906
0.000180123
0.000210095
0.000251014
0.000296025
0.000364125
0.000445209
0.000524328
0.000761118
0.000484024
0.000330832
0.0100854
0.0287991
0.00612766
0.00114153
0.000373604
0.000242428
0.000225081
0.000234675
0.000254789
0.000278097
0.000300102
0.000323647
0.000350143
0.000375994
0.00039208
0.000386464
0.000350819
0.000289222
0.00022026
0.000176273
0.000159234
0.000159037
0.000166299
0.000174798
0.00018203
0.0001874
0.000191787
0.000195863
0.000200889
0.000209487
0.000226059
0.000256444
0.000306521
0.000380441
0.000480576
0.000599447
0.000706672
0.000786566
0.000602687
0.000416825
0.0138358
0.03133
0.0116268
0.00413448
0.00167328
0.000849203
0.000588265
0.000490918
0.000455361
0.000434591
0.00041945
0.000416085
0.000429029
0.000456004
0.000486824
0.000504698
0.000492426
0.000445008
0.000376116
0.000311979
0.000273162
0.00025689
0.000253522
0.000256621
0.000262698
0.000269806
0.000277312
0.000284727
0.00029193
0.000300092
0.000313112
0.000338936
0.000388676
0.00047242
0.000594034
0.00074396
0.000889751
0.000984369
0.000960513
0.000440512
0.014174
0.034251
0.0204192
0.0139732
0.00780392
0.00411705
0.00234655
0.00150616
0.00106513
0.000825703
0.000671705
0.000574702
0.000525117
0.000516123
0.000537177
0.000569399
0.000583461
0.000564371
0.000515955
0.000458472
0.000410813
0.000379307
0.000362088
0.000355711
0.000356607
0.000362392
0.000371699
0.000383402
0.000396552
0.00041102
0.000428951
0.000457184
0.000508916
0.000603774
0.000757538
0.000963055
0.00120744
0.00149891
0.0018457
0.00127422
0.0124231
0.0193962
0.0485411
0.03585
0.0204141
0.0112248
0.00632635
0.00375472
0.00236996
0.00157504
0.00111089
0.000838574
0.000682811
0.000604607
0.000581417
0.000593276
0.000614863
0.000623671
0.000609629
0.000578924
0.000544075
0.000513615
0.000490792
0.000476066
0.000468544
0.000467153
0.000470941
0.000478875
0.000489764
0.000502585
0.000517423
0.000536549
0.000565741
0.000616105
0.000698253
0.000822095
0.000989035
0.00118292
0.00288615
0.00145288
0.144221
0.135749
0.0303361
0.0130724
0.00701664
0.0041911
0.00270734
0.00186882
0.00136724
0.00105796
0.000866727
0.000752202
0.00069142
0.000670472
0.000676648
0.000694873
0.000710449
0.000715171
0.000708907
0.0006955
0.000679056
0.00066269
0.000648373
0.000637236
0.000629827
0.00062613
0.000625536
0.000626799
0.000628318
0.000628448
0.000626308
0.000621846
0.000613733
0.000604771
0.00059428
0.000589462
0.000797864
0.00104979
0.0986921
0.0736103
0.0254518
0.0117003
0.00651769
0.00410846
0.00284057
0.00211951
0.00169107
0.00143165
0.00127727
0.00119184
0.00115269
0.00114464
0.00115507
0.00117151
0.00118325
0.00118455
0.00117485
0.00115651
0.00113268
0.00110623
0.00107928
0.00105316
0.00102829
0.00100423
0.00097991
0.000953542
0.000923405
0.000888313
0.000847246
0.000800786
0.000751713
0.000701907
0.000645168
0.000559206
0.000689112
0.00086201
0.00191968
0.00649281
0.0372914
0.0278108
0.0161019
0.00963642
0.00618393
0.00422927
0.00304706
0.00229256
0.00179248
0.00145512
0.00122474
0.00106923
0.00096859
0.000908941
0.000880225
0.00087374
0.000880747
0.000892849
0.000903521
0.000909039
0.000908237
0.000901692
0.000890911
0.000877721
0.000863994
0.000851132
0.000839367
0.000828679
0.000817585
0.000803119
0.000783113
0.000753987
0.000712156
0.000654068
0.000574765
0.000468526
0.000408426
0.000615613
)
;

boundaryField
{
    floor
    {
        Cmu             0.09;
        kappa           0.41;
        E               9.8;
        type            epsilonWallFunction;
        value           nonuniform List<scalar> 
29
(
0.000170858
7.59051e-06
7.42697e-06
5.89164e-06
5.76598e-06
5.84899e-06
5.92493e-06
6.12807e-06
6.66033e-06
7.77591e-06
9.66937e-06
1.26835e-05
1.7579e-05
2.46292e-05
3.41026e-05
4.78111e-05
6.32725e-05
6.79188e-05
5.59774e-05
3.46927e-05
3.46927e-05
6.594e-05
0.000241379
0.000501515
0.000170858
7.59051e-06
2.02694e-05
5.55319e-05
0.000258496
)
;
    }
    ceiling
    {
        Cmu             0.09;
        kappa           0.41;
        E               9.8;
        type            epsilonWallFunction;
        value           nonuniform List<scalar> 
43
(
0.00191968
0.00649281
0.0372914
0.0278108
0.0161019
0.00963642
0.00618393
0.00422927
0.00304706
0.00229256
0.00179248
0.00145512
0.00122474
0.00106923
0.00096859
0.000908941
0.000880225
0.00087374
0.000880747
0.000892849
0.000903521
0.000909039
0.000908237
0.000901692
0.000890911
0.000877721
0.000863994
0.000851132
0.000839367
0.000828679
0.000817585
0.000803119
0.000783113
0.000753987
0.000712156
0.000654068
0.000574765
0.000468526
0.000408426
0.000615613
0.0124231
0.0193962
0.0986921
)
;
    }
    sWall
    {
        Cmu             0.09;
        kappa           0.41;
        E               9.8;
        type            epsilonWallFunction;
        value           uniform 0.00191968;
    }
    nWall
    {
        Cmu             0.09;
        kappa           0.41;
        E               9.8;
        type            epsilonWallFunction;
        value           nonuniform List<scalar> 6(0.000330832 0.000416825 0.000440512 0.00104979 0.00086201 0.000615613);
    }
    sideWalls
    {
        type            empty;
    }
    glass1
    {
        Cmu             0.09;
        kappa           0.41;
        E               9.8;
        type            epsilonWallFunction;
        value           nonuniform List<scalar> 9(0.000118397 0.00070504 0.0019311 0.00392553 0.00665299 0.0100854 0.0138358 0.014174 0.0124231);
    }
    glass2
    {
        Cmu             0.09;
        kappa           0.41;
        E               9.8;
        type            epsilonWallFunction;
        value           nonuniform List<scalar> 2(0.00127422 0.00145288);
    }
    sun
    {
        Cmu             0.09;
        kappa           0.41;
        E               9.8;
        type            epsilonWallFunction;
        value           nonuniform List<scalar> 
14
(
0.000118397
0.000126274
8.21489e-05
8.95426e-05
0.000100305
0.00011221
0.000125225
0.000139669
0.000156223
0.000172373
0.000186552
0.000196526
0.000199502
0.000192414
)
;
    }
    heatsource1
    {
        Cmu             0.09;
        kappa           0.41;
        E               9.8;
        type            epsilonWallFunction;
        value           nonuniform List<scalar> 3(0.000761118 0.000484024 0.000330832);
    }
    heatsource2
    {
        Cmu             0.09;
        kappa           0.41;
        E               9.8;
        type            epsilonWallFunction;
        value           nonuniform List<scalar> 4(0.000198275 6.94353e-05 6.94353e-05 0.00019982);
    }
    Table_master
    {
        Cmu             0.09;
        kappa           0.41;
        E               9.8;
        type            epsilonWallFunction;
        value           nonuniform List<scalar> 9(5.00867e-06 6.21911e-06 1.03519e-05 1.68758e-05 2.60727e-05 3.95239e-05 6.14932e-05 0.000100551 0.000172087);
    }
    Table_slave
    {
        Cmu             0.09;
        kappa           0.41;
        E               9.8;
        type            epsilonWallFunction;
        value           nonuniform List<scalar> 9(0.000179651 0.000182493 0.000182908 0.000181518 0.000180785 0.0001848 0.000200201 0.000238268 0.00032056);
    }
    inlet
    {
        type            turbulentMixingLengthDissipationRateInlet;
        mixingLength    0.01;
        phi             phi;
        k               k;
        value           uniform 0.144221;
    }
    outlet
    {
        type            zeroGradient;
    }
}


// ************************************************************************* //
