// -*- C++ -*-
// File generated by PyFoam - sorry for the ugliness

FoamFile
{
 version 2.0;
 format ascii;
 class volScalarField;
 location "710";
 object T;
}

dimensions [ 0 0 0 1 0 0 0 ];

internalField nonuniform List<scalar> 459
(
  303.472
  303.337
  303.334
  303.335
  303.336
  303.336
  303.336
  303.336
  303.334
  303.33
  303.325
  303.32
  303.317
  303.313
  303.294
  303.26
  303.34
  303.365
  303.376
  303.382
  303.385
  303.385
  303.383
  303.381
  303.378
  303.375
  303.373
  303.37
  303.367
  303.363
  303.359
  303.354
  303.342
  303.279
  303.569
  303.369
  303.362
  303.367
  303.371
  303.373
  303.374
  303.372
  303.366
  303.355
  303.341
  303.331
  303.327
  303.328
  303.331
  303.34
  303.343
  303.344
  303.385
  303.398
  303.408
  303.417
  303.423
  303.424
  303.424
  303.424
  303.424
  303.423
  303.422
  303.42
  303.418
  303.414
  303.407
  303.394
  303.374
  303.355
  303.666
  303.397
  303.384
  303.393
  303.402
  303.408
  303.412
  303.411
  303.4
  303.378
  303.353
  303.332
  303.325
  303.329
  303.337
  303.344
  303.346
  303.376
  303.392
  303.409
  303.424
  303.436
  303.445
  303.445
  303.444
  303.444
  303.444
  303.444
  303.443
  303.443
  303.442
  303.439
  303.434
  303.421
  303.4
  303.381
  303.764
  303.428
  303.403
  303.416
  303.433
  303.449
  303.459
  303.461
  303.445
  303.408
  303.365
  303.331
  303.319
  303.325
  303.338
  303.349
  303.355
  303.363
  303.381
  303.402
  303.423
  303.442
  303.458
  303.47
  303.481
  303.49
  303.498
  303.505
  303.511
  303.516
  303.519
  303.522
  303.523
  303.498
  303.468
  303.434
  303.406
  303.86
  303.464
  303.421
  303.434
  303.458
  303.484
  303.507
  303.515
  303.491
  303.437
  303.375
  303.328
  303.312
  303.32
  303.34
  303.359
  303.374
  303.391
  303.41
  303.431
  303.453
  303.472
  303.488
  303.501
  303.513
  303.522
  303.53
  303.536
  303.54
  303.543
  303.545
  303.544
  303.541
  303.528
  303.504
  303.47
  303.435
  303.435
  303.437
  303.468
  303.948
  303.511
  303.445
  303.448
  303.471
  303.503
  303.538
  303.557
  303.523
  303.452
  303.376
  303.322
  303.303
  303.316
  303.344
  303.373
  303.398
  303.421
  303.443
  303.466
  303.487
  303.505
  303.52
  303.531
  303.541
  303.548
  303.553
  303.557
  303.559
  303.561
  303.561
  303.558
  303.554
  303.545
  303.528
  303.503
  303.473
  303.46
  303.454
  303.475
  304.024
  303.586
  303.507
  303.486
  303.496
  303.521
  303.562
  303.574
  303.53
  303.447
  303.361
  303.304
  303.29
  303.313
  303.354
  303.396
  303.43
  303.457
  303.482
  303.503
  303.521
  303.536
  303.548
  303.556
  303.563
  303.567
  303.569
  303.571
  303.571
  303.571
  303.569
  303.566
  303.562
  303.554
  303.541
  303.524
  303.5
  303.483
  303.471
  303.483
  304.14
  303.795
  303.697
  303.632
  303.602
  303.603
  303.623
  303.593
  303.51
  303.403
  303.313
  303.267
  303.273
  303.317
  303.375
  303.429
  303.469
  303.498
  303.52
  303.537
  303.55
  303.56
  303.567
  303.572
  303.575
  303.577
  303.577
  303.577
  303.576
  303.574
  303.571
  303.568
  303.564
  303.557
  303.548
  303.536
  303.52
  303.505
  303.496
  303.563
  304.298
  304.141
  304.023
  303.911
  303.827
  303.773
  303.696
  303.558
  303.406
  303.283
  303.215
  303.212
  303.262
  303.34
  303.415
  303.476
  303.511
  303.533
  303.549
  303.56
  303.568
  303.573
  303.577
  303.579
  303.58
  303.58
  303.58
  303.578
  303.577
  303.574
  303.571
  303.568
  303.565
  303.563
  303.562
  303.564
  303.57
  303.582
  303.599
  303.642
  301.607
  302.337
  302.727
  302.873
  302.907
  302.927
  302.952
  302.999
  303.074
  303.178
  303.292
  303.402
  303.475
  303.517
  303.54
  303.554
  303.564
  303.57
  303.574
  303.577
  303.579
  303.58
  303.58
  303.58
  303.58
  303.579
  303.578
  303.577
  303.576
  303.575
  303.574
  303.574
  303.576
  303.58
  303.587
  303.599
  303.615
  303.646
  301.659
  302.237
  302.492
  302.618
  302.686
  302.768
  302.877
  303.003
  303.14
  303.283
  303.395
  303.468
  303.513
  303.538
  303.553
  303.561
  303.567
  303.57
  303.573
  303.574
  303.576
  303.577
  303.578
  303.579
  303.58
  303.581
  303.581
  303.582
  303.582
  303.582
  303.582
  303.583
  303.584
  303.587
  303.591
  303.599
  303.611
  303.632
  302.123
  302.085
  302.084
  302.401
  302.571
  302.691
  302.819
  302.976
  303.125
  303.251
  303.351
  303.426
  303.477
  303.508
  303.526
  303.537
  303.543
  303.547
  303.549
  303.551
  303.553
  303.555
  303.556
  303.558
  303.559
  303.561
  303.562
  303.564
  303.566
  303.568
  303.57
  303.573
  303.575
  303.577
  303.58
  303.582
  303.585
  303.591
  303.59
  303.622
)
;

boundaryField
{
  floor
  {
    type wallHeatTransfer;
    Tinf uniform 300.653;
    alphaWall uniform 0.24;
    value nonuniform List<scalar> 29
(
  302.969
  302.786
  302.952
  302.964
  302.963
  302.959
  302.95
  302.933
  302.912
  302.891
  302.87
  302.85
  302.83
  302.81
  302.791
  302.771
  302.749
  302.724
  302.677
  302.61
  302.61
  302.76
  302.814
  302.877
  302.969
  302.786
  302.961
  303.045
  303.095
)
;
  }
  ceiling
  {
    type wallHeatTransfer;
    Tinf uniform 300.653;
    alphaWall uniform 0.24;
    value nonuniform List<scalar> 43
(
  301.995
  301.965
  301.968
  302.269
  302.424
  302.529
  302.639
  302.782
  302.925
  303.048
  303.145
  303.216
  303.26
  303.284
  303.297
  303.304
  303.307
  303.31
  303.311
  303.312
  303.313
  303.314
  303.315
  303.316
  303.317
  303.317
  303.315
  303.312
  303.308
  303.303
  303.298
  303.294
  303.29
  303.289
  303.289
  303.291
  303.294
  303.297
  303.297
  303.319
  304.093
  303.974
  301.577
)
;
  }
  sWall
  {
    type wallHeatTransfer;
    Tinf uniform 310.178;
    alphaWall uniform 0.36;
    value uniform 303.137;
  }
  nWall
  {
    type wallHeatTransfer;
    Tinf uniform 306.167;
    alphaWall uniform 0.36;
    value nonuniform List<scalar> 6
(
  304.122
  304.024
  303.968
  303.988
  303.952
  303.993
)
;
  }
  sideWalls
  {
    type empty;
  }
  glass1
  {
    type wallHeatTransfer;
    Tinf uniform 310.178;
    alphaWall uniform 4.3;
    value nonuniform List<scalar> 9
(
  308.344
  308.022
  307.807
  307.636
  307.49
  307.354
  307.233
  307.248
  307.347
)
;
  }
  glass2
  {
    type wallHeatTransfer;
    Tinf uniform 306.167;
    alphaWall uniform 4.3;
    value nonuniform List<scalar> 2
(
  305.333
  305.336
)
;
  }
  sun
  {
    type wallHeatTransfer;
    Tinf uniform 300.653;
    alphaWall uniform 0.24;
    value nonuniform List<scalar> 14
(
  303.113
  303.016
  303.019
  303.031
  303.041
  303.05
  303.057
  303.065
  303.069
  303.069
  303.066
  303.059
  303.049
  303.029
)
;
  }
  heatsource1
  {
    type fixedGradient;
    gradient uniform 0;
  }
  heatsource2
  {
    type fixedGradient;
    gradient uniform 0;
  }
  Table_master
  {
    type zeroGradient;
  }
  Table_slave
  {
    type zeroGradient;
  }
  inlet
  {
    type fixedValue;
    value uniform 300.15;
  }
  outlet
  {
    type zeroGradient;
  }
} 	// ************************************************************************* //

