/*--------------------------------*- C++ -*----------------------------------*\
  =========                 |
  \\      /  F ield         | OpenFOAM: The Open Source CFD Toolbox
   \\    /   O peration     | Website:  https://openfoam.org
    \\  /    A nd           | Version:  6
     \\/     M anipulation  |
\*---------------------------------------------------------------------------*/
FoamFile
{
    version     2.0;
    format      ascii;
    class       volScalarField;
    location    "100";
    object      alphat;
}
// * * * * * * * * * * * * * * * * * * * * * * * * * * * * * * * * * * * * * //

dimensions      [1 -1 -1 0 0 0 0];

internalField   nonuniform List<scalar> 
459
(
0.000806426
0.000836506
0.000768089
0.000795096
0.000825656
0.000855225
0.00088385
0.000912264
0.000941696
0.000969874
0.000993127
0.00100954
0.00101706
0.00101333
0.000992668
0.000314663
0.000353207
0.000336731
0.000303205
0.000265845
0.000235118
0.000218704
0.000219789
0.000240762
0.00028136
0.000336574
0.000399866
0.000466889
0.000536069
0.00060918
0.000678487
0.000643154
0.000532883
0.000405968
0.00135448
0.00259612
0.00204517
0.00272682
0.00300649
0.0032656
0.00352409
0.00376216
0.00394992
0.00408945
0.00416382
0.00412706
0.00390125
0.00335513
0.00233332
0.00105796
0.000706866
0.000470764
0.000983332
0.000837144
0.000630961
0.00046828
0.000380397
0.000352913
0.000341339
0.000337872
0.000365409
0.000449821
0.000608523
0.000845099
0.00114646
0.00150479
0.00217949
0.00242821
0.00199957
0.000548856
0.00183728
0.00422397
0.00220593
0.00382117
0.00452994
0.00485754
0.00511967
0.00533887
0.00550743
0.00563136
0.00569839
0.00566121
0.0054349
0.00488581
0.00386718
0.00242953
0.00107046
0.000610831
0.00136085
0.00105314
0.000730452
0.000490185
0.000318091
0.000223411
0.000213353
0.000216527
0.000231164
0.00026057
0.000309889
0.000389386
0.000526627
0.000785996
0.00245716
0.00297439
0.00262144
0.000726387
0.00229903
0.00629033
0.00258585
0.00387935
0.00520654
0.00561649
0.00585664
0.00605214
0.00621778
0.00636068
0.00650909
0.00663246
0.00665215
0.00642902
0.00575926
0.00443182
0.00250162
0.000985559
0.00184525
0.00209332
0.00169885
0.00138213
0.00114665
0.000954598
0.000802949
0.000826746
0.000854701
0.000887049
0.000923718
0.000963917
0.00100636
0.00105018
0.00110735
0.00271334
0.00330617
0.0030836
0.000929341
0.00273452
0.00858609
0.00373078
0.00354526
0.00514864
0.0057393
0.00600087
0.00618704
0.00634521
0.00649911
0.00674988
0.00709608
0.00748928
0.00783769
0.0080145
0.00789234
0.00739492
0.00652415
0.00556263
0.00495706
0.00458486
0.00439251
0.00428598
0.00419578
0.00407977
0.00402052
0.00400367
0.00403303
0.00410282
0.00419247
0.00426484
0.00427285
0.00418629
0.00403684
0.00375091
0.00358337
0.00272666
0.00119223
0.00104458
0.000899538
0.00314906
0.0107423
0.00608899
0.00394164
0.00444531
0.00514279
0.00558343
0.00586375
0.00601839
0.00613266
0.00640975
0.00685703
0.00745987
0.00814986
0.00879777
0.00924486
0.00934172
0.00901748
0.00840026
0.00773815
0.00725696
0.00693575
0.0066988
0.00648352
0.00624967
0.00602499
0.00582441
0.00566315
0.00554431
0.00544538
0.00530933
0.00506328
0.00466966
0.00418264
0.0037974
0.0036671
0.00368479
0.00339791
0.00261878
0.00102576
0.00351682
0.0122698
0.00942307
0.00626967
0.00466025
0.00446248
0.00488914
0.00535612
0.00557502
0.00567442
0.00588027
0.00623177
0.00678713
0.00754361
0.00839839
0.00916713
0.00965707
0.00975736
0.00951987
0.00912531
0.00874149
0.00841286
0.00812932
0.00786017
0.00758906
0.007313
0.00703766
0.0067756
0.00653782
0.00631846
0.00605483
0.00564967
0.0050606
0.00439276
0.00383955
0.00346907
0.00316066
0.00274533
0.00213173
0.00101893
0.00356872
0.0115597
0.0101481
0.00900502
0.0071559
0.00593175
0.00549363
0.00548355
0.00554543
0.00555694
0.0056064
0.00575164
0.00605221
0.00656346
0.00728605
0.0081084
0.00882796
0.00926852
0.00939037
0.00928848
0.00908825
0.00886224
0.00863683
0.00841498
0.0081941
0.0079748
0.00776479
0.00757604
0.00740732
0.00726091
0.00707044
0.00671803
0.00611468
0.00533137
0.00455415
0.00387182
0.00325534
0.00274137
0.00234302
0.0014509
0.0034339
0.00400939
0.00688631
0.0075891
0.00728897
0.00669061
0.00616849
0.00580886
0.00557515
0.00543399
0.00538636
0.00543223
0.0055863
0.00587235
0.00630941
0.00687889
0.00749245
0.0080169
0.00835841
0.00851178
0.00852397
0.00845208
0.00833749
0.00820469
0.00806725
0.0079342
0.00781895
0.00774278
0.00773199
0.00779785
0.00790222
0.00795327
0.00785368
0.00761167
0.00727114
0.0068103
0.00612446
0.00521226
0.00466245
0.00174473
0.0137669
0.0144251
0.00976069
0.00798973
0.00700178
0.00637142
0.00595235
0.00567587
0.00551993
0.00548288
0.0055522
0.0057123
0.00594989
0.00625152
0.00659744
0.00695037
0.00726115
0.00749232
0.00762367
0.00767894
0.00768368
0.00765801
0.00761552
0.00756562
0.00751737
0.00748346
0.00748369
0.00754248
0.00767543
0.00786563
0.00805407
0.00816427
0.00810198
0.00780234
0.00725554
0.00644268
0.00542971
0.00183834
0.00564053
0.012065
0.00946597
0.00796466
0.00703369
0.00641545
0.00601899
0.00580789
0.00576059
0.00583371
0.00600307
0.0062409
0.00651012
0.0067565
0.00695032
0.00708865
0.00718128
0.00724211
0.00728288
0.00731055
0.00732786
0.00733579
0.00733441
0.00732355
0.00730373
0.00727778
0.00725267
0.00724013
0.00725439
0.0073054
0.00739004
0.0074854
0.00750396
0.00731232
0.00687159
0.00618415
0.0056296
0.00184272
0.00200034
0.00271225
0.00417118
0.0035457
0.0032064
0.00295054
0.00264329
0.00237759
0.00216019
0.00198535
0.00184929
0.00175363
0.00169278
0.00166029
0.00164972
0.0016563
0.00167132
0.00168657
0.0016975
0.00170277
0.0017033
0.00170029
0.00169529
0.00168958
0.00168404
0.00167922
0.00167544
0.00167293
0.00167196
0.00167285
0.00167575
0.00168005
0.00168324
0.00168023
0.00167121
0.00165943
0.00163412
0.00158835
0.00156289
0.00136761
)
;

boundaryField
{
    floor
    {
        type            compressible::alphatWallFunction;
        Prt             0.85;
        value           nonuniform List<scalar> 
29
(
0.000141399
4.0185e-05
4.64146e-05
4.37752e-05
3.83356e-05
3.21702e-05
2.70039e-05
2.41967e-05
2.43613e-05
2.78976e-05
3.46535e-05
4.36517e-05
5.37394e-05
6.42022e-05
7.48038e-05
8.58215e-05
9.61206e-05
9.0899e-05
7.43514e-05
5.47546e-05
5.47539e-05
7.67837e-05
0.000103199
0.000132446
0.000141397
4.01844e-05
6.48916e-05
8.61518e-05
0.0001404
)
;
    }
    ceiling
    {
        type            compressible::alphatWallFunction;
        Prt             0.85;
        value           nonuniform List<scalar> 
43
(
0.000277535
0.000368689
0.000548292
0.000472233
0.000430427
0.000398582
0.000359953
0.000326165
0.000298219
0.000275525
0.000257713
0.000245104
0.000237043
0.000232727
0.000231318
0.000232193
0.000234188
0.000236213
0.000237663
0.00023836
0.00023843
0.00023803
0.000237365
0.000236607
0.000235871
0.00023523
0.000234727
0.000234394
0.000234266
0.000234386
0.000234774
0.00023535
0.00023578
0.000235385
0.000234184
0.000232614
0.000229236
0.000223117
0.000219698
0.00019336
0.000458574
0.000528816
0.000722787
)
;
    }
    sWall
    {
        type            compressible::alphatWallFunction;
        Prt             0.85;
        value           uniform 0.000276563;
    }
    nWall
    {
        type            compressible::alphatWallFunction;
        Prt             0.85;
        value           nonuniform List<scalar> 6(0.000127993 0.000145892 0.000144937 0.000255921 0.000256498 0.000193078);
    }
    sideWalls
    {
        type            empty;
    }
    glass1
    {
        type            compressible::alphatWallFunction;
        Prt             0.85;
        value           nonuniform List<scalar> 9(0.000112139 0.000187762 0.000251642 0.000311133 0.000366153 0.000417724 0.000462925 0.000469372 0.000453061);
    }
    glass2
    {
        type            compressible::alphatWallFunction;
        Prt             0.85;
        value           nonuniform List<scalar> 2(0.000203655 0.000242934);
    }
    sun
    {
        type            compressible::alphatWallFunction;
        Prt             0.85;
        value           nonuniform List<scalar> 
14
(
0.000114849
0.000119172
0.000109281
0.000113198
0.000117611
0.000121862
0.000125961
0.000130014
0.000134196
0.000138186
0.000141468
0.000143779
0.000144835
0.000144309
)
;
    }
    heatsource1
    {
        type            compressible::alphatWallFunction;
        Prt             0.85;
        value           nonuniform List<scalar> 3(0.000169128 0.000148634 0.000128151);
    }
    heatsource2
    {
        type            compressible::alphatWallFunction;
        Prt             0.85;
        value           nonuniform List<scalar> 4(0.000150556 0.000100328 0.000100327 0.000152305);
    }
    Table_master
    {
        type            compressible::alphatWallFunction;
        Prt             0.85;
        value           nonuniform List<scalar> 9(2.50078e-05 2.32791e-05 2.38133e-05 2.62957e-05 3.12292e-05 3.93474e-05 5.20929e-05 7.3353e-05 0.00011181);
    }
    Table_slave
    {
        type            compressible::alphatWallFunction;
        Prt             0.85;
        value           nonuniform List<scalar> 9(0.000114324 0.000117758 0.000121778 0.000126412 0.00013164 0.000137345 0.000143339 0.000149494 0.000157483);
    }
    inlet
    {
        type            fixedValue;
        value           uniform 1.94e-05;
    }
    outlet
    {
        type            zeroGradient;
    }
}


// ************************************************************************* //
