/*--------------------------------*- C++ -*----------------------------------*\
  =========                 |
  \\      /  F ield         | OpenFOAM: The Open Source CFD Toolbox
   \\    /   O peration     | Website:  https://openfoam.org
    \\  /    A nd           | Version:  6
     \\/     M anipulation  |
\*---------------------------------------------------------------------------*/
FoamFile
{
    version     2.0;
    format      ascii;
    class       volScalarField;
    location    "300";
    object      alphat;
}
// * * * * * * * * * * * * * * * * * * * * * * * * * * * * * * * * * * * * * //

dimensions      [1 -1 -1 0 0 0 0];

internalField   nonuniform List<scalar> 
459
(
0.00136927
0.00150098
0.00154468
0.00162366
0.00169864
0.00177316
0.00185323
0.00192267
0.0019732
0.00199292
0.00196859
0.00186981
0.00163968
0.00138332
0.00116262
0.000628739
0.000732481
0.000839703
0.000887519
0.000881834
0.000854313
0.000801289
0.000745216
0.000694389
0.000649728
0.000610564
0.000576108
0.000545667
0.000518557
0.000493749
0.000470067
0.000445972
0.000429542
0.000393213
0.00181137
0.00424512
0.0039918
0.00459186
0.00520466
0.00579297
0.0062133
0.00666176
0.0071008
0.00747783
0.00774093
0.00781774
0.00747055
0.00643613
0.00414427
0.00140185
0.00111053
0.000626991
0.00145063
0.00218852
0.00279353
0.00316869
0.00315497
0.00230397
0.00192975
0.00168084
0.00149797
0.00135735
0.00124548
0.00115169
0.00106341
0.000974727
0.000893945
0.000824858
0.000978632
0.000505214
0.00217313
0.00566501
0.00479171
0.00565526
0.00601454
0.00627178
0.00648588
0.00679471
0.00720068
0.00769472
0.00823689
0.00871741
0.00888482
0.0084201
0.00698468
0.00451543
0.00134847
0.00088611
0.00156177
0.00235831
0.0032358
0.00388837
0.00380496
0.00109343
0.000957352
0.000846834
0.000757912
0.000686075
0.000627555
0.000579585
0.000540616
0.000510319
0.000563168
0.000664051
0.00113847
0.000588214
0.00251495
0.00707282
0.00467493
0.00571813
0.00578607
0.00574281
0.00582565
0.00605933
0.00645369
0.0070302
0.00773874
0.00839557
0.0087661
0.00873258
0.00815443
0.0066321
0.00359476
0.0015125
0.00182686
0.00253975
0.00352682
0.00450346
0.00516552
0.00487686
0.0012329
0.00112314
0.0010435
0.000980366
0.000924422
0.000873973
0.000824223
0.000771473
0.000710432
0.000657783
0.000689013
0.00138338
0.00064755
0.00285998
0.00894244
0.00482136
0.00545422
0.00549591
0.00529836
0.00536071
0.00558616
0.00598687
0.00661425
0.00738709
0.00800141
0.00832005
0.00835761
0.00816483
0.00752598
0.00619615
0.00544087
0.00566133
0.00613869
0.00668688
0.00709404
0.00724323
0.00698611
0.00577706
0.00517152
0.00480578
0.00451509
0.00420564
0.00377469
0.00325404
0.00267128
0.00206491
0.0015087
0.00113086
0.00130698
0.000846586
0.000788752
0.000937596
0.00105234
0.00322856
0.0110563
0.00631302
0.00518186
0.00542014
0.00534358
0.0052755
0.00547264
0.00587211
0.00651205
0.00725742
0.00783144
0.00804085
0.00799241
0.00795282
0.00796199
0.0078395
0.00796952
0.00846476
0.00883914
0.00898833
0.00890431
0.00862288
0.00817101
0.00753526
0.00699074
0.00653254
0.00611216
0.00569232
0.00521032
0.00463049
0.00395012
0.00318924
0.00242164
0.00181066
0.00140671
0.00113747
0.0010286
0.00149223
0.00111102
0.00358864
0.0126101
0.00904719
0.00611079
0.00559911
0.00564951
0.00554004
0.00560664
0.00596852
0.00661517
0.00736737
0.0079061
0.00802294
0.0079458
0.00818566
0.00880822
0.00933061
0.00980831
0.0101871
0.01023
0.00997831
0.00951057
0.00890528
0.00822311
0.00753219
0.00693414
0.00641296
0.0059555
0.00554571
0.00518293
0.00483615
0.00434781
0.00372533
0.00302768
0.00242507
0.00192845
0.00162874
0.00163774
0.00176065
0.001328
0.00367554
0.0115029
0.00972968
0.00807509
0.00711771
0.00641879
0.00588832
0.00582128
0.00620401
0.00690546
0.00767696
0.0081598
0.00818965
0.00827747
0.00910107
0.00985502
0.010275
0.0105272
0.0105486
0.0102237
0.00961798
0.00883243
0.00796679
0.00711883
0.00638155
0.00579455
0.00532881
0.00495738
0.0046728
0.00447907
0.00437195
0.0042727
0.00393125
0.0034976
0.00317935
0.0031279
0.00351109
0.00442607
0.00546903
0.00196265
0.00359957
0.00434719
0.00487874
0.00508703
0.00505947
0.00505081
0.00527317
0.00578782
0.00653514
0.00740125
0.00815687
0.00847351
0.00845759
0.00893587
0.00960328
0.00993371
0.0100151
0.00990194
0.00953535
0.00889497
0.00803116
0.00708011
0.00617699
0.00541978
0.00483748
0.00439722
0.00405166
0.00377148
0.00354239
0.00335522
0.0032012
0.00308099
0.00299775
0.00295849
0.00297412
0.00301784
0.00299678
0.00283792
0.00261161
0.00178418
0.00179673
0.00305335
0.00418636
0.00522031
0.00621277
0.00702777
0.00770524
0.00824744
0.0085505
0.00866664
0.00863973
0.00882209
0.00882219
0.0086661
0.00841058
0.00800933
0.00742542
0.0066991
0.00593308
0.00521288
0.00463345
0.00420126
0.0038788
0.00362545
0.00341612
0.00324228
0.00310596
0.00301465
0.00297426
0.00297481
0.00300348
0.00305091
0.00309499
0.00309011
0.00297641
0.00273528
0.00237483
0.00144666
0.00255371
0.00527862
0.00687768
0.00795983
0.00823807
0.00787227
0.00770623
0.00729112
0.00691954
0.00688487
0.00684673
0.0066841
0.00646647
0.00624003
0.00597386
0.0056353
0.00523249
0.00480852
0.00440892
0.00406448
0.00379579
0.0035891
0.00342585
0.00329453
0.00319075
0.00311322
0.00305925
0.00303228
0.00304851
0.00310422
0.00319168
0.00329626
0.00339214
0.00346713
0.0034513
0.00342151
0.00293828
0.00146669
0.00266231
0.00272128
0.00277733
0.00309921
0.00279279
0.00231767
0.00191449
0.00171928
0.00156252
0.00144528
0.00135221
0.00127546
0.00121836
0.00117882
0.00114929
0.00112257
0.00109407
0.00106264
0.00103051
0.00100179
0.00098034
0.000967521
0.000961151
0.000960836
0.000966357
0.00097789
0.000995956
0.00102142
0.00105571
0.00109966
0.00115239
0.00121434
0.00128578
0.00136703
0.00145736
0.00158138
0.00160984
0.00156395
0.00145776
0.0013403
)
;

boundaryField
{
    floor
    {
        type            compressible::alphatWallFunction;
        Prt             0.85;
        value           nonuniform List<scalar> 
29
(
0.000164906
8.85972e-05
0.000103889
0.000119424
0.000126275
0.000125464
0.000121524
0.00011389
0.000105751
9.83101e-05
9.17172e-05
8.58903e-05
8.07261e-05
7.61319e-05
7.20136e-05
6.82214e-05
6.4579e-05
6.08494e-05
5.82918e-05
5.25915e-05
5.25908e-05
6.9978e-05
8.25465e-05
9.13968e-05
0.000164904
8.85961e-05
8.83363e-05
0.000126069
0.000212581
)
;
    }
    ceiling
    {
        type            compressible::alphatWallFunction;
        Prt             0.85;
        value           nonuniform List<scalar> 
43
(
0.00036183
0.00036927
0.000376329
0.000416676
0.000378427
0.000318173
0.000265991
0.000240306
0.000219444
0.000203688
0.000191076
0.000180602
0.000172763
0.00016731
0.000163223
0.000159515
0.00015555
0.000151161
0.00014666
0.000142622
0.000139597
0.000137786
0.000136885
0.00013684
0.000137621
0.000139251
0.000141799
0.000145382
0.00015019
0.000156327
0.000163652
0.000172209
0.000182015
0.000193093
0.000205323
0.000221979
0.00022578
0.000219648
0.00020538
0.000189463
0.000478691
0.000569331
0.00034797
)
;
    }
    sWall
    {
        type            compressible::alphatWallFunction;
        Prt             0.85;
        value           uniform 0.000360533;
    }
    nWall
    {
        type            compressible::alphatWallFunction;
        Prt             0.85;
        value           nonuniform List<scalar> 6(0.00014935 0.000157531 0.000187392 0.000203522 0.000206222 0.000189101);
    }
    sideWalls
    {
        type            empty;
    }
    glass1
    {
        type            compressible::alphatWallFunction;
        Prt             0.85;
        value           nonuniform List<scalar> 9(0.000188084 0.00024631 0.000292928 0.000336304 0.000379526 0.000425146 0.000469236 0.000479958 0.000470981);
    }
    glass2
    {
        type            compressible::alphatWallFunction;
        Prt             0.85;
        value           nonuniform List<scalar> 2(0.000269948 0.000246756);
    }
    sun
    {
        type            compressible::alphatWallFunction;
        Prt             0.85;
        value           nonuniform List<scalar> 
14
(
0.000193247
0.000211028
0.000216892
0.000227448
0.000237417
0.000247277
0.00025782
0.000266923
0.000273524
0.000276096
0.000272922
0.000259994
0.000229583
0.000195138
)
;
    }
    heatsource1
    {
        type            compressible::alphatWallFunction;
        Prt             0.85;
        value           nonuniform List<scalar> 3(0.000112263 0.000133597 0.00014977);
    }
    heatsource2
    {
        type            compressible::alphatWallFunction;
        Prt             0.85;
        value           nonuniform List<scalar> 4(0.000197874 0.000157894 0.000157893 0.000190623);
    }
    Table_master
    {
        type            compressible::alphatWallFunction;
        Prt             0.85;
        value           nonuniform List<scalar> 9(0.00015551 0.000136397 0.00012064 0.000107785 9.72678e-05 8.86009e-05 8.14226e-05 7.55371e-05 7.09248e-05);
    }
    Table_slave
    {
        type            compressible::alphatWallFunction;
        Prt             0.85;
        value           nonuniform List<scalar> 9(0.000174819 0.000159649 0.000148534 0.000139654 0.000131729 0.000124533 0.00011739 0.000109759 0.000100849);
    }
    inlet
    {
        type            fixedValue;
        value           uniform 1.94e-05;
    }
    outlet
    {
        type            zeroGradient;
    }
}


// ************************************************************************* //
