/*--------------------------------*- C++ -*----------------------------------*\
  =========                 |
  \\      /  F ield         | OpenFOAM: The Open Source CFD Toolbox
   \\    /   O peration     | Website:  https://openfoam.org
    \\  /    A nd           | Version:  6
     \\/     M anipulation  |
\*---------------------------------------------------------------------------*/
FoamFile
{
    version     2.0;
    format      ascii;
    class       volScalarField;
    location    "300";
    object      nut;
}
// * * * * * * * * * * * * * * * * * * * * * * * * * * * * * * * * * * * * * //

dimensions      [0 2 -1 0 0 0 0];

internalField   nonuniform List<scalar> 
459
(
0.00117335
0.00128496
0.0013223
0.00138989
0.00145406
0.00151784
0.00158635
0.00164575
0.00168897
0.00170583
0.00168503
0.00160059
0.00140374
0.00118434
0.00099547
0.000538812
0.000627654
0.000719503
0.000760496
0.000755661
0.000732109
0.000686693
0.000638659
0.000595119
0.000556859
0.000523308
0.000493791
0.000467713
0.000444489
0.000423236
0.000402949
0.000382308
0.000368239
0.000337132
0.00155321
0.00363458
0.00341736
0.00393105
0.00445565
0.00495926
0.00531902
0.00570267
0.00607805
0.00640038
0.00662561
0.00669201
0.00639569
0.00551045
0.00354839
0.00120029
0.000950865
0.000537336
0.00124291
0.00187511
0.00239358
0.00271521
0.00270363
0.00197442
0.00165377
0.00144048
0.00128378
0.00116328
0.00106743
0.000987067
0.000911425
0.000835432
0.000766217
0.00070703
0.000838888
0.000433146
0.00186472
0.0048511
0.00410266
0.00484215
0.00514994
0.00537031
0.00555359
0.00581752
0.00616405
0.00658595
0.00704984
0.00746213
0.00760683
0.00720962
0.00598073
0.00386643
0.00115465
0.000759288
0.00133808
0.00202053
0.00277258
0.00333211
0.00326095
0.000937102
0.000820487
0.000725775
0.000649572
0.00058801
0.000537861
0.000496753
0.000463359
0.000437398
0.00048271
0.000569199
0.000975905
0.000504311
0.00215958
0.00605801
0.00400324
0.00489688
0.00495557
0.00491894
0.00498998
0.00518935
0.00552533
0.00601717
0.00662318
0.00718662
0.00750561
0.00747801
0.00698322
0.00567952
0.00307837
0.00129529
0.00156463
0.00217553
0.00302163
0.00385916
0.00442731
0.00418052
0.00105698
0.000962977
0.000894756
0.000840679
0.000792748
0.000749519
0.000706882
0.000661664
0.000609323
0.000564054
0.000590735
0.00118597
0.00055521
0.00245763
0.00766158
0.00412926
0.00467166
0.00470821
0.00453983
0.00459365
0.00478564
0.00512637
0.00566114
0.00632197
0.0068492
0.00712422
0.00715804
0.00699359
0.00644637
0.00530725
0.0046606
0.00485005
0.00525995
0.00573088
0.00608114
0.00621023
0.00599074
0.00495465
0.00443578
0.0041224
0.00387329
0.00360797
0.00323833
0.00279165
0.00229166
0.00177139
0.00129406
0.000969772
0.00112062
0.000725892
0.000676658
0.000804476
0.000902942
0.00277621
0.00947617
0.00540798
0.00443901
0.00464408
0.00457978
0.00452229
0.00468943
0.00502843
0.00557356
0.00621077
0.00670377
0.00688592
0.00684677
0.00681398
0.00682209
0.00671726
0.00682927
0.00725478
0.00757713
0.00770664
0.00763615
0.00739612
0.00700956
0.00646493
0.00599828
0.0056055
0.005245
0.00488482
0.00447116
0.00397347
0.00338947
0.00273638
0.00207751
0.00155304
0.00120633
0.000975378
0.000882209
0.00127997
0.000953136
0.00308768
0.0108143
0.00775415
0.00523676
0.00479885
0.00484366
0.00475
0.00480448
0.00511059
0.00566115
0.00630444
0.00676802
0.00687191
0.00680897
0.00701622
0.00755051
0.00799869
0.00840912
0.00873528
0.00877367
0.00855944
0.00815962
0.0076414
0.00705685
0.00646446
0.00595152
0.00550441
0.00511186
0.0047601
0.0044486
0.00415072
0.00373133
0.00319684
0.00259784
0.00208044
0.00165409
0.00139687
0.00140466
0.00151018
0.00113923
0.00316514
0.00988138
0.00835207
0.00692854
0.00610618
0.00550699
0.0050495
0.0049872
0.00531012
0.00590771
0.00656875
0.00698624
0.00701711
0.00709636
0.00780459
0.008452
0.00881278
0.00903013
0.00904987
0.00877251
0.00825395
0.00758074
0.00683844
0.006111
0.00547834
0.00497454
0.00457474
0.00425584
0.00401145
0.00384501
0.00375286
0.0036674
0.00337405
0.00300155
0.0027281
0.0026836
0.00301221
0.00379754
0.00469287
0.00168499
0.00310346
0.00374375
0.00419757
0.00437302
0.00434659
0.00433585
0.00451943
0.00495288
0.00558782
0.00632849
0.00697951
0.00725791
0.00725127
0.00766513
0.00823925
0.00852352
0.00859406
0.00849786
0.00818422
0.00763543
0.00689459
0.00607858
0.00530348
0.00465347
0.00415354
0.00377551
0.00347876
0.00323813
0.00304134
0.00288058
0.00274828
0.00264503
0.00257355
0.00253989
0.00255345
0.00259124
0.00257354
0.00243748
0.0022433
0.00153291
0.00151134
0.00258382
0.00355351
0.00443516
0.00528429
0.00598649
0.00657527
0.00705022
0.00732184
0.00743166
0.00741304
0.00757147
0.00757242
0.007439
0.0072202
0.0068763
0.0063755
0.00575225
0.00509473
0.00447642
0.00397891
0.00360777
0.00333083
0.00311322
0.00293342
0.0027841
0.00266701
0.00258857
0.00255387
0.00255434
0.00257898
0.00261979
0.00265778
0.00265383
0.00255646
0.00234962
0.00204017
0.00124293
0.00215023
0.00446821
0.00583747
0.00676861
0.00701932
0.00672302
0.00659633
0.00624957
0.00593616
0.00590929
0.00587786
0.0057389
0.00555243
0.0053583
0.00513001
0.00483949
0.00449374
0.00412973
0.00378658
0.00349076
0.00325998
0.00308243
0.00294218
0.00282936
0.0027402
0.00267359
0.00262721
0.00260402
0.00261794
0.00266578
0.00274091
0.00283077
0.00291322
0.0029778
0.00296444
0.00293911
0.00252405
0.00126008
0.00225424
0.00230386
0.00235127
0.00263579
0.00238267
0.00198276
0.00164082
0.0014748
0.00134107
0.00124084
0.00116116
0.00109539
0.00104643
0.00101252
0.000987184
0.000964259
0.000939804
0.000912813
0.000885223
0.00086055
0.000842118
0.000831096
0.000825612
0.000825328
0.000830057
0.000839949
0.000855453
0.000877311
0.000906747
0.000944484
0.000989759
0.00104295
0.0011043
0.00117408
0.00125168
0.00135826
0.00138276
0.00134339
0.0012522
0.00115147
)
;

boundaryField
{
    floor
    {
        type            nutkWallFunction;
        Cmu             0.09;
        kappa           0.41;
        E               9.8;
        value           nonuniform List<scalar> 
29
(
0.000120179
6.46613e-05
7.5801e-05
8.71185e-05
9.21129e-05
9.15258e-05
8.86582e-05
8.30973e-05
7.71675e-05
7.17457e-05
6.69415e-05
6.26952e-05
5.89316e-05
5.55831e-05
5.25813e-05
4.98171e-05
4.71618e-05
4.44427e-05
4.25785e-05
3.84233e-05
3.84232e-05
5.11066e-05
6.0274e-05
6.67313e-05
0.000120179
6.46613e-05
6.44743e-05
9.19643e-05
0.000154911
)
;
    }
    ceiling
    {
        type            nutkWallFunction;
        Cmu             0.09;
        kappa           0.41;
        E               9.8;
        value           nonuniform List<scalar> 
43
(
0.000260676
0.000265997
0.000271073
0.000301414
0.000274573
0.000231469
0.000193846
0.000175272
0.000160141
0.000148688
0.000139507
0.000131876
0.000126162
0.000122186
0.000119206
0.000116501
0.000113608
0.000110405
0.000107119
0.00010417
0.00010196
0.000100637
9.99776e-05
9.99435e-05
0.000100512
0.000101701
0.00010356
0.000106175
0.000109683
0.000114163
0.000119509
0.000125755
0.000132914
0.000141002
0.000149932
0.000162099
0.00016488
0.000160408
0.000149993
0.000138388
0.000350792
0.000416757
0.000249384
)
;
    }
    sWall
    {
        type            nutkWallFunction;
        Cmu             0.09;
        kappa           0.41;
        E               9.8;
        value           uniform 0.000260747;
    }
    nWall
    {
        type            nutkWallFunction;
        Cmu             0.09;
        kappa           0.41;
        E               9.8;
        value           nonuniform List<scalar> 6(0.000109235 0.000115191 0.000136975 0.000148943 0.00015091 0.000138398);
    }
    sideWalls
    {
        type            empty;
    }
    glass1
    {
        type            nutkWallFunction;
        Cmu             0.09;
        kappa           0.41;
        E               9.8;
        value           nonuniform List<scalar> 9(0.00014106 0.000184335 0.000218933 0.000251104 0.000283148 0.000316948 0.000349604 0.000357682 0.00035128);
    }
    glass2
    {
        type            nutkWallFunction;
        Cmu             0.09;
        kappa           0.41;
        E               9.8;
        value           nonuniform List<scalar> 2(0.000198879 0.000181905);
    }
    sun
    {
        type            nutkWallFunction;
        Cmu             0.09;
        kappa           0.41;
        E               9.8;
        value           nonuniform List<scalar> 
14
(
0.000140912
0.00015373
0.000157991
0.000165671
0.000172924
0.000180098
0.000187767
0.000194388
0.000199187
0.000201056
0.000198749
0.000189355
0.000167239
0.000142176
)
;
    }
    heatsource1
    {
        type            nutkWallFunction;
        Cmu             0.09;
        kappa           0.41;
        E               9.8;
        value           nonuniform List<scalar> 3(8.18617e-05 9.74337e-05 0.00010923);
    }
    heatsource2
    {
        type            nutkWallFunction;
        Cmu             0.09;
        kappa           0.41;
        E               9.8;
        value           nonuniform List<scalar> 4(0.000144009 0.000114913 0.000114913 0.000138741);
    }
    Table_master
    {
        type            nutkWallFunction;
        Cmu             0.09;
        kappa           0.41;
        E               9.8;
        value           nonuniform List<scalar> 9(0.000113286 9.93641e-05 8.78862e-05 7.85221e-05 7.08608e-05 6.45476e-05 5.93188e-05 5.50318e-05 5.16723e-05);
    }
    Table_slave
    {
        type            nutkWallFunction;
        Cmu             0.09;
        kappa           0.41;
        E               9.8;
        value           nonuniform List<scalar> 9(0.000127392 0.000116348 0.000108256 0.000101791 9.60195e-05 9.07789e-05 8.55748e-05 8.00147e-05 7.35212e-05);
    }
    inlet
    {
        type            calculated;
        value           uniform 0.000167705;
    }
    outlet
    {
        type            calculated;
        value           nonuniform List<scalar> 2(0.00225424 0.00230386);
    }
}


// ************************************************************************* //
