/*--------------------------------*- C++ -*----------------------------------*\
  =========                 |
  \\      /  F ield         | OpenFOAM: The Open Source CFD Toolbox
   \\    /   O peration     | Website:  https://openfoam.org
    \\  /    A nd           | Version:  6
     \\/     M anipulation  |
\*---------------------------------------------------------------------------*/
FoamFile
{
    version     2.0;
    format      ascii;
    class       volScalarField;
    location    "1200";
    object      epsilon;
}
// * * * * * * * * * * * * * * * * * * * * * * * * * * * * * * * * * * * * * //

dimensions      [0 2 -3 0 0 0 0];

internalField   nonuniform List<scalar> 
459
(
0.00039084
0.000502482
0.000515781
0.000589295
0.000663207
0.000736165
0.000810088
0.000888839
0.00095633
0.000995304
0.000994073
0.000946505
0.000858081
0.00074941
0.000643675
2.77043e-05
5.39677e-05
6.56868e-05
5.90355e-05
5.08831e-05
4.2921e-05
3.51549e-05
2.86717e-05
2.35594e-05
1.95949e-05
1.64761e-05
1.39931e-05
1.19921e-05
1.03556e-05
8.98821e-06
7.79597e-06
6.7039e-06
6.68244e-06
5.47653e-06
0.00105898
0.00156618
0.00047837
0.000453491
0.000472479
0.000501065
0.000539537
0.000591701
0.000648296
0.000692475
0.000708163
0.000684799
0.000623406
0.00054555
0.000511848
0.000665698
0.000260974
8.61566e-05
9.64391e-05
8.35961e-05
6.89222e-05
5.55616e-05
4.51108e-05
3.90244e-05
3.17089e-05
2.54874e-05
2.05735e-05
1.67502e-05
1.37847e-05
1.14846e-05
9.71946e-06
8.48115e-06
7.74415e-06
7.51889e-06
2.55318e-05
1.63961e-05
0.00200472
0.00401791
0.000645985
0.000448592
0.000462089
0.000508674
0.00057439
0.000659354
0.000750543
0.000822507
0.000853966
0.000835001
0.000768767
0.000674829
0.000587995
0.00054035
0.000727973
0.000358951
0.000204424
0.000136323
9.74017e-05
7.32771e-05
6.0454e-05
0.000109358
7.43358e-05
5.31991e-05
3.9796e-05
3.08964e-05
2.47436e-05
2.03484e-05
1.71439e-05
1.48235e-05
1.16298e-05
1.02906e-05
4.9212e-05
2.75346e-05
0.00333188
0.0084263
0.00111262
0.000484663
0.000470478
0.000535712
0.000635575
0.000770737
0.000906888
0.00100127
0.00103508
0.00100656
0.000924477
0.000807859
0.000679481
0.000560945
0.000502507
0.000859625
0.000429875
0.000237788
0.000151328
0.000105393
7.89932e-05
6.85796e-05
0.000158541
0.000119858
9.91842e-05
8.70418e-05
7.84092e-05
7.01651e-05
6.14213e-05
5.30279e-05
4.40409e-05
2.64846e-05
1.80727e-05
8.21874e-05
3.82107e-05
0.00517121
0.0149023
0.00230097
0.000647747
0.000525999
0.000595174
0.000743284
0.000974569
0.00116058
0.00125645
0.00127013
0.00121344
0.00110124
0.000949579
0.000777448
0.000605504
0.000458168
0.00036194
0.000260671
0.000184055
0.000130669
9.59017e-05
7.44386e-05
6.32436e-05
6.3681e-05
6.08564e-05
5.8165e-05
5.58835e-05
5.33192e-05
4.95543e-05
4.43481e-05
3.94102e-05
3.51782e-05
2.89588e-05
2.32078e-05
5.40943e-05
4.73428e-05
6.98999e-05
0.000120695
0.00017413
0.00771014
0.0218377
0.00516804
0.00139646
0.000902596
0.000896693
0.0011247
0.00144899
0.00160726
0.00163821
0.00158979
0.00148385
0.00132766
0.00112872
0.000904405
0.000680227
0.000483969
0.000335981
0.000234068
0.000163823
0.000116177
8.63524e-05
6.93995e-05
6.14459e-05
5.98288e-05
6.06306e-05
6.22623e-05
6.39688e-05
6.48769e-05
6.35811e-05
5.84644e-05
4.97608e-05
4.17099e-05
3.47157e-05
3.04776e-05
4.04644e-05
4.6615e-05
5.53176e-05
0.000221426
0.000201202
0.0105692
0.0258821
0.010434
0.00449287
0.00295671
0.00243478
0.0024988
0.00249086
0.00237817
0.00221846
0.0020413
0.00184362
0.00161157
0.00134128
0.00104842
0.000763607
0.000518698
0.000336706
0.000217646
0.000144322
0.000101056
7.74775e-05
6.6405e-05
6.32367e-05
6.4758e-05
6.88619e-05
7.43244e-05
8.07322e-05
8.76143e-05
9.35822e-05
9.58209e-05
8.77469e-05
7.58376e-05
6.62304e-05
6.3374e-05
7.15726e-05
9.15655e-05
0.000136253
0.000319711
0.000313791
0.0111289
0.0278242
0.0158517
0.0114125
0.00856378
0.00661194
0.0051899
0.00416757
0.00346698
0.00298491
0.00261993
0.00229029
0.0019443
0.00156643
0.00117699
0.00081645
0.000518343
0.000309557
0.000183083
0.000118187
8.76322e-05
7.3544e-05
6.85806e-05
6.91372e-05
7.32512e-05
7.99498e-05
8.90707e-05
0.00010112
0.000116808
0.000136623
0.000160409
0.000186499
0.000200161
0.000221413
0.000273745
0.000405739
0.000691369
0.0011859
0.0037894
0.00101966
0.0101808
0.0166954
0.0139466
0.0105821
0.00815465
0.00646509
0.00530882
0.0045538
0.00404352
0.00363818
0.00323547
0.00278283
0.00226959
0.00172023
0.00119281
0.000753277
0.00041802
0.000229205
0.000142551
0.000102425
8.44584e-05
7.74377e-05
7.63446e-05
7.87407e-05
8.36129e-05
9.08678e-05
0.000101199
0.000115983
0.000137174
0.000167263
0.000209238
0.000266627
0.000344354
0.000449605
0.000602694
0.000810389
0.00105244
0.00128027
0.00146744
0.000814714
0.00388986
0.00851252
0.00786059
0.00727161
0.00681963
0.0062656
0.00554501
0.0047041
0.00381127
0.00292897
0.00208852
0.0013302
0.000738052
0.00041519
0.000241563
0.000158728
0.000122802
0.000107815
0.000102325
0.000101426
0.000102887
0.000104877
0.000106854
0.000109089
0.000112736
0.000119513
0.000131631
0.000151944
0.00018405
0.000232193
0.000301176
0.000395745
0.000521993
0.000677344
0.000838953
0.000965688
0.00090907
0.000416837
0.0030553
0.00672386
0.00674254
0.00578473
0.00538617
0.00484557
0.00406216
0.00320144
0.00238839
0.0016937
0.00114767
0.000736676
0.000458546
0.00030606
0.000232848
0.000205008
0.000199497
0.000203314
0.000210437
0.00021799
0.000224164
0.000227938
0.000228117
0.000224409
0.000218223
0.000211733
0.00020746
0.000208468
0.000218209
0.000241566
0.000283046
0.000345732
0.000429598
0.00052707
0.000612258
0.000701919
0.000424626
0.000445682
0.00181196
0.00228138
0.00266731
0.00333644
0.00324963
0.0030594
0.00283669
0.00248816
0.00208309
0.00169727
0.00133735
0.00101223
0.000738057
0.00052286
0.000369912
0.000274233
0.000218958
0.000188125
0.000171146
0.000161618
0.000155766
0.00015141
0.000147376
0.000143039
0.00013869
0.000135418
0.000133966
0.00013533
0.000140929
0.000152517
0.000172615
0.00020145
0.00023989
0.000289462
0.000350215
0.000421293
0.000420687
0.000299303
0.000265249
0.000464044
)
;

boundaryField
{
    floor
    {
        Cmu             0.09;
        kappa           0.41;
        E               9.8;
        type            epsilonWallFunction;
        value           nonuniform List<scalar> 
29
(
0.000643675
2.77043e-05
5.39677e-05
6.56868e-05
5.90355e-05
5.08831e-05
4.2921e-05
3.51549e-05
2.86717e-05
2.35594e-05
1.95949e-05
1.64761e-05
1.39931e-05
1.19921e-05
1.03556e-05
8.98821e-06
7.79597e-06
6.7039e-06
6.68244e-06
5.47653e-06
5.47653e-06
1.63961e-05
2.75346e-05
3.82107e-05
0.000643675
2.77043e-05
8.61566e-05
0.000358951
0.000859625
)
;
    }
    ceiling
    {
        Cmu             0.09;
        kappa           0.41;
        E               9.8;
        type            epsilonWallFunction;
        value           nonuniform List<scalar> 
43
(
0.00181196
0.00228138
0.00266731
0.00333644
0.00324963
0.0030594
0.00283669
0.00248816
0.00208309
0.00169727
0.00133735
0.00101223
0.000738057
0.00052286
0.000369912
0.000274233
0.000218958
0.000188125
0.000171146
0.000161618
0.000155766
0.00015141
0.000147376
0.000143039
0.00013869
0.000135418
0.000133966
0.00013533
0.000140929
0.000152517
0.000172615
0.00020145
0.00023989
0.000289462
0.000350215
0.000421293
0.000420687
0.000299303
0.000265249
0.000464044
0.0101808
0.0166954
0.0030553
)
;
    }
    sWall
    {
        Cmu             0.09;
        kappa           0.41;
        E               9.8;
        type            epsilonWallFunction;
        value           uniform 0.00181196;
    }
    nWall
    {
        Cmu             0.09;
        kappa           0.41;
        E               9.8;
        type            epsilonWallFunction;
        value           nonuniform List<scalar> 6(0.00017413 0.000201202 0.000313791 0.000416837 0.000445682 0.000464044);
    }
    sideWalls
    {
        type            empty;
    }
    glass1
    {
        Cmu             0.09;
        kappa           0.41;
        E               9.8;
        type            epsilonWallFunction;
        value           nonuniform List<scalar> 9(0.00039084 0.00105898 0.00200472 0.00333188 0.00517121 0.00771014 0.0105692 0.0111289 0.0101808);
    }
    glass2
    {
        Cmu             0.09;
        kappa           0.41;
        E               9.8;
        type            epsilonWallFunction;
        value           nonuniform List<scalar> 2(0.00101966 0.000814714);
    }
    sun
    {
        Cmu             0.09;
        kappa           0.41;
        E               9.8;
        type            epsilonWallFunction;
        value           nonuniform List<scalar> 
14
(
0.00039084
0.000502482
0.000515781
0.000589295
0.000663207
0.000736165
0.000810088
0.000888839
0.00095633
0.000995304
0.000994073
0.000946505
0.000858081
0.00074941
)
;
    }
    heatsource1
    {
        Cmu             0.09;
        kappa           0.41;
        E               9.8;
        type            epsilonWallFunction;
        value           nonuniform List<scalar> 3(6.98999e-05 0.000120695 0.00017413);
    }
    heatsource2
    {
        Cmu             0.09;
        kappa           0.41;
        E               9.8;
        type            epsilonWallFunction;
        value           nonuniform List<scalar> 4(0.000665698 0.000260974 0.000260974 0.000727973);
    }
    Table_master
    {
        Cmu             0.09;
        kappa           0.41;
        E               9.8;
        type            epsilonWallFunction;
        value           nonuniform List<scalar> 9(0.000109358 7.43358e-05 5.31991e-05 3.9796e-05 3.08964e-05 2.47436e-05 2.03484e-05 1.71439e-05 1.48235e-05);
    }
    Table_slave
    {
        Cmu             0.09;
        kappa           0.41;
        E               9.8;
        type            epsilonWallFunction;
        value           nonuniform List<scalar> 9(0.000158541 0.000119858 9.91842e-05 8.70418e-05 7.84092e-05 7.01651e-05 6.14213e-05 5.30279e-05 4.40409e-05);
    }
    inlet
    {
        type            turbulentMixingLengthDissipationRateInlet;
        mixingLength    0.01;
        phi             phi;
        k               k;
        value           uniform 0.000101881;
    }
    outlet
    {
        type            zeroGradient;
    }
}


// ************************************************************************* //
