// -*- C++ -*-
// File generated by PyFoam - sorry for the ugliness

FoamFile
{
 version 2.0;
 format ascii;
 class volVectorField;
 location "1300";
 object U;
}

dimensions [ 0 1 -1 0 0 0 0 ];

internalField nonuniform List<vector> 459
(
  (0.0327095 0.0866912 0)
  (-0.169073 0.0258293 0)
  (-0.194067 0.0170266 0)
  (-0.223911 0.0106715 0)
  (-0.243951 0.00364037 0)
  (-0.252848 -0.00379973 0)
  (-0.248812 -0.0115894 0)
  (-0.231917 -0.0195482 0)
  (-0.203528 -0.026481 0)
  (-0.166783 -0.0311369 0)
  (-0.126014 -0.0327185 0)
  (-0.0856822 -0.0308338 0)
  (-0.0497097 -0.0252942 0)
  (-0.0227605 -0.0165993 0)
  (-0.0242784 -0.00751401 0)
  (-0.00650769 0.00936064 0)
  (-0.0311925 -0.0167975 0)
  (-0.00974167 -0.027077 0)
  (0.0152245 -0.0213951 0)
  (0.0306984 -0.0148307 0)
  (0.0437239 -0.00961079 0)
  (0.0519813 -0.00552624 0)
  (0.0562587 -0.00337275 0)
  (0.0581084 -0.00251968 0)
  (0.05897 -0.00217275 0)
  (0.0595188 -0.00197532 0)
  (0.0598819 -0.00182649 0)
  (0.0600013 -0.00165469 0)
  (0.0596945 -0.00129187 0)
  (0.0584495 -0.000381352 0)
  (0.0551435 0.00157626 0)
  (0.0486081 0.00359523 0)
  (0.0426732 0.00551476 0)
  (-0.012027 0.0211773 0)
  (0.205537 0.177635 0)
  (-0.157041 0.0691254 0)
  (-0.156614 0.0522368 0)
  (-0.187695 0.0388176 0)
  (-0.207839 0.023443 0)
  (-0.217243 0.00618133 0)
  (-0.213982 -0.0128188 0)
  (-0.198421 -0.0317962 0)
  (-0.17259 -0.0475818 0)
  (-0.139938 -0.0576219 0)
  (-0.104549 -0.060825 0)
  (-0.0701348 -0.0572452 0)
  (-0.0397058 -0.0473975 0)
  (-0.0155266 -0.0326392 0)
  (-0.00185185 -0.017875 0)
  (0.00879697 -0.00326884 0)
  (0.00849179 0.0155483 0)
  (0.0642299 0.0375377 0)
  (0.0204564 -0.0185427 0)
  (0.0306726 -0.0324159 0)
  (0.0421879 -0.0290203 0)
  (0.0512812 -0.0210088 0)
  (0.0580118 -0.0131792 0)
  (0.0609811 -0.00559713 0)
  (0.0616031 -0.00122587 0)
  (0.0615551 0.000558739 0)
  (0.0616519 0.00129228 0)
  (0.0618532 0.00169276 0)
  (0.0620048 0.00198984 0)
  (0.0620708 0.00237469 0)
  (0.0620044 0.00314754 0)
  (0.061317 0.00515006 0)
  (0.0576961 0.0108764 0)
  (0.0485717 0.0153753 0)
  (0.0452089 0.0185848 0)
  (-0.0521064 0.0452978 0)
  (0.363563 0.265699 0)
  (-0.171848 0.109868 0)
  (-0.118247 0.0844737 0)
  (-0.148468 0.0608684 0)
  (-0.166653 0.0355406 0)
  (-0.175195 0.00742106 0)
  (-0.170812 -0.0232297 0)
  (-0.154616 -0.0530547 0)
  (-0.129897 -0.0765833 0)
  (-0.100651 -0.0902638 0)
  (-0.070573 -0.0933269 0)
  (-0.0422661 -0.0867689 0)
  (-0.0175385 -0.071989 0)
  (0.00323382 -0.0507158 0)
  (0.017511 -0.0278798 0)
  (0.0264789 -0.00450051 0)
  (0.0304002 0.0279492 0)
  (0.113369 -0.0220865 0)
  (0.0735334 -0.0355338 0)
  (0.0670525 -0.0379713 0)
  (0.0681486 -0.0333809 0)
  (0.0692882 -0.0256048 0)
  (0.0705686 -0.0185484 0)
  (0.0694683 -0.0148247 0)
  (0.064772 -0.0102846 0)
  (0.0613813 -0.00784063 0)
  (0.0599042 -0.00647533 0)
  (0.0592908 -0.00562338 0)
  (0.0589328 -0.0050556 0)
  (0.0587933 -0.00459043 0)
  (0.0593148 -0.00384419 0)
  (0.0615854 -0.000864954 0)
  (0.0589328 0.0157295 0)
  (0.0452534 0.0263127 0)
  (0.050477 0.0328791 0)
  (-0.0894888 0.0690777 0)
  (0.506075 0.336579 0)
  (-0.20395 0.146047 0)
  (-0.0777073 0.112196 0)
  (-0.106029 0.0799173 0)
  (-0.119379 0.0467398 0)
  (-0.124169 0.00863177 0)
  (-0.114632 -0.0340934 0)
  (-0.0960116 -0.0743119 0)
  (-0.0726235 -0.103819 0)
  (-0.0482825 -0.119202 0)
  (-0.0255222 -0.120983 0)
  (-0.00522047 -0.111367 0)
  (0.0123336 -0.0922875 0)
  (0.0270189 -0.068014 0)
  (0.040122 -0.0415632 0)
  (0.0543031 -0.0149118 0)
  (0.0738258 0.0147391 0)
  (0.102682 0.0255521 0)
  (0.105314 -0.0174334 0)
  (0.0906861 -0.030911 0)
  (0.0812758 -0.0319786 0)
  (0.0756421 -0.0288276 0)
  (0.0713272 -0.0230789 0)
  (0.0684898 -0.015347 0)
  (0.0695946 -0.00921047 0)
  (0.074471 -0.00691903 0)
  (0.0785394 -0.00562091 0)
  (0.081099 -0.00467687 0)
  (0.0825233 -0.00359075 0)
  (0.0822118 -0.00203417 0)
  (0.0790735 0.000231078 0)
  (0.0717953 0.00351379 0)
  (0.05741 0.00842933 0)
  (0.0446843 0.0274988 0)
  (0.0321223 0.0416461 0)
  (0.0539739 0.0514757 0)
  (-0.136218 0.0881923 0)
  (0.629325 0.39145 0)
  (-0.243846 0.175434 0)
  (-0.0376205 0.128296 0)
  (-0.06068 0.0909867 0)
  (-0.0663591 0.0530082 0)
  (-0.0625584 0.0063307 0)
  (-0.0416059 -0.0487083 0)
  (-0.02079 -0.0955662 0)
  (-0.00126009 -0.126596 0)
  (0.0149672 -0.139947 0)
  (0.0272378 -0.13824 0)
  (0.0365356 -0.125546 0)
  (0.0436858 -0.10487 0)
  (0.0499114 -0.0794637 0)
  (0.0562882 -0.0528138 0)
  (0.0642951 -0.0286083 0)
  (0.0760935 -0.0127127 0)
  (0.0851991 -0.0154366 0)
  (0.0849637 -0.02494 0)
  (0.0779524 -0.0271348 0)
  (0.0691989 -0.0254867 0)
  (0.061711 -0.0224849 0)
  (0.0557864 -0.01828 0)
  (0.0518753 -0.0128761 0)
  (0.0508004 -0.00692286 0)
  (0.0523968 -0.00406093 0)
  (0.0544851 -0.00304151 0)
  (0.0566015 -0.00224079 0)
  (0.0586757 -0.000537257 0)
  (0.0603043 0.0026553 0)
  (0.0601826 0.00743403 0)
  (0.0576493 0.013913 0)
  (0.0519872 0.0225296 0)
  (0.0449216 0.0369074 0)
  (0.0339056 0.0525841 0)
  (0.0617375 0.0694975 0)
  (-0.0375378 0.0969944 0)
  (0.0471633 0.0232837 0)
  (-0.0618125 -0.0328255 0)
  (-0.2748 -0.0560854 0)
  (0.719241 0.436871 0)
  (-0.283233 0.194645 0)
  (-0.00656805 0.123979 0)
  (-0.0120123 0.0905895 0)
  (-0.00546566 0.050508 0)
  (0.0220687 -0.00908327 0)
  (0.0488067 -0.0696392 0)
  (0.0675655 -0.113737 0)
  (0.0786726 -0.139393 0)
  (0.0830957 -0.14818 0)
  (0.0824967 -0.143118 0)
  (0.0786176 -0.127886 0)
  (0.0731615 -0.105995 0)
  (0.0678176 -0.0807047 0)
  (0.063872 -0.055143 0)
  (0.062286 -0.0328419 0)
  (0.0633519 -0.017675 0)
  (0.0636638 -0.0135202 0)
  (0.0599023 -0.0153755 0)
  (0.0525537 -0.0171263 0)
  (0.0441784 -0.0169491 0)
  (0.0367921 -0.0154557 0)
  (0.0309706 -0.0130061 0)
  (0.0271409 -0.0098067 0)
  (0.0256831 -0.00672007 0)
  (0.026422 -0.00562862 0)
  (0.0283716 -0.00570513 0)
  (0.0311477 -0.0055961 0)
  (0.0345825 -0.00413607 0)
  (0.0384955 -0.000317733 0)
  (0.0421871 0.00615086 0)
  (0.0444717 0.0148303 0)
  (0.0455272 0.0255443 0)
  (0.0466808 0.039011 0)
  (0.045309 0.0542742 0)
  (0.0712019 0.0742375 0)
  (0.0466923 0.0890273 0)
  (0.0935834 0.0608474 0)
  (0.116795 0.0420829 0)
  (-0.127947 -0.00552493 0)
  (0.776203 0.478162 0)
  (-0.302119 0.179234 0)
  (0.0243931 0.0699564 0)
  (0.0542243 0.0575296 0)
  (0.0798528 0.0236248 0)
  (0.124854 -0.0399859 0)
  (0.151845 -0.092143 0)
  (0.1634 -0.125734 0)
  (0.16211 -0.141873 0)
  (0.151159 -0.143356 0)
  (0.133986 -0.133418 0)
  (0.113738 -0.115615 0)
  (0.0931348 -0.0934095 0)
  (0.0742984 -0.0695304 0)
  (0.0586135 -0.0462761 0)
  (0.0468946 -0.0267441 0)
  (0.0390317 -0.0137184 0)
  (0.0331978 -0.00853264 0)
  (0.0271082 -0.00840115 0)
  (0.0200893 -0.00948297 0)
  (0.0130071 -0.00982535 0)
  (0.00678581 -0.00939631 0)
  (0.00188362 -0.0084556 0)
  (-0.00130779 -0.00726822 0)
  (-0.00244779 -0.00654119 0)
  (-0.00182784 -0.00705037 0)
  (-1.5765e-05 -0.00826753 0)
  (0.00275646 -0.00919949 0)
  (0.00649681 -0.00876879 0)
  (0.0113874 -0.00578024 0)
  (0.0184293 0.000931227 0)
  (0.0258541 0.0104751 0)
  (0.0329466 0.0212973 0)
  (0.0414321 0.0332376 0)
  (0.0499432 0.0455622 0)
  (0.0735681 0.0613237 0)
  (0.0869167 0.0654867 0)
  (0.121087 0.0423587 0)
  (0.160502 0.0391249 0)
  (-0.0280635 0.0928776 0)
  (0.88363 0.477991 0)
  (-0.0582484 0.156995 0)
  (0.116174 -0.0156823 0)
  (0.196219 -0.0563372 0)
  (0.244042 -0.0778246 0)
  (0.268977 -0.100679 0)
  (0.275657 -0.119135 0)
  (0.264834 -0.128649 0)
  (0.23982 -0.128655 0)
  (0.205549 -0.120377 0)
  (0.166895 -0.105601 0)
  (0.127862 -0.0866045 0)
  (0.0915663 -0.0659968 0)
  (0.0599224 -0.0456089 0)
  (0.0341331 -0.0266967 0)
  (0.0154866 -0.0121145 0)
  (0.00327897 -0.00377212 0)
  (-0.00432198 -0.00121717 0)
  (-0.00979205 -0.00189679 0)
  (-0.0151067 -0.0031986 0)
  (-0.0202169 -0.00409997 0)
  (-0.0247294 -0.00461444 0)
  (-0.0283561 -0.00497278 0)
  (-0.0308242 -0.0054617 0)
  (-0.0320238 -0.00647303 0)
  (-0.0322258 -0.0082234 0)
  (-0.031852 -0.0103717 0)
  (-0.0310826 -0.0123209 0)
  (-0.0297877 -0.0134101 0)
  (-0.0275183 -0.0129289 0)
  (-0.0232123 -0.0101098 0)
  (-0.0139794 -0.00432794 0)
  (-0.00252743 0.00353845 0)
  (0.00958762 0.0113961 0)
  (0.0214563 0.0168468 0)
  (0.0401361 0.0225651 0)
  (0.0554877 0.0143341 0)
  (0.0704325 -0.0095634 0)
  (0.127876 0.0448848 0)
  (-0.435311 0.213934 0)
  (1.0342 0.425939 0)
  (0.49228 0.280276 0)
  (0.507452 0.18103 0)
  (0.537186 0.101387 0)
  (0.512729 0.0403648 0)
  (0.461257 -0.00999681 0)
  (0.40313 -0.0458961 0)
  (0.340806 -0.0656367 0)
  (0.275569 -0.0713317 0)
  (0.210838 -0.0669172 0)
  (0.150154 -0.0559904 0)
  (0.0962131 -0.0414367 0)
  (0.0507469 -0.0259415 0)
  (0.0129078 -0.0113231 0)
  (-0.0160109 -0.000245263 0)
  (-0.0303791 0.00401253 0)
  (-0.0381141 0.00498078 0)
  (-0.042424 0.00413779 0)
  (-0.0458439 0.00254312 0)
  (-0.0490791 0.000982191 0)
  (-0.052255 -0.000286762 0)
  (-0.0552939 -0.0013594 0)
  (-0.0581349 -0.00244498 0)
  (-0.0606211 -0.00377802 0)
  (-0.0628229 -0.0054955 0)
  (-0.0650766 -0.00753306 0)
  (-0.0678399 -0.00955508 0)
  (-0.0715153 -0.0110348 0)
  (-0.0764907 -0.011318 0)
  (-0.0832292 -0.00962635 0)
  (-0.092254 -0.00509475 0)
  (-0.10376 0.00297032 0)
  (-0.11645 0.0141018 0)
  (-0.1335 0.0279755 0)
  (-0.160269 0.0441579 0)
  (-0.198846 0.0610545 0)
  (-0.251773 0.0743228 0)
  (-0.309344 0.0809134 0)
  (-0.374421 0.081467 0)
  (-0.627384 0.0780526 0)
  (-0.122854 -0.00262165 0)
  (0.113477 -0.0193654 0)
  (0.180898 -0.0538591 0)
  (0.167173 -0.0547519 0)
  (0.145425 -0.0451539 0)
  (0.117787 -0.0338773 0)
  (0.0841914 -0.0223359 0)
  (0.0464929 -0.0107363 0)
  (0.00724434 0.000105174 0)
  (-0.0265018 0.00814472 0)
  (-0.0484167 0.0122935 0)
  (-0.0614356 0.0136806 0)
  (-0.0681384 0.012956 0)
  (-0.0713662 0.0111634 0)
  (-0.0732856 0.00954838 0)
  (-0.0747863 0.00813112 0)
  (-0.0764547 0.00691327 0)
  (-0.0784203 0.00596369 0)
  (-0.0805893 0.00521995 0)
  (-0.0828199 0.00446733 0)
  (-0.0849817 0.0034595 0)
  (-0.087217 0.00208915 0)
  (-0.0897511 0.000397926 0)
  (-0.0927696 -0.00125885 0)
  (-0.0964397 -0.00244515 0)
  (-0.100811 -0.00270304 0)
  (-0.105815 -0.00157699 0)
  (-0.11121 0.00138096 0)
  (-0.116441 0.00663602 0)
  (-0.120818 0.0148044 0)
  (-0.124627 0.0269376 0)
  (-0.128068 0.0432158 0)
  (-0.132065 0.0622368 0)
  (-0.1369 0.079919 0)
  (-0.138872 0.0869906 0)
  (-0.117685 0.0644651 0)
  (-0.0481126 -0.0289197 0)
  (-0.28071 -0.21295 0)
  (0.0347791 0.195773 0)
  (0.0257808 0.0646542 0)
  (-0.0134543 0.00274772 0)
  (-0.0338979 -0.00282037 0)
  (-0.055598 0.00187559 0)
  (-0.0749856 0.00601889 0)
  (-0.0911952 0.0103446 0)
  (-0.101492 0.0139048 0)
  (-0.106802 0.0152998 0)
  (-0.109151 0.014128 0)
  (-0.108721 0.0113808 0)
  (-0.106549 0.00846512 0)
  (-0.103559 0.00544646 0)
  (-0.10077 0.00228547 0)
  (-0.0986937 -0.000621151 0)
  (-0.0974021 -0.00333079 0)
  (-0.0968632 -0.00594498 0)
  (-0.0969284 -0.00841716 0)
  (-0.0973805 -0.0105884 0)
  (-0.0980207 -0.0122835 0)
  (-0.0987433 -0.0133736 0)
  (-0.0995484 -0.013812 0)
  (-0.100487 -0.013601 0)
  (-0.101688 -0.0128333 0)
  (-0.103247 -0.011777 0)
  (-0.105039 -0.0102599 0)
  (-0.10672 -0.00790298 0)
  (-0.107715 -0.00416401 0)
  (-0.107331 0.00143642 0)
  (-0.104454 0.00944694 0)
  (-0.097664 0.0207513 0)
  (-0.0858801 0.0359709 0)
  (-0.0691267 0.054095 0)
  (-0.0481587 0.0700901 0)
  (-0.0256849 0.0771825 0)
  (0.0167182 0.0565084 0)
  (0.13994 -0.0113228 0)
  (-0.206332 -0.119787 0)
  (0.928602 0.0308417 0)
  (-0.470167 -0.478218 0)
  (-0.338071 0.0589083 0)
  (-0.268998 -0.0164887 0)
  (-0.226641 -0.0222108 0)
  (-0.217642 -0.014101 0)
  (-0.213197 -0.00597492 0)
  (-0.207866 0.000821916 0)
  (-0.199959 0.00694652 0)
  (-0.189158 0.0125286 0)
  (-0.176248 0.0172133 0)
  (-0.162691 0.0208047 0)
  (-0.149827 0.0237982 0)
  (-0.138413 0.0268027 0)
  (-0.128596 0.0298912 0)
  (-0.120271 0.0331349 0)
  (-0.113139 0.0366474 0)
  (-0.10691 0.0403094 0)
  (-0.10143 0.0438241 0)
  (-0.0966509 0.0467703 0)
  (-0.0925994 0.0486891 0)
  (-0.0893526 0.0492191 0)
  (-0.0870065 0.0482042 0)
  (-0.0856403 0.0457014 0)
  (-0.0852739 0.0419403 0)
  (-0.0858476 0.0373484 0)
  (-0.0870627 0.0328641 0)
  (-0.0885573 0.0288692 0)
  (-0.0897908 0.0255395 0)
  (-0.0899607 0.0230119 0)
  (-0.0876701 0.0218169 0)
  (-0.0807988 0.0226754 0)
  (-0.0669368 0.0262581 0)
  (-0.0446813 0.0333239 0)
  (-0.0147378 0.0442159 0)
  (0.0345846 0.0557826 0)
  (0.0747468 0.0542292 0)
  (0.114271 0.0387368 0)
  (0.165934 0.0103235 0)
  (-0.202529 -0.0443348 0)
)
;

boundaryField
{
  floor
  {
    type noSlip;
  }
  ceiling
  {
    type noSlip;
  }
  sWall
  {
    type noSlip;
  }
  nWall
  {
    type noSlip;
  }
  sideWalls
  {
    type empty;
  }
  glass1
  {
    type noSlip;
  }
  glass2
  {
    type noSlip;
  }
  sun
  {
    type noSlip;
  }
  heatsource1
  {
    type noSlip;
  }
  heatsource2
  {
    type noSlip;
  }
  Table_master
  {
    type noSlip;
  }
  Table_slave
  {
    type noSlip;
  }
  inlet
  {
    type fixedValue;
    value uniform (0.277164 -0.114805 0);
  }
  outlet
  {
    type zeroGradient;
  }
} 	// ************************************************************************* //

