/*--------------------------------*- C++ -*----------------------------------*\
  =========                 |
  \\      /  F ield         | OpenFOAM: The Open Source CFD Toolbox
   \\    /   O peration     | Website:  https://openfoam.org
    \\  /    A nd           | Version:  6
     \\/     M anipulation  |
\*---------------------------------------------------------------------------*/
FoamFile
{
    version     2.0;
    format      ascii;
    class       volScalarField;
    location    "390";
    object      alphat;
}
// * * * * * * * * * * * * * * * * * * * * * * * * * * * * * * * * * * * * * //

dimensions      [1 -1 -1 0 0 0 0];

internalField   nonuniform List<scalar> 
459
(
0.00111565
0.00122793
0.00126837
0.00133381
0.00139467
0.00145348
0.00151424
0.00156975
0.00161083
0.00162987
0.00161894
0.00157136
0.0014779
0.00128743
0.00102776
0.000693659
0.000806787
0.000762698
0.000815112
0.00078406
0.000738764
0.000672305
0.000607986
0.000552872
0.000506722
0.000467924
0.000434949
0.000406429
0.000381768
0.000359438
0.000338115
0.000324642
0.000361458
0.000509586
0.0014586
0.00353398
0.00337476
0.00389539
0.00444412
0.0049889
0.00543337
0.00583033
0.00622339
0.00658211
0.0068628
0.00701617
0.00697406
0.0065827
0.00493675
0.00127049
0.000936471
0.00103932
0.00307797
0.00279001
0.00283393
0.00288481
0.00273902
0.00194282
0.00156775
0.00132179
0.00114612
0.00101549
0.000916011
0.000839947
0.000767581
0.000695668
0.000636851
0.000715616
0.000857386
0.000630514
0.0017442
0.00478211
0.00421332
0.00497801
0.00538375
0.00568459
0.00592143
0.00618644
0.00653463
0.00697037
0.00745321
0.0079136
0.00822966
0.00821711
0.00749812
0.00529435
0.00127376
0.00118628
0.00360371
0.00323512
0.00332273
0.00348178
0.00327064
0.000997203
0.000840886
0.000720058
0.00062622
0.00055254
0.000494049
0.000447295
0.000410823
0.000384221
0.000438684
0.000648143
0.00106396
0.000723504
0.00201664
0.00591923
0.00422183
0.00515763
0.00533441
0.0053458
0.00539473
0.00554781
0.0058439
0.00632754
0.00694486
0.0076089
0.00814641
0.00845353
0.0083723
0.00741282
0.00431617
0.00147891
0.00226054
0.00274664
0.00333309
0.00388558
0.00427934
0.00406334
0.00112363
0.00100692
0.000918497
0.000847758
0.000787438
0.000732982
0.000681097
0.000628879
0.000572164
0.000517856
0.000634735
0.00118711
0.000800076
0.00229623
0.00738621
0.00438777
0.00500174
0.00517454
0.00502692
0.00497818
0.0050716
0.00532065
0.00583649
0.00651964
0.00722176
0.00780465
0.00818948
0.00833019
0.00808931
0.00705941
0.00594733
0.00569901
0.00577902
0.00596096
0.00612846
0.00620349
0.00603262
0.00510692
0.00456445
0.00414954
0.00377014
0.00340221
0.00302871
0.00263444
0.00220579
0.00173752
0.00128914
0.00101907
0.00109039
0.00102032
0.00079502
0.000948865
0.00139027
0.0025987
0.00906456
0.00566678
0.00484795
0.00513365
0.0051188
0.00492479
0.00494737
0.00515587
0.00564664
0.00635677
0.00709705
0.00768589
0.00803707
0.00817319
0.00815942
0.00802156
0.00791528
0.0079227
0.00796373
0.00796297
0.00788724
0.00772384
0.00744586
0.00698765
0.00647956
0.00596062
0.00544542
0.00492978
0.00440405
0.00385689
0.0032808
0.00268435
0.00212569
0.00170865
0.00134757
0.00111636
0.00128535
0.00205768
0.00186183
0.00288959
0.0103272
0.00795457
0.00582269
0.00552943
0.00545821
0.00516559
0.00501509
0.00518279
0.00572049
0.00650947
0.00731092
0.00791486
0.0082395
0.00835458
0.00842904
0.00860403
0.00885599
0.00903678
0.00906655
0.00894261
0.00869497
0.00835324
0.00793859
0.00745685
0.00694528
0.00642345
0.00589792
0.00536885
0.00483358
0.00428992
0.00374134
0.0032041
0.00271799
0.00232501
0.00190998
0.0013356
0.00198507
0.00385744
0.00248289
0.00296463
0.00955191
0.00818807
0.00715345
0.00657101
0.00581907
0.00520383
0.00500351
0.0053036
0.00604498
0.00700631
0.00788756
0.00848995
0.00878136
0.00888308
0.00897608
0.00913613
0.00925316
0.00924201
0.00907736
0.00877495
0.00836767
0.00789082
0.0073909
0.00688932
0.00640287
0.00593605
0.00548831
0.00506028
0.00465518
0.00427849
0.00393634
0.00363171
0.00335899
0.00308238
0.00272244
0.00202382
0.00271831
0.0066464
0.00335367
0.00290578
0.00349862
0.00387762
0.00399451
0.00394573
0.00393266
0.00411448
0.004661
0.00560548
0.00681133
0.00798742
0.00884087
0.00930058
0.00944264
0.00940216
0.00920456
0.00893561
0.00870765
0.00846265
0.0081545
0.00778143
0.00736703
0.00694213
0.00653989
0.0061784
0.00586527
0.00560034
0.00538184
0.00520943
0.00508305
0.00500006
0.0049514
0.00491684
0.00485925
0.00471734
0.00441548
0.00374149
0.00411657
0.0085044
0.00372223
0.00138611
0.00216208
0.00283516
0.00372901
0.00489848
0.00618818
0.00749447
0.00869901
0.00953972
0.00985187
0.00979178
0.00946989
0.00904468
0.00869133
0.00843091
0.00822235
0.00802393
0.00781616
0.00760091
0.00738937
0.0071938
0.0070244
0.00688695
0.00678445
0.00671852
0.00669067
0.00670214
0.00675254
0.00683716
0.0069431
0.00704365
0.00709042
0.00700103
0.00671041
0.00618452
0.00629441
0.00882937
0.0031334
0.00166611
0.00301216
0.00482961
0.00665067
0.00783175
0.00879066
0.00969398
0.0105277
0.0108745
0.0106229
0.0100315
0.00948076
0.00908939
0.00885035
0.00871554
0.00863537
0.00857557
0.00851856
0.00845874
0.00839745
0.00833931
0.00828965
0.00825334
0.00823482
0.00823791
0.00826583
0.00832113
0.00840506
0.00851569
0.00864403
0.00876547
0.00882266
0.00870569
0.00831929
0.00771411
0.00726425
0.00683451
0.00261113
0.00152601
0.00163519
0.0017486
0.00196911
0.00208545
0.00213593
0.00222472
0.00231419
0.00237497
0.00239093
0.00235396
0.00229482
0.00223178
0.00217935
0.00214683
0.00212922
0.0021208
0.00211702
0.0021149
0.00211295
0.00211077
0.00210853
0.00210664
0.00210553
0.00210559
0.0021071
0.00211026
0.00211524
0.00212214
0.00213088
0.00214101
0.00215109
0.0021576
0.00215446
0.00213998
0.0021308
0.00217087
0.00228265
0.00238175
0.00215845
)
;

boundaryField
{
    floor
    {
        type            compressible::alphatWallFunction;
        Prt             0.85;
        value           nonuniform List<scalar> 
29
(
0.000146593
9.86337e-05
0.000115136
0.00010875
0.000116348
0.000111856
0.000105264
9.55014e-05
8.594e-05
7.76471e-05
7.06233e-05
6.46558e-05
5.95342e-05
5.50638e-05
5.11657e-05
4.76073e-05
4.41821e-05
4.20028e-05
4.79253e-05
7.10516e-05
7.10507e-05
8.92964e-05
0.000103027
0.000114173
0.000146591
9.86325e-05
0.000148219
0.000168674
0.00020857
)
;
    }
    ceiling
    {
        type            compressible::alphatWallFunction;
        Prt             0.85;
        value           nonuniform List<scalar> 
43
(
0.000214821
0.000229416
0.000244466
0.000273453
0.000288612
0.000295172
0.000306651
0.000318162
0.000325954
0.000327998
0.000323268
0.000315688
0.000307585
0.000300827
0.000296628
0.000294352
0.000293263
0.000292774
0.0002925
0.000292248
0.000291966
0.000291676
0.000291431
0.000291288
0.000291295
0.00029149
0.0002919
0.000292545
0.000293438
0.00029457
0.00029588
0.000297183
0.000298025
0.000297619
0.000295747
0.000294558
0.00029974
0.000314138
0.00032684
0.000298138
0.00039316
0.000466651
0.000233492
)
;
    }
    sWall
    {
        type            compressible::alphatWallFunction;
        Prt             0.85;
        value           uniform 0.000213829;
    }
    nWall
    {
        type            compressible::alphatWallFunction;
        Prt             0.85;
        value           nonuniform List<scalar> 6(0.000196723 0.00025962 0.000339872 0.000421654 0.00035616 0.000298263);
    }
    sideWalls
    {
        type            empty;
    }
    glass1
    {
        type            compressible::alphatWallFunction;
        Prt             0.85;
        value           nonuniform List<scalar> 9(0.000155977 0.000202489 0.00024034 0.000275855 0.000311795 0.000350177 0.000386668 0.000396088 0.000388875);
    }
    glass2
    {
        type            compressible::alphatWallFunction;
        Prt             0.85;
        value           nonuniform List<scalar> 2(0.000451672 0.000497045);
    }
    sun
    {
        type            compressible::alphatWallFunction;
        Prt             0.85;
        value           nonuniform List<scalar> 
14
(
0.000158893
0.000174417
0.000179972
0.000188915
0.00019719
0.000205147
0.000213329
0.000220773
0.000226261
0.000228799
0.000227341
0.000220982
0.000208432
0.000182566
)
;
    }
    heatsource1
    {
        type            compressible::alphatWallFunction;
        Prt             0.85;
        value           nonuniform List<scalar> 3(0.000113172 0.000135196 0.000196302);
    }
    heatsource2
    {
        type            compressible::alphatWallFunction;
        Prt             0.85;
        value           nonuniform List<scalar> 4(0.000179978 0.000133444 0.000133443 0.000180422);
    }
    Table_master
    {
        type            compressible::alphatWallFunction;
        Prt             0.85;
        value           nonuniform List<scalar> 9(0.000142029 0.000119789 0.000102262 8.84045e-05 7.73456e-05 6.84358e-05 6.12183e-05 5.55213e-05 5.13253e-05);
    }
    Table_slave
    {
        type            compressible::alphatWallFunction;
        Prt             0.85;
        value           nonuniform List<scalar> 9(0.000159718 0.000143399 0.000130889 0.000120778 0.000112078 0.000104154 9.65384e-05 8.88021e-05 8.03094e-05);
    }
    inlet
    {
        type            fixedValue;
        value           uniform 1.94e-05;
    }
    outlet
    {
        type            zeroGradient;
    }
}


// ************************************************************************* //
