/*--------------------------------*- C++ -*----------------------------------*\
  =========                 |
  \\      /  F ield         | OpenFOAM: The Open Source CFD Toolbox
   \\    /   O peration     | Website:  https://openfoam.org
    \\  /    A nd           | Version:  6
     \\/     M anipulation  |
\*---------------------------------------------------------------------------*/
FoamFile
{
    version     2.0;
    format      ascii;
    class       volScalarField;
    location    "900";
    object      epsilon;
}
// * * * * * * * * * * * * * * * * * * * * * * * * * * * * * * * * * * * * * //

dimensions      [0 2 -3 0 0 0 0];

internalField   nonuniform List<scalar> 
459
(
0.000447081
0.00058345
0.000616976
0.000710464
0.000805052
0.000900911
0.00100208
0.0011077
0.00118633
0.0012202
0.00119457
0.00110497
0.000960963
0.000788684
0.000624629
3.79734e-05
6.95484e-05
9.90101e-05
9.70732e-05
8.73054e-05
7.55314e-05
6.23699e-05
5.09496e-05
4.18782e-05
3.47874e-05
2.92189e-05
2.47991e-05
2.12626e-05
1.83887e-05
1.59794e-05
1.38613e-05
1.18632e-05
1.05334e-05
7.93744e-06
0.00113002
0.00162011
0.000552724
0.000536727
0.000563001
0.000605175
0.000666572
0.000747658
0.00082476
0.000874181
0.00087657
0.00082542
0.000727373
0.000605841
0.000522014
0.00066363
0.000134853
4.79932e-05
0.000118409
0.00012372
0.000111531
9.43353e-05
7.85428e-05
7.02084e-05
5.68006e-05
4.50301e-05
3.57153e-05
2.85328e-05
2.30161e-05
1.87797e-05
1.55358e-05
1.31542e-05
1.1715e-05
1.10876e-05
2.48499e-05
1.75483e-05
0.00205764
0.00395698
0.000689227
0.000514762
0.000539909
0.000606777
0.000704942
0.000827737
0.000940997
0.00101158
0.00102145
0.00097077
0.000869754
0.000741041
0.000628617
0.000568327
0.000654957
0.000380992
0.000268504
0.000201238
0.000154699
0.000121324
0.000101472
0.000183102
0.000125975
8.98264e-05
6.63032e-05
5.05013e-05
3.9557e-05
3.17798e-05
2.61665e-05
2.21356e-05
1.67822e-05
1.39363e-05
4.39605e-05
2.70143e-05
0.00332706
0.00819477
0.00110311
0.000529002
0.000534257
0.000630565
0.000784122
0.000972074
0.00112017
0.00119564
0.00119435
0.00112768
0.00100724
0.00085484
0.000715462
0.000614573
0.000586855
0.0011218
0.000621137
0.0003722
0.000248932
0.000179002
0.000135923
0.000115829
0.00026298
0.000198119
0.000158803
0.00013256
0.000112697
9.64138e-05
8.23515e-05
6.91761e-05
5.57898e-05
3.2799e-05
2.12579e-05
6.81296e-05
3.63434e-05
0.00507233
0.0145707
0.0022012
0.000653467
0.000567624
0.000697205
0.000974711
0.00125185
0.00140758
0.00145581
0.0014199
0.00131788
0.00116167
0.0009717
0.000778431
0.000608169
0.000480351
0.000419542
0.000337523
0.000264177
0.000205818
0.000161438
0.000128721
0.000107298
0.000103285
9.5595e-05
8.79296e-05
8.04774e-05
7.28359e-05
6.49503e-05
5.72227e-05
4.99557e-05
4.32974e-05
3.42828e-05
2.5974e-05
5.06732e-05
4.00408e-05
6.79933e-05
0.000121016
0.000171116
0.00749563
0.0215937
0.00495405
0.00131526
0.000907013
0.00105928
0.0015631
0.00180783
0.00187113
0.00183581
0.00173843
0.00158352
0.00137251
0.00112229
0.000865323
0.000636909
0.00046437
0.000355501
0.000284656
0.000229676
0.000183781
0.000147305
0.000120266
0.000102469
9.37488e-05
8.95923e-05
8.67702e-05
8.35366e-05
7.88698e-05
7.19504e-05
6.28468e-05
5.34604e-05
4.48827e-05
3.7188e-05
3.20116e-05
4.01282e-05
4.15681e-05
5.19419e-05
0.000222836
0.000194227
0.0102782
0.0257855
0.0101288
0.00427361
0.00298411
0.00294286
0.00294453
0.00279543
0.00259512
0.00239265
0.00218312
0.00193863
0.0016417
0.00130643
0.000971263
0.000679975
0.000467249
0.000335045
0.000255804
0.000201974
0.00016097
0.000130667
0.000110296
9.88352e-05
9.48201e-05
9.52256e-05
9.71527e-05
9.91112e-05
0.000100064
9.8514e-05
9.144e-05
8.08577e-05
7.03496e-05
6.13247e-05
5.75796e-05
6.34664e-05
7.98596e-05
0.000126696
0.000293809
0.000286546
0.0108848
0.0278942
0.0156263
0.0107656
0.00818352
0.00636384
0.00502473
0.00411887
0.00352326
0.003108
0.00275714
0.00238483
0.00195457
0.00149259
0.00105174
0.000682833
0.000433743
0.000290646
0.00021022
0.000164482
0.000133676
0.000113569
0.00010221
9.79703e-05
9.92308e-05
0.000104228
0.000111701
0.000121343
0.000133289
0.000147471
0.000162905
0.00017235
0.000180994
0.000199444
0.000238179
0.000354692
0.000650075
0.00122809
0.00364389
0.00109255
0.0100396
0.0167286
0.0133181
0.0101166
0.00781849
0.00629195
0.00531507
0.00470259
0.00428309
0.00390225
0.00345231
0.00288148
0.0022085
0.00154642
0.000976593
0.000530629
0.000316947
0.000215618
0.00016207
0.000130721
0.000111324
0.000100267
9.55784e-05
9.58708e-05
0.000100138
0.000107764
0.000118714
0.000133658
0.000153902
0.000181311
0.000218363
0.000268796
0.000338376
0.000443579
0.000599059
0.000811846
0.0010586
0.00127812
0.00144764
0.00091143
0.00362529
0.00558479
0.00653879
0.00667747
0.00652356
0.00616027
0.00554676
0.00470395
0.00371357
0.00262025
0.0015268
0.000872057
0.000493856
0.000288632
0.000191557
0.000143762
0.000118107
0.000103237
9.44303e-05
8.98133e-05
8.81398e-05
8.87397e-05
9.13757e-05
9.62328e-05
0.000103869
0.000115215
0.00013168
0.000155309
0.000189049
0.000237142
0.000304568
0.000398098
0.000521459
0.000664596
0.00079183
0.000853583
0.000817629
0.000525958
0.00274432
0.00637259
0.00709795
0.00593627
0.00530628
0.00459982
0.0036729
0.0027156
0.00188225
0.00123139
0.00073762
0.000438769
0.000276316
0.000195164
0.000157759
0.000140634
0.000132548
0.000128347
0.000125699
0.000123631
0.000121898
0.000120562
0.000120096
0.000121253
0.000124839
0.000131697
0.000143053
0.000160721
0.000187362
0.00022635
0.000282133
0.00035925
0.000458344
0.000571663
0.000657429
0.000750401
0.000757138
0.000558032
0.00197331
0.00234798
0.00263959
0.00330276
0.00299596
0.00265502
0.00244647
0.00216452
0.00179654
0.00139987
0.00102871
0.000719313
0.000485743
0.00033157
0.000239853
0.000186154
0.000153292
0.00013203
0.000117761
0.000108124
0.000101796
9.80375e-05
9.64153e-05
9.69602e-05
9.99148e-05
0.0001054
0.00011354
0.000124895
0.000140342
0.000161099
0.000187761
0.000221683
0.000264927
0.000320091
0.000389449
0.000483745
0.000518051
0.000479469
0.000397831
0.000322272
)
;

boundaryField
{
    floor
    {
        Cmu             0.09;
        kappa           0.41;
        E               9.8;
        type            epsilonWallFunction;
        value           nonuniform List<scalar> 
29
(
0.000624629
3.79734e-05
6.95484e-05
9.90101e-05
9.70732e-05
8.73054e-05
7.55314e-05
6.23699e-05
5.09496e-05
4.18782e-05
3.47874e-05
2.92189e-05
2.47991e-05
2.12626e-05
1.83887e-05
1.59794e-05
1.38613e-05
1.18632e-05
1.05334e-05
7.93744e-06
7.93744e-06
1.75483e-05
2.70143e-05
3.63434e-05
0.000624629
3.79734e-05
4.79932e-05
0.000380992
0.0011218
)
;
    }
    ceiling
    {
        Cmu             0.09;
        kappa           0.41;
        E               9.8;
        type            epsilonWallFunction;
        value           nonuniform List<scalar> 
43
(
0.00197331
0.00234798
0.00263959
0.00330276
0.00299596
0.00265502
0.00244647
0.00216452
0.00179654
0.00139987
0.00102871
0.000719313
0.000485743
0.00033157
0.000239853
0.000186154
0.000153292
0.00013203
0.000117761
0.000108124
0.000101796
9.80375e-05
9.64153e-05
9.69602e-05
9.99148e-05
0.0001054
0.00011354
0.000124895
0.000140342
0.000161099
0.000187761
0.000221683
0.000264927
0.000320091
0.000389449
0.000483745
0.000518051
0.000479469
0.000397831
0.000322272
0.0100396
0.0167286
0.00274432
)
;
    }
    sWall
    {
        Cmu             0.09;
        kappa           0.41;
        E               9.8;
        type            epsilonWallFunction;
        value           uniform 0.00197331;
    }
    nWall
    {
        Cmu             0.09;
        kappa           0.41;
        E               9.8;
        type            epsilonWallFunction;
        value           nonuniform List<scalar> 6(0.000171116 0.000194227 0.000286546 0.000525958 0.000558032 0.000322272);
    }
    sideWalls
    {
        type            empty;
    }
    glass1
    {
        Cmu             0.09;
        kappa           0.41;
        E               9.8;
        type            epsilonWallFunction;
        value           nonuniform List<scalar> 9(0.000447081 0.00113002 0.00205764 0.00332706 0.00507233 0.00749563 0.0102782 0.0108848 0.0100396);
    }
    glass2
    {
        Cmu             0.09;
        kappa           0.41;
        E               9.8;
        type            epsilonWallFunction;
        value           nonuniform List<scalar> 2(0.00109255 0.00091143);
    }
    sun
    {
        Cmu             0.09;
        kappa           0.41;
        E               9.8;
        type            epsilonWallFunction;
        value           nonuniform List<scalar> 
14
(
0.000447081
0.00058345
0.000616976
0.000710464
0.000805052
0.000900911
0.00100208
0.0011077
0.00118633
0.0012202
0.00119457
0.00110497
0.000960963
0.000788684
)
;
    }
    heatsource1
    {
        Cmu             0.09;
        kappa           0.41;
        E               9.8;
        type            epsilonWallFunction;
        value           nonuniform List<scalar> 3(6.79933e-05 0.000121016 0.000171116);
    }
    heatsource2
    {
        Cmu             0.09;
        kappa           0.41;
        E               9.8;
        type            epsilonWallFunction;
        value           nonuniform List<scalar> 4(0.00066363 0.000134853 0.000134853 0.000654957);
    }
    Table_master
    {
        Cmu             0.09;
        kappa           0.41;
        E               9.8;
        type            epsilonWallFunction;
        value           nonuniform List<scalar> 9(0.000183102 0.000125975 8.98264e-05 6.63032e-05 5.05013e-05 3.9557e-05 3.17798e-05 2.61665e-05 2.21356e-05);
    }
    Table_slave
    {
        Cmu             0.09;
        kappa           0.41;
        E               9.8;
        type            epsilonWallFunction;
        value           nonuniform List<scalar> 9(0.00026298 0.000198119 0.000158803 0.00013256 0.000112697 9.64138e-05 8.23515e-05 6.91761e-05 5.57898e-05);
    }
    inlet
    {
        type            turbulentMixingLengthDissipationRateInlet;
        mixingLength    0.01;
        phi             phi;
        k               k;
        value           uniform 0.000101881;
    }
    outlet
    {
        type            zeroGradient;
    }
}


// ************************************************************************* //
