// -*- C++ -*-
// File generated by PyFoam - sorry for the ugliness

FoamFile
{
 version 2.0;
 format ascii;
 class volScalarField;
 location "340";
 object T;
}

dimensions [ 0 0 0 1 0 0 0 ];

internalField nonuniform List<scalar> 459
(
  301.153
  301.118
  301.117
  301.117
  301.118
  301.12
  301.127
  301.146
  301.193
  301.218
  301.235
  301.244
  301.251
  301.256
  301.257
  301.598
  301.571
  301.55
  301.554
  301.568
  301.582
  301.592
  301.602
  301.611
  301.62
  301.629
  301.638
  301.647
  301.656
  301.665
  301.675
  301.687
  301.702
  301.729
  301.167
  301.116
  301.109
  301.105
  301.102
  301.101
  301.108
  301.137
  301.199
  301.243
  301.273
  301.289
  301.294
  301.291
  301.282
  301.288
  301.298
  301.595
  301.546
  301.523
  301.537
  301.562
  301.585
  301.6
  301.612
  301.625
  301.637
  301.65
  301.662
  301.675
  301.686
  301.697
  301.706
  301.713
  301.722
  301.744
  301.182
  301.115
  301.103
  301.097
  301.092
  301.085
  301.086
  301.123
  301.199
  301.266
  301.311
  301.334
  301.339
  301.332
  301.319
  301.312
  301.31
  301.544
  301.468
  301.485
  301.523
  301.567
  301.603
  301.613
  301.624
  301.637
  301.651
  301.665
  301.68
  301.695
  301.709
  301.721
  301.731
  301.736
  301.739
  301.755
  301.198
  301.118
  301.104
  301.098
  301.092
  301.077
  301.067
  301.108
  301.197
  301.289
  301.354
  301.387
  301.392
  301.381
  301.361
  301.343
  301.329
  301.336
  301.367
  301.409
  301.472
  301.54
  301.604
  301.655
  301.696
  301.726
  301.752
  301.777
  301.8
  301.823
  301.845
  301.866
  301.885
  301.838
  301.799
  301.773
  301.77
  301.216
  301.126
  301.111
  301.108
  301.103
  301.074
  301.053
  301.093
  301.196
  301.315
  301.405
  301.449
  301.455
  301.438
  301.412
  301.388
  301.372
  301.381
  301.414
  301.473
  301.547
  301.623
  301.692
  301.749
  301.796
  301.831
  301.862
  301.888
  301.91
  301.927
  301.941
  301.95
  301.951
  301.916
  301.864
  301.82
  301.795
  301.804
  301.818
  301.851
  301.235
  301.139
  301.125
  301.127
  301.114
  301.071
  301.042
  301.082
  301.202
  301.352
  301.467
  301.523
  301.529
  301.506
  301.475
  301.451
  301.443
  301.467
  301.521
  301.592
  301.671
  301.745
  301.81
  301.861
  301.902
  301.935
  301.961
  301.982
  301.999
  302.012
  302.02
  302.021
  302.012
  301.981
  301.933
  301.888
  301.849
  301.842
  301.846
  301.866
  301.256
  301.16
  301.15
  301.151
  301.117
  301.058
  301.024
  301.074
  301.222
  301.406
  301.547
  301.611
  301.615
  301.588
  301.56
  301.546
  301.557
  301.602
  301.67
  301.745
  301.818
  301.883
  301.936
  301.977
  302.009
  302.031
  302.047
  302.061
  302.072
  302.08
  302.082
  302.078
  302.064
  302.037
  301.998
  301.96
  301.913
  301.889
  301.879
  301.882
  301.284
  301.212
  301.201
  301.171
  301.096
  301.018
  300.993
  301.076
  301.27
  301.496
  301.657
  301.714
  301.713
  301.694
  301.681
  301.684
  301.716
  301.776
  301.846
  301.911
  301.97
  302.017
  302.053
  302.079
  302.094
  302.105
  302.113
  302.119
  302.12
  302.118
  302.111
  302.1
  302.085
  302.065
  302.035
  302.002
  301.96
  301.931
  301.913
  301.925
  301.325
  301.29
  301.264
  301.132
  300.993
  300.92
  300.947
  301.11
  301.386
  301.655
  301.795
  301.835
  301.837
  301.835
  301.841
  301.862
  301.902
  301.957
  302.014
  302.062
  302.099
  302.124
  302.141
  302.15
  302.154
  302.154
  302.15
  302.142
  302.129
  302.112
  302.092
  302.07
  302.048
  302.027
  302.009
  301.993
  301.982
  301.978
  301.982
  302.003
  300.221
  300.327
  300.494
  300.703
  300.95
  301.292
  301.703
  301.874
  301.941
  301.966
  301.978
  301.99
  302.008
  302.034
  302.068
  302.105
  302.139
  302.165
  302.181
  302.191
  302.194
  302.192
  302.187
  302.179
  302.167
  302.153
  302.136
  302.117
  302.098
  302.078
  302.058
  302.041
  302.025
  302.013
  302.007
  302.009
  302.027
  302.108
  301.149
  301.281
  301.393
  301.526
  301.668
  301.809
  301.943
  302.023
  302.062
  302.084
  302.1
  302.116
  302.134
  302.154
  302.175
  302.195
  302.21
  302.22
  302.224
  302.224
  302.22
  302.213
  302.203
  302.192
  302.179
  302.164
  302.148
  302.132
  302.115
  302.099
  302.082
  302.067
  302.052
  302.04
  302.032
  302.032
  302.057
  302.097
  301.664
  301.651
  301.645
  301.769
  301.862
  301.938
  302.003
  302.061
  302.109
  302.142
  302.163
  302.178
  302.191
  302.202
  302.213
  302.223
  302.231
  302.236
  302.239
  302.238
  302.234
  302.228
  302.22
  302.21
  302.199
  302.187
  302.173
  302.159
  302.145
  302.13
  302.117
  302.104
  302.092
  302.081
  302.071
  302.063
  302.057
  302.061
  302.084
  302.124
)
;

boundaryField
{
  floor
  {
    type wallHeatTransfer;
    Tinf uniform 299.755;
    alphaWall uniform 0.24;
    value nonuniform List<scalar> 29
(
  301.047
  301.237
  301.271
  301.277
  301.291
  301.301
  301.307
  301.304
  301.298
  301.292
  301.286
  301.28
  301.275
  301.271
  301.267
  301.262
  301.258
  301.252
  301.24
  301.232
  301.232
  301.281
  301.312
  301.352
  301.047
  301.237
  301.308
  301.278
  301.118
)
;
  }
  ceiling
  {
    type wallHeatTransfer;
    Tinf uniform 299.755;
    alphaWall uniform 0.24;
    value nonuniform List<scalar> 43
(
  301.518
  301.516
  301.517
  301.64
  301.72
  301.781
  301.833
  301.877
  301.913
  301.937
  301.954
  301.966
  301.977
  301.988
  301.998
  302.007
  302.015
  302.019
  302.021
  302.02
  302.015
  302.009
  302.001
  301.992
  301.982
  301.971
  301.959
  301.945
  301.932
  301.917
  301.902
  301.887
  301.872
  301.856
  301.841
  301.827
  301.814
  301.812
  301.837
  301.867
  301.199
  301.179
  301.067
)
;
  }
  sWall
  {
    type wallHeatTransfer;
    Tinf uniform 303.161;
    alphaWall uniform 0.36;
    value uniform 301.828;
  }
  nWall
  {
    type wallHeatTransfer;
    Tinf uniform 303.145;
    alphaWall uniform 0.36;
    value nonuniform List<scalar> 6
(
  302.206
  302.18
  302.165
  302.262
  302.238
  302.281
)
;
  }
  sideWalls
  {
    type empty;
  }
  glass1
  {
    type wallHeatTransfer;
    Tinf uniform 303.161;
    alphaWall uniform 4.3;
    value nonuniform List<scalar> 9
(
  302.644
  302.584
  302.541
  302.504
  302.469
  302.437
  302.417
  302.423
  302.448
)
;
  }
  glass2
  {
    type wallHeatTransfer;
    Tinf uniform 303.145;
    alphaWall uniform 4.3;
    value nonuniform List<scalar> 2
(
  302.837
  302.826
)
;
  }
  sun
  {
    type wallHeatTransfer;
    Tinf uniform 299.755;
    alphaWall uniform 0.24;
    value nonuniform List<scalar> 14
(
  300.96
  300.946
  300.952
  300.96
  300.969
  300.977
  300.989
  301.01
  301.049
  301.067
  301.074
  301.073
  301.069
  301.062
)
;
  }
  heatsource1
  {
    type fixedGradient;
    gradient uniform 0;
  }
  heatsource2
  {
    type fixedGradient;
    gradient uniform 0;
  }
  Table_master
  {
    type zeroGradient;
  }
  Table_slave
  {
    type zeroGradient;
  }
  inlet
  {
    type fixedValue;
    value uniform 300.15;
  }
  outlet
  {
    type zeroGradient;
  }
} 	// ************************************************************************* //

