/*--------------------------------*- C++ -*----------------------------------*\
  =========                 |
  \\      /  F ield         | OpenFOAM: The Open Source CFD Toolbox
   \\    /   O peration     | Website:  https://openfoam.org
    \\  /    A nd           | Version:  6
     \\/     M anipulation  |
\*---------------------------------------------------------------------------*/
FoamFile
{
    version     2.0;
    format      ascii;
    class       volScalarField;
    location    "460";
    object      epsilon;
}
// * * * * * * * * * * * * * * * * * * * * * * * * * * * * * * * * * * * * * //

dimensions      [0 2 -3 0 0 0 0];

internalField   nonuniform List<scalar> 
459
(
0.00013482
0.000229331
0.000338074
0.000339618
0.00031261
0.000281
0.000251558
0.000225105
0.000202375
0.000182224
0.000163379
0.000144845
0.000125656
0.000104381
8.29693e-05
5.01009e-05
0.000104749
0.000110549
0.000104128
9.2267e-05
7.93519e-05
6.55301e-05
5.38048e-05
4.46034e-05
3.74491e-05
3.18365e-05
2.73659e-05
2.37328e-05
2.0745e-05
1.81646e-05
1.57886e-05
1.3541e-05
1.06315e-05
1.09131e-05
0.000286289
0.00057372
0.000353786
0.000291948
0.00023747
0.0001933
0.000162998
0.000143071
0.000129917
0.000120264
0.000111592
0.000102384
9.20801e-05
8.02885e-05
6.87633e-05
8.00815e-05
5.72484e-05
0.000172831
0.000402282
0.00017008
0.000111297
8.5469e-05
6.97159e-05
6.38373e-05
5.21978e-05
4.17941e-05
3.35038e-05
2.7075e-05
2.21033e-05
1.82138e-05
1.51995e-05
1.29445e-05
1.17897e-05
1.47285e-05
1.80522e-05
2.30327e-05
0.000386152
0.000738492
0.000342306
0.000276723
0.000216684
0.000166085
0.000135598
0.000119557
0.000110145
0.000102934
9.52764e-05
8.62579e-05
7.6358e-05
6.62776e-05
5.77558e-05
5.5992e-05
6.08972e-05
0.000137926
0.00028942
0.000149787
0.00010551
8.40947e-05
7.39505e-05
0.000149883
0.000103493
7.35287e-05
5.38519e-05
4.06052e-05
3.14568e-05
2.50168e-05
2.05976e-05
1.77684e-05
1.33259e-05
1.52282e-05
3.0758e-05
3.56734e-05
0.000460655
0.000733603
0.000307321
0.000278329
0.000217163
0.00014762
0.000110418
9.51546e-05
8.90689e-05
8.48336e-05
7.92756e-05
7.19983e-05
6.39147e-05
5.60702e-05
5.00188e-05
4.70624e-05
5.12437e-05
6.81169e-05
0.000114325
9.80156e-05
8.89079e-05
8.28379e-05
7.64255e-05
7.49491e-05
0.000196523
0.000152111
0.00012207
9.93016e-05
8.06268e-05
6.45519e-05
5.03505e-05
3.76631e-05
2.59693e-05
1.42197e-05
1.44833e-05
6.37392e-05
5.66972e-05
0.000492126
0.000684721
0.000316768
0.00032066
0.000254576
0.000138665
8.43271e-05
6.78007e-05
6.59655e-05
6.55514e-05
6.329e-05
5.91917e-05
5.43283e-05
4.98406e-05
4.72464e-05
4.69306e-05
5.46694e-05
6.2502e-05
7.18186e-05
8.50415e-05
9.34022e-05
9.42465e-05
8.88371e-05
8.15703e-05
8.27922e-05
8.01128e-05
7.64729e-05
7.06018e-05
6.2552e-05
5.29371e-05
4.23652e-05
3.15179e-05
2.00813e-05
1.23572e-05
1.26655e-05
5.3543e-05
6.84378e-05
7.4866e-05
9.12884e-05
0.000260803
0.000512672
0.000723587
0.000348179
0.000397224
0.000329535
0.000144799
7.02194e-05
5.30168e-05
5.22606e-05
5.3471e-05
5.37032e-05
5.26805e-05
5.13289e-05
5.08224e-05
5.3035e-05
5.97061e-05
7.52539e-05
9.47232e-05
0.000114613
0.000128555
0.000132525
0.000125977
0.000112506
9.75067e-05
8.59623e-05
7.75279e-05
7.03229e-05
6.23409e-05
5.31666e-05
4.31493e-05
3.27314e-05
2.29692e-05
1.52155e-05
1.20805e-05
1.41459e-05
3.28208e-05
5.75745e-05
0.000109332
0.000422286
0.0006206
0.000548987
0.000996531
0.000395244
0.000512204
0.000445979
0.000189565
8.57138e-05
6.07961e-05
5.78024e-05
5.90269e-05
6.0665e-05
6.22835e-05
6.45236e-05
6.90341e-05
7.76189e-05
9.33195e-05
0.000118882
0.000150125
0.000174336
0.000183352
0.000175335
0.000155032
0.00012971
0.000105519
8.65329e-05
7.44101e-05
6.46505e-05
5.52427e-05
4.59854e-05
3.73573e-05
3.00443e-05
2.4878e-05
2.24679e-05
2.32295e-05
2.62658e-05
3.44537e-05
6.07586e-05
0.000246297
0.00135763
0.00156645
0.000535634
0.00121224
0.000461856
0.000666834
0.000609547
0.00026185
0.000133889
0.000106742
0.000104428
0.000107384
0.000111306
0.000115918
0.000122121
0.000131564
0.000146448
0.000171086
0.000203858
0.000236005
0.00025
0.00024166
0.000212714
0.000177887
0.000145783
0.000119696
0.00010079
8.75658e-05
7.74134e-05
6.93566e-05
6.35278e-05
6.05067e-05
6.09197e-05
6.51028e-05
7.2469e-05
8.06927e-05
8.67655e-05
9.52119e-05
0.00013489
0.000613419
0.00519446
0.00409953
0.000535499
0.000680094
0.000615958
0.000825511
0.000778851
0.000374114
0.000269159
0.000255704
0.000265266
0.000277144
0.000287315
0.000296291
0.000305699
0.000317419
0.0003332
0.000353936
0.000375692
0.000388492
0.000381476
0.000355428
0.00031962
0.000282563
0.000249986
0.000224226
0.000205052
0.00019173
0.000183636
0.000180998
0.000184612
0.00019544
0.000214141
0.000240233
0.000270728
0.000299375
0.000322033
0.000325642
0.000381322
0.00116917
0.0076251
0.00581583
0.000729003
0.00104515
0.000890486
0.000640068
0.000655006
0.000720112
0.000781923
0.000826764
0.000855334
0.000871753
0.000880123
0.000883795
0.000885197
0.000885259
0.000882316
0.000872583
0.000853487
0.000826593
0.000796154
0.000765682
0.000737029
0.000711564
0.000690705
0.00067641
0.000671027
0.000677267
0.000698035
0.000736082
0.000793039
0.000867171
0.000949683
0.00102324
0.00107671
0.00107313
0.00112313
0.00182837
0.00576666
0.00352508
0.00301782
0.003025
0.00206717
0.00165764
0.00179356
0.00200442
0.00218108
0.00230103
0.00237081
0.00240372
0.00241209
0.00240626
0.00239563
0.00238856
0.00238971
0.00239612
0.00239663
0.002383
0.00235594
0.00232026
0.0022796
0.00223752
0.00219876
0.00216962
0.002157
0.00216836
0.00221182
0.00229601
0.00242841
0.0026097
0.00282039
0.00299963
0.00303303
0.00290134
0.00265254
0.00268798
0.00321022
0.00208323
0.00076778
0.000912588
0.00126459
0.00150216
0.00154737
0.00153682
0.00154913
0.00156976
0.00158673
0.00159804
0.00160514
0.00161004
0.00161449
0.00161967
0.00162587
0.00163193
0.00163505
0.00163202
0.00162166
0.00160554
0.00158652
0.00156724
0.00154973
0.00153559
0.00152625
0.00152311
0.0015276
0.00154103
0.00156427
0.0015971
0.00163706
0.00167771
0.00170666
0.00170666
0.00167806
0.00162799
0.00163965
0.00175647
0.00180742
0.00126107
)
;

boundaryField
{
    floor
    {
        Cmu             0.09;
        kappa           0.41;
        E               9.8;
        type            epsilonWallFunction;
        value           nonuniform List<scalar> 
29
(
8.29693e-05
5.01009e-05
0.000104749
0.000110549
0.000104128
9.2267e-05
7.93519e-05
6.55301e-05
5.38048e-05
4.46034e-05
3.74491e-05
3.18365e-05
2.73659e-05
2.37328e-05
2.0745e-05
1.81646e-05
1.57886e-05
1.3541e-05
1.06315e-05
1.09131e-05
1.09131e-05
2.30327e-05
3.56734e-05
5.66972e-05
8.29693e-05
5.01009e-05
0.000172831
0.000137926
6.81169e-05
)
;
    }
    ceiling
    {
        Cmu             0.09;
        kappa           0.41;
        E               9.8;
        type            epsilonWallFunction;
        value           nonuniform List<scalar> 
43
(
0.00076778
0.000912588
0.00126459
0.00150216
0.00154737
0.00153682
0.00154913
0.00156976
0.00158673
0.00159804
0.00160514
0.00161004
0.00161449
0.00161967
0.00162587
0.00163193
0.00163505
0.00163202
0.00162166
0.00160554
0.00158652
0.00156724
0.00154973
0.00153559
0.00152625
0.00152311
0.0015276
0.00154103
0.00156427
0.0015971
0.00163706
0.00167771
0.00170666
0.00170666
0.00167806
0.00162799
0.00163965
0.00175647
0.00180742
0.00126107
0.000535499
0.000680094
0.00301782
)
;
    }
    sWall
    {
        Cmu             0.09;
        kappa           0.41;
        E               9.8;
        type            epsilonWallFunction;
        value           uniform 0.00076778;
    }
    nWall
    {
        Cmu             0.09;
        kappa           0.41;
        E               9.8;
        type            epsilonWallFunction;
        value           nonuniform List<scalar> 6(0.000260803 0.0006206 0.00156645 0.00352508 0.00208323 0.00126107);
    }
    sideWalls
    {
        type            empty;
    }
    glass1
    {
        Cmu             0.09;
        kappa           0.41;
        E               9.8;
        type            epsilonWallFunction;
        value           nonuniform List<scalar> 9(0.00013482 0.000286289 0.000386152 0.000460655 0.000492126 0.000512672 0.000548987 0.000535634 0.000535499);
    }
    glass2
    {
        Cmu             0.09;
        kappa           0.41;
        E               9.8;
        type            epsilonWallFunction;
        value           nonuniform List<scalar> 2(0.00409953 0.00581583);
    }
    sun
    {
        Cmu             0.09;
        kappa           0.41;
        E               9.8;
        type            epsilonWallFunction;
        value           nonuniform List<scalar> 
14
(
0.00013482
0.000229331
0.000338074
0.000339618
0.00031261
0.000281
0.000251558
0.000225105
0.000202375
0.000182224
0.000163379
0.000144845
0.000125656
0.000104381
)
;
    }
    heatsource1
    {
        Cmu             0.09;
        kappa           0.41;
        E               9.8;
        type            epsilonWallFunction;
        value           nonuniform List<scalar> 3(7.4866e-05 9.12884e-05 0.000260803);
    }
    heatsource2
    {
        Cmu             0.09;
        kappa           0.41;
        E               9.8;
        type            epsilonWallFunction;
        value           nonuniform List<scalar> 4(8.00815e-05 5.72484e-05 5.72484e-05 6.08972e-05);
    }
    Table_master
    {
        Cmu             0.09;
        kappa           0.41;
        E               9.8;
        type            epsilonWallFunction;
        value           nonuniform List<scalar> 9(0.000149883 0.000103493 7.35287e-05 5.38519e-05 4.06052e-05 3.14568e-05 2.50168e-05 2.05976e-05 1.77684e-05);
    }
    Table_slave
    {
        Cmu             0.09;
        kappa           0.41;
        E               9.8;
        type            epsilonWallFunction;
        value           nonuniform List<scalar> 9(0.000196523 0.000152111 0.00012207 9.93016e-05 8.06268e-05 6.45519e-05 5.03505e-05 3.76631e-05 2.59693e-05);
    }
    inlet
    {
        type            turbulentMixingLengthDissipationRateInlet;
        mixingLength    0.01;
        phi             phi;
        k               k;
        value           uniform 0.000101881;
    }
    outlet
    {
        type            zeroGradient;
    }
}


// ************************************************************************* //
