// -*- C++ -*-
// File generated by PyFoam - sorry for the ugliness

FoamFile
{
 version 2.0;
 format ascii;
 class volScalarField;
 location "460";
 object T;
}

dimensions [ 0 0 0 1 0 0 0 ];

internalField nonuniform List<scalar> 459
(
  300.724
  300.738
  300.756
  300.794
  300.825
  300.847
  300.86
  300.868
  300.875
  300.882
  300.888
  300.893
  300.898
  300.903
  300.901
  301.24
  301.242
  301.231
  301.242
  301.256
  301.27
  301.28
  301.29
  301.3
  301.309
  301.318
  301.327
  301.336
  301.345
  301.354
  301.364
  301.375
  301.39
  301.419
  300.731
  300.744
  300.758
  300.84
  300.912
  300.957
  300.982
  300.994
  301.001
  301.003
  301.001
  300.996
  300.985
  300.968
  300.944
  300.952
  300.966
  301.227
  301.202
  301.208
  301.231
  301.258
  301.281
  301.298
  301.313
  301.328
  301.343
  301.357
  301.372
  301.386
  301.398
  301.409
  301.416
  301.42
  301.422
  301.45
  300.721
  300.728
  300.742
  300.889
  301.018
  301.091
  301.124
  301.134
  301.133
  301.123
  301.106
  301.086
  301.061
  301.032
  300.999
  300.986
  300.983
  301.135
  301.143
  301.179
  301.224
  301.267
  301.3
  301.312
  301.327
  301.342
  301.359
  301.376
  301.393
  301.411
  301.428
  301.441
  301.449
  301.45
  301.448
  301.466
  300.708
  300.707
  300.719
  300.938
  301.14
  301.241
  301.276
  301.278
  301.257
  301.226
  301.193
  301.16
  301.125
  301.088
  301.049
  301.022
  301.005
  301.017
  301.055
  301.109
  301.181
  301.252
  301.312
  301.358
  301.392
  301.421
  301.449
  301.475
  301.501
  301.527
  301.553
  301.581
  301.608
  301.542
  301.504
  301.481
  301.484
  300.693
  300.684
  300.692
  300.961
  301.247
  301.375
  301.402
  301.383
  301.342
  301.299
  301.258
  301.218
  301.179
  301.14
  301.1
  301.07
  301.052
  301.067
  301.117
  301.191
  301.273
  301.35
  301.413
  301.461
  301.5
  301.533
  301.56
  301.583
  301.603
  301.622
  301.64
  301.655
  301.664
  301.611
  301.555
  301.522
  301.505
  301.517
  301.579
  301.796
  300.674
  300.657
  300.66
  300.946
  301.307
  301.463
  301.48
  301.448
  301.404
  301.361
  301.319
  301.277
  301.239
  301.201
  301.168
  301.145
  301.141
  301.18
  301.252
  301.335
  301.417
  301.486
  301.541
  301.581
  301.613
  301.636
  301.654
  301.67
  301.685
  301.698
  301.709
  301.715
  301.709
  301.666
  301.612
  301.586
  301.545
  301.545
  301.624
  301.766
  300.651
  300.621
  300.601
  300.902
  301.313
  301.508
  301.536
  301.51
  301.472
  301.434
  301.398
  301.363
  301.331
  301.3
  301.279
  301.275
  301.298
  301.359
  301.435
  301.512
  301.579
  301.633
  301.671
  301.7
  301.717
  301.728
  301.737
  301.747
  301.755
  301.762
  301.766
  301.764
  301.751
  301.721
  301.684
  301.649
  301.581
  301.575
  301.652
  301.756
  300.642
  300.586
  300.53
  300.827
  301.289
  301.547
  301.6
  301.59
  301.565
  301.539
  301.514
  301.491
  301.472
  301.457
  301.452
  301.468
  301.508
  301.571
  301.632
  301.688
  301.736
  301.769
  301.789
  301.799
  301.803
  301.807
  301.811
  301.815
  301.818
  301.82
  301.819
  301.813
  301.8
  301.779
  301.749
  301.706
  301.634
  301.61
  301.667
  301.759
  300.614
  300.579
  300.491
  300.77
  301.25
  301.595
  301.68
  301.689
  301.681
  301.671
  301.662
  301.654
  301.649
  301.65
  301.66
  301.683
  301.72
  301.765
  301.806
  301.838
  301.861
  301.873
  301.878
  301.879
  301.878
  301.877
  301.876
  301.876
  301.874
  301.871
  301.866
  301.857
  301.844
  301.825
  301.799
  301.762
  301.705
  301.664
  301.698
  301.772
  300.464
  300.81
  301.35
  301.69
  301.767
  301.787
  301.794
  301.797
  301.799
  301.803
  301.808
  301.817
  301.831
  301.85
  301.874
  301.898
  301.919
  301.932
  301.94
  301.942
  301.941
  301.938
  301.934
  301.93
  301.925
  301.921
  301.915
  301.908
  301.899
  301.887
  301.871
  301.851
  301.827
  301.797
  301.761
  301.73
  301.744
  301.775
  301.576
  301.621
  301.704
  301.798
  301.845
  301.865
  301.876
  301.885
  301.892
  301.9
  301.908
  301.918
  301.93
  301.943
  301.957
  301.968
  301.977
  301.981
  301.982
  301.98
  301.976
  301.971
  301.966
  301.96
  301.953
  301.946
  301.937
  301.927
  301.915
  301.9
  301.882
  301.862
  301.84
  301.817
  301.796
  301.779
  301.784
  301.792
  301.841
  301.831
  301.821
  301.838
  301.86
  301.889
  301.911
  301.924
  301.934
  301.943
  301.951
  301.959
  301.967
  301.975
  301.983
  301.989
  301.995
  301.998
  301.999
  301.998
  301.995
  301.991
  301.986
  301.98
  301.973
  301.966
  301.958
  301.948
  301.938
  301.925
  301.91
  301.893
  301.873
  301.854
  301.836
  301.82
  301.809
  301.802
  301.803
  301.807
)
;

boundaryField
{
  floor
  {
    type wallHeatTransfer;
    Tinf uniform 297.948;
    alphaWall uniform 0.24;
    value nonuniform List<scalar> 29
(
  300.436
  300.658
  300.75
  300.747
  300.75
  300.748
  300.741
  300.726
  300.709
  300.692
  300.675
  300.66
  300.645
  300.631
  300.618
  300.605
  300.59
  300.574
  300.546
  300.572
  300.572
  300.716
  300.796
  300.876
  300.436
  300.658
  300.793
  300.689
  300.511
)
;
  }
  ceiling
  {
    type wallHeatTransfer;
    Tinf uniform 297.948;
    alphaWall uniform 0.24;
    value nonuniform List<scalar> 43
(
  301.485
  301.491
  301.51
  301.539
  301.563
  301.588
  301.609
  301.622
  301.633
  301.641
  301.649
  301.657
  301.664
  301.672
  301.679
  301.686
  301.691
  301.694
  301.694
  301.692
  301.689
  301.684
  301.678
  301.672
  301.665
  301.659
  301.651
  301.643
  301.635
  301.625
  301.613
  301.598
  301.582
  301.564
  301.546
  301.529
  301.519
  301.518
  301.521
  301.497
  300.347
  300.332
  301.345
)
;
  }
  sWall
  {
    type wallHeatTransfer;
    Tinf uniform 300.167;
    alphaWall uniform 0.36;
    value uniform 301.621;
  }
  nWall
  {
    type wallHeatTransfer;
    Tinf uniform 299.15;
    alphaWall uniform 0.36;
    value nonuniform List<scalar> 6
(
  301.346
  301.405
  301.47
  301.542
  301.522
  301.499
)
;
  }
  sideWalls
  {
    type empty;
  }
  glass1
  {
    type wallHeatTransfer;
    Tinf uniform 300.167;
    alphaWall uniform 4.3;
    value nonuniform List<scalar> 9
(
  300.309
  300.334
  300.341
  300.343
  300.34
  300.335
  300.329
  300.326
  300.316
)
;
  }
  glass2
  {
    type wallHeatTransfer;
    Tinf uniform 299.15;
    alphaWall uniform 4.3;
    value nonuniform List<scalar> 2
(
  300.385
  300.458
)
;
  }
  sun
  {
    type wallHeatTransfer;
    Tinf uniform 297.948;
    alphaWall uniform 0.24;
    value nonuniform List<scalar> 14
(
  300.334
  300.393
  300.441
  300.475
  300.496
  300.506
  300.508
  300.506
  300.502
  300.498
  300.493
  300.486
  300.477
  300.462
)
;
  }
  heatsource1
  {
    type fixedGradient;
    gradient uniform 0;
  }
  heatsource2
  {
    type fixedGradient;
    gradient uniform 0;
  }
  Table_master
  {
    type zeroGradient;
  }
  Table_slave
  {
    type zeroGradient;
  }
  inlet
  {
    type fixedValue;
    value uniform 300.15;
  }
  outlet
  {
    type zeroGradient;
  }
} 	// ************************************************************************* //

