// -*- C++ -*-
// File generated by PyFoam - sorry for the ugliness

FoamFile
{
 version 2.0;
 format ascii;
 class volVectorField;
 location "460";
 object U;
}

dimensions [ 0 1 -1 0 0 0 0 ];

internalField nonuniform List<vector> 459
(
  (-0.066364 -0.0209011 0)
  (0.0347914 -0.00726722 0)
  (0.0534017 -0.0324169 0)
  (0.0911202 -0.0339575 0)
  (0.127863 -0.0258119 0)
  (0.153554 -0.0174705 0)
  (0.167205 -0.0110045 0)
  (0.171844 -0.00629678 0)
  (0.170169 -0.00264656 0)
  (0.164107 0.000484917 0)
  (0.154362 0.00350399 0)
  (0.140667 0.00696699 0)
  (0.121732 0.0120004 0)
  (0.0921305 0.0223949 0)
  (0.0861875 0.0510032 0)
  (-0.121197 0.00481384 0)
  (0.0359675 0.00482525 0)
  (0.00165586 -0.0104806 0)
  (0.0211766 -0.0155321 0)
  (0.0371136 -0.012865 0)
  (0.0496999 -0.00897817 0)
  (0.0578253 -0.00561117 0)
  (0.0623453 -0.00381342 0)
  (0.0647428 -0.00306386 0)
  (0.0662743 -0.00270047 0)
  (0.0674464 -0.00243294 0)
  (0.0682745 -0.00215749 0)
  (0.0685737 -0.00176102 0)
  (0.067893 -0.000980929 0)
  (0.0653759 0.000658232 0)
  (0.0593807 0.00396231 0)
  (0.0493333 0.00883312 0)
  (-4.87308e-05 0.0199511 0)
  (0.102105 0.00271823 0)
  (-0.121027 -0.0257402 0)
  (0.045256 -0.0190337 0)
  (0.0413886 -0.0606233 0)
  (0.0771338 -0.0619105 0)
  (0.108977 -0.0433034 0)
  (0.128998 -0.0247692 0)
  (0.138559 -0.0107227 0)
  (0.141047 -0.000632758 0)
  (0.138301 0.00674287 0)
  (0.132364 0.0125148 0)
  (0.124102 0.0176457 0)
  (0.113884 0.0231892 0)
  (0.102336 0.0305173 0)
  (0.0894222 0.0418854 0)
  (0.0896324 0.0640113 0)
  (0.0815583 0.0573089 0)
  (0.0505668 0.0501448 0)
  (-0.142773 0.00184605 0)
  (0.0391496 -0.0114547 0)
  (0.0294073 -0.0226656 0)
  (0.0400687 -0.0253032 0)
  (0.0512803 -0.0200975 0)
  (0.059082 -0.0127383 0)
  (0.0623522 -0.00577916 0)
  (0.0630778 -0.00188755 0)
  (0.0631601 -0.000285762 0)
  (0.0633967 0.00043853 0)
  (0.0637272 0.000933966 0)
  (0.0639953 0.00147146 0)
  (0.0641603 0.00237911 0)
  (0.0640345 0.00406386 0)
  (0.0630403 0.00756774 0)
  (0.0584603 0.015921 0)
  (0.050716 0.0243661 0)
  (-0.00140145 0.0368671 0)
  (0.157212 0.0228323 0)
  (-0.160321 -0.0294231 0)
  (0.0493168 -0.0332606 0)
  (0.0204433 -0.0932409 0)
  (0.0561926 -0.0956842 0)
  (0.0826311 -0.0657479 0)
  (0.0960815 -0.0374608 0)
  (0.100556 -0.0168747 0)
  (0.100078 -0.00241441 0)
  (0.0964442 0.00835592 0)
  (0.0919099 0.0166172 0)
  (0.0870275 0.0236174 0)
  (0.0820604 0.0306292 0)
  (0.0774786 0.0388318 0)
  (0.0727993 0.0490932 0)
  (0.0724066 0.0630478 0)
  (0.06452 0.0611964 0)
  (0.0490447 0.0770208 0)
  (-0.138743 -0.00619756 0)
  (0.053557 -0.0389916 0)
  (0.0541654 -0.0424881 0)
  (0.0594225 -0.0372728 0)
  (0.0652061 -0.0280417 0)
  (0.0686598 -0.0187835 0)
  (0.0667219 -0.0151013 0)
  (0.0612846 -0.0107906 0)
  (0.0571396 -0.00844523 0)
  (0.0548895 -0.00710258 0)
  (0.053545 -0.00622518 0)
  (0.0525901 -0.00555264 0)
  (0.0521364 -0.00479125 0)
  (0.0531309 -0.00328296 0)
  (0.0574343 0.00110531 0)
  (0.0565092 0.0201604 0)
  (0.0510922 0.0341063 0)
  (-0.0055139 0.0495153 0)
  (0.189671 0.0483037 0)
  (-0.180724 -0.0258692 0)
  (0.0418027 -0.04084 0)
  (-0.00271232 -0.11958 0)
  (0.0311696 -0.123873 0)
  (0.0509695 -0.0794504 0)
  (0.0579001 -0.0413406 0)
  (0.0571583 -0.015542 0)
  (0.0534612 0.00149058 0)
  (0.0511206 0.0127279 0)
  (0.0499716 0.020519 0)
  (0.0497175 0.0268908 0)
  (0.0501808 0.0332258 0)
  (0.0515021 0.0404063 0)
  (0.0534819 0.0488885 0)
  (0.0593484 0.0600045 0)
  (0.0681101 0.066739 0)
  (0.0797577 0.0828023 0)
  (0.104025 -0.021781 0)
  (0.0968331 -0.0267132 0)
  (0.0939666 -0.0415768 0)
  (0.0841763 -0.0442031 0)
  (0.0775278 -0.0380706 0)
  (0.0741155 -0.028337 0)
  (0.0721216 -0.0169635 0)
  (0.0731775 -0.00974583 0)
  (0.0755185 -0.00615309 0)
  (0.0749484 -0.00381025 0)
  (0.071649 -0.00219352 0)
  (0.0667257 -0.000951115 0)
  (0.0607024 0.00010999 0)
  (0.0535317 0.00116491 0)
  (0.0447 0.00248609 0)
  (0.0287552 0.00482378 0)
  (0.0289676 0.0280411 0)
  (0.0384063 0.0407478 0)
  (-0.0118907 0.054521 0)
  (0.210945 0.081083 0)
  (-0.197725 -0.0172324 0)
  (0.0292207 -0.0425943 0)
  (-0.0205077 -0.135634 0)
  (0.00578395 -0.144453 0)
  (0.0185717 -0.0853577 0)
  (0.0212541 -0.0387482 0)
  (0.017066 -0.0105756 0)
  (0.0133938 0.00512171 0)
  (0.0137671 0.0137543 0)
  (0.0157833 0.0196905 0)
  (0.0190325 0.0249229 0)
  (0.0233534 0.0302619 0)
  (0.0288725 0.0361771 0)
  (0.0359091 0.0428512 0)
  (0.0468314 0.0508632 0)
  (0.0617443 0.0556912 0)
  (0.0808252 0.0559887 0)
  (0.0986863 0.0122953 0)
  (0.100225 -0.0113342 0)
  (0.0917706 -0.0283436 0)
  (0.0812576 -0.0333626 0)
  (0.071693 -0.0298086 0)
  (0.0640021 -0.0221997 0)
  (0.0581865 -0.0129901 0)
  (0.0543512 -0.00363574 0)
  (0.0509931 0.00241794 0)
  (0.046982 0.00575152 0)
  (0.0421274 0.00772735 0)
  (0.0368571 0.00919465 0)
  (0.0313233 0.0105735 0)
  (0.0254998 0.0121546 0)
  (0.0196054 0.0142249 0)
  (0.0116697 0.0169219 0)
  (0.0115199 0.0270636 0)
  (0.0298156 0.0356175 0)
  (0.00174861 0.0419251 0)
  (0.115256 0.0779154 0)
  (0.0892524 0.0686474 0)
  (-0.0886929 0.0589309 0)
  (0.308661 -0.00838049 0)
  (-0.219036 -0.00121109 0)
  (0.0213927 -0.0342615 0)
  (-0.0308449 -0.148629 0)
  (-0.0141352 -0.157268 0)
  (-0.00779405 -0.0890234 0)
  (-0.0057578 -0.0354129 0)
  (-0.00971539 -0.00769517 0)
  (-0.0115118 0.00491504 0)
  (-0.0102994 0.0112046 0)
  (-0.00742891 0.0155981 0)
  (-0.00302938 0.0196073 0)
  (0.0031222 0.0238447 0)
  (0.0105748 0.0282162 0)
  (0.0198469 0.0325325 0)
  (0.0320835 0.0364388 0)
  (0.0472431 0.036473 0)
  (0.0655809 0.0293533 0)
  (0.0775359 0.00554844 0)
  (0.0779359 -0.0133617 0)
  (0.0707524 -0.0230178 0)
  (0.0606654 -0.0246973 0)
  (0.0502126 -0.020887 0)
  (0.0408163 -0.0142375 0)
  (0.0330757 -0.006392 0)
  (0.0265815 0.00146549 0)
  (0.0219045 0.00665867 0)
  (0.0178437 0.00958339 0)
  (0.0137366 0.0114958 0)
  (0.00951376 0.0131484 0)
  (0.00521241 0.0148781 0)
  (0.00103349 0.0168414 0)
  (-0.00227989 0.0188371 0)
  (-0.00515103 0.0197292 0)
  (-0.00338793 0.0202203 0)
  (0.0135619 0.021645 0)
  (-0.00528567 0.0147089 0)
  (0.0435097 0.0483417 0)
  (0.0452287 0.0575977 0)
  (-0.10959 0.0603978 0)
  (0.292155 -0.024313 0)
  (-0.25109 0.0282479 0)
  (0.030157 -0.0209148 0)
  (-0.0273916 -0.164729 0)
  (-0.0202291 -0.167295 0)
  (-0.021265 -0.0923003 0)
  (-0.0188954 -0.0349166 0)
  (-0.0224966 -0.00699177 0)
  (-0.0246136 0.00417369 0)
  (-0.0242588 0.0087363 0)
  (-0.0219544 0.0114676 0)
  (-0.0178962 0.0138623 0)
  (-0.0121667 0.0163084 0)
  (-0.0049421 0.0188101 0)
  (0.00458584 0.0210139 0)
  (0.0156547 0.0221047 0)
  (0.0282671 0.0201492 0)
  (0.0412066 0.0136445 0)
  (0.0476095 0.000967542 0)
  (0.0464117 -0.00934288 0)
  (0.0395262 -0.0144023 0)
  (0.0298466 -0.0144695 0)
  (0.0196857 -0.0109088 0)
  (0.0104526 -0.00532044 0)
  (0.00231573 0.00115893 0)
  (-0.00321071 0.00690281 0)
  (-0.00652202 0.0105414 0)
  (-0.00929849 0.0129521 0)
  (-0.0119757 0.014854 0)
  (-0.0146056 0.0165632 0)
  (-0.0169625 0.0180944 0)
  (-0.0185397 0.0191851 0)
  (-0.0187059 0.0191835 0)
  (-0.017549 0.0170388 0)
  (-0.0140844 0.0130201 0)
  (-0.00681384 0.010644 0)
  (-0.0163618 0.00797009 0)
  (0.00831464 0.0388883 0)
  (0.0288496 0.0704441 0)
  (-0.142897 0.0748768 0)
  (0.343523 -0.0319484 0)
  (-0.301778 -0.10261 0)
  (0.0527413 -0.0677937 0)
  (0.00229095 -0.186063 0)
  (-0.00354324 -0.172581 0)
  (-0.0190368 -0.0882519 0)
  (-0.0216345 -0.0282065 0)
  (-0.0289665 -0.00241283 0)
  (-0.0338561 0.0059216 0)
  (-0.0349911 0.00791738 0)
  (-0.0336904 0.00858565 0)
  (-0.0306194 0.00925238 0)
  (-0.0261013 0.0100969 0)
  (-0.0203499 0.0109646 0)
  (-0.0133636 0.0116176 0)
  (-0.00546321 0.0117214 0)
  (0.00307385 0.0102477 0)
  (0.0099764 0.00669857 0)
  (0.0119136 0.000789559 0)
  (0.00945775 -0.00410982 0)
  (0.00291638 -0.00605089 0)
  (-0.00580783 -0.00474117 0)
  (-0.014401 -0.00133305 0)
  (-0.0216933 0.00283552 0)
  (-0.0264232 0.00674592 0)
  (-0.0292004 0.0101098 0)
  (-0.0308292 0.0127616 0)
  (-0.0319762 0.0149327 0)
  (-0.0328219 0.0167277 0)
  (-0.0332787 0.0181065 0)
  (-0.033054 0.0188707 0)
  (-0.031746 0.0186534 0)
  (-0.0290952 0.0169733 0)
  (-0.0253542 0.0135624 0)
  (-0.0207557 0.00950919 0)
  (-0.0157305 0.00761274 0)
  (-0.0144835 0.0094838 0)
  (0.00010376 0.0311742 0)
  (0.0383871 0.0717174 0)
  (-0.126239 0.0671283 0)
  (0.579997 0.00874921 0)
  (-0.346284 0.346088 0)
  (0.0842014 0.281393 0)
  (0.0671111 -0.170613 0)
  (0.0425244 -0.152718 0)
  (-0.00323061 -0.068016 0)
  (-0.0258054 -0.00835168 0)
  (-0.0398486 0.00985303 0)
  (-0.0465396 0.0118993 0)
  (-0.0484669 0.0104931 0)
  (-0.0479678 0.00914253 0)
  (-0.0461039 0.00841851 0)
  (-0.0433089 0.00819021 0)
  (-0.03985 0.0082246 0)
  (-0.0359466 0.00833495 0)
  (-0.0319028 0.00833954 0)
  (-0.0282014 0.00795128 0)
  (-0.025889 0.00689862 0)
  (-0.0263567 0.00503193 0)
  (-0.0294239 0.00357318 0)
  (-0.0342474 0.00351352 0)
  (-0.0396466 0.00480222 0)
  (-0.0440674 0.00670551 0)
  (-0.0471305 0.0088426 0)
  (-0.0488177 0.0110483 0)
  (-0.0493605 0.0132374 0)
  (-0.0490794 0.0152557 0)
  (-0.0482214 0.0170276 0)
  (-0.0468538 0.0184147 0)
  (-0.0449286 0.0192222 0)
  (-0.0423357 0.0191953 0)
  (-0.0389807 0.0180442 0)
  (-0.0349174 0.0155587 0)
  (-0.0304391 0.0118975 0)
  (-0.0258143 0.00802585 0)
  (-0.0210368 0.00545926 0)
  (-0.015632 0.00624688 0)
  (-0.00294822 0.0185089 0)
  (0.0339762 0.0519352 0)
  (-0.0986964 0.0410071 0)
  (0.568924 0.037651 0)
  (0.130184 -0.13951 0)
  (0.0863283 -0.105234 0)
  (-0.00518231 -0.0105938 0)
  (-0.0528243 0.0284264 0)
  (-0.0618759 0.0273744 0)
  (-0.0649961 0.0223263 0)
  (-0.0652937 0.018128 0)
  (-0.0646702 0.0153655 0)
  (-0.0636638 0.0137269 0)
  (-0.0624252 0.0128355 0)
  (-0.0610519 0.012429 0)
  (-0.0596503 0.0123603 0)
  (-0.0583498 0.0125325 0)
  (-0.0573419 0.0128169 0)
  (-0.0569616 0.0130288 0)
  (-0.0576155 0.0130251 0)
  (-0.0592001 0.0131303 0)
  (-0.0611446 0.0136922 0)
  (-0.0628016 0.0146537 0)
  (-0.0637318 0.0157556 0)
  (-0.0638251 0.0168764 0)
  (-0.0630891 0.0179543 0)
  (-0.0615849 0.0189385 0)
  (-0.0594039 0.0197144 0)
  (-0.0566392 0.020162 0)
  (-0.053367 0.0201407 0)
  (-0.0496694 0.0194955 0)
  (-0.0456611 0.0180607 0)
  (-0.0415267 0.0156876 0)
  (-0.0375636 0.0123299 0)
  (-0.0341825 0.00818848 0)
  (-0.0317887 0.00376508 0)
  (-0.0304992 -0.000548269 0)
  (-0.0286711 -0.000420957 0)
  (-0.0219666 0.00959815 0)
  (-0.0125171 0.0298575 0)
  (-0.122474 0.0227178 0)
  (0.34132 0.0582075 0)
  (-0.190892 -0.110291 0)
  (-0.0856659 -0.0764443 0)
  (-0.102962 -0.055552 0)
  (-0.0993298 -0.0505991 0)
  (-0.090626 -0.0613848 0)
  (-0.0851159 -0.0709044 0)
  (-0.0820995 -0.0770959 0)
  (-0.0804646 -0.080679 0)
  (-0.0795414 -0.0825195 0)
  (-0.0789547 -0.0832084 0)
  (-0.0784861 -0.0831055 0)
  (-0.0779972 -0.0824561 0)
  (-0.0774009 -0.0815084 0)
  (-0.0766813 -0.0805972 0)
  (-0.0759392 -0.0801199 0)
  (-0.0753591 -0.0803322 0)
  (-0.0749988 -0.0810266 0)
  (-0.0747091 -0.0817818 0)
  (-0.0742572 -0.0823255 0)
  (-0.0734583 -0.0825369 0)
  (-0.0722023 -0.0823141 0)
  (-0.070408 -0.0816148 0)
  (-0.0680153 -0.0804801 0)
  (-0.0649989 -0.0790464 0)
  (-0.0613802 -0.0775033 0)
  (-0.0572361 -0.076092 0)
  (-0.0527137 -0.0751065 0)
  (-0.0480486 -0.0748904 0)
  (-0.0435905 -0.0757949 0)
  (-0.0398305 -0.0780571 0)
  (-0.0374019 -0.0815747 0)
  (-0.0369446 -0.0855583 0)
  (-0.0387363 -0.0878278 0)
  (-0.0407412 -0.0879628 0)
  (-0.0402691 -0.0777927 0)
  (-0.046673 -0.0564952 0)
  (-0.0978736 -0.0509995 0)
  (0.274645 -0.0375883 0)
  (-0.256593 -0.165039 0)
  (-0.158207 0.036564 0)
  (-0.144505 0.316657 0)
  (-0.144245 0.275569 0)
  (-0.140826 0.261515 0)
  (-0.127922 0.263646 0)
  (-0.114668 0.272314 0)
  (-0.105706 0.279052 0)
  (-0.100264 0.283222 0)
  (-0.0971386 0.285549 0)
  (-0.0953854 0.286715 0)
  (-0.0943674 0.287153 0)
  (-0.0936554 0.287135 0)
  (-0.0929399 0.286881 0)
  (-0.0919893 0.286648 0)
  (-0.0906631 0.286763 0)
  (-0.0889554 0.287546 0)
  (-0.0869872 0.289121 0)
  (-0.0848785 0.29128 0)
  (-0.0826492 0.293674 0)
  (-0.0802488 0.296027 0)
  (-0.0776166 0.29816 0)
  (-0.0746892 0.299946 0)
  (-0.0713967 0.301316 0)
  (-0.0676857 0.302264 0)
  (-0.0635499 0.302817 0)
  (-0.0590557 0.30301 0)
  (-0.0543548 0.30289 0)
  (-0.0496922 0.302533 0)
  (-0.0454003 0.302074 0)
  (-0.0418854 0.301729 0)
  (-0.039629 0.301799 0)
  (-0.0391598 0.302575 0)
  (-0.0406077 0.30393 0)
  (-0.0423668 0.303794 0)
  (-0.041964 0.303898 0)
  (-0.0430137 0.296579 0)
  (-0.0656911 0.285565 0)
  (-0.123298 0.293281 0)
  (0.361191 0.336911 0)
)
;

boundaryField
{
  floor
  {
    type noSlip;
  }
  ceiling
  {
    type noSlip;
  }
  sWall
  {
    type noSlip;
  }
  nWall
  {
    type noSlip;
  }
  sideWalls
  {
    type empty;
  }
  glass1
  {
    type noSlip;
  }
  glass2
  {
    type noSlip;
  }
  sun
  {
    type noSlip;
  }
  heatsource1
  {
    type noSlip;
  }
  heatsource2
  {
    type noSlip;
  }
  Table_master
  {
    type noSlip;
  }
  Table_slave
  {
    type noSlip;
  }
  inlet
  {
    type fixedValue;
    value uniform (0.277164 -0.114805 0);
  }
  outlet
  {
    type zeroGradient;
  }
} 	// ************************************************************************* //

