// -*- C++ -*-
// File generated by PyFoam - sorry for the ugliness

FoamFile
{
 version 2.0;
 format ascii;
 class volScalarField;
 location "1400";
 object T;
}

dimensions [ 0 0 0 1 0 0 0 ];

internalField nonuniform List<scalar> 459
(
  307.711
  307.579
  307.528
  307.501
  307.483
  307.471
  307.463
  307.456
  307.449
  307.442
  307.435
  307.428
  307.421
  307.413
  307.4
  304.132
  304.133
  304.14
  304.123
  304.113
  304.116
  304.131
  304.148
  304.137
  304.127
  304.121
  304.117
  304.116
  304.12
  304.124
  304.135
  304.145
  304.144
  304.135
  307.639
  307.449
  307.368
  307.327
  307.302
  307.288
  307.282
  307.281
  307.284
  307.29
  307.3
  307.313
  307.329
  307.349
  307.368
  307.36
  307.342
  304.282
  304.284
  304.284
  304.273
  304.246
  304.202
  304.194
  304.205
  304.207
  304.202
  304.202
  304.206
  304.213
  304.234
  304.28
  304.325
  304.326
  304.26
  304.167
  307.581
  307.309
  307.207
  307.157
  307.13
  307.114
  307.109
  307.114
  307.128
  307.15
  307.178
  307.211
  307.248
  307.288
  307.325
  307.336
  307.325
  304.6
  304.511
  304.47
  304.456
  304.44
  304.408
  304.268
  304.262
  304.304
  304.339
  304.373
  304.409
  304.45
  304.495
  304.552
  304.631
  304.604
  304.563
  304.55
  307.527
  307.187
  307.085
  307.041
  307.018
  307.006
  307
  307.005
  307.024
  307.055
  307.095
  307.142
  307.193
  307.246
  307.295
  307.314
  307.214
  305.121
  304.847
  304.818
  304.845
  304.909
  304.991
  305.077
  305.142
  305.155
  305.163
  305.168
  305.171
  305.171
  305.167
  305.156
  305.133
  305.087
  305.087
  305.103
  305.112
  307.471
  307.097
  307.017
  306.988
  306.977
  306.971
  306.964
  306.963
  306.979
  307.011
  307.055
  307.109
  307.167
  307.227
  307.279
  307.253
  306.897
  305.22
  305.041
  305.042
  305.072
  305.114
  305.157
  305.194
  305.22
  305.235
  305.247
  305.257
  305.266
  305.275
  305.285
  305.295
  305.304
  305.312
  305.333
  305.361
  305.394
  305.42
  305.403
  305.394
  307.408
  307.047
  306.994
  306.977
  306.979
  306.978
  306.971
  306.964
  306.978
  307.01
  307.055
  307.11
  307.168
  307.219
  307.234
  307.098
  306.541
  305.29
  305.162
  305.172
  305.198
  305.226
  305.251
  305.273
  305.29
  305.303
  305.312
  305.321
  305.33
  305.342
  305.356
  305.373
  305.393
  305.414
  305.436
  305.456
  305.471
  305.476
  305.44
  305.404
  307.334
  307.033
  306.996
  306.986
  306.994
  307
  307.002
  307.004
  307.016
  307.041
  307.079
  307.123
  307.165
  307.186
  307.135
  306.881
  306.238
  305.356
  305.267
  305.282
  305.307
  305.329
  305.348
  305.362
  305.372
  305.378
  305.381
  305.383
  305.387
  305.393
  305.404
  305.419
  305.439
  305.46
  305.479
  305.495
  305.504
  305.502
  305.481
  305.413
  307.261
  307.029
  307.006
  306.989
  307.003
  307.02
  307.034
  307.045
  307.055
  307.073
  307.097
  307.122
  307.135
  307.111
  306.991
  306.659
  306.031
  305.436
  305.379
  305.403
  305.433
  305.457
  305.472
  305.478
  305.478
  305.474
  305.468
  305.461
  305.454
  305.448
  305.447
  305.453
  305.464
  305.48
  305.499
  305.518
  305.536
  305.552
  305.566
  305.588
  307.199
  307.037
  307.034
  306.953
  306.978
  307.008
  307.032
  307.05
  307.062
  307.072
  307.081
  307.084
  307.067
  307.004
  306.84
  306.491
  305.944
  305.547
  305.515
  305.547
  305.588
  305.61
  305.616
  305.614
  305.606
  305.595
  305.581
  305.565
  305.547
  305.53
  305.514
  305.503
  305.498
  305.499
  305.504
  305.512
  305.521
  305.53
  305.541
  305.586
  307.138
  306.91
  306.927
  306.959
  306.985
  307.005
  307.018
  307.023
  307.021
  307.008
  306.972
  306.891
  306.728
  306.424
  305.97
  305.734
  305.703
  305.727
  305.75
  305.76
  305.761
  305.753
  305.741
  305.725
  305.707
  305.686
  305.662
  305.638
  305.612
  305.588
  305.568
  305.554
  305.547
  305.546
  305.546
  305.547
  305.546
  305.551
  307.034
  306.874
  306.874
  306.895
  306.912
  306.925
  306.933
  306.934
  306.927
  306.908
  306.869
  306.799
  306.673
  306.414
  306.131
  306.01
  305.963
  305.942
  305.929
  305.918
  305.905
  305.89
  305.871
  305.851
  305.828
  305.803
  305.776
  305.747
  305.718
  305.688
  305.66
  305.636
  305.618
  305.604
  305.593
  305.581
  305.565
  305.557
  310.149
  309.86
  307.396
  306.863
  306.815
  306.817
  306.82
  306.821
  306.823
  306.823
  306.817
  306.803
  306.778
  306.735
  306.651
  306.478
  306.359
  306.293
  306.249
  306.212
  306.174
  306.137
  306.1
  306.065
  306.031
  305.998
  305.965
  305.932
  305.899
  305.865
  305.832
  305.798
  305.764
  305.731
  305.7
  305.67
  305.641
  305.61
  305.564
  305.497
)
;

boundaryField
{
  floor
  {
    type wallHeatTransfer;
    Tinf uniform 305.2;
    alphaWall uniform 0.24;
    value nonuniform List<scalar> 29
(
  307.219
  304.456
  304.448
  304.448
  304.448
  304.455
  304.472
  304.502
  304.531
  304.529
  304.518
  304.503
  304.484
  304.463
  304.445
  304.437
  304.431
  304.429
  304.416
  304.43
  304.43
  304.417
  304.67
  305.124
  307.219
  304.456
  304.5
  304.708
  305.132
)
;
  }
  ceiling
  {
    type wallHeatTransfer;
    Tinf uniform 303.2;
    alphaWall uniform 0.24;
    value nonuniform List<scalar> 43
(
  309.521
  309.265
  307.125
  306.513
  306.46
  306.457
  306.459
  306.461
  306.465
  306.468
  306.464
  306.454
  306.434
  306.397
  306.321
  306.162
  306.051
  305.992
  305.956
  305.93
  305.906
  305.882
  305.855
  305.826
  305.796
  305.766
  305.734
  305.703
  305.672
  305.64
  305.608
  305.576
  305.545
  305.513
  305.483
  305.453
  305.422
  305.386
  305.337
  305.282
  307.056
  306.914
  306.865
)
;
  }
  sWall
  {
    type wallHeatTransfer;
    Tinf uniform 315.2;
    alphaWall uniform 0.36;
    value uniform 310.805;
  }
  nWall
  {
    type wallHeatTransfer;
    Tinf uniform 307.2;
    alphaWall uniform 0.36;
    value nonuniform List<scalar> 6
(
  305.737
  305.734
  305.734
  305.74
  305.738
  305.726
)
;
  }
  sideWalls
  {
    type empty;
  }
  glass1
  {
    type wallHeatTransfer;
    Tinf uniform 315.2;
    alphaWall uniform 4.3;
    value nonuniform List<scalar> 9
(
  311.587
  311.343
  311.196
  311.084
  310.983
  310.879
  310.758
  310.61
  310.408
)
;
  }
  glass2
  {
    type wallHeatTransfer;
    Tinf uniform 307.2;
    alphaWall uniform 4.3;
    value nonuniform List<scalar> 2
(
  306.601
  306.571
)
;
  }
  sun
  {
    type wallHeatTransfer;
    Tinf uniform 305.2;
    alphaWall uniform 0.24;
    value nonuniform List<scalar> 14
(
  307.57
  307.442
  307.39
  307.361
  307.34
  307.326
  307.315
  307.306
  307.296
  307.287
  307.277
  307.267
  307.255
  307.241
)
;
  }
  heatsource1
  {
    type fixedGradient;
    gradient uniform 0;
  }
  heatsource2
  {
    type fixedGradient;
    gradient uniform 0;
  }
  Table_master
  {
    type zeroGradient;
  }
  Table_slave
  {
    type zeroGradient;
  }
  inlet
  {
    type fixedValue;
    value uniform 290.15;
  }
  outlet
  {
    type zeroGradient;
  }
} 	// ************************************************************************* //

