// -*- C++ -*-
// File generated by PyFoam - sorry for the ugliness

FoamFile
{
 version 2.0;
 format ascii;
 class volScalarField;
 location "200";
 object T;
}

dimensions [ 0 0 0 1 0 0 0 ];

internalField nonuniform List<scalar> 459
(
  301.398
  301.008
  300.997
  301.001
  301.004
  301.007
  301.009
  301.01
  301.012
  301.012
  301.01
  301.007
  301.001
  300.993
  300.987
  300.743
  300.731
  300.747
  300.76
  300.745
  300.7
  300.428
  300.309
  300.28
  300.267
  300.254
  300.244
  300.237
  300.239
  300.26
  300.287
  300.304
  300.309
  300.332
  301.665
  301.052
  301.015
  301.023
  301.032
  301.04
  301.048
  301.053
  301.058
  301.06
  301.057
  301.049
  301.033
  301.011
  300.982
  300.953
  300.867
  300.745
  300.741
  300.774
  300.803
  300.804
  300.715
  300.568
  300.456
  300.388
  300.333
  300.297
  300.275
  300.259
  300.255
  300.307
  300.366
  300.373
  300.346
  300.346
  301.918
  301.121
  301.049
  301.06
  301.077
  301.094
  301.108
  301.12
  301.128
  301.133
  301.129
  301.116
  301.092
  301.057
  301.015
  300.97
  300.933
  300.802
  300.821
  300.852
  300.879
  300.887
  300.877
  300.603
  300.529
  300.487
  300.453
  300.418
  300.379
  300.331
  300.3
  300.405
  300.467
  300.436
  300.409
  300.397
  302.15
  301.206
  301.087
  301.099
  301.126
  301.152
  301.177
  301.197
  301.213
  301.22
  301.218
  301.201
  301.17
  301.125
  301.071
  301.013
  300.954
  300.91
  300.877
  300.906
  300.935
  300.95
  300.956
  300.958
  300.96
  300.961
  300.965
  300.968
  300.964
  300.961
  300.958
  300.954
  300.947
  300.913
  300.834
  300.749
  300.74
  302.364
  301.305
  301.132
  301.135
  301.169
  301.205
  301.241
  301.274
  301.3
  301.315
  301.317
  301.3
  301.266
  301.218
  301.163
  301.106
  301.056
  301.017
  300.993
  300.99
  300.997
  301
  301.001
  301.001
  301
  301
  301.001
  301.001
  300.994
  300.992
  300.991
  300.99
  300.983
  300.963
  300.923
  300.864
  300.815
  300.807
  300.849
  300.944
  302.548
  301.42
  301.2
  301.169
  301.202
  301.245
  301.29
  301.334
  301.374
  301.402
  301.412
  301.398
  301.363
  301.313
  301.255
  301.196
  301.144
  301.103
  301.075
  301.059
  301.051
  301.046
  301.041
  301.036
  301.033
  301.03
  301.028
  301.024
  301.014
  301.014
  301.018
  301.021
  301.016
  300.999
  300.968
  300.924
  300.879
  300.848
  300.844
  300.873
  302.695
  301.606
  301.372
  301.263
  301.251
  301.281
  301.324
  301.372
  301.421
  301.467
  301.488
  301.478
  301.445
  301.396
  301.339
  301.279
  301.224
  301.179
  301.144
  301.12
  301.103
  301.091
  301.08
  301.071
  301.064
  301.057
  301.05
  301.043
  301.029
  301.032
  301.042
  301.05
  301.048
  301.033
  300.999
  300.96
  300.921
  300.889
  300.871
  300.891
  302.949
  302.115
  301.868
  301.642
  301.49
  301.422
  301.413
  301.437
  301.476
  301.524
  301.54
  301.528
  301.495
  301.45
  301.399
  301.344
  301.289
  301.242
  301.204
  301.174
  301.151
  301.134
  301.119
  301.105
  301.093
  301.082
  301.069
  301.059
  301.042
  301.048
  301.064
  301.076
  301.078
  301.068
  301.039
  300.995
  300.966
  300.947
  300.945
  301.151
  303.303
  302.945
  302.664
  302.369
  302.11
  301.916
  301.789
  301.714
  301.676
  301.639
  301.596
  301.55
  301.504
  301.458
  301.412
  301.368
  301.324
  301.284
  301.247
  301.217
  301.191
  301.171
  301.153
  301.138
  301.123
  301.107
  301.087
  301.074
  301.051
  301.061
  301.081
  301.099
  301.112
  301.122
  301.133
  301.146
  301.173
  301.213
  301.255
  301.352
  297.696
  299.992
  301.01
  301.349
  301.464
  301.499
  301.503
  301.494
  301.477
  301.454
  301.426
  301.397
  301.368
  301.34
  301.312
  301.285
  301.259
  301.235
  301.214
  301.195
  301.179
  301.164
  301.149
  301.135
  301.107
  301.09
  301.057
  301.065
  301.087
  301.109
  301.128
  301.144
  301.157
  301.173
  301.194
  301.216
  301.228
  301.228
  298.141
  299.953
  300.712
  301.051
  301.205
  301.273
  301.299
  301.305
  301.306
  301.302
  301.296
  301.289
  301.28
  301.27
  301.26
  301.25
  301.239
  301.228
  301.217
  301.207
  301.197
  301.186
  301.174
  301.164
  301.135
  301.107
  301.063
  301.061
  301.077
  301.095
  301.113
  301.131
  301.147
  301.163
  301.179
  301.194
  301.177
  301.208
  299.218
  299.169
  299.166
  300.26
  300.715
  301.023
  301.105
  301.146
  301.168
  301.179
  301.186
  301.192
  301.197
  301.202
  301.207
  301.211
  301.215
  301.218
  301.221
  301.223
  301.224
  301.224
  301.222
  301.219
  301.213
  301.204
  301.172
  301.131
  301.08
  301.083
  301.095
  301.106
  301.115
  301.125
  301.136
  301.151
  301.161
  301.166
  301.164
  301.198
)
;

boundaryField
{
  floor
  {
    type wallHeatTransfer;
    Tinf uniform 305.2;
    alphaWall uniform 0.24;
    value nonuniform List<scalar> 29
(
  301.48
  301.477
  301.368
  301.453
  301.528
  301.584
  301.655
  301.812
  301.896
  301.848
  301.786
  301.775
  301.817
  301.86
  301.642
  301.476
  301.332
  301.274
  301.273
  301.345
  301.345
  301.178
  301.166
  301.234
  301.48
  301.477
  301.414
  301.32
  301.339
)
;
  }
  ceiling
  {
    type wallHeatTransfer;
    Tinf uniform 303.2;
    alphaWall uniform 0.24;
    value nonuniform List<scalar> 43
(
  299.459
  299.405
  299.395
  300.42
  300.857
  301.157
  301.243
  301.289
  301.317
  301.336
  301.35
  301.363
  301.375
  301.386
  301.397
  301.407
  301.416
  301.423
  301.427
  301.429
  301.429
  301.427
  301.424
  301.419
  301.411
  301.405
  301.372
  301.346
  301.289
  301.282
  301.292
  301.301
  301.303
  301.304
  301.305
  301.31
  301.316
  301.324
  301.332
  301.375
  303.298
  302.954
  298.417
)
;
  }
  sWall
  {
    type wallHeatTransfer;
    Tinf uniform 315.2;
    alphaWall uniform 0.36;
    value uniform 300.633;
  }
  nWall
  {
    type wallHeatTransfer;
    Tinf uniform 307.2;
    alphaWall uniform 0.36;
    value nonuniform List<scalar> 6
(
  301.913
  301.801
  301.693
  301.978
  301.948
  301.961
)
;
  }
  sideWalls
  {
    type empty;
  }
  glass1
  {
    type wallHeatTransfer;
    Tinf uniform 315.2;
    alphaWall uniform 4.3;
    value nonuniform List<scalar> 9
(
  311.625
  310.437
  309.713
  309.195
  308.819
  308.527
  308.292
  308.37
  308.641
)
;
  }
  glass2
  {
    type wallHeatTransfer;
    Tinf uniform 307.2;
    alphaWall uniform 4.3;
    value nonuniform List<scalar> 2
(
  304.713
  304.855
)
;
  }
  sun
  {
    type wallHeatTransfer;
    Tinf uniform 305.2;
    alphaWall uniform 0.24;
    value nonuniform List<scalar> 14
(
  301.91
  301.559
  301.58
  301.568
  301.555
  301.544
  301.534
  301.525
  301.516
  301.506
  301.497
  301.489
  301.483
  301.479
)
;
  }
  heatsource1
  {
    type fixedGradient;
    gradient uniform 0;
  }
  heatsource2
  {
    type fixedGradient;
    gradient uniform 0;
  }
  Table_master
  {
    type zeroGradient;
  }
  Table_slave
  {
    type zeroGradient;
  }
  inlet
  {
    type fixedValue;
    value uniform 293.15;
  }
  outlet
  {
    type zeroGradient;
  }
} 	// ************************************************************************* //

