// -*- C++ -*-
// File generated by PyFoam - sorry for the ugliness

FoamFile
{
 version 2.0;
 format ascii;
 class volScalarField;
 location "210";
 object T;
}

dimensions [ 0 0 0 1 0 0 0 ];

internalField nonuniform List<scalar> 459
(
  301.48
  301.435
  301.426
  301.426
  301.538
  301.614
  301.664
  301.697
  301.717
  301.73
  301.741
  301.752
  301.761
  301.77
  301.776
  302.399
  302.334
  302.289
  302.296
  302.318
  302.339
  302.359
  302.377
  302.394
  302.412
  302.43
  302.449
  302.467
  302.485
  302.504
  302.524
  302.546
  302.577
  302.634
  301.492
  301.43
  301.409
  301.402
  301.529
  301.682
  301.787
  301.849
  301.88
  301.894
  301.898
  301.893
  301.879
  301.857
  301.827
  301.837
  301.857
  302.381
  302.267
  302.237
  302.26
  302.298
  302.334
  302.359
  302.382
  302.405
  302.429
  302.453
  302.477
  302.501
  302.524
  302.546
  302.565
  302.584
  302.605
  302.654
  301.502
  301.423
  301.388
  301.368
  301.516
  301.752
  301.923
  302.015
  302.053
  302.061
  302.048
  302.023
  301.988
  301.946
  301.9
  301.882
  301.88
  302.262
  302.146
  302.175
  302.236
  302.302
  302.356
  302.373
  302.395
  302.419
  302.445
  302.473
  302.502
  302.532
  302.56
  302.585
  302.604
  302.618
  302.631
  302.669
  301.511
  301.416
  301.37
  301.334
  301.495
  301.813
  302.061
  302.187
  302.228
  302.221
  302.185
  302.137
  302.083
  302.027
  301.97
  301.932
  301.91
  301.923
  301.973
  302.05
  302.155
  302.264
  302.361
  302.434
  302.489
  302.532
  302.571
  302.609
  302.646
  302.684
  302.724
  302.766
  302.809
  302.73
  302.687
  302.67
  302.687
  301.519
  301.413
  301.359
  301.303
  301.467
  301.852
  302.184
  302.343
  302.378
  302.35
  302.291
  302.227
  302.163
  302.101
  302.041
  301.999
  301.975
  301.995
  302.063
  302.168
  302.289
  302.406
  302.504
  302.58
  302.641
  302.69
  302.728
  302.761
  302.792
  302.821
  302.849
  302.876
  302.893
  302.822
  302.753
  302.717
  302.709
  302.727
  302.757
  302.811
  301.529
  301.418
  301.355
  301.274
  301.436
  301.868
  302.283
  302.471
  302.493
  302.448
  302.384
  302.318
  302.251
  302.191
  302.138
  302.105
  302.101
  302.156
  302.259
  302.38
  302.5
  302.605
  302.689
  302.751
  302.8
  302.834
  302.861
  302.885
  302.908
  302.931
  302.95
  302.961
  302.953
  302.896
  302.821
  302.787
  302.757
  302.765
  302.789
  302.833
  301.544
  301.439
  301.347
  301.247
  301.405
  301.872
  302.366
  302.575
  302.592
  302.549
  302.494
  302.439
  302.385
  302.337
  302.301
  302.294
  302.327
  302.415
  302.526
  302.637
  302.736
  302.816
  302.876
  302.92
  302.947
  302.963
  302.977
  302.993
  303.008
  303.02
  303.026
  303.02
  302.999
  302.956
  302.905
  302.864
  302.807
  302.806
  302.825
  302.858
  301.57
  301.497
  301.332
  301.208
  301.386
  301.898
  302.464
  302.682
  302.712
  302.685
  302.649
  302.614
  302.583
  302.559
  302.55
  302.568
  302.627
  302.717
  302.808
  302.892
  302.96
  303.009
  303.042
  303.059
  303.067
  303.073
  303.08
  303.087
  303.093
  303.095
  303.091
  303.077
  303.051
  303.014
  302.968
  302.919
  302.869
  302.86
  302.872
  302.889
  301.609
  301.577
  301.211
  301.124
  301.405
  302.026
  302.641
  302.835
  302.866
  302.861
  302.851
  302.84
  302.833
  302.833
  302.846
  302.879
  302.932
  302.999
  303.061
  303.109
  303.143
  303.162
  303.171
  303.174
  303.174
  303.174
  303.175
  303.175
  303.174
  303.169
  303.159
  303.142
  303.116
  303.08
  303.034
  302.984
  302.941
  302.929
  302.937
  302.959
  300.469
  300.972
  301.596
  302.52
  302.902
  303.003
  303.036
  303.05
  303.058
  303.065
  303.074
  303.086
  303.106
  303.134
  303.168
  303.205
  303.235
  303.257
  303.269
  303.273
  303.273
  303.27
  303.266
  303.261
  303.257
  303.252
  303.245
  303.235
  303.222
  303.204
  303.179
  303.147
  303.107
  303.062
  303.018
  302.995
  303.014
  303.134
  302.514
  302.598
  302.784
  302.965
  303.093
  303.153
  303.183
  303.202
  303.216
  303.229
  303.241
  303.255
  303.271
  303.289
  303.308
  303.324
  303.337
  303.344
  303.346
  303.344
  303.34
  303.334
  303.328
  303.321
  303.314
  303.305
  303.295
  303.283
  303.267
  303.248
  303.224
  303.196
  303.164
  303.13
  303.095
  303.068
  303.076
  303.142
  303.049
  303.037
  303.026
  303.102
  303.161
  303.212
  303.256
  303.286
  303.306
  303.321
  303.333
  303.344
  303.354
  303.363
  303.372
  303.379
  303.385
  303.389
  303.391
  303.39
  303.387
  303.382
  303.376
  303.37
  303.363
  303.355
  303.346
  303.335
  303.323
  303.309
  303.292
  303.271
  303.247
  303.222
  303.196
  303.172
  303.152
  303.139
  303.151
  303.206
)
;

boundaryField
{
  floor
  {
    type wallHeatTransfer;
    Tinf uniform 299.755;
    alphaWall uniform 0.24;
    value nonuniform List<scalar> 29
(
  301.512
  301.928
  301.946
  301.938
  301.95
  301.964
  301.974
  301.975
  301.973
  301.97
  301.968
  301.967
  301.966
  301.966
  301.966
  301.966
  301.966
  301.965
  301.957
  301.962
  301.962
  302.027
  302.072
  302.132
  301.512
  301.928
  302.001
  301.905
  301.617
)
;
  }
  ceiling
  {
    type wallHeatTransfer;
    Tinf uniform 299.755;
    alphaWall uniform 0.24;
    value nonuniform List<scalar> 43
(
  302.774
  302.776
  302.783
  302.86
  302.909
  302.947
  302.982
  303.008
  303.026
  303.04
  303.052
  303.062
  303.071
  303.08
  303.088
  303.095
  303.101
  303.104
  303.104
  303.101
  303.097
  303.091
  303.084
  303.077
  303.07
  303.063
  303.055
  303.047
  303.037
  303.026
  303.011
  302.994
  302.972
  302.947
  302.919
  302.89
  302.86
  302.835
  302.836
  302.878
  301.468
  301.44
  302.349
)
;
  }
  sWall
  {
    type wallHeatTransfer;
    Tinf uniform 303.161;
    alphaWall uniform 0.36;
    value uniform 303.063;
  }
  nWall
  {
    type wallHeatTransfer;
    Tinf uniform 303.145;
    alphaWall uniform 0.36;
    value nonuniform List<scalar> 6
(
  302.902
  302.917
  302.936
  303.136
  303.143
  303.198
)
;
  }
  sideWalls
  {
    type empty;
  }
  glass1
  {
    type wallHeatTransfer;
    Tinf uniform 303.161;
    alphaWall uniform 4.3;
    value nonuniform List<scalar> 9
(
  302.674
  302.616
  302.571
  302.532
  302.501
  302.481
  302.479
  302.501
  302.535
)
;
  }
  glass2
  {
    type wallHeatTransfer;
    Tinf uniform 303.145;
    alphaWall uniform 4.3;
    value nonuniform List<scalar> 2
(
  303.098
  303.107
)
;
  }
  sun
  {
    type wallHeatTransfer;
    Tinf uniform 299.755;
    alphaWall uniform 0.24;
    value nonuniform List<scalar> 14
(
  301.273
  301.257
  301.263
  301.273
  301.377
  301.443
  301.483
  301.507
  301.518
  301.522
  301.526
  301.528
  301.527
  301.523
)
;
  }
  heatsource1
  {
    type fixedGradient;
    gradient uniform 0;
  }
  heatsource2
  {
    type fixedGradient;
    gradient uniform 0;
  }
  Table_master
  {
    type zeroGradient;
  }
  Table_slave
  {
    type zeroGradient;
  }
  inlet
  {
    type fixedValue;
    value uniform 300.15;
  }
  outlet
  {
    type zeroGradient;
  }
} 	// ************************************************************************* //

