// -*- C++ -*-
// File generated by PyFoam - sorry for the ugliness

FoamFile
{
 version 2.0;
 format ascii;
 class volVectorField;
 location "440";
 object U;
}

dimensions [ 0 1 -1 0 0 0 0 ];

internalField nonuniform List<vector> 459
(
  (-0.00525779 0.045933 0)
  (-0.0923606 0.017334 0)
  (-0.114466 0.00854447 0)
  (-0.130817 0.00159196 0)
  (-0.136737 -0.00560888 0)
  (-0.130109 -0.0134253 0)
  (-0.110914 -0.0222679 0)
  (-0.080716 -0.0307423 0)
  (-0.0442484 -0.0363515 0)
  (-0.00201806 -0.0344704 0)
  (0.0315949 -0.0239474 0)
  (0.0514528 -0.0143348 0)
  (0.0609979 -0.00463247 0)
  (0.0553373 0.00811663 0)
  (0.0579327 0.0324608 0)
  (-0.0698801 0.00637598 0)
  (0.00835917 0.000901837 0)
  (0.00492636 -0.0125331 0)
  (0.0210915 -0.0157298 0)
  (0.0368086 -0.0135868 0)
  (0.0504546 -0.00997285 0)
  (0.0596022 -0.00584444 0)
  (0.0643813 -0.00352893 0)
  (0.0662829 -0.00264038 0)
  (0.0670192 -0.0022832 0)
  (0.0673986 -0.00204488 0)
  (0.0675031 -0.00180944 0)
  (0.0671602 -0.00145993 0)
  (0.066029 -0.00078217 0)
  (0.063332 0.000703427 0)
  (0.0574859 0.00380589 0)
  (0.0467527 0.00843775 0)
  (0.0172261 0.0166709 0)
  (0.0570509 0.00799651 0)
  (0.0668581 0.0944484 0)
  (-0.0811708 0.0471492 0)
  (-0.0929547 0.0322549 0)
  (-0.109426 0.0184709 0)
  (-0.115888 0.00274884 0)
  (-0.110664 -0.0154902 0)
  (-0.093948 -0.0347283 0)
  (-0.0677851 -0.0511847 0)
  (-0.0369783 -0.0598163 0)
  (-0.00507419 -0.05549 0)
  (0.0224445 -0.0395277 0)
  (0.0409801 -0.0221887 0)
  (0.0526761 -0.00404001 0)
  (0.058054 0.014848 0)
  (0.0643498 0.0376134 0)
  (0.0610463 0.037259 0)
  (0.0399669 0.0370857 0)
  (-0.0911321 0.00557476 0)
  (0.0227888 -0.0154778 0)
  (0.026296 -0.0242273 0)
  (0.0372989 -0.025851 0)
  (0.0485828 -0.0219971 0)
  (0.0577266 -0.0156627 0)
  (0.062424 -0.00660283 0)
  (0.0634974 -0.00126268 0)
  (0.0633983 0.00080965 0)
  (0.0634774 0.00162463 0)
  (0.0637379 0.00212574 0)
  (0.0639541 0.00261294 0)
  (0.0640053 0.00328195 0)
  (0.0638445 0.00459171 0)
  (0.0629336 0.00757361 0)
  (0.0587682 0.0151569 0)
  (0.049611 0.0233136 0)
  (0.0173766 0.0338122 0)
  (0.0967157 0.0249173 0)
  (0.135078 0.141349 0)
  (-0.080899 0.0719812 0)
  (-0.0716174 0.0502146 0)
  (-0.087187 0.0276957 0)
  (-0.0937179 0.00218761 0)
  (-0.0889102 -0.0265113 0)
  (-0.0734005 -0.0558549 0)
  (-0.0504132 -0.0790195 0)
  (-0.02508 -0.0887338 0)
  (-0.00010708 -0.0807434 0)
  (0.0209288 -0.0602254 0)
  (0.0368985 -0.0368271 0)
  (0.0478914 -0.0132088 0)
  (0.0544332 0.00980511 0)
  (0.0584157 0.0314996 0)
  (0.0547959 0.042192 0)
  (0.0439171 0.064693 0)
  (-0.056512 -0.0160455 0)
  (0.0372524 -0.0341981 0)
  (0.047465 -0.0392849 0)
  (0.0532608 -0.0367547 0)
  (0.0590905 -0.0306814 0)
  (0.0641856 -0.0244179 0)
  (0.065547 -0.0181905 0)
  (0.0600474 -0.0119874 0)
  (0.0556902 -0.00877414 0)
  (0.0539993 -0.0070475 0)
  (0.0535408 -0.00596664 0)
  (0.0534437 -0.00518859 0)
  (0.0537942 -0.00437141 0)
  (0.0552567 -0.00302893 0)
  (0.0594573 0.00105283 0)
  (0.0595222 0.0195121 0)
  (0.0524179 0.033756 0)
  (0.0167265 0.049512 0)
  (0.121718 0.0506306 0)
  (0.200525 0.179269 0)
  (-0.0891291 0.0921292 0)
  (-0.0492167 0.0660563 0)
  (-0.0630447 0.037129 0)
  (-0.0683406 0.00331369 0)
  (-0.061532 -0.0358541 0)
  (-0.0461817 -0.0746957 0)
  (-0.0268004 -0.102967 0)
  (-0.00782529 -0.112532 0)
  (0.0100292 -0.101294 0)
  (0.0247353 -0.0775149 0)
  (0.0367412 -0.0493732 0)
  (0.045379 -0.0215209 0)
  (0.0516678 0.00422747 0)
  (0.057538 0.0271652 0)
  (0.0651724 0.0448963 0)
  (0.0770006 0.0659993 0)
  (0.099974 0.0147415 0)
  (0.091663 -0.0094107 0)
  (0.082983 -0.029548 0)
  (0.0739832 -0.037737 0)
  (0.0676866 -0.0365942 0)
  (0.0638288 -0.0309701 0)
  (0.0607393 -0.0230688 0)
  (0.0616083 -0.013799 0)
  (0.0678688 -0.00920805 0)
  (0.0722754 -0.00670424 0)
  (0.0741335 -0.00518842 0)
  (0.0746661 -0.00399298 0)
  (0.0739882 -0.00271937 0)
  (0.0716146 -0.00109557 0)
  (0.0664276 0.00128114 0)
  (0.0556899 0.00505487 0)
  (0.0485397 0.0253786 0)
  (0.049372 0.0416869 0)
  (0.019209 0.0606022 0)
  (0.139294 0.0862425 0)
  (0.262419 0.208003 0)
  (-0.104072 0.106226 0)
  (-0.0262753 0.0758478 0)
  (-0.036807 0.0435351 0)
  (-0.0385181 0.00379898 0)
  (-0.0253439 -0.0455081 0)
  (-0.0104432 -0.090862 0)
  (0.00363537 -0.120698 0)
  (0.0146537 -0.127746 0)
  (0.023723 -0.114743 0)
  (0.0314881 -0.0886548 0)
  (0.0376167 -0.0575825 0)
  (0.0420887 -0.0275027 0)
  (0.0463016 -0.00124285 0)
  (0.0518705 0.0204327 0)
  (0.0607278 0.0352078 0)
  (0.0745821 0.0401992 0)
  (0.0863938 0.0106302 0)
  (0.0856996 -0.0105888 0)
  (0.0782756 -0.0242275 0)
  (0.0694483 -0.0299802 0)
  (0.0610981 -0.0295914 0)
  (0.0541223 -0.0253411 0)
  (0.0488518 -0.0184415 0)
  (0.046729 -0.00911309 0)
  (0.0475116 -0.00379343 0)
  (0.0484041 -0.0015201 0)
  (0.0488765 -0.00037532 0)
  (0.049325 0.000821538 0)
  (0.0498537 0.00263149 0)
  (0.0498903 0.00545428 0)
  (0.0489802 0.00974321 0)
  (0.0465631 0.0161071 0)
  (0.0450749 0.0284409 0)
  (0.0517907 0.0416465 0)
  (0.0423531 0.0555298 0)
  (0.105175 0.0841398 0)
  (0.098535 0.0660455 0)
  (0.0940917 0.0462264 0)
  (-0.140425 0.0458057 0)
  (0.314725 0.230361 0)
  (-0.123337 0.112937 0)
  (-0.00573838 0.0751016 0)
  (-0.00775475 0.0454172 0)
  (0.00296648 -0.00150766 0)
  (0.0203327 -0.0585671 0)
  (0.0322603 -0.103431 0)
  (0.0386455 -0.129373 0)
  (0.0406493 -0.134111 0)
  (0.0401724 -0.119483 0)
  (0.038692 -0.0919094 0)
  (0.0367728 -0.059429 0)
  (0.0350794 -0.0289862 0)
  (0.0349598 -0.00417836 0)
  (0.0378792 0.0140823 0)
  (0.0447805 0.0241785 0)
  (0.0556542 0.0237699 0)
  (0.0630545 0.0079254 0)
  (0.0629373 -0.00709277 0)
  (0.0573517 -0.0168942 0)
  (0.0494546 -0.0214297 0)
  (0.0411191 -0.0215391 0)
  (0.0335303 -0.0185289 0)
  (0.0275389 -0.0134664 0)
  (0.0240158 -0.00750623 0)
  (0.0229083 -0.00397136 0)
  (0.022995 -0.00259553 0)
  (0.023752 -0.00205256 0)
  (0.0251518 -0.0013359 0)
  (0.0273386 0.000318141 0)
  (0.0300529 0.00351895 0)
  (0.0327823 0.00855481 0)
  (0.0353472 0.0155084 0)
  (0.0387672 0.0247904 0)
  (0.0469196 0.0342092 0)
  (0.0478726 0.0393157 0)
  (0.0720521 0.0530993 0)
  (0.0709651 0.0410728 0)
  (0.0928291 0.0385532 0)
  (-0.138624 0.0682554 0)
  (0.356456 0.248608 0)
  (-0.136273 0.101351 0)
  (0.0159226 0.0474435 0)
  (0.0313439 0.0252552 0)
  (0.0559787 -0.022337 0)
  (0.0730128 -0.0730564 0)
  (0.0798838 -0.110737 0)
  (0.0775127 -0.130212 0)
  (0.0684474 -0.130453 0)
  (0.0558203 -0.113428 0)
  (0.0426922 -0.0850805 0)
  (0.0308601 -0.0528931 0)
  (0.0217972 -0.0242301 0)
  (0.0168168 -0.00289928 0)
  (0.0170059 0.0106778 0)
  (0.0220264 0.0168235 0)
  (0.0296419 0.0153507 0)
  (0.0342262 0.00591201 0)
  (0.0337865 -0.00397006 0)
  (0.0291434 -0.0107348 0)
  (0.0221038 -0.0138645 0)
  (0.0143467 -0.0139074 0)
  (0.00712402 -0.0118236 0)
  (0.00141315 -0.00856018 0)
  (-0.00200612 -0.00522078 0)
  (-0.00315026 -0.00352892 0)
  (-0.00290537 -0.0032509 0)
  (-0.00175631 -0.00356971 0)
  (0.000195374 -0.00375436 0)
  (0.00305872 -0.00308101 0)
  (0.00732237 -0.000696141 0)
  (0.0134058 0.00408657 0)
  (0.0196203 0.0105024 0)
  (0.0267158 0.0178649 0)
  (0.0358903 0.0249166 0)
  (0.0415801 0.0288296 0)
  (0.054276 0.0383854 0)
  (0.0592533 0.042091 0)
  (0.103738 0.0559159 0)
  (-0.10562 0.113032 0)
  (0.422807 0.244547 0)
  (-0.0286044 0.0756293 0)
  (0.0623121 -0.0136588 0)
  (0.108435 -0.0457289 0)
  (0.133234 -0.0682011 0)
  (0.140626 -0.0915296 0)
  (0.134664 -0.110318 0)
  (0.117299 -0.11818 0)
  (0.0922933 -0.112434 0)
  (0.0641091 -0.0934413 0)
  (0.037516 -0.0660803 0)
  (0.0152694 -0.0367912 0)
  (-7.57549e-05 -0.0129838 0)
  (-0.00788803 0.00175981 0)
  (-0.0082248 0.00915264 0)
  (-0.0047084 0.0119477 0)
  (0.00024341 0.0104012 0)
  (0.00270182 0.00473181 0)
  (0.00156204 -0.00115469 0)
  (-0.00267584 -0.0052248 0)
  (-0.00887774 -0.00694856 0)
  (-0.0154749 -0.00690188 0)
  (-0.0213635 -0.00585252 0)
  (-0.0257762 -0.00452387 0)
  (-0.0283161 -0.00359201 0)
  (-0.0292101 -0.00362844 0)
  (-0.0290567 -0.00446841 0)
  (-0.0282715 -0.00566909 0)
  (-0.0270382 -0.00680461 0)
  (-0.0252942 -0.00748453 0)
  (-0.0226312 -0.00728224 0)
  (-0.0182015 -0.00568984 0)
  (-0.0100584 -0.00218709 0)
  (9.62826e-05 0.00233085 0)
  (0.0102762 0.00628595 0)
  (0.0172344 0.00790889 0)
  (0.026497 0.0121151 0)
  (0.0331918 0.0141634 0)
  (0.104781 0.0602705 0)
  (-0.318217 0.172654 0)
  (0.511025 0.244822 0)
  (0.244999 0.17266 0)
  (0.258202 0.120327 0)
  (0.274042 0.0632067 0)
  (0.259185 0.00672137 0)
  (0.228798 -0.0383559 0)
  (0.189921 -0.066668 0)
  (0.144819 -0.0775531 0)
  (0.0975246 -0.0734661 0)
  (0.0518396 -0.0571121 0)
  (0.0135821 -0.0345498 0)
  (-0.0154049 -0.0117679 0)
  (-0.0293931 0.000544967 0)
  (-0.035131 0.00644654 0)
  (-0.0353821 0.00898929 0)
  (-0.0333471 0.00969386 0)
  (-0.0309099 0.00859901 0)
  (-0.0302117 0.0058783 0)
  (-0.0319351 0.00299469 0)
  (-0.0353022 0.000876317 0)
  (-0.0397635 -0.000241266 0)
  (-0.0443671 -0.000674876 0)
  (-0.048378 -0.000846811 0)
  (-0.0514067 -0.00109427 0)
  (-0.0533577 -0.0016877 0)
  (-0.0545072 -0.00276904 0)
  (-0.0552826 -0.00420505 0)
  (-0.0560905 -0.00574634 0)
  (-0.0573325 -0.00712519 0)
  (-0.0594213 -0.00799061 0)
  (-0.0627815 -0.00777779 0)
  (-0.0678042 -0.00555407 0)
  (-0.0749033 -3.25682e-05 0)
  (-0.0833735 0.0086727 0)
  (-0.0954212 0.0209745 0)
  (-0.115221 0.0379129 0)
  (-0.141965 0.0601308 0)
  (-0.175552 0.0847959 0)
  (-0.228395 0.106426 0)
  (-0.445065 0.1153 0)
  (0.246478 -0.0430641 0)
  (0.238146 -0.0340864 0)
  (0.21872 -0.040077 0)
  (0.182676 -0.0434029 0)
  (0.136145 -0.0416467 0)
  (0.0857959 -0.0355949 0)
  (0.037189 -0.0251211 0)
  (-0.0104041 -0.00879266 0)
  (-0.0401985 0.0034771 0)
  (-0.0555638 0.00996988 0)
  (-0.0615736 0.0123115 0)
  (-0.0631239 0.0131643 0)
  (-0.0626123 0.0134974 0)
  (-0.0613288 0.0136185 0)
  (-0.0601845 0.0133278 0)
  (-0.0600498 0.0125578 0)
  (-0.0611597 0.0117242 0)
  (-0.0631281 0.0111963 0)
  (-0.0654436 0.0110691 0)
  (-0.0676739 0.0111692 0)
  (-0.069625 0.0113322 0)
  (-0.0712679 0.0114611 0)
  (-0.072762 0.0115214 0)
  (-0.074359 0.0114554 0)
  (-0.076284 0.0115509 0)
  (-0.0786388 0.012327 0)
  (-0.0814318 0.0140355 0)
  (-0.0846541 0.0166658 0)
  (-0.088367 0.0196638 0)
  (-0.0925009 0.0224969 0)
  (-0.0963481 0.0257921 0)
  (-0.0999264 0.0311359 0)
  (-0.103014 0.0399295 0)
  (-0.105214 0.0531883 0)
  (-0.104243 0.0696193 0)
  (-0.0958897 0.0778654 0)
  (-0.0826644 0.0443884 0)
  (-0.148113 -0.145285 0)
  (0.0291071 0.0783094 0)
  (-0.0165267 0.021312 0)
  (-0.0254426 -0.00402426 0)
  (-0.0324203 -0.0188898 0)
  (-0.0440234 -0.0270604 0)
  (-0.0590495 -0.0315637 0)
  (-0.0723202 -0.0343169 0)
  (-0.0809601 -0.0371535 0)
  (-0.0851766 -0.0414914 0)
  (-0.0866793 -0.045754 0)
  (-0.0865 -0.0490445 0)
  (-0.0854463 -0.050861 0)
  (-0.0838599 -0.051657 0)
  (-0.0819731 -0.0521563 0)
  (-0.0800909 -0.0530903 0)
  (-0.0785738 -0.0548335 0)
  (-0.0775955 -0.0572127 0)
  (-0.0770896 -0.0598424 0)
  (-0.0768874 -0.0624463 0)
  (-0.0768499 -0.0649802 0)
  (-0.0769347 -0.0675169 0)
  (-0.0771875 -0.0701668 0)
  (-0.077726 -0.0730143 0)
  (-0.0787492 -0.0760263 0)
  (-0.0804741 -0.0792351 0)
  (-0.0829438 -0.0826168 0)
  (-0.0859576 -0.0857061 0)
  (-0.0891031 -0.0875831 0)
  (-0.0918633 -0.0867275 0)
  (-0.0937206 -0.0815844 0)
  (-0.0938673 -0.0717089 0)
  (-0.0909017 -0.0567478 0)
  (-0.0829004 -0.0373263 0)
  (-0.0679264 -0.0151562 0)
  (-0.0455331 0.00536069 0)
  (-0.0162433 0.011432 0)
  (0.0784513 -0.0634174 0)
  (-0.106793 -0.111024 0)
  (-0.179781 -0.226775 0)
  (-0.266142 -0.0412732 0)
  (-0.217815 0.128329 0)
  (-0.191859 0.118624 0)
  (-0.164424 0.121826 0)
  (-0.152395 0.131098 0)
  (-0.146439 0.141146 0)
  (-0.141655 0.15103 0)
  (-0.135852 0.161285 0)
  (-0.128672 0.171589 0)
  (-0.121195 0.180952 0)
  (-0.114522 0.188267 0)
  (-0.109091 0.193203 0)
  (-0.104706 0.196227 0)
  (-0.10088 0.198243 0)
  (-0.0972503 0.200119 0)
  (-0.0937225 0.202437 0)
  (-0.0904306 0.20535 0)
  (-0.0875553 0.208617 0)
  (-0.0851977 0.211881 0)
  (-0.0833731 0.214915 0)
  (-0.0820591 0.217696 0)
  (-0.0812297 0.220354 0)
  (-0.0808608 0.2231 0)
  (-0.0809188 0.226144 0)
  (-0.081319 0.229617 0)
  (-0.0819197 0.233714 0)
  (-0.0825537 0.23856 0)
  (-0.0830192 0.243796 0)
  (-0.0830476 0.248598 0)
  (-0.0822096 0.25165 0)
  (-0.0797721 0.251815 0)
  (-0.0746589 0.249143 0)
  (-0.065517 0.244029 0)
  (-0.0512798 0.238098 0)
  (-0.0322618 0.234002 0)
  (-0.00807094 0.234386 0)
  (0.0202044 0.239492 0)
  (0.10845 0.276367 0)
  (-0.243211 0.27842 0)
)
;

boundaryField
{
  floor
  {
    type noSlip;
  }
  ceiling
  {
    type noSlip;
  }
  sWall
  {
    type noSlip;
  }
  nWall
  {
    type noSlip;
  }
  sideWalls
  {
    type empty;
  }
  glass1
  {
    type noSlip;
  }
  glass2
  {
    type noSlip;
  }
  sun
  {
    type noSlip;
  }
  heatsource1
  {
    type noSlip;
  }
  heatsource2
  {
    type noSlip;
  }
  Table_master
  {
    type noSlip;
  }
  Table_slave
  {
    type noSlip;
  }
  inlet
  {
    type fixedValue;
    value uniform (0.277164 -0.114805 0);
  }
  outlet
  {
    type zeroGradient;
  }
} 	// ************************************************************************* //

