/*--------------------------------*- C++ -*----------------------------------*\
  =========                 |
  \\      /  F ield         | OpenFOAM: The Open Source CFD Toolbox
   \\    /   O peration     | Website:  https://openfoam.org
    \\  /    A nd           | Version:  6
     \\/     M anipulation  |
\*---------------------------------------------------------------------------*/
FoamFile
{
    version     2.0;
    format      ascii;
    class       volScalarField;
    location    "900";
    object      epsilon;
}
// * * * * * * * * * * * * * * * * * * * * * * * * * * * * * * * * * * * * * //

dimensions      [0 2 -3 0 0 0 0];

internalField   nonuniform List<scalar> 
459
(
0.00141627
0.00203254
0.00236026
0.0029182
0.00359632
0.00413381
0.00432877
0.00385137
0.00329933
0.00276476
0.00228308
0.00187432
0.00153503
0.00121701
0.000904077
0.000114852
0.000184872
0.00028164
0.000379311
0.000428956
0.000412317
0.000344781
0.000279584
0.000228323
0.000188698
0.000157565
0.000132828
0.000113053
9.67635e-05
8.29907e-05
7.09862e-05
5.98709e-05
4.88718e-05
3.59744e-05
0.00289889
0.00341737
0.00193381
0.00213407
0.00262896
0.00299187
0.0030205
0.00268616
0.00220383
0.00176444
0.00142588
0.00119275
0.00103524
0.000911197
0.000770812
0.000984096
0.000652257
0.000103126
0.000123431
0.000251022
0.000300243
0.000321263
0.000322748
0.000340829
0.000275262
0.000214155
0.000167241
0.000132359
0.000106534
8.71362e-05
7.18945e-05
5.99505e-05
5.29266e-05
5.01242e-05
5.42966e-05
4.68125e-05
0.00476801
0.00676857
0.00255247
0.00252473
0.00299215
0.00308057
0.00294002
0.00264641
0.00214646
0.0016509
0.0012776
0.00102742
0.000862753
0.000749234
0.000652597
0.000655509
0.000738301
9.84246e-05
0.000205119
0.000261717
0.000313891
0.000339425
0.00035824
0.000781162
0.0005204
0.000349344
0.000241002
0.000173164
0.000130703
0.000103937
8.63277e-05
7.50054e-05
5.735e-05
4.87916e-05
5.70407e-05
5.15826e-05
0.00718828
0.0126477
0.00411729
0.00347755
0.00367985
0.00336538
0.00312141
0.00281
0.00222213
0.00161361
0.00117101
0.000896764
0.000732147
0.000631078
0.00056289
0.000538336
0.000577745
0.000754753
0.000488367
0.000406032
0.000398641
0.000418872
0.000429345
0.000446484
0.00119433
0.000923619
0.000735659
0.000594682
0.000477491
0.00037532
0.000285362
0.000206797
0.000137393
6.723e-05
4.5182e-05
5.42611e-05
5.33609e-05
0.0102455
0.0209561
0.00732812
0.00535244
0.00467408
0.00392006
0.00360375
0.00319757
0.00243124
0.00162745
0.00106799
0.000754826
0.000602699
0.000533067
0.000502555
0.000497892
0.000553871
0.000650852
0.000592698
0.000574376
0.000592639
0.000606994
0.000587848
0.000539027
0.000523062
0.000490868
0.000462834
0.000425742
0.000372105
0.000305744
0.00023463
0.000167618
0.000106823
5.91071e-05
4.09011e-05
4.63496e-05
4.74219e-05
5.00725e-05
6.72103e-05
0.000108053
0.013896
0.0296514
0.0133927
0.00814409
0.00588605
0.00478873
0.00432659
0.00376161
0.00271513
0.00162861
0.000923004
0.000590365
0.000488063
0.000471166
0.000488338
0.000531833
0.000626729
0.000718417
0.000776498
0.000834486
0.000862542
0.000833906
0.000750324
0.000636007
0.000534475
0.000462233
0.000408939
0.000355274
0.000295042
0.000232164
0.000172778
0.000122204
8.06345e-05
5.2111e-05
4.25846e-05
4.44568e-05
4.73716e-05
4.8307e-05
0.000135138
0.000124627
0.0161917
0.0337454
0.0194869
0.0109252
0.00731514
0.00585823
0.00523973
0.00444318
0.00296805
0.00150916
0.000698722
0.000480932
0.000448155
0.000474732
0.000539579
0.000631742
0.000766931
0.000908109
0.00102351
0.00106543
0.00102738
0.000918723
0.000765843
0.000600382
0.000460987
0.000379675
0.000322074
0.000268794
0.000217035
0.000169624
0.000129373
9.7596e-05
7.32823e-05
5.71117e-05
5.47615e-05
5.85467e-05
6.59962e-05
8.27151e-05
0.000195637
0.000173826
0.0159604
0.0289168
0.0180767
0.0116241
0.00835293
0.0069493
0.00623881
0.00509292
0.00292233
0.00114919
0.000605998
0.000493462
0.000500316
0.00055371
0.000641653
0.000759734
0.000912144
0.00105064
0.00111513
0.00107812
0.000948401
0.000772702
0.000596092
0.00045148
0.00035262
0.00028933
0.000241611
0.000200206
0.000163891
0.000134106
0.000112201
9.86656e-05
9.29732e-05
9.55554e-05
0.000109528
0.000146781
0.000232274
0.000468898
0.00258177
0.00046949
0.0140865
0.0199772
0.0152849
0.011025
0.00870538
0.00778176
0.00699692
0.00515032
0.00205249
0.000901705
0.000628927
0.000585704
0.000612435
0.000671496
0.000753457
0.000849464
0.000942051
0.000989374
0.000959774
0.00085902
0.000716708
0.000571664
0.000448896
0.000357065
0.00029275
0.000245869
0.000207508
0.000174006
0.000145418
0.000123769
0.000112468
0.00011655
0.000142592
0.000197463
0.000287619
0.000422476
0.000612709
0.000838807
0.00102993
0.000493992
0.00152403
0.0048945
0.00731407
0.0074475
0.00465069
0.0022259
0.00113869
0.000814541
0.0007345
0.000733975
0.000761695
0.000801522
0.000844501
0.000879084
0.000889568
0.000859933
0.000789951
0.000696815
0.00060247
0.0005224
0.000461214
0.0004162
0.000381552
0.000351247
0.000321013
0.000288666
0.000254024
0.000219329
0.000189789
0.000173046
0.000177108
0.000208871
0.000274714
0.000378892
0.00051428
0.000644153
0.000672761
0.000499287
0.0046485
0.0172425
0.00952768
0.0047914
0.00224179
0.001329
0.00100902
0.00092424
0.000915178
0.000928017
0.000945476
0.000962267
0.000975549
0.000981572
0.00097564
0.000954675
0.000920784
0.000880842
0.000841999
0.000808801
0.000782471
0.000762123
0.000745818
0.000730878
0.000713797
0.000690473
0.00065693
0.000611
0.000554339
0.0004931
0.000436337
0.000393827
0.000374833
0.00038442
0.000415319
0.000472554
0.000726518
0.000626095
0.00221652
0.0035052
0.00420581
0.00506801
0.00294551
0.00207057
0.00162325
0.00137685
0.00126123
0.00121164
0.00119738
0.00120236
0.00121521
0.00122609
0.0012258
0.00120641
0.00116327
0.0010979
0.00101907
0.000938875
0.000866966
0.000807373
0.000759206
0.000719053
0.000682941
0.000647427
0.000610097
0.000569753
0.000526587
0.000482256
0.000439599
0.000401938
0.000372351
0.000353236
0.000345823
0.000348585
0.00035322
0.000347167
0.000349062
0.000369722
)
;

boundaryField
{
    floor
    {
        Cmu             0.09;
        kappa           0.41;
        E               9.8;
        type            epsilonWallFunction;
        value           nonuniform List<scalar> 
29
(
0.000904077
0.000114852
0.000184872
0.00028164
0.000379311
0.000428956
0.000412317
0.000344781
0.000279584
0.000228323
0.000188698
0.000157565
0.000132828
0.000113053
9.67635e-05
8.29907e-05
7.09862e-05
5.98709e-05
4.88718e-05
3.59744e-05
3.59744e-05
4.68125e-05
5.15826e-05
5.33609e-05
0.000904077
0.000114852
0.000103126
9.84246e-05
0.000754753
)
;
    }
    ceiling
    {
        Cmu             0.09;
        kappa           0.41;
        E               9.8;
        type            epsilonWallFunction;
        value           nonuniform List<scalar> 
43
(
0.00221652
0.0035052
0.00420581
0.00506801
0.00294551
0.00207057
0.00162325
0.00137685
0.00126123
0.00121164
0.00119738
0.00120236
0.00121521
0.00122609
0.0012258
0.00120641
0.00116327
0.0010979
0.00101907
0.000938875
0.000866966
0.000807373
0.000759206
0.000719053
0.000682941
0.000647427
0.000610097
0.000569753
0.000526587
0.000482256
0.000439599
0.000401938
0.000372351
0.000353236
0.000345823
0.000348585
0.00035322
0.000347167
0.000349062
0.000369722
0.0140865
0.0199772
0.0046485
)
;
    }
    sWall
    {
        Cmu             0.09;
        kappa           0.41;
        E               9.8;
        type            epsilonWallFunction;
        value           uniform 0.00221652;
    }
    nWall
    {
        Cmu             0.09;
        kappa           0.41;
        E               9.8;
        type            epsilonWallFunction;
        value           nonuniform List<scalar> 6(0.000108053 0.000124627 0.000173826 0.000499287 0.000626095 0.000369722);
    }
    sideWalls
    {
        type            empty;
    }
    glass1
    {
        Cmu             0.09;
        kappa           0.41;
        E               9.8;
        type            epsilonWallFunction;
        value           nonuniform List<scalar> 9(0.00141627 0.00289889 0.00476801 0.00718828 0.0102455 0.013896 0.0161917 0.0159604 0.0140865);
    }
    glass2
    {
        Cmu             0.09;
        kappa           0.41;
        E               9.8;
        type            epsilonWallFunction;
        value           nonuniform List<scalar> 2(0.00046949 0.000493992);
    }
    sun
    {
        Cmu             0.09;
        kappa           0.41;
        E               9.8;
        type            epsilonWallFunction;
        value           nonuniform List<scalar> 
14
(
0.00141627
0.00203254
0.00236026
0.0029182
0.00359632
0.00413381
0.00432877
0.00385137
0.00329933
0.00276476
0.00228308
0.00187432
0.00153503
0.00121701
)
;
    }
    heatsource1
    {
        Cmu             0.09;
        kappa           0.41;
        E               9.8;
        type            epsilonWallFunction;
        value           nonuniform List<scalar> 3(5.00725e-05 6.72103e-05 0.000108053);
    }
    heatsource2
    {
        Cmu             0.09;
        kappa           0.41;
        E               9.8;
        type            epsilonWallFunction;
        value           nonuniform List<scalar> 4(0.000984096 0.000652257 0.000652257 0.000738301);
    }
    Table_master
    {
        Cmu             0.09;
        kappa           0.41;
        E               9.8;
        type            epsilonWallFunction;
        value           nonuniform List<scalar> 9(0.000781162 0.0005204 0.000349344 0.000241002 0.000173164 0.000130703 0.000103937 8.63277e-05 7.50054e-05);
    }
    Table_slave
    {
        Cmu             0.09;
        kappa           0.41;
        E               9.8;
        type            epsilonWallFunction;
        value           nonuniform List<scalar> 9(0.00119433 0.000923619 0.000735659 0.000594682 0.000477491 0.00037532 0.000285362 0.000206797 0.000137393);
    }
    inlet
    {
        type            turbulentMixingLengthDissipationRateInlet;
        mixingLength    0.01;
        phi             phi;
        k               k;
        value           uniform 0.000101881;
    }
    outlet
    {
        type            zeroGradient;
    }
}


// ************************************************************************* //
