/*--------------------------------*- C++ -*----------------------------------*\
  =========                 |
  \\      /  F ield         | OpenFOAM: The Open Source CFD Toolbox
   \\    /   O peration     | Website:  https://openfoam.org
    \\  /    A nd           | Version:  6
     \\/     M anipulation  |
\*---------------------------------------------------------------------------*/
FoamFile
{
    version     2.0;
    format      ascii;
    class       volScalarField;
    location    "300";
    object      epsilon;
}
// * * * * * * * * * * * * * * * * * * * * * * * * * * * * * * * * * * * * * //

dimensions      [0 2 -3 0 0 0 0];

internalField   nonuniform List<scalar> 
459
(
0.000450262
0.00058427
0.000611258
0.000702076
0.000794184
0.000887384
0.000985542
0.00108608
0.00115796
0.00118344
0.00114857
0.00105002
0.000899397
0.00072511
0.000565581
3.46407e-05
6.09426e-05
8.48964e-05
8.32723e-05
7.51471e-05
6.52952e-05
5.39596e-05
4.40372e-05
3.61319e-05
2.99506e-05
2.51019e-05
2.12787e-05
1.82328e-05
1.57586e-05
1.36951e-05
1.18967e-05
1.02423e-05
9.78248e-06
7.82002e-06
0.00116584
0.00168852
0.000552828
0.000531927
0.000557288
0.000599001
0.000659807
0.000738774
0.000811699
0.000854913
0.000850009
0.000791456
0.00068749
0.000561621
0.000473012
0.00058248
0.000125084
4.40368e-05
9.992e-05
0.000103595
9.35909e-05
7.96978e-05
6.70934e-05
6.05585e-05
4.93628e-05
3.93964e-05
3.14488e-05
2.52861e-05
2.05403e-05
1.68906e-05
1.40831e-05
1.20347e-05
1.07471e-05
1.02332e-05
3.16877e-05
2.06722e-05
0.00214399
0.00417049
0.000705679
0.000517778
0.000542212
0.000609462
0.00070749
0.000828232
0.000936701
0.00100004
0.0010013
0.000940663
0.000830793
0.000693231
0.00057418
0.000504612
0.000582426
0.000331076
0.000230355
0.000170184
0.000129987
0.000102231
8.67437e-05
0.000159239
0.000109493
7.83559e-05
5.81956e-05
4.46621e-05
3.52658e-05
2.85559e-05
2.36757e-05
2.01561e-05
1.55589e-05
1.35711e-05
6.47775e-05
3.46214e-05
0.0034821
0.00862478
0.00114361
0.000540398
0.000545203
0.000643295
0.000797077
0.000982003
0.00112485
0.00119311
0.00118302
0.00110431
0.00097329
0.000807304
0.000658833
0.000550799
0.000517698
0.000972997
0.000538254
0.000316912
0.000209848
0.000150772
0.000115431
0.000100671
0.000234703
0.000179779
0.00014802
0.000127475
0.00011164
9.67659e-05
8.36325e-05
7.08827e-05
5.74589e-05
3.38129e-05
2.312e-05
0.000121285
4.72276e-05
0.00531044
0.0152555
0.00227373
0.000670181
0.000583234
0.00071591
0.000991343
0.00126508
0.00141748
0.00146087
0.0014158
0.00130057
0.00112993
0.000927036
0.000725781
0.000552817
0.000426923
0.000369111
0.000292855
0.000226551
0.000175504
0.000138111
0.000111534
9.52579e-05
9.47894e-05
9.00676e-05
8.50625e-05
7.99474e-05
7.40448e-05
6.67853e-05
5.91864e-05
5.20978e-05
4.57056e-05
3.6573e-05
2.88445e-05
7.89068e-05
5.876e-05
8.63606e-05
0.000146613
0.000210102
0.00782932
0.0224903
0.00506582
0.00132563
0.000908028
0.00105421
0.00155884
0.00181334
0.00188069
0.00184322
0.00173656
0.00156744
0.0013403
0.00107654
0.000812022
0.000582457
0.000413273
0.000309303
0.000244306
0.000195947
0.000156998
0.000127156
0.000105878
9.28596e-05
8.79537e-05
8.68658e-05
8.68559e-05
8.63904e-05
8.42297e-05
7.89274e-05
6.93095e-05
5.89258e-05
4.96042e-05
4.12729e-05
3.64744e-05
5.46377e-05
5.9986e-05
6.99266e-05
0.000272893
0.00024669
0.010715
0.0267849
0.010326
0.00425367
0.00292132
0.0028494
0.0029055
0.00278804
0.00260048
0.00239706
0.00217671
0.00191542
0.00160056
0.00125155
0.0009098
0.000618689
0.000411061
0.000285901
0.000215322
0.00016998
0.000136722
0.000112969
9.77288e-05
9.03927e-05
8.96927e-05
9.31549e-05
9.85379e-05
0.000104645
0.000110361
0.000113522
0.000110284
9.73285e-05
8.48561e-05
7.51805e-05
7.31898e-05
8.7626e-05
0.000120165
0.000199378
0.000432058
0.000418259
0.0113362
0.0290491
0.0161777
0.0109879
0.00824162
0.00640834
0.00506016
0.00414756
0.0035408
0.00310779
0.00273471
0.0023396
0.00189076
0.00141856
0.000976149
0.00061096
0.000370991
0.000237777
0.000171496
0.000135097
0.000111324
9.64686e-05
8.9038e-05
8.8009e-05
9.23179e-05
0.000100828
0.00011288
0.000128555
0.000148162
0.000171638
0.000197804
0.000220463
0.000234332
0.000267615
0.000338943
0.00053964
0.0010295
0.00188688
0.00497662
0.00137938
0.0104432
0.0173952
0.0138298
0.0104851
0.0080752
0.00646771
0.00542884
0.004761
0.00428937
0.00386354
0.00338075
0.00279055
0.00211037
0.0014522
0.000890982
0.000445651
0.000250801
0.000163949
0.000121824
9.86735e-05
8.50549e-05
7.82574e-05
7.71084e-05
8.08356e-05
8.89529e-05
0.000101349
0.000118494
0.000141551
0.000172396
0.000213722
0.000269152
0.000343298
0.000443834
0.000585842
0.000788754
0.0010494
0.00132693
0.0015493
0.00172994
0.00107984
0.00396011
0.00604584
0.0069178
0.00694912
0.00665208
0.00615708
0.00545738
0.00458184
0.00359666
0.00251849
0.00142562
0.000781773
0.000417861
0.00022576
0.000136695
9.47413e-05
7.36184e-05
6.25515e-05
5.75431e-05
5.68128e-05
5.94717e-05
6.53009e-05
7.42487e-05
8.65702e-05
0.000102883
0.000124235
0.000152248
0.000189365
0.000239267
0.000308187
0.000402444
0.000528596
0.00068824
0.000861954
0.00100014
0.00104643
0.000940563
0.000589248
0.00311176
0.00670193
0.00730369
0.00586993
0.00511508
0.00432828
0.00337234
0.0024307
0.0016406
0.00104357
0.000591647
0.000321546
0.000176673
0.000103912
6.86176e-05
5.1207e-05
4.26732e-05
3.91754e-05
3.90563e-05
4.15186e-05
4.62327e-05
5.30291e-05
6.20825e-05
7.38229e-05
8.89373e-05
0.00010846
0.000133941
0.000167715
0.000213293
0.000275037
0.000358526
0.000468425
0.000603137
0.000754654
0.000854261
0.000929512
0.00083808
0.000616145
0.0021678
0.00256662
0.00288433
0.00352822
0.00309312
0.00258429
0.00227956
0.00195168
0.00157197
0.00118591
0.000837788
0.000555424
0.000347642
0.000214839
0.00013918
9.70386e-05
7.27337e-05
5.8392e-05
5.03306e-05
4.66873e-05
4.63559e-05
4.86638e-05
5.33203e-05
6.02767e-05
6.9329e-05
8.07914e-05
9.51525e-05
0.000113139
0.000135899
0.000165409
0.000204137
0.00025329
0.000315681
0.000394813
0.000494379
0.000638014
0.000667632
0.00060475
0.000496167
0.000388561
)
;

boundaryField
{
    floor
    {
        Cmu             0.09;
        kappa           0.41;
        E               9.8;
        type            epsilonWallFunction;
        value           nonuniform List<scalar> 
29
(
0.000565581
3.46407e-05
6.09426e-05
8.48964e-05
8.32723e-05
7.51471e-05
6.52952e-05
5.39596e-05
4.40372e-05
3.61319e-05
2.99506e-05
2.51019e-05
2.12787e-05
1.82328e-05
1.57586e-05
1.36951e-05
1.18967e-05
1.02423e-05
9.78248e-06
7.82002e-06
7.82002e-06
2.06722e-05
3.46214e-05
4.72276e-05
0.000565581
3.46407e-05
4.40368e-05
0.000331076
0.000972997
)
;
    }
    ceiling
    {
        Cmu             0.09;
        kappa           0.41;
        E               9.8;
        type            epsilonWallFunction;
        value           nonuniform List<scalar> 
43
(
0.0021678
0.00256662
0.00288433
0.00352822
0.00309312
0.00258429
0.00227956
0.00195168
0.00157197
0.00118591
0.000837788
0.000555424
0.000347642
0.000214839
0.00013918
9.70386e-05
7.27337e-05
5.8392e-05
5.03306e-05
4.66873e-05
4.63559e-05
4.86638e-05
5.33203e-05
6.02767e-05
6.9329e-05
8.07914e-05
9.51525e-05
0.000113139
0.000135899
0.000165409
0.000204137
0.00025329
0.000315681
0.000394813
0.000494379
0.000638014
0.000667632
0.00060475
0.000496167
0.000388561
0.0104432
0.0173952
0.00311176
)
;
    }
    sWall
    {
        Cmu             0.09;
        kappa           0.41;
        E               9.8;
        type            epsilonWallFunction;
        value           uniform 0.0021678;
    }
    nWall
    {
        Cmu             0.09;
        kappa           0.41;
        E               9.8;
        type            epsilonWallFunction;
        value           nonuniform List<scalar> 6(0.000210102 0.00024669 0.000418259 0.000589248 0.000616145 0.000388561);
    }
    sideWalls
    {
        type            empty;
    }
    glass1
    {
        Cmu             0.09;
        kappa           0.41;
        E               9.8;
        type            epsilonWallFunction;
        value           nonuniform List<scalar> 9(0.000450262 0.00116584 0.00214399 0.0034821 0.00531044 0.00782932 0.010715 0.0113362 0.0104432);
    }
    glass2
    {
        Cmu             0.09;
        kappa           0.41;
        E               9.8;
        type            epsilonWallFunction;
        value           nonuniform List<scalar> 2(0.00137938 0.00107984);
    }
    sun
    {
        Cmu             0.09;
        kappa           0.41;
        E               9.8;
        type            epsilonWallFunction;
        value           nonuniform List<scalar> 
14
(
0.000450262
0.00058427
0.000611258
0.000702076
0.000794184
0.000887384
0.000985542
0.00108608
0.00115796
0.00118344
0.00114857
0.00105002
0.000899397
0.00072511
)
;
    }
    heatsource1
    {
        Cmu             0.09;
        kappa           0.41;
        E               9.8;
        type            epsilonWallFunction;
        value           nonuniform List<scalar> 3(8.63606e-05 0.000146613 0.000210102);
    }
    heatsource2
    {
        Cmu             0.09;
        kappa           0.41;
        E               9.8;
        type            epsilonWallFunction;
        value           nonuniform List<scalar> 4(0.00058248 0.000125084 0.000125084 0.000582426);
    }
    Table_master
    {
        Cmu             0.09;
        kappa           0.41;
        E               9.8;
        type            epsilonWallFunction;
        value           nonuniform List<scalar> 9(0.000159239 0.000109493 7.83559e-05 5.81956e-05 4.46621e-05 3.52658e-05 2.85559e-05 2.36757e-05 2.01561e-05);
    }
    Table_slave
    {
        Cmu             0.09;
        kappa           0.41;
        E               9.8;
        type            epsilonWallFunction;
        value           nonuniform List<scalar> 9(0.000234703 0.000179779 0.00014802 0.000127475 0.00011164 9.67659e-05 8.36325e-05 7.08827e-05 5.74589e-05);
    }
    inlet
    {
        type            turbulentMixingLengthDissipationRateInlet;
        mixingLength    0.01;
        phi             phi;
        k               k;
        value           uniform 0.000101881;
    }
    outlet
    {
        type            zeroGradient;
    }
}


// ************************************************************************* //
