/*--------------------------------*- C++ -*----------------------------------*\
  =========                 |
  \\      /  F ield         | OpenFOAM: The Open Source CFD Toolbox
   \\    /   O peration     | Website:  https://openfoam.org
    \\  /    A nd           | Version:  6
     \\/     M anipulation  |
\*---------------------------------------------------------------------------*/
FoamFile
{
    version     2.0;
    format      ascii;
    class       volScalarField;
    location    "800";
    object      nut;
}
// * * * * * * * * * * * * * * * * * * * * * * * * * * * * * * * * * * * * * //

dimensions      [0 2 -1 0 0 0 0];

internalField   nonuniform List<scalar> 
459
(
0.0016611
0.00214854
0.00212628
0.00203971
0.001952
0.00187177
0.0017976
0.00172942
0.00166448
0.00159972
0.00153243
0.00145968
0.00137727
0.00127666
0.00114994
0.000239308
0.000251874
0.000257083
0.000237156
0.000219392
0.000209134
0.000199619
0.000176487
0.000166326
0.000161606
0.000165111
0.000174799
0.000191446
0.000216612
0.000249756
0.000283181
0.000303013
0.000307967
0.000276012
0.00209417
0.00310749
0.00339766
0.00336775
0.00324684
0.0031358
0.00304428
0.00294124
0.00281992
0.00268665
0.00254468
0.00239072
0.00220837
0.00194646
0.00156985
0.00111136
0.000889448
0.000372907
0.000579125
0.000696636
0.000812596
0.000890349
0.000843517
0.000526691
0.000266713
0.000209513
0.000213835
0.00025699
0.000339099
0.000460654
0.000623108
0.000834525
0.00123647
0.00122391
0.00115488
0.000369747
0.00264184
0.00390691
0.00382428
0.00350407
0.003265
0.00314738
0.00310744
0.00307732
0.00304466
0.00299756
0.00292423
0.00281143
0.00263947
0.00236672
0.00198602
0.00157528
0.0009031
0.000579592
0.0015602
0.00154857
0.00148216
0.00130097
0.00101767
0.000350322
0.00028235
0.00022199
0.000225324
0.000259968
0.000298882
0.000344743
0.000401737
0.000476331
0.00129102
0.00116491
0.000885878
0.000463697
0.00278678
0.00488137
0.00400153
0.00316736
0.00280731
0.00273142
0.00280929
0.00291459
0.00300145
0.00305058
0.00305118
0.00299151
0.00285301
0.00259708
0.00222061
0.00177229
0.00102636
0.000709908
0.00211153
0.00213662
0.00201801
0.00168299
0.00123855
0.000797021
0.000482815
0.000500176
0.00051606
0.000529076
0.000541763
0.000556933
0.00057767
0.000607601
0.000661079
0.00221621
0.0024008
0.00222347
0.000742576
0.00286515
0.00533931
0.00341183
0.00236526
0.00234498
0.00261177
0.00288342
0.00293702
0.00299537
0.00305602
0.00308239
0.0030457
0.00291764
0.00264196
0.00222861
0.0017817
0.00134441
0.00201772
0.00281601
0.00298654
0.00291849
0.00280178
0.00270111
0.00265011
0.00266682
0.00272214
0.00274367
0.00274493
0.00273284
0.00272406
0.00273985
0.00279556
0.00290168
0.00310195
0.00314053
0.00302195
0.0025031
0.00106566
0.000952802
0.000834374
0.00292458
0.005059
0.00245099
0.0021821
0.00314652
0.00336147
0.00330873
0.00307838
0.00302621
0.00304822
0.00305361
0.00299393
0.00283381
0.00254178
0.00217096
0.00185252
0.00187476
0.00299744
0.0035381
0.00362421
0.00363064
0.00364333
0.00366731
0.003701
0.00373314
0.0037588
0.00376182
0.00372745
0.00365082
0.00355333
0.00347568
0.00344406
0.00345166
0.00346433
0.00344756
0.00336693
0.00311115
0.00258952
0.00201372
0.00091074
0.00299576
0.00421041
0.00197388
0.00199543
0.00316231
0.00326242
0.00313851
0.003042
0.00299584
0.00298305
0.00295159
0.00286046
0.00268366
0.00242192
0.00215739
0.00205961
0.00252529
0.00359996
0.00391514
0.00399582
0.00405876
0.00411495
0.00416118
0.00420182
0.00424605
0.00429989
0.00435362
0.00437565
0.00432406
0.00418803
0.00401554
0.00385684
0.00371889
0.00357615
0.00339522
0.00313647
0.00275045
0.00224887
0.00171724
0.000900534
0.00309677
0.00358862
0.0023203
0.00166844
0.00275951
0.00305046
0.00297444
0.00293218
0.00290889
0.00288307
0.00283095
0.00272953
0.00256914
0.00237475
0.00224864
0.00239273
0.00316176
0.00396688
0.00419053
0.00432273
0.00442037
0.00448115
0.00451021
0.00452701
0.00455669
0.00462331
0.0047405
0.00489437
0.00502359
0.0050394
0.00493079
0.00473384
0.00446656
0.00413016
0.00372931
0.0032858
0.00285331
0.00245268
0.00211763
0.00126394
0.00328141
0.00371667
0.00388144
0.00229683
0.00246484
0.00301033
0.00297916
0.00291117
0.00288317
0.00285473
0.00280512
0.00272068
0.00260235
0.00248781
0.00249277
0.00283909
0.00371168
0.00426541
0.00455062
0.00473117
0.0048456
0.00488691
0.00487529
0.00484173
0.00481769
0.00483319
0.00491908
0.0051004
0.00537613
0.00565901
0.0058543
0.00593566
0.00592783
0.00592518
0.00600996
0.0061124
0.0058345
0.00491004
0.00437835
0.00147335
0.0057707
0.00341819
0.00302935
0.00333499
0.00334599
0.0032657
0.00317968
0.00312885
0.00308282
0.00302269
0.00294952
0.00290363
0.0030092
0.00349405
0.00428399
0.00471525
0.00507191
0.00527997
0.00538847
0.00540098
0.00535103
0.00527755
0.00521213
0.0051784
0.00519621
0.0052844
0.00545444
0.0056723
0.00591528
0.00616852
0.00638067
0.00653643
0.00665605
0.00664901
0.00631477
0.00556525
0.0045491
0.00149116
0.00264687
0.00342383
0.0040007
0.00375617
0.00357094
0.00337358
0.00315342
0.00303857
0.00298906
0.0029644
0.00294297
0.00293569
0.00302498
0.00342144
0.00402902
0.00465383
0.00526608
0.00565388
0.00580541
0.00579487
0.00570986
0.00561489
0.00554546
0.00551438
0.0055208
0.00555757
0.00561189
0.00563643
0.00562137
0.00561255
0.0056448
0.00572193
0.00580305
0.00562661
0.00519005
0.00445245
0.00381966
0.00150752
0.00155223
0.001514
0.00162122
0.00114475
0.00110303
0.0010658
0.00105611
0.00105743
0.00106718
0.00107283
0.00107755
0.00108119
0.00108222
0.00107818
0.00106637
0.00106701
0.00108602
0.00111883
0.00116072
0.00121735
0.00126644
0.00129782
0.00131191
0.0013139
0.00130971
0.00130392
0.00129917
0.00129617
0.00129423
0.00129556
0.00129777
0.00129606
0.00128878
0.00127421
0.00124796
0.00122309
0.00119085
0.00113582
0.00111739
0.00124075
)
;

boundaryField
{
    floor
    {
        type            nutkWallFunction;
        Cmu             0.09;
        kappa           0.41;
        E               9.8;
        value           nonuniform List<scalar> 
29
(
0.000138265
2.49647e-05
2.67262e-05
2.74537e-05
2.4663e-05
2.21473e-05
2.0682e-05
1.93157e-05
1.59525e-05
1.4455e-05
1.37565e-05
1.42764e-05
1.57048e-05
1.81335e-05
2.17506e-05
2.64282e-05
3.1062e-05
3.37753e-05
3.44495e-05
3.0074e-05
3.00739e-05
4.275e-05
5.50335e-05
8.99258e-05
0.000138265
2.49646e-05
4.31743e-05
6.97845e-05
8.5937e-05
)
;
    }
    ceiling
    {
        type            nutkWallFunction;
        Cmu             0.09;
        kappa           0.41;
        E               9.8;
        value           nonuniform List<scalar> 
43
(
0.000184145
0.000179825
0.000191795
0.000137659
0.000132811
0.000128466
0.000127333
0.000127488
0.000128628
0.000129289
0.00012984
0.000130266
0.000130385
0.000129913
0.000128531
0.000128605
0.000130825
0.000134644
0.000139503
0.000146041
0.000151679
0.000155271
0.00015688
0.000157107
0.000156628
0.000155967
0.000155423
0.00015508
0.000154858
0.000155009
0.000155262
0.000155066
0.000154234
0.000152565
0.000149555
0.000146695
0.000142979
0.00013661
0.000134469
0.000148726
0.000369444
0.000414198
0.000303001
)
;
    }
    sWall
    {
        type            nutkWallFunction;
        Cmu             0.09;
        kappa           0.41;
        E               9.8;
        value           uniform 0.000184184;
    }
    nWall
    {
        type            nutkWallFunction;
        Cmu             0.09;
        kappa           0.41;
        E               9.8;
        value           nonuniform List<scalar> 6(0.000101041 0.000110177 0.000108961 0.000177206 0.000179046 0.000148735);
    }
    sideWalls
    {
        type            empty;
    }
    glass1
    {
        type            nutkWallFunction;
        Cmu             0.09;
        kappa           0.41;
        E               9.8;
        value           nonuniform List<scalar> 9(0.000196462 0.00024411 0.000302875 0.000318197 0.000326446 0.000332684 0.000340137 0.000350682 0.000369872);
    }
    glass2
    {
        type            nutkWallFunction;
        Cmu             0.09;
        kappa           0.41;
        E               9.8;
        value           nonuniform List<scalar> 2(0.000151419 0.000175232);
    }
    sun
    {
        type            nutkWallFunction;
        Cmu             0.09;
        kappa           0.41;
        E               9.8;
        value           nonuniform List<scalar> 
14
(
0.000196269
0.000249731
0.000247316
0.000237911
0.000228341
0.000219545
0.000211379
0.00020384
0.000196629
0.000189407
0.000181869
0.000173679
0.000164346
0.000152869
)
;
    }
    heatsource1
    {
        type            nutkWallFunction;
        Cmu             0.09;
        kappa           0.41;
        E               9.8;
        value           nonuniform List<scalar> 3(0.00012844 0.000115166 0.00010104);
    }
    heatsource2
    {
        type            nutkWallFunction;
        Cmu             0.09;
        kappa           0.41;
        E               9.8;
        value           nonuniform List<scalar> 4(0.000133784 0.000107635 0.000107635 0.000109263);
    }
    Table_master
    {
        type            nutkWallFunction;
        Cmu             0.09;
        kappa           0.41;
        E               9.8;
        value           nonuniform List<scalar> 9(4.01663e-05 3.09548e-05 2.25261e-05 2.29984e-05 2.78593e-05 3.32176e-05 3.94167e-05 4.69752e-05 5.66669e-05);
    }
    Table_slave
    {
        type            nutkWallFunction;
        Cmu             0.09;
        kappa           0.41;
        E               9.8;
        value           nonuniform List<scalar> 9(5.74965e-05 5.97209e-05 6.1747e-05 6.34016e-05 6.50098e-05 6.69269e-05 6.95374e-05 7.32853e-05 7.99274e-05);
    }
    inlet
    {
        type            calculated;
        value           uniform 3.3541e-05;
    }
    outlet
    {
        type            calculated;
        value           nonuniform List<scalar> 2(0.00155223 0.001514);
    }
}


// ************************************************************************* //
