/*--------------------------------*- C++ -*----------------------------------*\
  =========                 |
  \\      /  F ield         | OpenFOAM: The Open Source CFD Toolbox
   \\    /   O peration     | Website:  https://openfoam.org
    \\  /    A nd           | Version:  6
     \\/     M anipulation  |
\*---------------------------------------------------------------------------*/
FoamFile
{
    version     2.0;
    format      ascii;
    class       volVectorField;
    location    "1900";
    object      U;
}
// * * * * * * * * * * * * * * * * * * * * * * * * * * * * * * * * * * * * * //

dimensions      [0 1 -1 0 0 0 0];

internalField   nonuniform List<vector> 
459
(
(0.0267178 0.0874478 0)
(-0.170741 0.0273724 0)
(-0.198657 0.0176135 0)
(-0.229354 0.0105636 0)
(-0.249372 0.00297861 0)
(-0.257366 -0.00497406 0)
(-0.251442 -0.0132541 0)
(-0.232103 -0.0216317 0)
(-0.200943 -0.0287629 0)
(-0.161564 -0.0333581 0)
(-0.118619 -0.0347429 0)
(-0.0768293 -0.032568 0)
(-0.0403102 -0.0264425 0)
(-0.0127735 -0.0154894 0)
(-0.0163573 -0.00028752 0)
(-0.0138005 0.010447 0)
(-0.0328539 -0.0150547 0)
(-0.0120076 -0.0265771 0)
(0.0135219 -0.0229081 0)
(0.030889 -0.0165743 0)
(0.0460105 -0.0112536 0)
(0.0560798 -0.00662543 0)
(0.0616819 -0.00412064 0)
(0.0643775 -0.00312057 0)
(0.0658049 -0.00268973 0)
(0.0667831 -0.00241162 0)
(0.0674724 -0.00217835 0)
(0.0678024 -0.00191489 0)
(0.0675451 -0.00143114 0)
(0.0661113 -0.000336888 0)
(0.0622394 0.00192602 0)
(0.0544872 0.00466209 0)
(0.0445375 0.00792472 0)
(-0.00210178 0.0221272 0)
(0.195904 0.178668 0)
(-0.156183 0.072399 0)
(-0.158959 0.054128 0)
(-0.190435 0.0394181 0)
(-0.21035 0.0228071 0)
(-0.21873 0.00428334 0)
(-0.213483 -0.0159525 0)
(-0.19557 -0.0357425 0)
(-0.167263 -0.0517142 0)
(-0.132516 -0.061255 0)
(-0.0956121 -0.0636421 0)
(-0.060411 -0.0590499 0)
(-0.0299674 -0.047911 0)
(-0.00588127 -0.0303609 0)
(0.00837827 -0.0115882 0)
(0.0181271 0.000750404 0)
(0.0144776 0.019507 0)
(0.0453643 0.0394768 0)
(0.0201607 -0.0197002 0)
(0.0315322 -0.0341188 0)
(0.0435787 -0.0317297 0)
(0.0538494 -0.0241805 0)
(0.061964 -0.0162472 0)
(0.06575 -0.00738201 0)
(0.0666554 -0.00215181 0)
(0.0666723 -4.05717e-05 0)
(0.066825 0.000831383 0)
(0.0670904 0.00133971 0)
(0.067289 0.00174632 0)
(0.0673842 0.0022759 0)
(0.0673113 0.0032689 0)
(0.0665511 0.00562584 0)
(0.0627324 0.0119247 0)
(0.0531301 0.0178925 0)
(0.0448229 0.0236296 0)
(-0.0352785 0.0469887 0)
(0.351438 0.26677 0)
(-0.168396 0.113821 0)
(-0.118946 0.0867488 0)
(-0.14899 0.0613531 0)
(-0.16671 0.0340523 0)
(-0.173941 0.00386141 0)
(-0.167082 -0.0286257 0)
(-0.148526 -0.0594101 0)
(-0.121643 -0.0828718 0)
(-0.0910151 -0.0953836 0)
(-0.0601507 -0.0969418 0)
(-0.031645 -0.0885702 0)
(-0.00739926 -0.0718415 0)
(0.0128204 -0.0475727 0)
(0.0265942 -0.0222615 0)
(0.0342475 0.00262925 0)
(0.0355455 0.0389938 0)
(0.103103 -0.0180116 0)
(0.0750492 -0.0361421 0)
(0.0713792 -0.0409514 0)
(0.0731161 -0.0373389 0)
(0.0747912 -0.0298441 0)
(0.0767249 -0.0229087 0)
(0.0755678 -0.018014 0)
(0.069439 -0.0122799 0)
(0.0648052 -0.00915236 0)
(0.0626005 -0.0073744 0)
(0.0615282 -0.00623439 0)
(0.0608276 -0.00544975 0)
(0.060446 -0.0048002 0)
(0.0609055 -0.00382744 0)
(0.0634468 -0.000456761 0)
(0.0615682 0.0166884 0)
(0.0492165 0.0293783 0)
(0.0475453 0.0399461 0)
(-0.0662318 0.0725379 0)
(0.492738 0.337342 0)
(-0.198634 0.149745 0)
(-0.0772916 0.114414 0)
(-0.104821 0.0800917 0)
(-0.117383 0.0442263 0)
(-0.120116 0.00310814 0)
(-0.107199 -0.0421073 0)
(-0.086471 -0.0828921 0)
(-0.061517 -0.111767 0)
(-0.0369029 -0.125101 0)
(-0.0141217 -0.124832 0)
(0.00620593 -0.112427 0)
(0.0226117 -0.0914805 0)
(0.0368961 -0.0647474 0)
(0.0500732 -0.0358352 0)
(0.0651357 -0.00706561 0)
(0.0852238 0.0256493 0)
(0.116949 0.0270592 0)
(0.11878 -0.0155398 0)
(0.104402 -0.0317388 0)
(0.0936895 -0.0349745 0)
(0.0862794 -0.0325146 0)
(0.0803096 -0.0267633 0)
(0.0756454 -0.0187798 0)
(0.0752874 -0.0107815 0)
(0.07965 -0.00730037 0)
(0.0828175 -0.00537027 0)
(0.0839206 -0.00411347 0)
(0.083642 -0.00294292 0)
(0.0819723 -0.00155166 0)
(0.078246 0.000303411 0)
(0.0712381 0.00300702 0)
(0.05806 0.00716928 0)
(0.0471722 0.026807 0)
(0.0372943 0.0434987 0)
(0.0497804 0.0581577 0)
(-0.0970199 0.0948187 0)
(0.61573 0.39155 0)
(-0.237743 0.178214 0)
(-0.0366065 0.130095 0)
(-0.058418 0.0906348 0)
(-0.0624635 0.0492134 0)
(-0.0528791 -0.00158755 0)
(-0.0305713 -0.0591395 0)
(-0.00854828 -0.105615 0)
(0.0116363 -0.135279 0)
(0.0266738 -0.145353 0)
(0.0383901 -0.141396 0)
(0.047036 -0.126366 0)
(0.0536018 -0.103502 0)
(0.0594976 -0.0760008 0)
(0.0660774 -0.0475464 0)
(0.0751254 -0.0220335 0)
(0.0888477 -0.00558731 0)
(0.0993016 -0.012234 0)
(0.0990544 -0.0234695 0)
(0.0915018 -0.0274675 0)
(0.0817637 -0.0270488 0)
(0.0728559 -0.0244355 0)
(0.0653251 -0.0200504 0)
(0.0596871 -0.0139643 0)
(0.0571535 -0.00632533 0)
(0.0575112 -0.00222539 0)
(0.0581806 -0.000553518 0)
(0.0585859 0.00047531 0)
(0.0589418 0.00190361 0)
(0.0589049 0.00420835 0)
(0.0578738 0.00773033 0)
(0.0552455 0.012878 0)
(0.050186 0.0204057 0)
(0.0443976 0.0349949 0)
(0.0366912 0.0528069 0)
(0.0582932 0.0733591 0)
(-0.0160166 0.105268 0)
(0.0464237 0.0363883 0)
(-0.0590741 -0.0331108 0)
(-0.265995 -0.0551699 0)
(0.706284 0.436033 0)
(-0.277079 0.196209 0)
(-0.00525916 0.125101 0)
(-0.00966664 0.0893147 0)
(-4.27693e-07 0.0425773 0)
(0.0337384 -0.0220394 0)
(0.0612775 -0.0816765 0)
(0.0799685 -0.123676 0)
(0.0902097 -0.146838 0)
(0.093425 -0.152929 0)
(0.0917856 -0.145465 0)
(0.0869772 -0.128009 0)
(0.0808724 -0.104161 0)
(0.0752394 -0.0771673 0)
(0.0715211 -0.0504199 0)
(0.0708135 -0.0276025 0)
(0.0733843 -0.0128279 0)
(0.0748541 -0.0105554 0)
(0.0713763 -0.0139387 0)
(0.0637553 -0.0168363 0)
(0.0547315 -0.0174012 0)
(0.0463591 -0.0160795 0)
(0.0393287 -0.0132934 0)
(0.0341315 -0.00930355 0)
(0.031324 -0.00489688 0)
(0.0307665 -0.00257457 0)
(0.031328 -0.00183399 0)
(0.032541 -0.00137784 0)
(0.0343913 -0.000165879 0)
(0.0367592 0.00253149 0)
(0.0388671 0.00704891 0)
(0.0404657 0.0136334 0)
(0.0414887 0.0227318 0)
(0.0430534 0.03596 0)
(0.0437178 0.0529467 0)
(0.0666843 0.0754237 0)
(0.0506935 0.095772 0)
(0.0904457 0.0677011 0)
(0.113051 0.0441497 0)
(-0.12572 -0.00589126 0)
(0.765367 0.476351 0)
(-0.296046 0.179618 0)
(0.0270654 0.0691919 0)
(0.05871 0.0518842 0)
(0.0942486 0.00799683 0)
(0.138017 -0.0550849 0)
(0.163658 -0.104304 0)
(0.17356 -0.13476 0)
(0.170346 -0.147977 0)
(0.157512 -0.14677 0)
(0.138778 -0.134536 0)
(0.117398 -0.11486 0)
(0.0961855 -0.0911217 0)
(0.0772303 -0.0659422 0)
(0.0619988 -0.0420281 0)
(0.0512815 -0.0225443 0)
(0.044826 -0.0101427 0)
(0.040201 -0.00619099 0)
(0.034718 -0.0071554 0)
(0.0278514 -0.00898378 0)
(0.0205737 -0.00970777 0)
(0.0138761 -0.00920596 0)
(0.00828979 -0.00775033 0)
(0.0042679 -0.00565063 0)
(0.00221023 -0.0036099 0)
(0.0019753 -0.00282551 0)
(0.00290734 -0.00306195 0)
(0.00467978 -0.00345912 0)
(0.00730461 -0.00312006 0)
(0.0110636 -0.00108045 0)
(0.0164327 0.00349787 0)
(0.0218826 0.0101562 0)
(0.027972 0.0188268 0)
(0.035941 0.0300825 0)
(0.0449532 0.0435998 0)
(0.0675657 0.0615101 0)
(0.0823375 0.0712819 0)
(0.114244 0.0512824 0)
(0.153452 0.0428591 0)
(-0.0367985 0.0897593 0)
(0.872231 0.474223 0)
(-0.0521786 0.156076 0)
(0.118929 -0.020682 0)
(0.208853 -0.0656427 0)
(0.257208 -0.0883457 0)
(0.279318 -0.1102 0)
(0.28253 -0.126702 0)
(0.26848 -0.133973 0)
(0.240645 -0.131805 0)
(0.204118 -0.121573 0)
(0.163861 -0.105103 0)
(0.123969 -0.0848714 0)
(0.087561 -0.0633701 0)
(0.05635 -0.0421708 0)
(0.031868 -0.0231938 0)
(0.0148956 -0.00923212 0)
(0.00441103 -0.00165913 0)
(-0.00168368 8.48123e-05 0)
(-0.00627822 -0.00122281 0)
(-0.0110652 -0.00292908 0)
(-0.0159725 -0.00393076 0)
(-0.0204859 -0.00417156 0)
(-0.0242377 -0.00387006 0)
(-0.0268941 -0.00334392 0)
(-0.0282564 -0.00307908 0)
(-0.0285165 -0.00356413 0)
(-0.0281072 -0.00467951 0)
(-0.0272567 -0.00597439 0)
(-0.0259057 -0.00691508 0)
(-0.0237107 -0.00687766 0)
(-0.0198554 -0.00511649 0)
(-0.0121946 -0.00107526 0)
(-0.00383995 0.00457634 0)
(0.00744996 0.0112329 0)
(0.0199586 0.0170845 0)
(0.0404692 0.0238341 0)
(0.0607178 0.0198306 0)
(0.0803645 -0.000709807 0)
(0.137744 0.0475196 0)
(-0.421181 0.198378 0)
(1.02198 0.423243 0)
(0.485937 0.278919 0)
(0.503016 0.176079 0)
(0.533706 0.0914294 0)
(0.506911 0.0272332 0)
(0.453684 -0.0224581 0)
(0.39373 -0.0553999 0)
(0.329744 -0.0715922 0)
(0.263232 -0.0742044 0)
(0.197802 -0.0674857 0)
(0.136919 -0.0547742 0)
(0.0835867 -0.0392107 0)
(0.0392767 -0.0233857 0)
(0.00283611 -0.00886314 0)
(-0.0216508 0.000719781 0)
(-0.0340757 0.00468602 0)
(-0.040167 0.00551605 0)
(-0.0434279 0.00445769 0)
(-0.0460816 0.00260834 0)
(-0.0487638 0.000866096 0)
(-0.0515225 -0.000416109 0)
(-0.0542282 -0.00126649 0)
(-0.0566864 -0.00185862 0)
(-0.0587246 -0.00242176 0)
(-0.0603393 -0.00318827 0)
(-0.0618127 -0.00428134 0)
(-0.063582 -0.00553812 0)
(-0.066051 -0.00659961 0)
(-0.0695855 -0.00697543 0)
(-0.0745971 -0.00603033 0)
(-0.081639 -0.00298597 0)
(-0.0904139 0.00258683 0)
(-0.100254 0.010724 0)
(-0.113816 0.021691 0)
(-0.134508 0.0357539 0)
(-0.164467 0.0524804 0)
(-0.207707 0.0691221 0)
(-0.262171 0.0830227 0)
(-0.33699 0.0915529 0)
(-0.596767 0.0870559 0)
(-0.112378 -0.0136124 0)
(0.107016 -0.0374143 0)
(0.177939 -0.0649978 0)
(0.162834 -0.0608969 0)
(0.138529 -0.0479693 0)
(0.108341 -0.0344781 0)
(0.0728154 -0.0216028 0)
(0.0338736 -0.00943589 0)
(-0.00643569 0.00151589 0)
(-0.0370488 0.00839769 0)
(-0.0573733 0.0121918 0)
(-0.0690284 0.0135092 0)
(-0.0748348 0.0130109 0)
(-0.0775887 0.0118318 0)
(-0.0789884 0.0106954 0)
(-0.0800293 0.0096473 0)
(-0.0813401 0.00883278 0)
(-0.0830618 0.00847554 0)
(-0.0850591 0.00864079 0)
(-0.0871356 0.00920037 0)
(-0.0891372 0.0099283 0)
(-0.0910543 0.0105951 0)
(-0.0929963 0.0109916 0)
(-0.0951718 0.0109907 0)
(-0.097807 0.0106395 0)
(-0.101036 0.0101652 0)
(-0.104845 0.0099674 0)
(-0.109019 0.0105786 0)
(-0.113037 0.0125986 0)
(-0.116752 0.0169984 0)
(-0.120023 0.0248095 0)
(-0.122772 0.0367165 0)
(-0.125043 0.0526 0)
(-0.126359 0.0705961 0)
(-0.12422 0.0842731 0)
(-0.109184 0.0787002 0)
(-0.0797335 0.0242668 0)
(-0.187309 -0.17503 0)
(0.0579187 0.180571 0)
(0.0271229 0.0501032 0)
(-0.00879025 -0.00731007 0)
(-0.0366421 -0.0104518 0)
(-0.0622484 -0.00403548 0)
(-0.0836423 0.000704373 0)
(-0.100392 0.00469023 0)
(-0.110392 0.00721459 0)
(-0.115566 0.00721075 0)
(-0.117644 0.00460028 0)
(-0.117232 0.00103628 0)
(-0.115159 -0.0026192 0)
(-0.112391 -0.00644117 0)
(-0.109778 -0.0104179 0)
(-0.107719 -0.0144077 0)
(-0.106382 -0.0185251 0)
(-0.105829 -0.0228398 0)
(-0.105977 -0.0272356 0)
(-0.106643 -0.0314999 0)
(-0.107633 -0.0354221 0)
(-0.108803 -0.0388157 0)
(-0.110082 -0.0415108 0)
(-0.111447 -0.0433305 0)
(-0.112882 -0.0440519 0)
(-0.114329 -0.0434062 0)
(-0.11565 -0.0411415 0)
(-0.116625 -0.0370723 0)
(-0.116934 -0.0310808 0)
(-0.116099 -0.0230734 0)
(-0.113348 -0.0129099 0)
(-0.107553 -0.000299199 0)
(-0.0974639 0.0151453 0)
(-0.0820854 0.0331017 0)
(-0.0611401 0.0506356 0)
(-0.0365625 0.0604524 0)
(0.0256931 0.0326191 0)
(0.146038 -0.0378029 0)
(-0.0465878 -0.0726441 0)
(-0.0383595 -0.315198 0)
(-0.409061 -0.123854 0)
(-0.300297 0.0581572 0)
(-0.269785 -0.0074809 0)
(-0.234013 -0.00584531 0)
(-0.228174 0.00485051 0)
(-0.224785 0.0140373 0)
(-0.219665 0.0220351 0)
(-0.211667 0.0297599 0)
(-0.200826 0.0372813 0)
(-0.188261 0.0442124 0)
(-0.175562 0.0503917 0)
(-0.163874 0.0561984 0)
(-0.153695 0.0618597 0)
(-0.145077 0.0675419 0)
(-0.137851 0.0735016 0)
(-0.131734 0.0799034 0)
(-0.126494 0.0867441 0)
(-0.12198 0.0938612 0)
(-0.118081 0.100946 0)
(-0.114698 0.107627 0)
(-0.11174 0.113562 0)
(-0.109138 0.118482 0)
(-0.106849 0.122161 0)
(-0.10486 0.124367 0)
(-0.103181 0.124842 0)
(-0.101796 0.123356 0)
(-0.100618 0.119818 0)
(-0.0994186 0.114398 0)
(-0.0977411 0.107598 0)
(-0.0947428 0.100237 0)
(-0.0889859 0.0933497 0)
(-0.0784526 0.0881016 0)
(-0.0613492 0.0857057 0)
(-0.0376207 0.0870539 0)
(-0.00636675 0.0912227 0)
(0.028054 0.0894113 0)
(0.0758369 0.0678013 0)
(0.134512 0.0303682 0)
(-0.505499 0.105655 0)
)
;

boundaryField
{
    floor
    {
        type            noSlip;
    }
    ceiling
    {
        type            noSlip;
    }
    sWall
    {
        type            noSlip;
    }
    nWall
    {
        type            noSlip;
    }
    sideWalls
    {
        type            empty;
    }
    glass1
    {
        type            noSlip;
    }
    glass2
    {
        type            noSlip;
    }
    sun
    {
        type            noSlip;
    }
    heatsource1
    {
        type            noSlip;
    }
    heatsource2
    {
        type            noSlip;
    }
    Table_master
    {
        type            noSlip;
    }
    Table_slave
    {
        type            noSlip;
    }
    inlet
    {
        type            fixedValue;
        value           uniform (0.277164 -0.114805 0);
    }
    outlet
    {
        type            zeroGradient;
    }
}


// ************************************************************************* //
