/*--------------------------------*- C++ -*----------------------------------*\
  =========                 |
  \\      /  F ield         | OpenFOAM: The Open Source CFD Toolbox
   \\    /   O peration     | Website:  https://openfoam.org
    \\  /    A nd           | Version:  6
     \\/     M anipulation  |
\*---------------------------------------------------------------------------*/
FoamFile
{
    version     2.0;
    format      ascii;
    class       volScalarField;
    location    "200";
    object      epsilon;
}
// * * * * * * * * * * * * * * * * * * * * * * * * * * * * * * * * * * * * * //

dimensions      [0 2 -3 0 0 0 0];

internalField   nonuniform List<scalar> 
459
(
0.00653799
0.00550735
0.00472068
0.00414185
0.00370145
0.00335098
0.00306073
0.00280697
0.00257541
0.00235533
0.00213782
0.00191419
0.00167358
0.00139631
0.00108309
2.06485e-05
1.71272e-05
5.59434e-06
2.48471e-06
2.09235e-06
2.28637e-06
2.73455e-06
3.19282e-06
3.63314e-06
4.06092e-06
4.43989e-06
5.12752e-06
6.37156e-06
8.78664e-06
1.35076e-05
2.23371e-05
3.54399e-05
6.17755e-05
5.0488e-05
0.0096894
0.00650885
0.00467276
0.00350796
0.00279997
0.00234683
0.00204212
0.00182354
0.00166239
0.00154258
0.00145305
0.00138105
0.00130485
0.00115936
0.000955224
0.000881712
0.000385586
4.87702e-05
7.66238e-05
1.4278e-05
4.56952e-06
4.47711e-06
5.00285e-06
5.51184e-06
6.53262e-06
7.81911e-06
9.31405e-06
1.1084e-05
1.32687e-05
1.68115e-05
2.32831e-05
3.46307e-05
5.0033e-05
8.08219e-05
0.000216571
0.000129048
0.0127325
0.00779839
0.00471846
0.00301639
0.00215471
0.00168928
0.00142236
0.00125804
0.00115195
0.00108766
0.00105644
0.00104889
0.001048
0.000990402
0.000884462
0.000896975
0.000360295
6.64593e-05
5.83212e-05
1.58603e-05
1.16003e-05
1.116e-05
1.01322e-05
7.58326e-06
9.20613e-06
1.14935e-05
1.46025e-05
1.91208e-05
2.62569e-05
3.87657e-05
6.34892e-05
0.00011961
0.000101842
0.000152164
0.00037351
0.000219384
0.0158965
0.00948535
0.00450743
0.00218984
0.00128989
0.000912773
0.000744721
0.000695254
0.000698383
0.000726062
0.000768599
0.0008214
0.000878991
0.000872946
0.000819996
0.00083397
0.000297926
8.40089e-05
4.71895e-05
3.66711e-05
3.22577e-05
3.71919e-05
4.58402e-05
5.92409e-05
8.07666e-05
8.76587e-05
9.56258e-05
0.00010398
0.000113988
0.000127273
0.000146403
0.000176633
0.000231241
0.000136459
0.000180664
0.000307464
0.000238505
0.0195083
0.0120544
0.0042602
0.00131817
0.000661437
0.000466504
0.000398629
0.000402563
0.000447391
0.000512964
0.000590699
0.000674386
0.00075418
0.000747624
0.000708686
0.00064186
0.000207945
6.5961e-05
4.35849e-05
4.4447e-05
4.74945e-05
5.25742e-05
5.82333e-05
6.40017e-05
6.94231e-05
7.40224e-05
7.84268e-05
8.28707e-05
8.79523e-05
9.43483e-05
0.00010285
0.000114439
0.000130022
0.000148539
0.000184054
0.00024041
0.000331668
0.000429415
0.000459673
0.00037906
0.0239821
0.0162194
0.0045007
0.000805577
0.000531261
0.000351149
0.000287945
0.000292419
0.000341015
0.000411576
0.000492877
0.000573119
0.000630581
0.000622972
0.000589755
0.000488634
0.000175849
8.06759e-05
7.48054e-05
8.35117e-05
9.32233e-05
0.000102419
0.00011059
0.000117599
0.000123854
0.000127695
0.000130415
0.000132921
0.00013591
0.000140056
0.000146124
0.00015521
0.000169128
0.000190838
0.000225698
0.000281842
0.000376329
0.000552873
0.000932904
0.000761098
0.0300466
0.0237541
0.00852253
0.00105022
0.000654542
0.000353142
0.000260914
0.000261096
0.000299926
0.000357916
0.000424912
0.000487568
0.000525626
0.000518911
0.000489246
0.000388804
0.000176412
0.000129989
0.000152671
0.000183906
0.000211684
0.000232362
0.000246194
0.000251319
0.000249851
0.000246246
0.000242364
0.000239205
0.000237391
0.000237448
0.000239997
0.000245982
0.000256846
0.00027452
0.000301991
0.000347927
0.000444272
0.000706275
0.00153693
0.00122349
0.0399247
0.0422716
0.0272714
0.00213607
0.00109553
0.000475321
0.000284929
0.000252351
0.000283279
0.000329548
0.000381787
0.000428196
0.00045224
0.000443178
0.000413581
0.000327064
0.000199557
0.000227235
0.000316166
0.000413244
0.000497072
0.00053932
0.000543934
0.000528635
0.000505755
0.000482568
0.000462394
0.000446346
0.000434584
0.000427025
0.000423739
0.000425206
0.000432348
0.000446041
0.000466746
0.000498195
0.000568234
0.000830134
0.00209204
0.00181618
0.0596559
0.0972468
0.128621
0.0209057
0.00255427
0.000958757
0.000488776
0.000312901
0.00030076
0.00033347
0.000374338
0.000409472
0.000423071
0.000407092
0.000374465
0.000305552
0.000254342
0.000406861
0.000639527
0.000910595
0.00108323
0.00114397
0.00113096
0.00107959
0.00101595
0.000955046
0.000903585
0.000863374
0.000833925
0.000813998
0.000802458
0.000798719
0.000802826
0.000814989
0.000834898
0.00086353
0.000917927
0.00110625
0.00201278
0.00172424
0.305305
0.0650461
0.00586908
0.0021807
0.00125902
0.000754564
0.000547002
0.000500121
0.000506607
0.000522813
0.000523359
0.000503694
0.000492044
0.000470527
0.000541809
0.000880866
0.00140141
0.00192234
0.00227051
0.0024069
0.00238367
0.00227434
0.00213673
0.00200505
0.00189497
0.00181088
0.00175144
0.00171293
0.00169123
0.00168288
0.00168566
0.00169831
0.00171935
0.0017459
0.0017775
0.00183541
0.00188134
0.00125008
0.0574062
0.00910931
0.00819975
0.00436022
0.00307303
0.00195226
0.00118341
0.00078536
0.000639831
0.000589384
0.000562682
0.000529302
0.000511368
0.000613368
0.000991143
0.0017679
0.00288722
0.0040245
0.00480878
0.00512283
0.00507701
0.00484472
0.00456058
0.004301
0.00409874
0.00396106
0.00388221
0.00385076
0.003854
0.00388058
0.00392201
0.00397227
0.00402579
0.00407724
0.00413388
0.00423472
0.00385835
0.00232759
0.000436703
0.000507453
0.00583467
0.00416179
0.0020752
0.00134886
0.00116687
0.00104039
0.000982675
0.000959984
0.000930805
0.000913346
0.000897695
0.000861491
0.000845002
0.000879824
0.000969415
0.0011145
0.00131802
0.00160788
0.00195199
0.00226636
0.00249083
0.00260871
0.00263602
0.00260227
0.00253647
0.00246087
0.00238963
0.00232979
0.00228296
0.00224719
0.00221857
0.00219233
0.00216319
0.00212534
0.00207235
0.00198912
0.00174953
0.00117402
)
;

boundaryField
{
    floor
    {
        Cmu             0.09;
        kappa           0.41;
        E               9.8;
        type            epsilonWallFunction;
        value           nonuniform List<scalar> 
29
(
0.00108309
2.06485e-05
1.71272e-05
5.59434e-06
2.48471e-06
2.09235e-06
2.28637e-06
2.73455e-06
3.19282e-06
3.63314e-06
4.06092e-06
4.43989e-06
5.12752e-06
6.37156e-06
8.78664e-06
1.35076e-05
2.23371e-05
3.54399e-05
6.17755e-05
5.0488e-05
5.0488e-05
0.000129048
0.000219384
0.000238505
0.00108309
2.06485e-05
4.87702e-05
6.64593e-05
8.40089e-05
)
;
    }
    ceiling
    {
        Cmu             0.09;
        kappa           0.41;
        E               9.8;
        type            epsilonWallFunction;
        value           nonuniform List<scalar> 
43
(
0.000436703
0.000507453
0.00583467
0.00416179
0.0020752
0.00134886
0.00116687
0.00104039
0.000982675
0.000959984
0.000930805
0.000913346
0.000897695
0.000861491
0.000845002
0.000879824
0.000969415
0.0011145
0.00131802
0.00160788
0.00195199
0.00226636
0.00249083
0.00260871
0.00263602
0.00260227
0.00253647
0.00246087
0.00238963
0.00232979
0.00228296
0.00224719
0.00221857
0.00219233
0.00216319
0.00212534
0.00207235
0.00198912
0.00174953
0.00117402
0.0596559
0.0972468
0.0574062
)
;
    }
    sWall
    {
        Cmu             0.09;
        kappa           0.41;
        E               9.8;
        type            epsilonWallFunction;
        value           uniform 0.000436703;
    }
    nWall
    {
        Cmu             0.09;
        kappa           0.41;
        E               9.8;
        type            epsilonWallFunction;
        value           nonuniform List<scalar> 6(0.00037906 0.000761098 0.00122349 0.00125008 0.00232759 0.00117402);
    }
    sideWalls
    {
        type            empty;
    }
    glass1
    {
        Cmu             0.09;
        kappa           0.41;
        E               9.8;
        type            epsilonWallFunction;
        value           nonuniform List<scalar> 9(0.00653799 0.0096894 0.0127325 0.0158965 0.0195083 0.0239821 0.0300466 0.0399247 0.0596559);
    }
    glass2
    {
        Cmu             0.09;
        kappa           0.41;
        E               9.8;
        type            epsilonWallFunction;
        value           nonuniform List<scalar> 2(0.00181618 0.00172424);
    }
    sun
    {
        Cmu             0.09;
        kappa           0.41;
        E               9.8;
        type            epsilonWallFunction;
        value           nonuniform List<scalar> 
14
(
0.00653799
0.00550735
0.00472068
0.00414185
0.00370145
0.00335098
0.00306073
0.00280697
0.00257541
0.00235533
0.00213782
0.00191419
0.00167358
0.00139631
)
;
    }
    heatsource1
    {
        Cmu             0.09;
        kappa           0.41;
        E               9.8;
        type            epsilonWallFunction;
        value           nonuniform List<scalar> 3(0.000429415 0.000459673 0.00037906);
    }
    heatsource2
    {
        Cmu             0.09;
        kappa           0.41;
        E               9.8;
        type            epsilonWallFunction;
        value           nonuniform List<scalar> 4(0.000881712 0.000385586 0.000385586 0.000360295);
    }
    Table_master
    {
        Cmu             0.09;
        kappa           0.41;
        E               9.8;
        type            epsilonWallFunction;
        value           nonuniform List<scalar> 9(7.58326e-06 9.20613e-06 1.14935e-05 1.46025e-05 1.91208e-05 2.62569e-05 3.87657e-05 6.34892e-05 0.00011961);
    }
    Table_slave
    {
        Cmu             0.09;
        kappa           0.41;
        E               9.8;
        type            epsilonWallFunction;
        value           nonuniform List<scalar> 9(8.07666e-05 8.76587e-05 9.56258e-05 0.00010398 0.000113988 0.000127273 0.000146403 0.000176633 0.000231241);
    }
    inlet
    {
        type            turbulentMixingLengthDissipationRateInlet;
        mixingLength    0.01;
        phi             phi;
        k               k;
        value           uniform 0.305305;
    }
    outlet
    {
        type            zeroGradient;
    }
}


// ************************************************************************* //
