/*--------------------------------*- C++ -*----------------------------------*\
  =========                 |
  \\      /  F ield         | OpenFOAM: The Open Source CFD Toolbox
   \\    /   O peration     | Website:  https://openfoam.org
    \\  /    A nd           | Version:  6
     \\/     M anipulation  |
\*---------------------------------------------------------------------------*/
FoamFile
{
    version     2.0;
    format      ascii;
    class       volScalarField;
    location    "610";
    object      alphat;
}
// * * * * * * * * * * * * * * * * * * * * * * * * * * * * * * * * * * * * * //

dimensions      [1 -1 -1 0 0 0 0];

internalField   nonuniform List<scalar> 
459
(
0.000982848
0.00107389
0.00110102
0.00115554
0.00120579
0.00125335
0.00130083
0.00134942
0.0013898
0.00141675
0.00142362
0.00140354
0.00134908
0.00124542
0.00096491
0.000586821
0.000810986
0.000787322
0.00076497
0.000742356
0.000715293
0.000676649
0.000636194
0.000598667
0.000564839
0.00053462
0.000507598
0.000483118
0.000460497
0.000438907
0.000417115
0.000393818
0.00035715
0.000342724
0.00131805
0.0030331
0.00281738
0.00323453
0.00366446
0.00411233
0.00452243
0.00484381
0.00518088
0.00551305
0.00580468
0.00601152
0.00607288
0.0058817
0.00489882
0.00111563
0.000771065
0.000841612
0.00240152
0.00231702
0.00251172
0.00265507
0.00260174
0.00200768
0.00172057
0.00152324
0.00137385
0.0012543
0.00114983
0.00105539
0.000965515
0.000878124
0.0008039
0.000781299
0.000670498
0.000436902
0.0016002
0.00407067
0.00344439
0.00418112
0.00452009
0.00476883
0.0049648
0.00514322
0.00540169
0.00574197
0.00614688
0.00657537
0.006947
0.00715314
0.00678371
0.00512026
0.00114145
0.00102774
0.00193254
0.00262095
0.00314142
0.00345807
0.00324818
0.000925277
0.000816533
0.000729586
0.000660045
0.000603923
0.000558347
0.000521158
0.00049115
0.000468418
0.000527817
0.000661966
0.00074179
0.000479756
0.00187178
0.0051109
0.00336447
0.00433595
0.00450762
0.00449087
0.00447026
0.00453984
0.00474086
0.00508137
0.0055599
0.00613907
0.00670673
0.00717748
0.00729084
0.00672664
0.0042189
0.00136227
0.00191839
0.00265953
0.00344393
0.00407586
0.00443222
0.00405727
0.00102065
0.000936061
0.000881305
0.00084412
0.000815829
0.000789399
0.000759408
0.000728283
0.000691008
0.00065937
0.000687245
0.000843226
0.000543096
0.00214973
0.00648918
0.00344452
0.00411658
0.00431754
0.00414212
0.00399559
0.00403491
0.00422565
0.00456922
0.00508681
0.0057429
0.00635497
0.00681459
0.00705374
0.00699708
0.00648678
0.00563726
0.00552387
0.00564237
0.00578486
0.00586181
0.00582737
0.00556448
0.00467494
0.00430598
0.00413288
0.00403096
0.0039403
0.00381996
0.00361259
0.00321727
0.00267543
0.00206708
0.0015591
0.00134986
0.000933847
0.00062953
0.00062874
0.00061872
0.00244691
0.00807196
0.00450621
0.0037747
0.00410651
0.00402721
0.0038327
0.00384789
0.00402828
0.00436974
0.0049074
0.00556885
0.00618777
0.0066174
0.00681837
0.00686549
0.00686529
0.00689046
0.00697967
0.00700428
0.00692009
0.00673576
0.00647843
0.00616861
0.00581636
0.00557497
0.00541847
0.00530491
0.00520281
0.00507941
0.00489502
0.00457576
0.00408844
0.0034521
0.00277104
0.00225124
0.00173856
0.00134735
0.00148091
0.000809139
0.00274484
0.00933485
0.00667862
0.00435157
0.00389642
0.0040006
0.00397937
0.00396487
0.00406562
0.0043831
0.00494229
0.00564522
0.00629328
0.00671568
0.00688647
0.00695058
0.00709325
0.00731404
0.00743357
0.00735389
0.00711023
0.0067709
0.00640255
0.00606405
0.00580003
0.00562881
0.00551789
0.00543876
0.00537071
0.00528418
0.00514548
0.00494309
0.00465047
0.00420768
0.00365763
0.0031128
0.00255989
0.00206417
0.00193377
0.000967143
0.00282803
0.00902772
0.00744265
0.00607842
0.00517119
0.00482256
0.00444011
0.00417646
0.00419743
0.00455129
0.00519348
0.00597224
0.00665047
0.00705687
0.00719862
0.00724876
0.00732783
0.00737728
0.00727247
0.00701515
0.00667392
0.00631533
0.00599162
0.00573326
0.00554526
0.00540924
0.00530015
0.00520687
0.00512373
0.0050286
0.00488784
0.00471535
0.00458148
0.00442761
0.00412705
0.0037988
0.00344161
0.00288371
0.0030638
0.00125121
0.00277719
0.00335971
0.00371972
0.00386029
0.00383564
0.0037474
0.00370816
0.00382645
0.00420741
0.00486677
0.00571449
0.0065801
0.0072186
0.00751397
0.00753712
0.00743691
0.00722729
0.00700106
0.00675627
0.00649392
0.00623622
0.00600469
0.00580903
0.00564467
0.00549571
0.0053423
0.00517058
0.00497991
0.0047767
0.00454852
0.0042443
0.00384775
0.00344308
0.00311407
0.0028459
0.00260077
0.00238404
0.00219783
0.00206946
0.00131128
0.00145212
0.00232572
0.00291922
0.00332759
0.00375497
0.00438551
0.00514368
0.00596732
0.00678955
0.00749927
0.00783571
0.00777282
0.00749278
0.00722832
0.00703028
0.00688082
0.00674823
0.00661839
0.00648982
0.00636709
0.00625158
0.00613498
0.00600044
0.00582611
0.00559016
0.00527795
0.00489144
0.00445531
0.00400306
0.00354434
0.00313318
0.00281412
0.00259134
0.00244285
0.00232475
0.00219456
0.00207413
0.00144766
0.00171883
0.00293649
0.00376252
0.00456077
0.00553014
0.00625633
0.00682719
0.0074266
0.00805542
0.00861325
0.00868449
0.00835523
0.00793579
0.00764611
0.00749958
0.00743852
0.00740783
0.00737006
0.00730426
0.00722886
0.00716427
0.0071133
0.007068
0.00700774
0.00689781
0.00669412
0.00635777
0.00587734
0.00531239
0.00471373
0.00413819
0.00363097
0.00321988
0.00290954
0.00267183
0.00249874
0.00324829
0.00160181
0.00159764
0.00168291
0.00175506
0.00192347
0.00190097
0.00182175
0.00175723
0.00177041
0.00183811
0.00190161
0.00194084
0.00193833
0.00189368
0.00184075
0.00180049
0.00177417
0.00175902
0.00174945
0.00174151
0.00173389
0.00172867
0.00172566
0.00172369
0.00172137
0.00171586
0.00170317
0.0016791
0.00164126
0.00159179
0.00153968
0.00148827
0.00144263
0.00140581
0.00137995
0.00136638
0.00136368
0.00136419
0.00135068
0.00135304
0.00131572
)
;

boundaryField
{
    floor
    {
        type            compressible::alphatWallFunction;
        Prt             0.85;
        value           nonuniform List<scalar> 
29
(
0.000137618
8.26502e-05
0.000115631
0.00011221
0.000108966
0.000105672
0.000101714
9.60294e-05
9.00359e-05
8.4434e-05
7.93471e-05
7.47706e-05
7.06509e-05
6.68945e-05
6.34021e-05
6.00482e-05
5.66413e-05
5.29737e-05
4.71427e-05
4.48249e-05
4.48243e-05
5.97348e-05
6.63769e-05
7.60584e-05
0.000137616
8.26492e-05
0.000120044
0.000146479
0.000192666
)
;
    }
    ceiling
    {
        type            compressible::alphatWallFunction;
        Prt             0.85;
        value           nonuniform List<scalar> 
43
(
0.000224292
0.000235643
0.0002452
0.000267366
0.000264431
0.000254039
0.00024554
0.000247292
0.000256222
0.000264563
0.000269702
0.000269377
0.000263534
0.000256588
0.000251289
0.000247817
0.000245817
0.000244553
0.000243502
0.000242495
0.000241804
0.000241406
0.000241145
0.000240837
0.000240108
0.000238426
0.000235232
0.0002302
0.000223602
0.000216628
0.00020972
0.000203566
0.000198585
0.000195079
0.000193235
0.000192868
0.000192937
0.000191101
0.000191422
0.000186338
0.000376884
0.000449417
0.000240382
)
;
    }
    sWall
    {
        type            compressible::alphatWallFunction;
        Prt             0.85;
        value           uniform 0.000223488;
    }
    nWall
    {
        type            compressible::alphatWallFunction;
        Prt             0.85;
        value           nonuniform List<scalar> 6(8.7089e-05 0.000115004 0.000137567 0.000203851 0.00022454 0.000185944);
    }
    sideWalls
    {
        type            empty;
    }
    glass1
    {
        type            compressible::alphatWallFunction;
        Prt             0.85;
        value           nonuniform List<scalar> 9(0.000137824 0.000183892 0.000221688 0.000257409 0.000293416 0.000331387 0.000368984 0.000379463 0.000373198);
    }
    glass2
    {
        type            compressible::alphatWallFunction;
        Prt             0.85;
        value           nonuniform List<scalar> 2(0.000176349 0.000184574);
    }
    sun
    {
        type            compressible::alphatWallFunction;
        Prt             0.85;
        value           nonuniform List<scalar> 
14
(
0.000140167
0.000152944
0.000156728
0.000164302
0.000171247
0.000177788
0.000184291
0.000190918
0.000196404
0.000200055
0.000200985
0.000198266
0.000190869
0.000176698
)
;
    }
    heatsource1
    {
        type            compressible::alphatWallFunction;
        Prt             0.85;
        value           nonuniform List<scalar> 3(8.88961e-05 8.87784e-05 8.7285e-05);
    }
    heatsource2
    {
        type            compressible::alphatWallFunction;
        Prt             0.85;
        value           nonuniform List<scalar> 4(0.000158602 0.0001097 0.000109699 0.000162186);
    }
    Table_master
    {
        type            compressible::alphatWallFunction;
        Prt             0.85;
        value           nonuniform List<scalar> 9(0.000131846 0.000116277 0.000103652 9.34232e-05 8.50723e-05 7.82203e-05 7.25779e-05 6.79881e-05 6.44877e-05);
    }
    Table_slave
    {
        type            compressible::alphatWallFunction;
        Prt             0.85;
        value           nonuniform List<scalar> 9(0.000145326 0.000133381 0.000125581 0.000120252 0.000116178 0.000112358 0.000108004 0.000103464 9.79949e-05);
    }
    inlet
    {
        type            fixedValue;
        value           uniform 1.94e-05;
    }
    outlet
    {
        type            zeroGradient;
    }
}


// ************************************************************************* //
