/*--------------------------------*- C++ -*----------------------------------*\
  =========                 |
  \\      /  F ield         | OpenFOAM: The Open Source CFD Toolbox
   \\    /   O peration     | Website:  https://openfoam.org
    \\  /    A nd           | Version:  6
     \\/     M anipulation  |
\*---------------------------------------------------------------------------*/
FoamFile
{
    version     2.0;
    format      ascii;
    class       volScalarField;
    location    "610";
    object      nut;
}
// * * * * * * * * * * * * * * * * * * * * * * * * * * * * * * * * * * * * * //

dimensions      [0 2 -1 0 0 0 0];

internalField   nonuniform List<scalar> 
459
(
0.000846986
0.000925039
0.000948393
0.000995361
0.00103865
0.00107961
0.00112052
0.00116237
0.00119714
0.00122033
0.00122623
0.00120892
0.001162
0.00107271
0.000831008
0.00050535
0.000698576
0.000678252
0.000659023
0.000639555
0.000616248
0.000582955
0.0005481
0.000515765
0.000486618
0.000460579
0.000437297
0.000416203
0.000396712
0.000378108
0.00035933
0.000339255
0.000307656
0.000295166
0.00113623
0.00261301
0.00242711
0.00278652
0.00315694
0.00354281
0.00389611
0.00417296
0.00446324
0.00474921
0.00500022
0.00517823
0.00523103
0.00506638
0.00421976
0.000961011
0.000664206
0.000724991
0.00206901
0.0019963
0.00216414
0.00228772
0.00224182
0.00172994
0.00148256
0.00131253
0.0011838
0.00108079
0.000990767
0.000909388
0.000831939
0.000756628
0.000692657
0.000673157
0.000577654
0.000376381
0.00137994
0.00350727
0.00296755
0.00360239
0.00389455
0.00410896
0.00427785
0.00443155
0.00465407
0.00494688
0.00529527
0.00566404
0.00598406
0.00616174
0.00584367
0.00441081
0.000983298
0.000885431
0.00166504
0.00225829
0.00270689
0.00297987
0.00279909
0.00079735
0.000703641
0.000628715
0.000568789
0.000520426
0.000481152
0.000449105
0.000423244
0.000403651
0.00045483
0.000570404
0.000639143
0.000413344
0.00161469
0.00440408
0.00289894
0.00373617
0.0038843
0.00387006
0.00385243
0.0039124
0.00408537
0.00437823
0.00478986
0.00528828
0.00577711
0.0061828
0.00628072
0.00579488
0.00363456
0.00117362
0.00165282
0.00229152
0.0029676
0.00351237
0.00381968
0.00349671
0.00087967
0.000806791
0.000759618
0.000727586
0.000703216
0.000680446
0.000654604
0.000627782
0.000595654
0.000568332
0.000592299
0.000726646
0.000467967
0.00185508
0.00559254
0.00296816
0.00354743
0.0037209
0.00357003
0.003444
0.00347794
0.003642
0.00393736
0.00438248
0.00494704
0.00547411
0.00587026
0.00607667
0.00602822
0.00558884
0.00485718
0.00475978
0.00486224
0.00498538
0.00505205
0.00502265
0.0047963
0.00402974
0.00371183
0.00356271
0.00347493
0.00339684
0.00329313
0.00311438
0.00277358
0.00230645
0.00178191
0.0013439
0.00116341
0.000804761
0.000542511
0.000541833
0.000533252
0.00211218
0.00695784
0.00388342
0.00325304
0.00353928
0.00347129
0.00330403
0.00331725
0.00347229
0.00376569
0.00422799
0.0047971
0.00533005
0.00570047
0.00587416
0.00591531
0.0059156
0.00593771
0.00601504
0.0060367
0.00596457
0.00580606
0.00558456
0.00531772
0.00501424
0.00480627
0.00467145
0.00457361
0.00448563
0.00437927
0.0042203
0.00394501
0.00352482
0.00297611
0.00238882
0.00194055
0.00149847
0.00116124
0.00127632
0.000697401
0.00237001
0.0080486
0.00575691
0.00375077
0.00335857
0.00344867
0.00343083
0.00341836
0.0035046
0.00377718
0.00425789
0.0048627
0.00542085
0.00578526
0.00593323
0.00598926
0.00611285
0.00630369
0.00640721
0.00633899
0.00612935
0.00583715
0.00551984
0.00522818
0.00500067
0.00485313
0.00475755
0.00468935
0.00463069
0.00455608
0.00443647
0.00426193
0.00400957
0.00362771
0.00315334
0.00268347
0.00220664
0.00177922
0.00166675
0.000833629
0.00244281
0.00778929
0.00641964
0.00524184
0.00445909
0.00415852
0.00382888
0.00360102
0.00361798
0.00392157
0.00447366
0.0051439
0.0057284
0.00607949
0.00620284
0.00624711
0.00631604
0.00635924
0.00626936
0.00604789
0.00575398
0.00544502
0.00516607
0.00494339
0.00478135
0.0046641
0.00457005
0.00448961
0.00441791
0.00433586
0.00421445
0.00406569
0.00395021
0.00381746
0.0035582
0.00327506
0.00296694
0.00248587
0.00264102
0.00107879
0.00240019
0.00290215
0.00321189
0.00333207
0.0033099
0.00323318
0.00319832
0.00329871
0.00362525
0.00419176
0.00492104
0.00566672
0.00621787
0.00647408
0.00649564
0.00641047
0.00623044
0.00603585
0.00582511
0.00559914
0.0053771
0.00517758
0.00500893
0.00486724
0.00473882
0.00460654
0.00445846
0.00429403
0.00411878
0.003922
0.00365965
0.00331768
0.00296872
0.00268502
0.00245379
0.00224244
0.0020556
0.00189512
0.00178452
0.00113089
0.00124375
0.00199676
0.00250947
0.00286181
0.0032298
0.00377254
0.00442538
0.00513517
0.00584462
0.00645816
0.00675059
0.00669887
0.00645889
0.00623168
0.00606138
0.0059328
0.00581865
0.00570682
0.00559604
0.00549026
0.00539069
0.00529016
0.00517415
0.00502383
0.00482036
0.00455113
0.00421783
0.00384174
0.00345175
0.00305619
0.00270166
0.00242653
0.00223445
0.00210643
0.00200464
0.00189244
0.00178869
0.00124857
0.00147249
0.00252038
0.00323203
0.00391937
0.00475374
0.00537991
0.00587336
0.00639206
0.00693672
0.0074208
0.00748461
0.00720243
0.00684177
0.00659252
0.00646645
0.00641398
0.00638763
0.00635513
0.00629844
0.00623345
0.00617778
0.00613384
0.00609479
0.00604285
0.00594806
0.00577243
0.00548239
0.00506811
0.00458095
0.00406472
0.00356842
0.00313103
0.00277655
0.00250896
0.00230401
0.0021548
0.0028013
0.00138148
0.00137089
0.00144387
0.00150577
0.00165203
0.00163369
0.00156639
0.00151173
0.00152389
0.0015829
0.00163821
0.00167252
0.00167074
0.00163249
0.001587
0.00155237
0.00152972
0.00151669
0.00150845
0.00150162
0.00149506
0.00149056
0.00148798
0.00148628
0.00148428
0.00147954
0.0014686
0.00144786
0.00141523
0.00137259
0.00132766
0.00128333
0.00124399
0.00121224
0.00118996
0.00117826
0.00117594
0.00117639
0.00116477
0.0011668
0.00113473
)
;

boundaryField
{
    floor
    {
        type            nutkWallFunction;
        Cmu             0.09;
        kappa           0.41;
        E               9.8;
        value           nonuniform List<scalar> 
29
(
0.000100628
6.0403e-05
8.45521e-05
8.20542e-05
7.96826e-05
7.72732e-05
7.43767e-05
7.02162e-05
6.58293e-05
6.17291e-05
5.80059e-05
5.46565e-05
5.16416e-05
4.88927e-05
4.63371e-05
4.3883e-05
4.13902e-05
3.87068e-05
3.44409e-05
3.27405e-05
3.27404e-05
4.36545e-05
4.85185e-05
5.56084e-05
0.000100628
6.04029e-05
8.77864e-05
0.000107148
0.000140959
)
;
    }
    ceiling
    {
        type            nutkWallFunction;
        Cmu             0.09;
        kappa           0.41;
        E               9.8;
        value           nonuniform List<scalar> 
43
(
0.000163522
0.00017178
0.000178749
0.000195105
0.000193072
0.000185566
0.000179444
0.000180815
0.000187428
0.000193602
0.00019742
0.000197224
0.000192969
0.000187895
0.000184022
0.000181482
0.00018002
0.000179095
0.000178327
0.000177589
0.000177084
0.000176793
0.000176601
0.000176377
0.000175843
0.000174611
0.000172271
0.000168584
0.00016375
0.000158639
0.000153578
0.000149069
0.00014542
0.000142851
0.000141501
0.000141233
0.000141285
0.000139941
0.000140176
0.000136463
0.00027668
0.000329799
0.000174993
)
;
    }
    sWall
    {
        type            nutkWallFunction;
        Cmu             0.09;
        kappa           0.41;
        E               9.8;
        value           uniform 0.000163551;
    }
    nWall
    {
        type            nutkWallFunction;
        Cmu             0.09;
        kappa           0.41;
        E               9.8;
        value           nonuniform List<scalar> 6(6.3935e-05 8.44038e-05 0.000100948 0.000149608 0.000164776 0.000136474);
    }
    sideWalls
    {
        type            empty;
    }
    glass1
    {
        type            nutkWallFunction;
        Cmu             0.09;
        kappa           0.41;
        E               9.8;
        value           nonuniform List<scalar> 9(0.000102564 0.000136709 0.000164698 0.000191137 0.000217776 0.000245856 0.00027365 0.000281443 0.000276892);
    }
    glass2
    {
        type            nutkWallFunction;
        Cmu             0.09;
        kappa           0.41;
        E               9.8;
        value           nonuniform List<scalar> 2(0.000129981 0.000136048);
    }
    sun
    {
        type            nutkWallFunction;
        Cmu             0.09;
        kappa           0.41;
        E               9.8;
        value           nonuniform List<scalar> 
14
(
0.00010255
0.000111863
0.000114631
0.000120176
0.000125259
0.000130048
0.000134808
0.000139659
0.000143674
0.000146345
0.000147023
0.000145031
0.000139616
0.000129241
)
;
    }
    heatsource1
    {
        type            nutkWallFunction;
        Cmu             0.09;
        kappa           0.41;
        E               9.8;
        value           nonuniform List<scalar> 3(6.51162e-05 6.50303e-05 6.39429e-05);
    }
    heatsource2
    {
        type            nutkWallFunction;
        Cmu             0.09;
        kappa           0.41;
        E               9.8;
        value           nonuniform List<scalar> 4(0.000116126 8.03217e-05 8.03217e-05 0.000118757);
    }
    Table_master
    {
        type            nutkWallFunction;
        Cmu             0.09;
        kappa           0.41;
        E               9.8;
        value           nonuniform List<scalar> 9(9.65757e-05 8.51719e-05 7.59239e-05 6.84315e-05 6.23146e-05 5.72956e-05 5.31626e-05 4.98004e-05 4.7236e-05);
    }
    Table_slave
    {
        type            nutkWallFunction;
        Cmu             0.09;
        kappa           0.41;
        E               9.8;
        value           nonuniform List<scalar> 9(0.000106463 9.77154e-05 9.20039e-05 8.81019e-05 8.51195e-05 8.23217e-05 7.91329e-05 7.58071e-05 7.18007e-05);
    }
    inlet
    {
        type            calculated;
        value           uniform 0.000100623;
    }
    outlet
    {
        type            calculated;
        value           nonuniform List<scalar> 2(0.00137089 0.00144387);
    }
}


// ************************************************************************* //
