/*--------------------------------*- C++ -*----------------------------------*\
  =========                 |
  \\      /  F ield         | OpenFOAM: The Open Source CFD Toolbox
   \\    /   O peration     | Website:  https://openfoam.org
    \\  /    A nd           | Version:  6
     \\/     M anipulation  |
\*---------------------------------------------------------------------------*/
FoamFile
{
    version     2.0;
    format      ascii;
    class       volScalarField;
    location    "1700";
    object      epsilon;
}
// * * * * * * * * * * * * * * * * * * * * * * * * * * * * * * * * * * * * * //

dimensions      [0 2 -3 0 0 0 0];

internalField   nonuniform List<scalar> 
459
(
0.000515496
0.000682139
0.000733683
0.00085008
0.000970178
0.00109616
0.00123645
0.00136039
0.00143822
0.00144752
0.00137659
0.00122591
0.00100478
0.000723896
0.000428116
4.62226e-05
7.9612e-05
0.000121531
0.000135052
0.000127904
0.000114365
9.41954e-05
7.58533e-05
6.14077e-05
5.03167e-05
4.17596e-05
3.50822e-05
2.97802e-05
2.55448e-05
2.20447e-05
1.90088e-05
1.61787e-05
1.39006e-05
1.02288e-05
0.00124331
0.00171586
0.000642305
0.000631548
0.000670457
0.000736005
0.000833143
0.000940582
0.00102386
0.00105367
0.00101829
0.000922344
0.000784028
0.000620933
0.00048576
0.000620765
0.000199355
4.92676e-05
0.000118117
0.000140567
0.000137319
0.000123977
0.000109119
0.000103658
8.35965e-05
6.5344e-05
5.10208e-05
4.01465e-05
3.19377e-05
2.5691e-05
2.09583e-05
1.74322e-05
1.52102e-05
1.41253e-05
2.5171e-05
1.8964e-05
0.00219908
0.00399633
0.000771678
0.000605864
0.000651898
0.000756074
0.000904643
0.00105935
0.00116942
0.0012058
0.00116789
0.0010647
0.000922572
0.000755763
0.000623255
0.000565025
0.000737522
0.000297591
0.000254242
0.000217255
0.000183983
0.000154731
0.000137936
0.000269563
0.000179848
0.00012424
8.89713e-05
6.58933e-05
5.03073e-05
3.9479e-05
3.18714e-05
2.66031e-05
1.99161e-05
1.63225e-05
4.1085e-05
2.71911e-05
0.00347345
0.00810788
0.00118084
0.000624945
0.000662605
0.000820626
0.00106019
0.00126862
0.00138691
0.00140807
0.00135039
0.00122051
0.00104998
0.000872755
0.000723443
0.000633284
0.000624078
0.00115629
0.000678324
0.000434198
0.000307738
0.000233347
0.000185318
0.000164475
0.000394097
0.000290652
0.000227206
0.000184257
0.000152394
0.000127391
0.00010607
8.66776e-05
6.78077e-05
3.85415e-05
2.40554e-05
6.17861e-05
3.54876e-05
0.00519925
0.0143259
0.00228337
0.000770963
0.000741914
0.00100713
0.00140632
0.00163277
0.00171255
0.00168843
0.00158665
0.00141667
0.00119953
0.00096764
0.000758482
0.000598893
0.000501426
0.000468882
0.000400767
0.000334708
0.000278251
0.00023026
0.000189934
0.000159974
0.000153607
0.000139696
0.000125654
0.000112083
9.89675e-05
8.63362e-05
7.4215e-05
6.28605e-05
5.24108e-05
3.97109e-05
2.88167e-05
4.82936e-05
3.78693e-05
6.38313e-05
0.000115021
0.000163572
0.00758082
0.0212719
0.00510866
0.00153103
0.00125803
0.00180908
0.00215444
0.00224073
0.0021996
0.00209264
0.00192334
0.00168579
0.00139342
0.00108357
0.000804397
0.000592318
0.000459514
0.000392508
0.00035043
0.000310437
0.000267768
0.000225535
0.000187333
0.000156726
0.000137463
0.000125241
0.000115871
0.000106735
9.68357e-05
8.56789e-05
7.36868e-05
6.19398e-05
5.13127e-05
4.17345e-05
3.50275e-05
4.03926e-05
4.04855e-05
4.99262e-05
0.000211643
0.00018596
0.0102626
0.0254563
0.0104675
0.00487202
0.00390428
0.00379322
0.00350739
0.00319295
0.00291414
0.0026589
0.00237791
0.00203443
0.00163457
0.00122278
0.000862026
0.000600668
0.000446638
0.000371301
0.000328622
0.000289739
0.000248288
0.000208097
0.000173409
0.000147249
0.000131176
0.000122803
0.000117892
0.000113865
0.000109569
0.000103923
9.47132e-05
8.42191e-05
7.39359e-05
6.48391e-05
6.08766e-05
6.56381e-05
8.07347e-05
0.000125337
0.000284987
0.000280064
0.0108231
0.026963
0.0154869
0.010914
0.00839534
0.00647893
0.00517579
0.00434155
0.0038007
0.00338509
0.00295745
0.00245349
0.0018921
0.00133634
0.00087324
0.000569292
0.000408356
0.000333073
0.000289404
0.00025016
0.00021224
0.00017907
0.000153258
0.000135955
0.000126859
0.000123993
0.000125074
0.000129125
0.000136145
0.000146223
0.000158444
0.000166985
0.00017746
0.000196895
0.000235238
0.000346273
0.000623066
0.00116501
0.00346607
0.00104434
0.00998571
0.016478
0.0130776
0.0100315
0.00785272
0.00647628
0.00564944
0.00514392
0.0047495
0.00428369
0.00363201
0.00282503
0.00199348
0.00123403
0.000679985
0.000436189
0.00032609
0.000270775
0.000233923
0.000202671
0.000175097
0.000152512
0.000136131
0.000126137
0.000121974
0.000122707
0.000127762
0.000137514
0.000153145
0.000176431
0.000209733
0.00025712
0.000323623
0.000424291
0.000571622
0.000773143
0.00100907
0.00122338
0.00139092
0.000879784
0.00318951
0.00498413
0.00653451
0.0069488
0.00692802
0.0065424
0.005763
0.00460996
0.00315036
0.00188676
0.00111496
0.000666274
0.000423076
0.000305716
0.000246887
0.000212573
0.000187537
0.0001669
0.000149848
0.000136442
0.000126437
0.000119508
0.000115344
0.000113948
0.000115714
0.000121721
0.000133529
0.000152966
0.000182847
0.000226891
0.000290116
0.000378954
0.000497025
0.000635767
0.000762958
0.000832418
0.00080771
0.000525847
0.00257078
0.00690851
0.00753679
0.00630619
0.00535643
0.00434487
0.00327294
0.00231108
0.00152249
0.000948424
0.000602149
0.000411565
0.000312997
0.000264313
0.000239761
0.000226308
0.00021763
0.000210917
0.000204944
0.000199125
0.000193098
0.000186798
0.00018044
0.000174544
0.000170117
0.000168482
0.000171283
0.000180657
0.000199131
0.000229967
0.000277418
0.000345725
0.000435411
0.000539218
0.000618061
0.000706901
0.000761168
0.000564391
0.00196668
0.00234963
0.00264735
0.00342306
0.00312301
0.00282416
0.00257026
0.00220522
0.00177041
0.00134558
0.000982585
0.000707969
0.000526583
0.000415095
0.00034542
0.000298335
0.000263253
0.000234898
0.000211067
0.000191114
0.000174788
0.000161759
0.000151657
0.00014424
0.000139512
0.000137748
0.00013936
0.000144933
0.00015513
0.000170594
0.000192221
0.000221304
0.000259693
0.000309723
0.000373086
0.000458025
0.000487988
0.000449308
0.000376281
0.000309428
)
;

boundaryField
{
    floor
    {
        Cmu             0.09;
        kappa           0.41;
        E               9.8;
        type            epsilonWallFunction;
        value           nonuniform List<scalar> 
29
(
0.000428116
4.62226e-05
7.9612e-05
0.000121531
0.000135052
0.000127904
0.000114365
9.41954e-05
7.58533e-05
6.14077e-05
5.03167e-05
4.17596e-05
3.50822e-05
2.97802e-05
2.55448e-05
2.20447e-05
1.90088e-05
1.61787e-05
1.39006e-05
1.02288e-05
1.02288e-05
1.8964e-05
2.71911e-05
3.54876e-05
0.000428116
4.62226e-05
4.92676e-05
0.000297591
0.00115629
)
;
    }
    ceiling
    {
        Cmu             0.09;
        kappa           0.41;
        E               9.8;
        type            epsilonWallFunction;
        value           nonuniform List<scalar> 
43
(
0.00196668
0.00234963
0.00264735
0.00342306
0.00312301
0.00282416
0.00257026
0.00220522
0.00177041
0.00134558
0.000982585
0.000707969
0.000526583
0.000415095
0.00034542
0.000298335
0.000263253
0.000234898
0.000211067
0.000191114
0.000174788
0.000161759
0.000151657
0.00014424
0.000139512
0.000137748
0.00013936
0.000144933
0.00015513
0.000170594
0.000192221
0.000221304
0.000259693
0.000309723
0.000373086
0.000458025
0.000487988
0.000449308
0.000376281
0.000309428
0.00998571
0.016478
0.00257078
)
;
    }
    sWall
    {
        Cmu             0.09;
        kappa           0.41;
        E               9.8;
        type            epsilonWallFunction;
        value           uniform 0.00196668;
    }
    nWall
    {
        Cmu             0.09;
        kappa           0.41;
        E               9.8;
        type            epsilonWallFunction;
        value           nonuniform List<scalar> 6(0.000163572 0.00018596 0.000280064 0.000525847 0.000564391 0.000309428);
    }
    sideWalls
    {
        type            empty;
    }
    glass1
    {
        Cmu             0.09;
        kappa           0.41;
        E               9.8;
        type            epsilonWallFunction;
        value           nonuniform List<scalar> 9(0.000515496 0.00124331 0.00219908 0.00347345 0.00519925 0.00758082 0.0102626 0.0108231 0.00998571);
    }
    glass2
    {
        Cmu             0.09;
        kappa           0.41;
        E               9.8;
        type            epsilonWallFunction;
        value           nonuniform List<scalar> 2(0.00104434 0.000879784);
    }
    sun
    {
        Cmu             0.09;
        kappa           0.41;
        E               9.8;
        type            epsilonWallFunction;
        value           nonuniform List<scalar> 
14
(
0.000515496
0.000682139
0.000733683
0.00085008
0.000970178
0.00109616
0.00123645
0.00136039
0.00143822
0.00144752
0.00137659
0.00122591
0.00100478
0.000723896
)
;
    }
    heatsource1
    {
        Cmu             0.09;
        kappa           0.41;
        E               9.8;
        type            epsilonWallFunction;
        value           nonuniform List<scalar> 3(6.38313e-05 0.000115021 0.000163572);
    }
    heatsource2
    {
        Cmu             0.09;
        kappa           0.41;
        E               9.8;
        type            epsilonWallFunction;
        value           nonuniform List<scalar> 4(0.000620765 0.000199355 0.000199355 0.000737522);
    }
    Table_master
    {
        Cmu             0.09;
        kappa           0.41;
        E               9.8;
        type            epsilonWallFunction;
        value           nonuniform List<scalar> 9(0.000269563 0.000179848 0.00012424 8.89713e-05 6.58933e-05 5.03073e-05 3.9479e-05 3.18714e-05 2.66031e-05);
    }
    Table_slave
    {
        Cmu             0.09;
        kappa           0.41;
        E               9.8;
        type            epsilonWallFunction;
        value           nonuniform List<scalar> 9(0.000394097 0.000290652 0.000227206 0.000184257 0.000152394 0.000127391 0.00010607 8.66776e-05 6.78077e-05);
    }
    inlet
    {
        type            turbulentMixingLengthDissipationRateInlet;
        mixingLength    0.01;
        phi             phi;
        k               k;
        value           uniform 0.000101881;
    }
    outlet
    {
        type            zeroGradient;
    }
}


// ************************************************************************* //
