/*--------------------------------*- C++ -*----------------------------------*\
  =========                 |
  \\      /  F ield         | OpenFOAM: The Open Source CFD Toolbox
   \\    /   O peration     | Website:  https://openfoam.org
    \\  /    A nd           | Version:  6
     \\/     M anipulation  |
\*---------------------------------------------------------------------------*/
FoamFile
{
    version     2.0;
    format      ascii;
    class       volScalarField;
    location    "400";
    object      epsilon;
}
// * * * * * * * * * * * * * * * * * * * * * * * * * * * * * * * * * * * * * //

dimensions      [0 2 -3 0 0 0 0];

internalField   nonuniform List<scalar> 
459
(
0.000367545
0.000467856
0.000483471
0.000551434
0.00061895
0.000685545
0.000753271
0.000825871
0.000889108
0.000926633
0.000925642
0.000878292
0.000788488
0.000676368
0.000568045
2.93668e-05
5.38351e-05
6.99819e-05
6.43951e-05
5.64112e-05
4.83312e-05
4.03632e-05
3.35822e-05
2.81114e-05
2.37362e-05
2.0224e-05
1.74019e-05
1.50948e-05
1.31715e-05
1.15242e-05
1.00481e-05
8.63533e-06
8.07365e-06
6.39886e-06
0.000985747
0.00150668
0.000442025
0.000419992
0.000434136
0.000457845
0.000492766
0.000543387
0.000601289
0.000649341
0.000669415
0.000648817
0.000586978
0.000503602
0.000455923
0.000584997
0.00017137
4.63637e-05
9.20459e-05
8.84085e-05
7.59933e-05
6.22964e-05
5.0783e-05
4.41293e-05
3.61047e-05
2.9193e-05
2.36505e-05
1.92897e-05
1.58988e-05
1.32479e-05
1.11847e-05
9.69963e-06
8.86824e-06
8.61872e-06
2.71114e-05
1.73424e-05
0.00186324
0.00390521
0.000575985
0.000403642
0.000412163
0.000449582
0.000506257
0.000583821
0.00067189
0.000744733
0.000779156
0.000763966
0.000701517
0.000610799
0.000523975
0.000477195
0.000533308
0.000339722
0.000210736
0.000144965
0.000105014
7.94178e-05
6.47961e-05
0.000112998
8.06879e-05
5.96394e-05
4.55286e-05
3.5774e-05
2.88336e-05
2.37739e-05
2.00279e-05
1.72648e-05
1.34277e-05
1.15764e-05
5.20737e-05
2.86755e-05
0.00310589
0.0082891
0.000967914
0.000414388
0.000400506
0.000451243
0.000533061
0.000651124
0.000779481
0.000872122
0.000908125
0.000884788
0.000809651
0.000703195
0.000583946
0.000490168
0.000450277
0.000790202
0.000426513
0.000242232
0.000155539
0.000108914
8.17769e-05
6.98299e-05
0.00015829
0.000125489
0.000106453
9.40927e-05
8.43324e-05
7.4705e-05
6.6046e-05
5.74006e-05
4.79362e-05
2.919e-05
1.96263e-05
8.77069e-05
3.98147e-05
0.00484311
0.0148665
0.00199114
0.00050513
0.000405828
0.000457935
0.000576461
0.000786408
0.000967852
0.00106508
0.00108433
0.00103644
0.000933483
0.00079465
0.000639615
0.000492244
0.000371153
0.000301624
0.000225944
0.000165406
0.000121742
9.23379e-05
7.35297e-05
6.33313e-05
6.38313e-05
6.26178e-05
6.12167e-05
5.93809e-05
5.64402e-05
5.19313e-05
4.6952e-05
4.22292e-05
3.79726e-05
3.13019e-05
2.46616e-05
6.05774e-05
4.67784e-05
7.76227e-05
0.000134391
0.000189003
0.00726876
0.022018
0.0045547
0.00100132
0.000597273
0.000589079
0.000756962
0.00113327
0.00131448
0.00136465
0.00133357
0.00124295
0.00110141
0.000919792
0.000718346
0.000524619
0.00036474
0.000255068
0.000185068
0.000136971
0.000102841
8.06419e-05
6.79222e-05
6.25232e-05
6.2916e-05
6.57677e-05
6.88459e-05
7.08247e-05
7.05099e-05
6.6643e-05
5.86659e-05
4.99443e-05
4.20133e-05
3.50671e-05
3.07363e-05
4.39363e-05
4.70769e-05
5.84563e-05
0.000248575
0.000215365
0.0101626
0.0262493
0.00958225
0.00343938
0.00202552
0.00161831
0.00179539
0.00193188
0.00191897
0.00182478
0.00169041
0.00152171
0.00131339
0.00106899
0.000809131
0.000565754
0.000369247
0.000237147
0.000158781
0.000113316
8.60728e-05
7.13716e-05
6.56066e-05
6.61847e-05
7.12008e-05
7.84659e-05
8.62671e-05
9.36228e-05
9.93215e-05
0.000101274
9.58539e-05
8.32752e-05
7.10424e-05
6.11331e-05
5.73481e-05
6.5696e-05
8.5747e-05
0.000141237
0.000332595
0.000318511
0.0108549
0.0293265
0.0159891
0.010483
0.00718562
0.00527795
0.00416004
0.00337719
0.00283824
0.00245533
0.00214977
0.00186025
0.00155107
0.00121622
0.00087948
0.000577813
0.000343057
0.000198085
0.000120077
8.7011e-05
7.1679e-05
6.61439e-05
6.70183e-05
7.24017e-05
8.11151e-05
9.22662e-05
0.000105387
0.000120484
0.00013764
0.00015658
0.000175929
0.000187551
0.000194208
0.000213704
0.000257554
0.000393928
0.00074614
0.00143815
0.00420781
0.00121584
0.010057
0.0170419
0.013689
0.0103412
0.00784882
0.00609139
0.00486485
0.00403343
0.00345668
0.00301266
0.00260929
0.00219266
0.00174626
0.00128263
0.00084849
0.000490629
0.000233955
0.000128727
8.45447e-05
6.67834e-05
6.07628e-05
6.1238e-05
6.59097e-05
7.37178e-05
8.42606e-05
9.75406e-05
0.000113975
0.000134472
0.000160488
0.000194138
0.000238314
0.00029672
0.00037609
0.000495321
0.00067208
0.000911197
0.00118152
0.00141186
0.00158712
0.000987384
0.00447382
0.0066928
0.00647378
0.00593156
0.00538576
0.0047868
0.00415795
0.00351232
0.00285412
0.00219828
0.00156672
0.000956982
0.00047656
0.00022957
0.000114156
6.98433e-05
5.31374e-05
4.76903e-05
4.77111e-05
5.09035e-05
5.63176e-05
6.36364e-05
7.28883e-05
8.43493e-05
9.85633e-05
0.000116425
0.000139317
0.000169341
0.000209696
0.000265832
0.000343261
0.000449361
0.000587634
0.000744239
0.000875886
0.000926312
0.000858629
0.000543551
0.00322451
0.00645133
0.00645663
0.00534063
0.00462839
0.00409066
0.00343147
0.00264509
0.00182251
0.00114922
0.00065616
0.000336671
0.000163875
8.37894e-05
5.005e-05
3.80383e-05
3.50264e-05
3.59928e-05
3.89781e-05
4.33883e-05
4.90808e-05
5.61401e-05
6.48004e-05
7.54431e-05
8.86457e-05
0.000105283
0.000126686
0.000154872
0.000192799
0.000244105
0.000313812
0.000406892
0.000523721
0.000656063
0.000752859
0.000849445
0.000770447
0.000568919
0.00212673
0.0025161
0.00282984
0.00333866
0.00281336
0.00227852
0.00184891
0.00148423
0.00120345
0.000930984
0.000669694
0.000442187
0.000266022
0.000152359
9.00624e-05
5.99605e-05
4.67896e-05
4.20196e-05
4.16301e-05
4.37899e-05
4.77214e-05
5.29865e-05
5.95138e-05
6.74372e-05
7.69767e-05
8.84383e-05
0.000102241
0.000118985
0.000139583
0.000165556
0.000198603
0.000239673
0.000291051
0.000355711
0.000436725
0.000552531
0.000589715
0.000545867
0.000448439
0.000356832
)
;

boundaryField
{
    floor
    {
        Cmu             0.09;
        kappa           0.41;
        E               9.8;
        type            epsilonWallFunction;
        value           nonuniform List<scalar> 
29
(
0.000568045
2.93668e-05
5.38351e-05
6.99819e-05
6.43951e-05
5.64112e-05
4.83312e-05
4.03632e-05
3.35822e-05
2.81114e-05
2.37362e-05
2.0224e-05
1.74019e-05
1.50948e-05
1.31715e-05
1.15242e-05
1.00481e-05
8.63533e-06
8.07365e-06
6.39886e-06
6.39886e-06
1.73424e-05
2.86755e-05
3.98147e-05
0.000568045
2.93668e-05
4.63637e-05
0.000339722
0.000790202
)
;
    }
    ceiling
    {
        Cmu             0.09;
        kappa           0.41;
        E               9.8;
        type            epsilonWallFunction;
        value           nonuniform List<scalar> 
43
(
0.00212673
0.0025161
0.00282984
0.00333866
0.00281336
0.00227852
0.00184891
0.00148423
0.00120345
0.000930984
0.000669694
0.000442187
0.000266022
0.000152359
9.00624e-05
5.99605e-05
4.67896e-05
4.20196e-05
4.16301e-05
4.37899e-05
4.77214e-05
5.29865e-05
5.95138e-05
6.74372e-05
7.69767e-05
8.84383e-05
0.000102241
0.000118985
0.000139583
0.000165556
0.000198603
0.000239673
0.000291051
0.000355711
0.000436725
0.000552531
0.000589715
0.000545867
0.000448439
0.000356832
0.010057
0.0170419
0.00322451
)
;
    }
    sWall
    {
        Cmu             0.09;
        kappa           0.41;
        E               9.8;
        type            epsilonWallFunction;
        value           uniform 0.00212673;
    }
    nWall
    {
        Cmu             0.09;
        kappa           0.41;
        E               9.8;
        type            epsilonWallFunction;
        value           nonuniform List<scalar> 6(0.000189003 0.000215365 0.000318511 0.000543551 0.000568919 0.000356832);
    }
    sideWalls
    {
        type            empty;
    }
    glass1
    {
        Cmu             0.09;
        kappa           0.41;
        E               9.8;
        type            epsilonWallFunction;
        value           nonuniform List<scalar> 9(0.000367545 0.000985747 0.00186324 0.00310589 0.00484311 0.00726876 0.0101626 0.0108549 0.010057);
    }
    glass2
    {
        Cmu             0.09;
        kappa           0.41;
        E               9.8;
        type            epsilonWallFunction;
        value           nonuniform List<scalar> 2(0.00121584 0.000987384);
    }
    sun
    {
        Cmu             0.09;
        kappa           0.41;
        E               9.8;
        type            epsilonWallFunction;
        value           nonuniform List<scalar> 
14
(
0.000367545
0.000467856
0.000483471
0.000551434
0.00061895
0.000685545
0.000753271
0.000825871
0.000889108
0.000926633
0.000925642
0.000878292
0.000788488
0.000676368
)
;
    }
    heatsource1
    {
        Cmu             0.09;
        kappa           0.41;
        E               9.8;
        type            epsilonWallFunction;
        value           nonuniform List<scalar> 3(7.76227e-05 0.000134391 0.000189003);
    }
    heatsource2
    {
        Cmu             0.09;
        kappa           0.41;
        E               9.8;
        type            epsilonWallFunction;
        value           nonuniform List<scalar> 4(0.000584997 0.00017137 0.00017137 0.000533308);
    }
    Table_master
    {
        Cmu             0.09;
        kappa           0.41;
        E               9.8;
        type            epsilonWallFunction;
        value           nonuniform List<scalar> 9(0.000112998 8.06879e-05 5.96394e-05 4.55286e-05 3.5774e-05 2.88336e-05 2.37739e-05 2.00279e-05 1.72648e-05);
    }
    Table_slave
    {
        Cmu             0.09;
        kappa           0.41;
        E               9.8;
        type            epsilonWallFunction;
        value           nonuniform List<scalar> 9(0.00015829 0.000125489 0.000106453 9.40927e-05 8.43324e-05 7.4705e-05 6.6046e-05 5.74006e-05 4.79362e-05);
    }
    inlet
    {
        type            turbulentMixingLengthDissipationRateInlet;
        mixingLength    0.01;
        phi             phi;
        k               k;
        value           uniform 0.000101881;
    }
    outlet
    {
        type            zeroGradient;
    }
}


// ************************************************************************* //
