/*--------------------------------*- C++ -*----------------------------------*\
  =========                 |
  \\      /  F ield         | OpenFOAM: The Open Source CFD Toolbox
   \\    /   O peration     | Website:  https://openfoam.org
    \\  /    A nd           | Version:  6
     \\/     M anipulation  |
\*---------------------------------------------------------------------------*/
FoamFile
{
    version     2.0;
    format      ascii;
    class       volScalarField;
    location    "1300";
    object      alphat;
}
// * * * * * * * * * * * * * * * * * * * * * * * * * * * * * * * * * * * * * //

dimensions      [1 -1 -1 0 0 0 0];

internalField   nonuniform List<scalar> 
459
(
0.000811054
0.000862253
0.000817305
0.00081042
0.000784426
0.000757982
0.000733189
0.000709099
0.000688631
0.000675228
0.000670451
0.000673714
0.000682367
0.00069117
0.000696683
0.000355677
0.000377804
0.000312317
0.000276814
0.000259877
0.00024306
0.000244233
0.000261299
0.000282474
0.000306001
0.00032859
0.000350149
0.000369505
0.000365208
0.000357213
0.000369349
0.00038953
0.000457463
0.000364425
0.00125695
0.00321022
0.00306913
0.00309423
0.00326632
0.00348022
0.0036146
0.00354287
0.00331882
0.00304603
0.00278905
0.00255566
0.0023136
0.00200908
0.00156732
0.000853567
0.000535181
0.00056762
0.00166003
0.00141979
0.00107728
0.000705526
0.00047777
0.000396663
0.000465517
0.000609006
0.000788733
0.00096164
0.00109783
0.00116518
0.00111893
0.00111992
0.00151019
0.00157515
0.00187376
0.000674949
0.00132029
0.0028032
0.00327143
0.00390492
0.0039675
0.00411586
0.00464105
0.00490022
0.00477691
0.00445462
0.0040894
0.003738
0.00338035
0.00295786
0.00240695
0.00171978
0.000995805
0.00087762
0.0025686
0.00219727
0.00168327
0.0012008
0.000814434
0.000364795
0.000398784
0.000446005
0.000495011
0.000548557
0.000610333
0.000686012
0.000785361
0.000933371
0.00254398
0.0027894
0.00339409
0.00101657
0.00216073
0.00236078
0.00269285
0.00333452
0.00397085
0.00433258
0.00485182
0.00552087
0.00572172
0.00559182
0.00534981
0.00509286
0.00481413
0.00444574
0.00388703
0.00303203
0.0019237
0.0010765
0.00272376
0.00322109
0.00262862
0.00202186
0.00153057
0.00114579
0.000877264
0.000893638
0.000911986
0.000932241
0.000957745
0.000992298
0.00104122
0.00111366
0.00122831
0.0032436
0.00342161
0.00376075
0.00128052
0.00293898
0.00258238
0.00255373
0.00300901
0.00383945
0.00440904
0.00486138
0.00571683
0.00625328
0.00641435
0.0064459
0.00647968
0.00654078
0.00660509
0.00662641
0.0065423
0.00630493
0.0059876
0.00595178
0.0057064
0.00540747
0.00518853
0.00505329
0.00497187
0.00490107
0.0048705
0.0048039
0.00471644
0.00461224
0.00449544
0.00437133
0.00424685
0.00412652
0.00400199
0.00360623
0.00311868
0.00257867
0.00180932
0.00193275
0.00194123
0.00361018
0.00369022
0.00291185
0.00281506
0.00357646
0.00442719
0.00491549
0.00564366
0.00631156
0.00666756
0.00691088
0.00717354
0.00746645
0.0077586
0.0080115
0.00818809
0.00824501
0.00816225
0.00800451
0.00783247
0.00767373
0.00754745
0.00745849
0.00738645
0.00730194
0.00720024
0.00708202
0.00694814
0.00679921
0.00663536
0.00645538
0.00625746
0.00604194
0.0058154
0.0056014
0.00548514
0.00555032
0.00586741
0.00629622
0.00246501
0.00434185
0.00470081
0.00357584
0.00281927
0.00336301
0.00456747
0.00500682
0.00539909
0.00585996
0.00622082
0.00662921
0.00709594
0.00759992
0.00811345
0.00859584
0.00899233
0.00926972
0.0094036
0.00941464
0.00935803
0.00926991
0.00916696
0.00905762
0.0089413
0.00881304
0.00867079
0.00851481
0.00834566
0.00816576
0.00797934
0.00779193
0.00761041
0.00744318
0.00729754
0.00717518
0.00708326
0.00709864
0.00761142
0.00912729
0.00292976
0.00517858
0.0060907
0.00518032
0.00308259
0.00372643
0.00524005
0.00522488
0.00492735
0.00500858
0.00540455
0.00597841
0.00662626
0.0073088
0.00800337
0.00868398
0.0093032
0.0097912
0.0101284
0.0103134
0.0103809
0.010368
0.0103016
0.0102012
0.0100777
0.00993479
0.00977349
0.00959377
0.00939537
0.00917932
0.00894855
0.00870826
0.008467
0.00823852
0.00804321
0.00790942
0.00787261
0.00791318
0.00813124
0.0102138
0.00341767
0.00634294
0.00822005
0.0134996
0.00403701
0.00391118
0.00534406
0.00475474
0.00451492
0.00481514
0.00532975
0.00599623
0.0066891
0.00740215
0.0081197
0.00882311
0.00948474
0.0100563
0.0104992
0.0107988
0.0109697
0.011039
0.0110327
0.0109735
0.0108762
0.0107494
0.0105978
0.0104232
0.0102261
0.0100063
0.00976401
0.00950035
0.00921831
0.00892453
0.00863221
0.00836814
0.00818857
0.00817994
0.00841335
0.00979564
0.00338477
0.0218535
0.0116785
0.00414508
0.00545533
0.00560924
0.00592469
0.00630049
0.00674203
0.00729019
0.00792946
0.00861707
0.00929803
0.00992067
0.0104496
0.0108759
0.0112039
0.0114402
0.0115946
0.0116789
0.011704
0.0116785
0.0116106
0.0115084
0.0113782
0.0112244
0.0110491
0.0108527
0.0106344
0.0103927
0.0101265
0.0098361
0.00952599
0.00920893
0.00891332
0.00868691
0.00855259
0.00799233
0.00228308
0.00966895
0.0133382
0.00953553
0.0080267
0.00714764
0.00673381
0.00666546
0.00688493
0.00737634
0.0081028
0.00897205
0.00985367
0.0106218
0.0111782
0.0115432
0.0117673
0.0118985
0.011972
0.0120093
0.0120204
0.0119975
0.011945
0.01187
0.011778
0.0116725
0.011555
0.0114255
0.0112824
0.0111237
0.0109471
0.0107511
0.0105353
0.0103008
0.0100501
0.00977816
0.00944441
0.00799392
0.00235538
0.00104053
0.00184295
0.00534111
0.00512548
0.00472843
0.00431355
0.00394322
0.00361785
0.00333877
0.00310776
0.0029268
0.00279796
0.00272105
0.0026901
0.00269272
0.00271651
0.00274291
0.00276215
0.00277131
0.00277114
0.00276377
0.00275142
0.00273716
0.00272149
0.00270461
0.00268682
0.00266843
0.00264966
0.0026306
0.00261126
0.00259154
0.00257132
0.00255052
0.00252917
0.00250753
0.0024863
0.00246765
0.00245752
0.00232721
0.0020708
)
;

boundaryField
{
    floor
    {
        type            compressible::alphatWallFunction;
        Prt             0.85;
        value           nonuniform List<scalar> 
29
(
9.90176e-05
4.67929e-05
5.03133e-05
3.97896e-05
3.39652e-05
3.1156e-05
2.83392e-05
2.85373e-05
3.1397e-05
3.49086e-05
3.87682e-05
4.24362e-05
4.5905e-05
4.89954e-05
4.83063e-05
4.70265e-05
4.8962e-05
5.21631e-05
6.27941e-05
4.81845e-05
4.81838e-05
9.56839e-05
0.000144881
0.000181583
9.90165e-05
4.67923e-05
7.96619e-05
0.000125156
0.000153345
)
;
    }
    ceiling
    {
        type            compressible::alphatWallFunction;
        Prt             0.85;
        value           nonuniform List<scalar> 
43
(
0.000148835
0.000257443
0.000688421
0.000662965
0.000615819
0.000566141
0.000521394
0.000481727
0.000447413
0.000418783
0.000396203
0.000380037
0.000370345
0.000366434
0.000366758
0.00036975
0.000373064
0.000375474
0.000376613
0.00037658
0.00037564
0.000374073
0.000372266
0.00037028
0.000368141
0.000365886
0.000363554
0.000361172
0.000358753
0.000356296
0.000353789
0.000351217
0.000348569
0.00034585
0.000343091
0.000340381
0.000337997
0.000336693
0.000320023
0.000286926
0.000805193
0.00101967
0.00118223
)
;
    }
    sWall
    {
        type            compressible::alphatWallFunction;
        Prt             0.85;
        value           uniform 0.000148235;
    }
    nWall
    {
        type            compressible::alphatWallFunction;
        Prt             0.85;
        value           nonuniform List<scalar> 6(0.000269866 0.000337431 0.000396097 0.000314179 0.000323475 0.000286792);
    }
    sideWalls
    {
        type            empty;
    }
    glass1
    {
        type            compressible::alphatWallFunction;
        Prt             0.85;
        value           nonuniform List<scalar> 9(0.00011358 0.00017565 0.000184363 0.000296574 0.000396731 0.000479948 0.000568735 0.000668413 0.000804529);
    }
    glass2
    {
        type            compressible::alphatWallFunction;
        Prt             0.85;
        value           nonuniform List<scalar> 2(0.000458802 0.000454785);
    }
    sun
    {
        type            compressible::alphatWallFunction;
        Prt             0.85;
        value           nonuniform List<scalar> 
14
(
0.00011566
0.00012302
0.000116561
0.000115572
0.000111821
0.000107987
0.000104374
0.000100846
9.78353e-05
9.58577e-05
9.51513e-05
9.56328e-05
9.69094e-05
9.82065e-05
)
;
    }
    heatsource1
    {
        type            compressible::alphatWallFunction;
        Prt             0.85;
        value           nonuniform List<scalar> 3(0.000252242 0.00026844 0.000269547);
    }
    heatsource2
    {
        type            compressible::alphatWallFunction;
        Prt             0.85;
        value           nonuniform List<scalar> 4(0.000121615 7.47136e-05 7.47127e-05 0.00014183);
    }
    Table_master
    {
        type            compressible::alphatWallFunction;
        Prt             0.85;
        value           nonuniform List<scalar> 9(4.82322e-05 5.36206e-05 6.10106e-05 6.8575e-05 7.67332e-05 8.60232e-05 9.7248e-05 0.000111759 0.000132982);
    }
    Table_slave
    {
        type            compressible::alphatWallFunction;
        Prt             0.85;
        value           nonuniform List<scalar> 9(0.000124996 0.000127334 0.000129949 0.000132828 0.000136443 0.000141323 0.000148198 0.000158312 0.000174166);
    }
    inlet
    {
        type            fixedValue;
        value           uniform 1.94e-05;
    }
    outlet
    {
        type            zeroGradient;
    }
}


// ************************************************************************* //
