// -*- C++ -*-
// File generated by PyFoam - sorry for the ugliness

FoamFile
{
 version 2.0;
 format ascii;
 class volScalarField;
 location "400";
 object T;
}

dimensions [ 0 0 0 1 0 0 0 ];

internalField nonuniform List<scalar> 459
(
  303.774
  303.524
  303.504
  303.494
  303.485
  303.476
  303.466
  303.453
  303.439
  303.426
  303.419
  303.421
  303.436
  303.472
  303.517
  303.645
  303.63
  303.622
  303.622
  303.628
  303.632
  303.629
  303.617
  303.594
  303.566
  303.538
  303.514
  303.494
  303.478
  303.462
  303.443
  303.423
  303.427
  303.415
  303.935
  303.565
  303.535
  303.529
  303.523
  303.514
  303.501
  303.475
  303.442
  303.411
  303.391
  303.388
  303.402
  303.427
  303.46
  303.472
  303.499
  303.638
  303.608
  303.59
  303.594
  303.603
  303.613
  303.619
  303.622
  303.62
  303.615
  303.606
  303.596
  303.586
  303.573
  303.558
  303.539
  303.516
  303.483
  303.431
  304.107
  303.617
  303.577
  303.581
  303.586
  303.584
  303.568
  303.524
  303.463
  303.407
  303.371
  303.364
  303.376
  303.398
  303.422
  303.443
  303.469
  303.612
  303.58
  303.569
  303.575
  303.589
  303.604
  303.612
  303.621
  303.627
  303.631
  303.633
  303.633
  303.632
  303.628
  303.621
  303.609
  303.586
  303.554
  303.48
  304.286
  303.681
  303.623
  303.64
  303.666
  303.682
  303.662
  303.586
  303.486
  303.402
  303.351
  303.341
  303.356
  303.379
  303.404
  303.426
  303.45
  303.461
  303.479
  303.502
  303.53
  303.56
  303.591
  303.616
  303.637
  303.656
  303.674
  303.69
  303.705
  303.719
  303.731
  303.742
  303.751
  303.718
  303.672
  303.614
  303.512
  304.463
  303.762
  303.676
  303.698
  303.747
  303.789
  303.752
  303.631
  303.492
  303.387
  303.33
  303.32
  303.341
  303.373
  303.404
  303.429
  303.452
  303.474
  303.501
  303.534
  303.571
  303.609
  303.645
  303.677
  303.706
  303.732
  303.755
  303.775
  303.792
  303.805
  303.814
  303.817
  303.812
  303.787
  303.739
  303.672
  303.584
  303.58
  303.655
  303.705
  304.626
  303.866
  303.753
  303.764
  303.827
  303.869
  303.787
  303.631
  303.469
  303.35
  303.294
  303.296
  303.334
  303.385
  303.431
  303.467
  303.499
  303.533
  303.572
  303.613
  303.655
  303.696
  303.733
  303.766
  303.795
  303.821
  303.844
  303.863
  303.879
  303.89
  303.895
  303.892
  303.88
  303.853
  303.808
  303.745
  303.681
  303.649
  303.653
  303.676
  304.78
  304.026
  303.912
  303.915
  303.969
  303.927
  303.766
  303.558
  303.376
  303.266
  303.238
  303.275
  303.348
  303.428
  303.497
  303.551
  303.595
  303.638
  303.683
  303.729
  303.771
  303.809
  303.843
  303.872
  303.897
  303.918
  303.938
  303.956
  303.97
  303.979
  303.981
  303.973
  303.954
  303.925
  303.884
  303.835
  303.793
  303.764
  303.743
  303.737
  304.993
  304.432
  304.302
  304.256
  304.154
  303.915
  303.613
  303.349
  303.183
  303.133
  303.179
  303.282
  303.409
  303.528
  303.619
  303.686
  303.73
  303.772
  303.815
  303.857
  303.895
  303.927
  303.954
  303.977
  303.997
  304.016
  304.034
  304.049
  304.06
  304.064
  304.059
  304.044
  304.021
  303.992
  303.959
  303.925
  303.901
  303.875
  303.841
  303.894
  305.298
  305.03
  304.78
  304.528
  304.012
  303.449
  303.049
  302.865
  302.868
  303
  303.193
  303.387
  303.569
  303.713
  303.792
  303.837
  303.873
  303.909
  303.945
  303.98
  304.01
  304.035
  304.057
  304.075
  304.092
  304.108
  304.123
  304.133
  304.137
  304.132
  304.12
  304.103
  304.087
  304.074
  304.068
  304.071
  304.082
  304.098
  304.117
  304.19
  296.411
  297.62
  298.926
  300.224
  301.27
  302.088
  302.704
  303.175
  303.515
  303.703
  303.821
  303.893
  303.941
  303.976
  304.007
  304.036
  304.065
  304.091
  304.114
  304.133
  304.148
  304.161
  304.173
  304.183
  304.19
  304.194
  304.193
  304.187
  304.176
  304.162
  304.146
  304.134
  304.127
  304.128
  304.137
  304.156
  304.198
  304.328
  296.761
  298.498
  299.933
  301.535
  302.486
  303.063
  303.437
  303.683
  303.836
  303.932
  303.996
  304.04
  304.072
  304.099
  304.124
  304.146
  304.167
  304.185
  304.2
  304.212
  304.221
  304.228
  304.233
  304.237
  304.239
  304.24
  304.238
  304.234
  304.226
  304.216
  304.204
  304.192
  304.182
  304.177
  304.185
  304.217
  304.277
  304.315
  300.008
  299.929
  299.924
  302.19
  303.063
  303.436
  303.672
  303.828
  303.942
  304.023
  304.08
  304.121
  304.151
  304.175
  304.194
  304.21
  304.225
  304.237
  304.247
  304.255
  304.261
  304.265
  304.268
  304.27
  304.271
  304.271
  304.27
  304.269
  304.268
  304.266
  304.263
  304.259
  304.254
  304.248
  304.241
  304.239
  304.251
  304.277
  304.336
  304.454
)
;

boundaryField
{
  floor
  {
    type wallHeatTransfer;
    Tinf uniform 305.2;
    alphaWall uniform 0.24;
    value nonuniform List<scalar> 29
(
  303.709
  303.943
  303.901
  303.869
  303.86
  303.868
  303.885
  303.908
  303.929
  303.941
  303.947
  303.951
  303.957
  303.964
  303.972
  303.98
  303.988
  303.984
  303.824
  303.889
  303.889
  303.805
  303.794
  303.801
  303.709
  303.943
  303.93
  303.853
  303.608
)
;
  }
  ceiling
  {
    type wallHeatTransfer;
    Tinf uniform 303.2;
    alphaWall uniform 0.24;
    value nonuniform List<scalar> 43
(
  300.242
  300.159
  300.148
  302.255
  303.072
  303.42
  303.64
  303.783
  303.886
  303.956
  304.004
  304.037
  304.061
  304.079
  304.094
  304.107
  304.118
  304.127
  304.134
  304.139
  304.143
  304.145
  304.146
  304.146
  304.146
  304.146
  304.145
  304.145
  304.144
  304.144
  304.143
  304.141
  304.139
  304.135
  304.131
  304.131
  304.138
  304.153
  304.201
  304.327
  305.199
  304.955
  297.192
)
;
  }
  sWall
  {
    type wallHeatTransfer;
    Tinf uniform 315.2;
    alphaWall uniform 0.36;
    value uniform 301.627;
  }
  nWall
  {
    type wallHeatTransfer;
    Tinf uniform 307.2;
    alphaWall uniform 0.36;
    value nonuniform List<scalar> 6
(
  304.356
  304.327
  304.281
  304.754
  304.736
  304.852
)
;
  }
  sideWalls
  {
    type empty;
  }
  glass1
  {
    type wallHeatTransfer;
    Tinf uniform 315.2;
    alphaWall uniform 4.3;
    value nonuniform List<scalar> 9
(
  311.437
  310.892
  310.549
  310.288
  310.067
  309.86
  309.707
  309.776
  309.991
)
;
  }
  glass2
  {
    type wallHeatTransfer;
    Tinf uniform 307.2;
    alphaWall uniform 4.3;
    value nonuniform List<scalar> 2
(
  306.116
  306.208
)
;
  }
  sun
  {
    type wallHeatTransfer;
    Tinf uniform 305.2;
    alphaWall uniform 0.24;
    value nonuniform List<scalar> 14
(
  303.917
  303.68
  303.658
  303.643
  303.629
  303.616
  303.602
  303.587
  303.572
  303.561
  303.557
  303.564
  303.588
  303.642
)
;
  }
  heatsource1
  {
    type fixedGradient;
    gradient uniform 0;
  }
  heatsource2
  {
    type fixedGradient;
    gradient uniform 0;
  }
  Table_master
  {
    type zeroGradient;
  }
  Table_slave
  {
    type zeroGradient;
  }
  inlet
  {
    type fixedValue;
    value uniform 296.15;
  }
  outlet
  {
    type zeroGradient;
  }
} 	// ************************************************************************* //

