/*--------------------------------*- C++ -*----------------------------------*\
  =========                 |
  \\      /  F ield         | OpenFOAM: The Open Source CFD Toolbox
   \\    /   O peration     | Website:  https://openfoam.org
    \\  /    A nd           | Version:  6
     \\/     M anipulation  |
\*---------------------------------------------------------------------------*/
FoamFile
{
    version     2.0;
    format      ascii;
    class       volScalarField;
    location    "800";
    object      epsilon;
}
// * * * * * * * * * * * * * * * * * * * * * * * * * * * * * * * * * * * * * //

dimensions      [0 2 -3 0 0 0 0];

internalField   nonuniform List<scalar> 
459
(
0.000364864
0.000465844
0.000484208
0.000553324
0.000621995
0.00068989
0.000759135
0.000833564
0.000899453
0.000940219
0.000942727
0.000898383
0.000810094
0.000697401
0.000586822
2.97624e-05
5.56805e-05
7.3456e-05
6.76301e-05
5.90074e-05
5.02847e-05
4.18581e-05
3.47784e-05
2.91071e-05
2.45938e-05
2.09816e-05
1.80754e-05
1.57122e-05
1.375e-05
1.20727e-05
1.05695e-05
9.12323e-06
8.36208e-06
6.5091e-06
0.000968024
0.00147598
0.000440736
0.000421269
0.000436265
0.000460668
0.000496341
0.000547981
0.000607643
0.000658221
0.000681327
0.000663598
0.000603616
0.000520653
0.000473246
0.00061001
0.000173449
4.17434e-05
9.66698e-05
9.42262e-05
8.1127e-05
6.62945e-05
5.3659e-05
4.61954e-05
3.76016e-05
3.0286e-05
2.44589e-05
1.98975e-05
1.63463e-05
1.35864e-05
1.14453e-05
9.89995e-06
9.04507e-06
8.79373e-06
2.44861e-05
1.62509e-05
0.00182197
0.00381151
0.000567658
0.000402343
0.000411974
0.000449913
0.000507183
0.000585807
0.000675886
0.000751808
0.000790085
0.00077889
0.000719825
0.000631176
0.00054545
0.000499914
0.000548866
0.000355065
0.000223439
0.00015488
0.000112465
8.48651e-05
6.85938e-05
0.000116968
8.35576e-05
6.17297e-05
4.7068e-05
3.69223e-05
2.97012e-05
2.44378e-05
2.05423e-05
1.76635e-05
1.36461e-05
1.15995e-05
4.53692e-05
2.61374e-05
0.00303276
0.00810363
0.000948438
0.000409723
0.000397403
0.000448318
0.000530488
0.000649919
0.000780973
0.000877299
0.000917751
0.000899025
0.000828326
0.000724702
0.000606803
0.000514247
0.000474261
0.000842332
0.000455188
0.000260665
0.000167889
0.00011731
8.7495e-05
7.36399e-05
0.000163058
0.000128358
0.000107624
9.38613e-05
8.3055e-05
7.31597e-05
6.4325e-05
5.56314e-05
4.62639e-05
2.81432e-05
1.875e-05
7.27222e-05
3.5955e-05
0.00473264
0.0145802
0.001958
0.000497357
0.000400476
0.000452392
0.000571693
0.000784178
0.000969272
0.00107045
0.0010945
0.00105127
0.000953537
0.000817491
0.000662852
0.00051408
0.000390225
0.000318255
0.000240353
0.000177041
0.000130628
9.87766e-05
7.79817e-05
6.6258e-05
6.55973e-05
6.34536e-05
6.11961e-05
5.85984e-05
5.50892e-05
5.03845e-05
4.54474e-05
4.07262e-05
3.64126e-05
2.98533e-05
2.33174e-05
5.21617e-05
4.09237e-05
7.10328e-05
0.000125142
0.000175436
0.0071184
0.0216578
0.00451468
0.000995814
0.000595084
0.000586372
0.000767031
0.00113874
0.00132126
0.00137406
0.00134751
0.00126246
0.00112585
0.000946367
0.000743961
0.000547022
0.000383255
0.000270358
0.000197682
0.000146942
0.000110246
8.58117e-05
7.13508e-05
6.46596e-05
6.40025e-05
6.58811e-05
6.79633e-05
6.89341e-05
6.77196e-05
6.33233e-05
5.55932e-05
4.73209e-05
3.9763e-05
3.31351e-05
2.89004e-05
3.93079e-05
4.15253e-05
5.27762e-05
0.000231068
0.00019799
0.00997409
0.0258598
0.00953031
0.00345995
0.00205802
0.00165326
0.00183551
0.00196054
0.00194
0.0018443
0.00171352
0.00155068
0.00134688
0.00110316
0.000840305
0.00059153
0.000389418
0.000252759
0.000170711
0.000122067
9.21861e-05
7.55248e-05
6.84148e-05
6.80121e-05
7.21204e-05
7.83465e-05
8.48893e-05
9.07669e-05
9.48669e-05
9.53506e-05
8.8804e-05
7.73015e-05
6.60535e-05
5.67124e-05
5.27999e-05
5.9124e-05
7.52508e-05
0.000121662
0.00029168
0.000279929
0.0106615
0.0288702
0.0157813
0.0104245
0.00722745
0.00536024
0.00422047
0.00341855
0.00286988
0.00248715
0.00218834
0.00190639
0.00160038
0.00126236
0.000918519
0.000607615
0.000364609
0.000213261
0.000130507
9.43146e-05
7.70032e-05
7.01793e-05
7.01239e-05
7.46642e-05
8.24183e-05
9.23478e-05
0.000103896
0.000117028
0.000131829
0.000148069
0.000164516
0.000172609
0.000178566
0.000194927
0.000231011
0.000345444
0.000642332
0.00123998
0.00375704
0.00111002
0.00988552
0.0167615
0.0134736
0.0101902
0.00775324
0.0060337
0.00483712
0.00403103
0.00347942
0.00306042
0.0026772
0.00226954
0.00181851
0.0013402
0.000891632
0.000518784
0.000253725
0.000142676
9.47585e-05
7.47118e-05
6.72314e-05
6.66413e-05
7.03559e-05
7.71295e-05
8.64344e-05
9.81671e-05
0.000112643
0.000130657
0.000153501
0.00018304
0.000221794
0.000273176
0.00034324
0.000450581
0.00061071
0.000830855
0.00108571
0.00131018
0.00147992
0.000922577
0.00430467
0.00650442
0.00636883
0.00589272
0.00540094
0.00485204
0.00426397
0.00364158
0.00298411
0.00230529
0.00163531
0.000978562
0.000487702
0.000240288
0.00012615
8.18533e-05
6.45319e-05
5.83157e-05
5.73196e-05
5.92801e-05
6.32402e-05
6.88432e-05
7.60824e-05
8.52078e-05
9.6746e-05
0.000111568
0.000131003
0.00015703
0.000192609
0.000242502
0.000311697
0.000407403
0.000533575
0.000679357
0.00080671
0.000862979
0.000818119
0.000522218
0.00305825
0.00634518
0.00643728
0.00537177
0.00472504
0.00424403
0.00362228
0.00283077
0.00200361
0.00130056
0.00076652
0.000408659
0.000213251
0.000121893
8.39513e-05
7.03879e-05
6.62027e-05
6.55809e-05
6.65325e-05
6.86012e-05
7.17628e-05
7.60713e-05
8.17271e-05
8.90648e-05
9.85992e-05
0.000111124
0.000127862
0.000150675
0.000182284
0.000226096
0.000286749
0.000369034
0.000473818
0.000593011
0.000684245
0.00078223
0.000745081
0.000549639
0.00264713
0.00257476
0.00274073
0.00325321
0.00276896
0.00228613
0.00191363
0.00158998
0.00132332
0.00105691
0.000794573
0.00054497
0.000345097
0.000209746
0.00013159
9.12025e-05
7.15914e-05
6.25503e-05
5.90705e-05
5.88185e-05
6.07595e-05
6.42968e-05
6.90878e-05
7.52209e-05
8.28844e-05
9.23556e-05
0.000104021
0.000118432
0.000136422
0.000159353
0.000188497
0.000224691
0.000270041
0.000327274
0.000399172
0.00049809
0.000536531
0.000499462
0.000412194
0.000331893
)
;

boundaryField
{
    floor
    {
        Cmu             0.09;
        kappa           0.41;
        E               9.8;
        type            epsilonWallFunction;
        value           nonuniform List<scalar> 
29
(
0.000586822
2.97624e-05
5.56805e-05
7.3456e-05
6.76301e-05
5.90074e-05
5.02847e-05
4.18581e-05
3.47784e-05
2.91071e-05
2.45938e-05
2.09816e-05
1.80754e-05
1.57122e-05
1.375e-05
1.20727e-05
1.05695e-05
9.12323e-06
8.36208e-06
6.5091e-06
6.5091e-06
1.62509e-05
2.61374e-05
3.5955e-05
0.000586822
2.97624e-05
4.17434e-05
0.000355065
0.000842332
)
;
    }
    ceiling
    {
        Cmu             0.09;
        kappa           0.41;
        E               9.8;
        type            epsilonWallFunction;
        value           nonuniform List<scalar> 
43
(
0.00264713
0.00257476
0.00274073
0.00325321
0.00276896
0.00228613
0.00191363
0.00158998
0.00132332
0.00105691
0.000794573
0.00054497
0.000345097
0.000209746
0.00013159
9.12025e-05
7.15914e-05
6.25503e-05
5.90705e-05
5.88185e-05
6.07595e-05
6.42968e-05
6.90878e-05
7.52209e-05
8.28844e-05
9.23556e-05
0.000104021
0.000118432
0.000136422
0.000159353
0.000188497
0.000224691
0.000270041
0.000327274
0.000399172
0.00049809
0.000536531
0.000499462
0.000412194
0.000331893
0.00988552
0.0167615
0.00305825
)
;
    }
    sWall
    {
        Cmu             0.09;
        kappa           0.41;
        E               9.8;
        type            epsilonWallFunction;
        value           uniform 0.00264713;
    }
    nWall
    {
        Cmu             0.09;
        kappa           0.41;
        E               9.8;
        type            epsilonWallFunction;
        value           nonuniform List<scalar> 6(0.000175436 0.00019799 0.000279929 0.000522218 0.000549639 0.000331893);
    }
    sideWalls
    {
        type            empty;
    }
    glass1
    {
        Cmu             0.09;
        kappa           0.41;
        E               9.8;
        type            epsilonWallFunction;
        value           nonuniform List<scalar> 9(0.000364864 0.000968024 0.00182197 0.00303276 0.00473264 0.0071184 0.00997409 0.0106615 0.00988552);
    }
    glass2
    {
        Cmu             0.09;
        kappa           0.41;
        E               9.8;
        type            epsilonWallFunction;
        value           nonuniform List<scalar> 2(0.00111002 0.000922577);
    }
    sun
    {
        Cmu             0.09;
        kappa           0.41;
        E               9.8;
        type            epsilonWallFunction;
        value           nonuniform List<scalar> 
14
(
0.000364864
0.000465844
0.000484208
0.000553324
0.000621995
0.00068989
0.000759135
0.000833564
0.000899453
0.000940219
0.000942727
0.000898383
0.000810094
0.000697401
)
;
    }
    heatsource1
    {
        Cmu             0.09;
        kappa           0.41;
        E               9.8;
        type            epsilonWallFunction;
        value           nonuniform List<scalar> 3(7.10328e-05 0.000125142 0.000175436);
    }
    heatsource2
    {
        Cmu             0.09;
        kappa           0.41;
        E               9.8;
        type            epsilonWallFunction;
        value           nonuniform List<scalar> 4(0.00061001 0.000173449 0.000173449 0.000548866);
    }
    Table_master
    {
        Cmu             0.09;
        kappa           0.41;
        E               9.8;
        type            epsilonWallFunction;
        value           nonuniform List<scalar> 9(0.000116968 8.35576e-05 6.17297e-05 4.7068e-05 3.69223e-05 2.97012e-05 2.44378e-05 2.05423e-05 1.76635e-05);
    }
    Table_slave
    {
        Cmu             0.09;
        kappa           0.41;
        E               9.8;
        type            epsilonWallFunction;
        value           nonuniform List<scalar> 9(0.000163058 0.000128358 0.000107624 9.38613e-05 8.3055e-05 7.31597e-05 6.4325e-05 5.56314e-05 4.62639e-05);
    }
    inlet
    {
        type            turbulentMixingLengthDissipationRateInlet;
        mixingLength    0.01;
        phi             phi;
        k               k;
        value           uniform 0.000101881;
    }
    outlet
    {
        type            zeroGradient;
    }
}


// ************************************************************************* //
