// -*- C++ -*-
// File generated by PyFoam - sorry for the ugliness

FoamFile
{
 version 2.0;
 format ascii;
 class volVectorField;
 location "300";
 object U;
}

dimensions [ 0 1 -1 0 0 0 0 ];

internalField nonuniform List<vector> 459
(
  (0.0910807 0.0639175 0)
  (-0.129679 0.00233292 0)
  (-0.11199 0.00501544 0)
  (-0.124137 0.0062198 0)
  (-0.136258 0.00546931 0)
  (-0.14701 0.00388354 0)
  (-0.155338 0.001736 0)
  (-0.16042 -0.000924757 0)
  (-0.161444 -0.00412628 0)
  (-0.157535 -0.00799856 0)
  (-0.147597 -0.0127038 0)
  (-0.130094 -0.0184078 0)
  (-0.104251 -0.0258768 0)
  (-0.0753221 -0.036626 0)
  (-0.0641884 -0.0499047 0)
  (0.0146627 0.0151037 0)
  (-0.0354327 0.00117011 0)
  (-0.0345574 -0.001339 0)
  (-0.035022 -0.00245764 0)
  (-0.0338096 -0.00285615 0)
  (-0.0319091 -0.00286429 0)
  (-0.0290177 -0.0034693 0)
  (-0.0250389 -0.0038924 0)
  (-0.0204616 -0.00397876 0)
  (-0.0161111 -0.00363629 0)
  (-0.0128547 -0.00273164 0)
  (-0.0117159 -0.00139081 0)
  (-0.0133175 1.96548e-05 0)
  (-0.0154667 0.000388304 0)
  (-0.0154054 -0.0016284 0)
  (-0.011238 -0.00669897 0)
  (-0.000821414 -0.0118282 0)
  (0.0190837 -0.0102095 0)
  (-0.0356566 0.00680748 0)
  (0.280712 0.138952 0)
  (-0.149901 0.0178197 0)
  (-0.101041 0.0178353 0)
  (-0.118113 0.0191933 0)
  (-0.131108 0.0179659 0)
  (-0.142252 0.0151322 0)
  (-0.15095 0.0110565 0)
  (-0.156644 0.00579501 0)
  (-0.158651 -0.000707537 0)
  (-0.156248 -0.00853435 0)
  (-0.148929 -0.0175608 0)
  (-0.135995 -0.0276441 0)
  (-0.117431 -0.0392687 0)
  (-0.095318 -0.0535047 0)
  (-0.074076 -0.0686429 0)
  (-0.0555103 -0.0739255 0)
  (0.0369587 0.0108144 0)
  (0.0745315 0.0347875 0)
  (-0.0277169 0.0123817 0)
  (-0.0198421 0.00548551 0)
  (-0.0230324 0.00220452 0)
  (-0.025421 0.000753303 0)
  (-0.0281427 0.000107187 0)
  (-0.0291631 -0.00266898 0)
  (-0.0291345 -0.00398929 0)
  (-0.028326 -0.00395845 0)
  (-0.0275988 -0.00280534 0)
  (-0.0269922 -0.00033456 0)
  (-0.0265659 0.0028081 0)
  (-0.0266316 0.00500197 0)
  (-0.0273668 0.00473154 0)
  (-0.0274634 0.000122409 0)
  (-0.0241761 -0.00810038 0)
  (-0.0162983 -0.00979336 0)
  (-0.0210492 -0.00483019 0)
  (-0.0855979 0.00571041 0)
  (0.439538 0.211899 0)
  (-0.191435 0.0430617 0)
  (-0.0837469 0.035248 0)
  (-0.107233 0.0325772 0)
  (-0.120335 0.0292629 0)
  (-0.131459 0.0241689 0)
  (-0.140407 0.0173266 0)
  (-0.146817 0.00873149 0)
  (-0.150137 -0.00162374 0)
  (-0.149561 -0.0135962 0)
  (-0.14525 -0.0269827 0)
  (-0.137357 -0.0412759 0)
  (-0.126665 -0.0561601 0)
  (-0.114632 -0.070906 0)
  (-0.102988 -0.0821993 0)
  (-0.0948075 -0.0837538 0)
  (-0.0994755 -0.0747032 0)
  (0.061125 0.0556466 0)
  (-0.0440784 0.0222424 0)
  (-0.0347151 0.0109172 0)
  (-0.0352095 0.0035831 0)
  (-0.0342246 -0.00174828 0)
  (-0.0313462 -0.00606325 0)
  (-0.0146331 -0.00546486 0)
  (-0.0253854 -0.0089618 0)
  (-0.0313363 -0.00929071 0)
  (-0.0365661 -0.00861403 0)
  (-0.0400139 -0.00746518 0)
  (-0.0411385 -0.00658806 0)
  (-0.0406125 -0.00658896 0)
  (-0.040283 -0.00854336 0)
  (-0.0391985 -0.0134788 0)
  (-0.032036 -0.0173997 0)
  (-0.0201241 -0.0136202 0)
  (-0.0130915 -0.011126 0)
  (-0.0735138 -0.0131889 0)
  (0.568343 0.272404 0)
  (-0.234677 0.0729523 0)
  (-0.062481 0.0535803 0)
  (-0.0931877 0.0462347 0)
  (-0.105621 0.0409884 0)
  (-0.115637 0.0341229 0)
  (-0.123904 0.025261 0)
  (-0.13018 0.0141971 0)
  (-0.133993 0.00084693 0)
  (-0.134581 -0.0144383 0)
  (-0.13246 -0.0307178 0)
  (-0.128857 -0.0469178 0)
  (-0.125307 -0.0621632 0)
  (-0.123464 -0.075081 0)
  (-0.1252 -0.082413 0)
  (-0.13417 -0.0779879 0)
  (-0.151733 -0.0502241 0)
  (-0.145997 0.0164128 0)
  (-0.0861447 0.0395386 0)
  (-0.0941505 0.0232583 0)
  (-0.0831234 0.0109731 0)
  (-0.08545 0.00238474 0)
  (-0.0883212 -0.00429007 0)
  (-0.0912565 -0.00864188 0)
  (-0.0904002 -0.00705705 0)
  (-0.0842443 -0.00676925 0)
  (-0.0778984 -0.00721017 0)
  (-0.0713386 -0.00747043 0)
  (-0.0648612 -0.00756466 0)
  (-0.0586124 -0.00762345 0)
  (-0.0520242 -0.00802929 0)
  (-0.0439439 -0.00964633 0)
  (-0.0351053 -0.0137524 0)
  (-0.031756 -0.0208358 0)
  (-0.025117 -0.0213705 0)
  (-0.0137275 -0.0222451 0)
  (-0.0428623 -0.0229365 0)
  (0.670626 0.322263 0)
  (-0.272167 0.104546 0)
  (-0.0407616 0.0695516 0)
  (-0.0764101 0.0582275 0)
  (-0.087698 0.050985 0)
  (-0.0952643 0.042401 0)
  (-0.10127 0.0318409 0)
  (-0.105698 0.018845 0)
  (-0.108124 0.00316167 0)
  (-0.107586 -0.0145848 0)
  (-0.105327 -0.0323443 0)
  (-0.103229 -0.0483374 0)
  (-0.102977 -0.0617769 0)
  (-0.105809 -0.0719487 0)
  (-0.11247 -0.0774311 0)
  (-0.122908 -0.0756986 0)
  (-0.133069 -0.0617598 0)
  (-0.133884 -0.0297181 0)
  (-0.119131 0.00373087 0)
  (-0.102311 0.0128782 0)
  (-0.0897765 0.00870362 0)
  (-0.0847045 0.00329526 0)
  (-0.0824963 -0.0021078 0)
  (-0.0818821 -0.00582699 0)
  (-0.0807064 -0.00671498 0)
  (-0.0782663 -0.00762362 0)
  (-0.0754316 -0.00822803 0)
  (-0.0724853 -0.0084635 0)
  (-0.0695524 -0.0083569 0)
  (-0.0666514 -0.00813762 0)
  (-0.063498 -0.00841236 0)
  (-0.0596164 -0.0103786 0)
  (-0.0550657 -0.0156707 0)
  (-0.0499947 -0.0247865 0)
  (-0.041899 -0.0331792 0)
  (-0.0265891 -0.0425809 0)
  (-0.00663202 -0.0519297 0)
  (0.0369537 -0.0614093 0)
  (0.107733 -0.0269702 0)
  (-0.0742828 0.0361478 0)
  (0.737661 0.366968 0)
  (-0.303046 0.133484 0)
  (-0.0248363 0.0781651 0)
  (-0.0556785 0.0681576 0)
  (-0.0660414 0.0587278 0)
  (-0.0704791 0.0477849 0)
  (-0.0726758 0.0354895 0)
  (-0.0734177 0.0209425 0)
  (-0.0723082 0.00328346 0)
  (-0.0678731 -0.0165384 0)
  (-0.0639173 -0.0345957 0)
  (-0.0618727 -0.048836 0)
  (-0.062958 -0.0591714 0)
  (-0.0676855 -0.0657111 0)
  (-0.0758712 -0.0677552 0)
  (-0.0862117 -0.0635455 0)
  (-0.0949764 -0.0508714 0)
  (-0.0970821 -0.0307237 0)
  (-0.0905077 -0.0111423 0)
  (-0.080182 -0.00133529 0)
  (-0.0711931 0.00029525 0)
  (-0.0657582 -0.00144377 0)
  (-0.063137 -0.00438105 0)
  (-0.0623157 -0.00688122 0)
  (-0.0620603 -0.00822248 0)
  (-0.0618081 -0.00919524 0)
  (-0.0616388 -0.00983478 0)
  (-0.0616567 -0.0100544 0)
  (-0.0619533 -0.00988776 0)
  (-0.0626035 -0.0096347 0)
  (-0.063591 -0.0100577 0)
  (-0.0648549 -0.0124918 0)
  (-0.0664459 -0.0184507 0)
  (-0.0679274 -0.0284986 0)
  (-0.0672254 -0.041787 0)
  (-0.0617575 -0.0590523 0)
  (-0.0508386 -0.0784606 0)
  (-0.0359088 -0.0889094 0)
  (0.0585731 -0.028401 0)
  (-0.12071 0.0888792 0)
  (0.757389 0.408064 0)
  (-0.318144 0.136416 0)
  (-0.00956537 0.0580933 0)
  (-0.017291 0.0753628 0)
  (-0.0317716 0.0670671 0)
  (-0.0358248 0.049298 0)
  (-0.0336318 0.033817 0)
  (-0.0293281 0.0177216 0)
  (-0.0212969 -0.00210131 0)
  (-0.012578 -0.0230039 0)
  (-0.00797532 -0.0390663 0)
  (-0.00707736 -0.049734 0)
  (-0.00998517 -0.0560735 0)
  (-0.016535 -0.0590857 0)
  (-0.0260157 -0.0588438 0)
  (-0.0367729 -0.0543169 0)
  (-0.0458755 -0.0443523 0)
  (-0.0501619 -0.0302723 0)
  (-0.0486512 -0.0167102 0)
  (-0.0438351 -0.00853808 0)
  (-0.0390897 -0.00526481 0)
  (-0.0360086 -0.00474378 0)
  (-0.0346354 -0.00565667 0)
  (-0.0345967 -0.00689563 0)
  (-0.0353063 -0.00785538 0)
  (-0.0364023 -0.00855292 0)
  (-0.0378234 -0.0088864 0)
  (-0.0395968 -0.00871355 0)
  (-0.0418389 -0.00799187 0)
  (-0.0448231 -0.00695195 0)
  (-0.0490308 -0.00634876 0)
  (-0.0551687 -0.00760498 0)
  (-0.0639613 -0.0123638 0)
  (-0.0755284 -0.0216185 0)
  (-0.0892614 -0.0357991 0)
  (-0.103779 -0.0553434 0)
  (-0.115231 -0.0770576 0)
  (-0.116252 -0.0855149 0)
  (-0.111113 -0.0401088 0)
  (-0.180552 0.153498 0)
  (0.854577 0.431098 0)
  (-0.141611 0.113955 0)
  (0.0591655 -0.00460806 0)
  (0.0888784 0.0374383 0)
  (0.0569175 0.0479535 0)
  (0.0387427 0.0288803 0)
  (0.0390919 0.0114147 0)
  (0.0443323 -0.00419889 0)
  (0.0565798 -0.0198044 0)
  (0.0624035 -0.0329268 0)
  (0.0625556 -0.042516 0)
  (0.058822 -0.0483126 0)
  (0.0521341 -0.0508069 0)
  (0.0429983 -0.0507 0)
  (0.0319005 -0.0484723 0)
  (0.0198944 -0.0440071 0)
  (0.00902677 -0.0367539 0)
  (0.00168965 -0.0271921 0)
  (-0.00119003 -0.0177557 0)
  (-0.00104319 -0.0112036 0)
  (-8.34915e-05 -0.00760148 0)
  (0.000466911 -0.00605731 0)
  (0.000245234 -0.00579027 0)
  (-0.000751575 -0.00610216 0)
  (-0.00230115 -0.00651431 0)
  (-0.00420123 -0.00681985 0)
  (-0.00635654 -0.00681414 0)
  (-0.00869845 -0.00627561 0)
  (-0.0112 -0.00502068 0)
  (-0.0139786 -0.00299831 0)
  (-0.017361 -0.000423455 0)
  (-0.0223613 0.00201764 0)
  (-0.0314701 0.00274895 0)
  (-0.0479756 -0.00112834 0)
  (-0.0747041 -0.0130739 0)
  (-0.110096 -0.03387 0)
  (-0.150286 -0.0610068 0)
  (-0.191115 -0.090112 0)
  (-0.251818 -0.11396 0)
  (-0.509012 -0.12269 0)
  (0.986834 0.412352 0)
  (0.469422 0.271178 0)
  (0.437191 0.198222 0)
  (0.397772 0.17392 0)
  (0.307401 0.138118 0)
  (0.245779 0.0931568 0)
  (0.215658 0.0548786 0)
  (0.198819 0.0254188 0)
  (0.181646 0.00139416 0)
  (0.16359 -0.0169844 0)
  (0.146946 -0.0291152 0)
  (0.131655 -0.0357433 0)
  (0.117269 -0.0381119 0)
  (0.103446 -0.0373836 0)
  (0.0899589 -0.0344916 0)
  (0.0768785 -0.0301343 0)
  (0.0649493 -0.0247721 0)
  (0.0554736 -0.0188864 0)
  (0.0491448 -0.013284 0)
  (0.0453632 -0.00892377 0)
  (0.0429145 -0.00606261 0)
  (0.0409338 -0.00445038 0)
  (0.038984 -0.00372988 0)
  (0.0368681 -0.00352482 0)
  (0.0345637 -0.00353054 0)
  (0.0321219 -0.00354024 0)
  (0.0296081 -0.00336229 0)
  (0.0271241 -0.00279474 0)
  (0.024819 -0.00164158 0)
  (0.0228642 0.000251663 0)
  (0.0215525 0.00303868 0)
  (0.0205594 0.00667399 0)
  (0.0199624 0.0106288 0)
  (0.0194384 0.0134125 0)
  (0.0188362 0.0127416 0)
  (0.0168812 0.00653789 0)
  (0.0139715 -0.00397609 0)
  (0.0186864 -0.0179334 0)
  (0.0841738 -0.0806487 0)
  (-0.381894 -0.20011 0)
  (-0.696111 0.127271 0)
  (0.179643 0.167803 0)
  (0.189606 0.132092 0)
  (0.190763 0.0925113 0)
  (0.202393 0.0591237 0)
  (0.208 0.0331808 0)
  (0.205476 0.0143639 0)
  (0.197609 0.00103375 0)
  (0.186897 -0.00858815 0)
  (0.174539 -0.0147261 0)
  (0.161257 -0.0176246 0)
  (0.14776 -0.0176223 0)
  (0.134648 -0.0152245 0)
  (0.122372 -0.0111444 0)
  (0.111353 -0.00627634 0)
  (0.102099 -0.00155284 0)
  (0.0948134 0.0024596 0)
  (0.0892364 0.00524915 0)
  (0.084877 0.00674551 0)
  (0.0812881 0.0071881 0)
  (0.0781536 0.00690867 0)
  (0.0752331 0.0062982 0)
  (0.072426 0.00559383 0)
  (0.0697037 0.00495531 0)
  (0.0670824 0.00452146 0)
  (0.0646392 0.00442309 0)
  (0.0625393 0.00475846 0)
  (0.0610244 0.00562363 0)
  (0.0601196 0.00714013 0)
  (0.0602767 0.00921611 0)
  (0.0618562 0.0111305 0)
  (0.0649182 0.0111987 0)
  (0.069095 0.00702708 0)
  (0.0734267 -0.00388021 0)
  (0.0756355 -0.0203565 0)
  (0.0772681 -0.0415838 0)
  (0.118176 -0.0790373 0)
  (-0.0967063 -0.140641 0)
  (-0.40788 0.14851 0)
  (0.183823 0.0966262 0)
  (0.121848 0.0651366 0)
  (0.141716 0.0475798 0)
  (0.173267 0.0260643 0)
  (0.192919 0.00392186 0)
  (0.200677 -0.0159999 0)
  (0.200992 -0.0328756 0)
  (0.196102 -0.0444667 0)
  (0.187651 -0.0523763 0)
  (0.177083 -0.0577278 0)
  (0.165664 -0.0613859 0)
  (0.154398 -0.0639936 0)
  (0.143979 -0.0659207 0)
  (0.134768 -0.0672353 0)
  (0.126874 -0.0677427 0)
  (0.12038 -0.0661 0)
  (0.115375 -0.0634135 0)
  (0.111678 -0.0605796 0)
  (0.108896 -0.0580526 0)
  (0.106626 -0.0559473 0)
  (0.10461 -0.0542702 0)
  (0.102696 -0.052893 0)
  (0.100816 -0.0516625 0)
  (0.0989727 -0.0504323 0)
  (0.0972481 -0.0490621 0)
  (0.0957754 -0.0473623 0)
  (0.0947405 -0.0451162 0)
  (0.0944239 -0.0423438 0)
  (0.0951397 -0.03941 0)
  (0.0970658 -0.0372732 0)
  (0.0999526 -0.0375902 0)
  (0.103109 -0.0412873 0)
  (0.104004 -0.0465768 0)
  (0.100093 -0.0536452 0)
  (0.0883668 -0.0622416 0)
  (0.113083 -0.0758332 0)
  (-0.168622 -0.0868286 0)
  (0.784027 0.126271 0)
  (-0.0510171 -0.272796 0)
  (-0.319 0.157662 0)
  (0.143263 0.0764091 0)
  (0.0663796 0.0801298 0)
  (0.0949613 0.0882983 0)
  (0.134111 0.09148 0)
  (0.159542 0.0955668 0)
  (0.170739 0.103362 0)
  (0.172134 0.114811 0)
  (0.168109 0.125773 0)
  (0.161093 0.136754 0)
  (0.152703 0.14812 0)
  (0.144198 0.159862 0)
  (0.136596 0.171538 0)
  (0.130592 0.182302 0)
  (0.126502 0.19108 0)
  (0.124271 0.196915 0)
  (0.123606 0.197425 0)
  (0.124059 0.194533 0)
  (0.125111 0.19011 0)
  (0.126329 0.185351 0)
  (0.127439 0.180847 0)
  (0.128312 0.176864 0)
  (0.128911 0.173395 0)
  (0.129268 0.170302 0)
  (0.129459 0.167404 0)
  (0.129591 0.164507 0)
  (0.1298 0.161378 0)
  (0.130273 0.157801 0)
  (0.131212 0.153723 0)
  (0.132718 0.149312 0)
  (0.134625 0.145087 0)
  (0.13625 0.141969 0)
  (0.136012 0.139706 0)
  (0.131588 0.135565 0)
  (0.120869 0.129718 0)
  (0.100625 0.123203 0)
  (0.129049 0.109385 0)
  (-0.256638 0.120222 0)
)
;

boundaryField
{
  floor
  {
    type noSlip;
  }
  ceiling
  {
    type noSlip;
  }
  sWall
  {
    type noSlip;
  }
  nWall
  {
    type noSlip;
  }
  sideWalls
  {
    type empty;
  }
  glass1
  {
    type noSlip;
  }
  glass2
  {
    type noSlip;
  }
  sun
  {
    type noSlip;
  }
  heatsource1
  {
    type noSlip;
  }
  heatsource2
  {
    type noSlip;
  }
  Table_master
  {
    type noSlip;
  }
  Table_slave
  {
    type noSlip;
  }
  inlet
  {
    type fixedValue;
    value uniform (0.0707107 -0.0707107 0);
  }
  outlet
  {
    type zeroGradient;
  }
} 	// ************************************************************************* //

