/*--------------------------------*- C++ -*----------------------------------*\
  =========                 |
  \\      /  F ield         | OpenFOAM: The Open Source CFD Toolbox
   \\    /   O peration     | Website:  https://openfoam.org
    \\  /    A nd           | Version:  6
     \\/     M anipulation  |
\*---------------------------------------------------------------------------*/
FoamFile
{
    version     2.0;
    format      ascii;
    class       surfaceScalarField;
    location    "300";
    object      phi;
}
// * * * * * * * * * * * * * * * * * * * * * * * * * * * * * * * * * * * * * //

dimensions      [1 0 -1 0 0 0 0];

internalField   nonuniform List<scalar> 
852
(
-0.0029473
0.00300519
-0.00396586
0.00101862
-0.00473721
0.000771396
-0.00533644
0.000599292
-0.0057286
0.000392208
-0.0058877
0.000159158
-0.0057909
-9.67496e-05
-0.00542472
-0.000366135
-0.00481177
-0.000612897
-0.00401523
-0.000796493
-0.00312382
-0.000891353
-0.00223071
-0.000893065
-0.00141348
-0.000817174
-0.000697547
-0.000715883
-0.00069574
-0.000717224
0.00072056
-0.000419979
-0.000297203
0.00016202
-0.000581958
0.000614884
-0.000452825
0.000912728
-0.000297807
0.00109535
-0.000182582
0.00119123
-9.58526e-05
0.00123452
-4.32555e-05
0.00125589
-2.13375e-05
0.00126705
-1.11256e-05
0.00127165
-4.57403e-06
0.00127119
4.90668e-07
0.00126462
6.60261e-06
0.00124524
1.93993e-05
0.00119383
5.14379e-05
0.00107843
0.000115429
0.000896355
0.000182093
0.000693545
0.000202829
0.000697995
-0.00210775
0.00526834
-0.00311487
0.00202579
-0.00391656
0.00157314
-0.00451104
0.00119382
-0.00489973
0.000780958
-0.00506588
0.000325353
-0.00498381
-0.000178774
-0.00464509
-0.0007048
-0.00408438
-0.00117355
-0.00337271
-0.00150811
-0.00259634
-0.00166767
-0.00183524
-0.00165412
-0.00115806
-0.0014943
-0.0006434
-0.0012305
-0.000451169
-0.000887924
-6.00118e-05
-0.000391159
-6.00096e-05
0.000363761
0.000366296
0.000722665
-0.000656064
0.000937794
-0.000797045
0.00112636
-0.000641353
0.00127038
-0.000441785
0.00135602
-0.000268188
0.0013683
-0.000108107
0.00137063
-4.55502e-05
0.0013743
-2.49695e-05
0.00137754
-1.4335e-05
0.00137966
-6.665e-06
0.0013806
-4.24753e-07
0.00137976
7.46924e-06
0.00137432
2.48711e-05
0.00133785
8.79286e-05
0.0011767
0.000276609
0.000907544
0.00045127
0.000591388
0.000519004
0.00130051
-0.00148128
0.00698695
-0.00236015
0.00290472
-0.00307713
0.00229017
-0.00358978
0.00170652
-0.00393096
0.00112219
-0.00407808
0.000472519
-0.0039846
-0.0002722
-0.00364025
-0.0010491
-0.00310396
-0.0017098
-0.00245904
-0.00215298
-0.00178714
-0.00233953
-0.00114861
-0.0022926
-0.000588527
-0.00205434
-0.000147725
-0.00167126
0.000147376
-0.00118298
0.000334923
-0.00057866
0.000274962
0.00141619
-0.00103996
0.00161583
-0.000855661
0.00156035
-0.000741523
0.00153905
-0.000620011
0.00155335
-0.000456045
0.00157155
-0.000286357
0.00146363
0.00141826
0.00139348
0.00137933
0.00137284
0.0013726
0.00138025
0.00140531
0.00149341
0.00120049
0.000569561
0.000868106
0.000783672
0.000492806
0.000894323
0.00180996
-0.00103875
0.0083328
-0.00174293
0.00360895
-0.00222253
0.00276983
-0.0025621
0.00204614
-0.00278834
0.00134848
-0.00285934
0.000543565
-0.00269816
-0.00043334
-0.00231528
-0.00143193
-0.00180737
-0.00221765
-0.00125964
-0.00270065
-0.000734993
-0.00286412
-0.000264433
-0.00276312
0.000138796
-0.00245753
0.000473248
-0.00200567
0.000766319
-0.00147602
0.00110648
-0.000918778
0.00182301
-0.000441524
0.00226117
-0.000429337
0.00186156
-0.000640299
0.00174015
-0.000734212
0.00163854
-0.000639877
0.00154917
-0.000530611
0.00150184
-0.000408685
0.0014843
-0.000268792
0.00160759
-0.000123418
0.00169859
-9.11334e-05
0.00178247
-8.40175e-05
0.00185695
-7.46136e-05
0.00190417
-4.73605e-05
0.00189549
8.53847e-06
0.00179916
9.61847e-05
0.0015794
0.000219614
0.00118094
0.000398314
0.00101472
0.0007358
0.000690343
0.00110806
0.000203994
0.00138069
0.0020357
-0.000729306
0.00942854
-0.00126789
0.00414759
-0.00137585
0.00287785
-0.00144528
0.00211562
-0.00147922
0.00138246
-0.00137385
0.000438243
-0.00106159
-0.000745561
-0.00063403
-0.00185943
-0.000199549
-0.00265207
0.00018207
-0.0030822
0.000488953
-0.00317095
0.000721185
-0.0029953
0.000895505
-0.00263181
0.00103985
-0.00214998
0.00118182
-0.00161796
0.00136423
-0.00110115
0.00161785
-0.000695118
0.00171965
-0.0005311
0.00162697
-0.000547585
0.00145545
-0.000562668
0.00131406
-0.000498454
0.00119911
-0.000415645
0.00112133
-0.000330879
0.00109445
-0.000241895
0.00114221
-0.000171166
0.00120361
-0.000152526
0.00127665
-0.000157047
0.00135626
-0.000154227
0.00142896
-0.000120053
0.00147075
-3.3249e-05
0.00145417
0.000112768
0.00136318
0.000310606
0.00120439
0.000557106
0.0010497
0.000890496
0.000876118
0.00128166
0.000487622
0.0017692
0.000339655
0.00218367
-0.000997762
0.00133721
-0.00144603
0.000448065
-0.00139637
-0.000635353
0.0104805
-0.001004
0.00451629
-0.000589516
0.00246342
-0.000238667
0.00176482
3.18451e-05
0.00111199
0.000441467
2.86576e-05
0.000952338
-0.00125639
0.00136052
-0.00226756
0.00162478
-0.00291625
0.00175056
-0.00320791
0.00176991
-0.00319023
0.00171206
-0.00293741
0.00160865
-0.00252835
0.00149526
-0.00203657
0.00140152
-0.00152419
0.00134839
-0.00104801
0.00132988
-0.000676579
0.00127028
-0.000471483
0.00113058
-0.000407856
0.000947951
-0.000380024
0.0007885
-0.000338986
0.000666687
-0.000293819
0.000588057
-0.000252239
0.000561739
-0.000215571
0.000587591
-0.000197014
0.000644116
-0.000209051
0.000722016
-0.000234949
0.000816611
-0.000248825
0.00092162
-0.000225066
0.00102517
-0.000136803
0.0011017
3.62326e-05
0.00113725
0.000275056
0.00114618
0.00054817
0.00117382
0.000862861
0.0012676
0.00118789
0.00144343
0.00159338
0.00188895
0.00173816
0.00217213
0.00105404
0.00181205
0.000808152
0.000474928
-0.000687686
0.0116304
-0.000567573
0.00439623
0.000572579
0.00132332
0.00137366
0.000963781
0.00209109
0.000394594
0.00280081
-0.000681031
0.00329998
-0.0017555
0.00353724
-0.00250476
0.00352657
-0.0029055
0.00331776
-0.00299902
0.00297498
-0.00284739
0.00255879
-0.00252117
0.0021222
-0.00209172
0.00171048
-0.00162482
0.00135389
-0.00116759
0.00106644
-0.000760545
0.000846472
-0.000456597
0.000660006
-0.000285007
0.000474508
-0.000222348
0.000297952
-0.000203459
0.000151861
-0.000192889
4.44044e-05
-0.000186359
-2.20252e-05
-0.00018581
-4.4353e-05
-0.000193246
-2.65054e-05
-0.000214867
1.8703e-05
-0.000254267
8.33443e-05
-0.0002996
0.000166874
-0.000332366
0.000274099
-0.000332302
0.000411533
-0.000274248
0.000574719
-0.000126963
0.000740539
0.000109229
0.000908396
0.000380307
0.00111957
0.000651683
0.00141992
0.000887542
0.00188215
0.00113116
0.0025575
0.00106281
0.00311152
0.000500035
0.00311813
0.000801545
0.00365458
0.00262783
0.00951982
0.00334344
0.00368067
0.00374482
0.000921989
0.00445705
0.000251593
0.00529314
-0.000441463
0.00588222
-0.00127006
0.00604271
-0.00191591
0.00582035
-0.0022823
0.00530338
-0.00238844
0.0045915
-0.00228706
0.00378174
-0.00203756
0.00295464
-0.00169403
0.00217151
-0.00130858
0.0014791
-0.000932397
0.000901521
-0.000590013
0.000448156
-0.000307182
0.000123676
-0.000132119
-0.000103163
-5.81686e-05
-0.000275276
-5.02363e-05
-0.000413808
-6.49285e-05
-0.000523128
-8.3574e-05
-0.000604419
-0.000105075
-0.000658664
-0.000131573
-0.000686907
-0.000165014
-0.000694132
-0.000207655
-0.000689849
-0.000258563
-0.000679866
-0.000309598
-0.000662876
-0.00034937
-0.00062973
-0.000365462
-0.000559937
-0.000344054
-0.000418025
-0.000268886
-0.000195338
-0.000113468
7.12322e-05
0.000113728
0.000371733
0.000351177
0.000706158
0.000553114
0.00110113
0.000736189
0.0014647
0.000699244
0.00155432
0.000410416
0.00083723
0.00151863
0.00475885
0.0100897
0.0137641
0.0125633
0.0021229
0.0118234
0.000991475
0.0111254
0.000256588
0.0101788
-0.00032324
0.00896754
-0.000704538
0.00760576
-0.000920386
0.00619181
-0.000974391
0.00480387
-0.000899055
0.00350883
-0.000742483
0.00235111
-0.000536291
0.00135454
-0.00031201
0.000530741
-0.000108604
-0.000105626
4.63344e-05
-0.00052911
0.000116286
-0.000772438
0.000111198
-0.000916779
8.61615e-05
-0.00101999
5.29638e-05
-0.00110556
2.06271e-05
-0.00118029
-8.85414e-06
-0.00124606
-3.93193e-05
-0.00130397
-7.36819e-05
-0.00135709
-0.000111911
-0.00141175
-0.000153013
-0.00147697
-0.000193363
-0.00156124
-0.000225344
-0.00167224
-0.00023838
-0.00181842
-0.000219303
-0.0020098
-0.000152678
-0.00225533
-2.33731e-05
-0.00254759
0.000178783
-0.00290093
0.000467068
-0.00340007
0.000850306
-0.0041579
0.00131094
-0.00522349
0.00180177
-0.00669718
0.00217293
-0.00842064
0.00213387
-0.00776536
0.000863352
-0.00271015
0.00471655
0.003582
0.00378158
0.0019268
0.00409891
-6.03498e-05
0.0040594
-0.00028353
0.00362059
-0.000265664
0.00296091
-0.000260703
0.00218555
-0.000199062
0.0013548
-6.83453e-05
0.000525771
8.6496e-05
-0.000219174
0.000208593
-0.000795343
0.000264124
-0.00117331
0.00026934
-0.0013849
0.000257906
-0.00149588
0.000227245
-0.00156789
0.000183188
-0.00162205
0.000140301
-0.00167153
0.000102422
-0.00172065
6.97314e-05
-0.00177
4.0476e-05
-0.00182166
1.23195e-05
-0.00187894
-1.64251e-05
-0.00194479
-4.60812e-05
-0.00202274
-7.50886e-05
-0.00211674
-9.93783e-05
-0.00222905
-0.000113047
-0.00235869
-0.000108763
-0.0025002
-7.78056e-05
-0.00264276
-1.01272e-05
-0.00277298
0.000106833
-0.00288572
0.000291515
-0.0029877
0.000569036
-0.00308771
0.000950312
-0.00318409
0.00140731
-0.00321472
0.00183239
-0.00308512
0.00204332
-0.00256557
0.00161432
-0.00130236
-0.000399873
-0.00393619
-0.000677581
0.00432239
0.000138987
0.00111045
-0.000243405
0.000322146
-0.000624095
9.71697e-05
-0.000969949
8.01484e-05
-0.00133932
0.000108604
-0.00169437
0.000155933
-0.0019733
0.000210533
-0.00214461
0.00025777
-0.00222415
0.000288095
-0.00224593
0.00028587
-0.00223291
0.000256297
-0.00219516
0.000220127
-0.00215266
0.000184718
-0.00212213
0.00015264
-0.00210688
0.000125022
-0.00210469
0.000100211
-0.00211144
7.64521e-05
-0.00212371
5.27207e-05
-0.00214026
2.88452e-05
-0.00216252
5.80121e-06
-0.00219399
-1.46291e-05
-0.00223759
-3.15152e-05
-0.00229337
-4.36177e-05
-0.00235776
-4.86724e-05
-0.00242326
-4.32837e-05
-0.00247819
-2.28907e-05
-0.00250736
1.90298e-05
-0.00249266
9.21136e-05
-0.00240823
0.00020708
-0.00221976
0.000380548
-0.00190208
0.000632623
-0.001451
0.000956223
-0.000831935
0.00121331
0.000106064
0.00110531
0.00125213
0.000468239
0.00150739
-0.000655148
-0.00234493
-0.00756367
-0.0105019
-0.00613629
-0.00500434
-0.00466928
-0.00456308
-0.00447625
-0.00436267
-0.00420307
-0.00398989
-0.00373031
-0.00344113
-0.0031548
-0.00289858
-0.00267898
-0.00249514
-0.00234365
-0.00221996
-0.00212121
-0.00204624
-0.00199497
-0.00196749
-0.00196294
-0.00197868
-0.00201117
-0.00205563
-0.00210503
-0.00214893
-0.00217234
-0.00215373
-0.00206196
-0.00185516
-0.00147484
-0.000842432
0.000113564
0.00132654
0.00243139
0.00289904
0.00224316
)
;

boundaryField
{
    floor
    {
        type            calculated;
        value           nonuniform List<scalar> 
29
(
0
0
0
0
0
0
0
0
0
0
0
0
0
0
0
0
0
0
0
0
-4.43439e-06
-1.11086e-05
-1.66343e-05
-2.17249e-05
-1.75604e-06
-3.29433e-06
-9.45615e-06
-9.89715e-06
-8.7848e-06
)
;
    }
    ceiling
    {
        type            calculated;
        value           nonuniform List<scalar> 
43
(
-4.59023e-05
-4.45356e-05
-4.32213e-05
-2.15575e-05
-1.29793e-05
-9.08998e-06
-6.73406e-06
-5.02203e-06
-3.71177e-06
-2.6812e-06
-1.8405e-06
-1.121e-06
-4.92454e-07
4.53325e-08
4.9124e-07
8.46798e-07
1.11807e-06
1.30932e-06
1.42117e-06
1.4554e-06
1.42155e-06
1.3367e-06
1.21937e-06
1.08494e-06
9.49457e-07
8.20961e-07
7.02217e-07
5.94066e-07
4.95978e-07
4.06321e-07
3.26363e-07
2.63059e-07
2.19316e-07
1.99706e-07
2.13642e-07
3.23022e-07
4.46844e-07
5.80963e-07
7.1694e-07
1.57748e-06
9.08177e-06
6.27966e-06
-6.26567e-05
)
;
    }
    sWall
    {
        type            calculated;
        value           uniform -0.000271192;
    }
    nWall
    {
        type            calculated;
        value           nonuniform List<scalar> 6(-4.98681e-05 -5.92492e-05 -6.15175e-05 -7.63369e-05 -8.38821e-05 -0.00010336);
    }
    sideWalls
    {
        type            empty;
        value           nonuniform 0();
    }
    glass1
    {
        type            calculated;
        value           nonuniform List<scalar> 9(-5.78343e-05 -0.000155339 -0.000237278 -0.000307039 -0.000366378 -0.000416573 -0.000462117 -0.00051722 -0.000578898);
    }
    glass2
    {
        type            calculated;
        value           nonuniform List<scalar> 2(-0.000267047 -0.000296358);
    }
    sun
    {
        type            calculated;
        value           uniform 0;
    }
    heatsource1
    {
        type            calculated;
        value           nonuniform List<scalar> 3(2.04562e-07 2.04434e-07 2.04453e-07);
    }
    heatsource2
    {
        type            calculated;
        value           nonuniform List<scalar> 4(5.12349e-08 5.13629e-08 0 0);
    }
    Table_master
    {
        type            calculated;
        value           nonuniform List<scalar> 9(-1.53374e-07 -1.53462e-07 -1.53496e-07 -1.53521e-07 -1.5354e-07 -1.53555e-07 -1.53564e-07 -1.53566e-07 -1.53545e-07);
    }
    Table_slave
    {
        type            calculated;
        value           nonuniform List<scalar> 9(1.53225e-07 1.53246e-07 1.53218e-07 1.53192e-07 1.53176e-07 1.53179e-07 1.53189e-07 1.5323e-07 1.53316e-07);
    }
    inlet
    {
        type            calculated;
        value           uniform -0.00617551;
    }
    outlet
    {
        type            calculated;
        value           nonuniform List<scalar> 2(0.00788075 0.00298276);
    }
}


// ************************************************************************* //
