/*--------------------------------*- C++ -*----------------------------------*\
  =========                 |
  \\      /  F ield         | OpenFOAM: The Open Source CFD Toolbox
   \\    /   O peration     | Website:  https://openfoam.org
    \\  /    A nd           | Version:  6
     \\/     M anipulation  |
\*---------------------------------------------------------------------------*/
FoamFile
{
    version     2.0;
    format      ascii;
    class       surfaceScalarField;
    location    "430";
    object      phi;
}
// * * * * * * * * * * * * * * * * * * * * * * * * * * * * * * * * * * * * * //

dimensions      [1 0 -1 0 0 0 0];

internalField   nonuniform List<scalar> 
852
(
-0.00234816
0.00238232
-0.00324845
0.000900276
-0.0039359
0.00068745
-0.00445728
0.000521366
-0.004783
0.000325718
-0.00488378
0.000100774
-0.00472842
-0.000155377
-0.00429481
-0.000433613
-0.00360361
-0.00069121
-0.00272777
-0.000875847
-0.00177665
-0.000951125
-0.000875392
-0.000901267
-0.000157704
-0.000717697
0.000187827
-0.000345539
0.000185126
4.3656e-05
-4.73764e-05
0.000183712
-0.000140067
0.000501941
-0.00031824
0.000854586
-0.000352656
0.00116161
-0.000307033
0.00139408
-0.000232488
0.00152184
-0.000127765
0.0015725
-5.06747e-05
0.00159341
-2.09271e-05
0.00160162
-8.22121e-06
0.0016002
1.40632e-06
0.00158922
1.09679e-05
0.00156449
2.47163e-05
0.00151258
5.18967e-05
0.00140107
0.000111501
0.00117362
0.000227435
0.000778377
0.000395233
0.00011646
0.000661903
0.000111171
-0.00173051
0.00420655
-0.00259393
0.00176369
-0.00329982
0.00139333
-0.00382291
0.00104445
-0.00415463
0.000657435
-0.00427124
0.000217375
-0.00414051
-0.000286116
-0.0037464
-0.000827726
-0.00312273
-0.00131489
-0.00235392
-0.00164467
-0.00154738
-0.00175767
-0.000807628
-0.00164103
-0.000218254
-0.00130708
0.00022645
-0.000790252
0.000624455
-0.000212887
0.000440404
0.000183991
0.000440345
-0.000106972
5.0813e-05
0.00047653
-0.000723578
0.000841037
-0.000682757
0.00112539
-0.000637019
0.00135598
-0.000537634
0.0015224
-0.000398923
0.00156084
-0.000166216
0.00156935
-5.91987e-05
0.00157791
-2.95015e-05
0.00158494
-1.52621e-05
0.00158923
-2.89273e-06
0.00159085
9.3309e-06
0.00158888
2.66774e-05
0.00157893
6.18338e-05
0.00152761
0.000162803
0.00132804
0.000426999
0.000984947
0.000738309
0.000597482
0.00104935
0.000694686
-0.00125179
0.00560366
-0.00198959
0.00250149
-0.00262821
0.00203195
-0.0030951
0.00151133
-0.00340481
0.00096713
-0.00352823
0.000340788
-0.00341157
-0.00040278
-0.00303387
-0.00120543
-0.00245419
-0.00189457
-0.00177224
-0.00232662
-0.00108796
-0.00244196
-0.000477872
-0.00225112
7.21705e-06
-0.00179218
0.00037691
-0.00115995
0.000641265
-0.000477251
0.000634938
0.000190309
0.00107527
0.000766162
-0.000728484
0.000974687
-0.000932114
0.00123016
-0.000938242
0.00139839
-0.000805262
0.00152269
-0.000661944
0.00167838
-0.00055462
0.0015123
0.00145324
0.00142388
0.00140876
0.00140601
0.00141548
0.0014423
0.00150427
0.00166721
0.00146703
0.000627163
0.00122267
0.000982664
0.000859249
0.00141276
0.00153192
-0.000901183
0.00669526
-0.00147454
0.00307484
-0.00192542
0.00248283
-0.00226101
0.00184691
-0.00249835
0.00120446
-0.00259958
0.00044201
-0.00246472
-0.000537647
-0.00208068
-0.00158948
-0.00155207
-0.00242318
-0.000981611
-0.00289709
-0.000445044
-0.00297853
1.63317e-05
-0.0027125
0.000393277
-0.00216913
0.000718182
-0.00148487
0.00101359
-0.000772664
0.00133916
-0.000135277
0.00213806
0.000276369
0.00221505
-8.96796e-05
0.00208047
-0.000593918
0.00186991
-0.000721559
0.0016868
-0.000755144
0.00157749
-0.000695969
0.0015085
-0.000592967
0.00140053
-0.000446659
0.00160901
-0.000208646
0.00173335
-0.000124506
0.00183429
-0.000101108
0.00192377
-8.9648e-05
0.00199691
-7.33045e-05
0.00203827
-4.15278e-05
0.00201893
1.91641e-05
0.00189584
0.000122927
0.00160029
0.000295383
0.00156016
0.000667277
0.0014394
0.00110341
0.00123721
0.00161493
0.00274053
-0.000645467
0.00757038
-0.00105921
0.00348857
-0.00120458
0.0026282
-0.00133299
0.00197531
-0.00143113
0.0013026
-0.0014548
0.000465669
-0.00123966
-0.000752791
-0.000848672
-0.00198047
-0.000416268
-0.00285558
-1.37058e-05
-0.00329965
0.000322429
-0.00331467
0.000584039
-0.00297412
0.00080544
-0.00239054
0.00101325
-0.00169268
0.00124165
-0.00100108
0.00153615
-0.000429785
0.00190841
-9.59019e-05
0.00202038
-0.000201657
0.00184604
-0.000419593
0.00166047
-0.000535994
0.00147739
-0.000572076
0.00132937
-0.000547968
0.00121947
-0.000483072
0.00115613
-0.000383341
0.00120866
-0.000261192
0.00127812
-0.000193976
0.00135016
-0.000173171
0.00142633
-0.000165834
0.00150338
-0.000150367
0.00157221
-0.000110377
0.00161663
-2.52766e-05
0.00161872
0.000120819
0.00158054
0.000333547
0.0016041
0.000643693
0.00172579
0.000981705
0.00217045
0.00117025
0.0033264
0.00158456
0.00219335
0.00113284
0.00133228
0.000860844
0.00137281
-0.000556383
0.00839015
-0.000808928
0.0037411
-0.000523776
0.00234304
-0.000361224
0.00181275
-0.000266458
0.00120782
-7.8198e-05
0.000277401
0.000274706
-0.0011057
0.000623678
-0.00232944
0.000889641
-0.00312155
0.00105421
-0.00346422
0.00113488
-0.00339534
0.00116105
-0.0030003
0.00116286
-0.00239236
0.00117183
-0.00170166
0.00121785
-0.00104711
0.00131978
-0.00053172
0.00145712
-0.000233259
0.00146162
-0.000206164
0.00133439
-0.000292376
0.00116902
-0.000370639
0.00100287
-0.000405942
0.000858855
-0.000403963
0.000750155
-0.000374388
0.000691098
-0.000324299
0.000697763
-0.000267874
0.000743393
-0.000239624
0.000807895
-0.000237691
0.000884057
-0.000242014
0.000968949
-0.000235278
0.00106111
-0.00020256
0.00116027
-0.000124458
0.00125653
2.45474e-05
0.00134504
0.000245012
0.00147322
0.000515494
0.0016691
0.000785813
0.00188871
0.000950616
0.00217936
0.0012939
0.00191929
0.00139289
0.00116751
0.00161261
0.00258229
-0.000643295
0.00932691
-0.000504267
0.00360207
0.000327092
0.00151167
0.00077208
0.00136776
0.00112658
0.000853317
0.00159352
-0.000189549
0.00201408
-0.00152627
0.00223441
-0.00254978
0.0022644
-0.00315154
0.00213945
-0.00333926
0.00191252
-0.00316841
0.00163896
-0.00272674
0.00136431
-0.00211773
0.00112884
-0.00146621
0.000960629
-0.000878916
0.000874766
-0.00044587
0.000844511
-0.000203016
0.000782443
-0.000144109
0.000669674
-0.00017962
0.000528877
-0.000229856
0.00038585
-0.00026293
0.000259149
-0.000277277
0.000162474
-0.000277729
0.000108301
-0.000270144
0.000103907
-0.000263499
0.000135559
-0.000271295
0.000187055
-0.000289206
0.000250114
-0.000305093
0.000323289
-0.000308473
0.000411565
-0.000290856
0.000527275
-0.000240189
0.000682421
-0.000130618
0.000860979
6.64334e-05
0.00105704
0.000319409
0.00127693
0.000565905
0.00146298
0.000764555
0.0016942
0.00106265
0.00181951
0.00126756
0.00156063
0.00187147
0.00418657
0.00185563
0.00779948
0.00239493
0.00306276
0.00251329
0.00139331
0.0028005
0.00108054
0.00329802
0.00035578
0.00385873
-0.000750267
0.00408383
-0.00175137
0.00397488
-0.00244082
0.00360385
-0.0027805
0.00306287
-0.00279828
0.00244425
-0.0025498
0.00182601
-0.00210852
0.00125831
-0.00155005
0.00079085
-0.000998762
0.000447399
-0.000535481
0.000239962
-0.000238449
0.000127717
-9.07856e-05
3.91161e-05
-5.55233e-05
-6.30772e-05
-7.74422e-05
-0.000179952
-0.000112997
-0.000297483
-0.000145416
-0.000401425
-0.000173353
-0.000481825
-0.000197348
-0.000531753
-0.000220235
-0.000549313
-0.000245958
-0.000543686
-0.000276942
-0.000525063
-0.000307849
-0.000499977
-0.000330199
-0.000471471
-0.000336999
-0.000436832
-0.000325515
-0.000380407
-0.000296634
-0.000266706
-0.00024434
-6.79951e-05
-0.000132297
0.000177642
7.37526e-05
0.000423175
0.000320353
0.000624579
0.000563131
0.000853025
0.000834187
0.00105724
0.00106333
0.000643882
0.00228481
0.00501269
0.00813863
0.0111792
0.00958166
0.00299082
0.0088006
0.00186159
0.00822237
0.000934002
0.00752017
-4.80572e-05
0.00661071
-0.000841905
0.00556471
-0.00139481
0.00446021
-0.001676
0.00335978
-0.00169785
0.00232831
-0.00151834
0.00142031
-0.00120053
0.000649552
-0.000779309
6.51773e-05
-0.000414406
-0.000312098
-0.000158225
-0.00052053
-3.00346e-05
-0.000632976
2.16428e-05
-0.000712076
2.35593e-05
-0.00079195
2.4137e-06
-0.000879566
-2.53994e-05
-0.000968705
-5.62966e-05
-0.00105033
-9.17494e-05
-0.00112131
-0.000126388
-0.00118068
-0.000160889
-0.00122879
-0.000197864
-0.00126987
-0.000235878
-0.00130858
-0.000269167
-0.00135019
-0.000288602
-0.00140433
-0.000282885
-0.00148704
-0.00024282
-0.00161504
-0.000168656
-0.00179784
-6.15552e-05
-0.00203749
0.000107325
-0.00232865
0.000364901
-0.00273608
0.000727761
-0.00339407
0.0012211
-0.00443555
0.00187565
-0.00591753
0.0025453
-0.00614824
0.00251551
-0.000938801
0.00603941
0.00326038
0.00531303
0.00258799
0.0051742
0.00107287
0.00493413
0.000192047
0.00443814
-0.000345899
0.00369122
-0.000647874
0.0027871
-0.000771882
0.00181991
-0.000730687
0.000892135
-0.000590583
7.36245e-05
-0.00038204
-0.000552715
-0.000152995
-0.000943305
-2.38377e-05
-0.00115469
5.31389e-05
-0.00126588
8.11314e-05
-0.00132532
8.10728e-05
-0.00136897
6.7183e-05
-0.00141351
4.69387e-05
-0.00146193
2.29957e-05
-0.00151627
-1.97366e-06
-0.00157749
-3.0555e-05
-0.00164719
-5.67072e-05
-0.00172759
-8.051e-05
-0.00181935
-0.000106124
-0.00192308
-0.000132161
-0.0020372
-0.000155072
-0.00215783
-0.000167988
-0.00228205
-0.000158689
-0.00241232
-0.000112569
-0.00255023
-3.07667e-05
-0.00269527
8.34737e-05
-0.00283257
0.000244607
-0.00295064
0.000482948
-0.00304676
0.000823861
-0.00310814
0.00128247
-0.00309524
0.00186274
-0.00288725
0.00233728
-0.00131581
0.000944057
-0.0022102
0.000484141
0.00276387
0.00151797
0.00155418
0.00176629
0.000824574
0.00167448
0.000283862
0.00135335
-2.4787e-05
0.000867471
-0.000162014
0.000275194
-0.000179634
-0.000327428
-0.000128101
-0.000871993
-4.60467e-05
-0.00128847
3.44129e-05
-0.00153354
9.20455e-05
-0.00166703
0.000109631
-0.00172672
0.000112811
-0.00174941
0.000103802
-0.00175731
8.89453e-05
-0.00176261
7.24696e-05
-0.00177149
5.57946e-05
-0.00178756
3.90479e-05
-0.00181186
2.23065e-05
-0.00185059
8.14784e-06
-0.00190219
-5.12488e-06
-0.00196686
-1.58624e-05
-0.00204993
-2.30769e-05
-0.0021563
-2.58078e-05
-0.0022886
-2.2788e-05
-0.00244353
-1.30847e-05
-0.0026064
4.16985e-06
-0.00275093
3.19368e-05
-0.00285266
7.09479e-05
-0.00290339
0.000134186
-0.00288494
0.000226132
-0.00275903
0.000357023
-0.0024804
0.000545217
-0.00198767
0.00078971
-0.00109681
0.000971864
0.000372226
0.000868229
0.00138359
-6.73258e-05
-0.000781044
-0.00581571
-0.00706841
-0.00432535
-0.00279517
-0.00199799
-0.00174533
-0.00180423
-0.00200136
-0.00221701
-0.0023822
-0.00246678
-0.00247247
-0.00242202
-0.0023552
-0.00228594
-0.00222609
-0.00218129
-0.00215308
-0.0021416
-0.00214694
-0.00216909
-0.00220547
-0.00225517
-0.00231564
-0.00238341
-0.00245413
-0.00252224
-0.00258134
-0.00262415
-0.00264033
-0.00261879
-0.0025353
-0.00236106
-0.0020569
-0.00156524
-0.000829491
8.80907e-05
0.000901374
0.000779399
)
;

boundaryField
{
    floor
    {
        type            calculated;
        value           nonuniform List<scalar> 
29
(
0
0
0
0
0
0
0
0
0
0
0
0
0
0
0
0
0
0
0
0
5.27279e-06
1.39525e-05
2.20006e-05
2.85887e-05
2.69148e-06
3.71042e-06
8.77188e-06
1.3126e-05
1.26861e-05
)
;
    }
    ceiling
    {
        type            calculated;
        value           nonuniform List<scalar> 
43
(
2.319e-05
2.15724e-05
2.0806e-05
2.39788e-05
2.73688e-05
3.11654e-05
3.40726e-05
3.50817e-05
3.59859e-05
3.70633e-05
3.85019e-05
4.00796e-05
4.15766e-05
4.27859e-05
4.35296e-05
4.39293e-05
4.41301e-05
4.42327e-05
4.42985e-05
4.4361e-05
4.44331e-05
4.4505e-05
4.45561e-05
4.45902e-05
4.46767e-05
4.48852e-05
4.53018e-05
4.59965e-05
4.69647e-05
4.81011e-05
4.93853e-05
5.06782e-05
5.18703e-05
5.28527e-05
5.35394e-05
5.39402e-05
5.42648e-05
5.49288e-05
5.46305e-05
5.64147e-05
2.7254e-05
2.22021e-05
1.23746e-05
)
;
    }
    sWall
    {
        type            calculated;
        value           uniform -0.000172347;
    }
    nWall
    {
        type            calculated;
        value           nonuniform List<scalar> 6(-4.07459e-05 -4.19862e-05 -4.36748e-05 -4.44333e-05 -4.55802e-05 -5.80778e-05);
    }
    sideWalls
    {
        type            empty;
        value           nonuniform 0();
    }
    glass1
    {
        type            calculated;
        value           nonuniform List<scalar> 9(-3.41697e-05 -9.37282e-05 -0.000145326 -0.000190427 -0.000229651 -0.000263402 -0.000293466 -0.000328208 -0.000366403);
    }
    glass2
    {
        type            calculated;
        value           nonuniform List<scalar> 2(-0.000182245 -0.000196773);
    }
    sun
    {
        type            calculated;
        value           uniform 0;
    }
    heatsource1
    {
        type            calculated;
        value           nonuniform List<scalar> 3(2.02883e-07 2.03377e-07 2.03732e-07);
    }
    heatsource2
    {
        type            calculated;
        value           nonuniform List<scalar> 4(5.10267e-08 5.10972e-08 0 0);
    }
    Table_master
    {
        type            calculated;
        value           nonuniform List<scalar> 9(-1.52651e-07 -1.52762e-07 -1.52793e-07 -1.52811e-07 -1.52822e-07 -1.52825e-07 -1.5282e-07 -1.52804e-07 -1.52755e-07);
    }
    Table_slave
    {
        type            calculated;
        value           nonuniform List<scalar> 9(1.52555e-07 1.52571e-07 1.52535e-07 1.52501e-07 1.52473e-07 1.52456e-07 1.52456e-07 1.52467e-07 1.52516e-07);
    }
    inlet
    {
        type            calculated;
        value           uniform -0.00630895;
    }
    outlet
    {
        type            calculated;
        value           nonuniform List<scalar> 2(0.00596486 0.00123112);
    }
}


// ************************************************************************* //
