/*--------------------------------*- C++ -*----------------------------------*\
  =========                 |
  \\      /  F ield         | OpenFOAM: The Open Source CFD Toolbox
   \\    /   O peration     | Website:  https://openfoam.org
    \\  /    A nd           | Version:  6
     \\/     M anipulation  |
\*---------------------------------------------------------------------------*/
FoamFile
{
    version     2.0;
    format      ascii;
    class       volScalarField;
    location    "600";
    object      epsilon;
}
// * * * * * * * * * * * * * * * * * * * * * * * * * * * * * * * * * * * * * //

dimensions      [0 2 -3 0 0 0 0];

internalField   nonuniform List<scalar> 
459
(
0.000184452
0.000219219
0.000219743
0.000243379
0.000264639
0.000283642
0.000300977
0.000317396
0.00033391
0.000347926
0.000355439
0.000353685
0.000341781
0.000323251
0.000303707
2.42517e-05
4.38263e-05
3.91595e-05
3.43319e-05
3.0217e-05
2.67292e-05
2.37238e-05
2.12002e-05
1.90889e-05
1.73129e-05
1.58078e-05
1.45127e-05
1.33786e-05
1.23603e-05
1.14087e-05
1.04658e-05
9.4474e-06
8.74532e-06
7.02049e-06
0.000553507
0.0010535
0.000205191
0.000187336
0.000184858
0.000185764
0.000190184
0.00019977
0.000216136
0.000236547
0.000255154
0.000265529
0.000262558
0.000249527
0.00025097
0.000308838
0.000183758
8.2839e-05
6.34162e-05
4.64651e-05
3.52536e-05
2.74447e-05
2.20868e-05
1.89329e-05
1.61525e-05
1.38599e-05
1.1997e-05
1.0479e-05
9.22703e-06
8.18488e-06
7.32241e-06
6.69905e-06
6.61445e-06
7.11527e-06
2.13317e-05
1.44398e-05
0.00114334
0.00312592
0.000282099
0.000180868
0.000175566
0.00018149
0.000193395
0.00021213
0.000237946
0.000268277
0.000295277
0.000309127
0.000304313
0.000285
0.000268816
0.000271969
0.000354723
0.000142934
7.85354e-05
5.0308e-05
3.55168e-05
2.70303e-05
2.25091e-05
3.98677e-05
3.15273e-05
2.55122e-05
2.1105e-05
1.78143e-05
1.53129e-05
1.33894e-05
1.19172e-05
1.08444e-05
8.82013e-06
8.23427e-06
4.0816e-05
2.25914e-05
0.00208356
0.00722244
0.000527464
0.000184872
0.000170641
0.000181153
0.00019844
0.000223951
0.000260101
0.000304613
0.000341359
0.000355107
0.000342287
0.000310121
0.000273232
0.000243225
0.000238764
0.000253821
0.000141701
7.31933e-05
4.40349e-05
3.07083e-05
2.45091e-05
2.30228e-05
5.57834e-05
5.14527e-05
4.96311e-05
4.84198e-05
4.64835e-05
4.32591e-05
3.98861e-05
3.59926e-05
3.11114e-05
1.94667e-05
1.34835e-05
7.12553e-05
3.12497e-05
0.00351161
0.013739
0.00121572
0.000214631
0.000163819
0.000173766
0.000195416
0.000231837
0.00029134
0.000367079
0.000419784
0.000431098
0.00040385
0.000351435
0.000290994
0.000233495
0.000178492
0.000128078
7.67419e-05
4.75141e-05
3.1846e-05
2.52696e-05
2.38163e-05
2.53713e-05
2.97804e-05
3.34236e-05
3.6177e-05
3.75267e-05
3.69332e-05
3.43308e-05
3.13996e-05
2.86653e-05
2.62308e-05
2.18448e-05
1.72779e-05
5.1637e-05
3.5689e-05
7.75713e-05
0.000133825
0.00018237
0.00561027
0.0210033
0.00316878
0.000407498
0.000196218
0.000179398
0.00019357
0.000237885
0.000352395
0.000479666
0.000542413
0.000540489
0.000488664
0.000409264
0.000324084
0.000249109
0.000179056
0.000108527
6.08126e-05
3.69447e-05
2.71358e-05
2.5688e-05
2.8379e-05
3.32563e-05
3.95945e-05
4.62089e-05
5.17896e-05
5.53042e-05
5.55525e-05
5.15026e-05
4.37947e-05
3.62191e-05
2.97429e-05
2.44535e-05
2.157e-05
3.64452e-05
3.70511e-05
5.28012e-05
0.000250121
0.000202662
0.00850179
0.0252756
0.00795038
0.00181865
0.000736001
0.000426307
0.000341559
0.000362086
0.000573743
0.000703494
0.000731025
0.000687319
0.00059623
0.000480299
0.000365658
0.0002732
0.000191501
0.000108535
5.2229e-05
3.11408e-05
2.75739e-05
3.07102e-05
3.6405e-05
4.38524e-05
5.2913e-05
6.29551e-05
7.23833e-05
8.04066e-05
8.546e-05
8.51347e-05
7.45712e-05
6.18932e-05
5.04542e-05
4.14946e-05
3.82183e-05
4.58808e-05
5.89578e-05
0.000103031
0.000275171
0.000248408
0.00942668
0.031136
0.0158306
0.00911112
0.00494796
0.0026951
0.00167662
0.00131053
0.00123231
0.00114617
0.00102871
0.00088513
0.000719209
0.000547023
0.000396235
0.000289456
0.000199421
0.000101727
4.0766e-05
3.04626e-05
3.21266e-05
3.75829e-05
4.51017e-05
5.44246e-05
6.55024e-05
7.81346e-05
9.19905e-05
0.000106915
0.000122608
0.00013832
0.000152092
0.000150917
0.000151066
0.00016104
0.000186334
0.000283364
0.000552818
0.00120579
0.00404114
0.00111616
0.00898134
0.0162334
0.0133471
0.0100438
0.00730392
0.00515984
0.00369746
0.0028014
0.00216576
0.00171055
0.00136584
0.00107978
0.000812904
0.000574058
0.000390275
0.000282587
0.000189216
7.31708e-05
3.59295e-05
3.23101e-05
3.59271e-05
4.21051e-05
5.00851e-05
5.9838e-05
7.14869e-05
8.52255e-05
0.000101409
0.000120701
0.000144193
0.000173573
0.000211293
0.000260645
0.00032881
0.000438195
0.000604198
0.000835661
0.00110582
0.00134239
0.00150583
0.000917216
0.0054833
0.0076419
0.00618653
0.00481026
0.00372659
0.00292106
0.0023049
0.00181231
0.00141579
0.00107884
0.000760621
0.00049832
0.000315393
0.000237209
0.000132658
5.12872e-05
3.332e-05
3.27379e-05
3.63726e-05
4.18281e-05
4.86674e-05
5.68743e-05
6.65777e-05
7.8031e-05
9.1682e-05
0.00010829
0.000129089
0.000156031
0.000192176
0.000242466
0.000312493
0.000410746
0.000541861
0.0006941
0.000826172
0.000879989
0.000814309
0.00051636
0.00390773
0.00687722
0.00560931
0.00431158
0.00332296
0.00255327
0.00193794
0.001459
0.00108439
0.000791478
0.00053109
0.000315535
0.000167114
6.74088e-05
3.72166e-05
2.72202e-05
2.60475e-05
2.81472e-05
3.19269e-05
3.69025e-05
4.30062e-05
5.03506e-05
5.9169e-05
6.98287e-05
8.28852e-05
9.91737e-05
0.000119944
0.000147059
0.000183164
0.000231571
0.000297168
0.000385314
0.000497523
0.000626051
0.000726233
0.000838017
0.000727148
0.000536791
0.00257729
0.00303922
0.00345795
0.00419144
0.0035708
0.00289067
0.00222307
0.00170234
0.00126246
0.000934262
0.00070433
0.000519733
0.000350914
8.35487e-05
3.65261e-05
3.11613e-05
3.04201e-05
3.09635e-05
3.4116e-05
3.87324e-05
4.45091e-05
5.13718e-05
5.93624e-05
6.85868e-05
7.92025e-05
9.14285e-05
0.000105574
0.000122101
0.00014174
0.000165734
0.00019578
0.000232545
0.000278093
0.000335389
0.000408178
0.000514218
0.000557808
0.000525512
0.000433852
0.000348342
)
;

boundaryField
{
    floor
    {
        Cmu             0.09;
        kappa           0.41;
        E               9.8;
        type            epsilonWallFunction;
        value           nonuniform List<scalar> 
29
(
0.000303707
2.42517e-05
4.38263e-05
3.91595e-05
3.43319e-05
3.0217e-05
2.67292e-05
2.37238e-05
2.12002e-05
1.90889e-05
1.73129e-05
1.58078e-05
1.45127e-05
1.33786e-05
1.23603e-05
1.14087e-05
1.04658e-05
9.4474e-06
8.74532e-06
7.02049e-06
7.02049e-06
1.44398e-05
2.25914e-05
3.12497e-05
0.000303707
2.42517e-05
8.2839e-05
0.000142934
0.000253821
)
;
    }
    ceiling
    {
        Cmu             0.09;
        kappa           0.41;
        E               9.8;
        type            epsilonWallFunction;
        value           nonuniform List<scalar> 
43
(
0.00257729
0.00303922
0.00345795
0.00419144
0.0035708
0.00289067
0.00222307
0.00170234
0.00126246
0.000934262
0.00070433
0.000519733
0.000350914
8.35487e-05
3.65261e-05
3.11613e-05
3.04201e-05
3.09635e-05
3.4116e-05
3.87324e-05
4.45091e-05
5.13718e-05
5.93624e-05
6.85868e-05
7.92025e-05
9.14285e-05
0.000105574
0.000122101
0.00014174
0.000165734
0.00019578
0.000232545
0.000278093
0.000335389
0.000408178
0.000514218
0.000557808
0.000525512
0.000433852
0.000348342
0.00898134
0.0162334
0.00390773
)
;
    }
    sWall
    {
        Cmu             0.09;
        kappa           0.41;
        E               9.8;
        type            epsilonWallFunction;
        value           uniform 0.00257729;
    }
    nWall
    {
        Cmu             0.09;
        kappa           0.41;
        E               9.8;
        type            epsilonWallFunction;
        value           nonuniform List<scalar> 6(0.00018237 0.000202662 0.000248408 0.00051636 0.000536791 0.000348342);
    }
    sideWalls
    {
        type            empty;
    }
    glass1
    {
        Cmu             0.09;
        kappa           0.41;
        E               9.8;
        type            epsilonWallFunction;
        value           nonuniform List<scalar> 9(0.000184452 0.000553507 0.00114334 0.00208356 0.00351161 0.00561027 0.00850179 0.00942668 0.00898134);
    }
    glass2
    {
        Cmu             0.09;
        kappa           0.41;
        E               9.8;
        type            epsilonWallFunction;
        value           nonuniform List<scalar> 2(0.00111616 0.000917216);
    }
    sun
    {
        Cmu             0.09;
        kappa           0.41;
        E               9.8;
        type            epsilonWallFunction;
        value           nonuniform List<scalar> 
14
(
0.000184452
0.000219219
0.000219743
0.000243379
0.000264639
0.000283642
0.000300977
0.000317396
0.00033391
0.000347926
0.000355439
0.000353685
0.000341781
0.000323251
)
;
    }
    heatsource1
    {
        Cmu             0.09;
        kappa           0.41;
        E               9.8;
        type            epsilonWallFunction;
        value           nonuniform List<scalar> 3(7.75713e-05 0.000133825 0.00018237);
    }
    heatsource2
    {
        Cmu             0.09;
        kappa           0.41;
        E               9.8;
        type            epsilonWallFunction;
        value           nonuniform List<scalar> 4(0.000308838 0.000183758 0.000183758 0.000354723);
    }
    Table_master
    {
        Cmu             0.09;
        kappa           0.41;
        E               9.8;
        type            epsilonWallFunction;
        value           nonuniform List<scalar> 9(3.98677e-05 3.15273e-05 2.55122e-05 2.1105e-05 1.78143e-05 1.53129e-05 1.33894e-05 1.19172e-05 1.08444e-05);
    }
    Table_slave
    {
        Cmu             0.09;
        kappa           0.41;
        E               9.8;
        type            epsilonWallFunction;
        value           nonuniform List<scalar> 9(5.57834e-05 5.14527e-05 4.96311e-05 4.84198e-05 4.64835e-05 4.32591e-05 3.98861e-05 3.59926e-05 3.11114e-05);
    }
    inlet
    {
        type            turbulentMixingLengthDissipationRateInlet;
        mixingLength    0.01;
        phi             phi;
        k               k;
        value           uniform 0.000101881;
    }
    outlet
    {
        type            zeroGradient;
    }
}


// ************************************************************************* //
