// -*- C++ -*-
// File generated by PyFoam - sorry for the ugliness

FoamFile
{
 version 2.0;
 format ascii;
 class volScalarField;
 location "400";
 object T;
}

dimensions [ 0 0 0 1 0 0 0 ];

internalField nonuniform List<scalar> 459
(
  302.273
  301.996
  301.978
  301.972
  301.967
  301.96
  301.952
  301.944
  301.94
  301.946
  301.975
  301.994
  302.01
  302.025
  302.051
  302.562
  302.509
  302.47
  302.467
  302.489
  302.51
  302.53
  302.55
  302.57
  302.59
  302.61
  302.631
  302.651
  302.673
  302.694
  302.717
  302.743
  302.777
  302.835
  302.445
  302.031
  301.998
  301.992
  301.987
  301.979
  301.959
  301.935
  301.921
  301.928
  301.957
  301.984
  302.004
  302.019
  302.037
  302.044
  302.056
  302.577
  302.459
  302.412
  302.42
  302.449
  302.48
  302.501
  302.52
  302.54
  302.56
  302.58
  302.6
  302.621
  302.643
  302.665
  302.691
  302.721
  302.761
  302.829
  302.631
  302.085
  302.036
  302.038
  302.04
  302.029
  301.989
  301.938
  301.907
  301.914
  301.95
  301.987
  302.015
  302.031
  302.042
  302.05
  302.058
  302.503
  302.389
  302.362
  302.391
  302.443
  302.493
  302.505
  302.522
  302.54
  302.56
  302.581
  302.604
  302.627
  302.651
  302.675
  302.701
  302.73
  302.767
  302.834
  302.822
  302.159
  302.091
  302.106
  302.125
  302.108
  302.029
  301.943
  301.893
  301.901
  301.946
  301.999
  302.04
  302.061
  302.07
  302.074
  302.074
  302.091
  302.131
  302.2
  302.29
  302.39
  302.484
  302.561
  302.622
  302.669
  302.708
  302.745
  302.78
  302.813
  302.844
  302.874
  302.901
  302.845
  302.806
  302.801
  302.848
  303.012
  302.254
  302.164
  302.191
  302.237
  302.191
  302.057
  301.938
  301.877
  301.887
  301.948
  302.025
  302.086
  302.119
  302.13
  302.133
  302.136
  302.164
  302.22
  302.307
  302.411
  302.52
  302.62
  302.704
  302.776
  302.831
  302.877
  302.915
  302.945
  302.967
  302.983
  302.992
  302.99
  302.944
  302.879
  302.842
  302.864
  303.098
  303.22
  303.202
  303.191
  302.381
  302.278
  302.307
  302.341
  302.229
  302.056
  301.912
  301.848
  301.873
  301.964
  302.075
  302.165
  302.217
  302.238
  302.247
  302.263
  302.312
  302.392
  302.493
  302.602
  302.708
  302.801
  302.878
  302.941
  302.99
  303.028
  303.057
  303.078
  303.091
  303.096
  303.09
  303.071
  303.024
  302.953
  302.895
  302.888
  303
  303.062
  303.126
  303.372
  302.574
  302.49
  302.524
  302.423
  302.207
  301.981
  301.832
  301.796
  301.865
  302.008
  302.169
  302.296
  302.372
  302.406
  302.424
  302.457
  302.526
  302.622
  302.724
  302.825
  302.918
  302.996
  303.057
  303.105
  303.141
  303.165
  303.183
  303.194
  303.198
  303.192
  303.176
  303.149
  303.1
  303.033
  302.969
  302.94
  302.979
  303.017
  303.07
  303.616
  303.035
  302.953
  302.746
  302.383
  302.018
  301.765
  301.675
  301.733
  301.894
  302.12
  302.342
  302.502
  302.592
  302.621
  302.648
  302.697
  302.777
  302.875
  302.969
  303.053
  303.123
  303.178
  303.219
  303.249
  303.268
  303.281
  303.288
  303.289
  303.283
  303.271
  303.252
  303.223
  303.178
  303.123
  303.069
  303.043
  303.069
  303.107
  303.257
  303.975
  303.692
  303.399
  302.47
  301.724
  301.354
  301.302
  301.477
  301.755
  302.059
  302.389
  302.65
  302.769
  302.821
  302.857
  302.899
  302.958
  303.035
  303.117
  303.191
  303.251
  303.297
  303.33
  303.352
  303.365
  303.372
  303.374
  303.371
  303.362
  303.349
  303.334
  303.317
  303.303
  303.294
  303.296
  303.313
  303.349
  303.392
  303.421
  303.5
  291.983
  294.707
  297.725
  299.653
  300.902
  301.809
  302.361
  302.648
  302.826
  302.937
  303.004
  303.05
  303.093
  303.141
  303.198
  303.26
  303.32
  303.369
  303.406
  303.431
  303.446
  303.453
  303.454
  303.451
  303.443
  303.433
  303.421
  303.408
  303.394
  303.382
  303.374
  303.37
  303.375
  303.39
  303.418
  303.455
  303.502
  303.636
  295.76
  299.138
  300.714
  301.693
  302.294
  302.662
  302.885
  303.025
  303.117
  303.18
  303.228
  303.269
  303.31
  303.353
  303.397
  303.439
  303.475
  303.503
  303.52
  303.53
  303.532
  303.529
  303.522
  303.514
  303.503
  303.491
  303.478
  303.465
  303.452
  303.441
  303.431
  303.424
  303.424
  303.43
  303.446
  303.491
  303.57
  303.611
  302.734
  301.082
  300.64
  302.2
  302.73
  302.957
  303.105
  303.213
  303.292
  303.352
  303.398
  303.435
  303.467
  303.495
  303.521
  303.544
  303.565
  303.583
  303.595
  303.602
  303.604
  303.603
  303.598
  303.591
  303.583
  303.573
  303.562
  303.551
  303.539
  303.527
  303.514
  303.502
  303.49
  303.48
  303.472
  303.47
  303.486
  303.524
  303.639
  303.769
)
;

boundaryField
{
  floor
  {
    type wallHeatTransfer;
    Tinf uniform 305.2;
    alphaWall uniform 0.24;
    value nonuniform List<scalar> 29
(
  302.391
  302.984
  302.894
  302.818
  302.793
  302.808
  302.832
  302.865
  302.9
  302.936
  302.971
  303.004
  303.037
  303.07
  303.102
  303.134
  303.167
  303.204
  303.248
  303.326
  303.326
  303.284
  303.267
  303.263
  302.391
  302.984
  303.004
  302.879
  302.363
)
;
  }
  ceiling
  {
    type wallHeatTransfer;
    Tinf uniform 303.2;
    alphaWall uniform 0.24;
    value nonuniform List<scalar> 43
(
  302.766
  301.217
  300.796
  302.259
  302.76
  302.974
  303.111
  303.212
  303.285
  303.339
  303.38
  303.413
  303.44
  303.465
  303.488
  303.508
  303.525
  303.539
  303.547
  303.551
  303.551
  303.547
  303.541
  303.534
  303.526
  303.518
  303.509
  303.5
  303.491
  303.481
  303.471
  303.462
  303.454
  303.446
  303.441
  303.441
  303.455
  303.486
  303.586
  303.709
  303.941
  303.673
  296.175
)
;
  }
  sWall
  {
    type wallHeatTransfer;
    Tinf uniform 315.2;
    alphaWall uniform 0.36;
    value uniform 303.948;
  }
  nWall
  {
    type wallHeatTransfer;
    Tinf uniform 307.2;
    alphaWall uniform 0.36;
    value nonuniform List<scalar> 6
(
  303.946
  303.861
  303.762
  304.185
  304.154
  304.283
)
;
  }
  sideWalls
  {
    type empty;
  }
  glass1
  {
    type wallHeatTransfer;
    Tinf uniform 315.2;
    alphaWall uniform 4.3;
    value nonuniform List<scalar> 9
(
  310.65
  310.015
  309.62
  309.322
  309.075
  308.857
  308.734
  308.846
  309.121
)
;
  }
  glass2
  {
    type wallHeatTransfer;
    Tinf uniform 307.2;
    alphaWall uniform 4.3;
    value nonuniform List<scalar> 2
(
  305.73
  305.876
)
;
  }
  sun
  {
    type wallHeatTransfer;
    Tinf uniform 305.2;
    alphaWall uniform 0.24;
    value nonuniform List<scalar> 14
(
  302.54
  302.266
  302.243
  302.226
  302.21
  302.194
  302.18
  302.168
  302.165
  302.175
  302.217
  302.252
  302.289
  302.332
)
;
  }
  heatsource1
  {
    type fixedGradient;
    gradient uniform 0;
  }
  heatsource2
  {
    type fixedGradient;
    gradient uniform 0;
  }
  Table_master
  {
    type zeroGradient;
  }
  Table_slave
  {
    type zeroGradient;
  }
  inlet
  {
    type fixedValue;
    value uniform 293.15;
  }
  outlet
  {
    type zeroGradient;
  }
} 	// ************************************************************************* //

