/*--------------------------------*- C++ -*----------------------------------*\
  =========                 |
  \\      /  F ield         | OpenFOAM: The Open Source CFD Toolbox
   \\    /   O peration     | Website:  https://openfoam.org
    \\  /    A nd           | Version:  6
     \\/     M anipulation  |
\*---------------------------------------------------------------------------*/
FoamFile
{
    version     2.0;
    format      ascii;
    class       surfaceScalarField;
    location    "600";
    object      phi;
}
// * * * * * * * * * * * * * * * * * * * * * * * * * * * * * * * * * * * * * //

dimensions      [1 0 -1 0 0 0 0];

internalField   nonuniform List<scalar> 
852
(
-0.0032947
0.00335222
-0.00466576
0.00137089
-0.00546244
0.000796515
-0.00577653
0.000313925
-0.00555605
-0.000220635
-0.00476501
-0.000791197
-0.0034852
-0.00127996
-0.00190461
-0.00158073
-0.000267324
-0.00163743
0.00104562
-0.0013131
0.00194799
-0.000902513
0.00241578
-0.00046795
0.00240678
8.84931e-06
0.00178435
0.000622259
0.00178639
-0.000990497
0.000992777
-0.00131334
0.000322616
-0.000867535
-0.000446051
-0.00011721
-0.000750563
0.000625283
-0.000742718
0.00121938
-0.000594324
0.00158188
-0.000362725
0.00176514
-0.000183493
0.00188255
-0.000117645
0.0019753
-9.29844e-05
0.00205151
-7.64523e-05
0.00211271
-6.14447e-05
0.00215202
-3.95656e-05
0.0021487
3.05835e-06
0.0020666
8.18287e-05
0.00185391
0.00021242
0.00147364
0.000380004
0.000936629
0.000536802
0.000939662
-0.0023496
0.00585848
-0.00357186
0.00259299
-0.00436575
0.00159023
-0.00469431
0.000642323
-0.00449671
-0.000418389
-0.00376477
-0.00152329
-0.0026406
-0.00240427
-0.00135082
-0.00287065
-0.000121314
-0.00286708
0.000926409
-0.00236097
0.00168876
-0.00166501
0.00215434
-0.000933677
0.00234606
-0.00018302
0.00237392
0.000594238
0.00282337
0.00133677
0.00143815
0.001385
0.00143791
-0.000430985
0.00143106
-9.12975e-05
-1.72937e-05
0.00053035
-0.00106794
0.000987015
-0.00120746
0.0013654
-0.00112132
0.00166663
-0.000895772
0.00174129
-0.000437599
0.00175609
-0.000198515
0.00177279
-0.000134568
0.00178743
-0.000107859
0.00179878
-8.8036e-05
0.00180849
-7.13884e-05
0.00181497
-4.62941e-05
0.00180786
9.90921e-06
0.00175081
0.000138623
0.00154734
0.000415634
0.00118819
0.000738906
0.000711298
0.0010135
0.00165927
-0.00163568
0.00773555
-0.00263433
0.00359146
-0.00332891
0.00228463
-0.00360492
0.000918163
-0.00336996
-0.000653512
-0.00262971
-0.00226369
-0.00161886
-0.00341526
-0.00056632
-0.00392333
0.000352612
-0.00378615
0.00112654
-0.00313503
0.00171519
-0.0022538
0.00210151
-0.00132014
0.00232333
-0.000404983
0.00244173
0.000475687
0.00246999
0.00130835
0.00187226
0.00198256
0.00330999
0.00113163
0.000311397
0.00178682
-0.00067273
0.00188078
-0.00116214
0.00198493
-0.00131183
0.00209539
-0.00123197
0.0023065
-0.00110707
0.00186885
0.00167029
0.00153566
0.00142773
0.00133962
0.00126815
0.00122177
0.00123159
0.00137013
0.0011913
0.000594242
0.000921748
0.00100825
0.000530587
0.0014045
0.00220283
-0.0011242
0.0091742
-0.00186878
0.00433585
-0.00231786
0.00273354
-0.00241501
0.00101513
-0.00201361
-0.00105507
-0.00122785
-0.00304961
-0.000365675
-0.00427757
0.000400891
-0.00469002
0.00101711
-0.00440251
0.00151691
-0.00363497
0.00188788
-0.00262492
0.0021304
-0.00156281
0.00228411
-0.000558839
0.00240665
0.000352994
0.0025649
0.00114994
0.00283492
0.00171237
0.00413913
0.00200561
0.00322684
0.000922988
0.00335028
0.000187729
0.00316666
-0.000489322
0.00291264
-0.000908314
0.00266146
-0.00106082
0.00243237
-0.00100304
0.00210198
-0.000776845
0.00240246
-0.00030079
0.00248834
-8.61954e-05
0.00248735
6.81356e-07
0.00243163
5.5415e-05
0.00233024
0.000101086
0.00218473
0.000145206
0.00198583
0.000198596
0.00170723
0.000278307
0.00128973
0.000417212
0.00109807
0.00078575
0.000817248
0.00128892
0.000424283
0.00179733
0.00264419
-0.000768152
0.0103195
-0.0012968
0.00486431
-0.00135898
0.00279554
-0.00103335
0.000689323
-0.000292732
-0.00179587
0.000466139
-0.00380862
0.00106802
-0.00487957
0.00148648
-0.0051086
0.00176802
-0.00468418
0.00194747
-0.00381456
0.00203999
-0.00271759
0.00207217
-0.00159514
0.00209419
-0.000581014
0.00216946
0.000277576
0.00237093
0.000948318
0.00272393
0.0013592
0.00325548
0.0014739
0.0032832
0.00089509
0.00327742
0.000193338
0.00309844
-0.000310503
0.00280746
-0.000617495
0.00248063
-0.000734147
0.00216603
-0.000688583
0.00190085
-0.000511805
0.00183206
-0.000232148
0.00176822
-2.2501e-05
0.00167721
9.15495e-05
0.00157984
0.000152633
0.00148381
0.000196978
0.00138599
0.00024288
0.00127863
0.000305811
0.00115226
0.000404544
0.00100461
0.000564732
0.000914392
0.000875835
0.000849257
0.00135391
0.000678441
0.00196803
0.000929691
0.00239289
-0.00067409
0.00160358
-0.00122172
0.000547379
-0.00117543
-0.000603875
0.0113541
-0.000867353
0.0051276
-0.000243252
0.00217124
0.000779206
-0.000333327
0.00175293
-0.00276976
0.00232974
-0.00438556
0.00259733
-0.00514727
0.00262243
-0.00513382
0.00248436
-0.00454624
0.00225959
-0.00358995
0.00200173
-0.00245989
0.00176095
-0.00135452
0.00159158
-0.000411804
0.00155147
0.00031753
0.00167651
0.000823113
0.00193934
0.00109621
0.00230686
0.00110623
0.00249503
0.000706761
0.00246028
0.000227925
0.00228426
-0.000134636
0.00201859
-0.000351969
0.00171516
-0.000430867
0.00141715
-0.000390712
0.0011637
-0.0002585
0.000998732
-6.73309e-05
0.000887805
8.82768e-05
0.000804749
0.000174456
0.000740912
0.000216322
0.000695616
0.000242127
0.000668568
0.000269785
0.000659066
0.000315174
0.000667538
0.000395934
0.000698062
0.000534075
0.000792319
0.000781446
0.000999993
0.00114611
0.00132936
0.00163854
0.00189062
0.00183156
0.00229474
0.00119942
0.00194258
0.000899494
0.000823609
-0.000413075
0.0122496
3.54997e-05
0.00467884
0.00183184
0.000374708
0.00330141
-0.00180308
0.00409739
-0.00356589
0.00434451
-0.00463279
0.00414039
-0.00494326
0.00362199
-0.00461553
0.00294338
-0.00386778
0.00223221
-0.00287895
0.00157312
-0.00180099
0.00104382
-0.000825398
0.000695381
-6.35382e-05
0.000581838
0.000430906
0.000679817
0.00072497
0.000912219
0.000863644
0.00119541
0.000822876
0.00134365
0.000558357
0.00132108
0.00025035
0.00117552
1.07648e-05
0.000952481
-0.000129088
0.000693465
-0.000172008
0.000436123
-0.000133528
0.000213673
-3.62106e-05
6.21884e-05
8.39917e-05
-2.1996e-05
0.0001723
-6.45348e-05
0.000216833
-7.9871e-05
0.000231498
-6.91582e-05
0.000231257
-2.81569e-05
0.00022863
4.8795e-05
0.000238073
0.000167077
0.000277508
0.000333573
0.000367438
0.000577077
0.000537805
0.000941534
0.000781513
0.00149791
0.00108203
0.00229544
0.0010339
0.00305167
0.000443082
0.00299908
0.000952008
0.00388344
0.00333194
0.00946026
0.00455755
0.00345305
0.00574733
-0.000815263
0.0067264
-0.0027823
0.00692307
-0.00376268
0.00640054
-0.00411034
0.00538523
-0.00392804
0.00409708
-0.00332751
0.00276543
-0.0025363
0.00154782
-0.00166153
0.000525761
-0.000779137
-0.00017504
-0.000124794
-0.000511224
0.000272462
-0.000556603
0.000476109
-0.00043584
0.000604037
-0.000228701
0.000656337
-1.54822e-05
0.000609493
8.94806e-05
0.000453232
6.55085e-05
0.000274161
-5.42206e-05
0.000130333
-0.000230732
4.72518e-05
-0.000431698
2.87806e-05
-0.000622952
5.75454e-05
-0.000771425
0.000112079
-0.000857637
0.00017002
-0.000895536
0.000210015
-0.00090363
0.000224744
-0.000889526
0.000217213
-0.000851867
0.000193419
-0.000784896
0.000161483
-0.000681603
0.000134609
-0.000536031
0.000131771
-0.000342371
0.000173622
-8.00752e-05
0.000275355
0.000267187
0.000434079
0.000713939
0.000635087
0.00108051
0.000667072
0.000960435
0.000562822
-6.44754e-05
0.00197676
0.00407813
0.0100635
0.0135132
0.0125315
0.000166266
0.0111615
-0.00141238
0.00944423
-0.00204548
0.00743123
-0.00209741
0.00528656
-0.00178348
0.00316032
-0.00120143
0.00128028
-0.000656467
-0.000219738
-0.000161754
-0.00118233
0.00018324
-0.00161644
0.000309116
-0.00172612
0.000381951
-0.00168409
0.000433893
-0.00155508
0.000474844
-0.00138841
0.000489494
-0.00123855
0.000459456
-0.00116604
0.000380547
-0.00117999
0.000287926
-0.00126037
0.000210528
-0.00137657
0.000163267
-0.00149696
0.000148968
-0.00159912
0.000159498
-0.00167077
0.00018352
-0.00171076
0.000209801
-0.0017301
0.000229141
-0.0017438
0.000238232
-0.00176585
0.000239045
-0.00181005
0.000237406
-0.00189222
0.000243447
-0.00203054
0.000272724
-0.00224489
0.000345938
-0.00255797
0.000486536
-0.00300013
0.000717343
-0.003623
0.00105675
-0.00448535
0.00149721
-0.00575733
0.00193879
-0.00742762
0.00223283
-0.00727347
0.00182232
-0.00293504
0.00412493
0.00096849
0.00335682
-0.000644297
0.00259117
-0.0012799
0.00140908
-0.000915463
-1.84334e-06
-0.00037277
-0.00130099
9.75038e-05
-0.00221902
0.000261354
-0.00271712
0.000336116
-0.00289131
0.000357222
-0.00292289
0.000340477
-0.00286938
0.00032824
-0.00276605
0.000330365
-0.00263384
0.000342435
-0.00249552
0.000350977
-0.00237903
0.000342771
-0.00231191
0.000313224
-0.0022978
0.000273616
-0.00232385
0.000236361
-0.00237049
0.000209688
-0.00241852
0.000196773
-0.00245524
0.000195985
-0.00247535
0.000203388
-0.00248006
0.000214274
-0.00247564
0.000224471
-0.00246984
0.000232174
-0.00246957
0.000238516
-0.00248028
0.000247846
-0.00250555
0.000268446
-0.00254641
0.000313327
-0.00260106
0.000400348
-0.00266542
0.000550671
-0.00273122
0.000782927
-0.00277463
0.00109994
-0.00275417
0.00147652
-0.00264799
0.00183236
-0.00201242
0.00159701
-0.000452595
0.000262267
-0.00332412
-0.000195117
0.00123592
-0.00121494
0.000375706
-0.00251941
2.45026e-05
-0.00350277
6.77238e-05
-0.00408424
0.000208491
-0.00429012
0.00030315
-0.00433717
0.000308175
-0.00428451
0.000283224
-0.00417476
0.00024725
-0.00404787
0.000213364
-0.00391339
0.00019354
-0.00377213
0.000188884
-0.00362504
0.000195134
-0.00347884
0.000204553
-0.00334586
0.00020957
-0.00323917
0.000206315
-0.00316278
0.000196993
-0.00311219
0.000185526
-0.00307819
0.00017544
-0.0030507
0.000169028
-0.00302193
0.000166957
-0.00298747
0.000168656
-0.00294607
0.000172604
-0.0028988
0.000176907
-0.00284729
0.000180366
-0.00279234
0.000183267
-0.00273267
0.000187857
-0.00266322
0.000198681
-0.00257294
0.000222729
-0.00244252
0.000269626
-0.00224463
0.000352494
-0.00194835
0.000486373
-0.00150994
0.00066125
-0.000827187
0.000793505
0.000317892
0.000687013
0.00189174
2.28934e-05
0.00334465
-0.00119094
8.9748e-05
0.00240321
-0.00844656
-0.00719313
-0.00681257
-0.00678912
-0.00672553
-0.00652335
-0.00622835
-0.00592993
-0.00565778
-0.00542268
-0.00522235
-0.0050426
-0.00486821
-0.00468828
-0.0044997
-0.00430696
-0.0041184
-0.00394012
-0.00377424
-0.00361931
-0.00347156
-0.00332652
-0.00318032
-0.00303061
-0.00287696
-0.00272011
-0.00256054
-0.00239644
-0.00222145
-0.0020222
-0.00177566
-0.00144572
-0.000981234
-0.000341172
0.00043169
0.00109749
0.00109614
-0.000121918
)
;

boundaryField
{
    floor
    {
        type            calculated;
        value           nonuniform List<scalar> 
29
(
0
0
0
0
0
0
0
0
0
0
0
0
0
0
0
0
0
0
0
0
-3.11267e-06
-8.37764e-06
-1.30324e-05
-1.71391e-05
-2.20413e-06
-2.50022e-06
-7.50916e-06
-1.21898e-05
-1.08778e-05
)
;
    }
    ceiling
    {
        type            calculated;
        value           nonuniform List<scalar> 
43
(
5.47016e-06
-1.29615e-05
-1.78101e-05
-4.94268e-06
8.66847e-07
3.90211e-06
6.06696e-06
7.91276e-06
9.50792e-06
1.08351e-05
1.19103e-05
1.27925e-05
1.35496e-05
1.42519e-05
1.49628e-05
1.57305e-05
1.6579e-05
1.74995e-05
1.84515e-05
1.93811e-05
2.02393e-05
2.09936e-05
2.16331e-05
2.21633e-05
2.25966e-05
2.29427e-05
2.32017e-05
2.33648e-05
2.34171e-05
2.33408e-05
2.3118e-05
2.2736e-05
2.21967e-05
2.15334e-05
2.08431e-05
2.02996e-05
2.0865e-05
2.38602e-05
2.67518e-05
2.72452e-05
5.19009e-06
3.15168e-06
-7.14017e-05
)
;
    }
    sWall
    {
        type            calculated;
        value           uniform -0.000193939;
    }
    nWall
    {
        type            calculated;
        value           nonuniform List<scalar> 6(-4.65563e-05 -5.64968e-05 -6.08273e-05 -6.38458e-05 -6.95289e-05 -5.97615e-05);
    }
    sideWalls
    {
        type            empty;
        value           nonuniform 0();
    }
    glass1
    {
        type            calculated;
        value           nonuniform List<scalar> 9(-5.76978e-05 -0.000156826 -0.000241555 -0.000314618 -0.000377292 -0.000430916 -0.000482576 -0.000542773 -0.000608579);
    }
    glass2
    {
        type            calculated;
        value           nonuniform List<scalar> 2(-0.000259216 -0.000260695);
    }
    sun
    {
        type            calculated;
        value           uniform 0;
    }
    heatsource1
    {
        type            calculated;
        value           nonuniform List<scalar> 3(2.03701e-07 2.03721e-07 2.03745e-07);
    }
    heatsource2
    {
        type            calculated;
        value           nonuniform List<scalar> 4(5.11663e-08 5.13492e-08 0 0);
    }
    Table_master
    {
        type            calculated;
        value           nonuniform List<scalar> 9(-1.53048e-07 -1.53234e-07 -1.53277e-07 -1.5329e-07 -1.53288e-07 -1.53272e-07 -1.53246e-07 -1.53206e-07 -1.53111e-07);
    }
    Table_slave
    {
        type            calculated;
        value           nonuniform List<scalar> 9(1.52826e-07 1.52845e-07 1.52819e-07 1.52793e-07 1.52787e-07 1.52798e-07 1.52827e-07 1.52875e-07 1.52953e-07);
    }
    inlet
    {
        type            calculated;
        value           uniform -0.00492708;
    }
    outlet
    {
        type            calculated;
        value           nonuniform List<scalar> 2(-0.00221502 0.0108624);
    }
}


// ************************************************************************* //
