// -*- C++ -*-
// File generated by PyFoam - sorry for the ugliness

FoamFile
{
 version 2.0;
 format ascii;
 class volVectorField;
 location "1100";
 object U;
}

dimensions [ 0 1 -1 0 0 0 0 ];

internalField nonuniform List<vector> 459
(
  (0.0248223 0.253392 0)
  (0.186497 -0.224017 0)
  (0.293144 -0.148456 0)
  (0.395323 -0.0885315 0)
  (0.445712 -0.0524251 0)
  (0.449906 -0.0293703 0)
  (0.426231 -0.0111928 0)
  (0.385637 0.00440731 0)
  (0.331775 0.018303 0)
  (0.266166 0.0317838 0)
  (0.189513 0.0474855 0)
  (0.10127 0.0684505 0)
  (-0.0301938 0.0316236 0)
  (-0.0285313 -0.00794654 0)
  (-0.0507249 -0.0152152 0)
  (0.021546 0.00657331 0)
  (-0.0175395 -0.00723682 0)
  (-0.00546584 -0.0117585 0)
  (0.0106586 -0.0125614 0)
  (0.0208362 -0.0113656 0)
  (0.0288467 -0.00686457 0)
  (0.0311447 -0.00238231 0)
  (0.0265038 0.000245943 0)
  (0.0199097 0.00209395 0)
  (0.0136511 0.00321247 0)
  (0.0082456 0.00336871 0)
  (0.00393747 0.0026581 0)
  (0.000965955 0.00144759 0)
  (-0.000455172 4.9417e-06 0)
  (-5.59276e-05 -0.00146663 0)
  (0.00325262 -0.00393877 0)
  (0.00931413 -0.00844526 0)
  (0.0299644 -0.00912504 0)
  (-0.0250626 0.0107438 0)
  (0.548923 -0.217812 0)
  (0.30547 -0.257094 0)
  (0.351071 -0.160253 0)
  (0.408152 -0.0696368 0)
  (0.427592 -0.0113087 0)
  (0.415689 0.0277529 0)
  (0.383724 0.0568162 0)
  (0.337595 0.079026 0)
  (0.279963 0.0957119 0)
  (0.213759 0.108857 0)
  (0.143327 0.120907 0)
  (0.0763651 0.130183 0)
  (-6.5859e-05 0.0839937 0)
  (0.00602282 0.00153978 0)
  (0.00161409 -0.0202162 0)
  (0.00788951 -0.0119733 0)
  (0.0122164 0.000325079 0)
  (0.0906485 0.0115917 0)
  (0.00799371 0.00133649 0)
  (-0.00352715 -0.00798664 0)
  (-0.00191699 -0.0129259 0)
  (0.000280944 -0.0143726 0)
  (0.00558109 -0.00721108 0)
  (0.014642 0.00444548 0)
  (0.010679 0.00636984 0)
  (0.00853317 0.00714076 0)
  (0.00835802 0.00694335 0)
  (0.00897994 0.0061461 0)
  (0.00973276 0.00509792 0)
  (0.0103177 0.00389498 0)
  (0.0107654 0.00234618 0)
  (0.0104157 2.43052e-05 0)
  (0.0109102 -0.00447213 0)
  (0.0131414 -0.0121602 0)
  (0.0322486 -0.00988453 0)
  (-0.0744659 0.0273481 0)
  (0.613017 -0.445223 0)
  (0.143249 -0.34296 0)
  (0.240817 -0.188535 0)
  (0.289094 -0.0859537 0)
  (0.292472 -0.0205162 0)
  (0.280439 0.0322928 0)
  (0.258441 0.0784383 0)
  (0.225011 0.116293 0)
  (0.181027 0.145213 0)
  (0.129851 0.166282 0)
  (0.0769249 0.180636 0)
  (0.0325169 0.181136 0)
  (-0.00713339 0.104985 0)
  (0.0114972 0.0102674 0)
  (0.0053464 -0.0179206 0)
  (0.00382867 -0.0136642 0)
  (0.00752358 -0.00011711 0)
  (0.0668876 0.00788639 0)
  (-0.0270994 0.00453154 0)
  (-0.0254311 -0.00211046 0)
  (-0.0292267 -0.0113167 0)
  (-0.0323831 -0.0178242 0)
  (-0.0329421 -0.018849 0)
  (0.005506 0.00265722 0)
  (-0.00346476 0.00113774 0)
  (0.000295605 0.00105259 0)
  (0.00560057 0.00017117 0)
  (0.010395 -0.000937251 0)
  (0.0142914 -0.00212761 0)
  (0.0169399 -0.00343815 0)
  (0.0181561 -0.00494427 0)
  (0.0153576 -0.00432172 0)
  (0.0186831 0.00260112 0)
  (0.0143379 0.00407798 0)
  (-0.00479401 0.00628361 0)
  (-0.141442 0.0242927 0)
  (0.642136 -0.58567 0)
  (-0.0550303 -0.366022 0)
  (0.138336 -0.178444 0)
  (0.164826 -0.0811728 0)
  (0.150804 -0.0133157 0)
  (0.14041 0.0488376 0)
  (0.126419 0.104582 0)
  (0.103272 0.150673 0)
  (0.0727184 0.186331 0)
  (0.038103 0.211366 0)
  (0.00450909 0.223338 0)
  (-0.0152331 0.204339 0)
  (-0.0223963 0.100814 0)
  (-0.00778472 0.0089532 0)
  (-0.0205296 -0.00258603 0)
  (-0.0328662 0.00984417 0)
  (-0.0372847 0.0283345 0)
  (-0.0535827 0.0627892 0)
  (-0.0438235 0.0162128 0)
  (-0.0591117 0.0115577 0)
  (-0.0606694 0.00208933 0)
  (-0.0664869 -0.00800138 0)
  (-0.0747578 -0.0156923 0)
  (-0.0823714 -0.018972 0)
  (-0.0799051 -0.0136714 0)
  (-0.0662415 -0.0142884 0)
  (-0.050188 -0.0173837 0)
  (-0.0308508 -0.0212968 0)
  (-0.00563583 -0.0249886 0)
  (0.0236431 -0.0256167 0)
  (0.05017 -0.0234974 0)
  (0.0749512 -0.0189796 0)
  (0.0935537 -0.0118739 0)
  (0.0988049 0.000473953 0)
  (0.0855734 0.0175295 0)
  (0.0750539 0.027856 0)
  (-0.0609065 0.0324994 0)
  (0.643774 -0.653684 0)
  (-0.196092 -0.378282 0)
  (0.0910657 -0.179119 0)
  (0.0627731 -0.0789676 0)
  (0.0221449 -0.00990166 0)
  (0.0123047 0.0639579 0)
  (0.00462859 0.126445 0)
  (-0.0104197 0.17683 0)
  (-0.0276449 0.214713 0)
  (-0.0444794 0.237976 0)
  (-0.0552323 0.239353 0)
  (-0.0519181 0.199254 0)
  (-0.0389713 0.085768 0)
  (-0.0362078 0.0191903 0)
  (-0.0494975 0.00728829 0)
  (-0.0572893 0.00783088 0)
  (-0.0596663 0.0130252 0)
  (-0.0631018 0.0173119 0)
  (-0.0632055 0.0155526 0)
  (-0.065856 0.014435 0)
  (-0.0665213 0.00698845 0)
  (-0.0692319 -0.00179389 0)
  (-0.0725353 -0.0096227 0)
  (-0.0746838 -0.0143077 0)
  (-0.0720362 -0.0152849 0)
  (-0.0640165 -0.0193593 0)
  (-0.052349 -0.025402 0)
  (-0.0374702 -0.0325138 0)
  (-0.0197062 -0.0390966 0)
  (0.0025958 -0.0426999 0)
  (0.025788 -0.0411646 0)
  (0.0484204 -0.0338653 0)
  (0.0683898 -0.0181615 0)
  (0.0835177 0.00615211 0)
  (0.0843987 0.0309381 0)
  (0.0858949 0.0502316 0)
  (0.0404652 0.0588845 0)
  (0.070626 0.0520321 0)
  (-0.0179859 -0.00912783 0)
  (-0.280575 -0.038871 0)
  (0.597734 -0.667041 0)
  (-0.243471 -0.385078 0)
  (0.0474566 -0.164969 0)
  (-0.0427806 -0.03576 0)
  (-0.0906644 0.024328 0)
  (-0.0949264 0.0789247 0)
  (-0.0987292 0.135754 0)
  (-0.10244 0.185895 0)
  (-0.104876 0.223295 0)
  (-0.103886 0.241956 0)
  (-0.094668 0.232067 0)
  (-0.0739005 0.177481 0)
  (-0.0511653 0.0735784 0)
  (-0.0477292 0.0278966 0)
  (-0.0535356 0.0166132 0)
  (-0.0576684 0.0144465 0)
  (-0.0587958 0.0158144 0)
  (-0.0580945 0.016777 0)
  (-0.0569821 0.0163887 0)
  (-0.0568635 0.0141096 0)
  (-0.0569253 0.00768276 0)
  (-0.0585928 -0.000513792 0)
  (-0.0608183 -0.00848288 0)
  (-0.0625401 -0.0149513 0)
  (-0.0619031 -0.0205086 0)
  (-0.0582655 -0.0276483 0)
  (-0.0518886 -0.0364925 0)
  (-0.0429808 -0.0462029 0)
  (-0.0318664 -0.0552567 0)
  (-0.0186884 -0.0614988 0)
  (-0.0031552 -0.0631207 0)
  (0.014699 -0.0571481 0)
  (0.0329471 -0.0402353 0)
  (0.0547276 -0.00804004 0)
  (0.0703206 0.027633 0)
  (0.0811277 0.0541755 0)
  (0.0765833 0.0639602 0)
  (0.0955158 0.0618541 0)
  (0.109757 0.0495802 0)
  (-0.0963771 0.0232701 0)
  (0.483517 -0.617978 0)
  (-0.222281 -0.359566 0)
  (-0.0468963 -0.131102 0)
  (-0.124602 0.0111464 0)
  (-0.171506 0.0395867 0)
  (-0.17591 0.0828689 0)
  (-0.172819 0.134436 0)
  (-0.165259 0.18173 0)
  (-0.153913 0.215608 0)
  (-0.137438 0.22779 0)
  (-0.113 0.208073 0)
  (-0.0809743 0.146663 0)
  (-0.0543392 0.0612504 0)
  (-0.0476575 0.0291712 0)
  (-0.0465574 0.0190668 0)
  (-0.0457001 0.015893 0)
  (-0.0440509 0.0158361 0)
  (-0.0414666 0.0161726 0)
  (-0.0387039 0.0154569 0)
  (-0.0366751 0.0132215 0)
  (-0.035742 0.00834709 0)
  (-0.0368167 0.00162516 0)
  (-0.0397087 -0.00578009 0)
  (-0.0428255 -0.0129787 0)
  (-0.0454356 -0.0206692 0)
  (-0.0468782 -0.0299859 0)
  (-0.0469639 -0.0410032 0)
  (-0.0456586 -0.0527744 0)
  (-0.0431302 -0.0636898 0)
  (-0.0394302 -0.0717717 0)
  (-0.0344386 -0.0757078 0)
  (-0.0275631 -0.0737234 0)
  (-0.0182144 -0.0629163 0)
  (-0.00034439 -0.0346494 0)
  (0.0350493 0.0108361 0)
  (0.055574 0.0411365 0)
  (0.0706827 0.0499413 0)
  (0.0964746 0.04448 0)
  (0.139945 0.0478083 0)
  (-0.043374 0.0994895 0)
  (0.301531 -0.486071 0)
  (-0.296577 -0.282154 0)
  (-0.222065 -0.107734 0)
  (-0.18966 0.0618131 0)
  (-0.244338 0.0455888 0)
  (-0.231294 0.0778054 0)
  (-0.216 0.123186 0)
  (-0.197081 0.1657 0)
  (-0.173933 0.194513 0)
  (-0.145712 0.200225 0)
  (-0.111527 0.173593 0)
  (-0.0741062 0.111992 0)
  (-0.0470683 0.0469506 0)
  (-0.0378671 0.0239601 0)
  (-0.032123 0.0159052 0)
  (-0.0274388 0.0130645 0)
  (-0.0231539 0.0125808 0)
  (-0.018854 0.0127349 0)
  (-0.0146531 0.0124221 0)
  (-0.0110311 0.0111159 0)
  (-0.00858706 0.00821736 0)
  (-0.00816343 0.00385076 0)
  (-0.0107405 -0.0017957 0)
  (-0.0148476 -0.00818705 0)
  (-0.0202446 -0.0157267 0)
  (-0.0265267 -0.025228 0)
  (-0.0334621 -0.036688 0)
  (-0.0407853 -0.0489179 0)
  (-0.0486949 -0.0602079 0)
  (-0.057178 -0.0685609 0)
  (-0.0662735 -0.0734533 0)
  (-0.0751657 -0.0741268 0)
  (-0.081831 -0.0691627 0)
  (-0.0811846 -0.0566715 0)
  (-0.0651155 -0.0360839 0)
  (-0.0195599 -0.00852484 0)
  (-0.00304989 0.00415361 0)
  (0.0202166 0.000898459 0)
  (0.104603 0.0629541 0)
  (-0.465328 0.219102 0)
  (0.0288803 -0.324714 0)
  (-0.60224 -0.243082 0)
  (-0.771937 -0.199323 0)
  (-0.219671 -0.00511021 0)
  (-0.312019 0.0141298 0)
  (-0.257425 0.0554769 0)
  (-0.227448 0.100288 0)
  (-0.198534 0.138992 0)
  (-0.166432 0.163055 0)
  (-0.130557 0.163976 0)
  (-0.0915064 0.134357 0)
  (-0.0531693 0.0784245 0)
  (-0.028417 0.0321156 0)
  (-0.0185769 0.0157861 0)
  (-0.0109637 0.0102773 0)
  (-0.00458543 0.00865177 0)
  (0.00106845 0.00860093 0)
  (0.00618668 0.00893868 0)
  (0.0109539 0.00899256 0)
  (0.0151528 0.00844506 0)
  (0.0183661 0.00711566 0)
  (0.0200995 0.00508213 0)
  (0.019786 0.00222272 0)
  (0.0169811 -0.00160163 0)
  (0.0119718 -0.00657467 0)
  (0.00417369 -0.0136218 0)
  (-0.00743054 -0.0236291 0)
  (-0.0216972 -0.034399 0)
  (-0.0393768 -0.044007 0)
  (-0.0604038 -0.0496154 0)
  (-0.0860694 -0.0509523 0)
  (-0.117371 -0.0474612 0)
  (-0.154099 -0.0376973 0)
  (-0.19411 -0.0202558 0)
  (-0.232689 0.00367042 0)
  (-0.26684 0.0283233 0)
  (-0.298939 0.0449808 0)
  (-0.337924 0.0504189 0)
  (-0.385481 0.0454208 0)
  (-0.609242 0.0325279 0)
  (-1.79214 -0.218444 0)
  (-0.0424291 -0.144826 0)
  (-0.28192 -0.0442081 0)
  (-0.23678 0.0245747 0)
  (-0.205218 0.0706748 0)
  (-0.172451 0.10521 0)
  (-0.135101 0.124878 0)
  (-0.0947275 0.123516 0)
  (-0.0529155 0.0953935 0)
  (-0.0147223 0.0486782 0)
  (0.00589495 0.016206 0)
  (0.0128561 0.00642642 0)
  (0.0186488 0.00388598 0)
  (0.0236697 0.00401922 0)
  (0.0281459 0.00516452 0)
  (0.0324333 0.00631441 0)
  (0.0365117 0.00716677 0)
  (0.0402222 0.00757849 0)
  (0.0433027 0.0075063 0)
  (0.0454778 0.00702626 0)
  (0.0465025 0.0061042 0)
  (0.0459167 0.00441213 0)
  (0.0434943 0.00152574 0)
  (0.0386199 -0.00278371 0)
  (0.0301828 -0.00904262 0)
  (0.0173867 -0.0170137 0)
  (-0.00164511 -0.0256317 0)
  (-0.0222781 -0.0293635 0)
  (-0.0425312 -0.0282068 0)
  (-0.0617143 -0.0230053 0)
  (-0.0785102 -0.0143758 0)
  (-0.0921326 -0.00187778 0)
  (-0.10396 0.0154941 0)
  (-0.11679 0.0365597 0)
  (-0.120015 0.0517135 0)
  (-0.0973284 0.0441693 0)
  (0.0475416 -0.0308155 0)
  (-0.278751 -0.219095 0)
  (-0.521684 0.071523 0)
  (0.0743235 -0.150318 0)
  (-0.18976 -0.0748014 0)
  (-0.182491 -0.0259628 0)
  (-0.164214 0.0199327 0)
  (-0.131211 0.0523851 0)
  (-0.0894923 0.070903 0)
  (-0.0443004 0.0696737 0)
  (0.00763398 0.037034 0)
  (0.041339 -0.00170441 0)
  (0.0547864 -0.027262 0)
  (0.0576001 -0.039494 0)
  (0.0582434 -0.0433021 0)
  (0.0588745 -0.0436207 0)
  (0.0599908 -0.0427268 0)
  (0.0614922 -0.0415586 0)
  (0.06331 -0.0406208 0)
  (0.0652694 -0.0399967 0)
  (0.0671353 -0.0397826 0)
  (0.0686648 -0.0400739 0)
  (0.0696629 -0.04082 0)
  (0.069847 -0.0418986 0)
  (0.068706 -0.042963 0)
  (0.0657885 -0.0438147 0)
  (0.0604907 -0.0443926 0)
  (0.0523328 -0.0445018 0)
  (0.0407096 -0.0441653 0)
  (0.0261907 -0.042927 0)
  (0.0107046 -0.0403111 0)
  (-0.00296557 -0.0359148 0)
  (-0.0105623 -0.029556 0)
  (-0.0112323 -0.0182207 0)
  (-0.00829731 0.000397181 0)
  (-0.000483643 0.0188868 0)
  (0.0139353 0.0245992 0)
  (0.0450435 0.00148725 0)
  (0.134204 -0.0422363 0)
  (-0.205694 -0.111423 0)
  (0.733675 0.159142 0)
  (0.0319069 -0.291998 0)
  (-0.323587 0.157529 0)
  (0.0675986 0.0330974 0)
  (-0.132476 0.0981966 0)
  (-0.127355 0.113421 0)
  (-0.111387 0.113101 0)
  (-0.0759818 0.119968 0)
  (-0.0284499 0.12751 0)
  (0.0319592 0.126315 0)
  (0.0750524 0.121833 0)
  (0.100329 0.12348 0)
  (0.108694 0.129533 0)
  (0.107758 0.134626 0)
  (0.10431 0.135917 0)
  (0.101386 0.135463 0)
  (0.0991735 0.134477 0)
  (0.0975065 0.13349 0)
  (0.0963409 0.132739 0)
  (0.0955635 0.132155 0)
  (0.0950463 0.131891 0)
  (0.0946626 0.132182 0)
  (0.0943079 0.133014 0)
  (0.0938994 0.134172 0)
  (0.0933725 0.135216 0)
  (0.092652 0.135647 0)
  (0.0916011 0.135229 0)
  (0.0900424 0.133776 0)
  (0.0876784 0.131105 0)
  (0.0842982 0.127647 0)
  (0.0799431 0.123033 0)
  (0.0752425 0.115691 0)
  (0.0719937 0.105533 0)
  (0.0727232 0.0932313 0)
  (0.0786983 0.0795252 0)
  (0.0930231 0.0713703 0)
  (0.111057 0.0654194 0)
  (0.125922 0.0581053 0)
  (0.161032 0.0380362 0)
  (-0.215383 -0.00527143 0)
)
;

boundaryField
{
  floor
  {
    type noSlip;
  }
  ceiling
  {
    type noSlip;
  }
  sWall
  {
    type noSlip;
  }
  nWall
  {
    type noSlip;
  }
  sideWalls
  {
    type empty;
  }
  glass1
  {
    type noSlip;
  }
  glass2
  {
    type noSlip;
  }
  sun
  {
    type noSlip;
  }
  heatsource1
  {
    type noSlip;
  }
  heatsource2
  {
    type noSlip;
  }
  Table_master
  {
    type noSlip;
  }
  Table_slave
  {
    type noSlip;
  }
  inlet
  {
    type fixedValue;
    value uniform (0.1 0 0);
  }
  outlet
  {
    type zeroGradient;
  }
} 	// ************************************************************************* //

