// -*- C++ -*-
// File generated by PyFoam - sorry for the ugliness

FoamFile
{
 version 2.0;
 format ascii;
 class volVectorField;
 location "360";
 object U;
}

dimensions [ 0 1 -1 0 0 0 0 ];

internalField nonuniform List<vector> 459
(
  (-0.000619996 0.0590091 0)
  (-0.118547 0.0206027 0)
  (-0.143874 0.00963481 0)
  (-0.162765 0.000934624 0)
  (-0.168094 -0.00822405 0)
  (-0.15734 -0.0182232 0)
  (-0.131146 -0.0291561 0)
  (-0.092376 -0.0389022 0)
  (-0.0478255 -0.0443533 0)
  (0.0043013 -0.0391384 0)
  (0.0403756 -0.026991 0)
  (0.0629399 -0.0159208 0)
  (0.0732459 -0.00482447 0)
  (0.0659 0.00996649 0)
  (0.0667384 0.038514 0)
  (-0.0728507 0.00730269 0)
  (0.00404052 0.000779645 0)
  (0.00352633 -0.0148067 0)
  (0.02296 -0.0190168 0)
  (0.0414495 -0.0164511 0)
  (0.0578193 -0.0121321 0)
  (0.0689208 -0.00709075 0)
  (0.0747693 -0.00425512 0)
  (0.0770905 -0.00316355 0)
  (0.0779648 -0.00271714 0)
  (0.0784027 -0.00241134 0)
  (0.0785222 -0.00210987 0)
  (0.0781291 -0.00167937 0)
  (0.0768332 -0.000871583 0)
  (0.073736 0.000865569 0)
  (0.0670081 0.00445248 0)
  (0.0545843 0.00973687 0)
  (0.0225257 0.0188156 0)
  (0.0616041 0.010572 0)
  (0.0979312 0.121806 0)
  (-0.10501 0.057526 0)
  (-0.116515 0.0384483 0)
  (-0.136054 0.020745 0)
  (-0.142325 0.000344313 0)
  (-0.133297 -0.0230856 0)
  (-0.110238 -0.046626 0)
  (-0.0765794 -0.0649611 0)
  (-0.0390044 -0.0723844 0)
  (-0.000692513 -0.0636649 0)
  (0.029918 -0.0444006 0)
  (0.0509175 -0.0243023 0)
  (0.063736 -0.00343994 0)
  (0.0693236 0.0183118 0)
  (0.0757809 0.0447928 0)
  (0.071991 0.0442115 0)
  (0.0470098 0.0437775 0)
  (-0.0995815 0.00813805 0)
  (0.024578 -0.016286 0)
  (0.0296959 -0.0281232 0)
  (0.0426144 -0.0306342 0)
  (0.0558614 -0.0263883 0)
  (0.0668105 -0.0190649 0)
  (0.072512 -0.00808625 0)
  (0.0738481 -0.00160348 0)
  (0.0737366 0.00086981 0)
  (0.0738245 0.00180138 0)
  (0.0741279 0.00234695 0)
  (0.0743748 0.00286126 0)
  (0.0744212 0.00357983 0)
  (0.0742139 0.00504601 0)
  (0.0731256 0.00846685 0)
  (0.0682541 0.0172353 0)
  (0.0574451 0.0266835 0)
  (0.0222445 0.038639 0)
  (0.104551 0.0297976 0)
  (0.190043 0.182164 0)
  (-0.106636 0.0883654 0)
  (-0.0897467 0.0603267 0)
  (-0.108807 0.0311076 0)
  (-0.115302 -0.00226136 0)
  (-0.1063 -0.0392151 0)
  (-0.084568 -0.074816 0)
  (-0.054998 -0.0997923 0)
  (-0.0243133 -0.106605 0)
  (0.00513548 -0.0927367 0)
  (0.0287132 -0.0677366 0)
  (0.0465299 -0.0405039 0)
  (0.0584464 -0.0133931 0)
  (0.0653475 0.0130046 0)
  (0.0694282 0.0379818 0)
  (0.0648937 0.0500585 0)
  (0.0519507 0.0761338 0)
  (-0.0639339 -0.017859 0)
  (0.043386 -0.0391392 0)
  (0.0551307 -0.0457006 0)
  (0.0619098 -0.0433421 0)
  (0.0687344 -0.036674 0)
  (0.0748626 -0.0296604 0)
  (0.0766451 -0.0218176 0)
  (0.0699747 -0.0140449 0)
  (0.0646831 -0.00996688 0)
  (0.0626551 -0.00773589 0)
  (0.06213 -0.00631348 0)
  (0.0620327 -0.00528329 0)
  (0.0624485 -0.0042478 0)
  (0.0641467 -0.00264428 0)
  (0.0690056 0.00205541 0)
  (0.06907 0.0228974 0)
  (0.0605134 0.0390847 0)
  (0.0214294 0.0571685 0)
  (0.132298 0.0594005 0)
  (0.276868 0.230905 0)
  (-0.119401 0.114086 0)
  (-0.0617023 0.0800778 0)
  (-0.0794074 0.0420268 0)
  (-0.084037 -0.00302734 0)
  (-0.0719238 -0.0539535 0)
  (-0.050557 -0.100464 0)
  (-0.0258948 -0.129762 0)
  (-0.00304948 -0.134368 0)
  (0.0171978 -0.116413 0)
  (0.0336976 -0.0869248 0)
  (0.0466332 -0.0540663 0)
  (0.0556673 -0.0222004 0)
  (0.0621602 0.00711836 0)
  (0.0684355 0.0333106 0)
  (0.0769985 0.0535456 0)
  (0.0906014 0.0780817 0)
  (0.117064 0.022542 0)
  (0.107016 -0.00774747 0)
  (0.0969373 -0.0327794 0)
  (0.0866079 -0.0434834 0)
  (0.0792941 -0.0429641 0)
  (0.0746896 -0.0369373 0)
  (0.0708475 -0.0280616 0)
  (0.0718343 -0.0166507 0)
  (0.0796414 -0.010874 0)
  (0.0852226 -0.00771462 0)
  (0.0876773 -0.00579549 0)
  (0.088493 -0.0042902 0)
  (0.0878865 -0.00272196 0)
  (0.0852341 -0.0007382 0)
  (0.0792173 0.00215182 0)
  (0.0667499 0.00670278 0)
  (0.0577935 0.0296552 0)
  (0.0578117 0.0484794 0)
  (0.0248323 0.0705806 0)
  (0.152084 0.100397 0)
  (0.357049 0.268032 0)
  (-0.140014 0.132886 0)
  (-0.0330205 0.0925074 0)
  (-0.0471536 0.0495118 0)
  (-0.0451243 -0.00470647 0)
  (-0.0262813 -0.0693323 0)
  (-0.00650254 -0.122388 0)
  (0.0109683 -0.151503 0)
  (0.0234401 -0.151889 0)
  (0.033579 -0.131411 0)
  (0.0416315 -0.0987202 0)
  (0.0475117 -0.0624291 0)
  (0.0516124 -0.0282219 0)
  (0.0557673 0.00148512 0)
  (0.061591 0.0259611 0)
  (0.0715476 0.0426398 0)
  (0.0874371 0.0482267 0)
  (0.10094 0.013792 0)
  (0.100197 -0.0114234 0)
  (0.0919349 -0.0277095 0)
  (0.0818923 -0.0348845 0)
  (0.0722215 -0.0349116 0)
  (0.0640491 -0.0303227 0)
  (0.057815 -0.0224466 0)
  (0.0554164 -0.011361 0)
  (0.0565682 -0.00498478 0)
  (0.057868 -0.00224239 0)
  (0.0586184 -0.000856069 0)
  (0.059283 0.000569409 0)
  (0.0600052 0.00273528 0)
  (0.0601106 0.00612436 0)
  (0.0590612 0.0112858 0)
  (0.0562458 0.0189655 0)
  (0.0543412 0.0334964 0)
  (0.0612829 0.0490527 0)
  (0.0515478 0.0656852 0)
  (0.119056 0.0983603 0)
  (0.112584 0.0770132 0)
  (0.110388 0.0538856 0)
  (-0.175867 0.0517665 0)
  (0.422609 0.297264 0)
  (-0.164832 0.142777 0)
  (-0.00788429 0.0915199 0)
  (-0.0115877 0.0506581 0)
  (0.00796475 -0.0176702 0)
  (0.0306912 -0.0885732 0)
  (0.0452415 -0.138268 0)
  (0.0523203 -0.161495 0)
  (0.0537836 -0.158821 0)
  (0.0522047 -0.135813 0)
  (0.0490996 -0.101037 0)
  (0.0455138 -0.0632802 0)
  (0.0425245 -0.0290352 0)
  (0.0417697 -0.00135959 0)
  (0.0447226 0.0189981 0)
  (0.0525696 0.0300944 0)
  (0.0651468 0.0292331 0)
  (0.0738573 0.0104642 0)
  (0.0739916 -0.00728957 0)
  (0.0678248 -0.0191327 0)
  (0.0588853 -0.0249374 0)
  (0.0493325 -0.0255397 0)
  (0.0405666 -0.022374 0)
  (0.0336086 -0.0166446 0)
  (0.029567 -0.00964637 0)
  (0.0284089 -0.00537253 0)
  (0.028654 -0.00362151 0)
  (0.0296478 -0.00286432 0)
  (0.0313502 -0.00192976 0)
  (0.0338876 8.98831e-05 0)
  (0.0370769 0.0039505 0)
  (0.0402378 0.0100088 0)
  (0.0432131 0.0183847 0)
  (0.0471684 0.0295496 0)
  (0.0562748 0.0409635 0)
  (0.0580796 0.0479078 0)
  (0.0847336 0.0635552 0)
  (0.0835674 0.0488578 0)
  (0.110081 0.0458679 0)
  (-0.163273 0.0778819 0)
  (0.473728 0.321801 0)
  (-0.179989 0.12909 0)
  (0.019293 0.0552888 0)
  (0.0395331 0.0207516 0)
  (0.0757919 -0.0466719 0)
  (0.0960989 -0.10716 0)
  (0.102486 -0.146493 0)
  (0.0975353 -0.161227 0)
  (0.084767 -0.152944 0)
  (0.068235 -0.127019 0)
  (0.0512653 -0.0914224 0)
  (0.0363674 -0.0544728 0)
  (0.0252408 -0.022761 0)
  (0.0190122 0.000507764 0)
  (0.0196942 0.0150931 0)
  (0.0257529 0.0214967 0)
  (0.0348289 0.0193205 0)
  (0.0404631 0.00794474 0)
  (0.0402668 -0.00393091 0)
  (0.0352108 -0.0122528 0)
  (0.0273024 -0.0163653 0)
  (0.0184774 -0.0168105 0)
  (0.0101815 -0.0146567 0)
  (0.00357465 -0.010997 0)
  (-0.000402209 -0.007077 0)
  (-0.00172848 -0.00492657 0)
  (-0.00140696 -0.00443967 0)
  (-4.05663e-05 -0.00465806 0)
  (0.00224036 -0.00472482 0)
  (0.00553513 -0.00381171 0)
  (0.0104344 -0.000896997 0)
  (0.0174451 0.00487359 0)
  (0.0246504 0.0126086 0)
  (0.0329083 0.0215475 0)
  (0.0435478 0.0302407 0)
  (0.0507425 0.0356034 0)
  (0.0655597 0.0465354 0)
  (0.0715875 0.04999 0)
  (0.123029 0.0660336 0)
  (-0.118539 0.131893 0)
  (0.555607 0.317004 0)
  (-0.0335147 0.101062 0)
  (0.0799081 -0.0179951 0)
  (0.146144 -0.0649121 0)
  (0.174403 -0.0957893 0)
  (0.178357 -0.123737 0)
  (0.165838 -0.141599 0)
  (0.140715 -0.143637 0)
  (0.107902 -0.129219 0)
  (0.0729189 -0.101743 0)
  (0.0405639 -0.0679471 0)
  (0.0147833 -0.0352764 0)
  (-0.00242734 -0.00978017 0)
  (-0.0103942 0.00518874 0)
  (-0.0100057 0.012721 0)
  (-0.00545439 0.0154236 0)
  (0.000710998 0.0132102 0)
  (0.00395854 0.00621835 0)
  (0.00295035 -0.00101882 0)
  (-0.00159085 -0.00618609 0)
  (-0.00857427 -0.00860093 0)
  (-0.0161186 -0.00884485 0)
  (-0.0229499 -0.00779696 0)
  (-0.0281416 -0.00630114 0)
  (-0.031183 -0.00515193 0)
  (-0.0322925 -0.00505271 0)
  (-0.0321701 -0.00585702 0)
  (-0.0313351 -0.0070718 0)
  (-0.0299938 -0.00822628 0)
  (-0.0280598 -0.00888644 0)
  (-0.0250423 -0.00852939 0)
  (-0.0199078 -0.00645856 0)
  (-0.0103355 -0.00206699 0)
  (0.00121649 0.00353971 0)
  (0.012993 0.00833131 0)
  (0.0216414 0.0105084 0)
  (0.0328574 0.0149478 0)
  (0.0411033 0.0164578 0)
  (0.123891 0.0706926 0)
  (-0.376358 0.203496 0)
  (0.666609 0.30494 0)
  (0.319134 0.210539 0)
  (0.332525 0.140777 0)
  (0.347404 0.064455 0)
  (0.320086 -0.00634402 0)
  (0.273618 -0.0586072 0)
  (0.219194 -0.0872099 0)
  (0.160883 -0.0934557 0)
  (0.102998 -0.0819918 0)
  (0.0498018 -0.0585566 0)
  (0.00582578 -0.031004 0)
  (-0.0236136 -0.00831697 0)
  (-0.0378206 0.00371403 0)
  (-0.0424131 0.0091943 0)
  (-0.0418046 0.0116294 0)
  (-0.0388292 0.0121415 0)
  (-0.0355192 0.0105472 0)
  (-0.034311 0.00700965 0)
  (-0.0360032 0.00327421 0)
  (-0.0396762 0.00046937 0)
  (-0.0447679 -0.00108247 0)
  (-0.0501944 -0.00174446 0)
  (-0.0550431 -0.00203176 0)
  (-0.0587668 -0.00235969 0)
  (-0.0612398 -0.00302264 0)
  (-0.0627501 -0.00420088 0)
  (-0.063806 -0.00575356 0)
  (-0.0649274 -0.00741492 0)
  (-0.0665947 -0.0088776 0)
  (-0.0693036 -0.00971362 0)
  (-0.0735498 -0.00920736 0)
  (-0.079815 -0.00618343 0)
  (-0.0884849 0.000675104 0)
  (-0.0986147 0.0111715 0)
  (-0.113344 0.0258244 0)
  (-0.137258 0.0458834 0)
  (-0.169607 0.0720416 0)
  (-0.210108 0.100992 0)
  (-0.273432 0.126339 0)
  (-0.530381 0.13706 0)
  (0.214776 -0.0337113 0)
  (0.222875 -0.0393852 0)
  (0.212593 -0.0547718 0)
  (0.171612 -0.0585969 0)
  (0.120549 -0.0533788 0)
  (0.067493 -0.0422448 0)
  (0.0160222 -0.0252018 0)
  (-0.0306889 -0.00466798 0)
  (-0.0567245 0.00692297 0)
  (-0.070214 0.0127096 0)
  (-0.0745842 0.0147272 0)
  (-0.0751292 0.0154729 0)
  (-0.0738408 0.0158126 0)
  (-0.0718794 0.0158814 0)
  (-0.0702328 0.0154059 0)
  (-0.0699078 0.0143426 0)
  (-0.0711793 0.013233 0)
  (-0.0735809 0.0125477 0)
  (-0.0764877 0.012412 0)
  (-0.0793294 0.0125905 0)
  (-0.08187 0.0128764 0)
  (-0.0841027 0.0131689 0)
  (-0.0861742 0.0134007 0)
  (-0.0883619 0.0134647 0)
  (-0.0908808 0.0138908 0)
  (-0.0938451 0.0150735 0)
  (-0.0972905 0.0172099 0)
  (-0.101272 0.0201706 0)
  (-0.105912 0.0231714 0)
  (-0.111002 0.0261526 0)
  (-0.115733 0.0299175 0)
  (-0.120089 0.0363905 0)
  (-0.123836 0.047135 0)
  (-0.126491 0.0630864 0)
  (-0.125385 0.0823325 0)
  (-0.115534 0.0911692 0)
  (-0.0998591 0.0500228 0)
  (-0.175451 -0.170956 0)
  (0.0496104 0.0841936 0)
  (-0.00697108 0.0148996 0)
  (-0.0205849 -0.0170086 0)
  (-0.028486 -0.0319203 0)
  (-0.050197 -0.0376093 0)
  (-0.0723994 -0.0394592 0)
  (-0.0896339 -0.0403517 0)
  (-0.0993475 -0.0423771 0)
  (-0.103295 -0.0463307 0)
  (-0.104381 -0.0500061 0)
  (-0.103597 -0.0528266 0)
  (-0.101914 -0.0543503 0)
  (-0.0996778 -0.0550538 0)
  (-0.0971752 -0.0557061 0)
  (-0.0947943 -0.0570695 0)
  (-0.0929729 -0.0594943 0)
  (-0.0919066 -0.0627096 0)
  (-0.0914915 -0.0662162 0)
  (-0.0915012 -0.069658 0)
  (-0.0917535 -0.0729662 0)
  (-0.0921916 -0.0762161 0)
  (-0.0928574 -0.0795291 0)
  (-0.0938828 -0.0829936 0)
  (-0.0955143 -0.086532 0)
  (-0.0979709 -0.0903153 0)
  (-0.101218 -0.0941006 0)
  (-0.104982 -0.0972076 0)
  (-0.10876 -0.0984423 0)
  (-0.111982 -0.0959623 0)
  (-0.114032 -0.0885091 0)
  (-0.113874 -0.0756518 0)
  (-0.109877 -0.0572303 0)
  (-0.0999033 -0.0340616 0)
  (-0.0818578 -0.00813954 0)
  (-0.0554071 0.0153472 0)
  (-0.0219046 0.0218904 0)
  (0.093654 -0.0654666 0)
  (-0.129348 -0.121993 0)
  (-0.134818 -0.240419 0)
  (-0.284045 -0.0452116 0)
  (-0.227443 0.141882 0)
  (-0.203248 0.134354 0)
  (-0.177234 0.139296 0)
  (-0.169167 0.148693 0)
  (-0.166423 0.157621 0)
  (-0.163171 0.167225 0)
  (-0.157724 0.177997 0)
  (-0.150371 0.188709 0)
  (-0.142734 0.197931 0)
  (-0.135972 0.204839 0)
  (-0.130362 0.209492 0)
  (-0.125655 0.212454 0)
  (-0.121362 0.214687 0)
  (-0.117168 0.217066 0)
  (-0.113056 0.220154 0)
  (-0.109241 0.224039 0)
  (-0.105965 0.228378 0)
  (-0.103348 0.232713 0)
  (-0.101396 0.236756 0)
  (-0.100066 0.240475 0)
  (-0.0993014 0.244023 0)
  (-0.0990452 0.247648 0)
  (-0.0992244 0.251596 0)
  (-0.0997028 0.255993 0)
  (-0.100316 0.261139 0)
  (-0.10089 0.26691 0)
  (-0.101198 0.27269 0)
  (-0.100937 0.277354 0)
  (-0.0995829 0.27932 0)
  (-0.0962726 0.277778 0)
  (-0.0897271 0.272931 0)
  (-0.0782989 0.265617 0)
  (-0.0607435 0.257961 0)
  (-0.0374908 0.253013 0)
  (-0.00727639 0.253168 0)
  (0.0259559 0.258658 0)
  (0.127946 0.298387 0)
  (-0.280364 0.297846 0)
)
;

boundaryField
{
  floor
  {
    type noSlip;
  }
  ceiling
  {
    type noSlip;
  }
  sWall
  {
    type noSlip;
  }
  nWall
  {
    type noSlip;
  }
  sideWalls
  {
    type empty;
  }
  glass1
  {
    type noSlip;
  }
  glass2
  {
    type noSlip;
  }
  sun
  {
    type noSlip;
  }
  heatsource1
  {
    type noSlip;
  }
  heatsource2
  {
    type noSlip;
  }
  Table_master
  {
    type noSlip;
  }
  Table_slave
  {
    type noSlip;
  }
  inlet
  {
    type fixedValue;
    value uniform (0.277164 -0.114805 0);
  }
  outlet
  {
    type zeroGradient;
  }
} 	// ************************************************************************* //

