/*--------------------------------*- C++ -*----------------------------------*\
  =========                 |
  \\      /  F ield         | OpenFOAM: The Open Source CFD Toolbox
   \\    /   O peration     | Website:  https://openfoam.org
    \\  /    A nd           | Version:  6
     \\/     M anipulation  |
\*---------------------------------------------------------------------------*/
FoamFile
{
    version     2.0;
    format      ascii;
    class       volScalarField;
    location    "560";
    object      nut;
}
// * * * * * * * * * * * * * * * * * * * * * * * * * * * * * * * * * * * * * //

dimensions      [0 2 -1 0 0 0 0];

internalField   nonuniform List<scalar> 
459
(
0.000870893
0.000947795
0.000969098
0.00101474
0.00105594
0.00109384
0.00113023
0.00116726
0.00120164
0.00122788
0.00124157
0.00123731
0.00120862
0.00114765
0.00105326
0.000604651
0.000703425
0.000639804
0.000576751
0.000518576
0.000465619
0.000419141
0.00038173
0.000349958
0.000322444
0.000298514
0.000277435
0.000258999
0.000242725
0.000227774
0.000213898
0.000219101
0.000345436
0.000476959
0.00117378
0.00263213
0.00240808
0.00274463
0.00308467
0.00344407
0.00379253
0.00407945
0.00433058
0.00458034
0.00480262
0.00495732
0.00497521
0.00468947
0.00358684
0.0011065
0.000628202
0.000834021
0.0022946
0.00192004
0.00184313
0.00178183
0.00166318
0.00133349
0.00109745
0.000934026
0.000814227
0.000722925
0.000652844
0.000595997
0.00054472
0.000500525
0.000465246
0.000538601
0.000808589
0.000583214
0.00143112
0.00355698
0.00296047
0.00362047
0.00392734
0.00415362
0.00432202
0.0044567
0.00461081
0.00482054
0.0050776
0.00536376
0.00564295
0.00582702
0.00571259
0.0047141
0.00103115
0.000988024
0.00181273
0.0020866
0.0022326
0.00226471
0.00208718
0.000692224
0.000589104
0.000511468
0.000451188
0.000403351
0.000364806
0.000333523
0.000308321
0.000288884
0.000323092
0.000477739
0.000904836
0.000647257
0.00168057
0.00452212
0.00290998
0.00383369
0.00404749
0.00406586
0.00402481
0.00401549
0.00409069
0.00426475
0.0045347
0.00489628
0.00533161
0.00576545
0.00608573
0.00593881
0.00470326
0.00131393
0.00184478
0.0022093
0.00251831
0.00271772
0.00278654
0.00256891
0.000818311
0.000737385
0.000672257
0.000618528
0.000573012
0.000533139
0.000496597
0.000461041
0.000422989
0.000391602
0.000476971
0.000947121
0.000689196
0.00193636
0.00579803
0.00300186
0.00367258
0.00396471
0.00386477
0.00368415
0.00359274
0.00363847
0.00380123
0.00407421
0.00446415
0.00496012
0.00544422
0.00581763
0.00595704
0.00570176
0.00490298
0.00460319
0.00446484
0.00436082
0.0042483
0.00411722
0.00389984
0.00323277
0.00288875
0.00264533
0.00245041
0.00227815
0.00210607
0.00191325
0.00168147
0.00139837
0.00109403
0.000859457
0.000843815
0.0008341
0.0006623
0.000813546
0.00118782
0.00220929
0.00724434
0.0039605
0.00333571
0.00374924
0.00376382
0.00359906
0.00340116
0.00343868
0.00359556
0.00387086
0.00427676
0.00477368
0.00526586
0.00563705
0.0058135
0.00579811
0.00566774
0.00556597
0.00547356
0.00536265
0.00523004
0.00508559
0.00487801
0.00455327
0.00424434
0.00396154
0.00370002
0.00344959
0.00319494
0.00291953
0.00261028
0.00226411
0.00190491
0.00159184
0.00124511
0.000931699
0.0010884
0.00177877
0.00158839
0.00248273
0.00839377
0.00592412
0.00378618
0.00337298
0.00343131
0.00356807
0.00345856
0.00346755
0.00358291
0.00385179
0.00427881
0.00481034
0.0053378
0.00572962
0.0059189
0.00595517
0.00595191
0.00595285
0.00591965
0.00582919
0.00568217
0.00548324
0.00525079
0.00498313
0.00470545
0.00442942
0.00415964
0.00389457
0.0036277
0.00335102
0.00305895
0.00275192
0.00244311
0.00215721
0.00179839
0.00117066
0.00173628
0.00335138
0.00210786
0.00256145
0.00814579
0.00667617
0.00539361
0.00450406
0.00407608
0.00392452
0.00369653
0.00358209
0.00367059
0.00397719
0.00446524
0.00505819
0.00563603
0.00605284
0.00624221
0.00626696
0.0062386
0.00616735
0.00602361
0.00579581
0.00550993
0.00523776
0.00498928
0.0047571
0.00453668
0.00432799
0.00413339
0.00395315
0.00378405
0.00362052
0.0034554
0.0032789
0.00307494
0.00283168
0.00248393
0.00180332
0.00237875
0.00569527
0.00283116
0.00251796
0.00305886
0.00340145
0.00353158
0.00350658
0.0034156
0.00333688
0.00331018
0.00343368
0.00375542
0.00424997
0.00486439
0.0055307
0.00613868
0.0065327
0.00665761
0.00658176
0.00639699
0.00611463
0.00579167
0.00547912
0.00521913
0.00501182
0.00485112
0.00472724
0.00463174
0.00455995
0.0045098
0.00447894
0.00446309
0.00445508
0.00444362
0.00441075
0.00432807
0.00416124
0.00385222
0.00324829
0.00353414
0.00718704
0.00312929
0.00138263
0.0021658
0.00262757
0.00286896
0.00305427
0.00336932
0.00385432
0.00441349
0.00501723
0.00566237
0.00630693
0.00685071
0.00710874
0.00706253
0.00686167
0.00664438
0.00641903
0.00622743
0.00607181
0.00595139
0.00586295
0.005803
0.00576864
0.0057575
0.0057679
0.00579857
0.0058479
0.0059129
0.00598776
0.00606141
0.00611337
0.00610597
0.00599042
0.00572319
0.00527806
0.00534977
0.00742206
0.00262648
0.00155328
0.0023319
0.00290214
0.00338584
0.00402537
0.00483097
0.0054535
0.00591387
0.00641596
0.00699691
0.00759591
0.00811633
0.0082839
0.00815797
0.00787294
0.00760902
0.00741672
0.00728573
0.00719453
0.00713018
0.0070867
0.0070624
0.0070571
0.00707026
0.00710065
0.00714696
0.00720787
0.00728169
0.00736507
0.00745022
0.0075182
0.00752393
0.00738852
0.00704292
0.00653291
0.00615976
0.00576379
0.00218721
0.00131504
0.00140808
0.00150147
0.00163577
0.00164688
0.00161375
0.00158146
0.00155804
0.00159408
0.00165392
0.00175568
0.00184482
0.00190274
0.00192036
0.00189886
0.00186228
0.00183434
0.00181379
0.00179997
0.00179075
0.00178474
0.00178116
0.00177959
0.00177976
0.00178144
0.00178441
0.00178845
0.0017934
0.00179917
0.0018056
0.00181235
0.00181837
0.00182106
0.00181625
0.00180273
0.00179438
0.00182755
0.00192059
0.00200224
0.0018102
)
;

boundaryField
{
    floor
    {
        type            nutkWallFunction;
        Cmu             0.09;
        kappa           0.41;
        E               9.8;
        value           nonuniform List<scalar> 
29
(
0.000126965
7.2934e-05
8.51461e-05
7.73042e-05
6.94401e-05
6.20914e-05
5.53136e-05
4.92854e-05
4.43721e-05
4.01511e-05
3.64561e-05
3.32095e-05
3.03214e-05
2.77718e-05
2.55013e-05
2.33974e-05
2.14282e-05
2.21687e-05
3.95465e-05
5.67732e-05
5.67732e-05
7.0252e-05
7.82297e-05
8.34023e-05
0.000126965
7.2934e-05
0.000100993
0.000119309
0.000157064
)
;
    }
    ceiling
    {
        type            nutkWallFunction;
        Cmu             0.09;
        kappa           0.41;
        E               9.8;
        value           nonuniform List<scalar> 
43
(
0.000157165
0.000167731
0.000178261
0.00019329
0.000194532
0.000190848
0.000187245
0.000184628
0.000188661
0.000195335
0.000206629
0.000216457
0.000222816
0.000224745
0.00022239
0.000218378
0.000215308
0.000213047
0.000211524
0.000210508
0.000209845
0.000209451
0.000209278
0.000209297
0.000209482
0.00020981
0.000210255
0.000210802
0.000211438
0.000212147
0.00021289
0.000213554
0.00021385
0.00021332
0.000211831
0.000210911
0.000214565
0.000224777
0.000233696
0.000212657
0.000289248
0.000346191
0.000184061
)
;
    }
    sWall
    {
        type            nutkWallFunction;
        Cmu             0.09;
        kappa           0.41;
        E               9.8;
        value           uniform 0.0001572;
    }
    nWall
    {
        type            nutkWallFunction;
        Cmu             0.09;
        kappa           0.41;
        E               9.8;
        value           nonuniform List<scalar> 6(0.000142598 0.000188045 0.000245167 0.000300709 0.000253752 0.000212652);
    }
    sideWalls
    {
        type            empty;
    }
    glass1
    {
        type            nutkWallFunction;
        Cmu             0.09;
        kappa           0.41;
        E               9.8;
        value           nonuniform List<scalar> 9(0.000105437 0.000141074 0.000170521 0.000198502 0.000226725 0.000256398 0.000285738 0.000294123 0.000289503);
    }
    glass2
    {
        type            nutkWallFunction;
        Cmu             0.09;
        kappa           0.41;
        E               9.8;
        value           nonuniform List<scalar> 2(0.000322148 0.000353303);
    }
    sun
    {
        type            nutkWallFunction;
        Cmu             0.09;
        kappa           0.41;
        E               9.8;
        value           nonuniform List<scalar> 
14
(
0.000105413
0.00011456
0.000117079
0.000122454
0.000127282
0.000131705
0.000135936
0.000140224
0.000144192
0.000147213
0.000148785
0.000148294
0.000144995
0.000137953
)
;
    }
    heatsource1
    {
        type            nutkWallFunction;
        Cmu             0.09;
        kappa           0.41;
        E               9.8;
        value           nonuniform List<scalar> 3(8.00852e-05 9.85302e-05 0.00014261);
    }
    heatsource2
    {
        type            nutkWallFunction;
        Cmu             0.09;
        kappa           0.41;
        E               9.8;
        value           nonuniform List<scalar> 4(0.000133182 7.58525e-05 7.58524e-05 0.00012438);
    }
    Table_master
    {
        type            nutkWallFunction;
        Cmu             0.09;
        kappa           0.41;
        E               9.8;
        value           nonuniform List<scalar> 9(8.37724e-05 7.09831e-05 6.11752e-05 5.34333e-05 4.71973e-05 4.21041e-05 3.79199e-05 3.45121e-05 3.1859e-05);
    }
    Table_slave
    {
        type            nutkWallFunction;
        Cmu             0.09;
        kappa           0.41;
        E               9.8;
        value           nonuniform List<scalar> 9(9.91055e-05 8.92992e-05 8.13147e-05 7.46578e-05 6.89637e-05 6.393e-05 5.92761e-05 5.47067e-05 4.97675e-05);
    }
    inlet
    {
        type            calculated;
        value           uniform 0.000100623;
    }
    outlet
    {
        type            calculated;
        value           nonuniform List<scalar> 2(0.00131504 0.00140808);
    }
}


// ************************************************************************* //
