// -*- C++ -*-
// File generated by PyFoam - sorry for the ugliness

FoamFile
{
 version 2.0;
 format ascii;
 class volScalarField;
 location "500";
 object T;
}

dimensions [ 0 0 0 1 0 0 0 ];

internalField nonuniform List<scalar> 459
(
  303
  302.738
  302.729
  302.729
  302.729
  302.728
  302.726
  302.721
  302.712
  302.703
  302.695
  302.689
  302.686
  302.681
  302.688
  302.813
  302.795
  302.792
  302.804
  302.815
  302.824
  302.83
  302.835
  302.841
  302.846
  302.851
  302.857
  302.863
  302.87
  302.877
  302.884
  302.893
  302.905
  302.934
  303.174
  302.778
  302.759
  302.766
  302.772
  302.775
  302.774
  302.763
  302.743
  302.722
  302.705
  302.695
  302.691
  302.686
  302.681
  302.669
  302.648
  302.816
  302.776
  302.781
  302.796
  302.812
  302.826
  302.829
  302.831
  302.833
  302.835
  302.837
  302.839
  302.842
  302.845
  302.85
  302.857
  302.867
  302.883
  302.923
  303.357
  302.828
  302.795
  302.81
  302.828
  302.84
  302.841
  302.821
  302.783
  302.744
  302.715
  302.702
  302.7
  302.699
  302.695
  302.686
  302.669
  302.779
  302.771
  302.783
  302.808
  302.835
  302.856
  302.853
  302.85
  302.848
  302.847
  302.846
  302.847
  302.848
  302.85
  302.853
  302.861
  302.868
  302.882
  302.921
  303.544
  302.891
  302.833
  302.858
  302.894
  302.923
  302.928
  302.891
  302.826
  302.764
  302.722
  302.705
  302.707
  302.714
  302.717
  302.711
  302.698
  302.707
  302.727
  302.762
  302.803
  302.846
  302.886
  302.918
  302.945
  302.968
  302.989
  303.006
  303.022
  303.036
  303.048
  303.059
  303.065
  302.994
  302.937
  302.909
  302.929
  303.727
  302.97
  302.877
  302.903
  302.958
  303.013
  303.015
  302.953
  302.856
  302.774
  302.722
  302.704
  302.712
  302.73
  302.746
  302.753
  302.754
  302.771
  302.799
  302.838
  302.884
  302.93
  302.972
  303.009
  303.044
  303.072
  303.096
  303.115
  303.128
  303.135
  303.137
  303.133
  303.12
  303.072
  303.001
  302.946
  302.939
  303.1
  303.156
  303.155
  303.895
  303.074
  302.951
  302.962
  303.029
  303.1
  303.073
  302.979
  302.864
  302.767
  302.71
  302.696
  302.716
  302.752
  302.786
  302.81
  302.83
  302.857
  302.894
  302.938
  302.985
  303.032
  303.073
  303.109
  303.141
  303.167
  303.188
  303.203
  303.212
  303.211
  303.205
  303.192
  303.17
  303.127
  303.062
  302.996
  302.965
  303.027
  303.059
  303.103
  304.053
  303.242
  303.119
  303.122
  303.186
  303.189
  303.099
  302.958
  302.818
  302.718
  302.674
  302.681
  302.726
  302.789
  302.848
  302.894
  302.933
  302.971
  303.011
  303.055
  303.1
  303.141
  303.178
  303.208
  303.233
  303.252
  303.267
  303.276
  303.279
  303.273
  303.259
  303.24
  303.214
  303.175
  303.121
  303.06
  303.022
  303.034
  303.051
  303.085
  304.278
  303.673
  303.538
  303.498
  303.421
  303.251
  303.033
  302.828
  302.681
  302.613
  302.618
  302.674
  302.763
  302.865
  302.95
  303.015
  303.062
  303.101
  303.14
  303.178
  303.214
  303.246
  303.272
  303.293
  303.308
  303.319
  303.325
  303.325
  303.32
  303.311
  303.297
  303.277
  303.253
  303.218
  303.179
  303.136
  303.114
  303.131
  303.149
  303.263
  304.604
  304.315
  304.075
  303.82
  303.364
  302.919
  302.6
  302.432
  302.397
  302.466
  302.591
  302.728
  302.874
  303.023
  303.104
  303.152
  303.189
  303.224
  303.258
  303.289
  303.314
  303.334
  303.349
  303.358
  303.363
  303.362
  303.358
  303.35
  303.339
  303.328
  303.316
  303.307
  303.3
  303.297
  303.303
  303.32
  303.349
  303.38
  303.4
  303.455
  295.939
  297.022
  298.614
  299.924
  300.889
  301.603
  302.128
  302.545
  302.845
  303.006
  303.11
  303.185
  303.236
  303.272
  303.303
  303.331
  303.355
  303.376
  303.39
  303.399
  303.403
  303.402
  303.398
  303.391
  303.382
  303.374
  303.365
  303.357
  303.349
  303.344
  303.341
  303.343
  303.351
  303.368
  303.392
  303.422
  303.456
  303.501
  296.669
  298.417
  300.388
  301.421
  302.064
  302.492
  302.782
  302.977
  303.118
  303.209
  303.271
  303.315
  303.348
  303.374
  303.396
  303.415
  303.429
  303.439
  303.444
  303.444
  303.441
  303.435
  303.428
  303.419
  303.411
  303.402
  303.394
  303.386
  303.379
  303.373
  303.369
  303.369
  303.373
  303.384
  303.401
  303.426
  303.44
  303.482
  301.83
  299.99
  299.76
  301.655
  302.469
  302.803
  302.988
  303.12
  303.218
  303.291
  303.345
  303.385
  303.414
  303.435
  303.452
  303.465
  303.474
  303.48
  303.484
  303.484
  303.481
  303.477
  303.471
  303.464
  303.456
  303.448
  303.439
  303.431
  303.422
  303.414
  303.407
  303.4
  303.395
  303.391
  303.39
  303.395
  303.404
  303.415
  303.425
  303.472
)
;

boundaryField
{
  floor
  {
    type wallHeatTransfer;
    Tinf uniform 305.2;
    alphaWall uniform 0.24;
    value nonuniform List<scalar> 29
(
  302.991
  303.238
  303.177
  303.139
  303.137
  303.148
  303.164
  303.185
  303.209
  303.232
  303.254
  303.276
  303.297
  303.318
  303.338
  303.358
  303.379
  303.402
  303.425
  303.477
  303.477
  303.401
  303.361
  303.343
  302.991
  303.238
  303.242
  303.085
  302.925
)
;
  }
  ceiling
  {
    type wallHeatTransfer;
    Tinf uniform 303.2;
    alphaWall uniform 0.24;
    value nonuniform List<scalar> 43
(
  301.921
  300.199
  299.98
  301.748
  302.515
  302.83
  303.003
  303.126
  303.217
  303.283
  303.332
  303.366
  303.391
  303.408
  303.422
  303.432
  303.439
  303.443
  303.444
  303.443
  303.439
  303.435
  303.429
  303.423
  303.416
  303.41
  303.403
  303.397
  303.391
  303.385
  303.38
  303.375
  303.372
  303.37
  303.37
  303.376
  303.385
  303.393
  303.401
  303.442
  304.539
  304.271
  297.082
)
;
  }
  sWall
  {
    type wallHeatTransfer;
    Tinf uniform 315.2;
    alphaWall uniform 0.36;
    value uniform 303.121;
  }
  nWall
  {
    type wallHeatTransfer;
    Tinf uniform 307.2;
    alphaWall uniform 0.36;
    value nonuniform List<scalar> 6
(
  303.89
  303.822
  303.721
  304.023
  304
  304.062
)
;
  }
  sideWalls
  {
    type empty;
  }
  glass1
  {
    type wallHeatTransfer;
    Tinf uniform 315.2;
    alphaWall uniform 4.3;
    value nonuniform List<scalar> 9
(
  311.177
  310.533
  310.134
  309.834
  309.587
  309.363
  309.205
  309.287
  309.528
)
;
  }
  glass2
  {
    type wallHeatTransfer;
    Tinf uniform 307.2;
    alphaWall uniform 4.3;
    value nonuniform List<scalar> 2
(
  305.664
  305.801
)
;
  }
  sun
  {
    type wallHeatTransfer;
    Tinf uniform 305.2;
    alphaWall uniform 0.24;
    value nonuniform List<scalar> 14
(
  303.219
  302.967
  302.955
  302.946
  302.939
  302.931
  302.923
  302.913
  302.903
  302.896
  302.892
  302.896
  302.907
  302.939
)
;
  }
  heatsource1
  {
    type fixedGradient;
    gradient uniform 0;
  }
  heatsource2
  {
    type fixedGradient;
    gradient uniform 0;
  }
  Table_master
  {
    type zeroGradient;
  }
  Table_slave
  {
    type zeroGradient;
  }
  inlet
  {
    type fixedValue;
    value uniform 293.15;
  }
  outlet
  {
    type zeroGradient;
  }
} 	// ************************************************************************* //

