/*--------------------------------*- C++ -*----------------------------------*\
  =========                 |
  \\      /  F ield         | OpenFOAM: The Open Source CFD Toolbox
   \\    /   O peration     | Website:  https://openfoam.org
    \\  /    A nd           | Version:  6
     \\/     M anipulation  |
\*---------------------------------------------------------------------------*/
FoamFile
{
    version     2.0;
    format      ascii;
    class       volScalarField;
    location    "300";
    object      epsilon;
}
// * * * * * * * * * * * * * * * * * * * * * * * * * * * * * * * * * * * * * //

dimensions      [0 2 -3 0 0 0 0];

internalField   nonuniform List<scalar> 
459
(
0.000455584
0.000593084
0.00062347
0.00071712
0.000812188
0.000908677
0.00101075
0.0011145
0.00118852
0.00121463
0.00117874
0.00107794
0.000923739
0.000744252
0.000577609
3.60007e-05
6.3994e-05
9.05292e-05
8.95836e-05
8.10816e-05
7.05228e-05
5.82564e-05
4.75051e-05
3.89488e-05
3.22654e-05
2.70254e-05
2.28768e-05
1.95808e-05
1.69062e-05
1.46733e-05
1.27232e-05
1.0913e-05
1.01003e-05
7.89176e-06
0.0011664
0.00167752
0.00056137
0.000542465
0.000569242
0.000612966
0.000676689
0.000758608
0.000833625
0.000877429
0.000871664
0.000811612
0.000705798
0.000578229
0.000487082
0.000605427
0.000121222
4.51086e-05
0.000105558
0.000110965
0.000100814
8.6048e-05
7.24348e-05
6.54586e-05
5.3203e-05
4.23035e-05
3.36353e-05
2.69331e-05
2.1777e-05
1.78252e-05
1.4793e-05
1.25726e-05
1.1193e-05
1.05886e-05
2.90035e-05
1.95115e-05
0.00213334
0.00411252
0.000709506
0.000525993
0.000552481
0.000622761
0.000725091
0.00084999
0.000960508
0.00102372
0.00102335
0.000961177
0.000849493
0.000712117
0.000591955
0.000525954
0.000617073
0.000341903
0.000242032
0.000181357
0.000139798
0.000110382
9.35905e-05
0.000171752
0.000117824
8.39789e-05
6.20649e-05
4.73798e-05
3.72129e-05
2.99821e-05
2.47492e-05
2.09907e-05
1.60799e-05
1.37131e-05
5.66242e-05
3.17332e-05
0.00345309
0.00849273
0.00114136
0.000546816
0.000554388
0.000657246
0.000818907
0.00100907
0.00115214
0.00121829
0.00120523
0.00112477
0.000990804
0.000826573
0.000679258
0.000573719
0.000543384
0.00102648
0.000570336
0.000339707
0.000226722
0.00016352
0.000125162
0.00010851
0.000251655
0.000191321
0.00015573
0.000132383
0.000114522
9.87186e-05
8.48816e-05
7.16329e-05
5.78773e-05
3.39054e-05
2.25014e-05
9.89177e-05
4.33819e-05
0.00525715
0.0150345
0.00226535
0.000677497
0.000594095
0.000735395
0.00102909
0.00130344
0.00145022
0.00148778
0.00143862
0.00132077
0.00114833
0.000945063
0.000743885
0.000571533
0.0004463
0.000389183
0.000311837
0.000243505
0.000189992
0.000149944
0.00012081
0.000102305
0.000100562
9.45269e-05
8.82731e-05
8.20147e-05
7.51978e-05
6.74646e-05
5.96453e-05
5.23143e-05
4.56466e-05
3.62904e-05
2.80185e-05
6.7639e-05
5.13387e-05
8.00449e-05
0.00013793
0.000196778
0.0077466
0.0221986
0.00505629
0.00134611
0.000935898
0.00110462
0.00162918
0.00186578
0.00191936
0.00187356
0.00176215
0.00158933
0.00135936
0.00109375
0.00082827
0.000598751
0.000430181
0.000326853
0.00026149
0.000211723
0.000170617
0.000138242
0.000114439
9.91331e-05
9.24085e-05
8.98717e-05
8.85333e-05
8.67501e-05
8.33772e-05
7.72646e-05
6.77376e-05
5.76597e-05
4.85547e-05
4.0353e-05
3.52456e-05
4.92358e-05
5.29492e-05
6.33844e-05
0.000255451
0.000228438
0.0105933
0.0264601
0.0103059
0.00432229
0.00302134
0.00300287
0.00300071
0.00284787
0.00264268
0.00243125
0.00220648
0.001941
0.00162211
0.00126978
0.000925883
0.000634658
0.000427967
0.000303606
0.000232308
0.000185065
0.000149298
0.000122919
0.000105299
9.57956e-05
9.3394e-05
9.54102e-05
9.92218e-05
0.000103519
0.000107223
0.000108443
0.000103624
9.17637e-05
8.01818e-05
7.08013e-05
6.81082e-05
7.90849e-05
0.000105372
0.000172905
0.000382956
0.000371861
0.0112044
0.028612
0.0159902
0.0109467
0.00828759
0.00643621
0.00508597
0.00417616
0.00357406
0.00314515
0.00277248
0.00237271
0.00191749
0.00143926
0.000992174
0.000626925
0.000388315
0.000255985
0.000187505
0.000148532
0.000122182
0.000105026
9.56632e-05
9.29856e-05
9.5837e-05
0.00010283
0.000113021
0.000126343
0.000143052
0.000163096
0.000185356
0.00020324
0.000215703
0.000243835
0.000303037
0.000472244
0.000890866
0.00165372
0.00452073
0.00129011
0.0103237
0.0171777
0.0136556
0.0103642
0.00800312
0.00643691
0.00543242
0.0047933
0.00434298
0.00392789
0.00344127
0.00283426
0.00213934
0.00147003
0.000900041
0.000462115
0.000269619
0.000181373
0.000136748
0.000111069
9.51329e-05
8.64502e-05
8.37062e-05
8.59911e-05
9.26453e-05
0.00010333
0.000118298
0.000138538
0.00016573
0.000202294
0.000251459
0.000317326
0.000407281
0.000536952
0.000724003
0.000969081
0.0012374
0.00145989
0.00163728
0.00102872
0.00380592
0.00583031
0.0067999
0.00688913
0.00665979
0.00621639
0.00553757
0.00465268
0.00362236
0.00248834
0.00141596
0.00078666
0.000429433
0.000240792
0.000152021
0.000108945
8.62986e-05
7.36983e-05
6.72097e-05
6.49735e-05
6.61498e-05
7.03534e-05
7.74313e-05
8.75431e-05
0.000101221
0.000119439
0.000143722
0.00017636
0.00022078
0.000282715
0.000367833
0.000482957
0.000630427
0.000794075
0.000928961
0.000982525
0.000901928
0.000568588
0.00296774
0.00659798
0.00724098
0.00590614
0.0051769
0.00439497
0.00343746
0.00249125
0.0016934
0.00107495
0.000616773
0.000345094
0.000199295
0.000125846
8.99136e-05
7.18298e-05
6.25341e-05
5.81139e-05
5.68843e-05
5.80354e-05
6.12027e-05
6.62407e-05
7.33205e-05
8.28064e-05
9.52423e-05
0.000111512
0.000133
0.000161844
0.000201272
0.000255315
0.000329286
0.000427862
0.000550205
0.000689629
0.000782719
0.000868926
0.000815119
0.000596918
0.0020936
0.00248315
0.00279053
0.00344307
0.00305596
0.00261171
0.00234674
0.00203073
0.00164699
0.00125022
0.000890267
0.000597401
0.000382889
0.000246499
0.000167886
0.00012285
9.57356e-05
7.8712e-05
6.81563e-05
6.22565e-05
5.99058e-05
6.03674e-05
6.32486e-05
6.84485e-05
7.59559e-05
8.57784e-05
9.83503e-05
0.000114342
0.000134805
0.000161525
0.000196239
0.000240186
0.000295969
0.000366782
0.00045513
0.000586741
0.000614376
0.000559488
0.00046085
0.000364172
)
;

boundaryField
{
    floor
    {
        Cmu             0.09;
        kappa           0.41;
        E               9.8;
        type            epsilonWallFunction;
        value           nonuniform List<scalar> 
29
(
0.000577609
3.60007e-05
6.3994e-05
9.05292e-05
8.95836e-05
8.10816e-05
7.05228e-05
5.82564e-05
4.75051e-05
3.89488e-05
3.22654e-05
2.70254e-05
2.28768e-05
1.95808e-05
1.69062e-05
1.46733e-05
1.27232e-05
1.0913e-05
1.01003e-05
7.89176e-06
7.89176e-06
1.95115e-05
3.17332e-05
4.33819e-05
0.000577609
3.60007e-05
4.51086e-05
0.000341903
0.00102648
)
;
    }
    ceiling
    {
        Cmu             0.09;
        kappa           0.41;
        E               9.8;
        type            epsilonWallFunction;
        value           nonuniform List<scalar> 
43
(
0.0020936
0.00248315
0.00279053
0.00344307
0.00305596
0.00261171
0.00234674
0.00203073
0.00164699
0.00125022
0.000890267
0.000597401
0.000382889
0.000246499
0.000167886
0.00012285
9.57356e-05
7.8712e-05
6.81563e-05
6.22565e-05
5.99058e-05
6.03674e-05
6.32486e-05
6.84485e-05
7.59559e-05
8.57784e-05
9.83503e-05
0.000114342
0.000134805
0.000161525
0.000196239
0.000240186
0.000295969
0.000366782
0.00045513
0.000586741
0.000614376
0.000559488
0.00046085
0.000364172
0.0103237
0.0171777
0.00296774
)
;
    }
    sWall
    {
        Cmu             0.09;
        kappa           0.41;
        E               9.8;
        type            epsilonWallFunction;
        value           uniform 0.0020936;
    }
    nWall
    {
        Cmu             0.09;
        kappa           0.41;
        E               9.8;
        type            epsilonWallFunction;
        value           nonuniform List<scalar> 6(0.000196778 0.000228438 0.000371861 0.000568588 0.000596918 0.000364172);
    }
    sideWalls
    {
        type            empty;
    }
    glass1
    {
        Cmu             0.09;
        kappa           0.41;
        E               9.8;
        type            epsilonWallFunction;
        value           nonuniform List<scalar> 9(0.000455584 0.0011664 0.00213334 0.00345309 0.00525715 0.0077466 0.0105933 0.0112044 0.0103237);
    }
    glass2
    {
        Cmu             0.09;
        kappa           0.41;
        E               9.8;
        type            epsilonWallFunction;
        value           nonuniform List<scalar> 2(0.00129011 0.00102872);
    }
    sun
    {
        Cmu             0.09;
        kappa           0.41;
        E               9.8;
        type            epsilonWallFunction;
        value           nonuniform List<scalar> 
14
(
0.000455584
0.000593084
0.00062347
0.00071712
0.000812188
0.000908677
0.00101075
0.0011145
0.00118852
0.00121463
0.00117874
0.00107794
0.000923739
0.000744252
)
;
    }
    heatsource1
    {
        Cmu             0.09;
        kappa           0.41;
        E               9.8;
        type            epsilonWallFunction;
        value           nonuniform List<scalar> 3(8.00449e-05 0.00013793 0.000196778);
    }
    heatsource2
    {
        Cmu             0.09;
        kappa           0.41;
        E               9.8;
        type            epsilonWallFunction;
        value           nonuniform List<scalar> 4(0.000605427 0.000121222 0.000121222 0.000617073);
    }
    Table_master
    {
        Cmu             0.09;
        kappa           0.41;
        E               9.8;
        type            epsilonWallFunction;
        value           nonuniform List<scalar> 9(0.000171752 0.000117824 8.39789e-05 6.20649e-05 4.73798e-05 3.72129e-05 2.99821e-05 2.47492e-05 2.09907e-05);
    }
    Table_slave
    {
        Cmu             0.09;
        kappa           0.41;
        E               9.8;
        type            epsilonWallFunction;
        value           nonuniform List<scalar> 9(0.000251655 0.000191321 0.00015573 0.000132383 0.000114522 9.87186e-05 8.48816e-05 7.16329e-05 5.78773e-05);
    }
    inlet
    {
        type            turbulentMixingLengthDissipationRateInlet;
        mixingLength    0.01;
        phi             phi;
        k               k;
        value           uniform 0.000101881;
    }
    outlet
    {
        type            zeroGradient;
    }
}


// ************************************************************************* //
