// -*- C++ -*-
// File generated by PyFoam - sorry for the ugliness

FoamFile
{
 version 2.0;
 format ascii;
 class volScalarField;
 location "170";
 object T;
}

dimensions [ 0 0 0 1 0 0 0 ];

internalField nonuniform List<scalar> 459
(
  302.633
  302.555
  302.546
  302.545
  302.57
  302.706
  302.788
  302.843
  302.877
  302.898
  302.914
  302.929
  302.943
  302.956
  302.966
  303.747
  303.669
  303.613
  303.623
  303.653
  303.682
  303.709
  303.735
  303.76
  303.785
  303.81
  303.834
  303.858
  303.882
  303.906
  303.931
  303.959
  303.996
  304.063
  302.659
  302.544
  302.515
  302.504
  302.546
  302.748
  302.905
  303.007
  303.065
  303.093
  303.103
  303.102
  303.089
  303.064
  303.029
  303.044
  303.07
  303.726
  303.589
  303.543
  303.572
  303.622
  303.669
  303.704
  303.737
  303.77
  303.804
  303.837
  303.87
  303.903
  303.933
  303.961
  303.985
  304.007
  304.031
  304.088
  302.684
  302.537
  302.489
  302.46
  302.508
  302.775
  303.021
  303.181
  303.262
  303.29
  303.288
  303.265
  303.226
  303.177
  303.122
  303.101
  303.099
  303.603
  303.429
  303.461
  303.537
  303.622
  303.692
  303.717
  303.749
  303.785
  303.823
  303.863
  303.904
  303.945
  303.982
  304.012
  304.034
  304.05
  304.064
  304.107
  302.71
  302.537
  302.473
  302.421
  302.467
  302.787
  303.131
  303.359
  303.465
  303.49
  303.466
  303.415
  303.352
  303.282
  303.212
  303.165
  303.137
  303.154
  303.216
  303.304
  303.432
  303.568
  303.691
  303.787
  303.859
  303.914
  303.966
  304.017
  304.068
  304.121
  304.177
  304.238
  304.302
  304.191
  304.135
  304.111
  304.129
  302.738
  302.548
  302.476
  302.387
  302.428
  302.784
  303.224
  303.526
  303.655
  303.669
  303.617
  303.54
  303.458
  303.378
  303.302
  303.247
  303.216
  303.238
  303.315
  303.442
  303.593
  303.742
  303.869
  303.969
  304.049
  304.114
  304.166
  304.212
  304.255
  304.296
  304.338
  304.381
  304.411
  304.305
  304.215
  304.17
  304.157
  304.177
  304.208
  304.26
  302.768
  302.574
  302.504
  302.358
  302.388
  302.772
  303.299
  303.679
  303.82
  303.814
  303.741
  303.654
  303.567
  303.487
  303.417
  303.373
  303.364
  303.426
  303.55
  303.702
  303.856
  303.993
  304.103
  304.187
  304.252
  304.3
  304.337
  304.37
  304.404
  304.439
  304.47
  304.49
  304.484
  304.4
  304.305
  304.261
  304.221
  304.227
  304.249
  304.286
  302.807
  302.62
  302.527
  302.327
  302.35
  302.769
  303.375
  303.83
  303.96
  303.94
  303.873
  303.798
  303.726
  303.66
  303.608
  303.595
  303.632
  303.739
  303.881
  304.026
  304.157
  304.264
  304.344
  304.405
  304.443
  304.465
  304.486
  304.508
  304.531
  304.551
  304.563
  304.56
  304.535
  304.48
  304.413
  304.359
  304.289
  304.286
  304.298
  304.317
  302.866
  302.728
  302.539
  302.255
  302.309
  302.807
  303.496
  304.005
  304.117
  304.102
  304.055
  304.006
  303.961
  303.926
  303.909
  303.93
  304.003
  304.122
  304.246
  304.356
  304.449
  304.517
  304.562
  304.584
  304.596
  304.604
  304.615
  304.625
  304.634
  304.637
  304.628
  304.605
  304.565
  304.513
  304.46
  304.417
  304.388
  304.394
  304.407
  304.431
  302.951
  302.887
  302.381
  302.051
  302.279
  302.973
  303.771
  304.216
  304.315
  304.317
  304.301
  304.284
  304.271
  304.269
  304.284
  304.325
  304.397
  304.488
  304.575
  304.643
  304.69
  304.717
  304.729
  304.733
  304.733
  304.733
  304.733
  304.733
  304.73
  304.72
  304.702
  304.673
  304.633
  304.587
  304.542
  304.509
  304.499
  304.533
  304.619
  304.793
  300.581
  301.417
  302.452
  303.612
  304.28
  304.479
  304.538
  304.558
  304.568
  304.576
  304.586
  304.602
  304.627
  304.666
  304.714
  304.766
  304.811
  304.842
  304.86
  304.866
  304.866
  304.862
  304.856
  304.85
  304.843
  304.836
  304.826
  304.811
  304.791
  304.764
  304.729
  304.688
  304.642
  304.602
  304.58
  304.599
  304.675
  304.787
  303.688
  303.829
  304.147
  304.445
  304.61
  304.698
  304.74
  304.766
  304.785
  304.801
  304.818
  304.837
  304.859
  304.884
  304.911
  304.936
  304.954
  304.965
  304.969
  304.967
  304.962
  304.955
  304.947
  304.937
  304.928
  304.916
  304.903
  304.887
  304.866
  304.841
  304.81
  304.774
  304.735
  304.696
  304.667
  304.672
  304.717
  304.769
  304.574
  304.552
  304.536
  304.653
  304.739
  304.805
  304.856
  304.895
  304.922
  304.942
  304.959
  304.973
  304.987
  304.999
  305.012
  305.023
  305.032
  305.039
  305.042
  305.042
  305.038
  305.033
  305.026
  305.018
  305.009
  304.999
  304.989
  304.977
  304.962
  304.946
  304.925
  304.9
  304.87
  304.838
  304.805
  304.776
  304.757
  304.766
  304.823
  304.898
)
;

boundaryField
{
  floor
  {
    type wallHeatTransfer;
    Tinf uniform 300.35;
    alphaWall uniform 0.24;
    value nonuniform List<scalar> 29
(
  302.661
  303.182
  303.205
  303.193
  303.211
  303.231
  303.246
  303.25
  303.25
  303.25
  303.249
  303.25
  303.25
  303.251
  303.251
  303.252
  303.251
  303.248
  303.237
  303.238
  303.238
  303.324
  303.383
  303.459
  302.661
  303.182
  303.268
  303.175
  302.8
)
;
  }
  ceiling
  {
    type wallHeatTransfer;
    Tinf uniform 300.35;
    alphaWall uniform 0.24;
    value nonuniform List<scalar> 43
(
  304.24
  304.239
  304.246
  304.365
  304.439
  304.491
  304.53
  304.561
  304.585
  304.603
  304.619
  304.633
  304.645
  304.658
  304.669
  304.68
  304.688
  304.694
  304.695
  304.693
  304.687
  304.68
  304.672
  304.663
  304.653
  304.644
  304.634
  304.624
  304.613
  304.599
  304.583
  304.561
  304.533
  304.501
  304.464
  304.428
  304.397
  304.394
  304.45
  304.501
  302.792
  302.737
  303.502
)
;
  }
  sWall
  {
    type wallHeatTransfer;
    Tinf uniform 306.167;
    alphaWall uniform 0.36;
    value uniform 304.756;
  }
  nWall
  {
    type wallHeatTransfer;
    Tinf uniform 305.15;
    alphaWall uniform 0.36;
    value nonuniform List<scalar> 6
(
  304.479
  304.49
  304.505
  304.833
  304.81
  304.93
)
;
  }
  sideWalls
  {
    type empty;
  }
  glass1
  {
    type wallHeatTransfer;
    Tinf uniform 306.167;
    alphaWall uniform 4.3;
    value nonuniform List<scalar> 9
(
  305.021
  304.874
  304.766
  304.678
  304.61
  304.565
  304.562
  304.609
  304.686
)
;
  }
  glass2
  {
    type wallHeatTransfer;
    Tinf uniform 305.15;
    alphaWall uniform 4.3;
    value nonuniform List<scalar> 2
(
  304.97
  305.031
)
;
  }
  sun
  {
    type wallHeatTransfer;
    Tinf uniform 300.35;
    alphaWall uniform 0.24;
    value nonuniform List<scalar> 14
(
  302.397
  302.352
  302.356
  302.367
  302.396
  302.519
  302.589
  302.631
  302.654
  302.664
  302.67
  302.674
  302.675
  302.672
)
;
  }
  heatsource1
  {
    type fixedGradient;
    gradient uniform 0;
  }
  heatsource2
  {
    type fixedGradient;
    gradient uniform 0;
  }
  Table_master
  {
    type zeroGradient;
  }
  Table_slave
  {
    type zeroGradient;
  }
  inlet
  {
    type fixedValue;
    value uniform 300.15;
  }
  outlet
  {
    type zeroGradient;
  }
} 	// ************************************************************************* //

