/*--------------------------------*- C++ -*----------------------------------*\
  =========                 |
  \\      /  F ield         | OpenFOAM: The Open Source CFD Toolbox
   \\    /   O peration     | Website:  https://openfoam.org
    \\  /    A nd           | Version:  6
     \\/     M anipulation  |
\*---------------------------------------------------------------------------*/
FoamFile
{
    version     2.0;
    format      ascii;
    class       surfaceScalarField;
    location    "400";
    object      phi;
}
// * * * * * * * * * * * * * * * * * * * * * * * * * * * * * * * * * * * * * //

dimensions      [1 0 -1 0 0 0 0];

internalField   nonuniform List<scalar> 
852
(
-0.00293664
0.00299301
-0.0039725
0.00103586
-0.0047602
0.000787711
-0.00537677
0.000616572
-0.00579278
0.000416007
-0.00598545
0.000192673
-0.00593284
-5.26081e-05
-0.00561732
-0.00031551
-0.00505114
-0.00056618
-0.00428614
-0.000765
-0.00340297
-0.000883165
-0.00249053
-0.000912433
-0.00162366
-0.000866865
-0.000824232
-0.00079943
-0.000822771
-0.000676671
0.000679397
-0.000346948
-0.000329721
0.000259567
-0.000606513
0.000730818
-0.00047125
0.00104272
-0.000311901
0.00123605
-0.000193328
0.00134082
-0.000104767
0.00139267
-5.18512e-05
0.00142177
-2.91011e-05
0.00143942
-1.76464e-05
0.0014491
-9.67272e-06
0.0014519
-2.79938e-06
0.0014459
5.99594e-06
0.00142278
2.31219e-05
0.00136023
6.25464e-05
0.00122085
0.000139384
0.000990748
0.000230105
0.000705171
0.000285578
0.000708841
-0.00209522
0.00523997
-0.00309961
0.00204025
-0.00390509
0.00159319
-0.0045089
0.00122038
-0.00491531
0.000822426
-0.00511068
0.000388041
-0.00506969
-9.35897e-05
-0.00477778
-0.000607425
-0.0042582
-0.00108575
-0.00357236
-0.00145083
-0.00280242
-0.00165311
-0.00202898
-0.00168587
-0.00132426
-0.00157158
-0.000776591
-0.00134709
-0.000574027
-0.00102533
-8.04015e-05
-0.000493674
-8.045e-05
0.000382197
0.000304959
0.000801968
-0.00074949
0.00104754
-0.000852086
0.00125435
-0.000678055
0.00140819
-0.000465736
0.0014979
-0.00028304
0.00151154
-0.000118406
0.00151522
-5.55288e-05
0.0015197
-3.35819e-05
0.00152346
-2.14097e-05
0.00152599
-1.21939e-05
0.00152722
-4.03417e-06
0.00152631
6.90652e-06
0.00151973
2.97078e-05
0.00147876
0.000103513
0.00130449
0.000313655
0.00100374
0.000530863
0.000625908
0.000663406
0.00134418
-0.00146676
0.00693878
-0.00233033
0.00290383
-0.00303929
0.00230215
-0.00355091
0.00173201
-0.00390106
0.00117258
-0.00407169
0.000558678
-0.00401806
-0.000147216
-0.00371794
-0.000907545
-0.00321622
-0.00158747
-0.00258888
-0.00207817
-0.0019176
-0.00232438
-0.00126671
-0.00233676
-0.000686914
-0.00215138
-0.000229827
-0.00180418
7.47305e-05
-0.00132989
0.000276672
-0.000695614
0.000196225
0.00147896
-0.00116588
0.00169272
-0.000963247
0.00167077
-0.000830133
0.00167062
-0.000677908
0.00169212
-0.000487235
0.00170312
-0.000294038
0.00158487
0.00152949
0.00149607
0.00147481
0.00146277
0.00145889
0.00146595
0.00149581
0.00159948
0.00131845
0.000594688
0.000977682
0.000871631
0.000546203
0.00109489
0.00190475
-0.00102473
0.00826393
-0.0017077
0.0035868
-0.00216987
0.00276432
-0.00249797
0.00206011
-0.00272253
0.00139715
-0.00281133
0.000647473
-0.00268941
-0.000269127
-0.00234411
-0.00125285
-0.00185892
-0.00207265
-0.00131752
-0.00261957
-0.000787019
-0.00285488
-0.000303321
-0.00282045
0.000115831
-0.00257053
0.000465269
-0.00215361
0.000771699
-0.00163631
0.00113915
-0.00106306
0.00189427
-0.000558891
0.00242817
-0.00052654
0.00202653
-0.000764224
0.0019017
-0.000838419
0.00179444
-0.000722869
0.00170319
-0.000586661
0.00165465
-0.000438695
0.0016372
-0.000276581
0.0017524
-0.000115353
0.00182689
-7.46395e-05
0.00188797
-6.12372e-05
0.00193561
-4.77914e-05
0.00195552
-2.00582e-05
0.00192623
2.91335e-05
0.00182281
0.000103263
0.00161287
0.000209789
0.00124239
0.000370333
0.0011089
0.000728172
0.000819478
0.00116106
0.000378294
0.00153607
0.00230187
-0.000718706
0.0093411
-0.00123652
0.00410462
-0.00132423
0.00285202
-0.00137698
0.00211287
-0.0013995
0.00141967
-0.00131197
0.00055995
-0.00103323
-0.000547871
-0.000624922
-0.00166115
-0.000193042
-0.00250453
0.000195906
-0.00300851
0.000514821
-0.00317379
0.000760877
-0.00306651
0.000946851
-0.0027565
0.00110108
-0.00230783
0.00125387
-0.0017891
0.00145645
-0.00126564
0.00173894
-0.000841382
0.00187592
-0.000663521
0.00178004
-0.000668339
0.00160719
-0.000665567
0.00146269
-0.000578372
0.00134534
-0.00046931
0.00126591
-0.000359257
0.00123749
-0.000248167
0.00128095
-0.000158807
0.00133075
-0.00012444
0.0013856
-0.000116087
0.00144186
-0.000104054
0.00148873
-6.69286e-05
0.00150624
1.16287e-05
0.00147356
0.000135941
0.00137891
0.000304438
0.00122343
0.000525815
0.00108682
0.000864777
0.000939761
0.00130811
0.000614168
0.00186166
0.000532956
0.00238308
-0.000977264
0.00151002
-0.00143795
0.000460481
-0.00139075
-0.00062742
0.0103759
-0.000982211
0.00445942
-0.000555787
0.0024256
-0.000191425
0.00174851
8.86622e-05
0.00113958
0.000476216
0.000172399
0.000973021
-0.00104467
0.00139302
-0.00208114
0.00167881
-0.00279032
0.00182605
-0.00315574
0.00186377
-0.00321151
0.00182058
-0.00302331
0.00172652
-0.00266243
0.00161764
-0.00219895
0.0015269
-0.00169836
0.00147982
-0.00121856
0.00147068
-0.000832237
0.00141671
-0.00060955
0.00127403
-0.000525662
0.00108554
-0.000477072
0.000920182
-0.000413017
0.000794653
-0.00034378
0.000714853
-0.000279457
0.000688316
-0.000221631
0.000712042
-0.000182532
0.000761897
-0.000174295
0.000827129
-0.00018132
0.000903022
-0.000179948
0.000983822
-0.000147728
0.00105744
-6.19857e-05
0.00110581
8.75698e-05
0.00112452
0.000285722
0.00112195
0.000528383
0.00114543
0.000841296
0.00124264
0.00121091
0.00142665
0.00167765
0.00186885
0.00194088
0.00212999
0.00124888
0.00174356
0.000846912
0.000409606
-0.000682697
0.0115104
-0.000562208
0.00433893
0.000573887
0.00128951
0.0013683
0.000954102
0.00205167
0.000456211
0.0027508
-0.000526729
0.00329367
-0.00158754
0.00357983
-0.0023673
0.00361394
-0.00282442
0.00344144
-0.00298323
0.00312431
-0.00289437
0.00272368
-0.00262268
0.0022927
-0.00223144
0.00187801
-0.00178427
0.00151501
-0.00133536
0.00121973
-0.000923275
0.000990808
-0.000603313
0.000793383
-0.000412125
0.00059475
-0.000327028
0.000405892
-0.000288213
0.000251638
-0.000258764
0.0001417
-0.000233841
7.72209e-05
-0.000214979
5.85764e-05
-0.000202986
7.92153e-05
-0.000203172
0.000124305
-0.000219386
0.000184574
-0.000241589
0.000259052
-0.000254427
0.000351918
-0.000240596
0.00046808
-0.000178149
0.000595007
-3.93589e-05
0.000721683
0.000159045
0.00085901
0.000391054
0.00104513
0.000655174
0.00132815
0.000927886
0.00177009
0.00123572
0.00243704
0.00127393
0.00297841
0.000707501
0.0030036
0.000821724
0.00347461
0.00259657
0.00941926
0.00330113
0.00363437
0.00370185
0.000888793
0.00438842
0.000267536
0.00520116
-0.000356529
0.00583033
-0.00115589
0.00605141
-0.00180862
0.00589298
-0.00220886
0.00543203
-0.00236346
0.00476098
-0.00231218
0.00397529
-0.00210868
0.00315899
-0.00180637
0.00237345
-0.0014459
0.00166767
-0.00107849
0.00107443
-0.000742108
0.000599944
-0.000448792
0.000249738
-0.000253106
-4.63176e-06
-0.000157755
-0.000200028
-0.000131632
-0.000353407
-0.000134835
-0.0004695
-0.00014267
-0.000550553
-0.000152789
-0.000600075
-0.000165457
-0.000621595
-0.000181467
-0.000621719
-0.000203049
-0.000610367
-0.000230739
-0.000593219
-0.000258739
-0.000569254
-0.000278393
-0.000530027
-0.000279824
-0.000456622
-0.000251555
-0.000319339
-0.000176643
-0.000134234
-2.60612e-05
8.27518e-05
0.000174068
0.000354547
0.000383377
0.000692107
0.000590325
0.0011356
0.000792223
0.00162005
0.00078948
0.0018219
0.000505651
0.00107825
0.00156537
0.00480359
0.00997381
0.0136002
0.0124633
0.00202576
0.0117527
0.00097813
0.0110952
0.000300931
0.0102139
-0.00027453
0.00906722
-0.000661948
0.00776034
-0.000901973
0.00638772
-0.000990832
0.00502296
-0.000947411
0.00373311
-0.000818829
0.00257078
-0.000644039
0.00155673
-0.000431849
0.000715451
-0.000237215
5.35217e-05
-8.01787e-05
-0.000412746
1.74741e-05
-0.000700452
3.45994e-05
-0.000878552
2.03453e-05
-0.00100479
-5.39479e-06
-0.00110638
-3.32495e-05
-0.00118961
-5.94338e-05
-0.00125717
-8.52367e-05
-0.00131268
-0.000109948
-0.00136038
-0.000133764
-0.00140685
-0.000156583
-0.00146019
-0.000177398
-0.00152791
-0.000191022
-0.00161714
-0.000189163
-0.00173645
-0.000160513
-0.00189633
-9.16787e-05
-0.00210251
2.9536e-05
-0.00234175
0.00021318
-0.0026408
0.000473118
-0.00308293
0.000825509
-0.00376043
0.00126782
-0.00473874
0.00177053
-0.00613308
0.00218383
-0.00782271
0.00219528
-0.00733842
0.00108108
-0.00225739
0.0046824
0.0035197
0.00379898
0.00186158
0.00418124
-8.13056e-05
0.00418568
-0.000278952
0.00378038
-0.000256647
0.00314856
-0.000270148
0.00239653
-0.000238807
0.00159215
-0.000143033
0.000777584
-4.26261e-06
5.30831e-06
0.000128234
-0.000633707
0.000207163
-0.00108474
0.000213816
-0.00137058
0.000205666
-0.00153314
0.000180027
-0.00163538
0.00013684
-0.00170876
9.37241e-05
-0.00176988
5.57233e-05
-0.00182743
2.43034e-05
-0.00188638
-4.82958e-07
-0.0019487
-2.2926e-05
-0.00201515
-4.34942e-05
-0.00208761
-6.13082e-05
-0.00216943
-7.47637e-05
-0.00226267
-8.41534e-05
-0.00236827
-8.54303e-05
-0.00248505
-7.23803e-05
-0.00260881
-3.67572e-05
-0.00273196
3.14711e-05
-0.00284232
0.000139897
-0.00293655
0.000307408
-0.00302259
0.000559155
-0.00310625
0.000909167
-0.00318348
0.00134505
-0.00320786
0.00179491
-0.00312456
0.00210053
-0.0027512
0.00182193
-0.00148978
-0.000180348
-0.00367478
-0.000550919
0.0041351
0.000285438
0.00102523
-8.76833e-05
0.000291825
-0.000455469
8.88355e-05
-0.000782073
6.99549e-05
-0.00114139
8.91668e-05
-0.00150786
0.000127654
-0.00182773
0.000176832
-0.0020538
0.000221814
-0.00217963
0.000254062
-0.002236
0.000263527
-0.00226063
0.000238441
-0.00225853
0.000203567
-0.00224632
0.000167819
-0.00224282
0.000133342
-0.00225279
0.00010369
-0.00227582
7.87515e-05
-0.00230945
5.79294e-05
-0.00235035
4.04146e-05
-0.00239979
2.65131e-05
-0.00245689
1.36103e-05
-0.00251967
1.46947e-06
-0.00258577
-8.67229e-06
-0.00265361
-1.63051e-05
-0.00271936
-1.96884e-05
-0.00277608
-1.56616e-05
-0.00281268
-1.53426e-07
-0.00281813
3.69142e-05
-0.00278227
0.000104041
-0.00268322
0.000208355
-0.0024894
0.000365339
-0.00217429
0.000594048
-0.00171971
0.000890476
-0.00109817
0.00117336
-0.000137641
0.00114
0.001151
0.000533287
0.00157592
-0.000605267
-0.00201954
-0.00725504
-0.0101574
-0.00597953
-0.00493421
-0.00463105
-0.00453511
-0.00446066
-0.00436896
-0.00424036
-0.00406393
-0.00384371
-0.00359236
-0.00333264
-0.00309902
-0.00290114
-0.00273972
-0.00261332
-0.002517
-0.00244594
-0.00239594
-0.00236363
-0.00234533
-0.00234
-0.00234682
-0.00236374
-0.0023882
-0.00241593
-0.00243946
-0.00244728
-0.00241779
-0.00232092
-0.00211947
-0.00176076
-0.00117308
-0.000288736
0.000878685
0.0020127
0.00253977
0.00192792
)
;

boundaryField
{
    floor
    {
        type            calculated;
        value           nonuniform List<scalar> 
29
(
0
0
0
0
0
0
0
0
0
0
0
0
0
0
0
0
0
0
0
0
-3.66917e-06
-9.43026e-06
-1.43628e-05
-1.8828e-05
-1.45771e-06
-2.72495e-06
-7.75733e-06
-8.12218e-06
-7.36313e-06
)
;
    }
    ceiling
    {
        type            calculated;
        value           nonuniform List<scalar> 
43
(
-4.5452e-05
-4.41277e-05
-4.28178e-05
-2.00921e-05
-1.13363e-05
-7.10717e-06
-4.49991e-06
-2.53543e-06
-9.4662e-07
3.97462e-07
1.59374e-06
2.71298e-06
3.80259e-06
4.81823e-06
5.69144e-06
6.39501e-06
6.94394e-06
7.36685e-06
7.68891e-06
7.92866e-06
8.10028e-06
8.21372e-06
8.27627e-06
8.28749e-06
8.24512e-06
8.15942e-06
8.03347e-06
7.86904e-06
7.66737e-06
7.42742e-06
7.16801e-06
6.8992e-06
6.62882e-06
6.36713e-06
6.1329e-06
5.94162e-06
5.98229e-06
6.2126e-06
6.5834e-06
7.7862e-06
1.09716e-05
7.93569e-06
-6.44701e-05
)
;
    }
    sWall
    {
        type            calculated;
        value           uniform -0.000274606;
    }
    nWall
    {
        type            calculated;
        value           nonuniform List<scalar> 6(-4.73995e-05 -5.68042e-05 -6.14053e-05 -7.23876e-05 -7.93231e-05 -9.94063e-05);
    }
    sideWalls
    {
        type            empty;
        value           nonuniform 0();
    }
    glass1
    {
        type            calculated;
        value           nonuniform List<scalar> 9(-5.63641e-05 -0.000151743 -0.000232046 -0.000300412 -0.00035846 -0.000407423 -0.000451741 -0.000505442 -0.000565521);
    }
    glass2
    {
        type            calculated;
        value           nonuniform List<scalar> 2(-0.000250727 -0.000277441);
    }
    sun
    {
        type            calculated;
        value           uniform 0;
    }
    heatsource1
    {
        type            calculated;
        value           nonuniform List<scalar> 3(2.04e-07 2.03949e-07 2.03967e-07);
    }
    heatsource2
    {
        type            calculated;
        value           nonuniform List<scalar> 4(5.11063e-08 5.1229e-08 0 0);
    }
    Table_master
    {
        type            calculated;
        value           nonuniform List<scalar> 9(-1.52996e-07 -1.53077e-07 -1.53106e-07 -1.53126e-07 -1.5314e-07 -1.5315e-07 -1.53154e-07 -1.53148e-07 -1.53116e-07);
    }
    Table_slave
    {
        type            calculated;
        value           nonuniform List<scalar> 9(1.52872e-07 1.52897e-07 1.52879e-07 1.52864e-07 1.52859e-07 1.52863e-07 1.52878e-07 1.5292e-07 1.53001e-07);
    }
    inlet
    {
        type            calculated;
        value           uniform -0.00617633;
    }
    outlet
    {
        type            calculated;
        value           nonuniform List<scalar> 2(0.00757509 0.00294654);
    }
}


// ************************************************************************* //
