/*--------------------------------*- C++ -*----------------------------------*\
  =========                 |
  \\      /  F ield         | OpenFOAM: The Open Source CFD Toolbox
   \\    /   O peration     | Website:  https://openfoam.org
    \\  /    A nd           | Version:  6
     \\/     M anipulation  |
\*---------------------------------------------------------------------------*/
FoamFile
{
    version     2.0;
    format      ascii;
    class       volScalarField;
    location    "180";
    object      alphat;
}
// * * * * * * * * * * * * * * * * * * * * * * * * * * * * * * * * * * * * * //

dimensions      [1 -1 -1 0 0 0 0];

internalField   nonuniform List<scalar> 
459
(
0.00125624
0.0014516
0.00155673
0.00170372
0.00179848
0.00180861
0.00174894
0.00167076
0.00158868
0.00150754
0.00143099
0.00135829
0.00128262
0.00119512
0.00109165
0.000667559
0.00085017
0.000953647
0.00099225
0.000977931
0.000946467
0.000893025
0.000837254
0.000786708
0.000742154
0.00070293
0.000668199
0.000636979
0.000608784
0.000582178
0.000555432
0.000526025
0.000483182
0.000433949
0.00157946
0.00517487
0.00573368
0.00592893
0.00577616
0.0059525
0.00596888
0.00571314
0.00533974
0.00495908
0.00448868
0.00388748
0.00320781
0.00247738
0.00175336
0.00109057
0.000958427
0.0008798
0.00295568
0.00288772
0.00323127
0.0035305
0.00347287
0.00253782
0.00212704
0.00185749
0.00166191
0.00151372
0.00139887
0.00131006
0.00121484
0.00110217
0.000991276
0.000919137
0.000756554
0.000486407
0.00186345
0.00735314
0.00734996
0.00670173
0.00574642
0.00596098
0.00636288
0.00634319
0.00609531
0.00582796
0.00550257
0.00499656
0.00429359
0.00344471
0.00256133
0.00175782
0.000982612
0.000931137
0.00294713
0.00303926
0.00368339
0.00426848
0.00411859
0.00116405
0.00102726
0.000912675
0.000818122
0.000740138
0.000675614
0.000622249
0.000580936
0.0005528
0.0006294
0.000783094
0.000845134
0.000527282
0.00213672
0.00897853
0.00836947
0.00675916
0.00522598
0.0055869
0.00627963
0.00640282
0.00617284
0.00594792
0.00574738
0.00539694
0.00482209
0.00405867
0.00320201
0.00234931
0.00146963
0.000986241
0.001444
0.00222607
0.00342656
0.00459576
0.00536463
0.00509359
0.00127217
0.00115936
0.0010696
0.000992411
0.000920507
0.000849836
0.000777874
0.000702449
0.000618182
0.000591767
0.000716036
0.00099926
0.000590417
0.00239078
0.0103296
0.00924555
0.00650615
0.00482361
0.00543783
0.00637456
0.00658956
0.00630092
0.00606034
0.00593305
0.00567224
0.00521144
0.00459259
0.00388989
0.0031965
0.00259638
0.00261014
0.00335697
0.00452914
0.00572194
0.00663
0.00711738
0.00705336
0.00590141
0.00518655
0.00455029
0.00393057
0.00331971
0.00271525
0.00212228
0.00155522
0.00101619
0.000727468
0.000749207
0.00107815
0.00086081
0.000671438
0.000641772
0.000589617
0.00260137
0.011158
0.00972414
0.00581249
0.00456622
0.00545181
0.0066121
0.00689856
0.00658469
0.00648359
0.00643652
0.00617531
0.00581677
0.00539208
0.0049561
0.00463412
0.00457323
0.00525195
0.00638475
0.00742331
0.0081723
0.00855331
0.00857677
0.00826395
0.00758093
0.0067437
0.00581297
0.00486679
0.00393321
0.00301836
0.00216495
0.00152085
0.00107903
0.000945875
0.000989122
0.00120594
0.00118379
0.00107239
0.00109206
0.000645602
0.00268673
0.0107128
0.00814845
0.00491549
0.00433075
0.00556396
0.00692724
0.00724106
0.00703876
0.00706742
0.00699498
0.00682988
0.00667142
0.00653116
0.0064572
0.00659144
0.00706184
0.00799033
0.00888489
0.00943688
0.00963682
0.00949918
0.00908621
0.00843907
0.00755643
0.00655577
0.00551007
0.00447132
0.0034943
0.00264425
0.00199876
0.00160654
0.00142474
0.00140584
0.00144518
0.00144666
0.00148689
0.00146752
0.00158443
0.000716853
0.00262475
0.00761319
0.00529144
0.00372608
0.0040858
0.00579628
0.0073157
0.00758627
0.00740906
0.00733421
0.0072198
0.00720577
0.0072919
0.00746051
0.007735
0.00817194
0.00880271
0.00948812
0.0099266
0.00998554
0.00969201
0.00908439
0.00826502
0.00734064
0.00638622
0.00543151
0.00449733
0.00362832
0.00288604
0.00232195
0.00195123
0.0017362
0.00160214
0.00149643
0.00141241
0.00135876
0.00136183
0.00132482
0.00125464
0.000806431
0.00249627
0.00263132
0.00231489
0.00251387
0.00407256
0.00635326
0.00783755
0.00810492
0.00772633
0.00737845
0.00727891
0.00737509
0.00758248
0.00786929
0.00822919
0.00864604
0.00905564
0.00929941
0.00922913
0.00880995
0.00810121
0.00723095
0.00632391
0.00547489
0.00472963
0.00408907
0.003548
0.00311838
0.00281319
0.00262188
0.00250064
0.00238234
0.00220741
0.00196457
0.001704
0.0014905
0.00134677
0.00125859
0.00123591
0.00134185
0.000531752
0.0028198
0.00574059
0.00786561
0.00841529
0.00809587
0.00777073
0.00766854
0.00773069
0.00785671
0.00800271
0.00815321
0.00829312
0.00839001
0.00838744
0.00821784
0.00786175
0.00736482
0.00680607
0.00626023
0.00577448
0.00536893
0.00504567
0.00480109
0.0046341
0.0045442
0.00452183
0.004539
0.00454546
0.00447433
0.00426093
0.00387595
0.00336276
0.00283539
0.00240724
0.00217834
0.00226852
0.001566
0.00281194
0.00911049
0.0097626
0.00909067
0.00828948
0.00784694
0.00777364
0.00787714
0.00801047
0.00811408
0.00817699
0.00820383
0.00819908
0.00816084
0.00808038
0.00794857
0.00776676
0.00755034
0.00732097
0.00709789
0.00689342
0.00671592
0.00657323
0.00647446
0.00642842
0.00643992
0.00650434
0.00660218
0.0066946
0.00672187
0.0066088
0.00628429
0.00572172
0.00498494
0.00423568
0.00386906
0.00419363
0.00191446
0.00183898
0.00197908
0.00216157
0.00226209
0.00219906
0.00210092
0.00201963
0.00197908
0.00196433
0.00196005
0.00195959
0.00196098
0.00196374
0.00196744
0.00197112
0.00197313
0.00197148
0.00196472
0.00195309
0.00193832
0.00192262
0.00190788
0.0018954
0.00188612
0.00188075
0.00187985
0.00188369
0.00189194
0.00190333
0.00191524
0.00192359
0.00192323
0.00190886
0.00187654
0.00182453
0.00175269
0.00166662
0.00161395
0.00165174
0.00157167
)
;

boundaryField
{
    floor
    {
        type            compressible::alphatWallFunction;
        Prt             0.85;
        value           nonuniform List<scalar> 
29
(
0.000155415
9.47153e-05
0.000121306
0.00013606
0.000141513
0.000139492
0.000135039
0.000127436
0.000119445
0.000112148
0.000105669
9.99261e-05
9.48089e-05
9.01813e-05
8.59781e-05
8.19898e-05
7.79576e-05
7.34959e-05
6.69383e-05
5.93123e-05
5.93115e-05
6.74422e-05
7.37e-05
8.32473e-05
0.000155413
9.47142e-05
0.000125556
0.000132866
0.000140638
)
;
    }
    ceiling
    {
        type            compressible::alphatWallFunction;
        Prt             0.85;
        value           nonuniform List<scalar> 
43
(
0.000256417
0.000274763
0.000298453
0.000311415
0.000303307
0.000290626
0.000280077
0.000274801
0.00027288
0.000272324
0.000272265
0.000272447
0.000272808
0.000273291
0.000273773
0.000274036
0.00027382
0.000272939
0.000271421
0.000269489
0.000267436
0.000265504
0.000263869
0.000262651
0.000261945
0.000261826
0.000262328
0.000263409
0.000264902
0.000266462
0.000267559
0.000267514
0.000265636
0.000261402
0.000254569
0.000245094
0.000233683
0.000226666
0.000231697
0.000221011
0.000341282
0.000358399
0.000381222
)
;
    }
    sWall
    {
        type            compressible::alphatWallFunction;
        Prt             0.85;
        value           uniform 0.000256008;
    }
    nWall
    {
        type            compressible::alphatWallFunction;
        Prt             0.85;
        value           nonuniform List<scalar> 6(8.28608e-05 9.12097e-05 0.000101706 0.000219941 0.000266053 0.00022071);
    }
    sideWalls
    {
        type            empty;
    }
    glass1
    {
        type            compressible::alphatWallFunction;
        Prt             0.85;
        value           nonuniform List<scalar> 9(0.000176649 0.000220217 0.000257696 0.00029319 0.000325761 0.000352488 0.000363274 0.000355493 0.000339283);
    }
    glass2
    {
        type            compressible::alphatWallFunction;
        Prt             0.85;
        value           nonuniform List<scalar> 2(0.000114577 0.000189528);
    }
    sun
    {
        type            compressible::alphatWallFunction;
        Prt             0.85;
        value           nonuniform List<scalar> 
14
(
0.000178166
0.000204749
0.000218887
0.000238474
0.000250995
0.000252324
0.000244453
0.000234092
0.000223157
0.000212285
0.000201969
0.000192112
0.00018179
0.000169765
)
;
    }
    heatsource1
    {
        type            compressible::alphatWallFunction;
        Prt             0.85;
        value           nonuniform List<scalar> 3(9.51189e-05 9.07236e-05 8.29352e-05);
    }
    heatsource2
    {
        type            compressible::alphatWallFunction;
        Prt             0.85;
        value           nonuniform List<scalar> 4(0.000155113 0.000136552 0.00013655 0.000139967);
    }
    Table_master
    {
        type            compressible::alphatWallFunction;
        Prt             0.85;
        value           nonuniform List<scalar> 9(0.000165315 0.000146249 0.00013005 0.000116503 0.00010519 9.57203e-05 8.78058e-05 8.16219e-05 7.73795e-05);
    }
    Table_slave
    {
        type            compressible::alphatWallFunction;
        Prt             0.85;
        value           nonuniform List<scalar> 9(0.000180204 0.000164668 0.000152184 0.000141349 0.000131167 0.000121068 0.000110681 9.96691e-05 8.71942e-05);
    }
    inlet
    {
        type            fixedValue;
        value           uniform 1.94e-05;
    }
    outlet
    {
        type            zeroGradient;
    }
}


// ************************************************************************* //
