/*--------------------------------*- C++ -*----------------------------------*\
  =========                 |
  \\      /  F ield         | OpenFOAM: The Open Source CFD Toolbox
   \\    /   O peration     | Website:  https://openfoam.org
    \\  /    A nd           | Version:  6
     \\/     M anipulation  |
\*---------------------------------------------------------------------------*/
FoamFile
{
    version     2.0;
    format      ascii;
    class       volScalarField;
    location    "800";
    object      epsilon;
}
// * * * * * * * * * * * * * * * * * * * * * * * * * * * * * * * * * * * * * //

dimensions      [0 2 -3 0 0 0 0];

internalField   nonuniform List<scalar> 
459
(
0.00043974
0.000572977
0.000605028
0.000696222
0.000788279
0.000881251
0.000978864
0.00108267
0.00116144
0.00119806
0.00117764
0.00109475
0.000958168
0.000793414
0.000636462
3.75041e-05
6.93278e-05
9.79452e-05
9.50656e-05
8.50698e-05
7.33639e-05
6.05985e-05
4.95854e-05
4.08312e-05
3.39742e-05
2.85777e-05
2.42853e-05
2.08465e-05
1.80458e-05
1.5693e-05
1.36206e-05
1.16613e-05
1.03604e-05
7.80661e-06
0.00111558
0.00160598
0.000542957
0.000526622
0.00055164
0.000591573
0.000649554
0.000727663
0.000803625
0.000854692
0.000861162
0.000815056
0.000721964
0.000604696
0.000526556
0.000670282
0.000144432
4.82412e-05
0.000119141
0.00012309
0.000110119
9.25774e-05
7.66694e-05
6.81125e-05
5.51143e-05
4.37537e-05
3.47575e-05
2.78097e-05
2.24633e-05
1.83541e-05
1.52034e-05
1.28936e-05
1.15085e-05
1.0919e-05
2.46565e-05
1.7385e-05
0.00203674
0.0039406
0.00067888
0.000504518
0.000527586
0.000590659
0.000683497
0.0008016
0.000913901
0.000987481
0.00100302
0.000958493
0.000863567
0.000738651
0.000630685
0.000569753
0.000642196
0.000391026
0.000270957
0.000200782
0.000153039
0.000119275
9.91731e-05
0.000177643
0.000122594
8.76843e-05
6.49076e-05
4.95668e-05
3.89151e-05
3.13284e-05
2.58394e-05
2.18866e-05
1.65966e-05
1.37839e-05
4.35134e-05
2.6784e-05
0.00330113
0.00817981
0.00109107
0.000517801
0.000519984
0.000609818
0.000753348
0.000935169
0.00108479
0.00116587
0.00117214
0.0011127
0.00100038
0.000851856
0.000715079
0.000614062
0.000585359
0.00112137
0.000617183
0.000367516
0.000244511
0.000175019
0.000132405
0.000112462
0.000254358
0.000192065
0.000154272
0.000129026
0.000109889
9.4155e-05
8.05544e-05
6.77928e-05
5.47962e-05
3.23043e-05
2.09833e-05
6.70387e-05
3.60224e-05
0.00504289
0.0145587
0.0021849
0.000639534
0.000549705
0.000667302
0.000921723
0.00119837
0.00136271
0.00142052
0.00139381
0.00130053
0.00115263
0.000968762
0.000778994
0.000609212
0.000479583
0.000416298
0.000332908
0.000258882
0.000200384
0.000156335
0.000124257
0.000103533
9.97402e-05
9.24831e-05
8.52288e-05
7.81546e-05
7.08573e-05
6.32772e-05
5.58455e-05
4.88563e-05
4.24549e-05
3.37212e-05
2.56139e-05
4.99518e-05
3.95948e-05
6.75629e-05
0.000120367
0.000169963
0.00746387
0.0215791
0.00492438
0.00128913
0.000874939
0.0010011
0.00147567
0.00173898
0.00181866
0.00179518
0.00170771
0.00156309
0.0013623
0.00112031
0.000868013
0.00064028
0.000465462
0.000353347
0.000280125
0.000223879
0.000177669
0.000141613
0.000115433
9.86143e-05
9.06627e-05
8.70486e-05
8.46279e-05
8.17238e-05
7.73274e-05
7.06221e-05
6.17047e-05
5.25001e-05
4.40846e-05
3.65544e-05
3.14992e-05
3.95635e-05
4.098e-05
5.13889e-05
0.000221616
0.000192527
0.0102514
0.0257679
0.010075
0.00420173
0.00288963
0.00278975
0.00284134
0.0027239
0.00254059
0.00234858
0.0021487
0.00191572
0.00163121
0.00130619
0.000976828
0.00068624
0.000470176
0.000333593
0.000251204
0.000195928
0.000154798
0.000125197
0.000105905
9.55363e-05
9.23678e-05
9.33309e-05
9.56311e-05
9.78504e-05
9.89586e-05
9.74472e-05
9.02965e-05
7.97099e-05
6.92129e-05
6.02059e-05
5.64151e-05
6.2117e-05
7.79753e-05
0.00012355
0.000288206
0.000280831
0.0108634
0.0279448
0.015628
0.0107299
0.00811007
0.00631822
0.0049833
0.00407439
0.00347584
0.00306188
0.00271845
0.00235979
0.00194563
0.00149618
0.00106202
0.000693496
0.00043866
0.000289604
0.000205624
0.000158861
0.000128445
0.000109267
9.89462e-05
9.56153e-05
9.75526e-05
0.000103
0.000110754
0.000120542
0.000132494
0.000146525
0.000161633
0.00017038
0.000178515
0.00019618
0.000233482
0.000346799
0.000635143
0.00120292
0.00359623
0.00108038
0.0100215
0.0167195
0.0133205
0.010113
0.00779997
0.0062556
0.00526083
0.00463496
0.00421093
0.00383618
0.0034024
0.002857
0.00220966
0.00156125
0.000996511
0.000549868
0.000321071
0.000213866
0.00015812
0.000126513
0.000107669
9.74139e-05
9.35022e-05
9.44232e-05
9.91449e-05
0.000107063
0.000118157
0.000133105
0.000153187
0.000180236
0.00021668
0.000266212
0.000334503
0.000438307
0.00059214
0.000803425
0.00104935
0.00126893
0.00143788
0.000904162
0.00367257
0.0056667
0.00653132
0.00663203
0.00645325
0.00608252
0.00548153
0.00466491
0.00370885
0.00266748
0.00159616
0.000903098
0.000506818
0.000291757
0.000190052
0.000140917
0.000115202
0.000100672
9.24027e-05
8.82733e-05
8.69775e-05
8.78433e-05
9.06674e-05
9.56614e-05
0.000103342
0.000114632
0.000130924
0.00015424
0.000187498
0.000234891
0.000301357
0.000393696
0.000515734
0.000657714
0.00078433
0.00084597
0.000811851
0.00052281
0.00277115
0.00636169
0.00710318
0.00591282
0.00530708
0.00463533
0.00372843
0.00277262
0.00192839
0.00126475
0.000764203
0.000451483
0.000280623
0.000195405
0.00015661
0.00013936
0.000131523
0.000127556
0.000125017
0.000122944
0.000121099
0.000119645
0.00011913
0.000120367
0.000123984
0.000130815
0.000142076
0.000159565
0.00018593
0.000224491
0.000279647
0.000355947
0.00045413
0.000566416
0.000652304
0.000746058
0.000751885
0.000554722
0.00198055
0.00235736
0.0026514
0.00331176
0.00299982
0.0026407
0.00242652
0.00215029
0.00179163
0.00140194
0.00103364
0.000724122
0.000489019
0.000331555
0.000237221
0.000182406
0.000149438
0.00012854
0.000114786
0.000105662
9.98006e-05
9.6419e-05
9.51702e-05
9.61099e-05
9.94867e-05
0.000105138
0.000113383
0.000124775
0.000140171
0.000160834
0.000187278
0.000220826
0.000263513
0.000317912
0.000386335
0.00047896
0.000514146
0.000476693
0.000395464
0.000320761
)
;

boundaryField
{
    floor
    {
        Cmu             0.09;
        kappa           0.41;
        E               9.8;
        type            epsilonWallFunction;
        value           nonuniform List<scalar> 
29
(
0.000636462
3.75041e-05
6.93278e-05
9.79452e-05
9.50656e-05
8.50698e-05
7.33639e-05
6.05985e-05
4.95854e-05
4.08312e-05
3.39742e-05
2.85777e-05
2.42853e-05
2.08465e-05
1.80458e-05
1.5693e-05
1.36206e-05
1.16613e-05
1.03604e-05
7.80661e-06
7.80661e-06
1.7385e-05
2.6784e-05
3.60224e-05
0.000636462
3.75041e-05
4.82412e-05
0.000391026
0.00112137
)
;
    }
    ceiling
    {
        Cmu             0.09;
        kappa           0.41;
        E               9.8;
        type            epsilonWallFunction;
        value           nonuniform List<scalar> 
43
(
0.00198055
0.00235736
0.0026514
0.00331176
0.00299982
0.0026407
0.00242652
0.00215029
0.00179163
0.00140194
0.00103364
0.000724122
0.000489019
0.000331555
0.000237221
0.000182406
0.000149438
0.00012854
0.000114786
0.000105662
9.98006e-05
9.6419e-05
9.51702e-05
9.61099e-05
9.94867e-05
0.000105138
0.000113383
0.000124775
0.000140171
0.000160834
0.000187278
0.000220826
0.000263513
0.000317912
0.000386335
0.00047896
0.000514146
0.000476693
0.000395464
0.000320761
0.0100215
0.0167195
0.00277115
)
;
    }
    sWall
    {
        Cmu             0.09;
        kappa           0.41;
        E               9.8;
        type            epsilonWallFunction;
        value           uniform 0.00198055;
    }
    nWall
    {
        Cmu             0.09;
        kappa           0.41;
        E               9.8;
        type            epsilonWallFunction;
        value           nonuniform List<scalar> 6(0.000169963 0.000192527 0.000280831 0.00052281 0.000554722 0.000320761);
    }
    sideWalls
    {
        type            empty;
    }
    glass1
    {
        Cmu             0.09;
        kappa           0.41;
        E               9.8;
        type            epsilonWallFunction;
        value           nonuniform List<scalar> 9(0.00043974 0.00111558 0.00203674 0.00330113 0.00504289 0.00746387 0.0102514 0.0108634 0.0100215);
    }
    glass2
    {
        Cmu             0.09;
        kappa           0.41;
        E               9.8;
        type            epsilonWallFunction;
        value           nonuniform List<scalar> 2(0.00108038 0.000904162);
    }
    sun
    {
        Cmu             0.09;
        kappa           0.41;
        E               9.8;
        type            epsilonWallFunction;
        value           nonuniform List<scalar> 
14
(
0.00043974
0.000572977
0.000605028
0.000696222
0.000788279
0.000881251
0.000978864
0.00108267
0.00116144
0.00119806
0.00117764
0.00109475
0.000958168
0.000793414
)
;
    }
    heatsource1
    {
        Cmu             0.09;
        kappa           0.41;
        E               9.8;
        type            epsilonWallFunction;
        value           nonuniform List<scalar> 3(6.75629e-05 0.000120367 0.000169963);
    }
    heatsource2
    {
        Cmu             0.09;
        kappa           0.41;
        E               9.8;
        type            epsilonWallFunction;
        value           nonuniform List<scalar> 4(0.000670282 0.000144432 0.000144432 0.000642196);
    }
    Table_master
    {
        Cmu             0.09;
        kappa           0.41;
        E               9.8;
        type            epsilonWallFunction;
        value           nonuniform List<scalar> 9(0.000177643 0.000122594 8.76843e-05 6.49076e-05 4.95668e-05 3.89151e-05 3.13284e-05 2.58394e-05 2.18866e-05);
    }
    Table_slave
    {
        Cmu             0.09;
        kappa           0.41;
        E               9.8;
        type            epsilonWallFunction;
        value           nonuniform List<scalar> 9(0.000254358 0.000192065 0.000154272 0.000129026 0.000109889 9.4155e-05 8.05544e-05 6.77928e-05 5.47962e-05);
    }
    inlet
    {
        type            turbulentMixingLengthDissipationRateInlet;
        mixingLength    0.01;
        phi             phi;
        k               k;
        value           uniform 0.000101881;
    }
    outlet
    {
        type            zeroGradient;
    }
}


// ************************************************************************* //
