/*--------------------------------*- C++ -*----------------------------------*\
  =========                 |
  \\      /  F ield         | OpenFOAM: The Open Source CFD Toolbox
   \\    /   O peration     | Website:  https://openfoam.org
    \\  /    A nd           | Version:  6
     \\/     M anipulation  |
\*---------------------------------------------------------------------------*/
FoamFile
{
    version     2.0;
    format      ascii;
    class       volScalarField;
    location    "500";
    object      epsilon;
}
// * * * * * * * * * * * * * * * * * * * * * * * * * * * * * * * * * * * * * //

dimensions      [0 2 -3 0 0 0 0];

internalField   nonuniform List<scalar> 
459
(
0.000359138
0.000457469
0.000474407
0.000541578
0.000608205
0.000673925
0.000740758
0.000812329
0.000876234
0.000915997
0.000918832
0.000876287
0.000791174
0.000682564
0.00057614
2.92518e-05
5.43821e-05
7.08983e-05
6.50558e-05
5.67577e-05
4.84318e-05
4.03981e-05
3.36338e-05
2.82001e-05
2.38643e-05
2.03857e-05
1.75853e-05
1.53017e-05
1.3401e-05
1.17733e-05
1.03125e-05
8.90628e-06
8.20752e-06
6.42296e-06
0.000958269
0.00146921
0.000432628
0.000412557
0.000426685
0.00044991
0.000483958
0.000533425
0.000591245
0.000640746
0.000663888
0.000647298
0.000589322
0.000508886
0.00046352
0.000596043
0.000175313
4.4792e-05
9.4018e-05
9.06364e-05
7.77539e-05
6.34765e-05
5.14134e-05
4.43041e-05
3.61404e-05
2.91794e-05
2.3621e-05
1.92585e-05
1.58594e-05
1.32097e-05
1.11503e-05
9.66565e-06
8.84992e-06
8.62384e-06
2.48167e-05
1.63242e-05
0.00180961
0.0038124
0.000559736
0.000394467
0.000403123
0.000439408
0.000494279
0.000569858
0.000657374
0.000732043
0.000770414
0.000760385
0.000703117
0.000616705
0.000533034
0.000488356
0.000541648
0.0003451
0.000215234
0.000148411
0.000107454
8.10108e-05
6.55435e-05
0.00011217
8.03837e-05
5.95664e-05
4.555e-05
3.58282e-05
2.88931e-05
2.38271e-05
2.00701e-05
1.72891e-05
1.33923e-05
1.14315e-05
4.63914e-05
2.64238e-05
0.00301988
0.00811994
0.000939248
0.000402093
0.000388918
0.000437621
0.000516091
0.00063047
0.000758463
0.000854079
0.000895121
0.000878023
0.000809209
0.000708117
0.000592515
0.000500556
0.000459712
0.000806919
0.000435406
0.000248205
0.000159405
0.000111272
8.30693e-05
7.01361e-05
0.000156133
0.000123594
0.000104266
9.14724e-05
8.13629e-05
7.18968e-05
6.34068e-05
5.49989e-05
4.58759e-05
2.80037e-05
1.87194e-05
7.51351e-05
3.64676e-05
0.00472074
0.0146168
0.00194299
0.000487763
0.000390953
0.000439718
0.000551583
0.000756091
0.000939938
0.00104239
0.00106799
0.00102742
0.000931893
0.000798948
0.000647461
0.000501136
0.000378799
0.000306898
0.000230141
0.000168491
0.000123762
9.34453e-05
7.39336e-05
6.31636e-05
6.29518e-05
6.13133e-05
5.9524e-05
5.73316e-05
5.41474e-05
4.96596e-05
4.48836e-05
4.03208e-05
3.61656e-05
2.9764e-05
2.3338e-05
5.34527e-05
4.18001e-05
7.21817e-05
0.000126705
0.000177577
0.00710791
0.021708
0.00448353
0.000974275
0.000576947
0.000564537
0.000714014
0.00109406
0.0012821
0.0013393
0.00131563
0.00123328
0.0011
0.000924907
0.000727088
0.000533988
0.000372577
0.000260743
0.000188943
0.000139385
0.000104104
8.10858e-05
6.78414e-05
6.2073e-05
6.20502e-05
6.44157e-05
6.69213e-05
6.82725e-05
6.73747e-05
6.31835e-05
5.54943e-05
4.72319e-05
3.96956e-05
3.31072e-05
2.89331e-05
3.98946e-05
4.22891e-05
5.36101e-05
0.000234163
0.000200598
0.00997315
0.0259136
0.00948997
0.00339887
0.00199693
0.00158512
0.0017512
0.00189326
0.00188746
0.0018
0.00167347
0.00151406
0.0013149
0.00107737
0.00082091
0.000577559
0.0003786
0.000243464
0.000162523
0.000115248
8.6896e-05
7.16293e-05
6.56076e-05
6.59806e-05
7.06393e-05
7.73145e-05
8.42872e-05
9.05919e-05
9.50904e-05
9.58855e-05
8.94926e-05
7.77736e-05
6.63468e-05
5.69244e-05
5.30192e-05
5.96264e-05
7.61851e-05
0.000123594
0.00029652
0.000284031
0.0106674
0.029005
0.0158174
0.0104038
0.00714747
0.00524466
0.00413302
0.00335123
0.00281329
0.00243473
0.00213771
0.0018591
0.00155978
0.00123113
0.000896462
0.000593404
0.000354191
0.000204672
0.000123343
8.87327e-05
7.28386e-05
6.71053e-05
6.78348e-05
7.29452e-05
8.11558e-05
9.1514e-05
0.000103511
0.000117124
0.000132428
0.000149175
0.000166092
0.000174539
0.000180396
0.000197047
0.000233879
0.000350754
0.0006543
0.00126519
0.00382462
0.00112512
0.00989474
0.0167988
0.0135117
0.0102149
0.00775972
0.00602453
0.00481162
0.00398971
0.00342349
0.00299372
0.00260701
0.00220527
0.00176777
0.00130643
0.000870706
0.000509239
0.000244614
0.00013496
8.86678e-05
7.00312e-05
6.36358e-05
6.38318e-05
6.81268e-05
7.5373e-05
8.51146e-05
9.72963e-05
0.000112262
0.000130822
0.000154286
0.000184546
0.000224174
0.000276557
0.000347888
0.000456959
0.000619603
0.000842759
0.00110026
0.00132598
0.00149651
0.000931811
0.00437719
0.0065911
0.00637786
0.00584781
0.00532062
0.00474688
0.00414626
0.00352792
0.00288881
0.00223885
0.00159965
0.000975869
0.000482863
0.000234071
0.000119255
7.55665e-05
5.90795e-05
5.36362e-05
5.33198e-05
5.5886e-05
6.04089e-05
6.65717e-05
7.43905e-05
8.4124e-05
9.62979e-05
0.000111779
0.000131893
0.000158628
0.000194959
0.000245809
0.00031621
0.000413434
0.000541395
0.000688785
0.000816697
0.000871751
0.000823239
0.000524307
0.00311667
0.00633548
0.00636994
0.00530446
0.00463317
0.00413818
0.00352352
0.00278284
0.00197072
0.001278
0.000749335
0.000394537
0.000198518
0.000109018
7.22495e-05
5.94291e-05
5.58718e-05
5.59118e-05
5.76243e-05
6.05483e-05
6.45748e-05
6.97635e-05
7.63172e-05
8.45733e-05
9.50524e-05
0.000108558
0.000126328
0.000150251
0.000183088
0.000228257
0.000290466
0.000374557
0.000481361
0.000602723
0.000695136
0.000793535
0.000746936
0.000551009
0.00205902
0.00244014
0.00274476
0.00324846
0.00275588
0.0022568
0.00185676
0.00151715
0.00125673
0.00100112
0.000745517
0.000512104
0.00032071
0.000190883
0.000116763
7.96043e-05
6.23077e-05
5.49258e-05
5.27019e-05
5.3442e-05
5.62312e-05
6.03994e-05
6.57836e-05
7.2488e-05
8.07073e-05
9.07219e-05
0.000102921
0.000117857
0.000136371
0.000159835
0.000189644
0.000226611
0.000272867
0.00033118
0.000404415
0.000505782
0.000544442
0.000506715
0.000417733
0.000335654
)
;

boundaryField
{
    floor
    {
        Cmu             0.09;
        kappa           0.41;
        E               9.8;
        type            epsilonWallFunction;
        value           nonuniform List<scalar> 
29
(
0.00057614
2.92518e-05
5.43821e-05
7.08983e-05
6.50558e-05
5.67577e-05
4.84318e-05
4.03981e-05
3.36338e-05
2.82001e-05
2.38643e-05
2.03857e-05
1.75853e-05
1.53017e-05
1.3401e-05
1.17733e-05
1.03125e-05
8.90628e-06
8.20752e-06
6.42296e-06
6.42296e-06
1.63242e-05
2.64238e-05
3.64676e-05
0.00057614
2.92518e-05
4.4792e-05
0.0003451
0.000806919
)
;
    }
    ceiling
    {
        Cmu             0.09;
        kappa           0.41;
        E               9.8;
        type            epsilonWallFunction;
        value           nonuniform List<scalar> 
43
(
0.00205902
0.00244014
0.00274476
0.00324846
0.00275588
0.0022568
0.00185676
0.00151715
0.00125673
0.00100112
0.000745517
0.000512104
0.00032071
0.000190883
0.000116763
7.96043e-05
6.23077e-05
5.49258e-05
5.27019e-05
5.3442e-05
5.62312e-05
6.03994e-05
6.57836e-05
7.2488e-05
8.07073e-05
9.07219e-05
0.000102921
0.000117857
0.000136371
0.000159835
0.000189644
0.000226611
0.000272867
0.00033118
0.000404415
0.000505782
0.000544442
0.000506715
0.000417733
0.000335654
0.00989474
0.0167988
0.00311667
)
;
    }
    sWall
    {
        Cmu             0.09;
        kappa           0.41;
        E               9.8;
        type            epsilonWallFunction;
        value           uniform 0.00205902;
    }
    nWall
    {
        Cmu             0.09;
        kappa           0.41;
        E               9.8;
        type            epsilonWallFunction;
        value           nonuniform List<scalar> 6(0.000177577 0.000200598 0.000284031 0.000524307 0.000551009 0.000335654);
    }
    sideWalls
    {
        type            empty;
    }
    glass1
    {
        Cmu             0.09;
        kappa           0.41;
        E               9.8;
        type            epsilonWallFunction;
        value           nonuniform List<scalar> 9(0.000359138 0.000958269 0.00180961 0.00301988 0.00472074 0.00710791 0.00997315 0.0106674 0.00989474);
    }
    glass2
    {
        Cmu             0.09;
        kappa           0.41;
        E               9.8;
        type            epsilonWallFunction;
        value           nonuniform List<scalar> 2(0.00112512 0.000931811);
    }
    sun
    {
        Cmu             0.09;
        kappa           0.41;
        E               9.8;
        type            epsilonWallFunction;
        value           nonuniform List<scalar> 
14
(
0.000359138
0.000457469
0.000474407
0.000541578
0.000608205
0.000673925
0.000740758
0.000812329
0.000876234
0.000915997
0.000918832
0.000876287
0.000791174
0.000682564
)
;
    }
    heatsource1
    {
        Cmu             0.09;
        kappa           0.41;
        E               9.8;
        type            epsilonWallFunction;
        value           nonuniform List<scalar> 3(7.21817e-05 0.000126705 0.000177577);
    }
    heatsource2
    {
        Cmu             0.09;
        kappa           0.41;
        E               9.8;
        type            epsilonWallFunction;
        value           nonuniform List<scalar> 4(0.000596043 0.000175313 0.000175313 0.000541648);
    }
    Table_master
    {
        Cmu             0.09;
        kappa           0.41;
        E               9.8;
        type            epsilonWallFunction;
        value           nonuniform List<scalar> 9(0.00011217 8.03837e-05 5.95664e-05 4.555e-05 3.58282e-05 2.88931e-05 2.38271e-05 2.00701e-05 1.72891e-05);
    }
    Table_slave
    {
        Cmu             0.09;
        kappa           0.41;
        E               9.8;
        type            epsilonWallFunction;
        value           nonuniform List<scalar> 9(0.000156133 0.000123594 0.000104266 9.14724e-05 8.13629e-05 7.18968e-05 6.34068e-05 5.49989e-05 4.58759e-05);
    }
    inlet
    {
        type            turbulentMixingLengthDissipationRateInlet;
        mixingLength    0.01;
        phi             phi;
        k               k;
        value           uniform 0.000101881;
    }
    outlet
    {
        type            zeroGradient;
    }
}


// ************************************************************************* //
