/*--------------------------------*- C++ -*----------------------------------*\
  =========                 |
  \\      /  F ield         | OpenFOAM: The Open Source CFD Toolbox
   \\    /   O peration     | Website:  https://openfoam.org
    \\  /    A nd           | Version:  6
     \\/     M anipulation  |
\*---------------------------------------------------------------------------*/
FoamFile
{
    version     2.0;
    format      ascii;
    class       surfaceScalarField;
    location    "200";
    object      phi;
}
// * * * * * * * * * * * * * * * * * * * * * * * * * * * * * * * * * * * * * //

dimensions      [1 0 -1 0 0 0 0];

internalField   nonuniform List<scalar> 
852
(
-0.00287421
0.00293225
-0.00378736
0.000913172
-0.00453441
0.000747058
-0.00515842
0.00062403
-0.00562962
0.000471214
-0.00592901
0.000299404
-0.00603456
0.000105569
-0.00592058
-0.000113966
-0.00556637
-0.000354194
-0.00497934
-0.000587012
-0.00420258
-0.000776744
-0.00330285
-0.000899716
-0.00233955
-0.000963285
-0.00129729
-0.00104225
-0.0012957
-0.000495876
0.000498988
-3.31473e-05
-0.000462712
0.00055514
-0.000588272
0.00093766
-0.000382505
0.00116693
-0.000229255
0.001298
-0.000131057
0.00136102
-6.29992e-05
0.00138766
-2.66217e-05
0.00139826
-1.05817e-05
0.00140021
-1.93646e-06
0.00139601
4.21688e-06
0.00138609
9.9368e-06
0.00136801
1.80966e-05
0.00133346
3.45697e-05
0.00126107
7.24144e-05
0.00111624
0.000144852
0.000892951
0.000223313
0.000664888
0.000228089
0.000669194
-0.0020534
0.00514143
-0.00298996
0.00184974
-0.00377808
0.00153519
-0.00439633
0.0012423
-0.00485835
0.000933248
-0.00515865
0.000599722
-0.00527617
0.000223099
-0.00518265
-0.000207463
-0.00486179
-0.000675046
-0.00433168
-0.0011171
-0.00364744
-0.00146097
-0.00288235
-0.00166479
-0.00211495
-0.00173066
-0.00146961
-0.00168758
-0.00129167
-0.00147362
-0.000423026
-0.00086868
-0.000423062
0.000725338
-0.000218664
0.0010116
-0.000748954
0.00115035
-0.000727014
0.00130462
-0.000536757
0.00141962
-0.000344238
0.00147951
-0.00019093
0.00148307
-6.65406e-05
0.00148302
-2.65621e-05
0.00148396
-1.14994e-05
0.00148476
-2.72107e-06
0.00148491
4.07943e-06
0.00148421
1.06522e-05
0.00148179
2.05368e-05
0.00147406
4.23198e-05
0.0014327
0.000113791
0.00126021
0.000317361
0.000964688
0.000518861
0.000603446
0.000589356
0.00128322
-0.00145015
0.00682893
-0.00228725
0.00268685
-0.00299518
0.00224314
-0.00352662
0.00177376
-0.00393234
0.00133898
-0.00420885
0.000876248
-0.00432658
0.000340849
-0.00424071
-0.000293321
-0.00392833
-0.000987411
-0.00342391
-0.0016215
-0.00279721
-0.00208765
-0.00212431
-0.00233768
-0.00148077
-0.00237418
-0.0009487
-0.00221964
-0.000559639
-0.00186267
-0.000136754
-0.00129155
-0.000559801
0.00117367
-0.00138319
0.00141258
-0.000987843
0.00143245
-0.00074687
0.00146448
-0.000568778
0.00150728
-0.000387014
0.00151835
-0.000201986
0.00145198
0.00142558
0.00141425
0.0014117
0.00141595
0.00142677
0.00144748
0.00148997
0.00160393
0.00132755
0.000593763
0.000986093
0.000860338
0.000546236
0.00102924
0.00184532
-0.00102976
0.00816471
-0.00172606
0.00338317
-0.00220259
0.00271968
-0.00256388
0.00213507
-0.00285304
0.00162815
-0.00306167
0.00108489
-0.00315232
0.000431519
-0.00304853
-0.000397099
-0.00272454
-0.00131138
-0.00224941
-0.00209662
-0.00170628
-0.00263077
-0.00116219
-0.00288175
-0.000668327
-0.00286803
-0.000253438
-0.00263451
0.000107399
-0.00222349
0.000493594
-0.00167773
0.00106492
-0.00113111
0.00187617
-0.000802405
0.00143658
-0.000943581
0.00137822
-0.000929466
0.00136158
-0.000730209
0.00135127
-0.000558454
0.00137312
-0.00040885
0.00143448
-0.000263332
0.00157857
-0.000144221
0.00170288
-0.000124448
0.00181981
-0.000117066
0.00192258
-0.000102909
0.00199267
-7.02249e-05
0.00200254
-1.00061e-05
0.00192296
7.94424e-05
0.00172152
0.000201303
0.00134478
0.000376608
0.00119116
0.000747394
0.000868218
0.0011833
0.000358917
0.00153856
0.00222485
-0.000733081
0.00926161
-0.00129352
0.00394363
-0.00141495
0.00284112
-0.00153489
0.00225503
-0.00165011
0.00174338
-0.00173231
0.00116711
-0.00174241
0.000441631
-0.0015664
-0.000573093
-0.00121961
-0.00165815
-0.000808453
-0.00250776
-0.000404467
-0.00303474
-4.79984e-05
-0.0032382
0.00024036
-0.00315637
0.00046096
-0.00285509
0.000643957
-0.00240647
0.000845125
-0.00187888
0.00109127
-0.00137724
0.00130999
-0.00102111
0.00126138
-0.00089495
0.00113829
-0.000806356
0.0010644
-0.000656306
0.00102418
-0.000518216
0.00102296
-0.000407613
0.00107271
-0.000313062
0.0011802
-0.000251699
0.00129068
-0.000234907
0.00140343
-0.000229796
0.00151135
-0.000210815
0.00160028
-0.000159131
0.00164797
-5.76827e-05
0.00162987
9.75571e-05
0.00153319
0.00029801
0.00136272
0.000547088
0.00120294
0.000907195
0.00102186
0.0013644
0.000631141
0.0019293
0.000449605
0.00240642
-0.00104278
0.00149221
-0.00149699
0.000454043
-0.00144777
-0.000646139
0.0103201
-0.00106078
0.00435829
-0.000687967
0.00246833
-0.000463462
0.00203054
-0.000363919
0.00164386
-0.000278972
0.00108218
-9.90442e-05
0.000261718
0.000220239
-0.000892361
0.000559627
-0.00199752
0.000840326
-0.00278844
0.00103338
-0.00322778
0.00113483
-0.00333963
0.00116071
-0.00318223
0.00113603
-0.0028304
0.00108816
-0.00235858
0.00105087
-0.00184157
0.00103196
-0.00135832
0.00100085
-0.000989985
0.000888656
-0.000782737
0.000737394
-0.000655076
0.000626249
-0.000545143
0.000566645
-0.000458593
0.000556917
-0.000397865
0.00059837
-0.000354495
0.000679834
-0.000333143
0.000778219
-0.000333271
0.000885229
-0.000336787
0.000996932
-0.000322499
0.00110745
-0.000269634
0.00120484
-0.000155049
0.00126442
3.79926e-05
0.00127704
0.00028541
0.00125868
0.000565465
0.00126214
0.000903757
0.00133767
0.00128888
0.00149775
0.00176924
0.00191489
0.0019893
0.00215939
0.00124773
0.00176998
0.000843481
0.000381404
-0.000769412
0.011545
-0.000707552
0.00429644
0.000321214
0.00143957
0.000862234
0.00148953
0.00115036
0.00135575
0.00145413
0.000778421
0.00187613
-0.000160271
0.00227985
-0.00129607
0.00251489
-0.00223255
0.00257765
-0.00285119
0.00248904
-0.00313915
0.00228278
-0.00313336
0.00199995
-0.00289938
0.001682
-0.00251244
0.00136302
-0.00203959
0.00107191
-0.00155045
0.000818017
-0.0011044
0.000600328
-0.000772277
0.000394239
-0.00057663
0.000218062
-0.000478878
9.63669e-05
-0.000423427
3.05072e-05
-0.000392712
1.16556e-05
-0.000378993
3.32269e-05
-0.000376045
8.3867e-05
-0.000383762
0.000150445
-0.000399829
0.000227183
-0.000413504
0.000315401
-0.000410697
0.000420064
-0.000374277
0.00054591
-0.000280876
0.000684825
-0.000100904
0.000819454
0.000150799
0.000952847
0.00043209
0.00113255
0.00072407
0.00141248
0.00100897
0.00185917
0.00132257
0.00252393
0.00132456
0.00306126
0.00071043
0.00309251
0.000812257
0.00353831
0.00247455
0.00957892
0.00308908
0.00368192
0.00326242
0.00126625
0.00346888
0.00128309
0.00368195
0.00114269
0.00406114
0.000399243
0.0045042
-0.000603316
0.00470008
-0.00149193
0.00460954
-0.00214199
0.00427817
-0.00251981
0.00377691
-0.00263787
0.00317433
-0.00253077
0.0025326
-0.00225764
0.00190324
-0.00188306
0.00131668
-0.00145302
0.000802729
-0.00103648
0.000369014
-0.00067067
3.56125e-05
-0.000438855
-0.000205613
-0.000335383
-0.00037124
-0.000313229
-0.000480756
-0.000313889
-0.000549825
-0.000323621
-0.000589777
-0.000339019
-0.00060758
-0.00035822
-0.000610491
-0.000380828
-0.000605701
-0.000404597
-0.000595998
-0.000423186
-0.000578752
-0.000427922
-0.000544634
-0.000408375
-0.000473128
-0.000352362
-0.000329417
-0.000244596
-0.000125303
-5.3297e-05
0.000110678
0.000196127
0.000396348
0.000438418
0.000748267
0.000657074
0.0012099
0.000860952
0.00169671
0.000837781
0.00188435
0.000522809
0.0011045
0.00159212
0.0049052
0.0101361
0.0138102
0.0122576
0.00281883
0.010968
0.00257267
0.0100296
0.00208112
0.0093217
0.00110718
0.00852266
0.000195739
0.00756563
-0.00053489
0.00651182
-0.00108817
0.00542519
-0.00143316
0.00435196
-0.00156462
0.00331932
-0.00149811
0.00235802
-0.00129632
0.00149979
-0.00102482
0.000742081
-0.000695289
0.000109114
-0.000403494
-0.00035655
-0.000204986
-0.000650169
-0.000145215
-0.000834515
-0.000151014
-0.000968856
-0.000178865
-0.00107429
-0.00020843
-0.00116162
-0.000236268
-0.00123826
-0.000262357
-0.00130974
-0.000286712
-0.0013818
-0.000308749
-0.00146058
-0.00032579
-0.00155171
-0.00033204
-0.00166095
-0.000318655
-0.00179564
-0.00027367
-0.0019657
-0.000182281
-0.00218038
-2.98959e-05
-0.00242417
0.00019051
-0.00271808
0.000490061
-0.00316004
0.000880404
-0.00385751
0.00135457
-0.00487421
0.00187767
-0.00632361
0.00228719
-0.00806475
0.00226398
-0.00754816
0.00107555
-0.00235154
0.00482751
0.00404961
0.0044362
0.00296397
0.0052773
0.00124002
0.00550398
0.000880496
0.00526788
0.000431852
0.00480762
-7.46261e-05
0.0041749
-0.000455448
0.00341402
-0.000672268
0.0025852
-0.000735783
0.00172573
-0.000638626
0.0008925
-0.000463081
0.000129567
-0.000261864
-0.000497639
-6.80631e-05
-0.000924185
2.30741e-05
-0.00116718
3.80353e-05
-0.00131817
5.79967e-06
-0.0014325
-3.66648e-05
-0.00153588
-7.54577e-05
-0.00163681
-0.000107481
-0.0017391
-0.000133949
-0.00184574
-0.000155693
-0.00195931
-0.000173114
-0.0020823
-0.00018574
-0.00221658
-0.00019149
-0.00236241
-0.000186188
-0.00251751
-0.000163528
-0.00267582
-0.000115341
-0.00282623
-3.18438e-05
-0.00295435
9.82401e-05
-0.00305515
0.000291333
-0.00313896
0.0005739
-0.00321796
0.000959428
-0.00329528
0.0014319
-0.00332668
0.00190909
-0.00325356
0.0022141
-0.00289907
0.00190951
-0.00162358
-0.000199914
-0.00389836
-0.000601392
0.0047047
0.000777276
0.0015853
0.00116206
0.000855238
0.00144156
0.000600998
0.00154863
0.000324787
0.00141831
5.57099e-05
0.00109738
-0.000134508
0.000619691
-0.000194564
3.0098e-05
-0.000146175
-0.000581043
-2.7468e-05
-0.00110374
5.96382e-05
-0.00147365
0.000108065
-0.0016676
0.000125906
-0.00175383
0.000109331
-0.00179462
7.88493e-05
-0.00183215
4.33508e-05
-0.00188059
1.18028e-05
-0.001943
-1.30231e-05
-0.00201804
-3.24231e-05
-0.00210409
-4.78713e-05
-0.00219968
-6.00782e-05
-0.00230331
-6.94568e-05
-0.00241316
-7.58671e-05
-0.00252632
-7.83059e-05
-0.00263781
-7.46716e-05
-0.00273965
-6.16636e-05
-0.00282013
-3.48462e-05
-0.00286365
1.17006e-05
-0.00285466
8.92741e-05
-0.0027709
0.000207603
-0.00257861
0.00038163
-0.00225085
0.000631685
-0.00177692
0.000958005
-0.00113858
0.00127078
-0.000154739
0.00123029
0.00116721
0.000587585
0.0015763
-0.000608977
-0.00223776
-0.00757422
-0.0103166
-0.00556994
-0.00396168
-0.00309005
-0.0024763
-0.00214161
-0.00207852
-0.00220768
-0.00239851
-0.00254223
-0.00256824
-0.00250787
-0.0023997
-0.00227422
-0.00216575
-0.00208806
-0.00204607
-0.00203578
-0.00205043
-0.00208456
-0.00213422
-0.00219614
-0.00226749
-0.00234529
-0.00242555
-0.00250219
-0.00256583
-0.00260264
-0.00259288
-0.00250553
-0.00229982
-0.00192005
-0.00129023
-0.000334084
0.000934762
0.002163
0.00274842
0.00213714
)
;

boundaryField
{
    floor
    {
        type            calculated;
        value           nonuniform List<scalar> 
29
(
0
0
0
0
0
0
0
0
0
0
0
0
0
0
0
0
0
0
0
0
-4.27695e-06
-1.05504e-05
-1.58341e-05
-2.05912e-05
-1.56781e-06
-3.09525e-06
-7.67069e-06
-9.13163e-06
-8.82924e-06
)
;
    }
    ceiling
    {
        type            calculated;
        value           nonuniform List<scalar> 
43
(
-4.45626e-05
-4.32536e-05
-4.19296e-05
-2.29562e-05
-1.63788e-05
-1.2738e-05
-9.88636e-06
-7.36143e-06
-5.32559e-06
-3.71619e-06
-2.44205e-06
-1.43835e-06
-7.08392e-07
-8.79002e-08
4.51922e-07
8.78819e-07
1.1822e-06
1.39001e-06
1.53591e-06
1.64565e-06
1.7346e-06
1.80894e-06
1.86994e-06
1.91826e-06
1.95444e-06
1.97907e-06
1.99273e-06
1.99597e-06
1.98902e-06
1.97151e-06
1.9439e-06
1.91568e-06
1.89189e-06
1.87883e-06
1.88742e-06
1.95468e-06
2.0674e-06
2.19238e-06
2.33122e-06
3.2242e-06
1.09976e-05
7.84026e-06
-5.37081e-05
)
;
    }
    sWall
    {
        type            calculated;
        value           uniform -0.000268652;
    }
    nWall
    {
        type            calculated;
        value           nonuniform List<scalar> 6(-4.94013e-05 -5.91648e-05 -6.43707e-05 -7.67321e-05 -8.4276e-05 -0.000103827);
    }
    sideWalls
    {
        type            empty;
        value           nonuniform 0();
    }
    glass1
    {
        type            calculated;
        value           nonuniform List<scalar> 9(-5.80324e-05 -0.000155761 -0.000237333 -0.000306004 -0.000363803 -0.000412337 -0.00045545 -0.00050848 -0.000568125);
    }
    glass2
    {
        type            calculated;
        value           nonuniform List<scalar> 2(-0.000262361 -0.000291395);
    }
    sun
    {
        type            calculated;
        value           uniform 0;
    }
    heatsource1
    {
        type            calculated;
        value           nonuniform List<scalar> 3(2.04276e-07 2.04206e-07 2.04218e-07);
    }
    heatsource2
    {
        type            calculated;
        value           nonuniform List<scalar> 4(5.10622e-08 5.12101e-08 0 0);
    }
    Table_master
    {
        type            calculated;
        value           nonuniform List<scalar> 9(-1.53213e-07 -1.53267e-07 -1.53286e-07 -1.53299e-07 -1.53306e-07 -1.5331e-07 -1.5331e-07 -1.53303e-07 -1.5327e-07);
    }
    Table_slave
    {
        type            calculated;
        value           nonuniform List<scalar> 9(1.53124e-07 1.53119e-07 1.53083e-07 1.53052e-07 1.53031e-07 1.53033e-07 1.5304e-07 1.53076e-07 1.53155e-07);
    }
    inlet
    {
        type            calculated;
        value           uniform -0.00605829;
    }
    outlet
    {
        type            calculated;
        value           nonuniform List<scalar> 2(0.00788745 0.00278561);
    }
}


// ************************************************************************* //
