/*--------------------------------*- C++ -*----------------------------------*\
  =========                 |
  \\      /  F ield         | OpenFOAM: The Open Source CFD Toolbox
   \\    /   O peration     | Website:  https://openfoam.org
    \\  /    A nd           | Version:  6
     \\/     M anipulation  |
\*---------------------------------------------------------------------------*/
FoamFile
{
    version     2.0;
    format      ascii;
    class       volScalarField;
    location    "100";
    object      alphat;
}
// * * * * * * * * * * * * * * * * * * * * * * * * * * * * * * * * * * * * * //

dimensions      [1 -1 -1 0 0 0 0];

internalField   nonuniform List<scalar> 
459
(
0.00281997
0.0027205
0.00261968
0.00253116
0.00245612
0.0023909
0.00233286
0.00227948
0.00222826
0.00217687
0.00212286
0.00206304
0.00199237
0.00190016
0.00177883
0.000366066
0.000360201
0.000342652
0.000329411
0.000298993
0.000249339
0.000205972
0.000182397
0.000175056
0.000180537
0.000200127
0.000236272
0.00028663
0.000345238
0.000407175
0.000473169
0.000512606
0.000527453
0.000438094
0.00319552
0.00350602
0.00353147
0.00343155
0.00337195
0.00335777
0.00336913
0.00337016
0.00333939
0.00327253
0.00316696
0.00301929
0.00281928
0.00253325
0.00214741
0.00169684
0.00150876
0.000493867
0.00132757
0.00123477
0.00102984
0.000760664
0.000525388
0.000404215
0.000378253
0.00037054
0.000363006
0.00035929
0.000379323
0.000456871
0.000623986
0.000915231
0.00134644
0.00167359
0.00188507
0.000567347
0.00342911
0.00389467
0.00360635
0.00327113
0.0031599
0.0031904
0.00329046
0.00340309
0.003488
0.00352182
0.00348841
0.00337779
0.00318249
0.00288447
0.00250576
0.00214308
0.00151637
0.000590833
0.00159146
0.00138199
0.00103153
0.000703051
0.00043252
0.000223962
0.000192127
0.000182269
0.000180123
0.000183794
0.000195554
0.000222355
0.000280002
0.00042072
0.00145947
0.00187249
0.00207012
0.000666301
0.00360636
0.0042083
0.0032993
0.00271851
0.00276668
0.0030782
0.00345145
0.00372682
0.00385215
0.00385062
0.00376032
0.00360383
0.00338309
0.00307832
0.00270733
0.00234772
0.00183134
0.00110409
0.00113658
0.0016335
0.00138689
0.00112329
0.000937986
0.000804195
0.000695964
0.00072481
0.00075111
0.000775204
0.00079756
0.00081788
0.000835374
0.000850166
0.000860721
0.00159356
0.00211126
0.0022889
0.000775839
0.00376484
0.00433824
0.002703
0.00233105
0.00336541
0.00438642
0.00506113
0.00534964
0.00503296
0.00455025
0.00412146
0.00377914
0.00347551
0.00314351
0.00277438
0.00242173
0.00201966
0.00145145
0.00177499
0.00242218
0.00251913
0.00261306
0.00276576
0.00293279
0.00307015
0.00318101
0.00327041
0.00334508
0.00340912
0.00346081
0.00349204
0.00348855
0.00338787
0.00323355
0.00307038
0.00301447
0.00188455
0.000835375
0.000765899
0.00067457
0.00392724
0.00427015
0.00214263
0.0028305
0.00476375
0.00556477
0.00590101
0.00595447
0.00547261
0.00474783
0.00417281
0.00375962
0.00342549
0.00308696
0.00273367
0.00239854
0.00208644
0.00174556
0.00236072
0.003118
0.00339094
0.00361226
0.00383334
0.00401511
0.00413396
0.004191
0.00420871
0.00419986
0.00417338
0.00413013
0.00406099
0.00394638
0.00374319
0.00340822
0.00308766
0.00301117
0.00297097
0.0024529
0.00210926
0.000787748
0.0041174
0.00407037
0.00211739
0.00261129
0.00452198
0.00511228
0.00519681
0.00509844
0.00481751
0.00436654
0.00393427
0.00357786
0.0032689
0.00295979
0.0026454
0.002355
0.00213928
0.00205141
0.00288435
0.00364162
0.00398421
0.0042617
0.00451071
0.00469696
0.00479726
0.00482355
0.00479359
0.00472416
0.00463047
0.00451714
0.00437247
0.0041681
0.00385158
0.00339445
0.00293063
0.00271177
0.00278797
0.00278447
0.00261378
0.000870191
0.00438398
0.00430332
0.00279752
0.00193185
0.00349402
0.00410509
0.00416398
0.00411519
0.0040121
0.00381857
0.00357405
0.00332637
0.00308321
0.0028311
0.0025718
0.00234252
0.0022232
0.00238822
0.00334087
0.00403233
0.00441637
0.00476988
0.00507214
0.00528949
0.00540612
0.00543625
0.00539521
0.00530383
0.00518277
0.00504192
0.00486909
0.00463123
0.00424518
0.00362369
0.0028448
0.00219115
0.00180154
0.00159645
0.00145147
0.000983065
0.00482891
0.00549213
0.005134
0.00240259
0.00278197
0.00345531
0.00355307
0.00354067
0.00347618
0.00339791
0.00327918
0.00313471
0.00297229
0.00278934
0.002589
0.00241331
0.00237065
0.00277615
0.00372805
0.00436092
0.00489949
0.00539203
0.00573277
0.00595698
0.00606437
0.00607971
0.006027
0.00592991
0.0058099
0.00568095
0.00553603
0.00536565
0.00510541
0.00462996
0.003867
0.00305203
0.0024246
0.00205931
0.00197307
0.00153694
0.00806406
0.0034188
0.00331228
0.00355653
0.00358701
0.00359518
0.00354924
0.00345722
0.00335881
0.00325931
0.0031485
0.00301567
0.00285648
0.00270963
0.00272343
0.00345504
0.00434709
0.00520027
0.00597356
0.00652726
0.00684637
0.00698489
0.00699498
0.00692234
0.00680323
0.00666491
0.00652746
0.00640422
0.00630163
0.00622614
0.00620562
0.0062789
0.00635533
0.00612072
0.00553018
0.00478303
0.00418832
0.00171168
0.0035073
0.00313455
0.00420327
0.00402543
0.0038589
0.00366108
0.0034716
0.00328415
0.00314472
0.00306274
0.00300775
0.00295322
0.00287647
0.00279124
0.00281698
0.00351038
0.00445891
0.00549607
0.00646973
0.00721451
0.00762547
0.00776384
0.0077333
0.00762741
0.00751068
0.00741846
0.00736232
0.00733538
0.00731805
0.0072863
0.00722962
0.00715838
0.0070724
0.00689487
0.00649525
0.00587675
0.00527029
0.00195746
0.00157736
0.00152089
0.00195142
0.00141414
0.00138401
0.00135898
0.0013524
0.00135034
0.00135177
0.00135664
0.00136035
0.00136386
0.00136804
0.00137199
0.00137315
0.0013674
0.00134796
0.0013487
0.00138568
0.00144867
0.00152446
0.00160665
0.00168538
0.00174368
0.00177791
0.00179239
0.00179429
0.00179068
0.00178698
0.00178599
0.00178723
0.00178681
0.00177961
0.00176331
0.00173964
0.00170672
0.00165814
0.00159461
0.00155348
0.00141974
)
;

boundaryField
{
    floor
    {
        type            compressible::alphatWallFunction;
        Prt             0.85;
        value           nonuniform List<scalar> 
29
(
0.000248397
4.84809e-05
4.75553e-05
4.47546e-05
4.26268e-05
3.76817e-05
2.94459e-05
2.20613e-05
1.79539e-05
1.66552e-05
1.76108e-05
2.10141e-05
2.71856e-05
3.55828e-05
4.51149e-05
5.49603e-05
6.52383e-05
7.1301e-05
7.35728e-05
5.98241e-05
5.98233e-05
7.9617e-05
9.43841e-05
0.000110425
0.000248395
4.84802e-05
6.84654e-05
8.3183e-05
0.0001571
)
;
    }
    ceiling
    {
        type            compressible::alphatWallFunction;
        Prt             0.85;
        value           nonuniform List<scalar> 
43
(
0.000221865
0.000214293
0.000271201
0.000199762
0.00019568
0.000192281
0.000191385
0.000191105
0.000191301
0.000191964
0.000192469
0.000192945
0.000193513
0.00019405
0.000194207
0.000193423
0.000190773
0.00019087
0.000195892
0.000204414
0.000214613
0.000225611
0.000236087
0.00024381
0.000248332
0.00025024
0.00025049
0.000250014
0.000249524
0.000249393
0.000249553
0.000249492
0.000248534
0.000246374
0.000243241
0.000238881
0.00023243
0.000223963
0.000218464
0.000200463
0.000627172
0.000705507
0.00046762
)
;
    }
    sWall
    {
        type            compressible::alphatWallFunction;
        Prt             0.85;
        value           uniform 0.000220987;
    }
    nWall
    {
        type            compressible::alphatWallFunction;
        Prt             0.85;
        value           nonuniform List<scalar> 6(9.54819e-05 0.000112031 0.000123913 0.000239258 0.000271602 0.000200196);
    }
    sideWalls
    {
        type            empty;
    }
    glass1
    {
        type            compressible::alphatWallFunction;
        Prt             0.85;
        value           nonuniform List<scalar> 9(0.00037774 0.000424303 0.000452976 0.000474598 0.000493835 0.000513461 0.000536339 0.000568261 0.00062117);
    }
    glass2
    {
        type            compressible::alphatWallFunction;
        Prt             0.85;
        value           nonuniform List<scalar> 2(0.000139542 0.000215603);
    }
    sun
    {
        type            compressible::alphatWallFunction;
        Prt             0.85;
        value           nonuniform List<scalar> 
14
(
0.000382202
0.000369678
0.000356938
0.00034571
0.00033616
0.000327834
0.000320405
0.000313555
0.000306966
0.000300339
0.000293355
0.000285599
0.000276404
0.000264353
)
;
    }
    heatsource1
    {
        type            compressible::alphatWallFunction;
        Prt             0.85;
        value           nonuniform List<scalar> 3(0.000118973 0.000108933 9.55636e-05);
    }
    heatsource2
    {
        type            compressible::alphatWallFunction;
        Prt             0.85;
        value           nonuniform List<scalar> 4(0.000237405 0.000212297 0.000212295 0.000213317);
    }
    Table_master
    {
        type            compressible::alphatWallFunction;
        Prt             0.85;
        value           nonuniform List<scalar> 9(2.51102e-05 1.96215e-05 1.78957e-05 1.75161e-05 1.81562e-05 2.02006e-05 2.48012e-05 3.44567e-05 5.70224e-05);
    }
    Table_slave
    {
        type            compressible::alphatWallFunction;
        Prt             0.85;
        value           nonuniform List<scalar> 9(9.87381e-05 0.000102966 0.000106804 0.000110305 0.000113541 0.000116471 0.000118983 0.000121101 0.000122607);
    }
    inlet
    {
        type            fixedValue;
        value           uniform 1.94e-05;
    }
    outlet
    {
        type            zeroGradient;
    }
}


// ************************************************************************* //
