/*--------------------------------*- C++ -*----------------------------------*\
  =========                 |
  \\      /  F ield         | OpenFOAM: The Open Source CFD Toolbox
   \\    /   O peration     | Website:  https://openfoam.org
    \\  /    A nd           | Version:  6
     \\/     M anipulation  |
\*---------------------------------------------------------------------------*/
FoamFile
{
    version     2.0;
    format      ascii;
    class       volScalarField;
    location    "260";
    object      T;
}
// * * * * * * * * * * * * * * * * * * * * * * * * * * * * * * * * * * * * * //

dimensions      [0 0 0 1 0 0 0];

internalField   nonuniform List<scalar> 
459
(
302.655
302.681
302.708
302.727
302.737
302.744
302.75
302.756
302.761
302.766
302.77
302.774
302.777
302.779
302.77
303.039
303.089
303.127
303.154
303.172
303.183
303.192
303.201
303.208
303.215
303.222
303.229
303.236
303.242
303.249
303.255
303.261
303.268
303.244
302.691
302.741
302.787
302.817
302.834
302.842
302.848
302.851
302.853
302.853
302.851
302.848
302.841
302.829
302.808
302.817
302.834
303.074
303.114
303.163
303.206
303.238
303.259
303.274
303.288
303.302
303.315
303.328
303.34
303.351
303.36
303.363
303.359
303.347
303.327
303.354
302.693
302.766
302.851
302.905
302.93
302.939
302.94
302.937
302.931
302.923
302.915
302.904
302.89
302.872
302.848
302.842
302.847
303.02
303.095
303.179
303.247
303.292
303.316
303.327
303.341
303.355
303.37
303.385
303.4
303.415
303.426
303.43
303.423
303.404
303.377
303.39
302.676
302.77
302.922
303.023
303.054
303.052
303.037
303.019
303.003
302.987
302.971
302.954
302.934
302.912
302.885
302.87
302.865
302.89
302.984
303.102
303.223
303.318
303.38
303.414
303.449
303.483
303.515
303.546
303.577
303.607
303.638
303.673
303.698
303.498
303.454
303.423
303.419
302.641
302.751
302.996
303.17
303.184
303.159
303.128
303.102
303.079
303.058
303.038
303.017
302.992
302.966
302.938
302.924
302.927
302.991
303.119
303.262
303.385
303.475
303.531
303.566
303.599
303.627
303.651
303.672
303.691
303.708
303.725
303.74
303.727
303.588
303.52
303.487
303.455
303.47
303.577
303.828
302.581
302.693
303.015
303.288
303.305
303.278
303.246
303.218
303.193
303.172
303.151
303.13
303.108
303.086
303.065
303.068
303.111
303.236
303.374
303.5
303.597
303.66
303.695
303.715
303.729
303.743
303.757
303.768
303.778
303.785
303.79
303.788
303.766
303.702
303.646
303.627
303.531
303.517
303.643
303.834
302.481
302.55
302.926
303.419
303.476
303.459
303.433
303.411
303.392
303.376
303.362
303.35
303.339
303.331
303.332
303.358
303.434
303.558
303.66
303.741
303.797
303.825
303.835
303.838
303.838
303.841
303.845
303.849
303.851
303.851
303.85
303.845
303.832
303.806
303.77
303.715
303.605
303.575
303.68
303.854
302.328
302.282
302.614
303.552
303.725
303.738
303.727
303.716
303.706
303.699
303.694
303.691
303.691
303.698
303.711
303.739
303.788
303.846
303.892
303.925
303.943
303.948
303.945
303.938
303.931
303.927
303.924
303.921
303.919
303.916
303.913
303.908
303.9
303.885
303.858
303.805
303.701
303.64
303.712
303.891
302.115
301.84
301.795
303.572
304.043
304.122
304.13
304.124
304.113
304.1
304.087
304.075
304.059
304.039
304.022
304.013
304.015
304.025
304.034
304.039
304.039
304.033
304.025
304.015
304.005
303.997
303.99
303.984
303.978
303.973
303.967
303.961
303.951
303.936
303.91
303.87
303.797
303.735
303.773
303.922
300.654
303.451
304.459
304.604
304.612
304.586
304.546
304.5
304.451
304.392
304.329
304.267
304.211
304.165
304.134
304.116
304.106
304.099
304.091
304.082
304.073
304.063
304.053
304.044
304.036
304.028
304.02
304.012
304.004
303.993
303.98
303.96
303.935
303.903
303.865
303.828
303.844
303.908
305.367
305.328
305.317
305.264
305.181
305.085
304.984
304.881
304.772
304.66
304.549
304.442
304.344
304.26
304.197
304.159
304.138
304.125
304.115
304.106
304.096
304.086
304.077
304.068
304.06
304.051
304.042
304.032
304.021
304.008
303.991
303.97
303.946
303.922
303.9
303.886
303.894
303.916
312.553
312.249
309.934
308.281
307.32
306.699
306.26
305.924
305.645
305.408
305.198
305.006
304.828
304.659
304.5
304.356
304.235
304.171
304.143
304.129
304.117
304.108
304.098
304.089
304.081
304.072
304.064
304.055
304.045
304.034
304.02
304.003
303.984
303.962
303.941
303.925
303.914
303.911
303.917
303.934
)
;

boundaryField
{
    floor
    {
        type            wallHeatTransfer;
        Tinf            uniform 297.65;
        alphaWall       uniform 0.24;
        value           nonuniform List<scalar> 
29
(
302.123
302.217
302.411
302.405
302.384
302.355
302.319
302.281
302.243
302.206
302.171
302.137
302.105
302.074
302.044
302.012
301.977
301.942
301.922
302.075
302.075
302.352
302.49
302.614
302.123
302.217
302.386
302.33
302.16
)
;
    }
    ceiling
    {
        type            wallHeatTransfer;
        Tinf            uniform 297.65;
        alphaWall       uniform 0.24;
        value           nonuniform List<scalar> 
43
(
311.19
310.708
309.01
307.638
306.753
306.164
305.746
305.427
305.163
304.938
304.738
304.555
304.385
304.223
304.07
303.932
303.816
303.754
303.729
303.715
303.704
303.693
303.683
303.674
303.664
303.656
303.647
303.638
303.63
303.62
303.609
303.595
303.578
303.558
303.538
303.522
303.513
303.517
303.525
303.503
301.783
301.524
304.969
)
;
    }
    sWall
    {
        type            wallHeatTransfer;
        Tinf            uniform 298.15;
        alphaWall       uniform 0.36;
        value           uniform 310.666;
    }
    nWall
    {
        type            wallHeatTransfer;
        Tinf            uniform 299.15;
        alphaWall       uniform 0.36;
        value           nonuniform List<scalar> 6(303.174 303.315 303.439 303.555 303.506 303.458);
    }
    sideWalls
    {
        type            empty;
    }
    glass1
    {
        type            wallHeatTransfer;
        Tinf            uniform 298.15;
        alphaWall       uniform 4.3;
        value           nonuniform List<scalar> 9(300.136 300.313 300.37 300.358 300.324 300.26 300.16 300.013 299.781);
    }
    glass2
    {
        type            wallHeatTransfer;
        Tinf            uniform 299.15;
        alphaWall       uniform 4.3;
        value           nonuniform List<scalar> 2(301.67 301.788);
    }
    sun
    {
        type            wallHeatTransfer;
        Tinf            uniform 297.65;
        alphaWall       uniform 0.24;
        value           nonuniform List<scalar> 
14
(
302.322
302.377
302.396
302.396
302.384
302.368
302.352
302.334
302.316
302.296
302.275
302.25
302.22
302.182
)
;
    }
    heatsource1
    {
        type            fixedGradient;
        gradient        uniform 0;
    }
    heatsource2
    {
        type            fixedGradient;
        gradient        uniform 0;
    }
    Table_master
    {
        type            zeroGradient;
    }
    Table_slave
    {
        type            zeroGradient;
    }
    inlet
    {
        type            fixedValue;
        value           uniform 299.15;
    }
    outlet
    {
        type            zeroGradient;
    }
}


// ************************************************************************* //
