/*--------------------------------*- C++ -*----------------------------------*\
  =========                 |
  \\      /  F ield         | OpenFOAM: The Open Source CFD Toolbox
   \\    /   O peration     | Website:  https://openfoam.org
    \\  /    A nd           | Version:  6
     \\/     M anipulation  |
\*---------------------------------------------------------------------------*/
FoamFile
{
    version     2.0;
    format      ascii;
    class       volScalarField;
    location    "1000";
    object      alphat;
}
// * * * * * * * * * * * * * * * * * * * * * * * * * * * * * * * * * * * * * //

dimensions      [1 -1 -1 0 0 0 0];

internalField   nonuniform List<scalar> 
459
(
0.00125508
0.00137269
0.0013984
0.00146571
0.00152805
0.00158642
0.00164368
0.00169943
0.00173863
0.00175488
0.00174233
0.00169738
0.00161984
0.00151614
0.00140222
0.000551593
0.000674482
0.000758845
0.000754136
0.00072809
0.000693863
0.00065096
0.00060847
0.000569907
0.000535668
0.000505351
0.000478416
0.000454461
0.000432957
0.000413133
0.000393993
0.000374069
0.000359695
0.000327402
0.00170886
0.00419065
0.00401494
0.00467395
0.00532128
0.00596754
0.00653604
0.00696429
0.00735078
0.00766408
0.00786026
0.00788969
0.00767674
0.00703144
0.0052634
0.00143066
0.000839861
0.000596087
0.00125246
0.00172994
0.00207123
0.00225181
0.00224317
0.00180319
0.0015557
0.00137856
0.00124247
0.00113417
0.00104598
0.000969993
0.000899097
0.000830252
0.000768952
0.000715626
0.000838171
0.0004271
0.00208557
0.00572401
0.00498762
0.00625566
0.0068879
0.0073554
0.00771724
0.0080061
0.00831962
0.0086466
0.00894763
0.00916743
0.00924478
0.00908876
0.00845995
0.00651757
0.00142498
0.00118827
0.00170821
0.00218875
0.00261566
0.00290336
0.0028207
0.000932156
0.000822894
0.000735153
0.000664377
0.000606731
0.000559276
0.000519902
0.000487266
0.00046081
0.000496773
0.000574904
0.000943376
0.000493573
0.00244634
0.00730913
0.0050051
0.00662567
0.00718176
0.00736841
0.00748834
0.00763588
0.00788615
0.00822227
0.00860223
0.00895732
0.0092236
0.00932852
0.00919028
0.00851624
0.00621682
0.001704
0.00211266
0.00272692
0.00331784
0.00378267
0.00406289
0.00379972
0.0010519
0.00095724
0.000889333
0.000837496
0.000793477
0.000753234
0.000714648
0.000674269
0.000627585
0.000588865
0.00060268
0.00107732
0.000545072
0.00281369
0.00934081
0.00550028
0.00638237
0.00711902
0.00716569
0.00710009
0.00717972
0.00740119
0.00774389
0.00817038
0.00858683
0.00890461
0.00905315
0.00900811
0.00872147
0.00799853
0.00661899
0.00614743
0.00599361
0.00594247
0.00591006
0.0058458
0.00561672
0.00473497
0.00431068
0.00406308
0.00387189
0.00367147
0.00338435
0.00299849
0.00253089
0.00201186
0.00148932
0.00109837
0.00110537
0.000732587
0.000671047
0.000812684
0.000912269
0.00320281
0.011551
0.00755791
0.00635503
0.00691025
0.00715529
0.00699178
0.00705716
0.00722458
0.00753144
0.00796241
0.00841872
0.0087685
0.00891083
0.00882355
0.00856291
0.00821963
0.00786681
0.007672
0.00752992
0.00736809
0.00718107
0.00696792
0.0066972
0.00629556
0.0059349
0.00561484
0.00530903
0.00499924
0.00466395
0.00424434
0.00372439
0.00310418
0.00241906
0.00181424
0.0013602
0.001024
0.000868324
0.00123705
0.000952157
0.00355604
0.0130915
0.0105676
0.00817804
0.00774235
0.00763612
0.00737321
0.00721095
0.0072671
0.0075679
0.00804581
0.0085544
0.0089223
0.00903112
0.0088707
0.00855661
0.00828992
0.00820421
0.00822311
0.00815629
0.00794925
0.00764025
0.00726528
0.00684464
0.00639903
0.00598415
0.00560424
0.00525145
0.00492629
0.00463624
0.00438113
0.00403444
0.00355056
0.00296136
0.00239569
0.00189064
0.00151901
0.00140402
0.00143049
0.00108554
0.00362185
0.0116251
0.0103396
0.0095575
0.00884948
0.00803602
0.00740897
0.00716799
0.00733412
0.00781807
0.00845432
0.00903291
0.00935902
0.00934188
0.0090307
0.00862374
0.00838477
0.00839338
0.00841032
0.00816471
0.00772421
0.00717459
0.00658767
0.00602553
0.00553063
0.0051139
0.00476113
0.00446413
0.00422633
0.00405654
0.00396286
0.00391569
0.00367373
0.00329684
0.00296622
0.00279837
0.002907
0.0033465
0.00410355
0.00169376
0.00352174
0.00417881
0.00464128
0.00475577
0.00485893
0.00513985
0.00569876
0.00654263
0.00757131
0.00860595
0.00945538
0.00994095
0.00994731
0.00953725
0.00893136
0.00852636
0.00829828
0.00810137
0.00776352
0.00721804
0.00654324
0.0058427
0.00520458
0.00467469
0.00425457
0.00392039
0.00364707
0.00341919
0.00322678
0.00305979
0.00290755
0.00276842
0.00265878
0.0025782
0.00254782
0.00255902
0.00254423
0.00244184
0.00228187
0.00159235
0.00175641
0.00360601
0.00587975
0.00776043
0.00921765
0.0103194
0.0110048
0.0112648
0.0111424
0.010633
0.00984168
0.00887111
0.00805525
0.00755162
0.00713927
0.00663102
0.00600833
0.0053414
0.00470637
0.00415565
0.00371897
0.00338214
0.0031199
0.00291222
0.00274755
0.00262013
0.00252706
0.00246689
0.00244148
0.00244776
0.00246964
0.00250249
0.00253729
0.00254613
0.00248404
0.0023366
0.00211472
0.00132427
0.00235063
0.00605622
0.00901124
0.0101351
0.0106922
0.0108558
0.0105999
0.00999891
0.00917618
0.00825363
0.00738312
0.00661063
0.00598782
0.00545461
0.00491591
0.00438608
0.00391608
0.00353305
0.0032361
0.0030091
0.00282539
0.00267083
0.00253915
0.002433
0.00235567
0.00230641
0.00228355
0.0022852
0.00231679
0.00237505
0.00245589
0.00255067
0.0026405
0.00270244
0.00268163
0.00271102
0.00275128
0.00135043
0.00208568
0.00221077
0.00229895
0.00246199
0.00237618
0.00227799
0.00221404
0.00212347
0.0019939
0.00183337
0.00165321
0.0014663
0.00128544
0.00113094
0.0010145
0.000931688
0.000872746
0.000829945
0.000798614
0.000776088
0.000760706
0.00075146
0.000747681
0.000749606
0.000757773
0.000771963
0.000791901
0.000817991
0.000850896
0.000891479
0.000938715
0.000992683
0.00105397
0.00112307
0.00119942
0.00129007
0.00131949
0.00128559
0.00120779
0.00112523
)
;

boundaryField
{
    floor
    {
        type            compressible::alphatWallFunction;
        Prt             0.85;
        value           nonuniform List<scalar> 
29
(
0.000197801
7.71026e-05
9.54553e-05
0.000107816
0.00010713
0.00010333
9.83109e-05
9.19768e-05
8.56533e-05
7.98672e-05
7.46891e-05
7.00697e-05
6.59364e-05
6.22358e-05
5.88927e-05
5.57919e-05
5.278e-05
4.96247e-05
4.73349e-05
4.21462e-05
4.21456e-05
5.79788e-05
6.82661e-05
7.61159e-05
0.000197799
7.71017e-05
8.38e-05
0.000168548
0.000238234
)
;
    }
    ceiling
    {
        type            compressible::alphatWallFunction;
        Prt             0.85;
        value           nonuniform List<scalar> 
43
(
0.000288161
0.000304327
0.000315668
0.000336634
0.000325734
0.000313173
0.000304959
0.000293272
0.000276452
0.000255441
0.000231617
0.000206592
0.000182034
0.000160743
0.000144475
0.000132774
0.000124372
0.000118229
0.000113708
0.000110444
0.000108209
0.000106863
0.000106312
0.000106593
0.000107783
0.000109846
0.000112737
0.000116507
0.000121242
0.000127051
0.000133774
0.000141407
0.000150016
0.000159654
0.000170224
0.000182675
0.000186694
0.000182062
0.000171379
0.000159958
0.000469248
0.000549164
0.00032212
)
;
    }
    sWall
    {
        type            compressible::alphatWallFunction;
        Prt             0.85;
        value           uniform 0.000286952;
    }
    nWall
    {
        type            compressible::alphatWallFunction;
        Prt             0.85;
        value           nonuniform List<scalar> 6(0.000129696 0.000135354 0.000154093 0.000187021 0.000190581 0.000159636);
    }
    sideWalls
    {
        type            empty;
    }
    glass1
    {
        type            compressible::alphatWallFunction;
        Prt             0.85;
        value           nonuniform List<scalar> 9(0.000173457 0.000233785 0.000282644 0.000328632 0.000374788 0.000423039 0.000466362 0.000474515 0.000462533);
    }
    glass2
    {
        type            compressible::alphatWallFunction;
        Prt             0.85;
        value           nonuniform List<scalar> 2(0.000235325 0.000221943);
    }
    sun
    {
        type            compressible::alphatWallFunction;
        Prt             0.85;
        value           nonuniform List<scalar> 
14
(
0.000177764
0.000193802
0.000197289
0.000206387
0.000214772
0.000222588
0.000230224
0.000237632
0.000242823
0.000244971
0.000243311
0.000237357
0.000227045
0.000213169
)
;
    }
    heatsource1
    {
        type            compressible::alphatWallFunction;
        Prt             0.85;
        value           nonuniform List<scalar> 3(9.50519e-05 0.000115724 0.000129998);
    }
    heatsource2
    {
        type            compressible::alphatWallFunction;
        Prt             0.85;
        value           nonuniform List<scalar> 4(0.000201772 0.000119639 0.000119638 0.000201002);
    }
    Table_master
    {
        type            compressible::alphatWallFunction;
        Prt             0.85;
        value           nonuniform List<scalar> 9(0.000132823 0.000117194 0.000104465 9.40639e-05 8.54922e-05 7.83606e-05 7.23864e-05 6.73915e-05 6.33113e-05);
    }
    Table_slave
    {
        type            compressible::alphatWallFunction;
        Prt             0.85;
        value           nonuniform List<scalar> 9(0.000149709 0.000136382 0.000126727 0.000119299 0.000112948 0.000107105 0.000101467 9.55275e-05 8.86062e-05);
    }
    inlet
    {
        type            fixedValue;
        value           uniform 1.94e-05;
    }
    outlet
    {
        type            zeroGradient;
    }
}


// ************************************************************************* //
