/*--------------------------------*- C++ -*----------------------------------*\
  =========                 |
  \\      /  F ield         | OpenFOAM: The Open Source CFD Toolbox
   \\    /   O peration     | Website:  https://openfoam.org
    \\  /    A nd           | Version:  6
     \\/     M anipulation  |
\*---------------------------------------------------------------------------*/
FoamFile
{
    version     2.0;
    format      ascii;
    class       volScalarField;
    location    "500";
    object      alphat;
}
// * * * * * * * * * * * * * * * * * * * * * * * * * * * * * * * * * * * * * //

dimensions      [1 -1 -1 0 0 0 0];

internalField   nonuniform List<scalar> 
459
(
0.000845472
0.000877049
0.000847292
0.000878767
0.000908139
0.000934312
0.000957913
0.00097981
0.00100102
0.0010227
0.00104051
0.00105321
0.00106012
0.00106179
0.001057
0.000607218
0.000760091
0.000744137
0.000736056
0.000720776
0.000690909
0.000637429
0.00058491
0.000538726
0.000496405
0.000455866
0.000414526
0.000367251
0.000306575
0.000244166
0.000222988
0.000290844
0.000553478
0.000478417
0.00135053
0.00217672
0.00173972
0.00210275
0.00225938
0.00242636
0.00259573
0.00275363
0.00288001
0.00295094
0.00297996
0.00293394
0.00276499
0.00240453
0.00180046
0.00113068
0.000736493
0.000745784
0.00312035
0.00316971
0.00309791
0.00291574
0.00257865
0.0017559
0.00147977
0.00126255
0.00106455
0.000879292
0.000714685
0.000587827
0.000514889
0.000505838
0.000556671
0.000559218
0.0011176
0.000609062
0.00180979
0.0034279
0.00184987
0.00298081
0.00323807
0.00339938
0.00352961
0.00363241
0.00370886
0.00375369
0.00376739
0.00371432
0.00354578
0.00319822
0.00262773
0.00190872
0.00122787
0.00096673
0.00382222
0.00381856
0.00350287
0.00323808
0.00277863
0.000746944
0.000597104
0.000499212
0.000439395
0.000401933
0.000376351
0.000356869
0.000342045
0.000333619
0.000388846
0.000431974
0.00113459
0.000725807
0.00226814
0.00521134
0.00189482
0.00331078
0.00380113
0.00394319
0.00402552
0.00408126
0.00412363
0.00415592
0.0041832
0.00418887
0.00413955
0.00397213
0.00358729
0.0029045
0.00202904
0.00136342
0.00316702
0.00396166
0.00377921
0.0032499
0.00312258
0.00291027
0.000791568
0.000765867
0.000765368
0.000774502
0.00078481
0.000788602
0.000778112
0.000752264
0.000721819
0.000682822
0.000675931
0.0013743
0.000803622
0.00271736
0.00740494
0.00243231
0.00311501
0.00404257
0.00422027
0.00427712
0.00429938
0.00431156
0.00432771
0.00435816
0.0044193
0.00450253
0.00458795
0.00464308
0.00462707
0.00451573
0.00429605
0.00411472
0.00376397
0.00323715
0.00282776
0.00305509
0.00336539
0.00324893
0.0032993
0.00336989
0.00342869
0.00345191
0.0034186
0.00330969
0.0030518
0.00259473
0.00206738
0.00157217
0.00130277
0.00129853
0.000863788
0.000942293
0.00107917
0.00315946
0.00961298
0.00403095
0.00275595
0.00380713
0.004219
0.00436282
0.0044076
0.00439223
0.00435503
0.00434549
0.00440558
0.00450898
0.00463513
0.00475014
0.00479248
0.00468069
0.00436139
0.00387473
0.00330571
0.00278743
0.00249778
0.00302563
0.00349806
0.00373049
0.00387385
0.00397734
0.00404226
0.00406276
0.00403447
0.00395893
0.00383556
0.00354281
0.0030733
0.00249664
0.00173727
0.00153356
0.00131377
0.0017444
0.00115401
0.00359145
0.0113674
0.00715555
0.00375747
0.0029953
0.003353
0.00388508
0.0042721
0.00446298
0.00434418
0.00428327
0.00431483
0.00438786
0.00448533
0.00457813
0.0046064
0.00448813
0.00417656
0.00370354
0.00315528
0.00261873
0.00226879
0.00304111
0.00359312
0.0038257
0.0039429
0.00402
0.00406626
0.00408085
0.00407066
0.00404936
0.00403065
0.00397981
0.00367233
0.0031962
0.00261348
0.0022746
0.00215835
0.00215624
0.00137703
0.00369808
0.0114688
0.00912353
0.00704359
0.00513525
0.00399745
0.00371426
0.00393234
0.00427941
0.00428199
0.00421773
0.00419162
0.00420684
0.00424667
0.00428681
0.00429024
0.00420288
0.00398428
0.00364391
0.00320654
0.00261126
0.0020809
0.00308475
0.00373199
0.00392501
0.00396873
0.00397832
0.00397138
0.00395378
0.0039464
0.00397813
0.00407787
0.00425745
0.00434307
0.00410527
0.00402911
0.00433778
0.0047381
0.00534257
0.00195819
0.00361153
0.0043657
0.00486576
0.00504967
0.00489476
0.00450782
0.00414943
0.00393798
0.00386191
0.0038365
0.00385286
0.00389001
0.00392884
0.00395324
0.00395107
0.00391245
0.00382717
0.00369462
0.00353264
0.0032807
0.00264504
0.00190345
0.0031164
0.00391319
0.00405587
0.00401129
0.00394257
0.00385324
0.00374681
0.00364464
0.00356462
0.00350949
0.00346775
0.00343388
0.0033977
0.00336245
0.00324174
0.00299316
0.00273109
0.00180603
0.00258074
0.00426199
0.00465076
0.00460397
0.00443168
0.00425918
0.00412633
0.00402487
0.00394666
0.00387907
0.00380682
0.00371952
0.00361467
0.00349814
0.0033844
0.00330154
0.00328395
0.00320191
0.00254128
0.0017312
0.00307237
0.00412382
0.00420066
0.00407344
0.00397492
0.0038572
0.0037132
0.00357156
0.00345882
0.00339344
0.00337672
0.00337314
0.00333702
0.00323223
0.00300269
0.00264253
0.00221963
0.00144475
0.00273976
0.00484794
0.00511268
0.00494646
0.0047456
0.00452823
0.00431023
0.0041003
0.00387865
0.00361685
0.00334323
0.00307724
0.00283443
0.00262997
0.00248287
0.0024216
0.0024755
0.00254953
0.00211862
0.00151524
0.00275804
0.00372012
0.00371242
0.00357822
0.00350371
0.00343542
0.00337271
0.00333789
0.00333252
0.00335931
0.00343969
0.00353364
0.00359369
0.00359306
0.00349176
0.0033391
0.00284987
0.00146576
0.00238574
0.00250962
0.00261513
0.00276042
0.00260967
0.00239642
0.00222418
0.00207006
0.00192697
0.00179403
0.00167336
0.00156849
0.00147242
0.00138175
0.00129515
0.00121279
0.00113611
0.00106789
0.00101216
0.000970941
0.000932976
0.000908081
0.00096524
0.000999543
0.00100225
0.00100421
0.00101423
0.00103224
0.00105957
0.00109823
0.00115107
0.00121942
0.00129906
0.00138891
0.00148416
0.00159531
0.00163111
0.00158766
0.00147282
0.00135492
)
;

boundaryField
{
    floor
    {
        type            compressible::alphatWallFunction;
        Prt             0.85;
        value           nonuniform List<scalar> 
29
(
0.000150253
8.54015e-05
0.000107924
0.000105604
0.000104431
0.000102202
9.78183e-05
8.99094e-05
8.20634e-05
7.50921e-05
6.86382e-05
6.23901e-05
5.59441e-05
4.84668e-05
3.86785e-05
2.83502e-05
2.47874e-05
3.61342e-05
7.73202e-05
6.58668e-05
6.58659e-05
8.56689e-05
0.000102926
0.000114241
0.000150252
8.54005e-05
0.000105854
0.000137552
0.000192474
)
;
    }
    ceiling
    {
        type            compressible::alphatWallFunction;
        Prt             0.85;
        value           nonuniform List<scalar> 
43
(
0.000326791
0.00034258
0.000355966
0.000374395
0.000355399
0.000328298
0.000306212
0.000286289
0.000267647
0.000250191
0.000234222
0.000220242
0.000207343
0.000195083
0.000183288
0.000171987
0.000161388
0.000151889
0.000144075
0.000138267
0.000132893
0.000129348
0.000137459
0.000142306
0.000142689
0.000142964
0.000144373
0.000146902
0.00015073
0.000156128
0.000163468
0.000172908
0.000183832
0.000196065
0.000208936
0.000223841
0.000228617
0.00022282
0.000207411
0.000191452
0.000480213
0.000571613
0.000371624
)
;
    }
    sWall
    {
        type            compressible::alphatWallFunction;
        Prt             0.85;
        value           uniform 0.000325563;
    }
    nWall
    {
        type            compressible::alphatWallFunction;
        Prt             0.85;
        value           nonuniform List<scalar> 6(0.0001531 0.000163499 0.000194067 0.000203259 0.000206091 0.000191087);
    }
    sideWalls
    {
        type            empty;
    }
    glass1
    {
        type            compressible::alphatWallFunction;
        Prt             0.85;
        value           nonuniform List<scalar> 9(0.000116782 0.00018604 0.000246671 0.00030566 0.000362348 0.000417255 0.000470183 0.000483288 0.000472996);
    }
    glass2
    {
        type            compressible::alphatWallFunction;
        Prt             0.85;
        value           nonuniform List<scalar> 2(0.000269372 0.000249605);
    }
    sun
    {
        type            compressible::alphatWallFunction;
        Prt             0.85;
        value           nonuniform List<scalar> 
14
(
0.000120304
0.000124811
0.000120545
0.000125055
0.000129246
0.000132968
0.000136313
0.000139408
0.000142399
0.000145447
0.000147947
0.000149726
0.000150692
0.000150925
)
;
    }
    heatsource1
    {
        type            compressible::alphatWallFunction;
        Prt             0.85;
        value           nonuniform List<scalar> 3(0.000123081 0.000134266 0.000153523);
    }
    heatsource2
    {
        type            compressible::alphatWallFunction;
        Prt             0.85;
        value           nonuniform List<scalar> 4(0.000160693 0.000104666 0.000104665 0.000174121);
    }
    Table_master
    {
        type            compressible::alphatWallFunction;
        Prt             0.85;
        value           nonuniform List<scalar> 9(0.000106185 8.40446e-05 6.92179e-05 5.99823e-05 5.4118e-05 5.00728e-05 4.69676e-05 4.45906e-05 4.32344e-05);
    }
    Table_slave
    {
        type            compressible::alphatWallFunction;
        Prt             0.85;
        value           nonuniform List<scalar> 9(0.000112676 0.000108948 0.000108876 0.000110202 0.000111698 0.000112248 0.000110728 0.00010697 0.000102524);
    }
    inlet
    {
        type            fixedValue;
        value           uniform 1.94e-05;
    }
    outlet
    {
        type            zeroGradient;
    }
}


// ************************************************************************* //
