/*--------------------------------*- C++ -*----------------------------------*\
  =========                 |
  \\      /  F ield         | OpenFOAM: The Open Source CFD Toolbox
   \\    /   O peration     | Website:  https://openfoam.org
    \\  /    A nd           | Version:  6
     \\/     M anipulation  |
\*---------------------------------------------------------------------------*/
FoamFile
{
    version     2.0;
    format      ascii;
    class       volScalarField;
    location    "500";
    object      epsilon;
}
// * * * * * * * * * * * * * * * * * * * * * * * * * * * * * * * * * * * * * //

dimensions      [0 2 -3 0 0 0 0];

internalField   nonuniform List<scalar> 
459
(
0.000135782
0.000151066
0.000136188
0.000151937
0.000167688
0.000182609
0.0001968
0.000210607
0.000224584
0.000239489
0.000252218
0.000261559
0.000266723
0.000267966
0.00026433
5.00422e-05
9.81215e-05
9.20858e-05
8.91421e-05
8.37209e-05
7.37368e-05
5.78992e-05
4.47298e-05
3.49454e-05
2.73363e-05
2.1167e-05
1.59096e-05
1.10546e-05
6.41929e-06
3.23858e-06
2.47024e-06
5.48696e-06
3.77965e-05
2.44072e-05
0.000554779
0.00126181
0.000142796
0.000115588
0.000116982
0.000120653
0.000125775
0.000133355
0.000144545
0.000160333
0.000178482
0.000197537
0.000215235
0.00022958
0.000247944
0.000323481
8.93493e-05
9.27461e-05
0.000160075
8.73065e-05
6.80317e-05
5.81714e-05
5.17087e-05
4.70985e-05
3.5032e-05
2.65638e-05
2.01649e-05
1.52182e-05
1.15208e-05
8.78519e-06
6.82103e-06
6.06363e-06
6.67989e-06
1.07733e-05
0.000104913
5.03674e-05
0.00133816
0.00417437
0.000274215
0.000121509
0.000115545
0.000119876
0.000127067
0.000137424
0.000151373
0.000168878
0.000187959
0.000205727
0.000220185
0.00023257
0.000251383
0.000297775
0.000414209
0.00020203
0.000231941
0.000113523
7.64992e-05
5.95142e-05
5.46697e-05
9.3164e-05
4.75684e-05
2.77906e-05
1.89478e-05
1.45024e-05
1.19053e-05
1.01494e-05
8.93548e-06
8.2904e-06
8.54729e-06
1.36212e-05
0.000188761
8.52764e-05
0.00263987
0.00959245
0.000629282
0.000143742
0.000122798
0.000129646
0.000140376
0.000154213
0.000171592
0.000192751
0.000215196
0.000232728
0.00024287
0.00024904
0.0002611
0.000297585
0.000391426
0.000566962
0.000331267
0.000164882
0.000111999
7.65253e-05
6.15441e-05
5.73432e-05
0.000110921
0.00010046
0.000100261
0.000103891
0.000108094
0.000109668
0.00010535
9.51915e-05
8.40912e-05
5.53856e-05
4.31622e-05
0.000292747
0.000115796
0.00454865
0.0173856
0.00147229
0.00019526
0.000132287
0.000140177
0.0001566
0.000178348
0.000205983
0.000239703
0.000274424
0.000296687
0.000302913
0.000297276
0.000285635
0.00027289
0.00026204
0.000238846
0.000172056
0.000120247
9.13128e-05
7.44996e-05
7.05284e-05
6.55476e-05
6.5737e-05
6.63644e-05
7.06582e-05
7.71479e-05
8.37125e-05
8.74828e-05
8.54828e-05
7.69465e-05
6.96418e-05
6.05159e-05
5.33812e-05
0.00014783
0.000172415
0.000143947
0.000186966
0.000280914
0.00716194
0.0251477
0.00342455
0.000390165
0.000171775
0.000161411
0.000177991
0.00020716
0.000249952
0.000311145
0.000368834
0.000396122
0.000395684
0.000378079
0.00035034
0.000312977
0.000262504
0.00020065
0.000141129
0.00010213
8.52336e-05
7.77102e-05
8.39991e-05
7.80667e-05
7.32061e-05
7.56241e-05
8.43017e-05
9.7159e-05
0.000111471
0.000123477
0.000127915
0.000118972
9.8492e-05
8.014e-05
6.84861e-05
9.61636e-05
0.000123958
0.000122301
0.00035359
0.000343384
0.0105339
0.029173
0.00796954
0.00169622
0.000585229
0.00034631
0.000296773
0.000306048
0.000349404
0.000456274
0.000525323
0.000535837
0.000510836
0.00046952
0.000420907
0.000364738
0.000296636
0.000220952
0.000154354
0.000112871
9.4961e-05
8.5842e-05
0.000102927
9.70605e-05
9.07006e-05
9.36065e-05
0.000106104
0.000126031
0.000150638
0.000176908
0.00019954
0.000209269
0.000182362
0.000151917
0.000135909
0.000152815
0.00020299
0.000290512
0.000588464
0.000583559
0.0115271
0.0365732
0.0174738
0.00952223
0.0047401
0.00230669
0.00132005
0.000956621
0.00084662
0.000843643
0.000798571
0.000725557
0.000643246
0.000562007
0.000485017
0.000410198
0.000332903
0.000254249
0.000186163
0.000142219
0.000116926
9.81884e-05
0.000129324
0.000126981
0.000119922
0.000122924
0.000137774
0.000162925
0.000197485
0.000241559
0.000295099
0.000356261
0.000418492
0.000434026
0.000519818
0.000805984
0.00146132
0.00236738
0.00614833
0.00168158
0.0107709
0.0189646
0.0151182
0.0111611
0.00787668
0.00530773
0.00356677
0.00249354
0.00186813
0.0014407
0.00113992
0.000922519
0.000759526
0.000631769
0.000526808
0.000436573
0.000356042
0.000284674
0.000228155
0.000187782
0.00015066
0.000115411
0.000165136
0.000175013
0.000166929
0.000166117
0.000178891
0.000203704
0.000241041
0.00029434
0.00036912
0.0004719
0.000609179
0.000790285
0.00103613
0.0013748
0.00173492
0.00201576
0.00224888
0.00132164
0.00615318
0.00806842
0.00641762
0.00480106
0.00352853
0.00261044
0.00197478
0.0015285
0.00120749
0.000970889
0.000790922
0.000649268
0.000534588
0.000440419
0.000363743
0.000304916
0.000267771
0.000240357
0.000189686
0.000138453
0.000212505
0.00025916
0.000250801
0.000239857
0.000244191
0.000258757
0.000282369
0.000317862
0.000370407
0.000448336
0.00056192
0.000715742
0.000903375
0.00110165
0.00123767
0.00122925
0.00105981
0.000676218
0.00442896
0.00719269
0.00573312
0.00428607
0.0032469
0.00246848
0.00188715
0.00145581
0.0011342
0.000890406
0.000703632
0.000559428
0.00044807
0.000363413
0.000302199
0.000263768
0.00024815
0.000245568
0.000220629
0.000166114
0.000267237
0.0003342
0.000335352
0.000320092
0.000309414
0.000305552
0.000311854
0.000333678
0.000376583
0.000447653
0.000555143
0.000701493
0.000879289
0.00107161
0.00121312
0.00131147
0.000885883
0.000706058
0.00296419
0.00344842
0.00390179
0.00465108
0.00395136
0.00307089
0.00245837
0.00198316
0.00160024
0.00129157
0.00104819
0.000863296
0.000714243
0.000590304
0.000486166
0.000399218
0.000328208
0.000272587
0.000232111
0.000204916
0.000181834
0.000167676
0.000201398
0.000223687
0.00022553
0.000226859
0.000233722
0.000246397
0.00026649
0.000296743
0.000341671
0.000406235
0.000491155
0.000600309
0.000732518
0.000909846
0.00097258
0.000896948
0.000716057
0.000557683
)
;

boundaryField
{
    floor
    {
        Cmu             0.09;
        kappa           0.41;
        E               9.8;
        type            epsilonWallFunction;
        value           nonuniform List<scalar> 
29
(
0.00026433
5.00422e-05
9.81215e-05
9.20858e-05
8.91421e-05
8.37209e-05
7.37368e-05
5.78992e-05
4.47298e-05
3.49454e-05
2.73363e-05
2.1167e-05
1.59096e-05
1.10546e-05
6.41929e-06
3.23858e-06
2.47024e-06
5.48696e-06
3.77965e-05
2.44072e-05
2.44072e-05
5.03674e-05
8.52764e-05
0.000115796
0.00026433
5.00422e-05
9.27461e-05
0.00020203
0.000566962
)
;
    }
    ceiling
    {
        Cmu             0.09;
        kappa           0.41;
        E               9.8;
        type            epsilonWallFunction;
        value           nonuniform List<scalar> 
43
(
0.00296419
0.00344842
0.00390179
0.00465108
0.00395136
0.00307089
0.00245837
0.00198316
0.00160024
0.00129157
0.00104819
0.000863296
0.000714243
0.000590304
0.000486166
0.000399218
0.000328208
0.000272587
0.000232111
0.000204916
0.000181834
0.000167676
0.000201398
0.000223687
0.00022553
0.000226859
0.000233722
0.000246397
0.00026649
0.000296743
0.000341671
0.000406235
0.000491155
0.000600309
0.000732518
0.000909846
0.00097258
0.000896948
0.000716057
0.000557683
0.0107709
0.0189646
0.00442896
)
;
    }
    sWall
    {
        Cmu             0.09;
        kappa           0.41;
        E               9.8;
        type            epsilonWallFunction;
        value           uniform 0.00296419;
    }
    nWall
    {
        Cmu             0.09;
        kappa           0.41;
        E               9.8;
        type            epsilonWallFunction;
        value           nonuniform List<scalar> 6(0.000280914 0.000343384 0.000583559 0.000676218 0.000706058 0.000557683);
    }
    sideWalls
    {
        type            empty;
    }
    glass1
    {
        Cmu             0.09;
        kappa           0.41;
        E               9.8;
        type            epsilonWallFunction;
        value           nonuniform List<scalar> 9(0.000135782 0.000554779 0.00133816 0.00263987 0.00454865 0.00716194 0.0105339 0.0115271 0.0107709);
    }
    glass2
    {
        Cmu             0.09;
        kappa           0.41;
        E               9.8;
        type            epsilonWallFunction;
        value           nonuniform List<scalar> 2(0.00168158 0.00132164);
    }
    sun
    {
        Cmu             0.09;
        kappa           0.41;
        E               9.8;
        type            epsilonWallFunction;
        value           nonuniform List<scalar> 
14
(
0.000135782
0.000151066
0.000136188
0.000151937
0.000167688
0.000182609
0.0001968
0.000210607
0.000224584
0.000239489
0.000252218
0.000261559
0.000266723
0.000267966
)
;
    }
    heatsource1
    {
        Cmu             0.09;
        kappa           0.41;
        E               9.8;
        type            epsilonWallFunction;
        value           nonuniform List<scalar> 3(0.000143947 0.000186966 0.000280914);
    }
    heatsource2
    {
        Cmu             0.09;
        kappa           0.41;
        E               9.8;
        type            epsilonWallFunction;
        value           nonuniform List<scalar> 4(0.000323481 8.93493e-05 8.93493e-05 0.000414209);
    }
    Table_master
    {
        Cmu             0.09;
        kappa           0.41;
        E               9.8;
        type            epsilonWallFunction;
        value           nonuniform List<scalar> 9(9.3164e-05 4.75684e-05 2.77906e-05 1.89478e-05 1.45024e-05 1.19053e-05 1.01494e-05 8.93548e-06 8.2904e-06);
    }
    Table_slave
    {
        Cmu             0.09;
        kappa           0.41;
        E               9.8;
        type            epsilonWallFunction;
        value           nonuniform List<scalar> 9(0.000110921 0.00010046 0.000100261 0.000103891 0.000108094 0.000109668 0.00010535 9.51915e-05 8.40912e-05);
    }
    inlet
    {
        type            turbulentMixingLengthDissipationRateInlet;
        mixingLength    0.01;
        phi             phi;
        k               k;
        value           uniform 0.000101881;
    }
    outlet
    {
        type            zeroGradient;
    }
}


// ************************************************************************* //
