// -*- C++ -*-
// File generated by PyFoam - sorry for the ugliness

FoamFile
{
 version 2.0;
 format ascii;
 class volScalarField;
 location "500";
 object T;
}

dimensions [ 0 0 0 1 0 0 0 ];

internalField nonuniform List<scalar> 459
(
  302.69
  302.353
  302.343
  302.343
  302.343
  302.343
  302.343
  302.343
  302.342
  302.341
  302.339
  302.335
  302.329
  302.322
  302.315
  302.198
  302.182
  302.186
  302.193
  302.193
  302.191
  302.187
  302.184
  302.18
  302.175
  302.17
  302.161
  302.134
  302.057
  301.933
  301.853
  301.848
  301.865
  301.875
  302.927
  302.384
  302.356
  302.359
  302.364
  302.369
  302.372
  302.375
  302.376
  302.377
  302.373
  302.365
  302.351
  302.331
  302.308
  302.288
  302.221
  302.193
  302.178
  302.188
  302.196
  302.195
  302.189
  302.178
  302.165
  302.152
  302.14
  302.131
  302.121
  302.104
  302.067
  302.018
  301.976
  301.94
  301.904
  301.884
  303.156
  302.435
  302.38
  302.388
  302.401
  302.412
  302.423
  302.431
  302.437
  302.438
  302.434
  302.421
  302.397
  302.366
  302.329
  302.294
  302.268
  302.198
  302.194
  302.205
  302.211
  302.207
  302.199
  302.183
  302.158
  302.134
  302.115
  302.101
  302.09
  302.078
  302.062
  302.041
  302.021
  301.994
  301.968
  301.914
  303.369
  302.503
  302.408
  302.419
  302.439
  302.461
  302.48
  302.497
  302.51
  302.515
  302.512
  302.494
  302.462
  302.419
  302.369
  302.318
  302.274
  302.244
  302.22
  302.224
  302.227
  302.226
  302.218
  302.207
  302.194
  302.188
  302.185
  302.183
  302.181
  302.18
  302.177
  302.172
  302.166
  302.129
  302.084
  302.032
  301.941
  303.566
  302.586
  302.441
  302.444
  302.472
  302.502
  302.533
  302.561
  302.584
  302.598
  302.598
  302.58
  302.542
  302.49
  302.431
  302.373
  302.324
  302.288
  302.265
  302.252
  302.244
  302.237
  302.227
  302.216
  302.208
  302.205
  302.204
  302.204
  302.204
  302.203
  302.2
  302.193
  302.183
  302.162
  302.126
  302.073
  301.998
  302.047
  302.118
  302.139
  303.734
  302.689
  302.498
  302.469
  302.494
  302.529
  302.566
  302.604
  302.64
  302.667
  302.677
  302.662
  302.621
  302.562
  302.496
  302.431
  302.374
  302.329
  302.295
  302.272
  302.255
  302.245
  302.234
  302.224
  302.219
  302.219
  302.22
  302.222
  302.224
  302.223
  302.22
  302.213
  302.199
  302.18
  302.151
  302.108
  302.052
  302.047
  302.06
  302.094
  303.866
  302.86
  302.656
  302.555
  302.535
  302.555
  302.587
  302.624
  302.665
  302.709
  302.732
  302.721
  302.679
  302.619
  302.549
  302.48
  302.417
  302.364
  302.321
  302.287
  302.263
  302.251
  302.24
  302.232
  302.23
  302.232
  302.236
  302.24
  302.243
  302.243
  302.24
  302.231
  302.215
  302.195
  302.17
  302.136
  302.099
  302.084
  302.082
  302.106
  304.095
  303.334
  303.115
  302.911
  302.769
  302.698
  302.677
  302.686
  302.711
  302.751
  302.765
  302.746
  302.702
  302.642
  302.575
  302.508
  302.445
  302.388
  302.338
  302.297
  302.267
  302.256
  302.246
  302.24
  302.241
  302.245
  302.251
  302.256
  302.259
  302.26
  302.258
  302.251
  302.238
  302.213
  302.193
  302.172
  302.156
  302.157
  302.166
  302.318
  304.413
  304.089
  303.815
  303.543
  303.308
  303.132
  303.013
  302.939
  302.9
  302.86
  302.806
  302.743
  302.678
  302.613
  302.55
  302.491
  302.437
  302.388
  302.343
  302.303
  302.269
  302.259
  302.252
  302.247
  302.251
  302.257
  302.264
  302.27
  302.274
  302.277
  302.279
  302.28
  302.283
  302.289
  302.3
  302.324
  302.359
  302.395
  302.424
  302.493
  297.882
  300.637
  301.911
  302.362
  302.535
  302.601
  302.618
  302.613
  302.596
  302.568
  302.533
  302.496
  302.458
  302.421
  302.386
  302.354
  302.323
  302.293
  302.265
  302.263
  302.259
  302.255
  302.261
  302.268
  302.275
  302.282
  302.289
  302.295
  302.302
  302.308
  302.315
  302.323
  302.337
  302.357
  302.382
  302.404
  302.419
  302.432
  298.383
  300.592
  301.508
  301.957
  302.179
  302.284
  302.329
  302.344
  302.349
  302.349
  302.343
  302.335
  302.325
  302.315
  302.303
  302.292
  302.281
  302.269
  302.257
  302.267
  302.269
  302.267
  302.273
  302.28
  302.286
  302.291
  302.297
  302.303
  302.309
  302.316
  302.323
  302.331
  302.342
  302.357
  302.374
  302.391
  302.383
  302.413
  299.724
  299.67
  299.666
  301.015
  301.56
  301.929
  302.058
  302.122
  302.156
  302.173
  302.183
  302.193
  302.201
  302.208
  302.215
  302.221
  302.227
  302.233
  302.238
  302.243
  302.249
  302.275
  302.294
  302.298
  302.303
  302.307
  302.311
  302.314
  302.317
  302.32
  302.322
  302.325
  302.328
  302.333
  302.339
  302.351
  302.361
  302.366
  302.366
  302.402
)
;

boundaryField
{
  floor
  {
    type wallHeatTransfer;
    Tinf uniform 305.2;
    alphaWall uniform 0.24;
    value nonuniform List<scalar> 29
(
  302.662
  302.731
  302.641
  302.652
  302.661
  302.668
  302.68
  302.705
  302.733
  302.761
  302.789
  302.819
  302.851
  302.884
  302.91
  302.938
  302.931
  302.785
  302.495
  302.566
  302.566
  302.472
  302.431
  302.418
  302.662
  302.731
  302.657
  302.583
  302.537
)
;
  }
  ceiling
  {
    type wallHeatTransfer;
    Tinf uniform 303.2;
    alphaWall uniform 0.24;
    value nonuniform List<scalar> 43
(
  299.946
  299.886
  299.875
  301.138
  301.657
  302.009
  302.135
  302.199
  302.235
  302.255
  302.269
  302.282
  302.294
  302.305
  302.316
  302.327
  302.338
  302.348
  302.357
  302.365
  302.374
  302.399
  302.41
  302.411
  302.415
  302.419
  302.421
  302.422
  302.423
  302.422
  302.421
  302.419
  302.418
  302.417
  302.419
  302.425
  302.433
  302.439
  302.444
  302.481
  304.358
  304.055
  298.658
)
;
  }
  sWall
  {
    type wallHeatTransfer;
    Tinf uniform 315.2;
    alphaWall uniform 0.36;
    value uniform 301.163;
  }
  nWall
  {
    type wallHeatTransfer;
    Tinf uniform 307.2;
    alphaWall uniform 0.36;
    value nonuniform List<scalar> 6
(
  302.987
  302.91
  302.823
  303.079
  303.056
  303.085
)
;
  }
  sideWalls
  {
    type empty;
  }
  glass1
  {
    type wallHeatTransfer;
    Tinf uniform 315.2;
    alphaWall uniform 4.3;
    value nonuniform List<scalar> 9
(
  312.086
  311.15
  310.529
  310.051
  309.681
  309.382
  309.13
  309.18
  309.407
)
;
  }
  glass2
  {
    type wallHeatTransfer;
    Tinf uniform 307.2;
    alphaWall uniform 4.3;
    value nonuniform List<scalar> 2
(
  305.213
  305.363
)
;
  }
  sun
  {
    type wallHeatTransfer;
    Tinf uniform 305.2;
    alphaWall uniform 0.24;
    value nonuniform List<scalar> 14
(
  303.045
  302.745
  302.746
  302.736
  302.726
  302.719
  302.712
  302.705
  302.699
  302.692
  302.686
  302.679
  302.673
  302.666
)
;
  }
  heatsource1
  {
    type fixedGradient;
    gradient uniform 0;
  }
  heatsource2
  {
    type fixedGradient;
    gradient uniform 0;
  }
  Table_master
  {
    type zeroGradient;
  }
  Table_slave
  {
    type zeroGradient;
  }
  inlet
  {
    type fixedValue;
    value uniform 293.15;
  }
  outlet
  {
    type zeroGradient;
  }
} 	// ************************************************************************* //

