/*--------------------------------*- C++ -*----------------------------------*\
  =========                 |
  \\      /  F ield         | OpenFOAM: The Open Source CFD Toolbox
   \\    /   O peration     | Website:  https://openfoam.org
    \\  /    A nd           | Version:  6
     \\/     M anipulation  |
\*---------------------------------------------------------------------------*/
FoamFile
{
    version     2.0;
    format      ascii;
    class       volScalarField;
    location    "300";
    object      alphat;
}
// * * * * * * * * * * * * * * * * * * * * * * * * * * * * * * * * * * * * * //

dimensions      [1 -1 -1 0 0 0 0];

internalField   nonuniform List<scalar> 
459
(
0.00281942
0.00273898
0.00265101
0.0025719
0.00250461
0.00244601
0.00239373
0.00234521
0.00229795
0.00224968
0.00219795
0.00213954
0.00206921
0.00197583
0.00185108
0.000267927
0.000288579
0.000296005
0.00027208
0.000254737
0.000247814
0.000242173
0.000230094
0.000205249
0.000195211
0.000208317
0.000207796
0.000219181
0.000253132
0.000304973
0.000358233
0.000385683
0.000384954
0.000344743
0.00316437
0.00348252
0.00351436
0.0034164
0.00336123
0.0033542
0.00337437
0.00338219
0.00336064
0.00330603
0.00321581
0.00308532
0.00290046
0.00261827
0.00222669
0.00176713
0.0015618
0.000404692
0.000704442
0.000831418
0.000969734
0.00107145
0.00103515
0.000821773
0.000522388
0.000316973
0.000249799
0.000264863
0.000303804
0.000402952
0.000640904
0.00102803
0.00154276
0.00149225
0.00137359
0.000452651
0.00336237
0.00383874
0.00353318
0.00320339
0.00311095
0.00316115
0.00327628
0.00339972
0.00349832
0.00354794
0.00353237
0.00344078
0.00326261
0.00297171
0.00259518
0.00224236
0.00157278
0.000751815
0.00186437
0.00174324
0.00173009
0.00155037
0.00120112
0.000433122
0.000359722
0.000303343
0.000260351
0.000307372
0.000367666
0.000431378
0.000507804
0.000605025
0.00161635
0.00142144
0.00107139
0.000556743
0.00350266
0.00410435
0.00314001
0.00262841
0.00275537
0.00311924
0.00351205
0.0037713
0.00388884
0.00388884
0.00380977
0.00366999
0.00346579
0.00316829
0.00280366
0.00246312
0.00191223
0.0012094
0.00216816
0.00202331
0.00203405
0.00170918
0.00128538
0.00088834
0.00060728
0.00062896
0.000647246
0.000663507
0.000681068
0.000703747
0.000736048
0.000784516
0.000867004
0.00265528
0.0029018
0.00266825
0.000927044
0.00362127
0.00416601
0.00244967
0.00234474
0.00357483
0.00463551
0.00527814
0.00539339
0.00498249
0.00450065
0.00411315
0.00381572
0.0035448
0.00322365
0.00286229
0.0025309
0.00209456
0.00173278
0.00245299
0.00310586
0.00320845
0.00315531
0.00313206
0.00315445
0.00320296
0.00323494
0.00323571
0.00321406
0.00318835
0.00318307
0.0032195
0.00330789
0.00345042
0.00366627
0.00375023
0.00366762
0.00315613
0.00136245
0.00120318
0.00104743
0.00373896
0.00401685
0.00184147
0.00320413
0.00521635
0.00579686
0.0059986
0.0059067
0.00523877
0.00458757
0.00410692
0.00376252
0.00346664
0.00314218
0.00280858
0.00251608
0.00224449
0.00223738
0.00319885
0.00401155
0.0042194
0.00430846
0.00440701
0.0045007
0.00455779
0.00456535
0.00451806
0.00441492
0.00427292
0.00413012
0.00402857
0.00398684
0.00399126
0.00400686
0.00399458
0.00391487
0.00363492
0.00298947
0.0022684
0.00111303
0.00387655
0.00371885
0.00177803
0.00296622
0.00495577
0.0052109
0.00514397
0.00497038
0.00463842
0.00422783
0.00386367
0.00356443
0.00329103
0.00300495
0.00273
0.00252019
0.00242701
0.00277693
0.00387453
0.0046003
0.00483802
0.00501068
0.00516984
0.00530338
0.00540786
0.00548035
0.00550275
0.0054459
0.00528782
0.0050431
0.00477117
0.00452899
0.00433405
0.00416326
0.00397097
0.00369886
0.00328068
0.00272223
0.00211414
0.00110344
0.00407498
0.0038247
0.00221824
0.00196099
0.00382722
0.00416202
0.00410636
0.00404065
0.00394016
0.00375514
0.00354192
0.00333054
0.00311845
0.00289866
0.00269885
0.00258798
0.00266228
0.00335032
0.00444657
0.00500199
0.00526757
0.00547813
0.00565027
0.00579567
0.00593464
0.00608417
0.0062454
0.00639206
0.00646521
0.00639907
0.0061894
0.00587064
0.00548353
0.00505709
0.00459946
0.00412402
0.00363366
0.00315902
0.00277868
0.00156765
0.00442493
0.00493965
0.00388929
0.00193366
0.00277476
0.00347697
0.00351434
0.00350688
0.00348194
0.00341959
0.00332068
0.00320078
0.00306498
0.00291665
0.00278261
0.0027445
0.00294237
0.00388872
0.00487203
0.00540005
0.00570726
0.00591016
0.00603897
0.00612237
0.00619749
0.00630198
0.00646902
0.00671826
0.00703541
0.00733746
0.00749771
0.00751408
0.00742941
0.00735687
0.00737234
0.00727106
0.00662064
0.00548943
0.00542627
0.00182148
0.00609363
0.00265683
0.00294841
0.00331963
0.00340443
0.00344878
0.00345899
0.00343831
0.00340406
0.00335478
0.00328538
0.00319188
0.00309178
0.00307666
0.00333755
0.00432885
0.00517349
0.0057949
0.00613176
0.00633635
0.00643403
0.00645661
0.00644532
0.0064423
0.00648727
0.00661563
0.0068495
0.00716871
0.00747742
0.00773869
0.00790983
0.00799045
0.00799646
0.00780872
0.00722047
0.00626408
0.00530992
0.00182409
0.00331873
0.00272647
0.00346651
0.00326622
0.00324206
0.00325046
0.00325621
0.0032333
0.00324845
0.00327866
0.00330186
0.00329395
0.00324209
0.0032219
0.00333219
0.00372921
0.00446426
0.00524674
0.00585509
0.00623628
0.00641713
0.00645988
0.00643009
0.00638115
0.00635019
0.00635993
0.00642118
0.00652963
0.00662271
0.00668872
0.00673761
0.00677432
0.006776
0.00653675
0.00606646
0.00529678
0.00496369
0.00174395
0.00173555
0.00174724
0.00206924
0.00131614
0.00134121
0.00135341
0.00137147
0.00138758
0.00140312
0.00141926
0.00143423
0.00144884
0.00146229
0.00147248
0.00147526
0.0014552
0.00140361
0.00135447
0.00132953
0.00132655
0.00135146
0.00138866
0.00142407
0.00144977
0.00146394
0.00146847
0.00146666
0.00146176
0.00145621
0.00145146
0.00145345
0.00145714
0.00145614
0.001445
0.00141912
0.00139456
0.00136415
0.00132255
0.00134757
0.001247
)
;

boundaryField
{
    floor
    {
        type            compressible::alphatWallFunction;
        Prt             0.85;
        value           nonuniform List<scalar> 
29
(
0.000257839
3.24092e-05
3.58207e-05
3.70384e-05
3.30942e-05
3.02065e-05
2.90468e-05
2.80996e-05
2.60616e-05
2.18159e-05
2.00797e-05
2.23422e-05
2.22538e-05
2.42031e-05
2.99395e-05
3.85066e-05
4.71095e-05
5.14764e-05
5.13598e-05
4.49481e-05
4.49475e-05
6.19653e-05
7.78941e-05
0.000132036
0.000257836
3.24087e-05
5.44728e-05
0.000106828
0.000171565
)
;
    }
    ceiling
    {
        type            compressible::alphatWallFunction;
        Prt             0.85;
        value           nonuniform List<scalar> 
43
(
0.000242836
0.000244345
0.000286417
0.000186367
0.000189784
0.000191446
0.0001939
0.000196089
0.000198196
0.000200382
0.000202406
0.000204379
0.000206192
0.000207564
0.000207935
0.000205219
0.000198235
0.000191558
0.000188159
0.00018775
0.000191139
0.000196191
0.000200984
0.000204454
0.000206364
0.000206973
0.000206728
0.000206064
0.000205314
0.000204672
0.000204939
0.000205434
0.000205298
0.000203792
0.000200292
0.000196963
0.000192833
0.000187167
0.000190575
0.000176828
0.00057884
0.000640217
0.000444297
)
;
    }
    sWall
    {
        type            compressible::alphatWallFunction;
        Prt             0.85;
        value           uniform 0.000241914;
    }
    nWall
    {
        type            compressible::alphatWallFunction;
        Prt             0.85;
        value           nonuniform List<scalar> 6(0.000148856 0.000158013 0.000156678 0.000253979 0.000243406 0.000176526);
    }
    sideWalls
    {
        type            empty;
    }
    glass1
    {
        type            compressible::alphatWallFunction;
        Prt             0.85;
        value           nonuniform List<scalar> 9(0.000376945 0.000419681 0.000443985 0.000461108 0.000475523 0.000489772 0.000506373 0.000530238 0.000572109);
    }
    glass2
    {
        type            compressible::alphatWallFunction;
        Prt             0.85;
        value           nonuniform List<scalar> 2(0.000219077 0.000252669);
    }
    sun
    {
        type            compressible::alphatWallFunction;
        Prt             0.85;
        value           nonuniform List<scalar> 
14
(
0.000382055
0.000371928
0.000360823
0.000350803
0.000342255
0.000334793
0.000328119
0.000321909
0.00031585
0.000309647
0.000302983
0.000295438
0.000286324
0.000274172
)
;
    }
    heatsource1
    {
        type            compressible::alphatWallFunction;
        Prt             0.85;
        value           nonuniform List<scalar> 3(0.000192526 0.000170725 0.000149085);
    }
    heatsource2
    {
        type            compressible::alphatWallFunction;
        Prt             0.85;
        value           nonuniform List<scalar> 4(0.000246708 0.000219412 0.000219409 0.000220878);
    }
    Table_master
    {
        type            compressible::alphatWallFunction;
        Prt             0.85;
        value           nonuniform List<scalar> 9(5.90133e-05 4.74302e-05 3.83233e-05 3.1222e-05 3.89701e-05 4.86904e-05 5.87357e-05 7.05386e-05 8.52371e-05);
    }
    Table_slave
    {
        type            compressible::alphatWallFunction;
        Prt             0.85;
        value           nonuniform List<scalar> 9(8.5579e-05 8.88127e-05 9.15296e-05 9.39378e-05 9.65303e-05 9.98665e-05 0.000104596 0.000111647 0.00012353);
    }
    inlet
    {
        type            fixedValue;
        value           uniform 1.94e-05;
    }
    outlet
    {
        type            zeroGradient;
    }
}


// ************************************************************************* //
