// -*- C++ -*-
// File generated by PyFoam - sorry for the ugliness

FoamFile
{
 version 2.0;
 format ascii;
 class volScalarField;
 location "300";
 object T;
}

dimensions [ 0 0 0 1 0 0 0 ];

internalField nonuniform List<scalar> 459
(
  306.683
  306.533
  306.477
  306.448
  306.429
  306.417
  306.409
  306.403
  306.396
  306.39
  306.384
  306.378
  306.372
  306.366
  306.356
  303.512
  303.496
  303.488
  303.464
  303.446
  303.438
  303.436
  303.437
  303.441
  303.451
  303.468
  303.461
  303.458
  303.462
  303.475
  303.495
  303.507
  303.503
  303.502
  306.602
  306.382
  306.293
  306.25
  306.225
  306.211
  306.206
  306.206
  306.21
  306.219
  306.23
  306.246
  306.266
  306.291
  306.318
  306.311
  306.297
  303.59
  303.598
  303.605
  303.611
  303.607
  303.586
  303.536
  303.487
  303.491
  303.495
  303.516
  303.526
  303.527
  303.542
  303.589
  303.643
  303.627
  303.567
  303.522
  306.536
  306.22
  306.114
  306.069
  306.046
  306.034
  306.03
  306.036
  306.05
  306.073
  306.102
  306.137
  306.178
  306.223
  306.267
  306.283
  306.281
  303.879
  303.788
  303.757
  303.76
  303.76
  303.749
  303.664
  303.624
  303.585
  303.543
  303.579
  303.632
  303.672
  303.71
  303.751
  303.794
  303.723
  303.671
  303.631
  306.473
  306.079
  305.988
  305.961
  305.95
  305.943
  305.939
  305.942
  305.958
  305.985
  306.022
  306.068
  306.12
  306.177
  306.233
  306.262
  306.234
  304.891
  304.092
  304.005
  304.019
  304.064
  304.12
  304.175
  304.221
  304.235
  304.245
  304.252
  304.258
  304.261
  304.262
  304.256
  304.233
  304.168
  304.13
  304.098
  304.102
  306.407
  305.976
  305.928
  305.928
  305.928
  305.924
  305.918
  305.914
  305.924
  305.948
  305.986
  306.035
  306.093
  306.156
  306.217
  306.241
  306.076
  304.731
  304.221
  304.175
  304.189
  304.217
  304.248
  304.275
  304.295
  304.308
  304.319
  304.329
  304.339
  304.35
  304.36
  304.37
  304.378
  304.379
  304.39
  304.406
  304.417
  304.447
  304.437
  304.437
  306.332
  305.917
  305.914
  305.934
  305.938
  305.934
  305.925
  305.917
  305.924
  305.947
  305.985
  306.036
  306.094
  306.154
  306.199
  306.159
  305.814
  304.628
  304.29
  304.266
  304.282
  304.304
  304.325
  304.342
  304.356
  304.366
  304.375
  304.385
  304.397
  304.411
  304.428
  304.447
  304.467
  304.486
  304.506
  304.524
  304.538
  304.544
  304.499
  304.463
  306.242
  305.901
  305.916
  305.945
  305.954
  305.956
  305.953
  305.952
  305.959
  305.979
  306.013
  306.056
  306.104
  306.144
  306.144
  306.009
  305.535
  304.569
  304.351
  304.344
  304.365
  304.385
  304.403
  304.415
  304.422
  304.426
  304.43
  304.434
  304.442
  304.455
  304.473
  304.494
  304.516
  304.537
  304.555
  304.569
  304.578
  304.577
  304.556
  304.473
  306.151
  305.886
  305.905
  305.952
  305.967
  305.98
  305.988
  305.995
  306.002
  306.018
  306.041
  306.07
  306.095
  306.1
  306.041
  305.821
  305.299
  304.56
  304.426
  304.434
  304.462
  304.486
  304.502
  304.508
  304.507
  304.502
  304.496
  304.489
  304.485
  304.487
  304.497
  304.512
  304.532
  304.552
  304.571
  304.588
  304.603
  304.619
  304.633
  304.653
  306.066
  305.859
  305.854
  305.918
  305.953
  305.978
  305.997
  306.011
  306.021
  306.031
  306.042
  306.052
  306.05
  306.017
  305.911
  305.649
  305.15
  304.607
  304.525
  304.546
  304.585
  304.612
  304.624
  304.624
  304.617
  304.604
  304.588
  304.57
  304.552
  304.538
  304.529
  304.527
  304.531
  304.538
  304.545
  304.552
  304.563
  304.578
  304.603
  304.675
  305.78
  305.866
  305.908
  305.939
  305.963
  305.98
  305.991
  305.996
  305.997
  305.991
  305.968
  305.912
  305.79
  305.543
  305.132
  304.726
  304.678
  304.7
  304.732
  304.75
  304.755
  304.752
  304.741
  304.725
  304.705
  304.68
  304.653
  304.626
  304.6
  304.58
  304.567
  304.56
  304.557
  304.558
  304.563
  304.57
  304.579
  304.597
  305.796
  305.828
  305.855
  305.877
  305.894
  305.906
  305.913
  305.915
  305.91
  305.896
  305.866
  305.811
  305.709
  305.522
  305.179
  305.002
  304.943
  304.923
  304.914
  304.908
  304.899
  304.887
  304.87
  304.85
  304.827
  304.8
  304.77
  304.737
  304.703
  304.67
  304.642
  304.622
  304.608
  304.601
  304.597
  304.594
  304.593
  304.604
  308.128
  307.518
  305.913
  305.791
  305.793
  305.796
  305.799
  305.801
  305.802
  305.803
  305.798
  305.787
  305.768
  305.735
  305.681
  305.506
  305.359
  305.286
  305.243
  305.209
  305.174
  305.139
  305.105
  305.072
  305.039
  305.007
  304.975
  304.942
  304.908
  304.874
  304.838
  304.8
  304.764
  304.732
  304.705
  304.681
  304.658
  304.637
  304.615
  304.616
)
;

boundaryField
{
  floor
  {
    type wallHeatTransfer;
    Tinf uniform 305.2;
    alphaWall uniform 0.24;
    value nonuniform List<scalar> 29
(
  306.266
  304.006
  303.974
  303.962
  303.967
  303.973
  303.975
  303.98
  303.995
  304.031
  304.052
  304.045
  304.041
  304.023
  303.985
  303.944
  303.918
  303.908
  303.906
  303.933
  303.933
  303.882
  303.926
  304.247
  306.266
  304.006
  303.961
  304.081
  304.924
)
;
  }
  ceiling
  {
    type wallHeatTransfer;
    Tinf uniform 303.2;
    alphaWall uniform 0.24;
    value nonuniform List<scalar> 43
(
  307.724
  307.165
  305.719
  305.528
  305.533
  305.538
  305.543
  305.547
  305.55
  305.553
  305.551
  305.543
  305.527
  305.499
  305.45
  305.289
  305.15
  305.079
  305.037
  305.006
  304.977
  304.95
  304.923
  304.895
  304.867
  304.838
  304.809
  304.778
  304.748
  304.716
  304.683
  304.65
  304.617
  304.587
  304.56
  304.536
  304.514
  304.491
  304.473
  304.466
  305.956
  305.766
  305.67
)
;
  }
  sWall
  {
    type wallHeatTransfer;
    Tinf uniform 315.2;
    alphaWall uniform 0.36;
    value uniform 308.966;
  }
  nWall
  {
    type wallHeatTransfer;
    Tinf uniform 307.2;
    alphaWall uniform 0.36;
    value nonuniform List<scalar> 6
(
  304.909
  304.911
  304.923
  304.894
  304.91
  305.006
)
;
  }
  sideWalls
  {
    type empty;
  }
  glass1
  {
    type wallHeatTransfer;
    Tinf uniform 315.2;
    alphaWall uniform 4.3;
    value nonuniform List<scalar> 9
(
  311.081
  310.825
  310.677
  310.566
  310.467
  310.365
  310.246
  310.097
  309.887
)
;
  }
  glass2
  {
    type wallHeatTransfer;
    Tinf uniform 307.2;
    alphaWall uniform 4.3;
    value nonuniform List<scalar> 2
(
  306.276
  306.208
)
;
  }
  sun
  {
    type wallHeatTransfer;
    Tinf uniform 305.2;
    alphaWall uniform 0.24;
    value nonuniform List<scalar> 14
(
  306.601
  306.457
  306.402
  306.373
  306.354
  306.341
  306.332
  306.325
  306.318
  306.311
  306.304
  306.296
  306.289
  306.279
)
;
  }
  heatsource1
  {
    type fixedGradient;
    gradient uniform 0;
  }
  heatsource2
  {
    type fixedGradient;
    gradient uniform 0;
  }
  Table_master
  {
    type zeroGradient;
  }
  Table_slave
  {
    type zeroGradient;
  }
  inlet
  {
    type fixedValue;
    value uniform 290.15;
  }
  outlet
  {
    type zeroGradient;
  }
} 	// ************************************************************************* //

