/*--------------------------------*- C++ -*----------------------------------*\
  =========                 |
  \\      /  F ield         | OpenFOAM: The Open Source CFD Toolbox
   \\    /   O peration     | Website:  https://openfoam.org
    \\  /    A nd           | Version:  6
     \\/     M anipulation  |
\*---------------------------------------------------------------------------*/
FoamFile
{
    version     2.0;
    format      ascii;
    class       volScalarField;
    location    "100";
    object      epsilon;
}
// * * * * * * * * * * * * * * * * * * * * * * * * * * * * * * * * * * * * * //

dimensions      [0 2 -3 0 0 0 0];

internalField   nonuniform List<scalar> 
459
(
0.00042499
0.000537235
0.000543264
0.000623785
0.000707099
0.000791548
0.000879317
0.000974703
0.00106949
0.00114223
0.00117422
0.00114677
0.0010531
0.000911388
0.000760228
5.50359e-05
9.61741e-05
0.000120719
0.000114502
0.000105456
9.52787e-05
8.28443e-05
7.11364e-05
6.12579e-05
5.31477e-05
4.65003e-05
4.10179e-05
3.6431e-05
3.25217e-05
2.91345e-05
2.6057e-05
2.30631e-05
2.12337e-05
1.67843e-05
0.00121822
0.00193446
0.00050638
0.000471561
0.000491162
0.000520633
0.000560583
0.000616732
0.000687121
0.000756521
0.000804022
0.000807128
0.000754147
0.000660204
0.00060111
0.000786729
0.000200743
0.000115561
0.000149535
0.000134967
0.000116764
9.92633e-05
8.58377e-05
8.04383e-05
6.86889e-05
5.76148e-05
4.82556e-05
4.05412e-05
3.42194e-05
2.90072e-05
2.47106e-05
2.13497e-05
1.93051e-05
1.88322e-05
4.97937e-05
3.45743e-05
0.00237808
0.00520348
0.000713175
0.000459051
0.000462986
0.000500442
0.000556316
0.000634131
0.000732392
0.000831552
0.000901811
0.000918696
0.000872461
0.00077384
0.000667403
0.000606813
0.000691764
0.000501551
0.000299797
0.000203376
0.000149567
0.000117817
0.00010415
0.000210782
0.000152196
0.000114005
8.82088e-05
7.00712e-05
5.68225e-05
4.68374e-05
3.92179e-05
3.35762e-05
2.57076e-05
2.24091e-05
0.000100452
5.41968e-05
0.00404319
0.0110678
0.00128788
0.000493764
0.000457717
0.000501965
0.000574425
0.000680364
0.000820162
0.000952699
0.00103545
0.00105076
0.000996057
0.00087876
0.000734757
0.000611452
0.000584307
0.00105232
0.00057996
0.000320094
0.000205953
0.000149934
0.000119989
0.000111934
0.000278201
0.000220509
0.000188731
0.000167765
0.000149983
0.000131606
0.000114896
9.81754e-05
8.01226e-05
4.81355e-05
3.4081e-05
0.000191383
7.30303e-05
0.00636864
0.0195762
0.00276543
0.000670274
0.000499816
0.000527917
0.000612834
0.000770182
0.000989903
0.00115991
0.00123933
0.00123508
0.00115358
0.000994724
0.000795092
0.000598695
0.000449618
0.000386884
0.000291752
0.000215894
0.000165353
0.000134318
0.000115616
0.000106467
0.000113267
0.000113448
0.000111798
0.00010815
0.000101784
9.25575e-05
8.27251e-05
7.33035e-05
6.44782e-05
5.20465e-05
4.20311e-05
0.000132388
8.23386e-05
0.000131894
0.00021932
0.000305547
0.00958381
0.0284859
0.00643348
0.00155186
0.000880333
0.000761346
0.00079501
0.00103672
0.00135406
0.00151579
0.00155122
0.00149985
0.00137005
0.00116291
0.000901518
0.00063638
0.000426842
0.000300736
0.000229663
0.000183412
0.000151529
0.000131737
0.000120495
0.000115765
0.000117848
0.000122329
0.000125829
0.000126339
0.000122503
0.000113078
9.80288e-05
8.27419e-05
6.91655e-05
5.73995e-05
5.18888e-05
8.87955e-05
8.70404e-05
0.000102924
0.000416325
0.000357124
0.0132353
0.033531
0.013317
0.00555455
0.00326924
0.00225411
0.00186807
0.00200237
0.00211617
0.00210096
0.00201192
0.00186857
0.00166183
0.00138022
0.00103977
0.000699196
0.000435918
0.000282818
0.000211746
0.000175511
0.000153695
0.000141882
0.000136717
0.000136597
0.00014121
0.000148711
0.00015657
0.000163044
0.000166985
0.000165749
0.000153733
0.000132341
0.000112339
9.5484e-05
8.98661e-05
0.000109443
0.000144664
0.000267356
0.000658167
0.000577737
0.0139151
0.0352352
0.0204084
0.0152064
0.0110258
0.0076335
0.00558082
0.00432365
0.00351358
0.00300363
0.00264788
0.00233866
0.00200833
0.00161844
0.0011754
0.00074828
0.000438686
0.000276804
0.000217099
0.000191043
0.000177477
0.000170799
0.000168667
0.000170253
0.000175366
0.000183576
0.00019472
0.0002096
0.000229591
0.000255149
0.000284033
0.000301506
0.000309511
0.000335319
0.000397019
0.00063005
0.00129405
0.00291992
0.00904377
0.00193016
0.0127176
0.0207829
0.0161738
0.012459
0.00982535
0.00775388
0.00618057
0.00504478
0.00427708
0.00373522
0.00326735
0.00280999
0.00233281
0.00180675
0.00124249
0.000736396
0.000438146
0.00031639
0.000270762
0.00025173
0.00024209
0.000236402
0.000232736
0.000230563
0.000230046
0.000231896
0.000237888
0.000251401
0.000277326
0.000321459
0.000390149
0.000490026
0.000629506
0.000840671
0.00115473
0.00157936
0.00205539
0.00244076
0.00269635
0.00146252
0.00291573
0.00522831
0.00616332
0.00633148
0.00619497
0.00590018
0.00536246
0.00459124
0.00375424
0.00301796
0.00237682
0.00175998
0.00115009
0.000770758
0.000568316
0.00047958
0.000444063
0.000428307
0.000419172
0.000411917
0.000404403
0.000395355
0.000384073
0.000370645
0.000356591
0.000345677
0.000344319
0.000361447
0.000408282
0.000491382
0.000620704
0.000807042
0.00105091
0.00131517
0.00150688
0.00150058
0.00119947
0.000809774
0.00542105
0.00886913
0.0084654
0.0077078
0.0069116
0.00593078
0.00489578
0.0037696
0.00269717
0.001889
0.00142515
0.00115396
0.00100673
0.000938955
0.000886502
0.000841584
0.000807766
0.000783968
0.000766427
0.000751737
0.000736958
0.000719393
0.000697127
0.000669914
0.00063977
0.000610929
0.000589308
0.000581771
0.000598306
0.000650333
0.000747408
0.000896595
0.00109642
0.00133574
0.00154064
0.00166494
0.00106246
0.000851046
0.00357323
0.00421196
0.00474092
0.00549854
0.00549792
0.00514488
0.00439312
0.00331397
0.00228072
0.00162188
0.0013069
0.00110553
0.000976959
0.00085094
0.000728545
0.00062129
0.000553026
0.000512473
0.000489349
0.000475308
0.000465219
0.000456655
0.000448536
0.000440593
0.000433345
0.000428093
0.000426805
0.000432027
0.000447059
0.000476738
0.000521275
0.000583697
0.000667012
0.000775935
0.000915206
0.00112818
0.00120127
0.00112575
0.000915505
0.000722332
)
;

boundaryField
{
    floor
    {
        Cmu             0.09;
        kappa           0.41;
        E               9.8;
        type            epsilonWallFunction;
        value           nonuniform List<scalar> 
29
(
0.000760228
5.50359e-05
9.61741e-05
0.000120719
0.000114502
0.000105456
9.52787e-05
8.28443e-05
7.11364e-05
6.12579e-05
5.31477e-05
4.65003e-05
4.10179e-05
3.6431e-05
3.25217e-05
2.91345e-05
2.6057e-05
2.30631e-05
2.12337e-05
1.67843e-05
1.67843e-05
3.45743e-05
5.41968e-05
7.30303e-05
0.000760228
5.50359e-05
0.000115561
0.000501551
0.00105232
)
;
    }
    ceiling
    {
        Cmu             0.09;
        kappa           0.41;
        E               9.8;
        type            epsilonWallFunction;
        value           nonuniform List<scalar> 
43
(
0.00357323
0.00421196
0.00474092
0.00549854
0.00549792
0.00514488
0.00439312
0.00331397
0.00228072
0.00162188
0.0013069
0.00110553
0.000976959
0.00085094
0.000728545
0.00062129
0.000553026
0.000512473
0.000489349
0.000475308
0.000465219
0.000456655
0.000448536
0.000440593
0.000433345
0.000428093
0.000426805
0.000432027
0.000447059
0.000476738
0.000521275
0.000583697
0.000667012
0.000775935
0.000915206
0.00112818
0.00120127
0.00112575
0.000915505
0.000722332
0.0127176
0.0207829
0.00542105
)
;
    }
    sWall
    {
        Cmu             0.09;
        kappa           0.41;
        E               9.8;
        type            epsilonWallFunction;
        value           uniform 0.00357323;
    }
    nWall
    {
        Cmu             0.09;
        kappa           0.41;
        E               9.8;
        type            epsilonWallFunction;
        value           nonuniform List<scalar> 6(0.000305547 0.000357124 0.000577737 0.000809774 0.000851046 0.000722332);
    }
    sideWalls
    {
        type            empty;
    }
    glass1
    {
        Cmu             0.09;
        kappa           0.41;
        E               9.8;
        type            epsilonWallFunction;
        value           nonuniform List<scalar> 9(0.00042499 0.00121822 0.00237808 0.00404319 0.00636864 0.00958381 0.0132353 0.0139151 0.0127176);
    }
    glass2
    {
        Cmu             0.09;
        kappa           0.41;
        E               9.8;
        type            epsilonWallFunction;
        value           nonuniform List<scalar> 2(0.00193016 0.00146252);
    }
    sun
    {
        Cmu             0.09;
        kappa           0.41;
        E               9.8;
        type            epsilonWallFunction;
        value           nonuniform List<scalar> 
14
(
0.00042499
0.000537235
0.000543264
0.000623785
0.000707099
0.000791548
0.000879317
0.000974703
0.00106949
0.00114223
0.00117422
0.00114677
0.0010531
0.000911388
)
;
    }
    heatsource1
    {
        Cmu             0.09;
        kappa           0.41;
        E               9.8;
        type            epsilonWallFunction;
        value           nonuniform List<scalar> 3(0.000131894 0.00021932 0.000305547);
    }
    heatsource2
    {
        Cmu             0.09;
        kappa           0.41;
        E               9.8;
        type            epsilonWallFunction;
        value           nonuniform List<scalar> 4(0.000786729 0.000200743 0.000200743 0.000691764);
    }
    Table_master
    {
        Cmu             0.09;
        kappa           0.41;
        E               9.8;
        type            epsilonWallFunction;
        value           nonuniform List<scalar> 9(0.000210782 0.000152196 0.000114005 8.82088e-05 7.00712e-05 5.68225e-05 4.68374e-05 3.92179e-05 3.35762e-05);
    }
    Table_slave
    {
        Cmu             0.09;
        kappa           0.41;
        E               9.8;
        type            epsilonWallFunction;
        value           nonuniform List<scalar> 9(0.000278201 0.000220509 0.000188731 0.000167765 0.000149983 0.000131606 0.000114896 9.81754e-05 8.01226e-05);
    }
    inlet
    {
        type            turbulentMixingLengthDissipationRateInlet;
        mixingLength    0.01;
        phi             phi;
        k               k;
        value           uniform 0.00129426;
    }
    outlet
    {
        type            zeroGradient;
    }
}


// ************************************************************************* //
