/*--------------------------------*- C++ -*----------------------------------*\
  =========                 |
  \\      /  F ield         | OpenFOAM: The Open Source CFD Toolbox
   \\    /   O peration     | Website:  https://openfoam.org
    \\  /    A nd           | Version:  6
     \\/     M anipulation  |
\*---------------------------------------------------------------------------*/
FoamFile
{
    version     2.0;
    format      ascii;
    class       volScalarField;
    location    "1100";
    object      epsilon;
}
// * * * * * * * * * * * * * * * * * * * * * * * * * * * * * * * * * * * * * //

dimensions      [0 2 -3 0 0 0 0];

internalField   nonuniform List<scalar> 
459
(
0.000446718
0.000582563
0.000615829
0.000709003
0.00080326
0.000898735
0.000999405
0.00110464
0.001183
0.00121676
0.0011912
0.00110179
0.000958075
0.000786224
0.000622786
3.77339e-05
6.89521e-05
9.80869e-05
9.61971e-05
8.65633e-05
7.4944e-05
6.19268e-05
5.06131e-05
4.16171e-05
3.45797e-05
2.90496e-05
2.46579e-05
2.11435e-05
1.82861e-05
1.58897e-05
1.37827e-05
1.1796e-05
1.0497e-05
7.92917e-06
0.00112921
0.00162115
0.000552346
0.000536514
0.000562864
0.000605
0.000666193
0.000746999
0.000823817
0.000873019
0.000875265
0.000823968
0.00072576
0.000604045
0.000520124
0.000660398
0.000134387
4.77086e-05
0.000117255
0.000122587
0.000110624
9.36962e-05
7.81344e-05
6.99021e-05
5.66148e-05
4.49285e-05
3.5665e-05
2.85114e-05
2.30099e-05
1.87817e-05
1.55404e-05
1.31581e-05
1.17117e-05
1.10717e-05
2.50989e-05
1.76558e-05
0.00205699
0.00396256
0.000689134
0.000515079
0.000540398
0.000607207
0.000705074
0.000827453
0.000940379
0.00101076
0.00102053
0.000969635
0.000868347
0.000739148
0.000626406
0.00056547
0.00065054
0.00037851
0.000266408
0.000199603
0.000153526
0.000120548
0.000100953
0.000181693
0.000125137
8.9313e-05
6.59794e-05
5.0291e-05
3.94162e-05
3.16824e-05
2.60955e-05
2.20795e-05
1.67601e-05
1.39371e-05
4.46758e-05
2.72859e-05
0.00332754
0.00820854
0.00110304
0.000529381
0.00053498
0.000631187
0.000784135
0.000971534
0.00111944
0.00119494
0.00119373
0.00112685
0.00100619
0.00085304
0.000713095
0.000611691
0.000583552
0.00111445
0.000616792
0.000369376
0.000247104
0.000177874
0.000135279
0.000115414
0.000260995
0.000196906
0.000158116
0.00013226
0.000112681
9.65239e-05
8.25563e-05
6.94317e-05
5.6052e-05
3.29807e-05
2.13924e-05
6.96798e-05
3.6797e-05
0.00507501
0.0145962
0.00220107
0.000653115
0.000567785
0.0006971
0.000973109
0.00125017
0.00140635
0.0014551
0.00141947
0.00131733
0.0011607
0.000970096
0.000776297
0.000605733
0.000477848
0.000417064
0.000335346
0.000262464
0.000204625
0.000160734
0.000128398
0.000107206
0.000103225
9.56392e-05
8.80888e-05
8.07407e-05
7.31736e-05
6.52954e-05
5.7554e-05
5.02655e-05
4.35877e-05
3.4533e-05
2.61868e-05
5.16345e-05
4.07207e-05
6.88321e-05
0.000122207
0.000172797
0.00750173
0.0216305
0.00495432
0.00131263
0.000904388
0.00105506
0.00155763
0.00180437
0.00186919
0.00183484
0.00173788
0.00158295
0.00137151
0.00112065
0.000863116
0.000634417
0.00046189
0.000353206
0.000282714
0.00022823
0.000182867
0.000146848
0.00012013
0.000102522
9.39054e-05
8.98406e-05
8.71151e-05
8.3984e-05
7.94121e-05
7.25605e-05
6.34118e-05
5.39484e-05
4.53006e-05
3.75404e-05
3.23297e-05
4.07284e-05
4.22588e-05
5.26541e-05
0.000224952
0.0001962
0.0102902
0.0258289
0.0101326
0.00426539
0.00297294
0.0029263
0.00293567
0.00279078
0.00259268
0.00239133
0.00218221
0.00193764
0.00164021
0.00130424
0.000968469
0.000676931
0.000464354
0.000332565
0.00025391
0.000200702
0.000160228
0.000130299
0.000110156
9.88309e-05
9.49143e-05
9.54267e-05
9.74919e-05
9.96293e-05
0.000100798
9.94712e-05
9.26269e-05
8.19646e-05
7.13628e-05
6.226e-05
5.84886e-05
6.44688e-05
8.09945e-05
0.000128151
0.00029628
0.000288469
0.0108989
0.0279549
0.0156524
0.0107726
0.00817969
0.00636268
0.00502369
0.00411769
0.00352195
0.00310648
0.00275533
0.00238262
0.00195177
0.00148915
0.0010479
0.000679074
0.000430518
0.000288162
0.000208484
0.0001633
0.000132869
0.00011301
0.000101822
9.77132e-05
9.91068e-05
0.000104274
0.000111979
0.000121925
0.000134252
0.000148894
0.000164872
0.000175123
0.000184074
0.000203016
0.000242549
0.000360523
0.000658464
0.00124058
0.00367369
0.00109657
0.0100532
0.0167554
0.0133406
0.0101325
0.00782796
0.00629666
0.00531628
0.00470118
0.00427975
0.00389759
0.00344711
0.00287646
0.00220353
0.0015416
0.000972135
0.000527194
0.000313886
0.000213209
0.000160182
0.000129168
0.00011001
9.91512e-05
9.46539e-05
9.51555e-05
9.96725e-05
0.000107608
0.000118939
0.000134355
0.000155178
0.000183304
0.000221238
0.000272647
0.000343303
0.000449266
0.000605388
0.00081842
0.00106474
0.0012832
0.00145196
0.000913767
0.00364606
0.00561642
0.00655942
0.00669065
0.00652814
0.00615758
0.00554008
0.00469642
0.00370913
0.00262032
0.00152362
0.000867995
0.000489719
0.000284814
0.00018818
0.00014072
0.000115294
0.000100635
9.20359e-05
8.76468e-05
8.62683e-05
8.72396e-05
9.03229e-05
9.56936e-05
0.000103886
0.000115822
0.000132911
0.0001572
0.000191665
0.000240615
0.000308985
0.000403402
0.000527424
0.000670726
0.000797457
0.00085826
0.000820165
0.000527299
0.00276535
0.00638918
0.00711297
0.00593466
0.00530059
0.00459247
0.00366469
0.00270678
0.00187289
0.00122362
0.000730446
0.000432014
0.00026991
0.000188951
0.000151515
0.000134206
0.000125915
0.000121621
0.00011907
0.00011732
0.000116101
0.000115457
0.000115811
0.000117875
0.000122374
0.000130136
0.000142392
0.000160971
0.000188568
0.000228584
0.00028548
0.000363744
0.000463872
0.000578074
0.000663692
0.000756245
0.000758446
0.000558423
0.00198386
0.00236014
0.00265355
0.00331699
0.00300403
0.00265273
0.00243885
0.00215452
0.00178574
0.00138915
0.00101845
0.000709783
0.000476815
0.000323072
0.00023186
0.000178752
0.000146535
0.000125961
0.000112403
0.000103475
9.78363e-05
9.47376e-05
9.37487e-05
9.4893e-05
9.84223e-05
0.000104384
0.000112964
0.000124734
0.000140568
0.000161775
0.000188918
0.000223344
0.000267115
0.000322818
0.000392716
0.000488115
0.000521782
0.000482758
0.000400821
0.000324692
)
;

boundaryField
{
    floor
    {
        Cmu             0.09;
        kappa           0.41;
        E               9.8;
        type            epsilonWallFunction;
        value           nonuniform List<scalar> 
29
(
0.000622786
3.77339e-05
6.89521e-05
9.80869e-05
9.61971e-05
8.65633e-05
7.4944e-05
6.19268e-05
5.06131e-05
4.16171e-05
3.45797e-05
2.90496e-05
2.46579e-05
2.11435e-05
1.82861e-05
1.58897e-05
1.37827e-05
1.1796e-05
1.0497e-05
7.92917e-06
7.92917e-06
1.76558e-05
2.72859e-05
3.6797e-05
0.000622786
3.77339e-05
4.77086e-05
0.00037851
0.00111445
)
;
    }
    ceiling
    {
        Cmu             0.09;
        kappa           0.41;
        E               9.8;
        type            epsilonWallFunction;
        value           nonuniform List<scalar> 
43
(
0.00198386
0.00236014
0.00265355
0.00331699
0.00300403
0.00265273
0.00243885
0.00215452
0.00178574
0.00138915
0.00101845
0.000709783
0.000476815
0.000323072
0.00023186
0.000178752
0.000146535
0.000125961
0.000112403
0.000103475
9.78363e-05
9.47376e-05
9.37487e-05
9.4893e-05
9.84223e-05
0.000104384
0.000112964
0.000124734
0.000140568
0.000161775
0.000188918
0.000223344
0.000267115
0.000322818
0.000392716
0.000488115
0.000521782
0.000482758
0.000400821
0.000324692
0.0100532
0.0167554
0.00276535
)
;
    }
    sWall
    {
        Cmu             0.09;
        kappa           0.41;
        E               9.8;
        type            epsilonWallFunction;
        value           uniform 0.00198386;
    }
    nWall
    {
        Cmu             0.09;
        kappa           0.41;
        E               9.8;
        type            epsilonWallFunction;
        value           nonuniform List<scalar> 6(0.000172797 0.0001962 0.000288469 0.000527299 0.000558423 0.000324692);
    }
    sideWalls
    {
        type            empty;
    }
    glass1
    {
        Cmu             0.09;
        kappa           0.41;
        E               9.8;
        type            epsilonWallFunction;
        value           nonuniform List<scalar> 9(0.000446718 0.00112921 0.00205699 0.00332754 0.00507501 0.00750173 0.0102902 0.0108989 0.0100532);
    }
    glass2
    {
        Cmu             0.09;
        kappa           0.41;
        E               9.8;
        type            epsilonWallFunction;
        value           nonuniform List<scalar> 2(0.00109657 0.000913767);
    }
    sun
    {
        Cmu             0.09;
        kappa           0.41;
        E               9.8;
        type            epsilonWallFunction;
        value           nonuniform List<scalar> 
14
(
0.000446718
0.000582563
0.000615829
0.000709003
0.00080326
0.000898735
0.000999405
0.00110464
0.001183
0.00121676
0.0011912
0.00110179
0.000958075
0.000786224
)
;
    }
    heatsource1
    {
        Cmu             0.09;
        kappa           0.41;
        E               9.8;
        type            epsilonWallFunction;
        value           nonuniform List<scalar> 3(6.88321e-05 0.000122207 0.000172797);
    }
    heatsource2
    {
        Cmu             0.09;
        kappa           0.41;
        E               9.8;
        type            epsilonWallFunction;
        value           nonuniform List<scalar> 4(0.000660398 0.000134387 0.000134387 0.00065054);
    }
    Table_master
    {
        Cmu             0.09;
        kappa           0.41;
        E               9.8;
        type            epsilonWallFunction;
        value           nonuniform List<scalar> 9(0.000181693 0.000125137 8.9313e-05 6.59794e-05 5.0291e-05 3.94162e-05 3.16824e-05 2.60955e-05 2.20795e-05);
    }
    Table_slave
    {
        Cmu             0.09;
        kappa           0.41;
        E               9.8;
        type            epsilonWallFunction;
        value           nonuniform List<scalar> 9(0.000260995 0.000196906 0.000158116 0.00013226 0.000112681 9.65239e-05 8.25563e-05 6.94317e-05 5.6052e-05);
    }
    inlet
    {
        type            turbulentMixingLengthDissipationRateInlet;
        mixingLength    0.01;
        phi             phi;
        k               k;
        value           uniform 0.000101881;
    }
    outlet
    {
        type            zeroGradient;
    }
}


// ************************************************************************* //
