/*--------------------------------*- C++ -*----------------------------------*\
  =========                 |
  \\      /  F ield         | OpenFOAM: The Open Source CFD Toolbox
   \\    /   O peration     | Website:  https://openfoam.org
    \\  /    A nd           | Version:  6
     \\/     M anipulation  |
\*---------------------------------------------------------------------------*/
FoamFile
{
    version     2.0;
    format      ascii;
    class       volScalarField;
    location    "1100";
    object      nut;
}
// * * * * * * * * * * * * * * * * * * * * * * * * * * * * * * * * * * * * * //

dimensions      [0 2 -1 0 0 0 0];

internalField   nonuniform List<scalar> 
459
(
0.00108074
0.00118075
0.00120281
0.00126065
0.00131421
0.00136434
0.00141349
0.00146145
0.00149522
0.00150932
0.00149867
0.0014602
0.00139373
0.00130485
0.00120733
0.000474193
0.000579733
0.000652002
0.000647787
0.000625398
0.000596061
0.000559334
0.000522957
0.000489932
0.000460595
0.000434602
0.000411494
0.000390935
0.000372465
0.000355427
0.000338967
0.000321828
0.000309551
0.000281917
0.00147221
0.00359644
0.00344345
0.00400842
0.00456391
0.00511932
0.00560915
0.00597805
0.00631124
0.00658157
0.0067513
0.00677773
0.00659569
0.00604119
0.00451936
0.00123116
0.000724154
0.000512756
0.00107548
0.00148399
0.00177493
0.00192784
0.00191932
0.00154379
0.00133199
0.00118024
0.00106368
0.000970985
0.000895589
0.000830658
0.000770199
0.000711595
0.000659524
0.000614258
0.00071909
0.000368135
0.001798
0.0049129
0.00427447
0.00535978
0.00590279
0.00630652
0.00662055
0.00687136
0.00714253
0.00742438
0.0076836
0.00787323
0.00794109
0.0078099
0.0072742
0.00560825
0.001225
0.00102268
0.00146817
0.00187856
0.00224191
0.00248552
0.00241374
0.00080074
0.000707142
0.000631951
0.000571279
0.000521845
0.000481139
0.000447354
0.000419341
0.00039662
0.000427363
0.000494046
0.000807976
0.000425623
0.00211067
0.0062787
0.00428901
0.00567408
0.00615143
0.00631639
0.00642525
0.00655648
0.00677348
0.00706226
0.0073882
0.00769291
0.00792221
0.0080152
0.00790011
0.00732567
0.00536061
0.00146577
0.00181709
0.00234322
0.00284685
0.00324043
0.00347544
0.00324893
0.000903488
0.000822491
0.000764488
0.000720313
0.000682856
0.00064852
0.000615595
0.000581073
0.000541056
0.000507516
0.000518666
0.000922078
0.000470236
0.00242954
0.0080325
0.00471679
0.00546632
0.00609758
0.00614418
0.00609728
0.00617011
0.00636176
0.00665488
0.00701992
0.0073765
0.00764947
0.00777843
0.00774218
0.00749869
0.00687964
0.00569053
0.00528104
0.00514227
0.00508983
0.00505323
0.0049911
0.00479228
0.00404454
0.00368602
0.00347897
0.00332046
0.00315372
0.00291242
0.00258427
0.00218381
0.00173742
0.00128687
0.000948457
0.000948652
0.000630815
0.000579396
0.000701579
0.000787451
0.00276757
0.00994316
0.0064928
0.0054493
0.0059256
0.00614295
0.00601182
0.00607054
0.00621415
0.00647575
0.00684348
0.00723367
0.00753368
0.00765688
0.00758372
0.00736137
0.00706611
0.00675876
0.00658314
0.00644963
0.00629827
0.00612763
0.00593981
0.00570955
0.00537432
0.00507692
0.0048145
0.00456288
0.00430556
0.00402429
0.00366748
0.00322185
0.00268754
0.00209528
0.00157055
0.00117202
0.000881615
0.000748317
0.0010666
0.000821507
0.00307505
0.0112812
0.00909641
0.00703004
0.0066536
0.00657027
0.00634835
0.00620817
0.00625331
0.00650798
0.0069153
0.0073503
0.00766614
0.00776079
0.00762467
0.00735545
0.00712363
0.00704186
0.00704445
0.0069713
0.00678052
0.00650961
0.00619174
0.00584311
0.00547768
0.00513856
0.00482666
0.00453421
0.00426147
0.00401515
0.00379565
0.00349808
0.00307948
0.00256674
0.00207246
0.00162872
0.00130265
0.00119877
0.00122145
0.000934139
0.00313453
0.0100378
0.00892098
0.0082413
0.00763376
0.0069331
0.00638774
0.00617302
0.00630886
0.00671936
0.00726286
0.00775925
0.00804083
0.00802835
0.0077627
0.00741162
0.00719924
0.00719215
0.00718779
0.00696211
0.00657941
0.00611501
0.0056278
0.00516557
0.00475963
0.00441651
0.00412323
0.00387286
0.00366897
0.00352029
0.00343546
0.0033911
0.00318312
0.00284997
0.00255403
0.00239442
0.00247154
0.00284141
0.00349986
0.00145789
0.00305127
0.00361768
0.00401498
0.00411232
0.00419657
0.00443073
0.00490247
0.00561959
0.00649771
0.00738419
0.00811521
0.00853663
0.00854754
0.00819857
0.00767738
0.0073186
0.00710962
0.00692351
0.00662008
0.00614894
0.00557939
0.0049968
0.00447036
0.00403403
0.00368653
0.00340701
0.00317427
0.00297577
0.00280403
0.00265196
0.00251211
0.00238408
0.0022836
0.00220955
0.00217971
0.00218709
0.00217459
0.00208958
0.00195542
0.0013719
0.00148098
0.00305519
0.00498431
0.00659307
0.00785047
0.00881029
0.00941616
0.00965618
0.00956592
0.00913789
0.00846369
0.00762536
0.00691284
0.00646562
0.00609902
0.00565543
0.00512262
0.00456159
0.00403384
0.00357916
0.00321876
0.00293936
0.00271925
0.00254163
0.00239722
0.00228203
0.00219479
0.00213542
0.00210628
0.00210563
0.00211934
0.00214344
0.00217045
0.00217695
0.00212484
0.00200152
0.0018149
0.00114217
0.0019844
0.00513075
0.00767362
0.00865515
0.00915074
0.00930812
0.00910291
0.00859714
0.00789571
0.00710153
0.00634882
0.00567674
0.00513222
0.00466665
0.0041999
0.00374598
0.00334868
0.00302923
0.00278427
0.00259834
0.00244783
0.00232
0.00220921
0.00211828
0.0020501
0.00200456
0.00198089
0.00197761
0.00200006
0.00204551
0.00211056
0.00218789
0.00226164
0.0023128
0.00229477
0.00232224
0.00235731
0.00116421
0.00177643
0.00188231
0.00195729
0.00210843
0.00203992
0.00195708
0.00190301
0.00182598
0.00171521
0.00157747
0.00142241
0.00126111
0.00110449
0.000970089
0.000868534
0.000796395
0.000745348
0.000708692
0.000682294
0.000663728
0.000651446
0.000644495
0.000642244
0.000644847
0.000652744
0.000665665
0.000683427
0.000706383
0.00073509
0.000770339
0.000811215
0.000857768
0.000910495
0.000969834
0.00103531
0.00111315
0.00113817
0.00110906
0.00104239
0.000971708
)
;

boundaryField
{
    floor
    {
        type            nutkWallFunction;
        Cmu             0.09;
        kappa           0.41;
        E               9.8;
        value           nonuniform List<scalar> 
29
(
0.000144853
5.63987e-05
6.98055e-05
7.8811e-05
7.82892e-05
7.55106e-05
7.18515e-05
6.72395e-05
6.26346e-05
5.84198e-05
5.46459e-05
5.1277e-05
4.82607e-05
4.55588e-05
4.31161e-05
4.0849e-05
3.86453e-05
3.63359e-05
3.46719e-05
3.08935e-05
3.08934e-05
4.25408e-05
5.01067e-05
5.58886e-05
0.000144853
5.63987e-05
6.13361e-05
0.00012339
0.000174289
)
;
    }
    ceiling
    {
        type            nutkWallFunction;
        Cmu             0.09;
        kappa           0.41;
        E               9.8;
        value           nonuniform List<scalar> 
43
(
0.000208786
0.000220418
0.000228615
0.000245134
0.000237741
0.000228734
0.00022283
0.00021438
0.000202155
0.000186828
0.000169395
0.000151034
0.000132951
0.0001172
0.000105132
9.64598e-05
9.02678e-05
8.57905e-05
8.25491e-05
8.02605e-05
7.87422e-05
7.78814e-05
7.76025e-05
7.7925e-05
7.89028e-05
8.04996e-05
8.26885e-05
8.55075e-05
8.90175e-05
9.33053e-05
9.82487e-05
0.000103843
0.000110137
0.00011717
0.000124874
0.000133959
0.000136865
0.000133484
0.000125703
0.000117392
0.000345483
0.000404026
0.000231442
)
;
    }
    sWall
    {
        type            nutkWallFunction;
        Cmu             0.09;
        kappa           0.41;
        E               9.8;
        value           uniform 0.000208844;
    }
    nWall
    {
        type            nutkWallFunction;
        Cmu             0.09;
        kappa           0.41;
        E               9.8;
        value           nonuniform List<scalar> 6(9.53785e-05 9.94897e-05 0.000112949 0.000137338 0.000139891 0.000117398);
    }
    sideWalls
    {
        type            empty;
    }
    glass1
    {
        type            nutkWallFunction;
        Cmu             0.09;
        kappa           0.41;
        E               9.8;
        value           nonuniform List<scalar> 9(0.000130289 0.000175236 0.00021161 0.000245843 0.000280199 0.000316102 0.000348363 0.000354575 0.000345906);
    }
    glass2
    {
        type            nutkWallFunction;
        Cmu             0.09;
        kappa           0.41;
        E               9.8;
        value           nonuniform List<scalar> 2(0.000173474 0.000163737);
    }
    sun
    {
        type            nutkWallFunction;
        Cmu             0.09;
        kappa           0.41;
        E               9.8;
        value           nonuniform List<scalar> 
14
(
0.000130188
0.00014179
0.000144334
0.000150981
0.000157105
0.000162813
0.000168386
0.000173804
0.000177607
0.000179191
0.000177994
0.000173661
0.000166147
0.000156036
)
;
    }
    heatsource1
    {
        type            nutkWallFunction;
        Cmu             0.09;
        kappa           0.41;
        E               9.8;
        value           nonuniform List<scalar> 3(6.97649e-05 8.49189e-05 9.53783e-05);
    }
    heatsource2
    {
        type            nutkWallFunction;
        Cmu             0.09;
        kappa           0.41;
        E               9.8;
        value           nonuniform List<scalar> 4(0.000147591 8.76833e-05 8.76833e-05 0.000146883);
    }
    Table_master
    {
        type            nutkWallFunction;
        Cmu             0.09;
        kappa           0.41;
        E               9.8;
        value           nonuniform List<scalar> 9(9.69844e-05 8.56015e-05 7.63271e-05 6.87465e-05 6.24975e-05 5.72969e-05 5.2939e-05 4.92943e-05 4.63157e-05);
    }
    Table_slave
    {
        type            nutkWallFunction;
        Cmu             0.09;
        kappa           0.41;
        E               9.8;
        value           nonuniform List<scalar> 9(0.000109302 9.96066e-05 9.25953e-05 8.72135e-05 8.26191e-05 7.83812e-05 7.4292e-05 6.99759e-05 6.49333e-05);
    }
    inlet
    {
        type            calculated;
        value           uniform 0.000100623;
    }
    outlet
    {
        type            calculated;
        value           nonuniform List<scalar> 2(0.00177643 0.00188231);
    }
}


// ************************************************************************* //
