// -*- C++ -*-
// File generated by PyFoam - sorry for the ugliness

FoamFile
{
 version 2.0;
 format ascii;
 class volScalarField;
 location "200";
 object T;
}

dimensions [ 0 0 0 1 0 0 0 ];

internalField nonuniform List<scalar> 459
(
  303.388
  303.069
  303.068
  303.079
  303.087
  303.095
  303.101
  303.105
  303.109
  303.112
  303.112
  303.107
  303.099
  303.086
  303.071
  302.044
  302.037
  302.039
  301.998
  301.96
  301.961
  301.965
  301.953
  301.93
  301.92
  301.917
  301.92
  301.926
  301.937
  301.972
  302.041
  302.091
  302.078
  302.069
  303.625
  303.139
  303.118
  303.135
  303.153
  303.169
  303.182
  303.193
  303.201
  303.205
  303.202
  303.19
  303.167
  303.132
  303.083
  303.032
  302.894
  302.101
  302.142
  302.185
  302.224
  302.203
  302.116
  302.049
  302.026
  302.02
  302.023
  302.037
  302.063
  302.108
  302.176
  302.256
  302.345
  302.328
  302.218
  302.103
  303.845
  303.219
  303.172
  303.196
  303.225
  303.252
  303.276
  303.295
  303.31
  303.318
  303.316
  303.299
  303.265
  303.211
  303.138
  303.054
  302.98
  302.474
  302.452
  302.497
  302.566
  302.627
  302.623
  302.143
  302.129
  302.173
  302.217
  302.263
  302.313
  302.368
  302.434
  302.518
  302.596
  302.473
  302.411
  302.369
  304.047
  303.307
  303.225
  303.254
  303.294
  303.334
  303.371
  303.404
  303.429
  303.445
  303.448
  303.432
  303.394
  303.333
  303.245
  303.132
  302.999
  302.881
  302.786
  302.835
  302.907
  302.981
  303.029
  303.057
  303.078
  303.079
  303.081
  303.083
  303.087
  303.09
  303.095
  303.102
  303.096
  303.033
  302.982
  302.941
  302.922
  304.231
  303.4
  303.277
  303.302
  303.352
  303.403
  303.453
  303.5
  303.54
  303.568
  303.58
  303.574
  303.546
  303.495
  303.425
  303.341
  303.254
  303.181
  303.13
  303.116
  303.129
  303.143
  303.151
  303.154
  303.154
  303.153
  303.154
  303.158
  303.165
  303.174
  303.186
  303.198
  303.209
  303.214
  303.222
  303.231
  303.228
  303.256
  303.246
  303.25
  304.39
  303.501
  303.34
  303.341
  303.393
  303.451
  303.509
  303.566
  303.619
  303.661
  303.688
  303.695
  303.68
  303.643
  303.586
  303.513
  303.436
  303.366
  303.313
  303.28
  303.262
  303.25
  303.239
  303.229
  303.219
  303.212
  303.208
  303.211
  303.22
  303.235
  303.253
  303.274
  303.295
  303.316
  303.337
  303.356
  303.371
  303.378
  303.323
  303.284
  304.516
  303.65
  303.471
  303.41
  303.433
  303.483
  303.54
  303.599
  303.661
  303.719
  303.758
  303.779
  303.781
  303.763
  303.724
  303.668
  303.6
  303.531
  303.471
  303.424
  303.388
  303.36
  303.335
  303.313
  303.293
  303.275
  303.261
  303.255
  303.261
  303.277
  303.301
  303.326
  303.35
  303.372
  303.39
  303.405
  303.416
  303.418
  303.397
  303.298
  304.728
  304.041
  303.85
  303.686
  303.597
  303.581
  303.609
  303.654
  303.721
  303.775
  303.812
  303.835
  303.845
  303.843
  303.826
  303.792
  303.743
  303.681
  303.622
  303.568
  303.522
  303.482
  303.447
  303.414
  303.383
  303.352
  303.324
  303.302
  303.292
  303.298
  303.317
  303.341
  303.366
  303.387
  303.405
  303.421
  303.438
  303.457
  303.477
  303.505
  305.018
  304.727
  304.551
  304.344
  304.158
  304.031
  303.957
  303.923
  303.905
  303.898
  303.899
  303.901
  303.902
  303.898
  303.888
  303.87
  303.841
  303.801
  303.755
  303.706
  303.658
  303.613
  303.571
  303.531
  303.491
  303.452
  303.412
  303.373
  303.341
  303.324
  303.319
  303.325
  303.336
  303.344
  303.348
  303.354
  303.368
  303.39
  303.421
  303.51
  303.797
  304.13
  304.133
  304.088
  304.048
  304.022
  304.006
  303.992
  303.98
  303.97
  303.959
  303.948
  303.935
  303.919
  303.9
  303.875
  303.845
  303.81
  303.771
  303.731
  303.69
  303.649
  303.607
  303.564
  303.519
  303.473
  303.429
  303.391
  303.362
  303.345
  303.338
  303.334
  303.331
  303.328
  303.329
  303.334
  303.345
  303.381
  303.83
  304.088
  304.1
  304.085
  304.065
  304.049
  304.035
  304.024
  304.012
  304
  303.987
  303.974
  303.96
  303.945
  303.929
  303.91
  303.89
  303.866
  303.84
  303.81
  303.778
  303.743
  303.706
  303.666
  303.624
  303.581
  303.535
  303.489
  303.447
  303.412
  303.386
  303.369
  303.357
  303.349
  303.346
  303.346
  303.35
  303.389
  303.919
  303.854
  303.858
  304.041
  304.059
  304.055
  304.047
  304.037
  304.027
  304.016
  304.006
  303.995
  303.983
  303.971
  303.958
  303.943
  303.928
  303.912
  303.895
  303.876
  303.857
  303.837
  303.816
  303.793
  303.769
  303.743
  303.715
  303.685
  303.651
  303.614
  303.575
  303.535
  303.499
  303.469
  303.445
  303.428
  303.411
  303.396
  303.382
  303.406
)
;

boundaryField
{
  floor
  {
    type wallHeatTransfer;
    Tinf uniform 305.2;
    alphaWall uniform 0.24;
    value nonuniform List<scalar> 29
(
  303.33
  302.762
  302.714
  302.712
  302.793
  302.876
  302.912
  302.939
  302.93
  302.873
  302.816
  302.767
  302.73
  302.709
  302.699
  302.689
  302.695
  302.703
  302.703
  302.748
  302.748
  302.689
  302.806
  303.186
  303.33
  302.762
  302.705
  302.83
  303.127
)
;
  }
  ceiling
  {
    type wallHeatTransfer;
    Tinf uniform 303.2;
    alphaWall uniform 0.24;
    value nonuniform List<scalar> 43
(
  303.87
  303.814
  303.822
  303.996
  304.008
  304.001
  303.989
  303.976
  303.963
  303.949
  303.936
  303.923
  303.909
  303.894
  303.879
  303.863
  303.846
  303.829
  303.811
  303.793
  303.775
  303.756
  303.737
  303.717
  303.696
  303.674
  303.65
  303.624
  303.596
  303.565
  303.531
  303.497
  303.466
  303.44
  303.419
  303.403
  303.388
  303.374
  303.361
  303.382
  304.937
  304.668
  303.799
)
;
  }
  sWall
  {
    type wallHeatTransfer;
    Tinf uniform 315.2;
    alphaWall uniform 0.36;
    value uniform 305.033;
  }
  nWall
  {
    type wallHeatTransfer;
    Tinf uniform 307.2;
    alphaWall uniform 0.36;
    value nonuniform List<scalar> 6
(
  303.866
  303.873
  303.894
  303.843
  303.895
  304.035
)
;
  }
  sideWalls
  {
    type empty;
  }
  glass1
  {
    type wallHeatTransfer;
    Tinf uniform 315.2;
    alphaWall uniform 4.3;
    value nonuniform List<scalar> 9
(
  312.274
  311.255
  310.623
  310.172
  309.848
  309.603
  309.405
  309.462
  309.689
)
;
  }
  glass2
  {
    type wallHeatTransfer;
    Tinf uniform 307.2;
    alphaWall uniform 4.3;
    value nonuniform List<scalar> 2
(
  305.89
  305.795
)
;
  }
  sun
  {
    type wallHeatTransfer;
    Tinf uniform 305.2;
    alphaWall uniform 0.24;
    value nonuniform List<scalar> 14
(
  303.645
  303.366
  303.384
  303.385
  303.384
  303.383
  303.381
  303.38
  303.377
  303.374
  303.37
  303.362
  303.353
  303.342
)
;
  }
  heatsource1
  {
    type fixedGradient;
    gradient uniform 0;
  }
  heatsource2
  {
    type fixedGradient;
    gradient uniform 0;
  }
  Table_master
  {
    type zeroGradient;
  }
  Table_slave
  {
    type zeroGradient;
  }
  inlet
  {
    type fixedValue;
    value uniform 299.15;
  }
  outlet
  {
    type zeroGradient;
  }
} 	// ************************************************************************* //

