/*--------------------------------*- C++ -*----------------------------------*\
  =========                 |
  \\      /  F ield         | OpenFOAM: The Open Source CFD Toolbox
   \\    /   O peration     | Website:  https://openfoam.org
    \\  /    A nd           | Version:  6
     \\/     M anipulation  |
\*---------------------------------------------------------------------------*/
FoamFile
{
    version     2.0;
    format      ascii;
    class       volScalarField;
    location    "200";
    object      alphat;
}
// * * * * * * * * * * * * * * * * * * * * * * * * * * * * * * * * * * * * * //

dimensions      [1 -1 -1 0 0 0 0];

internalField   nonuniform List<scalar> 
459
(
0.00129886
0.001425
0.00145687
0.0015292
0.00159699
0.00166177
0.00172739
0.00178403
0.00181948
0.00182671
0.00180045
0.00173727
0.0016342
0.00149038
0.00132035
0.000573591
0.000690697
0.000790744
0.000809139
0.000791477
0.000760631
0.000713449
0.000664718
0.000620318
0.000581028
0.000546376
0.000515719
0.000488402
0.000464021
0.000441645
0.000420149
0.000397907
0.000379598
0.000343432
0.00175131
0.00437454
0.00422716
0.00492478
0.0056219
0.00630153
0.00685273
0.00730634
0.00770426
0.00801224
0.0081957
0.0082226
0.00804722
0.00755945
0.00628984
0.00137478
0.000898516
0.000594629
0.00134958
0.00194857
0.00241039
0.00268392
0.0026807
0.00204798
0.00173296
0.00151584
0.00135287
0.00122553
0.00112326
0.00103899
0.00095983
0.000881268
0.000809771
0.000748378
0.000853917
0.000433333
0.0021239
0.00595914
0.00526709
0.00648243
0.00709656
0.0075565
0.00791365
0.00824547
0.00860356
0.00896623
0.00929078
0.00953051
0.00962597
0.00946899
0.00878813
0.00662389
0.00146177
0.00111705
0.00173324
0.00236738
0.00298127
0.00342332
0.00333455
0.00101552
0.000889648
0.000788504
0.000707158
0.000641178
0.000587109
0.000542437
0.000505732
0.000476504
0.00051735
0.00060209
0.000965965
0.000495096
0.00247819
0.00753051
0.00531106
0.00681609
0.00727279
0.00744031
0.00759235
0.00781705
0.00814028
0.00854012
0.00896092
0.0093419
0.0096053
0.00967267
0.00949032
0.00864597
0.00552425
0.00170791
0.00210842
0.00280152
0.00357853
0.00426814
0.00472019
0.00441965
0.001152
0.00104297
0.000963685
0.000902148
0.000849456
0.000802712
0.000757649
0.000710679
0.000656985
0.000610677
0.000624475
0.00110301
0.000544552
0.00283823
0.00953789
0.00581122
0.00664574
0.00720345
0.00722291
0.00721312
0.00738612
0.00768292
0.00810348
0.00856972
0.00899063
0.00927274
0.00937352
0.00929987
0.00899819
0.00821857
0.00698492
0.0066312
0.00663438
0.00675239
0.00685375
0.00685002
0.00656309
0.00542111
0.00485296
0.00451
0.0042461
0.00398208
0.00361982
0.00316932
0.00264461
0.00207549
0.0015196
0.00111829
0.00113756
0.000731174
0.000668854
0.000811551
0.000912598
0.00322042
0.0117397
0.00788961
0.00676623
0.0072367
0.0072427
0.00721216
0.00729627
0.0075228
0.00791978
0.00841487
0.0088705
0.0091553
0.00921258
0.00908886
0.00889774
0.0087341
0.00863449
0.00867215
0.00870763
0.00865573
0.00850432
0.00825464
0.00787953
0.0073089
0.00679337
0.00634521
0.00592921
0.00551684
0.00506746
0.00454227
0.00392785
0.00322713
0.00248422
0.00185369
0.00140551
0.00104461
0.000884127
0.00125618
0.000953931
0.00356452
0.0132567
0.0108937
0.00865893
0.00829598
0.00790099
0.0075335
0.0074053
0.00757772
0.00801214
0.00857255
0.0090693
0.00934278
0.00933917
0.00915017
0.00899457
0.00908757
0.00940051
0.00967105
0.00971515
0.00953067
0.00918457
0.00872893
0.00818813
0.0075824
0.0069957
0.00645133
0.0059463
0.00548308
0.00507177
0.00471444
0.00427375
0.00371982
0.00307539
0.00247684
0.00195998
0.00157443
0.00146282
0.00149007
0.00110289
0.00362651
0.0116388
0.0104351
0.00959515
0.00871478
0.00785864
0.00736764
0.00734348
0.00773669
0.00839614
0.00909846
0.00961128
0.00979295
0.00965209
0.00937878
0.00929161
0.0095745
0.00996281
0.0100753
0.00986196
0.00941433
0.00881255
0.00811697
0.00738217
0.00666841
0.00602546
0.00546506
0.00498975
0.00460822
0.00433074
0.00416183
0.00406155
0.00379582
0.00339622
0.00306264
0.00289947
0.00301841
0.00347024
0.00421096
0.00169968
0.00352601
0.00417382
0.00459767
0.00467342
0.00485004
0.00531462
0.00611446
0.00719187
0.00838213
0.00946365
0.0102091
0.0104599
0.0102422
0.00977382
0.00952631
0.00957987
0.00969811
0.00966651
0.00938209
0.00886507
0.00817522
0.00737914
0.00655414
0.00577321
0.00509061
0.00452435
0.00406495
0.00369801
0.00340886
0.0031798
0.00299179
0.00283813
0.00272357
0.00264089
0.00260671
0.00260972
0.00258335
0.00246945
0.00230211
0.00159601
0.00164342
0.00355786
0.00650751
0.00870843
0.0102686
0.0113037
0.0118174
0.0118504
0.0114405
0.0107543
0.00988025
0.00918127
0.00884644
0.00870088
0.00845521
0.00802197
0.0074192
0.00670617
0.00595852
0.00524384
0.00460498
0.0040643
0.00362517
0.00327814
0.00300838
0.00280522
0.00266105
0.00256936
0.0025274
0.0025229
0.00253983
0.0025705
0.00260333
0.00260952
0.00254524
0.0024002
0.0021763
0.00133353
0.00231977
0.0065813
0.00964561
0.0107949
0.011218
0.0111503
0.0106595
0.00989037
0.0090122
0.00820618
0.00751569
0.00700489
0.00662223
0.00623853
0.00579858
0.00531736
0.00482494
0.00435751
0.0039462
0.00360437
0.00332805
0.00310504
0.00292065
0.0027646
0.00263456
0.002533
0.00246424
0.00243171
0.0024343
0.00247059
0.00253615
0.00262054
0.00270255
0.00275942
0.00272937
0.00275567
0.00281299
0.0013621
0.00208371
0.00220967
0.00229807
0.00247613
0.00239262
0.00230637
0.00223666
0.00212942
0.00198228
0.00180926
0.00162513
0.00144476
0.00129015
0.00117317
0.00108879
0.00102639
0.000977279
0.000936321
0.000901232
0.000871525
0.000847272
0.00082842
0.000814819
0.000806518
0.000803893
0.000807681
0.000818857
0.000838149
0.000865842
0.000901925
0.000945959
0.000997967
0.00105824
0.00112695
0.00120292
0.00129367
0.00131882
0.00128163
0.00120622
0.00112453
)
;

boundaryField
{
    floor
    {
        type            compressible::alphatWallFunction;
        Prt             0.85;
        value           nonuniform List<scalar> 
29
(
0.000186661
8.04212e-05
9.78433e-05
0.000112444
0.000115105
0.000112552
0.000108076
0.000101187
9.40139e-05
8.74223e-05
8.1541e-05
7.6313e-05
7.16535e-05
6.74725e-05
6.3716e-05
6.02463e-05
5.68919e-05
5.3398e-05
5.05032e-05
4.47309e-05
4.47303e-05
5.89525e-05
6.8501e-05
7.60387e-05
0.000186659
8.04203e-05
8.35797e-05
0.000158676
0.000238747
)
;
    }
    ceiling
    {
        type            compressible::alphatWallFunction;
        Prt             0.85;
        value           nonuniform List<scalar> 
43
(
0.000287911
0.000304191
0.000315559
0.000338448
0.000327847
0.000316826
0.000307881
0.00029405
0.000274943
0.000252273
0.000227883
0.000203692
0.000182685
0.000166601
0.000154887
0.000146156
0.000139241
0.000133443
0.000128452
0.000124208
0.00012073
0.000118019
0.000116058
0.000114859
0.000114479
0.000115026
0.000116639
0.000119416
0.000123391
0.000128547
0.000134807
0.000142156
0.000150618
0.000160198
0.000170711
0.000183172
0.000186607
0.000181525
0.000171167
0.000159866
0.000469766
0.000548556
0.000318151
)
;
    }
    sWall
    {
        type            compressible::alphatWallFunction;
        Prt             0.85;
        value           uniform 0.000286705;
    }
    nWall
    {
        type            compressible::alphatWallFunction;
        Prt             0.85;
        value           nonuniform List<scalar> 6(0.000129747 0.00013561 0.000156516 0.00018829 0.000192176 0.000159546);
    }
    sideWalls
    {
        type            empty;
    }
    glass1
    {
        type            compressible::alphatWallFunction;
        Prt             0.85;
        value           nonuniform List<scalar> 9(0.000179326 0.000239289 0.000287507 0.000332599 0.000377787 0.000425147 0.000467335 0.000475022 0.000462999);
    }
    glass2
    {
        type            compressible::alphatWallFunction;
        Prt             0.85;
        value           nonuniform List<scalar> 2(0.000236131 0.000222456);
    }
    sun
    {
        type            compressible::alphatWallFunction;
        Prt             0.85;
        value           nonuniform List<scalar> 
14
(
0.000183755
0.000200887
0.000205191
0.000214923
0.000223996
0.000232628
0.000241333
0.000248818
0.000253489
0.000254439
0.000250981
0.000242637
0.000228954
0.000209698
)
;
    }
    heatsource1
    {
        type            compressible::alphatWallFunction;
        Prt             0.85;
        value           nonuniform List<scalar> 3(9.47278e-05 0.000115561 0.000130045);
    }
    heatsource2
    {
        type            compressible::alphatWallFunction;
        Prt             0.85;
        value           nonuniform List<scalar> 4(0.000194202 0.000128043 0.000128042 0.00020597);
    }
    Table_master
    {
        type            compressible::alphatWallFunction;
        Prt             0.85;
        value           nonuniform List<scalar> 9(0.000144603 0.000126771 0.000112226 0.000100366 9.06257e-05 8.25519e-05 7.58119e-05 7.02222e-05 6.57348e-05);
    }
    Table_slave
    {
        type            compressible::alphatWallFunction;
        Prt             0.85;
        value           nonuniform List<scalar> 9(0.000163653 0.000148459 0.000137296 0.000128557 0.000121019 0.000114285 0.000107749 0.000100886 9.29731e-05);
    }
    inlet
    {
        type            fixedValue;
        value           uniform 1.94e-05;
    }
    outlet
    {
        type            zeroGradient;
    }
}


// ************************************************************************* //
