/*--------------------------------*- C++ -*----------------------------------*\
  =========                 |
  \\      /  F ield         | OpenFOAM: The Open Source CFD Toolbox
   \\    /   O peration     | Website:  https://openfoam.org
    \\  /    A nd           | Version:  6
     \\/     M anipulation  |
\*---------------------------------------------------------------------------*/
FoamFile
{
    version     2.0;
    format      ascii;
    class       volScalarField;
    location    "200";
    object      nut;
}
// * * * * * * * * * * * * * * * * * * * * * * * * * * * * * * * * * * * * * //

dimensions      [0 2 -1 0 0 0 0];

internalField   nonuniform List<scalar> 
459
(
0.00111922
0.00122687
0.00125426
0.00131651
0.00137485
0.00143061
0.00148707
0.00153581
0.00156627
0.00157244
0.00154978
0.00149536
0.00140663
0.00128285
0.00113654
0.000493953
0.000594753
0.00068088
0.00069673
0.000681537
0.00065499
0.000614375
0.000572423
0.0005342
0.000500375
0.000470543
0.000444151
0.000420634
0.000399645
0.000380382
0.000361876
0.000342728
0.000326969
0.00029584
0.00150998
0.00376693
0.00363973
0.00424043
0.00484071
0.00542589
0.00590042
0.00629078
0.00663296
0.00689756
0.00705493
0.00707765
0.00692646
0.0065066
0.00541388
0.00118333
0.000773399
0.000512085
0.00116204
0.00167778
0.00207545
0.00231104
0.00230834
0.00176353
0.00149229
0.00130534
0.00116503
0.00105538
0.000967323
0.000894762
0.000826606
0.000758963
0.000697405
0.000644552
0.000735484
0.000373274
0.00183236
0.0051324
0.00453578
0.00558256
0.0061117
0.006508
0.00681562
0.00710107
0.00740864
0.00771981
0.00799811
0.00820363
0.00828535
0.00815016
0.00756424
0.00570149
0.00125823
0.000961794
0.0014923
0.00203834
0.00256703
0.00294782
0.00287151
0.000874513
0.000766122
0.000679028
0.000608983
0.000552169
0.000505612
0.000467147
0.000435542
0.000410377
0.000445564
0.00051856
0.00083199
0.000426479
0.00213935
0.00648725
0.00457432
0.00587092
0.00626488
0.00640971
0.00654097
0.0067341
0.00701128
0.00735394
0.00771465
0.00804142
0.00826755
0.00832547
0.00816872
0.00744217
0.00475521
0.00147021
0.0018151
0.00241198
0.00308124
0.00367537
0.00406498
0.00380641
0.000992219
0.000898353
0.000830099
0.000777124
0.000731761
0.000691516
0.000652712
0.000612263
0.000566014
0.000526068
0.000537913
0.000950088
0.000469094
0.00245165
0.00821887
0.00500595
0.00572511
0.00620643
0.00622415
0.00621627
0.00636466
0.00661858
0.00697858
0.00737807
0.00773905
0.00798123
0.00806797
0.00800493
0.00774573
0.00707505
0.00601347
0.00570945
0.00571278
0.00581503
0.00590295
0.00590029
0.00565359
0.00467022
0.00418102
0.00388575
0.00365854
0.00343117
0.00311908
0.00273092
0.00227878
0.00178835
0.00130927
0.000963409
0.000979926
0.000629872
0.000576351
0.000699437
0.000786534
0.00278334
0.0101199
0.00679818
0.00583013
0.00623648
0.00624306
0.00621697
0.00628817
0.00648108
0.00682044
0.00724452
0.00763527
0.00787986
0.00792939
0.00782359
0.0076599
0.00751982
0.00743488
0.00746818
0.00749965
0.00745585
0.00732622
0.0071118
0.00678916
0.00629792
0.00585404
0.00546811
0.0051098
0.00475453
0.00436727
0.00391461
0.00338501
0.00278102
0.00214065
0.00159716
0.00121087
0.000899926
0.000761764
0.0010824
0.000822063
0.00308234
0.011434
0.00939196
0.00746489
0.00715265
0.00681296
0.00649506
0.00638209
0.00652759
0.00689877
0.00737899
0.00780538
0.00804069
0.00803839
0.00787701
0.00774441
0.00782576
0.00809645
0.0083306
0.00836965
0.00821166
0.00791424
0.00752224
0.00705667
0.00653501
0.00602963
0.00556063
0.00512546
0.00472623
0.00437167
0.00406356
0.00368357
0.00320597
0.00265037
0.00213434
0.00168878
0.0013565
0.00126038
0.00128391
0.000950395
0.00313824
0.0100525
0.00900875
0.00828177
0.00752076
0.00677918
0.00635168
0.00632652
0.00666127
0.00722603
0.0078289
0.00827017
0.00842768
0.00830837
0.00807531
0.00800225
0.00824756
0.00858344
0.00868149
0.00849858
0.00811359
0.00759554
0.00699644
0.0063634
0.00574836
0.00519428
0.00471127
0.00430155
0.00397263
0.00373337
0.00358766
0.00350107
0.00327184
0.00292721
0.00263951
0.00249869
0.0026011
0.00299059
0.00362915
0.0014654
0.00305445
0.00361233
0.0039759
0.00403818
0.00418616
0.00458096
0.00526426
0.00618695
0.00720809
0.00813772
0.00878048
0.00899934
0.00881534
0.00841547
0.00820556
0.00825382
0.0083571
0.00833087
0.00808652
0.0076415
0.00704731
0.00636141
0.00565042
0.00497732
0.00438891
0.00390075
0.00350468
0.0031883
0.00293897
0.00274145
0.00257932
0.00244682
0.00234804
0.00227679
0.0022474
0.00225014
0.00222762
0.00212961
0.00198544
0.0013767
0.00138205
0.00300668
0.00552377
0.00742059
0.00877628
0.00968343
0.0101414
0.0101831
0.00984108
0.00925826
0.00850973
0.0079102
0.00762342
0.00749917
0.00728825
0.00691539
0.0063962
0.0057818
0.00513742
0.00452136
0.0039706
0.00350445
0.00312583
0.0028266
0.00259399
0.0024188
0.00229448
0.00221541
0.00217923
0.00217535
0.00218997
0.00221645
0.00224484
0.0022503
0.00219503
0.00207011
0.00187713
0.00115032
0.00195515
0.00557986
0.00822403
0.00923796
0.00962176
0.00957863
0.00916719
0.0085124
0.00776091
0.00706975
0.00647668
0.00603763
0.00570858
0.00537834
0.00499941
0.00458476
0.00416037
0.00375743
0.00340284
0.00310812
0.00286987
0.00267757
0.00251856
0.002384
0.00227185
0.00218427
0.00212498
0.00209691
0.00209914
0.00213044
0.00218698
0.00225979
0.00233056
0.00237969
0.00235389
0.00237672
0.00242618
0.00117492
0.00177423
0.001881
0.00195621
0.00212127
0.00205525
0.00198358
0.00192498
0.00183363
0.00170761
0.00155902
0.00140067
0.00124542
0.00111227
0.0010115
0.0009388
0.00088503
0.000842711
0.00080741
0.000777162
0.000751552
0.000730641
0.000714387
0.000702659
0.000695502
0.000693239
0.000696506
0.000706145
0.000722782
0.000746665
0.000777783
0.000815758
0.000860609
0.000912588
0.000971853
0.00103737
0.00111567
0.00113739
0.00110534
0.00104032
0.000969995
)
;

boundaryField
{
    floor
    {
        type            nutkWallFunction;
        Cmu             0.09;
        kappa           0.41;
        E               9.8;
        value           nonuniform List<scalar> 
29
(
0.000136666
5.89348e-05
7.16877e-05
8.23752e-05
8.43243e-05
8.24568e-05
7.91817e-05
7.41391e-05
6.88879e-05
6.40624e-05
5.97566e-05
5.5929e-05
5.25174e-05
4.9456e-05
4.67053e-05
4.41645e-05
4.17081e-05
3.91493e-05
3.70293e-05
3.28019e-05
3.28018e-05
4.32221e-05
5.02178e-05
5.5741e-05
0.000136666
5.89348e-05
6.12502e-05
0.000116216
0.000174788
)
;
    }
    ceiling
    {
        type            nutkWallFunction;
        Cmu             0.09;
        kappa           0.41;
        E               9.8;
        value           nonuniform List<scalar> 
43
(
0.000208547
0.000220278
0.000228501
0.000246534
0.000239417
0.000231633
0.000225241
0.000215227
0.000201315
0.000184766
0.000166936
0.000149236
0.000133857
0.000122081
0.000113501
0.000107106
0.000102041
9.77935e-05
9.41363e-05
9.10264e-05
8.84779e-05
8.64908e-05
8.50536e-05
8.41749e-05
8.38967e-05
8.42975e-05
8.54795e-05
8.75155e-05
9.04288e-05
9.42083e-05
9.87968e-05
0.000104184
0.000110387
0.00011741
0.000125117
0.000134254
0.000136776
0.000133052
0.000125461
0.000117191
0.000345808
0.000403469
0.000228245
)
;
    }
    sWall
    {
        type            nutkWallFunction;
        Cmu             0.09;
        kappa           0.41;
        E               9.8;
        value           uniform 0.000208605;
    }
    nWall
    {
        type            nutkWallFunction;
        Cmu             0.09;
        kappa           0.41;
        E               9.8;
        value           nonuniform List<scalar> 6(9.52677e-05 9.9557e-05 0.000114877 0.000138284 0.000141131 0.000117196);
    }
    sideWalls
    {
        type            empty;
    }
    glass1
    {
        type            nutkWallFunction;
        Cmu             0.09;
        kappa           0.41;
        E               9.8;
        value           nonuniform List<scalar> 9(0.00013478 0.000179495 0.0002154 0.000248952 0.00028256 0.000317761 0.000349119 0.000354956 0.000346235);
    }
    glass2
    {
        type            nutkWallFunction;
        Cmu             0.09;
        kappa           0.41;
        E               9.8;
        value           nonuniform List<scalar> 2(0.000174322 0.000164284);
    }
    sun
    {
        type            nutkWallFunction;
        Cmu             0.09;
        kappa           0.41;
        E               9.8;
        value           nonuniform List<scalar> 
14
(
0.000134667
0.000147103
0.000150248
0.000157368
0.000164007
0.000170322
0.00017669
0.000182164
0.000185576
0.000186265
0.000183729
0.000177619
0.000167606
0.000153518
)
;
    }
    heatsource1
    {
        type            nutkWallFunction;
        Cmu             0.09;
        kappa           0.41;
        E               9.8;
        value           nonuniform List<scalar> 3(6.9382e-05 8.46558e-05 9.52675e-05);
    }
    heatsource2
    {
        type            nutkWallFunction;
        Cmu             0.09;
        kappa           0.41;
        E               9.8;
        value           nonuniform List<scalar> 4(0.000142082 9.36803e-05 9.36803e-05 0.000150696);
    }
    Table_master
    {
        type            nutkWallFunction;
        Cmu             0.09;
        kappa           0.41;
        E               9.8;
        value           nonuniform List<scalar> 9(0.000105847 9.27944e-05 8.21488e-05 7.34684e-05 6.63389e-05 6.04296e-05 5.54965e-05 5.14053e-05 4.8121e-05);
    }
    Table_slave
    {
        type            nutkWallFunction;
        Cmu             0.09;
        kappa           0.41;
        E               9.8;
        value           nonuniform List<scalar> 9(0.000119809 0.000108692 0.000100523 9.4129e-05 8.86127e-05 8.36847e-05 7.89008e-05 7.38772e-05 6.80837e-05);
    }
    inlet
    {
        type            calculated;
        value           uniform 0.000100623;
    }
    outlet
    {
        type            calculated;
        value           nonuniform List<scalar> 2(0.00177423 0.001881);
    }
}


// ************************************************************************* //
