// -*- C++ -*-
// File generated by PyFoam - sorry for the ugliness

FoamFile
{
 version 2.0;
 format ascii;
 class volVectorField;
 location "330";
 object U;
}

dimensions [ 0 1 -1 0 0 0 0 ];

internalField nonuniform List<vector> 459
(
  (-0.0134874 0.0460544 0)
  (-0.0964896 0.015962 0)
  (-0.118048 0.00336472 0)
  (-0.127111 -0.00715311 0)
  (-0.118387 -0.0183898 0)
  (-0.092797 -0.0316782 0)
  (-0.0539102 -0.0443018 0)
  (0.00145436 -0.0479482 0)
  (0.0485217 -0.036407 0)
  (0.0813814 -0.025459 0)
  (0.103352 -0.0156708 0)
  (0.113022 -0.00692611 0)
  (0.108853 0.00246072 0)
  (0.0884973 0.0166964 0)
  (0.0778502 0.0486599 0)
  (-0.0657106 0.00609197 0)
  (-0.00440877 0.00296511 0)
  (-0.0097333 -0.0137105 0)
  (0.0141002 -0.0226627 0)
  (0.0325622 -0.0185937 0)
  (0.0497131 -0.0133134 0)
  (0.0616952 -0.00784735 0)
  (0.0683709 -0.00486721 0)
  (0.0714228 -0.00371061 0)
  (0.0729438 -0.00321683 0)
  (0.0739787 -0.00287528 0)
  (0.0746693 -0.00255382 0)
  (0.0748386 -0.00213616 0)
  (0.0740678 -0.00135633 0)
  (0.0715098 0.00027578 0)
  (0.0654701 0.00357316 0)
  (0.0540197 0.00855957 0)
  (0.0234056 0.0177663 0)
  (0.0616991 0.0116287 0)
  (0.054861 0.0970573 0)
  (-0.0821405 0.0492836 0)
  (-0.0945365 0.0274135 0)
  (-0.104365 0.00555964 0)
  (-0.0978916 -0.0202468 0)
  (-0.0760062 -0.0482998 0)
  (-0.0429319 -0.0713715 0)
  (-0.00209693 -0.0761524 0)
  (0.0355529 -0.0596612 0)
  (0.0636769 -0.0399725 0)
  (0.082973 -0.0208229 0)
  (0.0927692 -0.00265809 0)
  (0.0943967 0.0149147 0)
  (0.0898598 0.0340569 0)
  (0.0901717 0.0608574 0)
  (0.0841578 0.0562147 0)
  (0.0532374 0.0509604 0)
  (-0.102791 0.0110387 0)
  (0.0204867 0.000717401 0)
  (0.0247896 -0.0258522 0)
  (0.0370778 -0.0323844 0)
  (0.0499324 -0.0280393 0)
  (0.0608649 -0.0200706 0)
  (0.0664958 -0.00888045 0)
  (0.0678903 -0.00230967 0)
  (0.0678747 0.000192654 0)
  (0.0680274 0.00114309 0)
  (0.0683804 0.00170154 0)
  (0.0686721 0.00221896 0)
  (0.0688213 0.00301303 0)
  (0.0686788 0.00453012 0)
  (0.067682 0.00783456 0)
  (0.0632245 0.0158631 0)
  (0.0534554 0.0248044 0)
  (0.0187851 0.0371318 0)
  (0.105374 0.0295256 0)
  (0.118467 0.14494 0)
  (-0.079004 0.0743525 0)
  (-0.0732279 0.0415823 0)
  (-0.0829103 0.00640906 0)
  (-0.0772751 -0.0337615 0)
  (-0.0573866 -0.0753621 0)
  (-0.0297053 -0.105976 0)
  (0.00132229 -0.1101 0)
  (0.029405 -0.0894204 0)
  (0.0520874 -0.0620832 0)
  (0.067864 -0.034776 0)
  (0.0765286 -0.00966597 0)
  (0.0798937 0.01362 0)
  (0.0793644 0.0358266 0)
  (0.0789937 0.0576011 0)
  (0.070946 0.0619372 0)
  (0.0548374 0.0823146 0)
  (-0.124862 -0.00625196 0)
  (0.0537691 -0.0362336 0)
  (0.0550763 -0.0455434 0)
  (0.0601777 -0.0447486 0)
  (0.0662132 -0.0379799 0)
  (0.0716637 -0.0302388 0)
  (0.0724367 -0.0225955 0)
  (0.0650578 -0.0149732 0)
  (0.0591301 -0.0109132 0)
  (0.0564565 -0.00865956 0)
  (0.0552895 -0.0072116 0)
  (0.054567 -0.00617403 0)
  (0.0542846 -0.00518464 0)
  (0.0553434 -0.00355267 0)
  (0.0595415 0.000981855 0)
  (0.0595556 0.0200889 0)
  (0.0525734 0.0354328 0)
  (0.0133353 0.0533823 0)
  (0.135174 0.0560382 0)
  (0.178164 0.183554 0)
  (-0.0837067 0.0948917 0)
  (-0.0523955 0.0548302 0)
  (-0.0605564 0.00901355 0)
  (-0.0524286 -0.0450798 0)
  (-0.0330775 -0.0987859 0)
  (-0.011258 -0.134022 0)
  (0.0102549 -0.136489 0)
  (0.0290937 -0.112825 0)
  (0.0450745 -0.079112 0)
  (0.055834 -0.0449051 0)
  (0.0615793 -0.0144967 0)
  (0.0642871 0.0117723 0)
  (0.0656983 0.0346066 0)
  (0.0696347 0.0551257 0)
  (0.0769668 0.0684937 0)
  (0.0887322 0.0889451 0)
  (0.112574 0.0299586 0)
  (0.0984865 0.00132096 0)
  (0.0960183 -0.0287979 0)
  (0.0871217 -0.0426436 0)
  (0.0797859 -0.0433675 0)
  (0.0745976 -0.037305 0)
  (0.0697856 -0.0278137 0)
  (0.0694765 -0.0162298 0)
  (0.0750884 -0.0101826 0)
  (0.0780236 -0.00682402 0)
  (0.077213 -0.00468557 0)
  (0.0744844 -0.00310521 0)
  (0.0706853 -0.00176199 0)
  (0.065652 -0.000368065 0)
  (0.0585332 0.00149646 0)
  (0.045738 0.0045949 0)
  (0.0407016 0.0263287 0)
  (0.0443555 0.0428662 0)
  (0.0105155 0.0629762 0)
  (0.156401 0.0909351 0)
  (0.233509 0.212894 0)
  (-0.0938916 0.109566 0)
  (-0.0322069 0.0631897 0)
  (-0.0353331 0.0101446 0)
  (-0.0189563 -0.0571816 0)
  (-0.000789435 -0.118153 0)
  (0.0136662 -0.152652 0)
  (0.0241919 -0.152872 0)
  (0.03353 -0.127168 0)
  (0.0408616 -0.0888863 0)
  (0.0447705 -0.0499047 0)
  (0.045933 -0.0166391 0)
  (0.0465405 0.0101432 0)
  (0.0489406 0.0314087 0)
  (0.0558316 0.0484712 0)
  (0.0676587 0.0588306 0)
  (0.0847883 0.0614817 0)
  (0.10018 0.0217246 0)
  (0.102195 -0.0059445 0)
  (0.0962448 -0.026322 0)
  (0.0863886 -0.0352562 0)
  (0.0756123 -0.0352165 0)
  (0.0658568 -0.0297216 0)
  (0.0577589 -0.0207005 0)
  (0.0531637 -0.00837518 0)
  (0.0515941 -0.000823552 0)
  (0.0491587 0.00289447 0)
  (0.0461466 0.00476459 0)
  (0.043119 0.00603927 0)
  (0.0403362 0.0073388 0)
  (0.0376368 0.009145 0)
  (0.0348141 0.011995 0)
  (0.0309104 0.0165398 0)
  (0.0302163 0.0281073 0)
  (0.0416601 0.0405746 0)
  (0.0298343 0.0544819 0)
  (0.109922 0.0868835 0)
  (0.101033 0.0686038 0)
  (0.0850306 0.0491656 0)
  (-0.0936051 0.0492231 0)
  (0.281683 0.235018 0)
  (-0.107239 0.116193 0)
  (-0.0120707 0.0609939 0)
  (0.00186066 -0.000759573 0)
  (0.0248234 -0.0755795 0)
  (0.0381051 -0.131424 0)
  (0.0436037 -0.160697 0)
  (0.0434807 -0.158883 0)
  (0.0411216 -0.131089 0)
  (0.0374934 -0.089645 0)
  (0.0326282 -0.0480122 0)
  (0.0277768 -0.0144544 0)
  (0.0252267 0.00994675 0)
  (0.027733 0.0268379 0)
  (0.0355025 0.0382928 0)
  (0.0476724 0.0428978 0)
  (0.0640952 0.0380101 0)
  (0.0760182 0.0146861 0)
  (0.0783126 -0.00542225 0)
  (0.0731332 -0.0185198 0)
  (0.0637294 -0.0244763 0)
  (0.0526523 -0.0242379 0)
  (0.0418375 -0.0197123 0)
  (0.0324708 -0.0124382 0)
  (0.0256205 -0.003723 0)
  (0.0207544 0.00224814 0)
  (0.017819 0.00503787 0)
  (0.0155679 0.00618979 0)
  (0.0139915 0.00691053 0)
  (0.013203 0.00784414 0)
  (0.0132924 0.00950445 0)
  (0.0144159 0.0124176 0)
  (0.0161727 0.0167241 0)
  (0.0201568 0.0230211 0)
  (0.0323129 0.0298174 0)
  (0.0317344 0.0319106 0)
  (0.0655304 0.0497012 0)
  (0.0660736 0.0377368 0)
  (0.0794424 0.0361701 0)
  (-0.105087 0.0689683 0)
  (0.330923 0.252261 0)
  (-0.113179 0.102727 0)
  (0.0171312 0.0233041 0)
  (0.0557391 -0.0385174 0)
  (0.0777009 -0.0960925 0)
  (0.0842229 -0.13933 0)
  (0.0791551 -0.159559 0)
  (0.0656073 -0.152488 0)
  (0.0486229 -0.122103 0)
  (0.0315886 -0.0791806 0)
  (0.0165387 -0.0377237 0)
  (0.00562075 -0.00743402 0)
  (0.0011559 0.011048 0)
  (0.00424484 0.0216267 0)
  (0.0122063 0.0277631 0)
  (0.0234784 0.0288528 0)
  (0.0365605 0.0233709 0)
  (0.0445316 0.00955524 0)
  (0.045217 -0.00307079 0)
  (0.040013 -0.0112425 0)
  (0.0309207 -0.0145661 0)
  (0.0202246 -0.0135935 0)
  (0.00963161 -0.00959811 0)
  (0.000349244 -0.00372994 0)
  (-0.00692264 0.00233785 0)
  (-0.0104723 0.00574205 0)
  (-0.0122838 0.00701328 0)
  (-0.0131091 0.00723977 0)
  (-0.0129582 0.00711018 0)
  (-0.0116293 0.00705869 0)
  (-0.00882582 0.00747821 0)
  (-0.00435169 0.00879445 0)
  (0.00189386 0.0112146 0)
  (0.00967622 0.0141245 0)
  (0.0205782 0.017598 0)
  (0.0240306 0.0178807 0)
  (0.0406396 0.0297981 0)
  (0.0489908 0.0341075 0)
  (0.0875461 0.0473972 0)
  (-0.0926902 0.105635 0)
  (0.398228 0.24002 0)
  (-0.00138986 0.0744074 0)
  (0.0790808 -0.0367641 0)
  (0.136392 -0.0821661 0)
  (0.150124 -0.113057 0)
  (0.140805 -0.13518 0)
  (0.117638 -0.142249 0)
  (0.0847608 -0.128857 0)
  (0.0493943 -0.0970365 0)
  (0.0169506 -0.0554987 0)
  (-0.0077224 -0.0181254 0)
  (-0.0204311 0.00176826 0)
  (-0.0231542 0.0109344 0)
  (-0.020069 0.0158051 0)
  (-0.0134403 0.018455 0)
  (-0.00482858 0.0184049 0)
  (0.00397525 0.0145967 0)
  (0.00791704 0.00700757 0)
  (0.00643242 0.000129818 0)
  (0.00137584 -0.00414328 0)
  (-0.0072269 -0.00502393 0)
  (-0.0167284 -0.00322531 0)
  (-0.0256727 2.75258e-05 0)
  (-0.0326724 0.00353889 0)
  (-0.0366164 0.00617943 0)
  (-0.0385875 0.00741052 0)
  (-0.0393666 0.00743679 0)
  (-0.0392222 0.00656004 0)
  (-0.0380723 0.00502343 0)
  (-0.0356832 0.00308393 0)
  (-0.0317961 0.00103284 0)
  (-0.026532 -0.00086541 0)
  (-0.0195737 -0.00230846 0)
  (-0.0106514 -0.0029882 0)
  (-0.00190317 -0.00183463 0)
  (0.000643031 -0.000742061 0)
  (0.00938116 0.00821189 0)
  (0.0180006 0.0151503 0)
  (0.0750599 0.0695031 0)
  (-0.317683 0.159872 0)
  (0.490058 0.236164 0)
  (0.233157 0.164857 0)
  (0.246855 0.0932318 0)
  (0.261451 0.00753122 0)
  (0.241876 -0.053267 0)
  (0.198727 -0.0855237 0)
  (0.144494 -0.0940421 0)
  (0.0845633 -0.0816018 0)
  (0.0291149 -0.0535971 0)
  (-0.0171082 -0.0175831 0)
  (-0.0399337 0.00205007 0)
  (-0.048383 0.00886666 0)
  (-0.0493631 0.0112255 0)
  (-0.0468333 0.0124906 0)
  (-0.0423909 0.0132459 0)
  (-0.037322 0.0130362 0)
  (-0.0331644 0.0114319 0)
  (-0.0321171 0.00845653 0)
  (-0.0345238 0.00570238 0)
  (-0.0393704 0.00426244 0)
  (-0.0453462 0.00434452 0)
  (-0.0511695 0.00537993 0)
  (-0.0558854 0.00675484 0)
  (-0.0591743 0.0080075 0)
  (-0.0610503 0.00876567 0)
  (-0.0620177 0.00877932 0)
  (-0.0625427 0.00799307 0)
  (-0.0629751 0.00645633 0)
  (-0.0636126 0.00435753 0)
  (-0.0647682 0.0020931 0)
  (-0.0667693 0.000277937 0)
  (-0.0698694 -0.00029723 0)
  (-0.0749247 0.00139688 0)
  (-0.0825445 0.00654677 0)
  (-0.0928303 0.0159389 0)
  (-0.108849 0.0302047 0)
  (-0.129523 0.0493336 0)
  (-0.157474 0.069723 0)
  (-0.201988 0.0848882 0)
  (-0.383218 0.0785558 0)
  (0.268801 -0.0910855 0)
  (0.255617 -0.0804937 0)
  (0.2142 -0.0710867 0)
  (0.151886 -0.0580069 0)
  (0.0846054 -0.0398719 0)
  (0.00974879 -0.0141397 0)
  (-0.0464717 0.00911593 0)
  (-0.0694494 0.0180591 0)
  (-0.077485 0.0193461 0)
  (-0.0790452 0.0184861 0)
  (-0.0779612 0.0175157 0)
  (-0.0758167 0.0171352 0)
  (-0.0732 0.0172249 0)
  (-0.0706298 0.0174138 0)
  (-0.068782 0.0173824 0)
  (-0.0683856 0.0170106 0)
  (-0.0694544 0.0166829 0)
  (-0.071392 0.0167617 0)
  (-0.073435 0.0173375 0)
  (-0.0750045 0.0181687 0)
  (-0.0758327 0.0189891 0)
  (-0.0759209 0.0196221 0)
  (-0.0754304 0.0199707 0)
  (-0.0746365 0.0200019 0)
  (-0.0738193 0.0197437 0)
  (-0.0732331 0.0193071 0)
  (-0.0730907 0.0188939 0)
  (-0.0735392 0.0187662 0)
  (-0.0746332 0.0191882 0)
  (-0.0763167 0.0204006 0)
  (-0.0784831 0.022688 0)
  (-0.0809406 0.0266826 0)
  (-0.0832964 0.0337558 0)
  (-0.085018 0.0456561 0)
  (-0.0844459 0.0625006 0)
  (-0.0792863 0.0751708 0)
  (-0.0709213 0.0564258 0)
  (-0.0827449 -0.135742 0)
  (-0.096202 0.0232178 0)
  (-0.048029 -0.0109746 0)
  (-0.0656681 -0.0208772 0)
  (-0.086954 -0.0259427 0)
  (-0.102403 -0.0278868 0)
  (-0.108592 -0.0305669 0)
  (-0.111551 -0.0364227 0)
  (-0.110308 -0.0453866 0)
  (-0.108123 -0.0528549 0)
  (-0.105854 -0.0574759 0)
  (-0.103599 -0.0596208 0)
  (-0.101284 -0.0600311 0)
  (-0.0987956 -0.0595971 0)
  (-0.0961669 -0.0591615 0)
  (-0.0936182 -0.0593849 0)
  (-0.0914464 -0.0605795 0)
  (-0.0897514 -0.0624978 0)
  (-0.0883825 -0.0646266 0)
  (-0.0870657 -0.0665125 0)
  (-0.0855585 -0.0679687 0)
  (-0.0837285 -0.0690186 0)
  (-0.0815545 -0.0698234 0)
  (-0.0791064 -0.0706326 0)
  (-0.0765284 -0.0717203 0)
  (-0.0740136 -0.0733167 0)
  (-0.071778 -0.0755424 0)
  (-0.0700225 -0.0783456 0)
  (-0.0688785 -0.0814236 0)
  (-0.0683394 -0.0841162 0)
  (-0.0681678 -0.0853083 0)
  (-0.0677501 -0.0834727 0)
  (-0.0658305 -0.0769352 0)
  (-0.0602229 -0.0645023 0)
  (-0.048247 -0.0466285 0)
  (-0.0289938 -0.0273167 0)
  (0.000761899 -0.0232775 0)
  (0.0623271 -0.0945659 0)
  (-0.045171 -0.139284 0)
  (-0.187433 -0.21713 0)
  (-0.246173 -0.0297319 0)
  (-0.223837 0.144005 0)
  (-0.203208 0.138678 0)
  (-0.19702 0.142871 0)
  (-0.191051 0.154185 0)
  (-0.182799 0.167059 0)
  (-0.171074 0.179749 0)
  (-0.157985 0.19208 0)
  (-0.146139 0.2031 0)
  (-0.137267 0.211078 0)
  (-0.131023 0.215895 0)
  (-0.126415 0.2185 0)
  (-0.12252 0.219955 0)
  (-0.118673 0.221197 0)
  (-0.114523 0.222944 0)
  (-0.110024 0.225623 0)
  (-0.10535 0.229267 0)
  (-0.100716 0.233505 0)
  (-0.096243 0.2378 0)
  (-0.091944 0.241703 0)
  (-0.087775 0.244993 0)
  (-0.0836935 0.247662 0)
  (-0.0796864 0.249851 0)
  (-0.0757862 0.251793 0)
  (-0.0720751 0.253762 0)
  (-0.0686684 0.256027 0)
  (-0.0656778 0.258832 0)
  (-0.0631607 0.262349 0)
  (-0.0610651 0.266617 0)
  (-0.0591749 0.27142 0)
  (-0.0570274 0.27619 0)
  (-0.053791 0.280028 0)
  (-0.0482287 0.281995 0)
  (-0.0391093 0.28186 0)
  (-0.0261612 0.281365 0)
  (-0.00979404 0.284928 0)
  (0.0165117 0.293175 0)
  (0.0747359 0.342279 0)
  (-0.180702 0.362838 0)
)
;

boundaryField
{
  floor
  {
    type noSlip;
  }
  ceiling
  {
    type noSlip;
  }
  sWall
  {
    type noSlip;
  }
  nWall
  {
    type noSlip;
  }
  sideWalls
  {
    type empty;
  }
  glass1
  {
    type noSlip;
  }
  glass2
  {
    type noSlip;
  }
  sun
  {
    type noSlip;
  }
  heatsource1
  {
    type noSlip;
  }
  heatsource2
  {
    type noSlip;
  }
  Table_master
  {
    type noSlip;
  }
  Table_slave
  {
    type noSlip;
  }
  inlet
  {
    type fixedValue;
    value uniform (0.277164 -0.114805 0);
  }
  outlet
  {
    type zeroGradient;
  }
} 	// ************************************************************************* //

