// -*- C++ -*-
// File generated by PyFoam - sorry for the ugliness

FoamFile
{
 version 2.0;
 format ascii;
 class volVectorField;
 location "70";
 object U;
}

dimensions [ 0 1 -1 0 0 0 0 ];

internalField nonuniform List<vector> 459
(
  (-0.0171931 0.0709422 0)
  (-0.152511 0.0186681 0)
  (-0.174508 -0.00572114 0)
  (-0.168321 -0.0268702 0)
  (-0.129563 -0.0521231 0)
  (-0.0684697 -0.0774222 0)
  (0.0336787 -0.0769379 0)
  (0.100514 -0.0587248 0)
  (0.155132 -0.0419511 0)
  (0.192923 -0.0276881 0)
  (0.212595 -0.015505 0)
  (0.214666 -0.00412046 0)
  (0.19866 0.00940017 0)
  (0.158716 0.0320757 0)
  (0.137493 0.0878629 0)
  (-0.101178 0.0131694 0)
  (-0.0389858 -0.0016876 0)
  (-0.034464 -0.0306243 0)
  (0.0102872 -0.0507901 0)
  (0.0594082 -0.0470272 0)
  (0.103768 -0.0369498 0)
  (0.13676 -0.0213461 0)
  (0.156131 -0.0129015 0)
  (0.165283 -0.0103372 0)
  (0.17049 -0.00990644 0)
  (0.175569 -0.0098101 0)
  (0.181042 -0.00945391 0)
  (0.185894 -0.00841023 0)
  (0.188523 -0.00625292 0)
  (0.185922 -0.00212047 0)
  (0.174647 0.00510716 0)
  (0.150418 0.0163339 0)
  (0.0983913 0.0360765 0)
  (0.108696 0.0471533 0)
  (0.0981681 0.152352 0)
  (-0.12593 0.068915 0)
  (-0.132627 0.0237786 0)
  (-0.128984 -0.0230127 0)
  (-0.0948994 -0.0773665 0)
  (-0.0406867 -0.122872 0)
  (0.0311947 -0.12223 0)
  (0.0860471 -0.0946629 0)
  (0.131499 -0.0649155 0)
  (0.16297 -0.0375091 0)
  (0.180043 -0.0126914 0)
  (0.184547 0.0107195 0)
  (0.178633 0.034878 0)
  (0.165816 0.0640896 0)
  (0.163493 0.109591 0)
  (0.153039 0.10101 0)
  (0.097748 0.0929402 0)
  (-0.16514 0.0351604 0)
  (0.0186829 0.0160448 0)
  (0.0459664 -0.053114 0)
  (0.0711811 -0.0730577 0)
  (0.102149 -0.0721483 0)
  (0.132119 -0.0599561 0)
  (0.150073 -0.0265678 0)
  (0.154377 -0.00622483 0)
  (0.153909 0.000226613 0)
  (0.154047 0.000859762 0)
  (0.155268 -7.74956e-05 0)
  (0.156758 -0.000909547 0)
  (0.1581 -0.000110063 0)
  (0.158451 0.00398134 0)
  (0.155212 0.0125337 0)
  (0.144613 0.0293189 0)
  (0.12281 0.0517466 0)
  (0.0652347 0.0840857 0)
  (0.157791 0.0938918 0)
  (0.201631 0.225313 0)
  (-0.120434 0.102306 0)
  (-0.0996468 0.0340151 0)
  (-0.0955488 -0.0400856 0)
  (-0.0620049 -0.12213 0)
  (-0.0139542 -0.180168 0)
  (0.0364348 -0.176366 0)
  (0.0788443 -0.141267 0)
  (0.113932 -0.0998454 0)
  (0.138005 -0.0604011 0)
  (0.151295 -0.025053 0)
  (0.156244 0.00729963 0)
  (0.155033 0.0387643 0)
  (0.150378 0.0711397 0)
  (0.147487 0.105891 0)
  (0.13179 0.112402 0)
  (0.101666 0.15164 0)
  (-0.216488 0.00666076 0)
  (0.100355 -0.0634704 0)
  (0.110267 -0.090613 0)
  (0.12103 -0.0993294 0)
  (0.13607 -0.0969445 0)
  (0.152619 -0.0919707 0)
  (0.164706 -0.0663522 0)
  (0.14458 -0.0424857 0)
  (0.125973 -0.0297742 0)
  (0.116793 -0.0229977 0)
  (0.111068 -0.0187253 0)
  (0.104826 -0.015207 0)
  (0.0983558 -0.0107857 0)
  (0.0955121 -0.00375506 0)
  (0.103142 0.00902325 0)
  (0.108861 0.0427587 0)
  (0.101841 0.0773292 0)
  (0.0399907 0.124718 0)
  (0.210049 0.14855 0)
  (0.293288 0.282643 0)
  (-0.127684 0.129889 0)
  (-0.0719079 0.0438962 0)
  (-0.0616936 -0.055738 0)
  (-0.0247382 -0.164259 0)
  (0.0146722 -0.22603 0)
  (0.0476931 -0.218231 0)
  (0.0771162 -0.176362 0)
  (0.100168 -0.124668 0)
  (0.114873 -0.0750913 0)
  (0.122309 -0.0317882 0)
  (0.125239 0.00583331 0)
  (0.125828 0.0396005 0)
  (0.12691 0.0712494 0)
  (0.133437 0.102809 0)
  (0.146727 0.125145 0)
  (0.166807 0.164442 0)
  (0.212766 0.0675704 0)
  (0.173755 0.0122989 0)
  (0.181268 -0.0493851 0)
  (0.171339 -0.0857742 0)
  (0.159541 -0.09763 0)
  (0.148288 -0.0957213 0)
  (0.131592 -0.0865437 0)
  (0.125097 -0.0499395 0)
  (0.145834 -0.0301266 0)
  (0.160819 -0.0197234 0)
  (0.165723 -0.0137768 0)
  (0.165621 -0.00968272 0)
  (0.162907 -0.00629472 0)
  (0.157498 -0.00297715 0)
  (0.147504 0.00128738 0)
  (0.129363 0.00811131 0)
  (0.10841 0.0443472 0)
  (0.102446 0.088714 0)
  (0.0374141 0.148333 0)
  (0.253506 0.213626 0)
  (0.37277 0.325991 0)
  (-0.141549 0.150003 0)
  (-0.0472642 0.0467504 0)
  (-0.0190919 -0.0781532 0)
  (0.020077 -0.20398 0)
  (0.0451888 -0.256172 0)
  (0.0638099 -0.244629 0)
  (0.078103 -0.196545 0)
  (0.0869052 -0.136871 0)
  (0.090076 -0.0805307 0)
  (0.0897452 -0.03336 0)
  (0.0889425 0.00529086 0)
  (0.0905577 0.0375352 0)
  (0.0967614 0.0654086 0)
  (0.110684 0.0907418 0)
  (0.133056 0.10784 0)
  (0.164005 0.114737 0)
  (0.194096 0.0463069 0)
  (0.201909 -0.0055541 0)
  (0.195849 -0.0499639 0)
  (0.180415 -0.0753892 0)
  (0.161077 -0.0832599 0)
  (0.141522 -0.0787581 0)
  (0.122723 -0.0636267 0)
  (0.113781 -0.0314823 0)
  (0.115895 -0.0112234 0)
  (0.118071 -0.00218585 0)
  (0.1169 0.00206114 0)
  (0.113374 0.00516045 0)
  (0.109324 0.00838633 0)
  (0.104444 0.0127851 0)
  (0.0981432 0.0197987 0)
  (0.0896568 0.0318119 0)
  (0.0830008 0.0595661 0)
  (0.0941205 0.0971602 0)
  (0.0610414 0.144826 0)
  (0.19035 0.214284 0)
  (0.168392 0.165464 0)
  (-0.110367 0.117754 0)
  (0.441259 -0.0233217 0)
  (0.438623 0.358852 0)
  (-0.158999 0.158384 0)
  (-0.0195181 0.0333083 0)
  (0.0388453 -0.12554 0)
  (0.0686929 -0.231969 0)
  (0.0806908 -0.274068 0)
  (0.0829778 -0.255238 0)
  (0.0792094 -0.200305 0)
  (0.0712374 -0.134662 0)
  (0.0610511 -0.0749834 0)
  (0.0519059 -0.0281598 0)
  (0.0469025 0.00692612 0)
  (0.0496184 0.0332431 0)
  (0.0591369 0.0541121 0)
  (0.0758846 0.0706625 0)
  (0.0991759 0.0781201 0)
  (0.12986 0.0707761 0)
  (0.154628 0.0291648 0)
  (0.163029 -0.0103683 0)
  (0.158145 -0.040094 0)
  (0.144213 -0.0578017 0)
  (0.12536 -0.063344 0)
  (0.105212 -0.0588154 0)
  (0.0862928 -0.0460486 0)
  (0.0731805 -0.0259766 0)
  (0.0673058 -0.0110564 0)
  (0.0641641 -0.00305229 0)
  (0.0602847 0.00169368 0)
  (0.0566312 0.00554573 0)
  (0.0530233 0.00965803 0)
  (0.0494296 0.0151435 0)
  (0.04607 0.0233973 0)
  (0.0429901 0.036418 0)
  (0.0434307 0.0599074 0)
  (0.0615409 0.0907755 0)
  (0.0431321 0.118724 0)
  (0.10801 0.169141 0)
  (0.1158 0.122479 0)
  (-0.161911 0.125593 0)
  (0.497535 -0.0447455 0)
  (0.520296 0.386274 0)
  (-0.160346 0.129713 0)
  (0.0405891 -0.0565259 0)
  (0.108975 -0.178536 0)
  (0.128486 -0.255018 0)
  (0.121524 -0.276694 0)
  (0.101895 -0.24585 0)
  (0.076048 -0.184391 0)
  (0.0490758 -0.116095 0)
  (0.0253068 -0.0578888 0)
  (0.00921053 -0.0171497 0)
  (0.00312294 0.0090434 0)
  (0.00789104 0.026458 0)
  (0.0192135 0.0397863 0)
  (0.0364228 0.049281 0)
  (0.0584771 0.0511949 0)
  (0.0841662 0.0417363 0)
  (0.102463 0.0158286 0)
  (0.107726 -0.0104772 0)
  (0.102254 -0.030316 0)
  (0.0886338 -0.0418488 0)
  (0.070418 -0.044604 0)
  (0.0507434 -0.0397797 0)
  (0.0323904 -0.0295081 0)
  (0.0184728 -0.0160316 0)
  (0.010284 -0.00506709 0)
  (0.00473941 0.00186241 0)
  (0.00111104 0.0061203 0)
  (-0.00188874 0.00946928 0)
  (-0.0044584 0.013153 0)
  (-0.00633063 0.017995 0)
  (-0.00707702 0.0248687 0)
  (-0.00676518 0.0350184 0)
  (-0.00341241 0.0518038 0)
  (0.0183192 0.0778145 0)
  (0.00513217 0.0983177 0)
  (0.0476014 0.149484 0)
  (0.0945867 0.141728 0)
  (-0.235258 0.165602 0)
  (0.598975 -0.0574123 0)
  (0.622463 0.359843 0)
  (0.0244805 0.0889707 0)
  (0.14224 -0.107439 0)
  (0.209853 -0.203022 0)
  (0.203739 -0.24891 0)
  (0.163143 -0.249844 0)
  (0.111741 -0.208476 0)
  (0.0593582 -0.144859 0)
  (0.0136196 -0.08024 0)
  (-0.0191929 -0.0310182 0)
  (-0.033723 -0.00620587 0)
  (-0.0368997 0.00784555 0)
  (-0.0316895 0.0173725 0)
  (-0.0213404 0.024967 0)
  (-0.00652883 0.0301189 0)
  (0.0121427 0.0300246 0)
  (0.030138 0.0225963 0)
  (0.0408988 0.0072003 0)
  (0.0421203 -0.00847224 0)
  (0.0351362 -0.0202827 0)
  (0.0215812 -0.0263932 0)
  (0.00418902 -0.0264088 0)
  (-0.0142596 -0.0213077 0)
  (-0.0299115 -0.0136826 0)
  (-0.0413748 -0.00536626 0)
  (-0.0488293 0.00133579 0)
  (-0.0526532 0.00568488 0)
  (-0.054773 0.00863703 0)
  (-0.0560929 0.0112275 0)
  (-0.0565331 0.0140727 0)
  (-0.0558264 0.0176611 0)
  (-0.053764 0.0226602 0)
  (-0.0502461 0.0301679 0)
  (-0.0433378 0.0423799 0)
  (-0.0261192 0.0620507 0)
  (-0.0253874 0.0822681 0)
  (0.0146541 0.137107 0)
  (0.103245 0.155161 0)
  (-0.231993 0.158799 0)
  (1.04844 0.0528166 0)
  (0.762407 0.356392 0)
  (0.351549 0.245622 0)
  (0.331545 0.0586751 0)
  (0.327261 -0.0950246 0)
  (0.267743 -0.170218 0)
  (0.176107 -0.177541 0)
  (0.0858102 -0.137334 0)
  (0.00991361 -0.0800513 0)
  (-0.0426649 -0.0315609 0)
  (-0.0667768 -0.00857582 0)
  (-0.0765997 0.00194306 0)
  (-0.0774757 0.00768693 0)
  (-0.0732222 0.0119735 0)
  (-0.0656782 0.0156519 0)
  (-0.0556406 0.0179662 0)
  (-0.0443679 0.0176731 0)
  (-0.0346354 0.013797 0)
  (-0.0303519 0.00625548 0)
  (-0.0321859 -0.00159674 0)
  (-0.0399486 -0.00713424 0)
  (-0.0519925 -0.00916145 0)
  (-0.0657681 -0.00795687 0)
  (-0.0789688 -0.00480799 0)
  (-0.0898779 -0.000943185 0)
  (-0.0973892 0.00285457 0)
  (-0.101135 0.00578227 0)
  (-0.102645 0.00790154 0)
  (-0.102905 0.00958681 0)
  (-0.102158 0.0111451 0)
  (-0.100341 0.0128501 0)
  (-0.0973049 0.0150971 0)
  (-0.0928972 0.0185117 0)
  (-0.0867571 0.0241044 0)
  (-0.0773661 0.0334844 0)
  (-0.0622985 0.0480035 0)
  (-0.0487455 0.065116 0)
  (-0.0131598 0.102193 0)
  (0.0924045 0.131325 0)
  (-0.209147 0.106249 0)
  (1.0265 0.0894922 0)
  (0.149124 -0.133399 0)
  (0.201447 -0.14666 0)
  (0.149097 -0.139756 0)
  (0.0543029 -0.107144 0)
  (-0.037824 -0.0489027 0)
  (-0.0851004 -0.0123857 0)
  (-0.109806 0.0079964 0)
  (-0.119812 0.0159836 0)
  (-0.122806 0.018335 0)
  (-0.122234 0.0192778 0)
  (-0.119786 0.020321 0)
  (-0.115967 0.0215752 0)
  (-0.11128 0.0225981 0)
  (-0.106641 0.0228624 0)
  (-0.103557 0.0219769 0)
  (-0.103746 0.02002 0)
  (-0.107469 0.0182067 0)
  (-0.113435 0.0175391 0)
  (-0.120987 0.0185872 0)
  (-0.128477 0.020835 0)
  (-0.134685 0.0234415 0)
  (-0.138903 0.0257477 0)
  (-0.141219 0.027663 0)
  (-0.142075 0.0292648 0)
  (-0.141904 0.0306659 0)
  (-0.140942 0.0319411 0)
  (-0.139242 0.0331456 0)
  (-0.136738 0.0343642 0)
  (-0.133267 0.0357279 0)
  (-0.128557 0.037419 0)
  (-0.122101 0.0396857 0)
  (-0.112924 0.0427871 0)
  (-0.100026 0.046738 0)
  (-0.0830699 0.0519453 0)
  (-0.0509708 0.0679672 0)
  (-0.0063885 0.0935642 0)
  (-0.264705 0.0615022 0)
  (0.644014 0.117507 0)
  (-0.237454 -0.110963 0)
  (-0.00547323 -0.0933457 0)
  (-0.0569431 -0.105595 0)
  (-0.103533 -0.10774 0)
  (-0.136526 -0.108223 0)
  (-0.15396 -0.109906 0)
  (-0.162679 -0.109707 0)
  (-0.165775 -0.109925 0)
  (-0.166843 -0.10965 0)
  (-0.167104 -0.108213 0)
  (-0.166579 -0.105548 0)
  (-0.165152 -0.102371 0)
  (-0.162946 -0.0996499 0)
  (-0.160428 -0.0983593 0)
  (-0.158401 -0.0992658 0)
  (-0.157735 -0.102506 0)
  (-0.15874 -0.107124 0)
  (-0.16105 -0.111796 0)
  (-0.163898 -0.115635 0)
  (-0.166455 -0.11856 0)
  (-0.168279 -0.120714 0)
  (-0.169277 -0.122261 0)
  (-0.169544 -0.123361 0)
  (-0.169198 -0.124289 0)
  (-0.168367 -0.125352 0)
  (-0.167205 -0.126803 0)
  (-0.165889 -0.128775 0)
  (-0.164597 -0.131185 0)
  (-0.163452 -0.133605 0)
  (-0.162427 -0.135073 0)
  (-0.161167 -0.13399 0)
  (-0.158626 -0.128285 0)
  (-0.152394 -0.115517 0)
  (-0.138096 -0.0917216 0)
  (-0.112978 -0.0517474 0)
  (-0.101258 -0.00818273 0)
  (-0.20091 -0.0168712 0)
  (0.475046 0.0401155 0)
  (0.0813406 -0.132184 0)
  (-0.147293 0.0395693 0)
  (-0.114392 0.416939 0)
  (-0.130929 0.309098 0)
  (-0.169491 0.288822 0)
  (-0.195033 0.306559 0)
  (-0.20768 0.327423 0)
  (-0.212601 0.339415 0)
  (-0.214354 0.344147 0)
  (-0.215175 0.346334 0)
  (-0.215974 0.346435 0)
  (-0.216823 0.345011 0)
  (-0.217338 0.342751 0)
  (-0.217076 0.340645 0)
  (-0.215775 0.33968 0)
  (-0.213479 0.340664 0)
  (-0.210589 0.344011 0)
  (-0.207734 0.349493 0)
  (-0.205397 0.356204 0)
  (-0.203698 0.363045 0)
  (-0.202437 0.369185 0)
  (-0.201356 0.374346 0)
  (-0.200299 0.378538 0)
  (-0.199196 0.381945 0)
  (-0.197993 0.384845 0)
  (-0.196632 0.387604 0)
  (-0.19508 0.390616 0)
  (-0.193325 0.394221 0)
  (-0.191364 0.398659 0)
  (-0.189161 0.403979 0)
  (-0.18663 0.409857 0)
  (-0.183663 0.415342 0)
  (-0.180148 0.418598 0)
  (-0.175562 0.416777 0)
  (-0.167868 0.40615 0)
  (-0.154073 0.383726 0)
  (-0.139107 0.353145 0)
  (-0.150186 0.329795 0)
  (-0.189861 0.332135 0)
  (0.51669 0.372618 0)
)
;

boundaryField
{
  floor
  {
    type noSlip;
  }
  ceiling
  {
    type noSlip;
  }
  sWall
  {
    type noSlip;
  }
  nWall
  {
    type noSlip;
  }
  sideWalls
  {
    type empty;
  }
  glass1
  {
    type noSlip;
  }
  glass2
  {
    type noSlip;
  }
  sun
  {
    type noSlip;
  }
  heatsource1
  {
    type noSlip;
  }
  heatsource2
  {
    type noSlip;
  }
  Table_master
  {
    type noSlip;
  }
  Table_slave
  {
    type noSlip;
  }
  inlet
  {
    type fixedValue;
    value uniform (0.277164 -0.114805 0);
  }
  outlet
  {
    type zeroGradient;
  }
} 	// ************************************************************************* //

