// -*- C++ -*-
// File generated by PyFoam - sorry for the ugliness

FoamFile
{
 version 2.0;
 format ascii;
 class volScalarField;
 location "800";
 object T;
}

dimensions [ 0 0 0 1 0 0 0 ];

internalField nonuniform List<scalar> 459
(
  303.578
  303.313
  303.302
  303.299
  303.296
  303.293
  303.29
  303.286
  303.28
  303.272
  303.261
  303.248
  303.235
  303.225
  303.219
  303.248
  303.231
  303.225
  303.225
  303.225
  303.226
  303.226
  303.226
  303.226
  303.225
  303.224
  303.223
  303.221
  303.22
  303.218
  303.216
  303.215
  303.213
  303.224
  303.764
  303.355
  303.334
  303.339
  303.344
  303.347
  303.348
  303.346
  303.34
  303.325
  303.302
  303.275
  303.248
  303.225
  303.208
  303.197
  303.19
  303.24
  303.223
  303.218
  303.216
  303.215
  303.214
  303.212
  303.21
  303.208
  303.205
  303.201
  303.198
  303.194
  303.191
  303.188
  303.186
  303.185
  303.185
  303.207
  303.956
  303.404
  303.368
  303.381
  303.397
  303.411
  303.421
  303.425
  303.419
  303.397
  303.359
  303.313
  303.268
  303.234
  303.211
  303.2
  303.195
  303.213
  303.212
  303.214
  303.216
  303.218
  303.218
  303.215
  303.213
  303.209
  303.206
  303.202
  303.198
  303.193
  303.189
  303.184
  303.181
  303.178
  303.176
  303.199
  304.147
  303.464
  303.4
  303.418
  303.446
  303.475
  303.499
  303.514
  303.511
  303.479
  303.422
  303.352
  303.286
  303.239
  303.211
  303.199
  303.196
  303.202
  303.205
  303.212
  303.218
  303.224
  303.228
  303.23
  303.231
  303.232
  303.232
  303.233
  303.232
  303.231
  303.229
  303.227
  303.223
  303.206
  303.19
  303.179
  303.197
  304.329
  303.54
  303.435
  303.446
  303.481
  303.522
  303.563
  303.596
  303.597
  303.552
  303.472
  303.38
  303.294
  303.238
  303.206
  303.195
  303.195
  303.201
  303.21
  303.221
  303.231
  303.238
  303.244
  303.247
  303.249
  303.25
  303.251
  303.251
  303.249
  303.246
  303.242
  303.237
  303.23
  303.218
  303.2
  303.184
  303.192
  303.249
  303.284
  303.292
  304.491
  303.638
  303.495
  303.478
  303.506
  303.548
  303.597
  303.655
  303.656
  303.594
  303.493
  303.383
  303.29
  303.227
  303.195
  303.187
  303.194
  303.207
  303.222
  303.236
  303.249
  303.257
  303.263
  303.266
  303.267
  303.268
  303.268
  303.267
  303.264
  303.26
  303.253
  303.246
  303.237
  303.225
  303.209
  303.192
  303.19
  303.213
  303.225
  303.257
  304.631
  303.797
  303.648
  303.593
  303.588
  303.611
  303.657
  303.702
  303.682
  303.596
  303.474
  303.351
  303.255
  303.197
  303.175
  303.178
  303.196
  303.219
  303.241
  303.258
  303.27
  303.278
  303.282
  303.284
  303.285
  303.285
  303.284
  303.282
  303.279
  303.273
  303.264
  303.254
  303.244
  303.232
  303.217
  303.202
  303.194
  303.201
  303.208
  303.235
  304.845
  304.221
  304.055
  303.93
  303.851
  303.817
  303.82
  303.784
  303.683
  303.538
  303.385
  303.259
  303.179
  303.145
  303.149
  303.173
  303.208
  303.241
  303.268
  303.283
  303.292
  303.297
  303.3
  303.301
  303.302
  303.302
  303.3
  303.298
  303.294
  303.289
  303.281
  303.269
  303.259
  303.248
  303.238
  303.227
  303.225
  303.236
  303.255
  303.388
  305.147
  304.862
  304.599
  304.367
  304.187
  304.053
  303.935
  303.745
  303.516
  303.309
  303.16
  303.082
  303.064
  303.087
  303.137
  303.19
  303.243
  303.275
  303.294
  303.304
  303.31
  303.314
  303.316
  303.318
  303.319
  303.319
  303.319
  303.317
  303.316
  303.314
  303.314
  303.317
  303.322
  303.333
  303.351
  303.377
  303.411
  303.445
  303.468
  303.522
  297.144
  299.884
  301.372
  301.944
  302.155
  302.302
  302.44
  302.576
  302.714
  302.853
  302.979
  303.087
  303.189
  303.251
  303.286
  303.304
  303.315
  303.321
  303.326
  303.33
  303.333
  303.335
  303.338
  303.34
  303.342
  303.344
  303.346
  303.349
  303.353
  303.357
  303.364
  303.374
  303.39
  303.411
  303.435
  303.457
  303.472
  303.486
  297.759
  299.961
  301.008
  301.597
  301.936
  302.183
  302.415
  302.627
  302.816
  303.007
  303.133
  303.217
  303.271
  303.3
  303.315
  303.324
  303.33
  303.335
  303.339
  303.343
  303.347
  303.35
  303.353
  303.356
  303.359
  303.363
  303.366
  303.369
  303.372
  303.376
  303.382
  303.389
  303.4
  303.415
  303.431
  303.447
  303.441
  303.468
  299.727
  299.654
  299.649
  301.238
  301.907
  302.289
  302.577
  302.806
  302.964
  303.08
  303.166
  303.228
  303.266
  303.291
  303.307
  303.317
  303.323
  303.328
  303.332
  303.336
  303.341
  303.345
  303.349
  303.352
  303.356
  303.36
  303.363
  303.367
  303.37
  303.373
  303.377
  303.38
  303.385
  303.39
  303.397
  303.408
  303.417
  303.422
  303.422
  303.459
)
;

boundaryField
{
  floor
  {
    type wallHeatTransfer;
    Tinf uniform 305.2;
    alphaWall uniform 0.24;
    value nonuniform List<scalar> 29
(
  303.421
  303.651
  303.588
  303.569
  303.578
  303.591
  303.605
  303.621
  303.637
  303.652
  303.666
  303.679
  303.691
  303.703
  303.713
  303.724
  303.735
  303.747
  303.751
  303.78
  303.78
  303.668
  303.616
  303.585
  303.421
  303.651
  303.576
  303.449
  303.395
)
;
  }
  ceiling
  {
    type wallHeatTransfer;
    Tinf uniform 303.2;
    alphaWall uniform 0.24;
    value nonuniform List<scalar> 43
(
  299.969
  299.89
  299.878
  301.359
  301.991
  302.352
  302.623
  302.838
  302.984
  303.091
  303.169
  303.225
  303.258
  303.279
  303.29
  303.296
  303.3
  303.304
  303.308
  303.312
  303.316
  303.319
  303.323
  303.327
  303.331
  303.335
  303.338
  303.342
  303.346
  303.35
  303.354
  303.358
  303.363
  303.368
  303.375
  303.386
  303.396
  303.399
  303.398
  303.43
  305.056
  304.796
  298.095
)
;
  }
  sWall
  {
    type wallHeatTransfer;
    Tinf uniform 315.2;
    alphaWall uniform 0.36;
    value uniform 301.295;
  }
  nWall
  {
    type wallHeatTransfer;
    Tinf uniform 307.2;
    alphaWall uniform 0.36;
    value nonuniform List<scalar> 6
(
  304.024
  303.976
  303.909
  304.026
  304.004
  304.063
)
;
  }
  sideWalls
  {
    type empty;
  }
  glass1
  {
    type wallHeatTransfer;
    Tinf uniform 315.2;
    alphaWall uniform 4.3;
    value nonuniform List<scalar> 9
(
  311.764
  311.104
  310.678
  310.346
  310.067
  309.816
  309.614
  309.671
  309.885
)
;
  }
  glass2
  {
    type wallHeatTransfer;
    Tinf uniform 307.2;
    alphaWall uniform 4.3;
    value nonuniform List<scalar> 2
(
  305.761
  305.856
)
;
  }
  sun
  {
    type wallHeatTransfer;
    Tinf uniform 305.2;
    alphaWall uniform 0.24;
    value nonuniform List<scalar> 14
(
  303.765
  303.518
  303.506
  303.497
  303.49
  303.482
  303.475
  303.467
  303.459
  303.449
  303.438
  303.429
  303.422
  303.419
)
;
  }
  heatsource1
  {
    type fixedGradient;
    gradient uniform 0;
  }
  heatsource2
  {
    type fixedGradient;
    gradient uniform 0;
  }
  Table_master
  {
    type zeroGradient;
  }
  Table_slave
  {
    type zeroGradient;
  }
  inlet
  {
    type fixedValue;
    value uniform 293.15;
  }
  outlet
  {
    type zeroGradient;
  }
} 	// ************************************************************************* //

