// -*- C++ -*-
// File generated by PyFoam - sorry for the ugliness

FoamFile
{
 version 2.0;
 format ascii;
 class volVectorField;
 location "800";
 object U;
}

dimensions [ 0 1 -1 0 0 0 0 ];

internalField nonuniform List<vector> 459
(
  (0.0427777 0.083034 0)
  (-0.161259 0.0226116 0)
  (-0.18132 0.0173819 0)
  (-0.211525 0.0131423 0)
  (-0.235433 0.00832641 0)
  (-0.252453 0.00323094 0)
  (-0.261571 -0.00226429 0)
  (-0.261326 -0.00829045 0)
  (-0.250705 -0.0149366 0)
  (-0.229816 -0.0217186 0)
  (-0.199717 -0.0278166 0)
  (-0.162365 -0.032802 0)
  (-0.12024 -0.0372901 0)
  (-0.0796171 -0.0434072 0)
  (-0.0602317 -0.0523471 0)
  (0.0139325 0.00891658 0)
  (-0.0128197 -0.0189093 0)
  (0.0144079 -0.0240442 0)
  (0.0307639 -0.0165282 0)
  (0.0443102 -0.0104346 0)
  (0.0527231 -0.00639089 0)
  (0.0566768 -0.00393887 0)
  (0.0581019 -0.00269331 0)
  (0.0584998 -0.00209437 0)
  (0.0585469 -0.00178326 0)
  (0.0584138 -0.00159461 0)
  (0.0580986 -0.00145272 0)
  (0.057552 -0.00127052 0)
  (0.0565833 -0.000884015 0)
  (0.05466 7.93611e-05 0)
  (0.0506794 0.00212055 0)
  (0.0434613 0.00406511 0)
  (0.0388445 0.00461267 0)
  (-0.0202742 0.0185962 0)
  (0.222712 0.170941 0)
  (-0.15493 0.060211 0)
  (-0.146911 0.0502199 0)
  (-0.178477 0.0415294 0)
  (-0.201911 0.0317318 0)
  (-0.218772 0.0209471 0)
  (-0.228226 0.00867439 0)
  (-0.22872 -0.00546986 0)
  (-0.219147 -0.0210021 0)
  (-0.200098 -0.03596 0)
  (-0.173131 -0.0480162 0)
  (-0.140993 -0.0556775 0)
  (-0.107141 -0.0590137 0)
  (-0.0768611 -0.059513 0)
  (-0.0571712 -0.0559795 0)
  (-0.0397286 -0.0330776 0)
  (-0.0127157 -0.00707564 0)
  (0.082207 0.0128618 0)
  (0.0405393 -0.0195758 0)
  (0.0427736 -0.025866 0)
  (0.0524608 -0.0197692 0)
  (0.05951 -0.0119613 0)
  (0.0631575 -0.005509 0)
  (0.0641024 -0.00145457 0)
  (0.0639065 0.000633921 0)
  (0.0637179 0.00164959 0)
  (0.0637342 0.0022184 0)
  (0.063795 0.00257847 0)
  (0.0638149 0.00287239 0)
  (0.0637738 0.00326919 0)
  (0.0636166 0.00409361 0)
  (0.0628071 0.00620885 0)
  (0.0589652 0.0122331 0)
  (0.0492581 0.0167406 0)
  (0.0463894 0.0181239 0)
  (-0.0560679 0.0414699 0)
  (0.386911 0.256404 0)
  (-0.177622 0.097563 0)
  (-0.110454 0.081836 0)
  (-0.141959 0.0653888 0)
  (-0.162368 0.0489777 0)
  (-0.17767 0.031388 0)
  (-0.186849 0.0114003 0)
  (-0.187519 -0.0116035 0)
  (-0.177895 -0.0365294 0)
  (-0.159371 -0.0598967 0)
  (-0.134223 -0.0777688 0)
  (-0.105629 -0.087956 0)
  (-0.0768233 -0.0903003 0)
  (-0.0512982 -0.0856787 0)
  (-0.0313801 -0.0732267 0)
  (-0.0147018 -0.0486099 0)
  (0.00589726 -0.0192617 0)
  (0.100244 -0.0548926 0)
  (0.0614843 -0.0466531 0)
  (0.0590815 -0.0364895 0)
  (0.063581 -0.0262426 0)
  (0.0664097 -0.016563 0)
  (0.0671821 -0.00839919 0)
  (0.0653148 -0.00731778 0)
  (0.0631757 -0.0057641 0)
  (0.062131 -0.0049763 0)
  (0.0619508 -0.00455788 0)
  (0.0621457 -0.00430284 0)
  (0.0625173 -0.00410946 0)
  (0.0631337 -0.003849 0)
  (0.0644309 -0.00322062 0)
  (0.0675635 -0.000390756 0)
  (0.0656146 0.0166455 0)
  (0.0519255 0.0281583 0)
  (0.0549989 0.0343817 0)
  (-0.085822 0.0659397 0)
  (0.532968 0.325462 0)
  (-0.217381 0.131765 0)
  (-0.0713213 0.108607 0)
  (-0.103017 0.0854134 0)
  (-0.11744 0.0646728 0)
  (-0.128917 0.0424397 0)
  (-0.136467 0.0161667 0)
  (-0.135929 -0.0155878 0)
  (-0.124819 -0.050331 0)
  (-0.106476 -0.0816535 0)
  (-0.0839837 -0.104118 0)
  (-0.0603962 -0.115592 0)
  (-0.0379512 -0.116349 0)
  (-0.0186293 -0.10782 0)
  (-0.00230377 -0.0906418 0)
  (0.0135069 -0.065456 0)
  (0.0344123 -0.0397451 0)
  (0.0660843 -0.00866753 0)
  (0.0778547 -0.0405838 0)
  (0.0662102 -0.0408203 0)
  (0.0609726 -0.0324945 0)
  (0.0607647 -0.0244399 0)
  (0.0618497 -0.0164909 0)
  (0.0645382 -0.00764578 0)
  (0.0693648 -0.00531482 0)
  (0.0749447 -0.00515165 0)
  (0.0799035 -0.00496974 0)
  (0.084081 -0.00456301 0)
  (0.0871729 -0.00373993 0)
  (0.088429 -0.00236028 0)
  (0.0865009 -0.000248678 0)
  (0.0802795 0.00281602 0)
  (0.0673694 0.00735042 0)
  (0.0552128 0.0273685 0)
  (0.0427871 0.0438281 0)
  (0.059241 0.0558742 0)
  (-0.119131 0.088706 0)
  (0.657089 0.379614 0)
  (-0.262545 0.161027 0)
  (-0.0320356 0.123965 0)
  (-0.0623602 0.0970441 0)
  (-0.0686865 0.0741077 0)
  (-0.073828 0.049325 0)
  (-0.0777747 0.0188347 0)
  (-0.0724409 -0.0205968 0)
  (-0.0580494 -0.0645464 0)
  (-0.04084 -0.1014 0)
  (-0.0232912 -0.125535 0)
  (-0.007367 -0.136047 0)
  (0.00629315 -0.133979 0)
  (0.0165974 -0.122079 0)
  (0.0248532 -0.103162 0)
  (0.0329058 -0.079909 0)
  (0.0430285 -0.0573626 0)
  (0.0548692 -0.0432008 0)
  (0.0593903 -0.0447816 0)
  (0.0553049 -0.0394926 0)
  (0.0499086 -0.0312346 0)
  (0.0471573 -0.0238795 0)
  (0.0466107 -0.0175716 0)
  (0.0482783 -0.0120433 0)
  (0.0518826 -0.00873325 0)
  (0.0566575 -0.00730012 0)
  (0.0613241 -0.0064908 0)
  (0.0656686 -0.00532885 0)
  (0.0694038 -0.00310946 0)
  (0.0719731 0.000677879 0)
  (0.0721969 0.00593715 0)
  (0.0694264 0.0126335 0)
  (0.0632956 0.0213971 0)
  (0.0556588 0.0370737 0)
  (0.0445378 0.0556351 0)
  (0.0668157 0.0758719 0)
  (-0.0234465 0.103087 0)
  (0.0428916 0.0273992 0)
  (-0.0662631 -0.0373454 0)
  (-0.273236 -0.0597093 0)
  (0.744666 0.425641 0)
  (-0.304088 0.182135 0)
  (-0.00238894 0.12038 0)
  (-0.0204089 0.0992647 0)
  (-0.0175707 0.0777519 0)
  (-0.0150568 0.0522225 0)
  (-0.0139617 0.0193688 0)
  (0.00464916 -0.0307183 0)
  (0.0218387 -0.0807265 0)
  (0.0348782 -0.117338 0)
  (0.0442553 -0.138705 0)
  (0.0497301 -0.145721 0)
  (0.0516794 -0.140688 0)
  (0.0510445 -0.126609 0)
  (0.0489833 -0.106588 0)
  (0.0468957 -0.0838483 0)
  (0.0459193 -0.0622099 0)
  (0.0457822 -0.0461702 0)
  (0.0431453 -0.0385582 0)
  (0.0370738 -0.0327421 0)
  (0.0307568 -0.0265925 0)
  (0.0268999 -0.0213515 0)
  (0.0256596 -0.0172726 0)
  (0.0268083 -0.014054 0)
  (0.0298086 -0.0121545 0)
  (0.0338433 -0.0116121 0)
  (0.0381866 -0.0112852 0)
  (0.0426384 -0.0101971 0)
  (0.0470502 -0.00753035 0)
  (0.0511052 -0.002488 0)
  (0.0544108 0.00504095 0)
  (0.0555313 0.014311 0)
  (0.0550528 0.0254148 0)
  (0.0546973 0.0402243 0)
  (0.0524164 0.0585051 0)
  (0.0751515 0.0818276 0)
  (0.0522707 0.0991954 0)
  (0.0924451 0.0685458 0)
  (0.116711 0.044472 0)
  (-0.134537 -0.0109735 0)
  (0.788075 0.467552 0)
  (-0.323938 0.16932 0)
  (0.0208934 0.0715124 0)
  (0.0350392 0.0816043 0)
  (0.0445519 0.0740667 0)
  (0.0534495 0.0472348 0)
  (0.0682381 0.00519378 0)
  (0.0944647 -0.0487664 0)
  (0.109669 -0.0940985 0)
  (0.115273 -0.125077 0)
  (0.113505 -0.141029 0)
  (0.10599 -0.143469 0)
  (0.0944029 -0.135098 0)
  (0.080636 -0.119101 0)
  (0.0662942 -0.0984777 0)
  (0.0528057 -0.0764341 0)
  (0.0409498 -0.055913 0)
  (0.0311176 -0.0401449 0)
  (0.0219859 -0.0306743 0)
  (0.01347 -0.0252193 0)
  (0.00676212 -0.0213119 0)
  (0.00281291 -0.0186183 0)
  (0.00132554 -0.0169268 0)
  (0.00182379 -0.01585 0)
  (0.00375971 -0.0154432 0)
  (0.00649682 -0.0155979 0)
  (0.00962417 -0.015638 0)
  (0.0131005 -0.0148642 0)
  (0.0170559 -0.0124963 0)
  (0.0216285 -0.00750559 0)
  (0.028006 0.00108793 0)
  (0.0338591 0.0116149 0)
  (0.0388737 0.0230665 0)
  (0.0454495 0.0363292 0)
  (0.0525395 0.0514341 0)
  (0.0750207 0.070508 0)
  (0.0871498 0.0781762 0)
  (0.119073 0.0543604 0)
  (0.159244 0.0440258 0)
  (-0.0378444 0.0933787 0)
  (0.889982 0.47395 0)
  (-0.0848814 0.149989 0)
  (0.0998842 -0.00320995 0)
  (0.158722 0.000284775 0)
  (0.160816 0.0101727 0)
  (0.162911 -0.0106898 0)
  (0.187248 -0.0463478 0)
  (0.205439 -0.0792273 0)
  (0.207858 -0.105568 0)
  (0.197146 -0.122616 0)
  (0.17751 -0.12927 0)
  (0.152315 -0.125989 0)
  (0.124328 -0.114732 0)
  (0.0960662 -0.0981158 0)
  (0.0691943 -0.078341 0)
  (0.045104 -0.0582419 0)
  (0.024082 -0.0400395 0)
  (0.0076043 -0.0267624 0)
  (-0.00536877 -0.0195722 0)
  (-0.0137397 -0.0172376 0)
  (-0.0194449 -0.0163943 0)
  (-0.0230269 -0.0162048 0)
  (-0.0250588 -0.0163571 0)
  (-0.0259624 -0.0166798 0)
  (-0.02609 -0.0171812 0)
  (-0.0257918 -0.0177887 0)
  (-0.0252786 -0.0182189 0)
  (-0.0245336 -0.0180919 0)
  (-0.0233397 -0.0169465 0)
  (-0.0212734 -0.0142078 0)
  (-0.0172059 -0.00914189 0)
  (-0.00640589 -0.000934251 0)
  (0.00216967 0.00887851 0)
  (0.0129377 0.0174035 0)
  (0.0248945 0.0246933 0)
  (0.0457743 0.0324178 0)
  (0.0650754 0.0252339 0)
  (0.0852001 -0.0044581 0)
  (0.14532 0.0382526 0)
  (-0.414461 0.206091 0)
  (1.03003 0.430961 0)
  (0.493592 0.286145 0)
  (0.504165 0.200561 0)
  (0.508068 0.146146 0)
  (0.463967 0.107987 0)
  (0.422108 0.0656224 0)
  (0.389929 0.0197211 0)
  (0.351655 -0.0240712 0)
  (0.307377 -0.0585083 0)
  (0.26008 -0.0801785 0)
  (0.212369 -0.0892199 0)
  (0.165983 -0.0875057 0)
  (0.122135 -0.0781835 0)
  (0.0822516 -0.0644171 0)
  (0.0466722 -0.0479292 0)
  (0.0167395 -0.0315795 0)
  (-0.00924577 -0.0172895 0)
  (-0.0248025 -0.0111668 0)
  (-0.0344446 -0.0100106 0)
  (-0.0409412 -0.0108041 0)
  (-0.0459239 -0.0119204 0)
  (-0.0499159 -0.0129924 0)
  (-0.053279 -0.0139717 0)
  (-0.0562773 -0.0148714 0)
  (-0.0591482 -0.015708 0)
  (-0.0621462 -0.0164055 0)
  (-0.0655122 -0.0167427 0)
  (-0.0694738 -0.0163583 0)
  (-0.0743148 -0.0147327 0)
  (-0.0804617 -0.0111781 0)
  (-0.0884182 -0.00492636 0)
  (-0.0983872 0.00453277 0)
  (-0.107488 0.0161912 0)
  (-0.12223 0.030307 0)
  (-0.146006 0.0471926 0)
  (-0.1813 0.0657706 0)
  (-0.231776 0.0819061 0)
  (-0.289713 0.0931229 0)
  (-0.359133 0.0994117 0)
  (-0.622823 0.101212 0)
  (-0.212318 0.0387213 0)
  (0.149957 0.080036 0)
  (0.246743 0.0632796 0)
  (0.243368 0.0345986 0)
  (0.230545 0.0043771 0)
  (0.217965 -0.0203566 0)
  (0.195359 -0.0368722 0)
  (0.164941 -0.0459298 0)
  (0.129837 -0.0484816 0)
  (0.0923709 -0.0448452 0)
  (0.0551531 -0.0368364 0)
  (0.0206745 -0.0259432 0)
  (-0.0128483 -0.011345 0)
  (-0.035544 -0.00149687 0)
  (-0.0493749 0.00225652 0)
  (-0.0567699 0.00167729 0)
  (-0.0620065 -0.000491098 0)
  (-0.0665439 -0.00281264 0)
  (-0.070998 -0.00473397 0)
  (-0.0755044 -0.00622036 0)
  (-0.0801386 -0.00733308 0)
  (-0.0849725 -0.0081149 0)
  (-0.0900881 -0.00855859 0)
  (-0.0955654 -0.00856854 0)
  (-0.101442 -0.00794465 0)
  (-0.107672 -0.00640025 0)
  (-0.114112 -0.00359612 0)
  (-0.120496 0.000815826 0)
  (-0.12628 0.0071465 0)
  (-0.130229 0.0160146 0)
  (-0.133232 0.0285842 0)
  (-0.13573 0.0451029 0)
  (-0.138591 0.0647374 0)
  (-0.142408 0.0838891 0)
  (-0.144114 0.0923765 0)
  (-0.127025 0.0689324 0)
  (-0.084972 -0.0260099 0)
  (-0.280944 -0.204256 0)
  (-0.0591882 0.218338 0)
  (0.0654038 0.116757 0)
  (0.0488071 0.0526941 0)
  (0.0557849 0.0339331 0)
  (0.0630921 0.0184625 0)
  (0.0621653 0.00269248 0)
  (0.0543707 -0.0102887 0)
  (0.0371114 -0.017593 0)
  (0.0145917 -0.0187444 0)
  (-0.0136633 -0.0134312 0)
  (-0.0389763 -0.00775587 0)
  (-0.0588535 -0.00489864 0)
  (-0.0711477 -0.00516003 0)
  (-0.0762375 -0.00827882 0)
  (-0.0784547 -0.0121746 0)
  (-0.0800871 -0.0158562 0)
  (-0.0820238 -0.0181979 0)
  (-0.0847553 -0.0192823 0)
  (-0.0881351 -0.0198022 0)
  (-0.0920492 -0.0200503 0)
  (-0.0963863 -0.0200934 0)
  (-0.101041 -0.0199552 0)
  (-0.105912 -0.0196218 0)
  (-0.110882 -0.0190215 0)
  (-0.115766 -0.0180001 0)
  (-0.12028 -0.0162998 0)
  (-0.124008 -0.0135367 0)
  (-0.126388 -0.0091543 0)
  (-0.12672 -0.0025509 0)
  (-0.124176 0.00647687 0)
  (-0.117335 0.0187334 0)
  (-0.104946 0.0349001 0)
  (-0.0868001 0.0545856 0)
  (-0.06398 0.0738493 0)
  (-0.0393323 0.0852141 0)
  (0.000546723 0.0694241 0)
  (0.145087 -0.00313581 0)
  (-0.208715 -0.115276 0)
  (-0.0677737 -0.33044 0)
  (-0.418828 -0.115964 0)
  (-0.306282 0.0880133 0)
  (-0.212571 -0.0132992 0)
  (-0.158641 -0.037185 0)
  (-0.121748 -0.0350172 0)
  (-0.101985 -0.0341379 0)
  (-0.0956551 -0.0307965 0)
  (-0.0963918 -0.0213264 0)
  (-0.103356 -0.00936242 0)
  (-0.110215 0.00272448 0)
  (-0.113276 0.0136218 0)
  (-0.111317 0.0225344 0)
  (-0.107107 0.0308536 0)
  (-0.101363 0.0383184 0)
  (-0.0956526 0.0440995 0)
  (-0.0912814 0.0481162 0)
  (-0.0887036 0.0503525 0)
  (-0.0878083 0.0507647 0)
  (-0.088235 0.0496784 0)
  (-0.0896831 0.0480899 0)
  (-0.0919038 0.0463752 0)
  (-0.094706 0.0446139 0)
  (-0.0979335 0.0428416 0)
  (-0.101444 0.0410822 0)
  (-0.10508 0.0393623 0)
  (-0.108628 0.0377141 0)
  (-0.111779 0.0361702 0)
  (-0.114084 0.0347564 0)
  (-0.114844 0.0335008 0)
  (-0.112857 0.0327893 0)
  (-0.106133 0.0337368 0)
  (-0.0922257 0.0370785 0)
  (-0.0692376 0.0436519 0)
  (-0.0376267 0.0539706 0)
  (0.0111918 0.0678247 0)
  (0.0581586 0.0696269 0)
  (0.10189 0.0540957 0)
  (0.165069 0.0239046 0)
  (-0.219556 -0.0323339 0)
)
;

boundaryField
{
  floor
  {
    type noSlip;
  }
  ceiling
  {
    type noSlip;
  }
  sWall
  {
    type noSlip;
  }
  nWall
  {
    type noSlip;
  }
  sideWalls
  {
    type empty;
  }
  glass1
  {
    type noSlip;
  }
  glass2
  {
    type noSlip;
  }
  sun
  {
    type noSlip;
  }
  heatsource1
  {
    type noSlip;
  }
  heatsource2
  {
    type noSlip;
  }
  Table_master
  {
    type noSlip;
  }
  Table_slave
  {
    type noSlip;
  }
  inlet
  {
    type fixedValue;
    value uniform (0.277164 -0.114805 0);
  }
  outlet
  {
    type zeroGradient;
  }
} 	// ************************************************************************* //

