/*--------------------------------*- C++ -*----------------------------------*\
  =========                 |
  \\      /  F ield         | OpenFOAM: The Open Source CFD Toolbox
   \\    /   O peration     | Website:  https://openfoam.org
    \\  /    A nd           | Version:  6
     \\/     M anipulation  |
\*---------------------------------------------------------------------------*/
FoamFile
{
    version     2.0;
    format      ascii;
    class       volScalarField;
    location    "360";
    object      epsilon;
}
// * * * * * * * * * * * * * * * * * * * * * * * * * * * * * * * * * * * * * //

dimensions      [0 2 -3 0 0 0 0];

internalField   nonuniform List<scalar> 
459
(
0.00219025
0.00314017
0.00295893
0.00242042
0.00191423
0.00152032
0.00122668
0.000999279
0.000818417
0.000671283
0.000548915
0.000444605
0.000352852
0.000267996
0.000192919
8.78611e-05
0.000200133
0.000160243
0.000127035
0.000101834
8.16737e-05
6.55456e-05
5.3268e-05
4.38946e-05
3.66628e-05
3.10056e-05
2.6502e-05
2.28705e-05
1.98345e-05
1.71721e-05
1.46945e-05
1.25744e-05
1.11413e-05
2.1283e-05
0.00358826
0.00764615
0.004225
0.00263665
0.00179829
0.00131546
0.00100768
0.0007951
0.000638395
0.000516823
0.00041849
0.000336317
0.00026654
0.000206622
0.000160244
0.000169466
0.000108201
0.000201187
0.000452618
0.000193878
0.000122509
8.85827e-05
6.76194e-05
5.67196e-05
4.57707e-05
3.66107e-05
2.94078e-05
2.3847e-05
1.9538e-05
1.61902e-05
1.35379e-05
1.15764e-05
1.07003e-05
1.68601e-05
3.49111e-05
4.6105e-05
0.00423476
0.0104563
0.00440467
0.00226972
0.00137557
0.000953217
0.000722824
0.000577598
0.000473267
0.00039045
0.000320448
0.000259722
0.000207605
0.000163851
0.000131292
0.0001156
0.000111582
0.000173386
0.00021641
0.000139019
0.000106253
8.45239e-05
7.11499e-05
0.00013232
8.66848e-05
5.95829e-05
4.27233e-05
3.17853e-05
2.4436e-05
1.95155e-05
1.63164e-05
1.44851e-05
1.12342e-05
1.78785e-05
7.06752e-05
7.5587e-05
0.00415743
0.00952661
0.00314869
0.00125476
0.000671185
0.000480279
0.000406697
0.000358138
0.000314308
0.000271562
0.000230197
0.00019142
0.000157143
0.000128491
0.000107794
9.40278e-05
9.78625e-05
0.000126653
0.000158088
0.000134739
0.000117307
9.96469e-05
8.2866e-05
7.43549e-05
0.000174622
0.00012615
9.33183e-05
6.95754e-05
5.16334e-05
3.76626e-05
2.6522e-05
1.75433e-05
1.03004e-05
9.89073e-06
1.88811e-05
0.000155793
0.000125988
0.00395861
0.00681607
0.0016814
0.000474905
0.000259102
0.000228715
0.000225722
0.000217662
0.000203033
0.000183873
0.000162532
0.000140339
0.000121267
0.000106242
9.7268e-05
9.30018e-05
0.000105521
0.000124078
0.000135201
0.000138136
0.00012739
0.000108269
8.85657e-05
7.51891e-05
7.50439e-05
6.86582e-05
5.92816e-05
4.89594e-05
3.89274e-05
2.96505e-05
2.11079e-05
1.42594e-05
9.44485e-06
1.56437e-05
2.27194e-05
0.000119368
0.000150994
0.000162256
0.000213252
0.000548429
0.00356059
0.00488819
0.00106218
0.000299189
0.000154146
0.000139242
0.000142356
0.000143088
0.000139717
0.000133333
0.00012544
0.000117509
0.000111318
0.000108478
0.000111972
0.00012247
0.000146605
0.00017358
0.000181383
0.000171522
0.000148758
0.000119723
9.34768e-05
7.50957e-05
6.46799e-05
5.60487e-05
4.68249e-05
3.7438e-05
2.84366e-05
2.18038e-05
1.77536e-05
1.69334e-05
2.01468e-05
2.99084e-05
4.12511e-05
7.40139e-05
0.000121968
0.000232655
0.000893594
0.00137373
0.00302971
0.00368433
0.000850145
0.000350366
0.000159649
0.000131124
0.000130169
0.000132439
0.000134384
0.000135973
0.000137743
0.000140358
0.000144414
0.000151043
0.000162667
0.000181147
0.000204932
0.000226006
0.000225322
0.000202558
0.000165643
0.000125165
9.45363e-05
7.53469e-05
6.27812e-05
5.26679e-05
4.36555e-05
3.62174e-05
3.11569e-05
2.96268e-05
3.2363e-05
4.04853e-05
5.48556e-05
7.33247e-05
9.26008e-05
0.000125946
0.000204082
0.000706402
0.00298033
0.00332492
0.00235095
0.00270513
0.000928823
0.000686211
0.000300251
0.000224586
0.000218921
0.000225398
0.000234513
0.000245404
0.000257923
0.000272103
0.000284732
0.00029451
0.000302393
0.00031072
0.000320312
0.000322107
0.000302136
0.000261356
0.000213819
0.000173572
0.000144061
0.000122284
0.000106176
9.38156e-05
8.47846e-05
7.97075e-05
7.96642e-05
8.60799e-05
0.000100569
0.000124952
0.000159689
0.00020113
0.000248542
0.000294371
0.000411477
0.00147781
0.0104203
0.00825246
0.00136903
0.00119701
0.00125365
0.00141893
0.000739914
0.000578533
0.000575411
0.000598366
0.000624398
0.000657
0.00069452
0.000716878
0.000725963
0.000724757
0.000714579
0.000695655
0.000670751
0.000638362
0.000591448
0.000530521
0.000473943
0.00043023
0.000392599
0.000361509
0.000336008
0.000316008
0.000302428
0.00029705
0.00030237
0.000321475
0.000357639
0.000413217
0.000487176
0.00057796
0.000677264
0.000758291
0.000901059
0.00238486
0.0136457
0.0110462
0.00165799
0.00215261
0.00188746
0.00175449
0.00181439
0.00187749
0.00191652
0.00196485
0.00198212
0.00197537
0.00195049
0.00191444
0.00187594
0.00182942
0.00177691
0.0017185
0.00164703
0.00155629
0.00147497
0.001406
0.00134686
0.00129485
0.00124879
0.00120988
0.00118134
0.0011681
0.00117666
0.00121484
0.00129016
0.00140514
0.00154882
0.00170026
0.00181763
0.00192351
0.0021169
0.00321368
0.00933711
0.0062748
0.00596215
0.00737443
0.00603902
0.0054677
0.00550957
0.00563676
0.00567688
0.00564565
0.0055765
0.00548066
0.00535709
0.00520584
0.00508966
0.00500448
0.00494057
0.00488611
0.00481035
0.00467219
0.00450077
0.00435188
0.0042299
0.00412366
0.0040269
0.00394086
0.00387212
0.00383158
0.00383516
0.00390421
0.00406235
0.0043222
0.00464988
0.00490723
0.00496475
0.00496605
0.00496773
0.00504694
0.00524776
0.00359077
0.000821129
0.000465902
0.00181339
0.00342405
0.00357033
0.0033886
0.00326621
0.00321761
0.00318443
0.0031339
0.00306661
0.002989
0.00290478
0.00281875
0.00277395
0.00275823
0.00275498
0.00274953
0.00273017
0.0027047
0.00267461
0.00264183
0.00261092
0.00258332
0.00255989
0.00254216
0.00253256
0.00253432
0.0025511
0.00258593
0.00263859
0.00270055
0.00274857
0.00276042
0.00275747
0.0027475
0.00276892
0.00293228
0.00295064
0.00208246
)
;

boundaryField
{
    floor
    {
        Cmu             0.09;
        kappa           0.41;
        E               9.8;
        type            epsilonWallFunction;
        value           nonuniform List<scalar> 
29
(
0.000192919
8.78611e-05
0.000200133
0.000160243
0.000127035
0.000101834
8.16737e-05
6.55456e-05
5.3268e-05
4.38946e-05
3.66628e-05
3.10056e-05
2.6502e-05
2.28705e-05
1.98345e-05
1.71721e-05
1.46945e-05
1.25744e-05
1.11413e-05
2.1283e-05
2.1283e-05
4.6105e-05
7.5587e-05
0.000125988
0.000192919
8.78611e-05
0.000201187
0.000173386
0.000126653
)
;
    }
    ceiling
    {
        Cmu             0.09;
        kappa           0.41;
        E               9.8;
        type            epsilonWallFunction;
        value           nonuniform List<scalar> 
43
(
0.000821129
0.000465902
0.00181339
0.00342405
0.00357033
0.0033886
0.00326621
0.00321761
0.00318443
0.0031339
0.00306661
0.002989
0.00290478
0.00281875
0.00277395
0.00275823
0.00275498
0.00274953
0.00273017
0.0027047
0.00267461
0.00264183
0.00261092
0.00258332
0.00255989
0.00254216
0.00253256
0.00253432
0.0025511
0.00258593
0.00263859
0.00270055
0.00274857
0.00276042
0.00275747
0.0027475
0.00276892
0.00293228
0.00295064
0.00208246
0.00136903
0.00119701
0.00596215
)
;
    }
    sWall
    {
        Cmu             0.09;
        kappa           0.41;
        E               9.8;
        type            epsilonWallFunction;
        value           uniform 0.000821129;
    }
    nWall
    {
        Cmu             0.09;
        kappa           0.41;
        E               9.8;
        type            epsilonWallFunction;
        value           nonuniform List<scalar> 6(0.000548429 0.00137373 0.00332492 0.0062748 0.00359077 0.00208246);
    }
    sideWalls
    {
        type            empty;
    }
    glass1
    {
        Cmu             0.09;
        kappa           0.41;
        E               9.8;
        type            epsilonWallFunction;
        value           nonuniform List<scalar> 9(0.00219025 0.00358826 0.00423476 0.00415743 0.00395861 0.00356059 0.00302971 0.00235095 0.00136903);
    }
    glass2
    {
        Cmu             0.09;
        kappa           0.41;
        E               9.8;
        type            epsilonWallFunction;
        value           nonuniform List<scalar> 2(0.00825246 0.0110462);
    }
    sun
    {
        Cmu             0.09;
        kappa           0.41;
        E               9.8;
        type            epsilonWallFunction;
        value           nonuniform List<scalar> 
14
(
0.00219025
0.00314017
0.00295893
0.00242042
0.00191423
0.00152032
0.00122668
0.000999279
0.000818417
0.000671283
0.000548915
0.000444605
0.000352852
0.000267996
)
;
    }
    heatsource1
    {
        Cmu             0.09;
        kappa           0.41;
        E               9.8;
        type            epsilonWallFunction;
        value           nonuniform List<scalar> 3(0.000162256 0.000213252 0.000548429);
    }
    heatsource2
    {
        Cmu             0.09;
        kappa           0.41;
        E               9.8;
        type            epsilonWallFunction;
        value           nonuniform List<scalar> 4(0.000169466 0.000108201 0.000108201 0.000111582);
    }
    Table_master
    {
        Cmu             0.09;
        kappa           0.41;
        E               9.8;
        type            epsilonWallFunction;
        value           nonuniform List<scalar> 9(0.00013232 8.66848e-05 5.95829e-05 4.27233e-05 3.17853e-05 2.4436e-05 1.95155e-05 1.63164e-05 1.44851e-05);
    }
    Table_slave
    {
        Cmu             0.09;
        kappa           0.41;
        E               9.8;
        type            epsilonWallFunction;
        value           nonuniform List<scalar> 9(0.000174622 0.00012615 9.33183e-05 6.95754e-05 5.16334e-05 3.76626e-05 2.6522e-05 1.75433e-05 1.03004e-05);
    }
    inlet
    {
        type            turbulentMixingLengthDissipationRateInlet;
        mixingLength    0.01;
        phi             phi;
        k               k;
        value           uniform 3.01869e-05;
    }
    outlet
    {
        type            zeroGradient;
    }
}


// ************************************************************************* //
