/*--------------------------------*- C++ -*----------------------------------*\
  =========                 |
  \\      /  F ield         | OpenFOAM: The Open Source CFD Toolbox
   \\    /   O peration     | Website:  https://openfoam.org
    \\  /    A nd           | Version:  6
     \\/     M anipulation  |
\*---------------------------------------------------------------------------*/
FoamFile
{
    version     2.0;
    format      ascii;
    class       volScalarField;
    location    "300";
    object      epsilon;
}
// * * * * * * * * * * * * * * * * * * * * * * * * * * * * * * * * * * * * * //

dimensions      [0 2 -3 0 0 0 0];

internalField   nonuniform List<scalar> 
459
(
0.000571697
0.000750856
0.000818234
0.000950237
0.00108802
0.00123756
0.00141281
0.00157756
0.00170512
0.00175669
0.00169319
0.00145115
0.000978899
0.000587915
0.000349119
5.53594e-05
8.75064e-05
0.000131821
0.000155662
0.000152713
0.000138875
0.0001146
9.2194e-05
7.45941e-05
6.11123e-05
5.07184e-05
4.26111e-05
3.62102e-05
3.10796e-05
2.68313e-05
2.31549e-05
1.97757e-05
1.76718e-05
1.3561e-05
0.00132608
0.00188234
0.000690004
0.000676351
0.000711113
0.000782945
0.000903451
0.00104729
0.00117229
0.00122682
0.00117976
0.00103704
0.000779159
0.000565548
0.000401661
0.000611992
0.000304263
5.49057e-05
9.6385e-05
0.000132739
0.000138677
0.000130854
0.000119442
0.000117659
9.52618e-05
7.46094e-05
5.8423e-05
4.6128e-05
3.68355e-05
2.97802e-05
2.44013e-05
2.03538e-05
1.78225e-05
1.6739e-05
4.14752e-05
2.87593e-05
0.00229464
0.00430304
0.000770297
0.00061309
0.000644515
0.00073659
0.00088257
0.00105498
0.00119357
0.00125521
0.0012212
0.00109564
0.000882303
0.000681445
0.000505227
0.000444147
0.000544796
0.000154909
0.000179783
0.000176749
0.000165702
0.000149416
0.00014047
0.000291245
0.000195483
0.000135301
9.70003e-05
7.19523e-05
5.50679e-05
4.3382e-05
3.52079e-05
2.96153e-05
2.2483e-05
1.94346e-05
8.29863e-05
4.53902e-05
0.00356438
0.00867228
0.0010862
0.000586465
0.00060382
0.00072106
0.000919106
0.00113624
0.00128289
0.00134481
0.00131154
0.0011685
0.00094751
0.000736237
0.000574525
0.000473865
0.000462641
0.00076909
0.000521079
0.00035885
0.000271037
0.000218591
0.000182321
0.000167489
0.000417933
0.000316043
0.000253519
0.000210273
0.000176318
0.000149017
0.000125004
0.000102516
8.00604e-05
4.54512e-05
3.05078e-05
0.000161496
6.0567e-05
0.00525318
0.0154435
0.00196835
0.000615227
0.000568934
0.00072934
0.00107263
0.00134982
0.00149135
0.00153784
0.00147558
0.00128357
0.000998972
0.000726951
0.000537675
0.000434167
0.000406893
0.000447015
0.000389324
0.000329888
0.000282379
0.000240361
0.000201418
0.000170154
0.000163705
0.000151648
0.000140046
0.000127948
0.000114829
0.000101401
8.80318e-05
7.52493e-05
6.32343e-05
4.80029e-05
3.67065e-05
0.000110973
6.97981e-05
0.000109639
0.000184246
0.000260518
0.00757227
0.0232236
0.00432513
0.000945895
0.000636227
0.0008076
0.00147877
0.00174929
0.001845
0.00184321
0.00172689
0.00145619
0.00106985
0.000708764
0.000472194
0.000363246
0.000341347
0.000353622
0.000349499
0.000329019
0.000293664
0.000250488
0.000207345
0.000171747
0.00015086
0.000140657
0.000134213
0.000126951
0.000117107
0.000103965
8.92227e-05
7.48978e-05
6.21756e-05
5.07029e-05
4.48329e-05
7.48202e-05
7.53518e-05
8.82905e-05
0.000347525
0.000306425
0.0104175
0.0280199
0.00919857
0.00301761
0.00176281
0.00198706
0.00233481
0.00241666
0.00238127
0.00227895
0.00206427
0.00167249
0.00115044
0.000686837
0.000410063
0.000306534
0.000302597
0.000325389
0.000332704
0.000313812
0.000276362
0.000232473
0.000192124
0.00016224
0.000147085
0.00014304
0.00014327
0.00014372
0.000142377
0.000137098
0.00012383
0.000109113
9.53914e-05
8.38456e-05
8.17363e-05
0.000101588
0.000139204
0.000249871
0.000570451
0.000523236
0.0112213
0.0316786
0.0169271
0.00974363
0.00625201
0.00480381
0.0039713
0.00346773
0.00312776
0.00283736
0.00246059
0.00188656
0.00117876
0.000612181
0.000338721
0.000275772
0.000281604
0.000296271
0.000292498
0.000267679
0.000231589
0.000195869
0.000168087
0.000151719
0.000146919
0.000150764
0.00016001
0.000173315
0.000190583
0.000211509
0.000233356
0.000245828
0.000264051
0.000300925
0.000374731
0.000611012
0.00123305
0.00253411
0.00712721
0.00169298
0.0105781
0.0185688
0.0143848
0.0107951
0.00818966
0.00641199
0.005241
0.00446467
0.00389561
0.00340654
0.0028047
0.00194924
0.000977975
0.000457339
0.000295871
0.000259123
0.000256574
0.000253844
0.000239025
0.000214692
0.000187663
0.000164945
0.000150318
0.000144624
0.000146868
0.000155636
0.000170478
0.000192471
0.000224042
0.000268851
0.000331794
0.000419662
0.000542899
0.000728965
0.00099418
0.00133805
0.00170738
0.00199719
0.00220906
0.0012747
0.00426411
0.00571364
0.00626445
0.00623466
0.00581172
0.00509181
0.00430932
0.00357409
0.00259691
0.00131524
0.000626213
0.000366366
0.000284369
0.000260176
0.000251698
0.000243236
0.000229849
0.000212718
0.000195343
0.000181584
0.00017294
0.00016935
0.000170211
0.000175228
0.000184836
0.000200458
0.00022474
0.000261989
0.000317933
0.000399791
0.000516698
0.000678887
0.000885633
0.00110634
0.00126812
0.00128152
0.00106009
0.000679514
0.00351817
0.0112669
0.0105655
0.00878322
0.00658014
0.00433674
0.0025255
0.00151379
0.000901603
0.000560636
0.000416438
0.00035866
0.00033963
0.000334499
0.000332498
0.000329045
0.000322726
0.000313683
0.000302387
0.000289592
0.000277947
0.000268221
0.000260946
0.000257046
0.000257955
0.000265568
0.000282307
0.00031157
0.000358508
0.000429207
0.000531134
0.000671015
0.000847548
0.001052
0.00120224
0.00128569
0.000916608
0.000708041
0.00405385
0.00432748
0.00460023
0.00648042
0.00478695
0.00275857
0.00156339
0.00113522
0.00085355
0.000676105
0.000554016
0.000465102
0.00040548
0.000367325
0.000340435
0.000317262
0.000293728
0.000269138
0.000245461
0.0002255
0.000211314
0.000203125
0.000199131
0.000198926
0.000202367
0.000209691
0.00022152
0.000238942
0.000263811
0.000298141
0.000343108
0.000401457
0.000476556
0.000572728
0.000693955
0.000886755
0.000935612
0.000857941
0.000694829
0.000540266
)
;

boundaryField
{
    floor
    {
        Cmu             0.09;
        kappa           0.41;
        E               9.8;
        type            epsilonWallFunction;
        value           nonuniform List<scalar> 
29
(
0.000349119
5.53594e-05
8.75064e-05
0.000131821
0.000155662
0.000152713
0.000138875
0.0001146
9.2194e-05
7.45941e-05
6.11123e-05
5.07184e-05
4.26111e-05
3.62102e-05
3.10796e-05
2.68313e-05
2.31549e-05
1.97757e-05
1.76718e-05
1.3561e-05
1.3561e-05
2.87593e-05
4.53902e-05
6.0567e-05
0.000349119
5.53594e-05
5.49057e-05
0.000154909
0.00076909
)
;
    }
    ceiling
    {
        Cmu             0.09;
        kappa           0.41;
        E               9.8;
        type            epsilonWallFunction;
        value           nonuniform List<scalar> 
43
(
0.00405385
0.00432748
0.00460023
0.00648042
0.00478695
0.00275857
0.00156339
0.00113522
0.00085355
0.000676105
0.000554016
0.000465102
0.00040548
0.000367325
0.000340435
0.000317262
0.000293728
0.000269138
0.000245461
0.0002255
0.000211314
0.000203125
0.000199131
0.000198926
0.000202367
0.000209691
0.00022152
0.000238942
0.000263811
0.000298141
0.000343108
0.000401457
0.000476556
0.000572728
0.000693955
0.000886755
0.000935612
0.000857941
0.000694829
0.000540266
0.0105781
0.0185688
0.00351817
)
;
    }
    sWall
    {
        Cmu             0.09;
        kappa           0.41;
        E               9.8;
        type            epsilonWallFunction;
        value           uniform 0.00405385;
    }
    nWall
    {
        Cmu             0.09;
        kappa           0.41;
        E               9.8;
        type            epsilonWallFunction;
        value           nonuniform List<scalar> 6(0.000260518 0.000306425 0.000523236 0.000679514 0.000708041 0.000540266);
    }
    sideWalls
    {
        type            empty;
    }
    glass1
    {
        Cmu             0.09;
        kappa           0.41;
        E               9.8;
        type            epsilonWallFunction;
        value           nonuniform List<scalar> 9(0.000571697 0.00132608 0.00229464 0.00356438 0.00525318 0.00757227 0.0104175 0.0112213 0.0105781);
    }
    glass2
    {
        Cmu             0.09;
        kappa           0.41;
        E               9.8;
        type            epsilonWallFunction;
        value           nonuniform List<scalar> 2(0.00169298 0.0012747);
    }
    sun
    {
        Cmu             0.09;
        kappa           0.41;
        E               9.8;
        type            epsilonWallFunction;
        value           nonuniform List<scalar> 
14
(
0.000571697
0.000750856
0.000818234
0.000950237
0.00108802
0.00123756
0.00141281
0.00157756
0.00170512
0.00175669
0.00169319
0.00145115
0.000978899
0.000587915
)
;
    }
    heatsource1
    {
        Cmu             0.09;
        kappa           0.41;
        E               9.8;
        type            epsilonWallFunction;
        value           nonuniform List<scalar> 3(0.000109639 0.000184246 0.000260518);
    }
    heatsource2
    {
        Cmu             0.09;
        kappa           0.41;
        E               9.8;
        type            epsilonWallFunction;
        value           nonuniform List<scalar> 4(0.000611992 0.000304263 0.000304263 0.000544796);
    }
    Table_master
    {
        Cmu             0.09;
        kappa           0.41;
        E               9.8;
        type            epsilonWallFunction;
        value           nonuniform List<scalar> 9(0.000291245 0.000195483 0.000135301 9.70003e-05 7.19523e-05 5.50679e-05 4.3382e-05 3.52079e-05 2.96153e-05);
    }
    Table_slave
    {
        Cmu             0.09;
        kappa           0.41;
        E               9.8;
        type            epsilonWallFunction;
        value           nonuniform List<scalar> 9(0.000417933 0.000316043 0.000253519 0.000210273 0.000176318 0.000149017 0.000125004 0.000102516 8.00604e-05);
    }
    inlet
    {
        type            turbulentMixingLengthDissipationRateInlet;
        mixingLength    0.01;
        phi             phi;
        k               k;
        value           uniform 0.000471671;
    }
    outlet
    {
        type            zeroGradient;
    }
}


// ************************************************************************* //
