/*--------------------------------*- C++ -*----------------------------------*\
  =========                 |
  \\      /  F ield         | OpenFOAM: The Open Source CFD Toolbox
   \\    /   O peration     | Website:  https://openfoam.org
    \\  /    A nd           | Version:  6
     \\/     M anipulation  |
\*---------------------------------------------------------------------------*/
FoamFile
{
    version     2.0;
    format      ascii;
    class       volScalarField;
    location    "620";
    object      nut;
}
// * * * * * * * * * * * * * * * * * * * * * * * * * * * * * * * * * * * * * //

dimensions      [0 2 -1 0 0 0 0];

internalField   nonuniform List<scalar> 
459
(
0.000845781
0.000923577
0.000946751
0.000993581
0.00103673
0.00107753
0.00111823
0.00115997
0.00119472
0.00121802
0.00122417
0.00120725
0.0011607
0.0010711
0.000837184
0.00050528
0.000699165
0.000678473
0.00065877
0.000638988
0.000615532
0.000582299
0.00054756
0.000515334
0.000486278
0.00046032
0.000437105
0.000416072
0.000396638
0.000378087
0.000359355
0.000339308
0.000307701
0.00029493
0.00113517
0.00260746
0.00242065
0.00277879
0.00314763
0.00353219
0.00388508
0.00416057
0.00444967
0.00473489
0.00498572
0.00516442
0.00521902
0.00505618
0.0042194
0.000959851
0.000661001
0.000724201
0.00206351
0.00198972
0.00215538
0.00227758
0.00223238
0.00172542
0.0014796
0.00131043
0.00118227
0.00107959
0.000989857
0.000908724
0.000831465
0.000756296
0.000692434
0.00067285
0.000577011
0.000376014
0.00137904
0.00349961
0.00295852
0.00359352
0.00388507
0.00409902
0.00426743
0.00441944
0.00464003
0.00493073
0.00527698
0.00564425
0.00596489
0.00614522
0.00583472
0.00440891
0.000982555
0.000886112
0.00165881
0.0022498
0.00269592
0.00296727
0.00278855
0.000796034
0.000702724
0.000628095
0.000568385
0.000520181
0.000481023
0.00044906
0.000423258
0.0004037
0.000454789
0.000570111
0.000638051
0.000412869
0.00161399
0.0043962
0.00288904
0.00372769
0.00387636
0.00386213
0.00384346
0.0039015
0.00407217
0.00436212
0.00477016
0.00526517
0.0057538
0.00616293
0.00626434
0.00578553
0.00364646
0.00117385
0.00165193
0.00228858
0.00296043
0.00350088
0.00380573
0.00348496
0.000878227
0.000805706
0.000758813
0.000726998
0.000702785
0.00068012
0.000654351
0.00062759
0.000595516
0.000568121
0.000591921
0.000725257
0.000467382
0.00185459
0.00558487
0.00295766
0.00353864
0.00371358
0.00356294
0.00343479
0.0034667
0.00362882
0.00392106
0.00436182
0.00492197
0.00545041
0.00584867
0.0060574
0.00601186
0.00557649
0.0048451
0.00474718
0.00484757
0.00496823
0.00503308
0.00500333
0.00477898
0.00401861
0.00370417
0.00355723
0.00347087
0.00339375
0.0032907
0.00311233
0.00277193
0.00230515
0.00178061
0.00134255
0.00116168
0.000803522
0.000541932
0.000541372
0.000533039
0.00211186
0.00695032
0.00387116
0.00324211
0.00353053
0.00346298
0.0032953
0.00330455
0.00345853
0.00374862
0.00420621
0.00477201
0.00530548
0.00567889
0.00585529
0.00589696
0.00589558
0.00591518
0.00599044
0.00601059
0.00593776
0.00577969
0.00556
0.00529645
0.00499759
0.00479374
0.0046621
0.00456667
0.00448047
0.00437537
0.00421728
0.00394247
0.00352255
0.00297379
0.00238631
0.00193796
0.00149626
0.00115966
0.00127476
0.000697434
0.00237001
0.00804208
0.00574491
0.00373517
0.00334211
0.00343172
0.00341787
0.00340629
0.00349119
0.00375945
0.00423444
0.00483554
0.0053947
0.00576329
0.00591466
0.0059701
0.00608892
0.00627488
0.00637575
0.00630677
0.00609805
0.0058083
0.00549489
0.00520815
0.00498567
0.00484223
0.00474968
0.00468371
0.00462667
0.0045532
0.00443438
0.00426039
0.00400784
0.00362553
0.00315071
0.00268055
0.00220373
0.00177684
0.00166468
0.000833651
0.00244301
0.00778864
0.00641469
0.00523136
0.0044433
0.00414479
0.00382011
0.0035922
0.00360527
0.00390211
0.00444692
0.00511316
0.00569995
0.00605663
0.0061836
0.00622704
0.00629143
0.00633041
0.00623846
0.00601759
0.00572659
0.00542194
0.00514799
0.00493006
0.00477177
0.00465713
0.0045649
0.00448584
0.00441523
0.00433397
0.00421312
0.00406499
0.00395013
0.00381607
0.00355621
0.00327266
0.00296454
0.00248415
0.00263936
0.00107931
0.00240047
0.0029029
0.0032127
0.00333271
0.00330974
0.00323187
0.00319502
0.00329048
0.00360916
0.00416637
0.0048878
0.0056309
0.0061879
0.00645189
0.00647745
0.00639387
0.00621227
0.00601493
0.00580353
0.00557924
0.0053603
0.00516413
0.00499864
0.00485945
0.0047327
0.00460145
0.00445405
0.00429024
0.00411565
0.00391937
0.00365715
0.00331536
0.00296695
0.00268376
0.00245261
0.00224141
0.00205487
0.0018947
0.00178434
0.00113126
0.00124632
0.00200029
0.0025116
0.00286008
0.00321919
0.00375243
0.00439634
0.00509852
0.00580391
0.00642021
0.00672643
0.00668682
0.00645165
0.00622389
0.00605251
0.00592222
0.00580774
0.00569612
0.00558585
0.00548111
0.0053827
0.00528306
0.00516757
0.00501744
0.00481394
0.0045446
0.0042113
0.00383548
0.00344589
0.00305078
0.00269715
0.00242312
0.00223199
0.00210462
0.00200322
0.00189126
0.0017876
0.00124825
0.00147424
0.00251837
0.00322218
0.00389819
0.00472472
0.00534953
0.00583853
0.00635272
0.00689644
0.00738709
0.00747281
0.00720914
0.00684939
0.00659685
0.00646794
0.00641346
0.00638531
0.00635048
0.00629088
0.00622569
0.00617038
0.00612684
0.00608807
0.00603619
0.00594113
0.00576483
0.00547382
0.00505857
0.00457069
0.00405458
0.00355925
0.00312333
0.00277052
0.00250452
0.00230083
0.00215255
0.00279872
0.00138073
0.00137149
0.00144446
0.00150636
0.00165212
0.001633
0.00156439
0.00150801
0.00151807
0.00157706
0.00163314
0.00166898
0.00166926
0.00163254
0.00158691
0.00155229
0.00152931
0.00151594
0.00150744
0.00150038
0.0014937
0.00148936
0.00148677
0.00148508
0.00148306
0.00147826
0.00146721
0.00144632
0.00141353
0.00137073
0.00132572
0.00128145
0.00124226
0.00121074
0.00118869
0.00117725
0.00117517
0.00117586
0.00116439
0.00116618
0.00113411
)
;

boundaryField
{
    floor
    {
        type            nutkWallFunction;
        Cmu             0.09;
        kappa           0.41;
        E               9.8;
        value           nonuniform List<scalar> 
29
(
0.00010137
6.03941e-05
8.46244e-05
8.20814e-05
7.96514e-05
7.72028e-05
7.42876e-05
7.01339e-05
6.57611e-05
6.16743e-05
5.79623e-05
5.46231e-05
5.16167e-05
4.88757e-05
4.63274e-05
4.38802e-05
4.13936e-05
3.8714e-05
3.44471e-05
3.27083e-05
3.27082e-05
4.36059e-05
4.84563e-05
5.55331e-05
0.00010137
6.03941e-05
8.76899e-05
0.000107229
0.000140986
)
;
    }
    ceiling
    {
        type            nutkWallFunction;
        Cmu             0.09;
        kappa           0.41;
        E               9.8;
        value           nonuniform List<scalar> 
43
(
0.000163589
0.000171846
0.000178815
0.000195116
0.000192994
0.000185341
0.000179025
0.000180161
0.000186775
0.000193037
0.000197026
0.000197059
0.000192975
0.000187885
0.000184012
0.000181437
0.000179936
0.000178981
0.000178187
0.000177436
0.000176948
0.000176656
0.000176466
0.000176239
0.000175699
0.000174454
0.000172097
0.000168391
0.000163539
0.000158418
0.000153363
0.000148871
0.000145246
0.000142705
0.000141384
0.000141144
0.000141223
0.000139898
0.000140105
0.000136391
0.00027671
0.000329877
0.00017519
)
;
    }
    sWall
    {
        type            nutkWallFunction;
        Cmu             0.09;
        kappa           0.41;
        E               9.8;
        value           uniform 0.000163619;
    }
    nWall
    {
        type            nutkWallFunction;
        Cmu             0.09;
        kappa           0.41;
        E               9.8;
        value           nonuniform List<scalar> 6(6.39081e-05 8.44078e-05 0.000100951 0.000149571 0.00016469 0.000136401);
    }
    sideWalls
    {
        type            empty;
    }
    glass1
    {
        type            nutkWallFunction;
        Cmu             0.09;
        kappa           0.41;
        E               9.8;
        value           nonuniform List<scalar> 9(0.00010242 0.000136586 0.000164595 0.000191059 0.000217722 0.000245821 0.00027365 0.000281464 0.000276922);
    }
    glass2
    {
        type            nutkWallFunction;
        Cmu             0.09;
        kappa           0.41;
        E               9.8;
        value           nonuniform List<scalar> 2(0.000130042 0.00013609);
    }
    sun
    {
        type            nutkWallFunction;
        Cmu             0.09;
        kappa           0.41;
        E               9.8;
        value           nonuniform List<scalar> 
14
(
0.000102405
0.000111689
0.000114437
0.000119966
0.000125034
0.000129804
0.000134543
0.000139382
0.000143395
0.000146078
0.000146786
0.000144839
0.000139465
0.000129053
)
;
    }
    heatsource1
    {
        type            nutkWallFunction;
        Cmu             0.09;
        kappa           0.41;
        E               9.8;
        value           nonuniform List<scalar> 3(6.5043e-05 6.49721e-05 6.3916e-05);
    }
    heatsource2
    {
        type            nutkWallFunction;
        Cmu             0.09;
        kappa           0.41;
        E               9.8;
        value           nonuniform List<scalar> 4(0.000115989 7.99259e-05 7.99258e-05 0.00011867);
    }
    Table_master
    {
        type            nutkWallFunction;
        Cmu             0.09;
        kappa           0.41;
        E               9.8;
        value           nonuniform List<scalar> 9(9.64166e-05 8.50596e-05 7.58469e-05 6.83807e-05 6.22835e-05 5.72792e-05 5.31569e-05 4.98023e-05 4.72425e-05);
    }
    Table_slave
    {
        type            nutkWallFunction;
        Cmu             0.09;
        kappa           0.41;
        E               9.8;
        value           nonuniform List<scalar> 9(0.000106291 9.75845e-05 9.19061e-05 8.803e-05 8.50666e-05 8.22816e-05 7.91016e-05 7.57833e-05 7.17835e-05);
    }
    inlet
    {
        type            calculated;
        value           uniform 0.000100623;
    }
    outlet
    {
        type            calculated;
        value           nonuniform List<scalar> 2(0.00137149 0.00144446);
    }
}


// ************************************************************************* //
