/*--------------------------------*- C++ -*----------------------------------*\
  =========                 |
  \\      /  F ield         | OpenFOAM: The Open Source CFD Toolbox
   \\    /   O peration     | Website:  https://openfoam.org
    \\  /    A nd           | Version:  6
     \\/     M anipulation  |
\*---------------------------------------------------------------------------*/
FoamFile
{
    version     2.0;
    format      ascii;
    class       volScalarField;
    location    "900";
    object      alphat;
}
// * * * * * * * * * * * * * * * * * * * * * * * * * * * * * * * * * * * * * //

dimensions      [1 -1 -1 0 0 0 0];

internalField   nonuniform List<scalar> 
459
(
0.00164097
0.00183698
0.00191943
0.00204367
0.00218308
0.002302
0.00237634
0.00239341
0.00227497
0.00214581
0.0020043
0.00185146
0.00170568
0.00155956
0.00139439
0.000744363
0.000883651
0.00103309
0.00114565
0.00119528
0.00118636
0.0011212
0.0010468
0.000979596
0.000921233
0.000870539
0.000826166
0.000786614
0.000750561
0.000716588
0.000682443
0.000644958
0.000598992
0.000531888
0.00209797
0.00584711
0.00599157
0.00690147
0.00758993
0.00811204
0.00849464
0.0088052
0.00886498
0.00850627
0.00792801
0.00720018
0.00606396
0.00464401
0.00307113
0.00151232
0.00129963
0.000713033
0.00150915
0.00292323
0.003885
0.00456666
0.00460071
0.00315123
0.00259212
0.00222705
0.00196411
0.00177001
0.00162805
0.00152839
0.00143686
0.00131274
0.00118091
0.00106336
0.00097547
0.000564454
0.0024782
0.00816027
0.00763689
0.00826026
0.00851642
0.00862405
0.00880287
0.00925347
0.00964158
0.00966195
0.00937212
0.00887922
0.00807997
0.00682436
0.00516119
0.00327922
0.0014077
0.000718087
0.0016948
0.00291542
0.00438213
0.00551705
0.00545543
0.0014731
0.00129238
0.00113762
0.00100752
0.000898155
0.000806546
0.000731341
0.000675565
0.000642258
0.000745625
0.000880001
0.00100848
0.000574665
0.00284272
0.0102038
0.00857077
0.00890606
0.00865298
0.00827271
0.00828078
0.00882582
0.00938609
0.00962474
0.00951488
0.00919244
0.00868735
0.00784573
0.0065638
0.00484708
0.00265315
0.0014762
0.00152767
0.00239725
0.00400664
0.00578225
0.00706987
0.00684769
0.00166185
0.00151289
0.00139411
0.0012966
0.00120853
0.00112319
0.00103631
0.000944364
0.000840592
0.000741735
0.000789478
0.000995116
0.000579872
0.00320988
0.0125693
0.0102057
0.00997001
0.00898001
0.00805901
0.00801605
0.00860984
0.00927816
0.00960644
0.00953681
0.00924288
0.00886139
0.00834334
0.00753405
0.00637395
0.00494666
0.00449284
0.00510876
0.00635417
0.00782209
0.0090569
0.00976791
0.00969343
0.00806737
0.00704832
0.00634131
0.00559612
0.00481568
0.00401226
0.00319687
0.00238586
0.00160475
0.00101309
0.000839711
0.000966111
0.000646551
0.000561167
0.000627079
0.000724759
0.00358089
0.014993
0.0130931
0.0112945
0.00916361
0.00798737
0.00796281
0.00866808
0.00944402
0.00981874
0.00974505
0.00947977
0.00927697
0.00909923
0.00877682
0.00830337
0.00786675
0.00825199
0.00947061
0.0106641
0.0115661
0.0120222
0.0119962
0.0114932
0.0105093
0.00946277
0.00835022
0.00719114
0.00600635
0.0048214
0.00366644
0.00258946
0.00166193
0.00105536
0.000911676
0.000990321
0.000779793
0.00071197
0.000990536
0.000747375
0.00383277
0.0160607
0.015093
0.0113762
0.00877218
0.00772018
0.00797982
0.00894022
0.00985806
0.0102625
0.0102427
0.0102634
0.0105715
0.0107049
0.010712
0.010762
0.011061
0.0119203
0.0129755
0.013615
0.0138089
0.0135618
0.0129298
0.0119957
0.0108272
0.00955669
0.00824833
0.006932
0.00563484
0.00440264
0.00329284
0.0023619
0.0016507
0.00122006
0.00113229
0.00119554
0.00108244
0.00107647
0.00100844
0.000824838
0.00384375
0.0123944
0.0110186
0.00858172
0.0071677
0.0071182
0.00810804
0.00948206
0.010507
0.0108963
0.0112398
0.0118839
0.0122377
0.0123851
0.0125578
0.012879
0.0134054
0.0141055
0.0146254
0.0146719
0.0142542
0.0134451
0.0123457
0.0110577
0.00969675
0.0083537
0.00704803
0.00580049
0.00465099
0.00364805
0.0028285
0.00220388
0.00176438
0.00151088
0.00146004
0.00159058
0.00169555
0.00178101
0.00253287
0.00105673
0.0037074
0.0042424
0.00442704
0.00442402
0.00517896
0.00685609
0.00888149
0.0105067
0.0112373
0.011806
0.0123743
0.0128276
0.0129653
0.0130882
0.013329
0.0136741
0.0140461
0.0142925
0.0142139
0.0137129
0.0128245
0.0116458
0.0103029
0.00892984
0.00761818
0.00640588
0.00528799
0.00426645
0.00335896
0.00258733
0.00197679
0.00155887
0.00134265
0.00128832
0.00133088
0.00141836
0.00149754
0.00151784
0.00147806
0.00113421
0.000911982
0.00364982
0.00774648
0.0104951
0.0118241
0.0120768
0.0117518
0.0119018
0.0120774
0.0120826
0.0121024
0.012229
0.012418
0.0125743
0.0125811
0.0123149
0.0117066
0.0107841
0.00965741
0.00846372
0.00732302
0.00630838
0.00543486
0.00468045
0.00401934
0.00343936
0.00293703
0.00250996
0.00215551
0.00187435
0.00167426
0.00156531
0.00154258
0.00157584
0.0016182
0.00163039
0.00154449
0.00125306
0.00271854
0.0109599
0.0118874
0.0116128
0.0108383
0.0101212
0.00962472
0.00930294
0.00908164
0.00898721
0.00900857
0.00908886
0.00916045
0.00915324
0.00899927
0.00865191
0.0081193
0.00746997
0.00679863
0.00618097
0.00565157
0.00520975
0.00483793
0.00451659
0.00423013
0.00396653
0.00371496
0.00346535
0.00321048
0.00294884
0.00268627
0.00243571
0.00221435
0.00203463
0.00188552
0.00186174
0.00236864
0.00135252
0.00152785
0.00211728
0.00257836
0.00275311
0.00239196
0.00217756
0.00201398
0.00187669
0.00178354
0.00173154
0.00170675
0.00169799
0.00169691
0.00169696
0.00169277
0.00167994
0.0016556
0.00161955
0.00157512
0.00152791
0.00148331
0.00144445
0.00141187
0.00138446
0.00136043
0.00133804
0.00131592
0.00129313
0.00126906
0.0012436
0.00121717
0.00119089
0.00116665
0.00114697
0.00113405
0.00112746
0.00111771
0.00110853
0.00111463
0.00112874
)
;

boundaryField
{
    floor
    {
        type            compressible::alphatWallFunction;
        Prt             0.85;
        value           nonuniform List<scalar> 
29
(
0.000196722
0.000105724
0.000125818
0.000146964
0.000162655
0.000169522
0.000168292
0.000159267
0.000148887
0.000139439
0.000131173
0.000123944
0.000117574
0.000111863
0.000106627
0.000101665
9.66484e-05
9.11065e-05
8.42573e-05
7.41415e-05
7.41406e-05
7.9077e-05
8.06196e-05
8.14037e-05
0.00019672
0.000105723
0.000101145
0.000101881
0.000207765
)
;
    }
    ceiling
    {
        type            compressible::alphatWallFunction;
        Prt             0.85;
        value           nonuniform List<scalar> 
43
(
0.000215878
0.000292955
0.000351504
0.000373663
0.000327893
0.000300367
0.000279166
0.000261231
0.000248983
0.000242118
0.000238838
0.000237682
0.000237542
0.000237552
0.000236998
0.000235299
0.000232068
0.000227271
0.000221339
0.000215017
0.000209024
0.000203784
0.00019938
0.000195666
0.000192402
0.000189355
0.000186341
0.000183227
0.000179932
0.000176437
0.0001728
0.000169174
0.000165819
0.000163086
0.000161286
0.000160362
0.000158999
0.000157727
0.00015859
0.000160564
0.000491925
0.000556774
0.000368902
)
;
    }
    sWall
    {
        type            compressible::alphatWallFunction;
        Prt             0.85;
        value           uniform 0.000215334;
    }
    nWall
    {
        type            compressible::alphatWallFunction;
        Prt             0.85;
        value           nonuniform List<scalar> 6(0.000102745 0.00010603 0.000117239 0.000177418 0.000191009 0.000160287);
    }
    sideWalls
    {
        type            empty;
    }
    glass1
    {
        type            compressible::alphatWallFunction;
        Prt             0.85;
        value           nonuniform List<scalar> 9(0.000224414 0.000283672 0.000332026 0.000377727 0.000423203 0.000468657 0.000499307 0.000500795 0.000484532);
    }
    glass2
    {
        type            compressible::alphatWallFunction;
        Prt             0.85;
        value           nonuniform List<scalar> 2(0.000149118 0.000160237);
    }
    sun
    {
        type            compressible::alphatWallFunction;
        Prt             0.85;
        value           nonuniform List<scalar> 
14
(
0.000229839
0.000255755
0.000266571
0.000282775
0.000300833
0.000316137
0.000325658
0.000327834
0.000312662
0.000296018
0.000277657
0.000257667
0.000238432
0.00021897
)
;
    }
    heatsource1
    {
        type            compressible::alphatWallFunction;
        Prt             0.85;
        value           nonuniform List<scalar> 3(7.8636e-05 8.85071e-05 0.000102935);
    }
    heatsource2
    {
        type            compressible::alphatWallFunction;
        Prt             0.85;
        value           nonuniform List<scalar> 4(0.000212786 0.000183973 0.000183971 0.000198668);
    }
    Table_master
    {
        type            compressible::alphatWallFunction;
        Prt             0.85;
        value           nonuniform List<scalar> 9(0.000207482 0.000182954 0.000161635 0.000143456 0.000127962 0.000114814 0.00010389 9.57065e-05 9.07811e-05);
    }
    Table_slave
    {
        type            compressible::alphatWallFunction;
        Prt             0.85;
        value           nonuniform List<scalar> 9(0.000232753 0.000212849 0.00019682 0.000183545 0.000171458 0.000159647 0.000147515 0.000134544 0.000119724);
    }
    inlet
    {
        type            fixedValue;
        value           uniform 1.94e-05;
    }
    outlet
    {
        type            zeroGradient;
    }
}


// ************************************************************************* //
