/*--------------------------------*- C++ -*----------------------------------*\
  =========                 |
  \\      /  F ield         | OpenFOAM: The Open Source CFD Toolbox
   \\    /   O peration     | Website:  https://openfoam.org
    \\  /    A nd           | Version:  6
     \\/     M anipulation  |
\*---------------------------------------------------------------------------*/
FoamFile
{
    version     2.0;
    format      ascii;
    class       surfaceScalarField;
    location    "900";
    object      phi;
}
// * * * * * * * * * * * * * * * * * * * * * * * * * * * * * * * * * * * * * //

dimensions      [1 0 -1 0 0 0 0];

internalField   nonuniform List<scalar> 
852
(
-0.00293734
0.00299352
-0.00397817
0.00104083
-0.0047683
0.000790133
-0.00538564
0.000617334
-0.00580102
0.000415384
-0.00599187
0.000190844
-0.00593642
-5.54495e-05
-0.00561745
-0.000318971
-0.00504783
-0.000569622
-0.00427996
-0.000767879
-0.00339488
-0.000885073
-0.00248153
-0.000913359
-0.00161485
-0.000866681
-0.000817566
-0.000797284
-0.000816137
-0.000676262
0.000678922
-0.000346812
-0.000329452
0.000261807
-0.00060862
0.000736821
-0.000475016
0.00105237
-0.000315549
0.00124863
-0.000196265
0.0013554
-0.000106771
0.00140853
-5.3129e-05
0.00143859
-3.00653e-05
0.00145703
-1.84437e-05
0.00146736
-1.0333e-05
0.00147068
-3.31594e-06
0.00146499
5.68569e-06
0.00144184
2.31544e-05
0.00137862
6.3216e-05
0.00123732
0.000141291
0.00100284
0.00023448
0.000707854
0.000294987
0.00071143
-0.00209512
0.00523992
-0.00310115
0.00204686
-0.00390735
0.00159633
-0.00451115
0.00122113
-0.0049166
0.000820832
-0.00511003
0.000384271
-0.00506625
-9.92309e-05
-0.00477115
-0.000614072
-0.00424871
-0.00109206
-0.00356072
-0.00145587
-0.00278968
-0.00165612
-0.00201599
-0.00168705
-0.0013118
-0.00157088
-0.000764642
-0.00134444
-0.000560975
-0.00101981
-7.18451e-05
-0.000489183
-7.18984e-05
0.000374725
0.000311776
0.000801544
-0.000756273
0.00105245
-0.000859527
0.00126251
-0.000685082
0.00141866
-0.000471694
0.00150996
-0.000287569
0.00152411
-0.000120927
0.00152797
-5.69841e-05
0.00153259
-3.46868e-05
0.00153645
-2.23086e-05
0.00153904
-1.29224e-05
0.00154032
-4.60174e-06
0.00153942
6.58057e-06
0.00153275
2.98267e-05
0.00149143
0.000104534
0.00131608
0.000316637
0.00101277
0.000537793
0.000629433
0.000678319
0.00135009
-0.00146597
0.00693727
-0.00232916
0.00291005
-0.00303755
0.00230471
-0.00354825
0.00173183
-0.00389676
0.00116934
-0.00406491
0.00055242
-0.00400789
-0.000156251
-0.00370437
-0.000917588
-0.00320021
-0.00159623
-0.00257141
-0.00208466
-0.00189999
-0.00232755
-0.00124961
-0.00233743
-0.000670896
-0.00214959
-0.000214553
-0.00180079
8.88972e-05
-0.00132326
0.000286307
-0.000686595
0.000214407
0.00148682
-0.00116709
0.00170139
-0.000970846
0.00168166
-0.000839799
0.00168278
-0.000686197
0.00170467
-0.000493587
0.00171625
-0.000299157
0.00159548
0.00153865
0.00150411
0.00148195
0.00146918
0.00146473
0.00147146
0.00150144
0.00160613
0.00132602
0.000596739
0.000985126
0.000878689
0.000550661
0.00111278
0.00191483
-0.00102353
0.00826041
-0.00170472
0.00359123
-0.00216553
0.00276552
-0.00249192
0.00205822
-0.00271387
0.00139128
-0.00279884
0.000637395
-0.00267202
-0.000283075
-0.00232292
-0.00126669
-0.001836
-0.00208315
-0.00129418
-0.00262649
-0.000764656
-0.00285707
-0.000282147
-0.00281994
0.000135652
-0.00256739
0.000483844
-0.00214898
0.000790296
-0.00162971
0.0011583
-0.0010546
0.00192189
-0.000549192
0.00245351
-0.000524403
0.00205361
-0.000767184
0.00192603
-0.000843267
0.00181507
-0.000728849
0.00172065
-0.00059178
0.00166911
-0.000442046
0.00164782
-0.000277862
0.00176143
-0.000113765
0.0018328
-7.15256e-05
0.00189017
-5.75296e-05
0.00193408
-4.4061e-05
0.0019508
-1.68701e-05
0.00191956
3.10818e-05
0.00181588
0.000103522
0.00160753
0.0002082
0.0012404
0.000366973
0.00111115
0.000725988
0.000826515
0.00116332
0.000391647
0.00154765
0.00232496
-0.000717505
0.00933545
-0.00123281
0.00410654
-0.00131876
0.00285147
-0.00136931
0.00210876
-0.00138829
0.00141027
-0.00129443
0.000543529
-0.00100871
-0.000568798
-0.000596729
-0.00167868
-0.000164108
-0.00251577
0.000223375
-0.00301398
0.000540019
-0.00317372
0.000783847
-0.00306377
0.000968432
-0.00275198
0.00112178
-0.00230233
0.00127486
-0.0017828
0.00147914
-0.00125888
0.0017652
-0.000835257
0.00190228
-0.00066148
0.00180464
-0.000669544
0.00162951
-0.00066814
0.00148182
-0.000581162
0.00136115
-0.000471112
0.00127839
-0.000359288
0.00124656
-0.000246033
0.001287
-0.00015421
0.00133352
-0.000118046
0.00138481
-0.00010882
0.00143755
-9.6802e-05
0.00148133
-6.06475e-05
0.00149686
1.55439e-05
0.00146393
0.000136452
0.00137059
0.000301538
0.00121733
0.000520236
0.00108426
0.000859051
0.000941939
0.00130565
0.000626211
0.00186337
0.000558265
0.0023929
-0.000966793
0.00152485
-0.00143007
0.000463076
-0.00138321
-0.000626098
0.0103679
-0.000978081
0.00445852
-0.000549782
0.00242317
-0.00018164
0.00174062
0.000102699
0.00112592
0.00049987
0.000146357
0.00100396
-0.00107289
0.00142536
-0.00210007
0.00170943
-0.00279984
0.00185356
-0.00315811
0.0018887
-0.00320887
0.00184291
-0.00301799
0.00174689
-0.00265596
0.00163682
-0.00219226
0.00154586
-0.00169183
0.00149951
-0.00121253
0.00149169
-0.000827434
0.00143751
-0.0006073
0.00129336
-0.000525402
0.00110285
-0.000477629
0.000935049
-0.000413361
0.000806975
-0.000343039
0.000724647
-0.000276961
0.000695563
-0.00021695
0.000716841
-0.000175489
0.000764157
-0.000165363
0.00082666
-0.000171324
0.000899742
-0.000169885
0.000977922
-0.000138829
0.00104918
-5.57131e-05
0.00109611
8.9523e-05
0.00111481
0.000282835
0.00111305
0.000521997
0.00113807
0.000834029
0.00123746
0.00120626
0.0014244
0.00167643
0.00186734
0.00194996
0.00212789
0.0012643
0.00173877
0.000852194
0.00041199
-0.000679588
0.0114982
-0.000556747
0.00433568
0.000582395
0.00128402
0.00138385
0.000939159
0.00207931
0.000430462
0.00278814
-0.00056247
0.00332973
-0.00161449
0.00361215
-0.0023825
0.00364182
-0.00282951
0.00346486
-0.00298115
0.00314395
-0.00288796
0.0027402
-0.00261423
0.00230696
-0.00222272
0.00189094
-0.00177624
0.00152744
-0.00132834
0.0012323
-0.000917398
0.00100383
-0.000598958
0.000806266
-0.00040974
0.000606887
-0.000326025
0.000416952
-0.000287695
0.000261503
-0.000257913
0.000150355
-0.000231893
8.46753e-05
-0.000211282
6.48347e-05
-0.000197111
8.43373e-05
-0.000194993
0.000128229
-0.000209255
0.000187108
-0.000230205
0.000259913
-0.000242691
0.000350742
-0.000229659
0.000464474
-0.000169446
0.000588639
-3.46432e-05
0.000713015
0.000158458
0.000848866
0.000386145
0.00103379
0.000649102
0.00131601
0.000924036
0.00175664
0.0012358
0.00242273
0.00128387
0.00296312
0.000723902
0.0029866
0.000828709
0.00345968
0.00259715
0.00940527
0.00330392
0.00362891
0.00371261
0.000875333
0.00441705
0.000234714
0.00524374
-0.000396227
0.00586877
-0.0011875
0.00608193
-0.00182765
0.00591569
-0.00221626
0.00544807
-0.0023619
0.00477172
-0.0023048
0.00398211
-0.00209835
0.00316296
-0.00179509
0.00237582
-0.00143558
0.00166943
-0.00106986
0.00107629
-0.00073519
0.000602379
-0.000443493
0.000253189
-0.000249769
-3.62963e-07
-0.00015619
-0.000195309
-0.000131081
-0.000348487
-0.000134518
-0.000464535
-0.000141867
-0.000545589
-0.00015084
-0.000595032
-0.00016184
-0.000616263
-0.000175881
-0.000615839
-0.000195418
-0.000603858
-0.000221238
-0.000586161
-0.000247902
-0.000561891
-0.000266963
-0.000522776
-0.000268775
-0.000450183
-0.00024204
-0.000315471
-0.000169356
-0.000134899
-2.21147e-05
7.74282e-05
0.000173816
0.000345845
0.000380684
0.000682091
0.000587789
0.00112711
0.000790784
0.00161914
0.000791844
0.00183071
0.000512323
0.00109073
0.00156869
0.00479907
0.00995828
0.0135791
0.0124568
0.00199758
0.0117564
0.000935107
0.0110995
0.000260702
0.0102123
-0.000300277
0.00906104
-0.000676413
0.00775083
-0.000906055
0.00637559
-0.000986659
0.00500912
-0.000938328
0.00371859
-0.000807823
0.002556
-0.000632508
0.00154299
-0.000422568
0.000703338
-0.000230211
4.33315e-05
-7.5184e-05
-0.000420356
2.01938e-05
-0.000705469
3.53432e-05
-0.000881824
2.01639e-05
-0.00100691
-5.99585e-06
-0.00110767
-3.37611e-05
-0.00119022
-5.93115e-05
-0.00125701
-8.40526e-05
-0.00131146
-0.000107397
-0.0013576
-0.000129738
-0.00140192
-0.000151102
-0.00145291
-0.000170245
-0.00151818
-0.000182638
-0.00160494
-0.000180205
-0.00172186
-0.000151855
-0.00187917
-8.47243e-05
-0.00208238
3.38543e-05
-0.00231839
0.000213888
-0.00261413
0.000469554
-0.00305099
0.000817545
-0.00371977
0.00125657
-0.00468762
0.00175863
-0.00607133
0.00217556
-0.00775437
0.00219536
-0.00728812
0.00110243
-0.00221403
0.00467307
0.00350418
0.00377177
0.0018364
0.00414457
-0.000112107
0.00415063
-0.000306333
0.00374575
-0.000271538
0.00311374
-0.000274046
0.00236197
-0.000234894
0.00155797
-0.000134321
0.000744351
5.79361e-06
-2.40585e-05
0.000135902
-0.000656898
0.000210271
-0.00110253
0.000215416
-0.0013844
0.000206689
-0.00154454
0.000180333
-0.00164573
0.000136532
-0.00171865
9.3079e-05
-0.00177972
5.50806e-05
-0.00183745
2.39671e-05
-0.00189646
-3.01844e-07
-0.00195845
-2.20709e-05
-0.00202402
-4.18247e-05
-0.00209494
-5.88176e-05
-0.00217434
-7.17045e-05
-0.00226511
-7.94724e-05
-0.0023682
-7.95491e-05
-0.0024826
-6.58114e-05
-0.00260448
-2.99747e-05
-0.002726
3.68012e-05
-0.00283525
0.000143095
-0.00292908
0.000307718
-0.00301502
0.000555499
-0.00309831
0.000900832
-0.00317451
0.00133276
-0.00319867
0.0017828
-0.00311938
0.00209627
-0.00275825
0.00183423
-0.00149678
-0.000159043
-0.00363905
-0.000529451
0.00409871
0.000305205
0.00100174
-8.57964e-05
0.000278892
-0.000474118
8.19878e-05
-0.000814145
6.84883e-05
-0.00117899
9.08024e-05
-0.00154482
0.000130935
-0.00185978
0.000180635
-0.00207937
0.000225389
-0.00220037
0.000256899
-0.00225452
0.000264418
-0.00227739
0.000238284
-0.00227383
0.000203136
-0.00226069
0.000167192
-0.0022567
0.000132543
-0.00226657
0.00010294
-0.00228987
7.83797e-05
-0.00232414
5.82416e-05
-0.00236607
4.16221e-05
-0.00241689
2.87552e-05
-0.00247564
1.69225e-05
-0.00254027
5.81353e-06
-0.00260801
-3.97204e-06
-0.00267619
-1.12858e-05
-0.00274113
-1.46178e-05
-0.00279596
-1.09798e-05
-0.00282994
4.00078e-06
-0.00283339
4.02489e-05
-0.00279603
0.000105738
-0.00269636
0.000208049
-0.00250333
0.000362461
-0.00219017
0.000587677
-0.00173737
0.000879962
-0.00111638
0.00116181
-0.000156931
0.00113681
0.00114074
0.000536553
0.00158343
-0.000601732
-0.00197702
-0.00721511
-0.010118
-0.00597647
-0.00495491
-0.004665
-0.00457626
-0.00450365
-0.0044107
-0.00427924
-0.00409945
-0.00387613
-0.00362248
-0.00336243
-0.00312958
-0.00293278
-0.00277264
-0.00264772
-0.00255284
-0.00248285
-0.00243326
-0.00240049
-0.00238073
-0.00237289
-0.0023762
-0.00238928
-0.00240962
-0.00243316
-0.00245291
-0.00245747
-0.00242553
-0.00232783
-0.00212752
-0.00177251
-0.00119199
-0.000318916
0.000836224
0.00196634
0.00249596
0.00188689
)
;

boundaryField
{
    floor
    {
        type            calculated;
        value           nonuniform List<scalar> 
29
(
0
0
0
0
0
0
0
0
0
0
0
0
0
0
0
0
0
0
0
0
-3.57799e-06
-9.22752e-06
-1.40823e-05
-1.84802e-05
-1.43077e-06
-2.66219e-06
-7.58106e-06
-7.95699e-06
-7.21687e-06
)
;
    }
    ceiling
    {
        type            calculated;
        value           nonuniform List<scalar> 
43
(
-4.5409e-05
-4.40941e-05
-4.27878e-05
-1.98219e-05
-1.10159e-05
-6.74808e-06
-4.12602e-06
-2.14389e-06
-5.31582e-07
8.42917e-07
2.07697e-06
3.24055e-06
4.37616e-06
5.43076e-06
6.33201e-06
7.05481e-06
7.61818e-06
8.05476e-06
8.39288e-06
8.6528e-06
8.84896e-06
8.99052e-06
9.08347e-06
9.12526e-06
9.11111e-06
9.04352e-06
8.92828e-06
8.76653e-06
8.5592e-06
8.30843e-06
8.03252e-06
7.74224e-06
7.44623e-06
7.15572e-06
6.89092e-06
6.66545e-06
6.69195e-06
6.93405e-06
7.33666e-06
8.58001e-06
1.11563e-05
8.10055e-06
-6.5074e-05
)
;
    }
    sWall
    {
        type            calculated;
        value           uniform -0.0002752;
    }
    nWall
    {
        type            calculated;
        value           nonuniform List<scalar> 6(-4.70668e-05 -5.64325e-05 -6.10938e-05 -7.17632e-05 -7.85955e-05 -9.87132e-05);
    }
    sideWalls
    {
        type            empty;
        value           nonuniform 0();
    }
    glass1
    {
        type            calculated;
        value           nonuniform List<scalar> 9(-5.61845e-05 -0.000151286 -0.000231386 -0.000299603 -0.000357536 -0.000406403 -0.000450649 -0.000504237 -0.000564174);
    }
    glass2
    {
        type            calculated;
        value           nonuniform List<scalar> 2(-0.000248649 -0.000275021);
    }
    sun
    {
        type            calculated;
        value           uniform 0;
    }
    heatsource1
    {
        type            calculated;
        value           nonuniform List<scalar> 3(2.03939e-07 2.03897e-07 2.03914e-07);
    }
    heatsource2
    {
        type            calculated;
        value           nonuniform List<scalar> 4(5.1096e-08 5.1217e-08 0 0);
    }
    Table_master
    {
        type            calculated;
        value           nonuniform List<scalar> 9(-1.52954e-07 -1.53036e-07 -1.53065e-07 -1.53085e-07 -1.53098e-07 -1.53108e-07 -1.53111e-07 -1.53105e-07 -1.53072e-07);
    }
    Table_slave
    {
        type            calculated;
        value           nonuniform List<scalar> 9(1.52832e-07 1.52858e-07 1.52841e-07 1.52828e-07 1.52824e-07 1.52827e-07 1.52843e-07 1.52886e-07 1.52965e-07);
    }
    inlet
    {
        type            calculated;
        value           uniform -0.00617967;
    }
    outlet
    {
        type            calculated;
        value           nonuniform List<scalar> 2(0.00753572 0.00294695);
    }
}


// ************************************************************************* //
