// -*- C++ -*-
// File generated by PyFoam - sorry for the ugliness

FoamFile
{
 version 2.0;
 format ascii;
 class volVectorField;
 location "1000";
 object U;
}

dimensions [ 0 1 -1 0 0 0 0 ];

internalField nonuniform List<vector> 459
(
  (0.0330453 0.0854176 0)
  (-0.166034 0.0256477 0)
  (-0.190562 0.0178352 0)
  (-0.221144 0.0123346 0)
  (-0.243465 0.00632121 0)
  (-0.256694 1.66679e-05 0)
  (-0.259506 -0.00663482 0)
  (-0.250683 -0.0136384 0)
  (-0.230877 -0.0205297 0)
  (-0.201521 -0.0262603 0)
  (-0.165587 -0.0299868 0)
  (-0.126486 -0.0314387 0)
  (-0.087465 -0.0311412 0)
  (-0.0532911 -0.0307456 0)
  (-0.0376605 -0.0319928 0)
  (-0.00255871 0.00738682 0)
  (-0.0222442 -0.0175182 0)
  (0.00150391 -0.0262153 0)
  (0.022356 -0.0194302 0)
  (0.0380529 -0.0130492 0)
  (0.0496396 -0.00832951 0)
  (0.0564759 -0.00499302 0)
  (0.0598862 -0.00325469 0)
  (0.0614396 -0.00249898 0)
  (0.0622502 -0.00212946 0)
  (0.0627567 -0.00189569 0)
  (0.0630242 -0.00170966 0)
  (0.0629874 -0.00147262 0)
  (0.0624302 -0.00101768 0)
  (0.0607829 3.58058e-05 0)
  (0.0568413 0.00223437 0)
  (0.0492807 0.00462579 0)
  (0.04143 0.00672121 0)
  (-0.010353 0.0203957 0)
  (0.205312 0.174508 0)
  (-0.154239 0.0671026 0)
  (-0.152526 0.0521067 0)
  (-0.183748 0.0406542 0)
  (-0.205541 0.0278424 0)
  (-0.218732 0.0136701 0)
  (-0.221984 -0.00212227 0)
  (-0.213876 -0.0191052 0)
  (-0.195587 -0.0351775 0)
  (-0.168921 -0.0478391 0)
  (-0.137077 -0.0553007 0)
  (-0.103466 -0.0570878 0)
  (-0.0713112 -0.0538775 0)
  (-0.0443666 -0.047251 0)
  (-0.0272446 -0.0383838 0)
  (-0.0136576 -0.0188275 0)
  (-0.00717019 0.0132331 0)
  (0.0600928 0.0312171 0)
  (0.0316019 -0.0198862 0)
  (0.0386118 -0.0305628 0)
  (0.0493737 -0.0258813 0)
  (0.0577978 -0.0177964 0)
  (0.0633597 -0.0104165 0)
  (0.0655495 -0.00429119 0)
  (0.0658604 -0.000907253 0)
  (0.0657724 0.00054983 0)
  (0.0658518 0.00123514 0)
  (0.066012 0.00165922 0)
  (0.066125 0.00201694 0)
  (0.0661515 0.00249958 0)
  (0.0660363 0.00343574 0)
  (0.0652459 0.00572763 0)
  (0.0613581 0.0120528 0)
  (0.0515864 0.0174576 0)
  (0.0452096 0.0213524 0)
  (-0.0437769 0.0440453 0)
  (0.363119 0.260746 0)
  (-0.169938 0.106403 0)
  (-0.113941 0.0838448 0)
  (-0.143703 0.0634778 0)
  (-0.162653 0.042464 0)
  (-0.174472 0.0195457 0)
  (-0.177005 -0.00605563 0)
  (-0.168004 -0.0331752 0)
  (-0.149706 -0.0580672 0)
  (-0.124677 -0.0766801 0)
  (-0.0964002 -0.0866132 0)
  (-0.0678418 -0.0877403 0)
  (-0.0412959 -0.0812159 0)
  (-0.0189701 -0.0685984 0)
  (-0.00269937 -0.0509287 0)
  (0.00976226 -0.025299 0)
  (0.0165029 0.0090471 0)
  (0.105479 -0.0393331 0)
  (0.0728697 -0.0432064 0)
  (0.0689485 -0.0394367 0)
  (0.0711399 -0.0315792 0)
  (0.0726907 -0.0224295 0)
  (0.0735202 -0.0147606 0)
  (0.0718062 -0.0120229 0)
  (0.0678101 -0.00860798 0)
  (0.0650524 -0.0067527 0)
  (0.0638125 -0.0056933 0)
  (0.0632794 -0.0050261 0)
  (0.0630204 -0.00456787 0)
  (0.063068 -0.00411515 0)
  (0.063902 -0.00331042 0)
  (0.066735 -0.000182413 0)
  (0.0646932 0.0170381 0)
  (0.0514249 0.029265 0)
  (0.0508135 0.0379727 0)
  (-0.0732175 0.0691597 0)
  (0.505081 0.329904 0)
  (-0.203253 0.141048 0)
  (-0.0737578 0.110385 0)
  (-0.101255 0.0823587 0)
  (-0.114372 0.0554144 0)
  (-0.122227 0.0254567 0)
  (-0.121089 -0.00960508 0)
  (-0.108772 -0.0472349 0)
  (-0.0896558 -0.0801684 0)
  (-0.0670119 -0.10317 0)
  (-0.0440569 -0.114033 0)
  (-0.0225915 -0.113756 0)
  (-0.00339662 -0.104138 0)
  (0.0129844 -0.0869141 0)
  (0.0263976 -0.0649872 0)
  (0.0407405 -0.038994 0)
  (0.0628369 -0.0123787 0)
  (0.0933692 -1.81649e-06 0)
  (0.101027 -0.0330108 0)
  (0.0874794 -0.0382987 0)
  (0.0789337 -0.0340838 0)
  (0.074782 -0.0278027 0)
  (0.0720735 -0.0204115 0)
  (0.0707906 -0.0118442 0)
  (0.0725328 -0.00694429 0)
  (0.0766471 -0.00548422 0)
  (0.0800521 -0.00467031 0)
  (0.0823659 -0.00403802 0)
  (0.0837824 -0.0032168 0)
  (0.0837349 -0.00195158 0)
  (0.0811645 -3.06025e-05 0)
  (0.0748385 0.00283417 0)
  (0.0619645 0.00717477 0)
  (0.0510436 0.0274371 0)
  (0.0404054 0.0442548 0)
  (0.0536889 0.0578336 0)
  (-0.103613 0.0919887 0)
  (0.627004 0.383379 0)
  (-0.243961 0.169268 0)
  (-0.0347541 0.125043 0)
  (-0.05719 0.0925318 0)
  (-0.0619427 0.0622764 0)
  (-0.0626942 0.0274337 0)
  (-0.0518112 -0.0162518 0)
  (-0.0339252 -0.0631389 0)
  (-0.0150118 -0.100658 0)
  (0.00268062 -0.124438 0)
  (0.0171695 -0.133162 0)
  (0.0285329 -0.129871 0)
  (0.0372967 -0.117607 0)
  (0.0441754 -0.0988997 0)
  (0.0503048 -0.0764175 0)
  (0.0576575 -0.0528119 0)
  (0.0688257 -0.0335342 0)
  (0.0792851 -0.0289055 0)
  (0.0808633 -0.0347275 0)
  (0.074329 -0.0335076 0)
  (0.0663267 -0.0285529 0)
  (0.0602229 -0.0229892 0)
  (0.0559289 -0.0172516 0)
  (0.0536578 -0.0113639 0)
  (0.0537749 -0.00622468 0)
  (0.0559272 -0.00387742 0)
  (0.0583291 -0.00304418 0)
  (0.0606693 -0.00234098 0)
  (0.0628413 -0.000828985 0)
  (0.0644636 0.00203841 0)
  (0.064365 0.00636665 0)
  (0.0619625 0.0123243 0)
  (0.0565601 0.0205648 0)
  (0.0500001 0.0359809 0)
  (0.0410011 0.0545108 0)
  (0.0619497 0.0750185 0)
  (-0.0170386 0.104248 0)
  (0.0454356 0.0340584 0)
  (-0.0612418 -0.0343704 0)
  (-0.268947 -0.0566574 0)
  (0.714668 0.427893 0)
  (-0.28323 0.188072 0)
  (-0.00570086 0.119895 0)
  (-0.0117702 0.0916285 0)
  (-0.00495435 0.0622774 0)
  (0.00525855 0.0207352 0)
  (0.0338852 -0.0335355 0)
  (0.0549538 -0.08172 0)
  (0.0697862 -0.116095 0)
  (0.0783341 -0.135268 0)
  (0.0813689 -0.140427 0)
  (0.0803799 -0.134288 0)
  (0.0767385 -0.119881 0)
  (0.0718509 -0.100188 0)
  (0.0671941 -0.0781082 0)
  (0.0641293 -0.0563317 0)
  (0.0635456 -0.0385848 0)
  (0.0630767 -0.0294524 0)
  (0.0590448 -0.0271132 0)
  (0.0514392 -0.0249469 0)
  (0.043217 -0.0213266 0)
  (0.0366412 -0.0173486 0)
  (0.0321371 -0.0134829 0)
  (0.0298735 -0.0097962 0)
  (0.0298238 -0.006949 0)
  (0.0315131 -0.00601754 0)
  (0.0340178 -0.00601886 0)
  (0.0369981 -0.00574297 0)
  (0.0402874 -0.00422533 0)
  (0.043667 -0.000619142 0)
  (0.0466517 0.00534141 0)
  (0.0482163 0.0133535 0)
  (0.0485628 0.0236335 0)
  (0.0490997 0.0379349 0)
  (0.0484097 0.0558751 0)
  (0.0703669 0.0787242 0)
  (0.0522913 0.0972783 0)
  (0.0914851 0.0683108 0)
  (0.11449 0.0445969 0)
  (-0.128181 -0.00731724 0)
  (0.76759 0.468484 0)
  (-0.301796 0.173462 0)
  (0.0220248 0.0677595 0)
  (0.0495036 0.0629401 0)
  (0.0701747 0.0439808 0)
  (0.103007 -0.00356085 0)
  (0.134744 -0.0571851 0)
  (0.153076 -0.0982144 0)
  (0.159119 -0.123995 0)
  (0.154942 -0.135493 0)
  (0.143174 -0.134852 0)
  (0.126674 -0.12491 0)
  (0.107983 -0.108566 0)
  (0.0892548 -0.088736 0)
  (0.0722413 -0.0680067 0)
  (0.0580488 -0.0484452 0)
  (0.047188 -0.0327067 0)
  (0.0385463 -0.0231753 0)
  (0.0301377 -0.0188872 0)
  (0.021607 -0.01652 0)
  (0.0139582 -0.0142315 0)
  (0.00815679 -0.0120885 0)
  (0.00439676 -0.010253 0)
  (0.00267275 -0.00874634 0)
  (0.0028209 -0.00793274 0)
  (0.00433542 -0.00821773 0)
  (0.00660292 -0.00895872 0)
  (0.00940851 -0.00927344 0)
  (0.0128023 -0.00831371 0)
  (0.0169173 -0.00508943 0)
  (0.0226787 0.00135746 0)
  (0.0284075 0.0101391 0)
  (0.0338551 0.0205316 0)
  (0.0408374 0.0331635 0)
  (0.0486492 0.0478096 0)
  (0.0704144 0.0662161 0)
  (0.0840216 0.0745708 0)
  (0.115886 0.0525475 0)
  (0.155414 0.0440074 0)
  (-0.0362365 0.0925807 0)
  (0.872401 0.469813 0)
  (-0.064286 0.152092 0)
  (0.109975 -0.0138129 0)
  (0.181716 -0.0409957 0)
  (0.212254 -0.0526595 0)
  (0.243697 -0.0751755 0)
  (0.261475 -0.0974634 0)
  (0.262278 -0.11334 0)
  (0.247681 -0.120837 0)
  (0.221759 -0.120005 0)
  (0.189007 -0.112071 0)
  (0.153461 -0.0988423 0)
  (0.118268 -0.0820734 0)
  (0.0858192 -0.0639487 0)
  (0.0577231 -0.0463881 0)
  (0.0346016 -0.030597 0)
  (0.0172476 -0.0187302 0)
  (0.00474155 -0.0121082 0)
  (-0.0048358 -0.00954283 0)
  (-0.0121475 -0.00877995 0)
  (-0.0179478 -0.00836607 0)
  (-0.022172 -0.00814191 0)
  (-0.0249285 -0.00812735 0)
  (-0.0263629 -0.00836225 0)
  (-0.026701 -0.00899491 0)
  (-0.0263545 -0.0101078 0)
  (-0.0257127 -0.0113769 0)
  (-0.0248801 -0.0123297 0)
  (-0.0236963 -0.0124771 0)
  (-0.0217639 -0.011241 0)
  (-0.0181161 -0.0078904 0)
  (-0.00950279 -0.00171462 0)
  (-0.00117393 0.00631236 0)
  (0.00934608 0.014482 0)
  (0.0210234 0.0215401 0)
  (0.0407837 0.0288795 0)
  (0.05981 0.022448 0)
  (0.0798268 -0.00467675 0)
  (0.138584 0.0391132 0)
  (-0.405131 0.202557 0)
  (1.01938 0.422916 0)
  (0.484919 0.27949 0)
  (0.49976 0.182983 0)
  (0.52619 0.111728 0)
  (0.507208 0.060441 0)
  (0.465322 0.0133066 0)
  (0.416585 -0.0259794 0)
  (0.363039 -0.0528826 0)
  (0.304977 -0.066622 0)
  (0.245309 -0.069207 0)
  (0.187502 -0.0640083 0)
  (0.13415 -0.0541839 0)
  (0.0868206 -0.0416086 0)
  (0.0470697 -0.0284961 0)
  (0.0149771 -0.0166532 0)
  (-0.0104726 -0.00715937 0)
  (-0.0254333 -0.0029172 0)
  (-0.0346468 -0.0018952 0)
  (-0.0408404 -0.00241148 0)
  (-0.0456414 -0.00340583 0)
  (-0.049574 -0.00441167 0)
  (-0.0527755 -0.00540338 0)
  (-0.0553541 -0.00640211 0)
  (-0.057467 -0.00744325 0)
  (-0.0593526 -0.00857429 0)
  (-0.0613642 -0.00978816 0)
  (-0.0638559 -0.0108703 0)
  (-0.0671206 -0.0114407 0)
  (-0.0714709 -0.0109764 0)
  (-0.0773348 -0.0087789 0)
  (-0.0852607 -0.00402817 0)
  (-0.0952146 0.00384222 0)
  (-0.105359 0.0143177 0)
  (-0.120144 0.027614 0)
  (-0.143344 0.0438634 0)
  (-0.177463 0.062007 0)
  (-0.225853 0.0781863 0)
  (-0.281535 0.0898472 0)
  (-0.349528 0.0969275 0)
  (-0.609216 0.0999616 0)
  (-0.150868 0.00197891 0)
  (0.121398 0.00179603 0)
  (0.20056 -0.0314983 0)
  (0.187545 -0.0416171 0)
  (0.171474 -0.0397666 0)
  (0.149411 -0.0349893 0)
  (0.119986 -0.0288786 0)
  (0.0862706 -0.0215797 0)
  (0.0517685 -0.0135567 0)
  (0.0169523 -0.00541549 0)
  (-0.0165186 0.00217883 0)
  (-0.0389467 0.00651 0)
  (-0.0544207 0.00886452 0)
  (-0.063674 0.00937357 0)
  (-0.0687816 0.00853942 0)
  (-0.0723261 0.00759829 0)
  (-0.0751284 0.0068324 0)
  (-0.0776217 0.00625123 0)
  (-0.0801225 0.00576084 0)
  (-0.0827548 0.00510372 0)
  (-0.085497 0.00434424 0)
  (-0.0884281 0.00350083 0)
  (-0.091672 0.00262777 0)
  (-0.0953733 0.00184323 0)
  (-0.0996131 0.0013974 0)
  (-0.104387 0.00161003 0)
  (-0.10962 0.00280842 0)
  (-0.115138 0.00529208 0)
  (-0.12033 0.00957926 0)
  (-0.124456 0.0165752 0)
  (-0.127879 0.0274031 0)
  (-0.130806 0.0424421 0)
  (-0.133904 0.0608851 0)
  (-0.137606 0.0793224 0)
  (-0.138872 0.0882378 0)
  (-0.121436 0.0671462 0)
  (-0.0785475 -0.023044 0)
  (-0.274007 -0.198317 0)
  (0.0154848 0.194586 0)
  (0.0412719 0.0703583 0)
  (0.00039817 0.00594013 0)
  (-0.0125612 -0.00215007 0)
  (-0.0258536 -0.000191463 0)
  (-0.0407198 8.66516e-05 0)
  (-0.056956 0.00116051 0)
  (-0.0724384 0.00339341 0)
  (-0.0846774 0.0055025 0)
  (-0.0914459 0.00585377 0)
  (-0.0957777 0.0039496 0)
  (-0.0975789 -3.88711e-05 0)
  (-0.0978795 -0.00456941 0)
  (-0.0973314 -0.00944121 0)
  (-0.0968448 -0.0146533 0)
  (-0.0969599 -0.0197322 0)
  (-0.0977027 -0.0243865 0)
  (-0.0989712 -0.0283607 0)
  (-0.100636 -0.0314657 0)
  (-0.102625 -0.0336072 0)
  (-0.104997 -0.0349349 0)
  (-0.107662 -0.0354093 0)
  (-0.110524 -0.0349808 0)
  (-0.113499 -0.0338306 0)
  (-0.116467 -0.0319888 0)
  (-0.119191 -0.0292263 0)
  (-0.121294 -0.0251245 0)
  (-0.1223 -0.0190731 0)
  (-0.121783 -0.0111505 0)
  (-0.118865 -0.00104877 0)
  (-0.112182 0.0119571 0)
  (-0.100449 0.0285066 0)
  (-0.0832233 0.0481122 0)
  (-0.061262 0.0668594 0)
  (-0.0374351 0.0778068 0)
  (0.00239699 0.0619101 0)
  (0.142923 -0.00829896 0)
  (-0.2049 -0.108438 0)
  (-0.0432594 -0.319759 0)
  (-0.413105 -0.123183 0)
  (-0.301151 0.0643578 0)
  (-0.249721 -0.0172165 0)
  (-0.209906 -0.0226171 0)
  (-0.198629 -0.0116213 0)
  (-0.194152 -0.00195795 0)
  (-0.190673 0.0060451 0)
  (-0.186151 0.013559 0)
  (-0.179682 0.0210357 0)
  (-0.171096 0.0285557 0)
  (-0.160706 0.0360194 0)
  (-0.149647 0.0432578 0)
  (-0.139075 0.0502563 0)
  (-0.129782 0.0572956 0)
  (-0.122043 0.0643319 0)
  (-0.115903 0.0713052 0)
  (-0.111194 0.0779942 0)
  (-0.107674 0.0839863 0)
  (-0.105137 0.0888883 0)
  (-0.103401 0.0924604 0)
  (-0.102307 0.0946045 0)
  (-0.101767 0.0953836 0)
  (-0.101741 0.0947526 0)
  (-0.102186 0.0926755 0)
  (-0.103024 0.0895329 0)
  (-0.10413 0.0856207 0)
  (-0.105287 0.0810336 0)
  (-0.106115 0.075817 0)
  (-0.105943 0.0700682 0)
  (-0.103508 0.0650519 0)
  (-0.0969775 0.0616862 0)
  (-0.083984 0.0608565 0)
  (-0.0627288 0.0635167 0)
  (-0.0336597 0.0701971 0)
  (0.0120092 0.0799896 0)
  (0.0550276 0.0809306 0)
  (0.0958148 0.068191 0)
  (0.160953 0.0425557 0)
  (-0.232304 -0.00747139 0)
)
;

boundaryField
{
  floor
  {
    type noSlip;
  }
  ceiling
  {
    type noSlip;
  }
  sWall
  {
    type noSlip;
  }
  nWall
  {
    type noSlip;
  }
  sideWalls
  {
    type empty;
  }
  glass1
  {
    type noSlip;
  }
  glass2
  {
    type noSlip;
  }
  sun
  {
    type noSlip;
  }
  heatsource1
  {
    type noSlip;
  }
  heatsource2
  {
    type noSlip;
  }
  Table_master
  {
    type noSlip;
  }
  Table_slave
  {
    type noSlip;
  }
  inlet
  {
    type fixedValue;
    value uniform (0.277164 -0.114805 0);
  }
  outlet
  {
    type zeroGradient;
  }
} 	// ************************************************************************* //

