/*--------------------------------*- C++ -*----------------------------------*\
  =========                 |
  \\      /  F ield         | OpenFOAM: The Open Source CFD Toolbox
   \\    /   O peration     | Website:  https://openfoam.org
    \\  /    A nd           | Version:  6
     \\/     M anipulation  |
\*---------------------------------------------------------------------------*/
FoamFile
{
    version     2.0;
    format      ascii;
    class       surfaceScalarField;
    location    "600";
    object      phi;
}
// * * * * * * * * * * * * * * * * * * * * * * * * * * * * * * * * * * * * * //

dimensions      [1 0 -1 0 0 0 0];

internalField   nonuniform List<scalar> 
852
(
-0.00325633
0.00331192
-0.00460666
0.00135023
-0.00531845
0.000711707
-0.00547592
0.000157391
-0.00500389
-0.000472109
-0.00385969
-0.00114428
-0.00216467
-0.0016951
-0.00020381
-0.00196095
0.00141277
-0.00161671
0.00255444
-0.0011418
0.00322749
-0.000673171
0.00344246
-0.000215094
0.00317043
0.000271907
0.00224511
0.000925195
0.00224675
-0.000971071
0.000972479
-0.00132425
0.000352869
-0.000793952
-0.000530618
8.32004e-05
-0.000877448
0.000944105
-0.000861167
0.00162037
-0.000676522
0.00201427
-0.000394167
0.00220037
-0.000186373
0.00231683
-0.000116734
0.00241487
-9.83354e-05
0.00250749
-9.29169e-05
0.00259815
-9.09663e-05
0.00267427
-7.64456e-05
0.00270278
-2.88453e-05
0.00263531
6.71257e-05
0.00241063
0.000224318
0.00197279
0.000437452
0.00124251
0.000729873
0.00124359
-0.00232906
0.00579241
-0.00353529
0.00255637
-0.00425973
0.00143607
-0.0044508
0.000348385
-0.00403116
-0.000891815
-0.00301087
-0.00216464
-0.00161605
-0.00308998
-0.00017711
-0.00339999
0.00110526
-0.00289922
0.00206808
-0.00210476
0.00268271
-0.00128795
0.00297091
-0.000503439
0.00297944
0.000263233
0.00286458
0.00103992
0.00332856
0.00178264
0.00163725
0.00169112
0.00163706
-0.00039181
0.0013691
-1.07814e-05
-2.84572e-05
0.000675744
-0.00121745
0.00119452
-0.00139649
0.00164996
-0.00131684
0.00202365
-0.00105044
0.00211548
-0.00048623
0.00213018
-0.000201317
0.00214738
-0.000134188
0.00216458
-0.000115802
0.00218232
-0.000110957
0.00220549
-0.000114462
0.00223203
-0.000103341
0.00223454
-3.17445e-05
0.00216
0.000141251
0.00191081
0.000473088
0.00147555
0.000872272
0.000857414
0.00134756
0.00210488
-0.00163496
0.00766081
-0.00263072
0.00355205
-0.00327999
0.00208526
-0.00345253
0.000520856
-0.00303174
-0.00131267
-0.00207539
-0.00312105
-0.000904552
-0.00426088
0.000185762
-0.00449041
0.00114406
-0.00385766
0.00189024
-0.00285111
0.00238128
-0.00177915
0.00264547
-0.000767795
0.002749
0.000159545
0.00277341
0.00101535
0.0027348
0.0018211
0.00202018
0.0024056
0.0036571
0.00101101
0.000366258
0.0017923
-0.000810051
0.00195598
-0.0013814
0.00211417
-0.00155491
0.00227666
-0.00147954
0.00260142
-0.0013754
0.00211514
0.00191376
0.0017795
0.00166359
0.00155249
0.00143781
0.00133414
0.00130198
0.00144283
0.00128161
0.000633819
0.00101862
0.0011348
0.000601965
0.00176376
0.00271331
-0.00113565
0.00910075
-0.00189169
0.00430801
-0.00233325
0.00252674
-0.00236034
0.000547877
-0.00182284
-0.00185023
-0.000916012
-0.0040279
-1.74189e-07
-0.00517675
0.000760784
-0.00525147
0.00140015
-0.00449718
0.00188371
-0.00333486
0.00218666
-0.00208231
0.00234504
-0.000926365
0.00242511
7.92955e-05
0.00249585
0.00094445
0.00263806
0.00167873
0.00291121
0.0021323
0.00425623
0.00231193
0.00320964
0.00105576
0.00340505
0.000170618
0.0032239
-0.000629127
0.0029698
-0.00112748
0.00271323
-0.0012985
0.00245806
-0.00122453
0.00203416
-0.000951655
0.00238909
-0.000355238
0.00247614
-8.73571e-05
0.0024622
1.3623e-05
0.0023899
7.19941e-05
0.00227232
0.000117264
0.00211466
0.000157346
0.00191141
0.00020293
0.00163983
0.000271264
0.00124231
0.0003972
0.00107913
0.000796731
0.000848574
0.00136502
0.000556915
0.00205502
0.00327903
-0.00078048
0.0102466
-0.00132441
0.00485185
-0.0014239
0.00262615
-0.00105156
0.000175455
-0.000262441
-0.00263939
0.000502428
-0.00479277
0.0010776
-0.00575195
0.00147506
-0.00564903
0.00175652
-0.00477882
0.00191321
-0.00349176
0.00195731
-0.00212664
0.00194424
-0.00091351
0.00194472
7.86105e-05
0.00203689
0.000852094
0.0022981
0.00141735
0.00272179
0.00170846
0.00331852
0.00171505
0.00338836
0.000985766
0.00341385
0.000144986
0.00323002
-0.000445435
0.00290183
-0.000799424
0.00252468
-0.000921488
0.00215117
-0.000851161
0.00182519
-0.000625818
0.00173862
-0.000268812
0.00165613
-5.02671e-06
0.00154021
0.000129378
0.0014199
0.000192143
0.00130495
0.000232043
0.00119262
0.000269502
0.00107656
0.000318816
0.000949815
0.000397823
0.000811404
0.000535424
0.000758697
0.00084922
0.000761234
0.00136221
0.000813377
0.00200254
0.00143578
0.00265625
-0.000377416
0.00181278
-0.000962984
0.00058527
-0.000926016
-0.000606453
0.0112712
-0.000851172
0.00509648
-0.000231857
0.00200674
0.000736502
-0.000793001
0.00160317
-0.00350609
0.00209544
-0.00528502
0.00229117
-0.0059477
0.00226177
-0.00561973
0.00209389
-0.00461113
0.00184065
-0.00323879
0.00155566
-0.00184192
0.00131684
-0.000674936
0.00120335
0.000191887
0.00127153
0.000783718
0.00152235
0.00116636
0.00189747
0.00133318
0.00236642
0.00124595
0.00262265
0.000729393
0.00260321
0.000164292
0.00240579
-0.000248148
0.0020909
-0.00048466
0.00172414
-0.000554867
0.00135867
-0.000485846
0.00104317
-0.000310476
0.000834536
-6.03454e-05
0.000696904
0.000132432
0.000596419
0.000229686
0.000515821
0.000272561
0.000452038
0.000295644
0.000404054
0.000317299
0.000371662
0.000351016
0.000356897
0.000412392
0.000366749
0.000525368
0.000458364
0.000757385
0.000683357
0.00113696
0.00108604
0.00159955
0.00180701
0.00193496
0.00228704
0.00133251
0.00191996
0.000952164
0.00104
-0.000366233
0.0121072
6.12063e-05
0.00466895
0.0017271
0.000340743
0.00304216
-0.00210813
0.00373102
-0.00419494
0.0038645
-0.00541847
0.00354846
-0.00563167
0.00294195
-0.00501334
0.00221568
-0.0038851
0.00147841
-0.00250183
0.000837227
-0.00120104
0.000395243
-0.000233223
0.000228379
0.000358524
0.000308729
0.00070317
0.000561896
0.00091301
0.000910904
0.000984003
0.00128174
0.000874951
0.00146953
0.000541458
0.00144095
0.000192726
0.00125788
-6.52418e-05
0.000977226
-0.000204171
0.000651235
-0.000229054
0.000326657
-0.000161454
4.48951e-05
-2.89062e-05
-0.000141552
0.000125906
-0.000238818
0.000229501
-0.000289582
0.000280252
-0.00031639
0.000299172
-0.000324346
0.000303401
-0.000312648
0.0003054
-0.000278988
0.000317146
-0.000220542
0.000353728
-0.00013251
0.000437111
2.22644e-05
0.000602376
0.000312523
0.000846449
0.000871537
0.00104026
0.00188723
0.000918987
0.00276363
0.000455869
0.00254295
0.00117263
0.00362931
0.00328787
0.00934836
0.00446632
0.00349041
0.00540669
-0.00059972
0.00624113
-0.00294259
0.00633784
-0.00429159
0.00569572
-0.00477629
0.00454789
-0.00448388
0.00315386
-0.00361949
0.00178519
-0.00251674
0.000556303
-0.00127332
-0.000309041
-0.00033605
-0.000733295
0.000190746
-0.000814156
0.000439148
-0.000699216
0.000588016
-0.000466271
0.000679865
-0.000179724
0.000697267
7.91183e-05
0.000615925
0.000188282
0.00043211
0.000139128
0.000241687
-2.63977e-05
0.000100074
-0.000260815
3.00206e-05
-0.000520189
3.00856e-05
-0.000759874
7.79933e-05
-0.000938693
0.000149679
-0.00103393
0.000220919
-0.00107236
0.000267709
-0.00107964
0.000287309
-0.0010686
0.000287919
-0.00104398
0.00027857
-0.00100785
0.000269046
-0.000963609
0.000272667
-0.000918707
0.000308581
-0.000884154
0.000402303
-0.000864093
0.000582052
-0.000870005
0.000852087
-0.000965226
0.0011352
-0.00129105
0.00124455
-0.00206659
0.00123121
-0.00238251
0.00148835
0.00144436
0.00993563
0.0134215
0.0120214
0.00080024
0.010562
-0.00148303
0.00872442
-0.00245392
0.00658611
-0.00263797
0.0043221
-0.00222002
0.0021
-0.00139768
0.000210469
-0.000627604
-0.00108366
2.03762e-05
-0.00169294
0.000272886
-0.00186907
0.000366579
-0.00184557
0.000415381
-0.00171598
0.000458177
-0.00152788
0.000491528
-0.00132784
0.000496995
-0.00117099
0.000458844
-0.00111589
0.00037676
-0.00116224
0.000287786
-0.00128112
0.000218695
-0.00143345
0.000182074
-0.00158146
0.000177822
-0.00169943
0.000195687
-0.00177349
0.000223472
-0.00180255
0.000249721
-0.00180047
0.000265381
-0.00178252
0.000269121
-0.00175966
0.00026482
-0.00174041
0.000259075
-0.00173341
0.000261798
-0.00174877
0.000287773
-0.0017987
0.000358252
-0.00189841
0.00050176
-0.00206723
0.00075065
-0.00234252
0.00112718
-0.00282344
0.00161592
-0.00368767
0.00210854
-0.00479005
0.00233326
-0.00465971
0.00135754
-0.00305128
0.00555666
0.00165732
0.00413936
-6.575e-05
0.00295532
-0.00127002
0.00141615
-0.00109909
-0.000283732
-0.000520591
-0.00171864
3.68014e-05
-0.00259938
0.000252737
-0.0029333
0.000353913
-0.00300766
0.000346901
-0.00296794
0.000326528
-0.00287032
0.000317446
-0.00273859
0.000326138
-0.00259122
0.000343857
-0.00245111
0.000356582
-0.00234506
0.000352484
-0.00229652
0.000327913
-0.0023028
0.000293746
-0.00234567
0.00026124
-0.00240168
0.000237765
-0.00244985
0.000225667
-0.00247738
0.000222899
-0.00247965
0.00022544
-0.00245883
0.000228596
-0.00242202
0.000228283
-0.00237645
0.000223276
-0.00232733
0.000215413
-0.00227827
0.00020973
-0.0022319
0.000215146
-0.00218951
0.000245104
-0.00214945
0.000317921
-0.00210439
0.000456439
-0.00203835
0.000684372
-0.00192629
0.00101491
-0.00174163
0.00143106
-0.00143509
0.00180178
-0.000623249
0.00152112
0.000387205
0.000346632
-0.00262789
-0.000281127
0.00199488
-0.000895354
0.000548194
-0.00219365
2.78912e-05
-0.00332312
2.99576e-05
-0.00402188
0.000177725
-0.00426808
0.000282571
-0.00431142
0.000295655
-0.00423311
0.000275204
-0.00412002
0.000233408
-0.00399476
0.000200878
-0.00386353
0.000185831
-0.00372547
0.000187704
-0.00358213
0.000200137
-0.00344081
0.000214879
-0.00331316
0.000224454
-0.0032103
0.000224665
-0.00313397
0.000217036
-0.00307812
0.000204998
-0.00303285
0.000192107
-0.00298847
0.000180912
-0.00293843
0.000172487
-0.00288007
0.000166714
-0.00281434
0.000162507
-0.0027448
0.000158385
-0.00267554
0.000153675
-0.00260957
0.000149093
-0.00254721
0.000147024
-0.00248412
0.000151722
-0.00240877
0.000169425
-0.00229967
0.000208518
-0.00212356
0.000280025
-0.0018361
0.00039664
-0.00138001
0.000558577
-0.000645372
0.000696193
0.000450139
0.000706025
0.00160326
0.000367717
0.00223885
-0.000289308
-0.000351536
-0.00658888
-0.00898666
-0.00698163
-0.00643889
-0.00642394
-0.00641081
-0.0062527
-0.00599216
-0.00572045
-0.00547061
-0.00526357
-0.00508978
-0.00493158
-0.00477201
-0.00460052
-0.00441488
-0.00422038
-0.00402647
-0.00384104
-0.00366847
-0.00350952
-0.00336236
-0.0032241
-0.00309193
-0.00296421
-0.00284079
-0.00272225
-0.00260848
-0.00249703
-0.00238119
-0.00224805
-0.00207629
-0.0018335
-0.00147458
-0.000954196
-0.0002968
0.000369257
0.000694974
0.000361481
)
;

boundaryField
{
    floor
    {
        type            calculated;
        value           nonuniform List<scalar> 
29
(
0
0
0
0
0
0
0
0
0
0
0
0
0
0
0
0
0
0
0
0
-1.53091e-06
-4.33325e-06
-6.90837e-06
-9.22214e-06
-1.77062e-06
-1.70713e-06
-5.1034e-06
-8.46614e-06
-9.32374e-06
)
;
    }
    ceiling
    {
        type            calculated;
        value           nonuniform List<scalar> 
43
(
-1.07186e-05
-1.10351e-05
-1.08474e-05
4.9856e-06
1.24778e-05
1.63558e-05
1.91388e-05
2.15473e-05
2.34722e-05
2.48843e-05
2.58925e-05
2.66121e-05
2.71643e-05
2.76549e-05
2.81696e-05
2.87675e-05
2.94751e-05
3.02797e-05
3.11284e-05
3.1952e-05
3.26863e-05
3.32901e-05
3.37523e-05
3.4088e-05
3.43295e-05
3.45163e-05
3.46884e-05
3.48839e-05
3.51367e-05
3.54699e-05
3.58872e-05
3.63681e-05
3.68747e-05
3.73716e-05
3.78636e-05
3.84757e-05
3.96454e-05
4.16025e-05
4.36768e-05
4.66951e-05
6.66942e-06
4.49383e-06
-5.65045e-05
)
;
    }
    sWall
    {
        type            calculated;
        value           uniform -0.000211598;
    }
    nWall
    {
        type            calculated;
        value           nonuniform List<scalar> 6(-3.73079e-05 -4.62046e-05 -4.65535e-05 -3.65333e-05 -3.78664e-05 -3.73446e-05);
    }
    sideWalls
    {
        type            empty;
        value           nonuniform 0();
    }
    glass1
    {
        type            calculated;
        value           nonuniform List<scalar> 9(-5.56707e-05 -0.000151505 -0.000233521 -0.000304356 -0.000365427 -0.000418201 -0.000469858 -0.000529083 -0.000593997);
    }
    glass2
    {
        type            calculated;
        value           nonuniform List<scalar> 2(-0.000197737 -0.000164644);
    }
    sun
    {
        type            calculated;
        value           uniform 0;
    }
    heatsource1
    {
        type            calculated;
        value           nonuniform List<scalar> 3(2.02452e-07 2.02567e-07 2.02596e-07);
    }
    heatsource2
    {
        type            calculated;
        value           nonuniform List<scalar> 4(5.09459e-08 5.11576e-08 0 0);
    }
    Table_master
    {
        type            calculated;
        value           nonuniform List<scalar> 9(-1.52311e-07 -1.52519e-07 -1.52565e-07 -1.52579e-07 -1.52574e-07 -1.52548e-07 -1.52497e-07 -1.52418e-07 -1.52286e-07);
    }
    Table_slave
    {
        type            calculated;
        value           nonuniform List<scalar> 9(1.52141e-07 1.52156e-07 1.52124e-07 1.52097e-07 1.5209e-07 1.521e-07 1.52125e-07 1.52166e-07 1.52229e-07);
    }
    inlet
    {
        type            calculated;
        value           uniform -0.00641347;
    }
    outlet
    {
        type            calculated;
        value           nonuniform List<scalar> 2(0.00681049 0.00240812);
    }
}


// ************************************************************************* //
