/*--------------------------------*- C++ -*----------------------------------*\
  =========                 |
  \\      /  F ield         | OpenFOAM: The Open Source CFD Toolbox
   \\    /   O peration     | Website:  https://openfoam.org
    \\  /    A nd           | Version:  6
     \\/     M anipulation  |
\*---------------------------------------------------------------------------*/
FoamFile
{
    version     2.0;
    format      ascii;
    class       surfaceScalarField;
    location    "400";
    object      phi;
}
// * * * * * * * * * * * * * * * * * * * * * * * * * * * * * * * * * * * * * //

dimensions      [1 0 -1 0 0 0 0];

internalField   nonuniform List<scalar> 
852
(
-0.00289787
0.00295543
-0.00385517
0.000957312
-0.00461333
0.000758184
-0.00523314
0.000619831
-0.00568516
0.000452032
-0.00594918
0.000264037
-0.00600277
5.36084e-05
-0.0058216
-0.000181148
-0.00539408
-0.000427497
-0.00474268
-0.000651385
-0.00392445
-0.000818212
-0.00301576
-0.000908676
-0.00208371
-0.000932031
-0.00112693
-0.000956755
-0.00112537
-0.00059376
0.00059683
-0.000180124
-0.000413617
0.000426201
-0.000606307
0.000845024
-0.000418805
0.00110092
-0.000255882
0.00124807
-0.000147129
0.00132151
-7.34183e-05
0.00135546
-3.3936e-05
0.00137206
-1.6582e-05
0.00137947
-7.39036e-06
0.00138053
-1.04347e-06
0.00137606
4.49464e-06
0.00136387
1.22077e-05
0.00133582
2.80671e-05
0.00127058
6.52611e-05
0.00113325
0.000137349
0.000916358
0.000216909
0.000678452
0.000237926
0.000682635
-0.0020673
0.00517725
-0.0030273
0.00191734
-0.00381732
0.00154822
-0.00442781
0.00123033
-0.00486961
0.000893857
-0.00513497
0.000529409
-0.00520086
0.000119516
-0.00504115
-0.000340836
-0.00465024
-0.000818385
-0.00406202
-0.00123959
-0.00334266
-0.00153755
-0.00257034
-0.00168098
-0.001824
-0.00167835
-0.00121498
-0.00156575
-0.00103372
-0.00130661
-0.000294556
-0.000739198
-0.000294588
0.000595367
9.98492e-06
0.000949969
-0.000768201
0.00112626
-0.000782575
0.00129336
-0.00058589
0.00141447
-0.000376974
0.00147702
-0.000209664
0.00148171
-7.80895e-05
0.00148244
-3.46461e-05
0.00148412
-1.82476e-05
0.00148562
-8.87591e-06
0.00148644
-1.83847e-06
0.00148632
4.63596e-06
0.00148437
1.41708e-05
0.00147714
3.532e-05
0.00143633
0.000106085
0.00126434
0.000309363
0.000969991
0.000511272
0.000608975
0.000598962
0.00130202
-0.00145415
0.0068671
-0.00230009
0.0027633
-0.00300435
0.00225249
-0.00352573
0.00175174
-0.00391111
0.00127925
-0.0041532
0.000771518
-0.00421698
0.000183313
-0.0040586
-0.000499197
-0.00367604
-0.00120093
-0.00312206
-0.00179354
-0.00247282
-0.00218677
-0.0018027
-0.00235108
-0.00118037
-0.00230066
-0.000674143
-0.00207197
-0.00032311
-0.00165763
1.5758e-05
-0.00107805
-0.000278813
0.00135238
-0.00133365
0.0015654
-0.00098121
0.00155355
-0.000770701
0.00156205
-0.000594377
0.00158757
-0.000402476
0.00158389
-0.000205971
0.00150597
0.0014715
0.00145342
0.00144472
0.00144305
0.00144786
0.0014622
0.00149769
0.00160395
0.00132135
0.000591982
0.000977294
0.000855343
0.000542703
0.00103357
0.00186039
-0.00102598
0.00819742
-0.00171699
0.00345434
-0.0021858
0.00272132
-0.00253274
0.0020987
-0.00279952
0.00154605
-0.00297347
0.000945485
-0.00299842
0.000208278
-0.00280553
-0.000692067
-0.00241418
-0.00159226
-0.00190547
-0.00230222
-0.00135834
-0.00273388
-0.000831128
-0.00287827
-0.000364024
-0.00276775
2.80024e-05
-0.00246398
0.000369352
-0.00199896
0.000741284
-0.00144996
0.00138264
-0.00092015
0.00209792
-0.000706975
0.0016539
-0.000889622
0.0015701
-0.000897389
0.00152039
-0.000720971
0.00148191
-0.000555887
0.00148145
-0.000401996
0.00152462
-0.000249124
0.00164801
-0.000123529
0.00174938
-0.000101502
0.00184305
-9.3813e-05
0.00192386
-8.09478e-05
0.00197452
-5.07977e-05
0.00196902
5.36602e-06
0.00187939
8.9492e-05
0.00167318
0.000206065
0.00129705
0.000375991
0.00114979
0.000739265
0.000836345
0.0011688
0.00034875
0.00152118
0.00222956
-0.000726451
0.00928622
-0.00127101
0.00399891
-0.00137963
0.00282996
-0.00147201
0.00219109
-0.0015559
0.00162997
-0.00160562
0.000995216
-0.00151884
0.00012152
-0.00123707
-0.000973816
-0.000843437
-0.00198588
-0.000426837
-0.0027188
-4.31627e-05
-0.00311753
0.000276931
-0.00319835
0.000525475
-0.00301627
0.000714479
-0.00265296
0.000886188
-0.00217065
0.00108242
-0.00164617
0.00133839
-0.00117611
0.00152261
-0.000891178
0.00144815
-0.000815144
0.00130507
-0.000754291
0.00120569
-0.000621574
0.00113866
-0.000488842
0.0011114
-0.000374728
0.00113582
-0.000273523
0.00121869
-0.000206383
0.00130538
-0.000188175
0.00139642
-0.000184843
0.00148537
-0.000169883
0.00155867
-0.000124083
0.00159466
-3.0615e-05
0.00157035
0.000113817
0.00147348
0.000302946
0.00130763
0.000541855
0.00115452
0.000892389
0.000983154
0.00134019
0.000608533
0.00189582
0.000454348
0.00238377
-0.00102779
0.00148196
-0.00148306
0.000455082
-0.00143404
-0.00063924
0.0103367
-0.00103196
0.00439166
-0.000641616
0.00243963
-0.000361722
0.00191122
-0.000190711
0.00145897
-2.08047e-05
0.000825327
0.000272545
-0.000171816
0.000652306
-0.00135356
0.000991108
-0.00232466
0.00123621
-0.00296389
0.00137539
-0.00325669
0.0014213
-0.00324424
0.00140091
-0.00299586
0.0013387
-0.00259074
0.0012696
-0.00210153
0.00122244
-0.001599
0.0012018
-0.00115545
0.00115675
-0.000846113
0.00102891
-0.000687285
0.000861572
-0.000586937
0.000729563
-0.000489549
0.000646017
-0.000405281
0.000612262
-0.000340957
0.000631459
-0.000292706
0.000693528
-0.000268437
0.000775092
-0.000269726
0.000867711
-0.000277449
0.000967126
-0.000269285
0.0010671
-0.000224049
0.00115559
-0.000119093
0.00121068
5.87437e-05
0.0012255
0.000288137
0.00121303
0.000554338
0.00122367
0.000881763
0.0013064
0.00125747
0.00147377
0.00172847
0.00190236
0.0019552
0.00215633
0.00122801
0.00177033
0.000841097
0.000395183
-0.000732859
0.0115245
-0.000652678
0.00431149
0.000406005
0.00138096
0.00103116
0.00128607
0.001441
0.00104916
0.00191158
0.000354757
0.00241856
-0.000678779
0.00278747
-0.00172245
0.00296409
-0.00250125
0.00295036
-0.00295014
0.00277814
-0.00308445
0.00249417
-0.00296024
0.00214889
-0.00265056
0.00178522
-0.00222705
0.0014404
-0.0017567
0.00113981
-0.00129838
0.000888968
-0.000904601
0.000673976
-0.000631105
0.000467048
-0.000480341
0.000283313
-0.000403186
0.000148165
-0.000354386
6.65011e-05
-0.000323602
3.31535e-05
-0.000307595
4.33297e-05
-0.000302868
8.58786e-05
-0.000310973
0.00014648
-0.000330315
0.00021841
-0.000349366
0.000302558
-0.000353421
0.000403977
-0.000325456
0.000527799
-0.000242903
0.000663473
-7.69189e-05
0.000795803
0.000155818
0.000931696
0.000418458
0.0011153
0.00069817
0.00139717
0.00097561
0.00184355
0.00128211
0.00251178
0.00128698
0.00305466
0.000685145
0.00308486
0.000810917
0.00354371
0.00251992
0.00951313
0.00316832
0.00366311
0.00341593
0.00113337
0.00375687
0.000945145
0.00415778
0.000648261
0.00468662
-0.000174062
0.00510638
-0.00109853
0.00520885
-0.0018249
0.00499834
-0.00229072
0.00454334
-0.00249511
0.00392675
-0.00246783
0.00322945
-0.00226292
0.00252045
-0.00194154
0.00184707
-0.00155365
0.00124469
-0.0011543
0.000736164
-0.000789843
0.000327132
-0.000495553
1.94432e-05
-0.000323401
-0.000207986
-0.000252896
-0.000371283
-0.000239875
-0.000483533
-0.000242121
-0.000555535
-0.000251585
-0.000596427
-0.00026669
-0.000612841
-0.000286441
-0.000612778
-0.000311023
-0.000604678
-0.000338403
-0.000592037
-0.000361995
-0.000572343
-0.000373102
-0.000536176
-0.000361611
-0.000463223
-0.000315844
-0.000319301
-0.000220829
-0.000119209
-4.42615e-05
0.000112054
0.000187207
0.000393434
0.000416802
0.000737966
0.000631091
0.00118632
0.000833765
0.00165864
0.000814676
0.00183714
0.00050666
0.00106917
0.00157891
0.00487437
0.0100711
0.0137266
0.0123349
0.00252517
0.0112861
0.00199391
0.0105321
0.00140234
0.00982047
0.000537549
0.00890439
-0.000182411
0.00780528
-0.000725758
0.00661408
-0.00109949
0.00539681
-0.00127782
0.00420764
-0.00127863
0.00309488
-0.00115015
0.00209646
-0.000943098
0.00122303
-0.00068021
0.000485442
-0.000416698
-9.33483e-05
-0.000211038
-0.000493522
-9.53652e-05
-0.000742758
-7.41496e-05
-0.000907072
-8.85679e-05
-0.00102991
-0.000117021
-0.00112637
-0.000145651
-0.00120509
-0.00017285
-0.0012725
-0.000199263
-0.0013341
-0.000224835
-0.00139619
-0.000248914
-0.00146579
-0.000268796
-0.0015491
-0.000278668
-0.00165236
-0.000269828
-0.0017834
-0.000230559
-0.00195284
-0.000146397
-0.00217007
-3.58357e-06
-0.00241942
0.000205103
-0.00272405
0.000491852
-0.00317861
0.000871371
-0.00388464
0.00133714
-0.0049043
0.00185344
-0.00634942
0.00225982
-0.00808132
0.00223857
-0.00754977
0.00104737
-0.00238516
0.00478867
0.00383811
0.00425554
0.00252709
0.00497455
0.000683397
0.00512129
0.000390869
0.00480496
0.000133975
0.0042563
-0.000177064
0.00355171
-0.000394867
0.00274404
-0.000470134
0.0018965
-0.000431081
0.00106715
-0.000320781
0.000293353
-0.000169294
-0.000378877
-7.96968e-06
-0.000880138
8.45753e-05
-0.00119225
0.000101091
-0.00136802
8.04164e-05
-0.00148205
3.98906e-05
-0.00157199
1.39092e-06
-0.00165648
-3.25251e-05
-0.00174045
-6.16624e-05
-0.00182661
-8.66774e-05
-0.00191707
-0.000108793
-0.00201429
-0.000127602
-0.00212099
-0.000142196
-0.00223942
-0.000150353
-0.00237016
-0.000147914
-0.00251126
-0.00012871
-0.00265707
-8.47398e-05
-0.00279726
-6.19747e-06
-0.00291806
0.000117232
-0.00301581
0.000302867
-0.00310158
0.000577642
-0.00318496
0.000954759
-0.00326615
0.00141834
-0.00329738
0.00188468
-0.00321582
0.00217827
-0.00283703
0.00185979
-0.0015652
-0.000224446
-0.00387421
-0.000617893
0.00451336
0.000539866
0.00136937
0.000635902
0.000587391
0.000677905
0.000348889
0.000632177
0.000179715
0.000415599
3.95193e-05
3.59943e-05
-1.52594e-05
-0.000446827
1.26817e-05
-0.000939356
6.14533e-05
-0.00136931
0.00010918
-0.0016862
0.000147604
-0.00186296
0.000168807
-0.00194128
0.00016291
-0.00197786
0.000137681
-0.00200068
0.000103247
-0.00202846
6.7684e-05
-0.00206369
3.6643e-05
-0.00210838
1.21759e-05
-0.00216264
-7.38664e-06
-0.00222616
-2.31432e-05
-0.00229871
-3.62339e-05
-0.00237948
-4.68221e-05
-0.00246704
-5.46213e-05
-0.00255877
-5.86071e-05
-0.00264995
-5.67247e-05
-0.00273289
-4.57515e-05
-0.00279627
-2.13476e-05
-0.00282533
2.28816e-05
-0.00280625
9.81608e-05
-0.00271617
0.000212806
-0.00252129
0.000382774
-0.00219529
0.000628774
-0.001727
0.000950065
-0.00109549
0.00125319
-0.000118852
0.00120165
0.00117715
0.000563803
0.00156653
-0.000613812
-0.00222407
-0.00748833
-0.0103222
-0.00576604
-0.00437391
-0.00377124
-0.00341111
-0.00322315
-0.00317774
-0.0031889
-0.00317352
-0.00311046
-0.00300057
-0.00285304
-0.00268499
-0.00252343
-0.00238758
-0.00228653
-0.00222126
-0.00218717
-0.00217763
-0.0021877
-0.00221355
-0.00225249
-0.00230203
-0.00235934
-0.00242062
-0.00247998
-0.00252832
-0.00255221
-0.0025318
-0.00243605
-0.00222558
-0.00184509
-0.00121854
-0.000270676
0.00098027
0.00217957
0.00274088
0.00212441
)
;

boundaryField
{
    floor
    {
        type            calculated;
        value           nonuniform List<scalar> 
29
(
0
0
0
0
0
0
0
0
0
0
0
0
0
0
0
0
0
0
0
0
-4.16309e-06
-1.03887e-05
-1.56458e-05
-2.04077e-05
-1.54296e-06
-3.05188e-06
-8.50306e-06
-8.72007e-06
-8.28714e-06
)
;
    }
    ceiling
    {
        type            calculated;
        value           nonuniform List<scalar> 
43
(
-4.54852e-05
-4.41588e-05
-4.28407e-05
-2.27589e-05
-1.52768e-05
-1.12365e-05
-8.24017e-06
-5.88289e-06
-4.09287e-06
-2.68553e-06
-1.59741e-06
-6.98369e-07
7.90788e-08
7.69198e-07
1.36648e-06
1.84971e-06
2.19913e-06
2.42781e-06
2.56749e-06
2.64934e-06
2.6952e-06
2.71823e-06
2.72669e-06
2.72288e-06
2.7081e-06
2.68326e-06
2.64901e-06
2.60575e-06
2.55339e-06
2.49091e-06
2.42113e-06
2.35295e-06
2.29106e-06
2.24182e-06
2.21689e-06
2.25423e-06
2.36012e-06
2.50412e-06
2.67791e-06
3.61554e-06
1.06582e-05
7.59919e-06
-5.7342e-05
)
;
    }
    sWall
    {
        type            calculated;
        value           uniform -0.000271957;
    }
    nWall
    {
        type            calculated;
        value           nonuniform List<scalar> 6(-4.92042e-05 -5.88775e-05 -6.36518e-05 -7.61277e-05 -8.35996e-05 -0.000103259);
    }
    sideWalls
    {
        type            empty;
        value           nonuniform 0();
    }
    glass1
    {
        type            calculated;
        value           nonuniform List<scalar> 9(-5.75326e-05 -0.000154509 -0.000235683 -0.000304326 -0.000362335 -0.000411178 -0.000454986 -0.000508513 -0.000568632);
    }
    glass2
    {
        type            calculated;
        value           nonuniform List<scalar> 2(-0.000261474 -0.000290228);
    }
    sun
    {
        type            calculated;
        value           uniform 0;
    }
    heatsource1
    {
        type            calculated;
        value           nonuniform List<scalar> 3(2.04273e-07 2.042e-07 2.04214e-07);
    }
    heatsource2
    {
        type            calculated;
        value           nonuniform List<scalar> 4(5.10928e-08 5.1236e-08 0 0);
    }
    Table_master
    {
        type            calculated;
        value           nonuniform List<scalar> 9(-1.53192e-07 -1.53254e-07 -1.53278e-07 -1.53294e-07 -1.53306e-07 -1.53314e-07 -1.53317e-07 -1.53312e-07 -1.53283e-07);
    }
    Table_slave
    {
        type            calculated;
        value           nonuniform List<scalar> 9(1.53083e-07 1.53092e-07 1.53065e-07 1.5304e-07 1.53027e-07 1.53032e-07 1.53041e-07 1.53081e-07 1.53162e-07);
    }
    inlet
    {
        type            calculated;
        value           uniform -0.00610158;
    }
    outlet
    {
        type            calculated;
        value           nonuniform List<scalar> 2(0.00780578 0.00287808);
    }
}


// ************************************************************************* //
