/*--------------------------------*- C++ -*----------------------------------*\
  =========                 |
  \\      /  F ield         | OpenFOAM: The Open Source CFD Toolbox
   \\    /   O peration     | Website:  https://openfoam.org
    \\  /    A nd           | Version:  6
     \\/     M anipulation  |
\*---------------------------------------------------------------------------*/
FoamFile
{
    version     2.0;
    format      ascii;
    class       volScalarField;
    location    "1000";
    object      epsilon;
}
// * * * * * * * * * * * * * * * * * * * * * * * * * * * * * * * * * * * * * //

dimensions      [0 2 -3 0 0 0 0];

internalField   nonuniform List<scalar> 
459
(
0.000340533
0.000432024
0.000447554
0.000510234
0.00057207
0.000632769
0.000694151
0.000759392
0.000819461
0.000858348
0.000864133
0.000828362
0.000752872
0.000654876
0.000558105
2.83474e-05
5.26728e-05
6.67176e-05
6.04883e-05
5.2438e-05
4.45849e-05
3.72164e-05
3.10675e-05
2.61307e-05
2.21834e-05
1.90075e-05
1.6441e-05
1.43404e-05
1.25851e-05
1.10749e-05
9.71167e-06
8.38719e-06
7.66269e-06
5.96321e-06
0.000913878
0.00142077
0.000408601
0.000389158
0.000401502
0.000422105
0.000452564
0.000497299
0.000551439
0.000599549
0.000624548
0.00061281
0.000561543
0.000488176
0.000448186
0.000573035
0.000179899
5.30964e-05
9.13367e-05
8.57622e-05
7.26857e-05
5.88531e-05
4.7316e-05
4.03736e-05
3.28757e-05
2.65537e-05
2.15172e-05
1.75625e-05
1.44763e-05
1.20672e-05
1.01921e-05
8.8425e-06
8.12699e-06
7.96072e-06
2.29766e-05
1.49778e-05
0.00173452
0.00372228
0.000529073
0.000371287
0.000378292
0.00041068
0.00045999
0.000528671
0.000610536
0.000683295
0.000723922
0.000719471
0.000669565
0.00059082
0.000514678
0.000473281
0.000532958
0.000326358
0.000201906
0.000138368
9.96061e-05
7.46906e-05
5.99441e-05
0.000100836
7.28367e-05
5.43267e-05
4.17622e-05
3.29873e-05
2.66902e-05
2.20658e-05
1.86185e-05
1.60464e-05
1.24407e-05
1.05868e-05
4.28054e-05
2.42113e-05
0.00291072
0.00797878
0.000892513
0.000376691
0.0003631
0.000406382
0.000476031
0.000578536
0.000699344
0.000794305
0.00083907
0.000829033
0.000768723
0.000676282
0.000570138
0.00048148
0.00043925
0.000753935
0.00040594
0.000230024
0.000146746
0.000101767
7.55497e-05
6.33046e-05
0.000139065
0.000111203
9.45765e-05
8.34972e-05
7.46218e-05
6.6283e-05
5.87386e-05
5.11963e-05
4.29234e-05
2.63387e-05
1.75112e-05
6.90315e-05
3.35304e-05
0.00457488
0.01443
0.00186258
0.000453552
0.000360902
0.000402868
0.00049967
0.000681651
0.000862346
0.000969254
0.00100136
0.000970424
0.000884902
0.000762898
0.000621298
0.000481473
0.000362032
0.000289176
0.00021424
0.000154992
0.000112513
8.41903e-05
6.63661e-05
5.6806e-05
5.66972e-05
5.5665e-05
5.45101e-05
5.28754e-05
5.01739e-05
4.61544e-05
4.18688e-05
3.77336e-05
3.39336e-05
2.79964e-05
2.18822e-05
4.96899e-05
3.84484e-05
6.95804e-05
0.000123032
0.000171539
0.00692292
0.0214883
0.00434809
0.000906948
0.00052472
0.000505798
0.00061861
0.00097893
0.00118061
0.00125035
0.00123682
0.0011652
0.00104453
0.00088341
0.000698199
0.000514117
0.000357147
0.000246555
0.000175534
0.000127229
9.36131e-05
7.24279e-05
6.09174e-05
5.6545e-05
5.74052e-05
6.03643e-05
6.32795e-05
6.48911e-05
6.41216e-05
6.00054e-05
5.256e-05
4.46249e-05
3.73884e-05
3.10996e-05
2.7096e-05
3.72948e-05
3.91135e-05
5.07775e-05
0.000227381
0.0001924
0.00977604
0.0256793
0.00932296
0.00324573
0.00185732
0.00143235
0.00154189
0.00173162
0.00175985
0.00169247
0.00157917
0.0014328
0.00124955
0.00102983
0.000789386
0.000557789
0.000364269
0.000230629
0.000150201
0.000104177
7.76999e-05
6.4466e-05
6.023e-05
6.19128e-05
6.73646e-05
7.44508e-05
8.15842e-05
8.78241e-05
9.20098e-05
9.22654e-05
8.50654e-05
7.35457e-05
6.24056e-05
5.3171e-05
4.91826e-05
5.49537e-05
6.94807e-05
0.000112846
0.000276386
0.00026315
0.0104864
0.0289455
0.0157179
0.0102742
0.00695808
0.00499933
0.00393918
0.003196
0.00268006
0.00231329
0.00202616
0.00176208
0.00148344
0.00117848
0.000864196
0.000576471
0.000342615
0.000193942
0.000112807
8.01238e-05
6.64088e-05
6.24959e-05
6.45135e-05
7.04048e-05
7.89943e-05
8.94355e-05
0.000101268
0.000114443
0.000128983
0.000144585
0.000159952
0.000165564
0.000170315
0.000184921
0.000217259
0.000323182
0.00060129
0.00117656
0.00364655
0.00107527
0.00974794
0.0166275
0.0134091
0.0101382
0.00768766
0.00594004
0.00471166
0.00387078
0.00328683
0.00284765
0.0024666
0.00208707
0.0016826
0.00125671
0.000845516
0.000504081
0.000236934
0.000126945
8.21133e-05
6.54674e-05
6.07268e-05
6.20085e-05
6.68828e-05
7.4337e-05
8.40142e-05
9.58989e-05
0.000110317
0.000128011
0.000150182
0.000178579
0.000215602
0.000264588
0.000331196
0.000435124
0.000590895
0.000806583
0.00105817
0.00128136
0.00144811
0.000900166
0.00442598
0.0066568
0.00630825
0.00568351
0.00510673
0.00450974
0.00390708
0.00331582
0.00272749
0.00213771
0.00155366
0.00098425
0.000483252
0.000230904
0.000115354
7.33347e-05
5.86291e-05
5.44641e-05
5.47889e-05
5.75341e-05
6.19084e-05
6.76875e-05
7.49304e-05
8.39075e-05
9.51381e-05
0.00010947
0.000128194
0.000153239
0.00018748
0.000235497
0.000302192
0.000394908
0.000517814
0.000660846
0.000787128
0.000844501
0.000804165
0.000514849
0.00311891
0.00629144
0.00619971
0.00516046
0.00446824
0.00396669
0.00338334
0.00274681
0.0020279
0.00135079
0.000810984
0.000434383
0.000215581
0.000120242
8.27566e-05
7.06859e-05
6.76423e-05
6.75684e-05
6.87035e-05
7.08377e-05
7.38757e-05
7.79233e-05
8.32062e-05
9.00657e-05
9.90125e-05
0.000110829
0.000126715
0.000148492
0.000178813
0.000220992
0.000279554
0.000359281
0.000461236
0.000577472
0.000668058
0.000767729
0.000734658
0.000542053
0.00204728
0.00242751
0.0027322
0.00322377
0.00271843
0.00220202
0.00176356
0.00140516
0.00116902
0.000949484
0.000722346
0.000515853
0.000334779
0.000202155
0.000123692
8.47447e-05
6.69729e-05
5.95021e-05
5.7231e-05
5.78737e-05
6.05466e-05
6.43795e-05
6.93663e-05
7.56202e-05
8.33316e-05
9.2768e-05
0.000104297
0.000118443
0.000135995
0.000158243
0.000186472
0.000221378
0.000264999
0.000320008
0.000389217
0.000483911
0.000523336
0.000488829
0.000404029
0.000326507
)
;

boundaryField
{
    floor
    {
        Cmu             0.09;
        kappa           0.41;
        E               9.8;
        type            epsilonWallFunction;
        value           nonuniform List<scalar> 
29
(
0.000558105
2.83474e-05
5.26728e-05
6.67176e-05
6.04883e-05
5.2438e-05
4.45849e-05
3.72164e-05
3.10675e-05
2.61307e-05
2.21834e-05
1.90075e-05
1.6441e-05
1.43404e-05
1.25851e-05
1.10749e-05
9.71167e-06
8.38719e-06
7.66269e-06
5.96321e-06
5.96321e-06
1.49778e-05
2.42113e-05
3.35304e-05
0.000558105
2.83474e-05
5.30964e-05
0.000326358
0.000753935
)
;
    }
    ceiling
    {
        Cmu             0.09;
        kappa           0.41;
        E               9.8;
        type            epsilonWallFunction;
        value           nonuniform List<scalar> 
43
(
0.00204728
0.00242751
0.0027322
0.00322377
0.00271843
0.00220202
0.00176356
0.00140516
0.00116902
0.000949484
0.000722346
0.000515853
0.000334779
0.000202155
0.000123692
8.47447e-05
6.69729e-05
5.95021e-05
5.7231e-05
5.78737e-05
6.05466e-05
6.43795e-05
6.93663e-05
7.56202e-05
8.33316e-05
9.2768e-05
0.000104297
0.000118443
0.000135995
0.000158243
0.000186472
0.000221378
0.000264999
0.000320008
0.000389217
0.000483911
0.000523336
0.000488829
0.000404029
0.000326507
0.00974794
0.0166275
0.00311891
)
;
    }
    sWall
    {
        Cmu             0.09;
        kappa           0.41;
        E               9.8;
        type            epsilonWallFunction;
        value           uniform 0.00204728;
    }
    nWall
    {
        Cmu             0.09;
        kappa           0.41;
        E               9.8;
        type            epsilonWallFunction;
        value           nonuniform List<scalar> 6(0.000171539 0.0001924 0.00026315 0.000514849 0.000542053 0.000326507);
    }
    sideWalls
    {
        type            empty;
    }
    glass1
    {
        Cmu             0.09;
        kappa           0.41;
        E               9.8;
        type            epsilonWallFunction;
        value           nonuniform List<scalar> 9(0.000340533 0.000913878 0.00173452 0.00291072 0.00457488 0.00692292 0.00977604 0.0104864 0.00974794);
    }
    glass2
    {
        Cmu             0.09;
        kappa           0.41;
        E               9.8;
        type            epsilonWallFunction;
        value           nonuniform List<scalar> 2(0.00107527 0.000900166);
    }
    sun
    {
        Cmu             0.09;
        kappa           0.41;
        E               9.8;
        type            epsilonWallFunction;
        value           nonuniform List<scalar> 
14
(
0.000340533
0.000432024
0.000447554
0.000510234
0.00057207
0.000632769
0.000694151
0.000759392
0.000819461
0.000858348
0.000864133
0.000828362
0.000752872
0.000654876
)
;
    }
    heatsource1
    {
        Cmu             0.09;
        kappa           0.41;
        E               9.8;
        type            epsilonWallFunction;
        value           nonuniform List<scalar> 3(6.95804e-05 0.000123032 0.000171539);
    }
    heatsource2
    {
        Cmu             0.09;
        kappa           0.41;
        E               9.8;
        type            epsilonWallFunction;
        value           nonuniform List<scalar> 4(0.000573035 0.000179899 0.000179899 0.000532958);
    }
    Table_master
    {
        Cmu             0.09;
        kappa           0.41;
        E               9.8;
        type            epsilonWallFunction;
        value           nonuniform List<scalar> 9(0.000100836 7.28367e-05 5.43267e-05 4.17622e-05 3.29873e-05 2.66902e-05 2.20658e-05 1.86185e-05 1.60464e-05);
    }
    Table_slave
    {
        Cmu             0.09;
        kappa           0.41;
        E               9.8;
        type            epsilonWallFunction;
        value           nonuniform List<scalar> 9(0.000139065 0.000111203 9.45765e-05 8.34972e-05 7.46218e-05 6.6283e-05 5.87386e-05 5.11963e-05 4.29234e-05);
    }
    inlet
    {
        type            turbulentMixingLengthDissipationRateInlet;
        mixingLength    0.01;
        phi             phi;
        k               k;
        value           uniform 0.000101881;
    }
    outlet
    {
        type            zeroGradient;
    }
}


// ************************************************************************* //
