/*--------------------------------*- C++ -*----------------------------------*\
  =========                 |
  \\      /  F ield         | OpenFOAM: The Open Source CFD Toolbox
   \\    /   O peration     | Website:  https://openfoam.org
    \\  /    A nd           | Version:  6
     \\/     M anipulation  |
\*---------------------------------------------------------------------------*/
FoamFile
{
    version     2.0;
    format      ascii;
    class       volScalarField;
    location    "1000";
    object      nut;
}
// * * * * * * * * * * * * * * * * * * * * * * * * * * * * * * * * * * * * * //

dimensions      [0 2 -1 0 0 0 0];

internalField   nonuniform List<scalar> 
459
(
0.000987276
0.00106878
0.00108144
0.00112974
0.00117365
0.00121377
0.00125182
0.00128987
0.00132302
0.00134362
0.00134663
0.00132779
0.00128616
0.00122774
0.00116402
0.00043108
0.000529969
0.000573422
0.000554992
0.000529191
0.000501333
0.000472035
0.000444459
0.000419546
0.000397257
0.000377315
0.000359505
0.000343491
0.000328862
0.000315144
0.000301643
0.000287255
0.000278733
0.000256382
0.00137198
0.00309208
0.00287704
0.0033345
0.00375689
0.00418993
0.00459975
0.00493158
0.00520275
0.00543727
0.00559595
0.00562397
0.00543692
0.00486097
0.00344462
0.00117431
0.000798092
0.000531342
0.00091527
0.00116981
0.00133359
0.00140195
0.0013855
0.00118931
0.00105917
0.000960041
0.000880651
0.000815252
0.000758545
0.000707075
0.000658624
0.000612244
0.000572634
0.000535192
0.000640308
0.000348499
0.00169867
0.00423604
0.00346997
0.0044843
0.00493079
0.00525334
0.00549723
0.00568868
0.00587467
0.00608185
0.00628563
0.00644666
0.00651027
0.00640913
0.00601907
0.00490914
0.00114626
0.0009734
0.00128572
0.00152379
0.00170683
0.0018143
0.0017535
0.00065807
0.000590448
0.00053547
0.000490521
0.000453431
0.000422518
0.000396552
0.000374721
0.000356603
0.000381552
0.000433561
0.000716601
0.000408998
0.00201859
0.00557069
0.00341103
0.004759
0.00521225
0.00534483
0.00538383
0.00543311
0.00554375
0.00572948
0.00596373
0.00621362
0.00642384
0.00653798
0.0065097
0.00614349
0.00480469
0.00128679
0.00160216
0.00197415
0.00225365
0.00243466
0.00253475
0.00238972
0.000732498
0.000679886
0.000644153
0.000617945
0.000595222
0.000572167
0.000549577
0.000524967
0.000495012
0.000464555
0.000463895
0.000826654
0.00045589
0.00234697
0.00732617
0.00378044
0.00448929
0.00517882
0.00524455
0.00514318
0.0050841
0.00517018
0.00535749
0.00561045
0.00590661
0.00617318
0.00632577
0.00632094
0.00611047
0.00558133
0.00454619
0.00408398
0.00382806
0.003662
0.00356238
0.00351248
0.00344034
0.00305564
0.00289918
0.00282183
0.00275695
0.00266861
0.0025179
0.00226964
0.00194632
0.00157287
0.00118008
0.000864973
0.000843885
0.000599527
0.000581484
0.000703151
0.000785533
0.00269449
0.0092404
0.00544762
0.00425922
0.00479756
0.00508155
0.00512375
0.00492633
0.00502967
0.00520717
0.00545818
0.00576025
0.00603915
0.00619916
0.00616657
0.00592297
0.00551306
0.00503662
0.00468853
0.00443693
0.00424488
0.00411386
0.00402845
0.00395671
0.00385265
0.00376889
0.00368913
0.00359679
0.00348275
0.00333957
0.0031167
0.00279572
0.00237523
0.00187817
0.00141284
0.00102566
0.000800313
0.000700803
0.00102001
0.000816165
0.00302297
0.0106592
0.00812096
0.00564264
0.00500479
0.00502463
0.00514863
0.00512108
0.00513362
0.00524623
0.00548132
0.00579485
0.00608632
0.00623665
0.00615863
0.00584532
0.00538986
0.00496934
0.00470641
0.00453222
0.00436145
0.00417957
0.00400722
0.00387517
0.00378432
0.00371813
0.00365088
0.00357169
0.00348037
0.00338289
0.00328026
0.00306897
0.00272292
0.0022811
0.00184614
0.00143542
0.00115595
0.00107391
0.0011119
0.000905966
0.00309448
0.00981206
0.0085177
0.0075695
0.00676519
0.00626608
0.00582811
0.00544984
0.00529035
0.00537604
0.00565177
0.00600722
0.0063009
0.00639679
0.00621303
0.00577507
0.00522221
0.00479532
0.00458439
0.00433382
0.00402067
0.00373451
0.00353203
0.00341281
0.00334538
0.00329716
0.00324939
0.00319951
0.00315454
0.00312666
0.0031294
0.00314017
0.00291418
0.00259799
0.00231371
0.00216321
0.002248
0.00264102
0.00335331
0.00144838
0.00302007
0.00360845
0.00405714
0.00425632
0.00436337
0.00437635
0.00443117
0.00463943
0.00501188
0.00550256
0.00602287
0.00645352
0.00666902
0.00656969
0.00612531
0.00546256
0.00485754
0.0044284
0.0040537
0.00363953
0.00327904
0.003037
0.00289566
0.00281345
0.00275725
0.00270678
0.00265223
0.00259022
0.00251934
0.00243783
0.00234376
0.0022398
0.00215
0.00208444
0.00206768
0.00209429
0.00210508
0.00204087
0.00191751
0.00136506
0.00173849
0.00332214
0.00427649
0.00492524
0.00554375
0.00609331
0.00657008
0.0069431
0.00718147
0.0071952
0.00691059
0.00629712
0.00541798
0.00454856
0.00395426
0.00348037
0.00302646
0.00267313
0.00245013
0.00232042
0.00224206
0.00218841
0.00214542
0.00210661
0.00206998
0.00203615
0.00200731
0.00198687
0.00197938
0.00199234
0.00201327
0.00204314
0.00207779
0.00209454
0.0020536
0.00193759
0.00175901
0.00113311
0.00206557
0.00440161
0.00572841
0.00624124
0.00671627
0.00711873
0.00719868
0.00713495
0.00698193
0.00646925
0.00563582
0.00469892
0.003879
0.00324254
0.0027391
0.00236003
0.0021221
0.00197585
0.00187617
0.00181151
0.00176832
0.00174021
0.00172469
0.00172104
0.00172924
0.00174924
0.00178028
0.00181998
0.00187097
0.00193665
0.00201553
0.00210296
0.00218592
0.00224591
0.00224206
0.0022825
0.00229821
0.00115272
0.00179515
0.00190004
0.00197642
0.00208848
0.0019731
0.0018393
0.00170811
0.00158356
0.00148938
0.00138961
0.00126857
0.0011339
0.000981716
0.000829787
0.000704467
0.000621044
0.000574183
0.000551981
0.00054486
0.000546885
0.000555173
0.000566643
0.000580907
0.000597861
0.000617525
0.000640003
0.000665485
0.000694303
0.000727031
0.00076469
0.000807696
0.000855241
0.00090808
0.000967007
0.00103222
0.00110993
0.00113929
0.00111368
0.00104515
0.00097351
)
;

boundaryField
{
    floor
    {
        type            nutkWallFunction;
        Cmu             0.09;
        kappa           0.41;
        E               9.8;
        value           nonuniform List<scalar> 
29
(
0.000139853
5.08179e-05
6.35242e-05
6.9011e-05
6.66898e-05
6.34245e-05
5.98769e-05
5.61195e-05
5.2556e-05
4.93128e-05
4.63905e-05
4.37581e-05
4.13921e-05
3.92518e-05
3.72852e-05
3.54306e-05
3.35951e-05
3.16271e-05
3.04553e-05
2.73586e-05
2.73585e-05
3.9923e-05
4.79334e-05
5.40377e-05
0.000139853
5.08178e-05
6.37024e-05
0.000117587
0.000153969
)
;
    }
    ceiling
    {
        type            nutkWallFunction;
        Cmu             0.09;
        kappa           0.41;
        E               9.8;
        value           nonuniform List<scalar> 
43
(
0.00021085
0.000222361
0.000230702
0.000242963
0.00023045
0.000215815
0.000201345
0.000187491
0.000176935
0.00016567
0.00015188
0.00013636
0.000118566
0.00010048
8.52679e-05
7.49647e-05
6.91053e-05
6.63095e-05
6.54103e-05
6.56669e-05
6.6714e-05
6.81599e-05
6.99527e-05
7.20766e-05
7.45308e-05
7.73246e-05
8.04775e-05
8.40258e-05
8.80341e-05
9.26199e-05
9.78244e-05
0.00010354
0.00010985
0.000116836
0.000124511
0.000133585
0.000136994
0.000134021
0.000126026
0.000117604
0.00034223
0.000403086
0.000240292
)
;
    }
    sWall
    {
        type            nutkWallFunction;
        Cmu             0.09;
        kappa           0.41;
        E               9.8;
        value           uniform 0.000210908;
    }
    nWall
    {
        type            nutkWallFunction;
        Cmu             0.09;
        kappa           0.41;
        E               9.8;
        value           nonuniform List<scalar> 6(9.51467e-05 9.88464e-05 0.000109601 0.000136286 0.00013856 0.00011761);
    }
    sideWalls
    {
        type            empty;
    }
    glass1
    {
        type            nutkWallFunction;
        Cmu             0.09;
        kappa           0.41;
        E               9.8;
        value           nonuniform List<scalar> 9(0.000119299 0.000163872 0.000200604 0.000235824 0.000271354 0.000308384 0.000342927 0.000350404 0.000342649);
    }
    glass2
    {
        type            nutkWallFunction;
        Cmu             0.09;
        kappa           0.41;
        E               9.8;
        value           nonuniform List<scalar> 2(0.000172399 0.000162959);
    }
    sun
    {
        type            nutkWallFunction;
        Cmu             0.09;
        kappa           0.41;
        E               9.8;
        value           nonuniform List<scalar> 
14
(
0.000119228
0.000128787
0.000130264
0.000135883
0.000140967
0.000145594
0.000149966
0.000154323
0.000158108
0.000160455
0.000160797
0.000158651
0.000153899
0.000147201
)
;
    }
    heatsource1
    {
        type            nutkWallFunction;
        Cmu             0.09;
        kappa           0.41;
        E               9.8;
        value           nonuniform List<scalar> 3(7.0028e-05 8.51123e-05 9.51466e-05);
    }
    heatsource2
    {
        type            nutkWallFunction;
        Cmu             0.09;
        kappa           0.41;
        E               9.8;
        value           nonuniform List<scalar> 4(0.000141039 9.66649e-05 9.66649e-05 0.000137794);
    }
    Table_master
    {
        type            nutkWallFunction;
        Cmu             0.09;
        kappa           0.41;
        E               9.8;
        value           nonuniform List<scalar> 9(7.95601e-05 7.11493e-05 6.42248e-05 5.84986e-05 5.37246e-05 4.97083e-05 4.6306e-05 4.34236e-05 4.10152e-05);
    }
    Table_slave
    {
        type            nutkWallFunction;
        Cmu             0.09;
        kappa           0.41;
        E               9.8;
        value           nonuniform List<scalar> 9(8.86985e-05 8.22511e-05 7.78385e-05 7.45834e-05 7.17476e-05 6.88568e-05 6.60105e-05 6.28933e-05 5.90745e-05);
    }
    inlet
    {
        type            calculated;
        value           uniform 0.000100623;
    }
    outlet
    {
        type            calculated;
        value           nonuniform List<scalar> 2(0.00179515 0.00190004);
    }
}


// ************************************************************************* //
