// -*- C++ -*-
// File generated by PyFoam - sorry for the ugliness

FoamFile
{
 version 2.0;
 format ascii;
 class volVectorField;
 location "1400";
 object U;
}

dimensions [ 0 1 -1 0 0 0 0 ];

internalField nonuniform List<vector> 459
(
  (0.0330962 0.0854121 0)
  (-0.16602 0.0256293 0)
  (-0.190533 0.0178357 0)
  (-0.22112 0.0123403 0)
  (-0.243456 0.00633181 0)
  (-0.256707 3.07472e-05 0)
  (-0.259545 -0.0066187 0)
  (-0.250747 -0.013621 0)
  (-0.230964 -0.0205135 0)
  (-0.201627 -0.0262473 0)
  (-0.165703 -0.0299794 0)
  (-0.126605 -0.0314399 0)
  (-0.0875748 -0.0311566 0)
  (-0.053383 -0.0307858 0)
  (-0.037741 -0.0320669 0)
  (-0.00250498 0.00737441 0)
  (-0.0222189 -0.0175472 0)
  (0.00156089 -0.0262307 0)
  (0.0224018 -0.0194252 0)
  (0.0381103 -0.0130522 0)
  (0.0497019 -0.00833496 0)
  (0.0565394 -0.00499405 0)
  (0.0599415 -0.00324838 0)
  (0.0614814 -0.00249402 0)
  (0.0622831 -0.00212958 0)
  (0.0627886 -0.0018995 0)
  (0.0630565 -0.00171153 0)
  (0.0630182 -0.0014758 0)
  (0.0624569 -0.00101759 0)
  (0.0608005 3.95975e-05 0)
  (0.0568456 0.00224194 0)
  (0.0492678 0.00463674 0)
  (0.0414163 0.00671148 0)
  (-0.0104156 0.0203887 0)
  (0.205453 0.17451 0)
  (-0.154268 0.0670659 0)
  (-0.152521 0.0521092 0)
  (-0.183755 0.0406684 0)
  (-0.205563 0.0278688 0)
  (-0.218773 0.0137049 0)
  (-0.222048 -0.00208365 0)
  (-0.213959 -0.019068 0)
  (-0.195684 -0.0351463 0)
  (-0.169028 -0.0478165 0)
  (-0.137185 -0.0552886 0)
  (-0.10357 -0.0570872 0)
  (-0.0714049 -0.0538906 0)
  (-0.0444507 -0.0472848 0)
  (-0.0273285 -0.0384412 0)
  (-0.0137391 -0.0188664 0)
  (-0.00719275 0.0131897 0)
  (0.0602334 0.031206 0)
  (0.0316526 -0.0199045 0)
  (0.0386475 -0.030571 0)
  (0.0494161 -0.0258755 0)
  (0.0578477 -0.0177997 0)
  (0.0634137 -0.0104236 0)
  (0.0656053 -0.00428588 0)
  (0.0659142 -0.000886566 0)
  (0.0658248 0.000568857 0)
  (0.0659042 0.00124551 0)
  (0.0660649 0.00166302 0)
  (0.0661784 0.00202592 0)
  (0.0662034 0.0025079 0)
  (0.0660875 0.00344764 0)
  (0.0652981 0.00574455 0)
  (0.061405 0.0120809 0)
  (0.051619 0.0174865 0)
  (0.0452393 0.0213468 0)
  (-0.0438533 0.0440426 0)
  (0.363356 0.260761 0)
  (-0.17003 0.10636 0)
  (-0.113934 0.0838556 0)
  (-0.143722 0.0635031 0)
  (-0.162687 0.0425051 0)
  (-0.174525 0.0195967 0)
  (-0.177081 -0.00600236 0)
  (-0.168096 -0.0331268 0)
  (-0.149808 -0.0580314 0)
  (-0.124784 -0.0766598 0)
  (-0.0965015 -0.0866108 0)
  (-0.0679331 -0.0877542 0)
  (-0.0413742 -0.0812452 0)
  (-0.0190346 -0.0686434 0)
  (-0.00275892 -0.0509942 0)
  (0.00971765 -0.0253608 0)
  (0.0164694 0.00897986 0)
  (0.105561 -0.0394336 0)
  (0.0728921 -0.0432582 0)
  (0.068961 -0.039456 0)
  (0.0711579 -0.0315819 0)
  (0.0727144 -0.0224367 0)
  (0.073549 -0.0147749 0)
  (0.0718428 -0.0120281 0)
  (0.0678569 -0.00860561 0)
  (0.0651125 -0.00675166 0)
  (0.0638807 -0.00569681 0)
  (0.0633476 -0.00503322 0)
  (0.0630877 -0.00457169 0)
  (0.0631385 -0.00411786 0)
  (0.0639779 -0.00331083 0)
  (0.0668202 -0.000176224 0)
  (0.0647745 0.0170776 0)
  (0.0514814 0.0293094 0)
  (0.0508651 0.0379827 0)
  (-0.0732996 0.0691667 0)
  (0.505405 0.329933 0)
  (-0.203417 0.141003 0)
  (-0.0737319 0.110403 0)
  (-0.101274 0.0823964 0)
  (-0.114404 0.0554727 0)
  (-0.122279 0.025528 0)
  (-0.121171 -0.00953127 0)
  (-0.10887 -0.0471706 0)
  (-0.0897626 -0.0801263 0)
  (-0.0671184 -0.103152 0)
  (-0.0441516 -0.114041 0)
  (-0.0226731 -0.113784 0)
  (-0.00346587 -0.104185 0)
  (0.0129325 -0.0869727 0)
  (0.026354 -0.0650569 0)
  (0.040704 -0.0390683 0)
  (0.0628152 -0.0124682 0)
  (0.0933571 -4.38748e-05 0)
  (0.101024 -0.0330595 0)
  (0.0874613 -0.0383287 0)
  (0.0789146 -0.0340966 0)
  (0.074774 -0.0278082 0)
  (0.0720766 -0.0204221 0)
  (0.0708009 -0.0118645 0)
  (0.0725571 -0.00696998 0)
  (0.0767035 -0.00551139 0)
  (0.0801461 -0.00469626 0)
  (0.0824964 -0.00406305 0)
  (0.0839468 -0.00323931 0)
  (0.0839309 -0.00196918 0)
  (0.0813743 -3.59725e-05 0)
  (0.0750381 0.00284519 0)
  (0.0621292 0.00720567 0)
  (0.0511526 0.0275039 0)
  (0.0404731 0.0443267 0)
  (0.053748 0.0578799 0)
  (-0.103716 0.0920087 0)
  (0.627389 0.383425 0)
  (-0.244189 0.169228 0)
  (-0.0347039 0.125061 0)
  (-0.0572088 0.0925783 0)
  (-0.0619684 0.0623506 0)
  (-0.0627424 0.0275331 0)
  (-0.0519026 -0.0161434 0)
  (-0.0340308 -0.0630546 0)
  (-0.0151201 -0.100613 0)
  (0.00257692 -0.124428 0)
  (0.0170861 -0.133187 0)
  (0.0284638 -0.129915 0)
  (0.0372411 -0.117666 0)
  (0.044131 -0.0989699 0)
  (0.0502682 -0.0764957 0)
  (0.0576258 -0.052893 0)
  (0.068795 -0.0336091 0)
  (0.0792579 -0.0289565 0)
  (0.080839 -0.0347709 0)
  (0.0743034 -0.0335408 0)
  (0.0663047 -0.0285781 0)
  (0.0602124 -0.0230096 0)
  (0.05593 -0.0172735 0)
  (0.0536691 -0.0113967 0)
  (0.0538034 -0.00626704 0)
  (0.0559796 -0.00392465 0)
  (0.0584045 -0.00308994 0)
  (0.0607625 -0.00238799 0)
  (0.0629503 -0.00087358 0)
  (0.064586 0.00200964 0)
  (0.0644893 0.00636789 0)
  (0.0620764 0.0123582 0)
  (0.0566585 0.0206273 0)
  (0.0500826 0.0360816 0)
  (0.041056 0.0546204 0)
  (0.0619905 0.0751149 0)
  (-0.0171126 0.104309 0)
  (0.0453395 0.0339518 0)
  (-0.0613273 -0.034428 0)
  (-0.26892 -0.0567025 0)
  (0.71507 0.427961 0)
  (-0.283493 0.188048 0)
  (-0.00564711 0.119905 0)
  (-0.0118024 0.0916833 0)
  (-0.0049915 0.0623713 0)
  (0.00518419 0.0208757 0)
  (0.0337729 -0.0333871 0)
  (0.0548431 -0.0816263 0)
  (0.0696854 -0.116059 0)
  (0.0782494 -0.135276 0)
  (0.0813024 -0.140467 0)
  (0.0803288 -0.134346 0)
  (0.0766999 -0.119951 0)
  (0.071821 -0.100266 0)
  (0.0671691 -0.0781909 0)
  (0.064106 -0.0564148 0)
  (0.0635205 -0.0386611 0)
  (0.0630503 -0.0295098 0)
  (0.0590185 -0.0271554 0)
  (0.0514123 -0.024982 0)
  (0.0431907 -0.0213587 0)
  (0.0366179 -0.0173752 0)
  (0.0321157 -0.0135087 0)
  (0.029854 -0.00983499 0)
  (0.0298112 -0.0070056 0)
  (0.0315104 -0.00608365 0)
  (0.0340243 -0.00608051 0)
  (0.0370095 -0.00580353 0)
  (0.0403036 -0.00428096 0)
  (0.0436865 -0.000654492 0)
  (0.046682 0.00534543 0)
  (0.0482486 0.0133961 0)
  (0.0485964 0.0237024 0)
  (0.049138 0.0380431 0)
  (0.0484391 0.0560066 0)
  (0.0703963 0.0788568 0)
  (0.0522475 0.0973922 0)
  (0.0914313 0.0683359 0)
  (0.11446 0.0445578 0)
  (-0.128328 -0.00742867 0)
  (0.767908 0.468572 0)
  (-0.302068 0.173439 0)
  (0.0220312 0.0677505 0)
  (0.0494423 0.063014 0)
  (0.0700847 0.0441127 0)
  (0.102816 -0.00335951 0)
  (0.1346 -0.0570369 0)
  (0.152966 -0.0981373 0)
  (0.159038 -0.123979 0)
  (0.154888 -0.135523 0)
  (0.143141 -0.13491 0)
  (0.126656 -0.124983 0)
  (0.107975 -0.108645 0)
  (0.0892515 -0.088819 0)
  (0.0722384 -0.0680901 0)
  (0.0580431 -0.0485266 0)
  (0.0471765 -0.0327807 0)
  (0.0385292 -0.023231 0)
  (0.0301139 -0.0189235 0)
  (0.0215713 -0.0165479 0)
  (0.0139083 -0.0142569 0)
  (0.00809486 -0.0121077 0)
  (0.00432724 -0.0102759 0)
  (0.00260144 -0.00878971 0)
  (0.00275128 -0.00800137 0)
  (0.004269 -0.00829508 0)
  (0.00654105 -0.00902639 0)
  (0.00934933 -0.00933761 0)
  (0.0127457 -0.00837374 0)
  (0.0168666 -0.00513263 0)
  (0.0226424 0.00135518 0)
  (0.0283884 0.0101761 0)
  (0.0338475 0.020591 0)
  (0.0408451 0.0332643 0)
  (0.0486645 0.0479447 0)
  (0.0704479 0.0663679 0)
  (0.084018 0.0747285 0)
  (0.115867 0.0526503 0)
  (0.155432 0.0439711 0)
  (-0.0364046 0.0925594 0)
  (0.872694 0.469938 0)
  (-0.0644437 0.1521 0)
  (0.109926 -0.0138215 0)
  (0.181642 -0.0409011 0)
  (0.212031 -0.0525271 0)
  (0.243519 -0.0750664 0)
  (0.261362 -0.0973985 0)
  (0.262219 -0.113324 0)
  (0.247663 -0.120865 0)
  (0.22177 -0.120065 0)
  (0.189036 -0.112147 0)
  (0.153499 -0.0989246 0)
  (0.118308 -0.0821575 0)
  (0.0858563 -0.0640324 0)
  (0.0577541 -0.0464693 0)
  (0.0346256 -0.0306751 0)
  (0.0172583 -0.0187974 0)
  (0.0047326 -0.0121463 0)
  (-0.0048733 -0.00955185 0)
  (-0.0122152 -0.00878254 0)
  (-0.0180394 -0.00837223 0)
  (-0.022277 -0.00815075 0)
  (-0.0250362 -0.00815017 0)
  (-0.0264672 -0.00840914 0)
  (-0.0268017 -0.00906461 0)
  (-0.0264512 -0.0101828 0)
  (-0.0258025 -0.0114425 0)
  (-0.0249637 -0.0123922 0)
  (-0.0237749 -0.0125384 0)
  (-0.0218365 -0.011293 0)
  (-0.018172 -0.00791201 0)
  (-0.00952776 -0.00170648 0)
  (-0.00117611 0.00634599 0)
  (0.00938115 0.014559 0)
  (0.0211022 0.0216449 0)
  (0.0409266 0.0290113 0)
  (0.0600071 0.0226088 0)
  (0.0800689 -0.00460864 0)
  (0.13898 0.0390423 0)
  (-0.405596 0.202623 0)
  (1.01962 0.423037 0)
  (0.485059 0.279574 0)
  (0.499895 0.183094 0)
  (0.526246 0.111865 0)
  (0.507252 0.0606126 0)
  (0.465404 0.0134676 0)
  (0.41669 -0.0258717 0)
  (0.36316 -0.0528409 0)
  (0.305107 -0.0666381 0)
  (0.245439 -0.0692618 0)
  (0.187625 -0.0640812 0)
  (0.134263 -0.0542611 0)
  (0.0869202 -0.0416876 0)
  (0.0471529 -0.0285769 0)
  (0.0150458 -0.0167334 0)
  (-0.0104114 -0.00722748 0)
  (-0.0254166 -0.00294761 0)
  (-0.0346732 -0.00188869 0)
  (-0.0409014 -0.00238629 0)
  (-0.0457297 -0.00338274 0)
  (-0.0496775 -0.00439834 0)
  (-0.0528813 -0.0053979 0)
  (-0.055453 -0.00641223 0)
  (-0.0575568 -0.00747542 0)
  (-0.0594364 -0.00862671 0)
  (-0.0614444 -0.00984897 0)
  (-0.0639319 -0.0109288 0)
  (-0.0671961 -0.0114998 0)
  (-0.071554 -0.0110356 0)
  (-0.0774341 -0.00882883 0)
  (-0.0853809 -0.00405444 0)
  (-0.0953611 0.00384421 0)
  (-0.105519 0.0143452 0)
  (-0.120318 0.0276684 0)
  (-0.143546 0.0439416 0)
  (-0.177704 0.0621018 0)
  (-0.226148 0.0782772 0)
  (-0.281895 0.089899 0)
  (-0.349892 0.096908 0)
  (-0.609578 0.099829 0)
  (-0.15103 0.00211169 0)
  (0.1215 0.00201187 0)
  (0.200777 -0.0312897 0)
  (0.187725 -0.0415141 0)
  (0.171657 -0.0397412 0)
  (0.149598 -0.0350149 0)
  (0.12017 -0.0289355 0)
  (0.0864428 -0.0216534 0)
  (0.0519237 -0.0136363 0)
  (0.0171114 -0.00549253 0)
  (-0.016376 0.00211295 0)
  (-0.0388564 0.00646099 0)
  (-0.0543715 0.00882736 0)
  (-0.0636701 0.0093541 0)
  (-0.0688005 0.00853717 0)
  (-0.0723552 0.00760327 0)
  (-0.0751592 0.00682109 0)
  (-0.0776445 0.00620162 0)
  (-0.0801386 0.00566598 0)
  (-0.082768 0.00496735 0)
  (-0.0855117 0.00417256 0)
  (-0.0884521 0.00330483 0)
  (-0.0917144 0.00242842 0)
  (-0.0954402 0.00166169 0)
  (-0.0997047 0.00124706 0)
  (-0.104504 0.00149314 0)
  (-0.109764 0.00272515 0)
  (-0.115306 0.00524613 0)
  (-0.120517 0.00956772 0)
  (-0.124647 0.0165921 0)
  (-0.128064 0.0274469 0)
  (-0.130979 0.0425161 0)
  (-0.134061 0.0609889 0)
  (-0.137748 0.0794464 0)
  (-0.138999 0.0883565 0)
  (-0.121513 0.0672096 0)
  (-0.0784154 -0.0231163 0)
  (-0.274126 -0.198511 0)
  (0.0152053 0.194699 0)
  (0.0413053 0.070474 0)
  (0.000378555 0.0060135 0)
  (-0.0124851 -0.00208476 0)
  (-0.0257078 -0.000154289 0)
  (-0.0405404 9.87496e-05 0)
  (-0.0567743 0.00115853 0)
  (-0.0722765 0.00338797 0)
  (-0.084551 0.00550113 0)
  (-0.0913689 0.0058635 0)
  (-0.0957252 0.00397069 0)
  (-0.0975552 -7.36359e-06 0)
  (-0.0978806 -0.00453167 0)
  (-0.0973507 -0.00938951 0)
  (-0.0968663 -0.0145681 0)
  (-0.096965 -0.0195968 0)
  (-0.0976788 -0.0241936 0)
  (-0.0989186 -0.0281034 0)
  (-0.100564 -0.0311456 0)
  (-0.102545 -0.0332417 0)
  (-0.104922 -0.0345505 0)
  (-0.107604 -0.0350336 0)
  (-0.110493 -0.0346278 0)
  (-0.1135 -0.0335242 0)
  (-0.1165 -0.0317314 0)
  (-0.119252 -0.0290157 0)
  (-0.121379 -0.0249567 0)
  (-0.122401 -0.0189355 0)
  (-0.121892 -0.0110333 0)
  (-0.118974 -0.000945544 0)
  (-0.112278 0.0120549 0)
  (-0.100523 0.0286117 0)
  (-0.0832691 0.0482346 0)
  (-0.0612807 0.0669914 0)
  (-0.0374461 0.0779372 0)
  (0.00244793 0.0619677 0)
  (0.143049 -0.008275 0)
  (-0.204928 -0.108561 0)
  (-0.0435672 -0.319884 0)
  (-0.413219 -0.12318 0)
  (-0.301238 0.0644536 0)
  (-0.249657 -0.0172579 0)
  (-0.209808 -0.0227323 0)
  (-0.19849 -0.01176 0)
  (-0.194004 -0.00210558 0)
  (-0.190533 0.00589273 0)
  (-0.186029 0.0134014 0)
  (-0.179582 0.020871 0)
  (-0.171018 0.0283836 0)
  (-0.160649 0.0358446 0)
  (-0.149602 0.0430894 0)
  (-0.139033 0.0501023 0)
  (-0.129737 0.0571467 0)
  (-0.121994 0.0641599 0)
  (-0.115849 0.0710783 0)
  (-0.111135 0.0776743 0)
  (-0.107615 0.0835473 0)
  (-0.105082 0.0883365 0)
  (-0.103351 0.0918117 0)
  (-0.102266 0.0938695 0)
  (-0.101739 0.0945975 0)
  (-0.10173 0.0939478 0)
  (-0.102195 0.0918798 0)
  (-0.103052 0.0887926 0)
  (-0.104174 0.0849455 0)
  (-0.105346 0.0804297 0)
  (-0.106183 0.0752883 0)
  (-0.106015 0.0696068 0)
  (-0.103577 0.064652 0)
  (-0.0970349 0.0613387 0)
  (-0.0840204 0.0605526 0)
  (-0.0627347 0.0632553 0)
  (-0.0336358 0.0699816 0)
  (0.0121354 0.079805 0)
  (0.0551719 0.0807545 0)
  (0.0960085 0.0679485 0)
  (0.16101 0.0422579 0)
  (-0.232017 -0.00785194 0)
)
;

boundaryField
{
  floor
  {
    type noSlip;
  }
  ceiling
  {
    type noSlip;
  }
  sWall
  {
    type noSlip;
  }
  nWall
  {
    type noSlip;
  }
  sideWalls
  {
    type empty;
  }
  glass1
  {
    type noSlip;
  }
  glass2
  {
    type noSlip;
  }
  sun
  {
    type noSlip;
  }
  heatsource1
  {
    type noSlip;
  }
  heatsource2
  {
    type noSlip;
  }
  Table_master
  {
    type noSlip;
  }
  Table_slave
  {
    type noSlip;
  }
  inlet
  {
    type fixedValue;
    value uniform (0.277164 -0.114805 0);
  }
  outlet
  {
    type zeroGradient;
  }
} 	// ************************************************************************* //

