/*--------------------------------*- C++ -*----------------------------------*\
  =========                 |
  \\      /  F ield         | OpenFOAM: The Open Source CFD Toolbox
   \\    /   O peration     | Website:  https://openfoam.org
    \\  /    A nd           | Version:  6
     \\/     M anipulation  |
\*---------------------------------------------------------------------------*/
FoamFile
{
    version     2.0;
    format      ascii;
    class       volVectorField;
    location    "180";
    object      U;
}
// * * * * * * * * * * * * * * * * * * * * * * * * * * * * * * * * * * * * * //

dimensions      [0 1 -1 0 0 0 0];

internalField   nonuniform List<vector> 
459
(
(-0.125482 -0.128252 0)
(0.172554 -0.0580328 0)
(0.211549 -0.040201 0)
(0.214903 -0.0285529 0)
(0.223526 -0.0179388 0)
(0.228152 -0.0105831 0)
(0.224971 -0.00565269 0)
(0.216998 -0.00206192 0)
(0.20656 0.00083696 0)
(0.194261 0.00341903 0)
(0.179766 0.00608511 0)
(0.16213 0.00944756 0)
(0.139367 0.0147763 0)
(0.104823 0.0263856 0)
(0.099221 0.0576615 0)
(-0.125545 -0.00261513 0)
(0.0437947 -0.00637969 0)
(0.0332016 -0.0107667 0)
(0.0396087 -0.00992943 0)
(0.0504782 -0.00666249 0)
(0.0573512 -0.00377704 0)
(0.0598707 -0.00245781 0)
(0.0605219 -0.00185948 0)
(0.0608968 -0.00142226 0)
(0.0611799 -0.00107973 0)
(0.0611915 -0.000827736 0)
(0.0608459 -0.000587772 0)
(0.0600132 -0.000221224 0)
(0.058294 0.000510388 0)
(0.0548432 0.00210029 0)
(0.0480624 0.00537763 0)
(0.0440331 0.0092719 0)
(-0.0474315 0.019546 0)
(0.173046 -0.0102623 0)
(-0.311487 -0.171423 0)
(0.179826 -0.0596855 0)
(0.150736 -0.0483232 0)
(0.151393 -0.0267399 0)
(0.161708 -0.00685233 0)
(0.165641 0.00528962 0)
(0.162597 0.0117761 0)
(0.156314 0.01562 0)
(0.148642 0.0183361 0)
(0.139973 0.0207666 0)
(0.130236 0.0237113 0)
(0.119289 0.0281339 0)
(0.107421 0.0353984 0)
(0.0940568 0.0479361 0)
(0.0969702 0.0727591 0)
(0.0871733 0.0645015 0)
(0.052645 0.05426 0)
(-0.172842 -0.00517387 0)
(0.0490627 -0.0276578 0)
(0.0367461 -0.0258165 0)
(0.0437509 -0.0192419 0)
(0.0522045 -0.0104512 0)
(0.0558436 -0.00302727 0)
(0.0560585 -0.00115692 0)
(0.0558412 -0.000493517 0)
(0.0560874 0.0001538 0)
(0.0564221 0.000772298 0)
(0.0566507 0.0013178 0)
(0.0567601 0.00191408 0)
(0.0567611 0.00282878 0)
(0.0565338 0.00453486 0)
(0.0554303 0.00813083 0)
(0.0501649 0.0170593 0)
(0.0471143 0.0237587 0)
(-0.0358082 0.0310109 0)
(0.21911 0.0144046 0)
(-0.446056 -0.219214 0)
(0.204488 -0.109331 0)
(0.0870957 -0.0843879 0)
(0.0903715 -0.0426333 0)
(0.099904 -0.0144127 0)
(0.100249 0.00140919 0)
(0.0967072 0.0107336 0)
(0.0926155 0.0168058 0)
(0.0885513 0.0212159 0)
(0.084415 0.025037 0)
(0.0802115 0.0292749 0)
(0.0761234 0.0349391 0)
(0.0726584 0.0430364 0)
(0.0690132 0.0543346 0)
(0.0712138 0.0703401 0)
(0.0637791 0.0662214 0)
(0.0477146 0.0787281 0)
(-0.128072 -0.0191497 0)
(0.0466457 -0.0455264 0)
(0.0511182 -0.0417049 0)
(0.054242 -0.0289266 0)
(0.057911 -0.0144178 0)
(0.0567701 -0.00151015 0)
(0.0506852 -0.00322709 0)
(0.0483736 -0.00322173 0)
(0.0478663 -0.0032071 0)
(0.0476334 -0.00317689 0)
(0.0475002 -0.00317153 0)
(0.0477022 -0.00307139 0)
(0.0485272 -0.00266372 0)
(0.0507766 -0.00148231 0)
(0.0564039 0.00255017 0)
(0.0539216 0.0219132 0)
(0.0503057 0.0328887 0)
(-0.0275746 0.0396018 0)
(0.246131 0.0384818 0)
(-0.551394 -0.241774 0)
(0.226324 -0.145338 0)
(0.0143336 -0.0992244 0)
(0.0307923 -0.0389014 0)
(0.036424 -0.00860855 0)
(0.0332586 0.00600835 0)
(0.0314877 0.0143836 0)
(0.0311199 0.0198622 0)
(0.0313649 0.0238232 0)
(0.0319202 0.0272801 0)
(0.0329121 0.0311238 0)
(0.0346591 0.0361707 0)
(0.0376444 0.043099 0)
(0.0413897 0.052327 0)
(0.0502082 0.0651973 0)
(0.0605708 0.0710023 0)
(0.0738788 0.0840056 0)
(0.100671 -0.0644021 0)
(0.0935448 -0.0486446 0)
(0.0874638 -0.0512557 0)
(0.0752179 -0.0445549 0)
(0.0675515 -0.0306561 0)
(0.0654832 -0.0152785 0)
(0.0676298 -0.000373359 0)
(0.0712191 0.00119667 0)
(0.0696718 0.000544467 0)
(0.0658571 0.000443832 0)
(0.0611847 0.00069308 0)
(0.055614 0.00114362 0)
(0.0487923 0.00180356 0)
(0.0403998 0.00277936 0)
(0.0300612 0.00431379 0)
(0.00528164 0.00720277 0)
(0.0208103 0.0325344 0)
(0.0358368 0.0386084 0)
(-0.0270173 0.0411559 0)
(0.262819 0.0715194 0)
(-0.610459 -0.241435 0)
(0.210782 -0.160182 0)
(-0.0576337 -0.0982592 0)
(-0.0162862 -0.028075 0)
(-0.018674 -0.00342061 0)
(-0.0218079 0.00733916 0)
(-0.021385 0.013901 0)
(-0.0194474 0.0184806 0)
(-0.0166007 0.0219014 0)
(-0.013005 0.0247912 0)
(-0.00848325 0.0277619 0)
(-0.00264566 0.0314795 0)
(0.00544477 0.0367857 0)
(0.0152941 0.0438734 0)
(0.0304053 0.0533728 0)
(0.0488533 0.0578753 0)
(0.0719226 0.0560871 0)
(0.0914786 0.0081224 0)
(0.0899511 -0.0157219 0)
(0.077423 -0.0296561 0)
(0.064956 -0.0299389 0)
(0.0556002 -0.0216516 0)
(0.0500182 -0.0109225 0)
(0.0476934 -0.00157539 0)
(0.0454276 0.00236786 0)
(0.0422627 0.00443587 0)
(0.0381471 0.00622142 0)
(0.033561 0.00793337 0)
(0.0284983 0.00966125 0)
(0.0227546 0.0116012 0)
(0.0162337 0.0139706 0)
(0.00986142 0.0168075 0)
(-0.00215557 0.0180561 0)
(0.00399951 0.0203388 0)
(0.0265971 0.0264121 0)
(-0.00473188 0.0228077 0)
(0.127615 0.0647192 0)
(0.0880049 0.0633428 0)
(-0.0983298 0.0620114 0)
(0.341952 -0.0213046 0)
(-0.649401 -0.221226 0)
(0.171511 -0.156268 0)
(-0.0879997 -0.0960958 0)
(-0.047483 -0.0250055 0)
(-0.0543203 -0.00179319 0)
(-0.0579838 0.00730931 0)
(-0.0582034 0.0120996 0)
(-0.0563012 0.0153221 0)
(-0.0527826 0.0176649 0)
(-0.0478543 0.0194532 0)
(-0.0414635 0.0210418 0)
(-0.0333524 0.0228771 0)
(-0.0230061 0.0254988 0)
(-0.0103993 0.0291945 0)
(0.00812922 0.0341523 0)
(0.0281222 0.0338269 0)
(0.0504406 0.0248704 0)
(0.0617637 -0.00112448 0)
(0.0604556 -0.0187318 0)
(0.051301 -0.0245624 0)
(0.0405328 -0.0218082 0)
(0.0311789 -0.014404 0)
(0.0244697 -0.00582911 0)
(0.0200606 0.00158465 0)
(0.0175885 0.00589016 0)
(0.0151652 0.00812378 0)
(0.0122825 0.00990791 0)
(0.00903741 0.0117902 0)
(0.00546907 0.0139339 0)
(0.00162918 0.0164873 0)
(-0.00218397 0.0194572 0)
(-0.00428144 0.021516 0)
(-0.00693142 0.0189503 0)
(-0.00329462 0.00957124 0)
(0.00754099 0.0060014 0)
(-0.00982748 -0.00781632 0)
(0.0356746 0.0308233 0)
(0.0358226 0.0603873 0)
(-0.135418 0.0747719 0)
(0.346593 -0.0429652 0)
(-0.69032 -0.181262 0)
(0.132339 -0.13975 0)
(-0.110291 -0.0987335 0)
(-0.0673124 -0.0198243 0)
(-0.0764457 0.00217323 0)
(-0.07993 0.00883503 0)
(-0.0810726 0.0112639 0)
(-0.0799189 0.0124099 0)
(-0.0767253 0.0129403 0)
(-0.0716729 0.0129911 0)
(-0.0647928 0.0127279 0)
(-0.055995 0.0124432 0)
(-0.0451272 0.0124723 0)
(-0.0321561 0.0129257 0)
(-0.0162972 0.013805 0)
(0.00180311 0.0124963 0)
(0.0187546 0.00658324 0)
(0.0252984 -0.0050884 0)
(0.0246837 -0.0133789 0)
(0.0181568 -0.0154305 0)
(0.00978606 -0.0124703 0)
(0.00230614 -0.00680875 0)
(-0.00316896 -0.000474687 0)
(-0.0059948 0.00448662 0)
(-0.00717364 0.00772484 0)
(-0.00825402 0.00997564 0)
(-0.00958902 0.0120327 0)
(-0.0111372 0.0141925 0)
(-0.0127233 0.0164918 0)
(-0.0140073 0.0188044 0)
(-0.0143692 0.0206165 0)
(-0.012973 0.0205178 0)
(-0.0109547 0.015873 0)
(-0.00810954 0.00712069 0)
(-0.00625002 0.00237618 0)
(-0.013168 0.000978859 0)
(0.00158721 0.0285296 0)
(0.00973657 0.0763944 0)
(-0.180172 0.0868133 0)
(0.437799 -0.0510614 0)
(-0.731906 -0.106284 0)
(0.0836758 -0.10494 0)
(-0.142624 -0.121661 0)
(-0.0800432 -0.0280452 0)
(-0.0882377 0.00413763 0)
(-0.0893661 0.0111984 0)
(-0.0905994 0.0116652 0)
(-0.0900285 0.010637 0)
(-0.0875003 0.00915951 0)
(-0.0831452 0.00732653 0)
(-0.0770143 0.00522299 0)
(-0.0691806 0.00308377 0)
(-0.0597955 0.00125267 0)
(-0.0491258 3.87129e-05 0)
(-0.0373593 -0.000413372 0)
(-0.0252575 -0.000789757 0)
(-0.0148152 -0.00211338 0)
(-0.00940267 -0.00564426 0)
(-0.00928197 -0.00847232 0)
(-0.0131695 -0.00813492 0)
(-0.018226 -0.00521555 0)
(-0.0225618 -0.00122215 0)
(-0.0253617 0.00269587 0)
(-0.0262375 0.00588852 0)
(-0.0263248 0.00853165 0)
(-0.0261941 0.0108859 0)
(-0.0260233 0.0131293 0)
(-0.0257532 0.0153026 0)
(-0.0251841 0.0173105 0)
(-0.0239889 0.0188758 0)
(-0.0217415 0.019406 0)
(-0.0182031 0.0178919 0)
(-0.0141769 0.0132547 0)
(-0.0104992 0.00674873 0)
(-0.00762613 0.00237998 0)
(-0.0052689 0.00221183 0)
(0.0102072 0.0230268 0)
(0.0399611 0.0708977 0)
(-0.137064 0.0666823 0)
(0.741425 -0.00290507 0)
(-0.786623 0.0578659 0)
(0.00550316 -0.0696567 0)
(-0.203438 -0.163332 0)
(-0.0657101 -0.0491598 0)
(-0.0808434 0.00795628 0)
(-0.082738 0.0174312 0)
(-0.0834292 0.0158438 0)
(-0.0823257 0.0128231 0)
(-0.0799315 0.00968995 0)
(-0.0763648 0.00637742 0)
(-0.0714971 0.00285452 0)
(-0.065869 -0.000493605 0)
(-0.0597716 -0.00323136 0)
(-0.0534056 -0.00495928 0)
(-0.0470035 -0.0054228 0)
(-0.0408937 -0.00488927 0)
(-0.0357915 -0.00403456 0)
(-0.0329626 -0.00361782 0)
(-0.0328452 -0.00295052 0)
(-0.0345387 -0.0011748 0)
(-0.0367077 0.00152117 0)
(-0.038481 0.00442093 0)
(-0.0392165 0.00698721 0)
(-0.0390511 0.00927851 0)
(-0.0383209 0.011473 0)
(-0.0372028 0.013599 0)
(-0.0357551 0.0156113 0)
(-0.0339451 0.017413 0)
(-0.0316802 0.0188297 0)
(-0.0288283 0.0195575 0)
(-0.0252732 0.0191095 0)
(-0.0210997 0.0168596 0)
(-0.0168711 0.0124064 0)
(-0.0131174 0.00653947 0)
(-0.00966495 0.00101732 0)
(-0.00444259 -0.00134146 0)
(0.0129769 0.0102393 0)
(0.0441864 0.0408751 0)
(-0.0976604 0.0334209 0)
(0.732709 0.0418143 0)
(-0.251537 -0.105906 0)
(-0.0144555 -0.0311737 0)
(-0.0463918 0.0190477 0)
(-0.0616534 0.0207776 0)
(-0.0601125 0.0144755 0)
(-0.0561429 0.00836423 0)
(-0.0525752 0.00276442 0)
(-0.0493419 -0.0032209 0)
(-0.0468526 -0.00893572 0)
(-0.0450542 -0.0136989 0)
(-0.043816 -0.0173153 0)
(-0.042965 -0.0193282 0)
(-0.0423101 -0.0193099 0)
(-0.0417639 -0.017329 0)
(-0.0414573 -0.0139392 0)
(-0.0418305 -0.0100464 0)
(-0.042954 -0.00604692 0)
(-0.0443022 -0.001924 0)
(-0.0453162 0.00214346 0)
(-0.0458055 0.00526294 0)
(-0.0457018 0.00739407 0)
(-0.0450355 0.00917157 0)
(-0.0438412 0.0107502 0)
(-0.0421213 0.0121271 0)
(-0.0398729 0.0132363 0)
(-0.037098 0.0139753 0)
(-0.0338162 0.0141941 0)
(-0.030088 0.0136641 0)
(-0.0260645 0.0120555 0)
(-0.0220849 0.00898077 0)
(-0.01877 0.00417571 0)
(-0.0168565 -0.00232598 0)
(-0.0167902 -0.0094515 0)
(-0.0167744 -0.0133962 0)
(-0.012101 -0.00572676 0)
(-0.00978611 0.0151985 0)
(-0.147868 0.0147674 0)
(0.432408 0.073447 0)
(-0.258868 -0.188601 0)
(-0.0360088 -0.140959 0)
(-0.0442931 -0.11536 0)
(-0.0388158 -0.108489 0)
(-0.0281362 -0.109141 0)
(-0.0202642 -0.1089 0)
(-0.0154856 -0.107457 0)
(-0.0131126 -0.105656 0)
(-0.0129928 -0.103882 0)
(-0.0148019 -0.102332 0)
(-0.0180535 -0.100885 0)
(-0.0220269 -0.0993293 0)
(-0.0258838 -0.0977174 0)
(-0.0294811 -0.0973597 0)
(-0.0329009 -0.0982761 0)
(-0.0364276 -0.0992723 0)
(-0.0398407 -0.100512 0)
(-0.0428502 -0.101805 0)
(-0.0450145 -0.101985 0)
(-0.0461558 -0.100722 0)
(-0.0465054 -0.0993857 0)
(-0.0462627 -0.0981656 0)
(-0.045434 -0.0968997 0)
(-0.0439876 -0.0955073 0)
(-0.0419039 -0.093995 0)
(-0.0391933 -0.0924417 0)
(-0.0359122 -0.0910209 0)
(-0.0321946 -0.0900467 0)
(-0.0283157 -0.0899958 0)
(-0.0247969 -0.0914049 0)
(-0.0224692 -0.0944468 0)
(-0.0222086 -0.0978777 0)
(-0.0246834 -0.0979101 0)
(-0.0285289 -0.0989292 0)
(-0.0324694 -0.0964056 0)
(-0.0502886 -0.0780197 0)
(-0.120144 -0.0627086 0)
(0.347028 -0.0354071 0)
(-0.9976 -0.067638 0)
(0.260911 0.190513 0)
(0.0629808 0.622009 0)
(0.0530495 0.51928 0)
(0.0694657 0.446425 0)
(0.0750359 0.419154 0)
(0.0724132 0.410121 0)
(0.0668632 0.403228 0)
(0.0608112 0.396115 0)
(0.0542222 0.389483 0)
(0.0466466 0.383563 0)
(0.0379061 0.37844 0)
(0.0279633 0.374042 0)
(0.0169889 0.370416 0)
(0.00526134 0.367554 0)
(-0.00729845 0.365374 0)
(-0.0171754 0.364741 0)
(-0.0255401 0.365164 0)
(-0.0321414 0.366823 0)
(-0.0371565 0.369496 0)
(-0.0407367 0.371086 0)
(-0.0429795 0.370909 0)
(-0.0440667 0.371084 0)
(-0.0441919 0.371611 0)
(-0.0434595 0.372228 0)
(-0.0419546 0.37278 0)
(-0.0397785 0.373155 0)
(-0.037072 0.373249 0)
(-0.0340419 0.372981 0)
(-0.0309819 0.372338 0)
(-0.0282935 0.371436 0)
(-0.0265626 0.370572 0)
(-0.0267082 0.370062 0)
(-0.0294749 0.368974 0)
(-0.032873 0.361651 0)
(-0.0336015 0.357544 0)
(-0.0386056 0.356003 0)
(-0.0778782 0.344861 0)
(-0.161634 0.349678 0)
(0.471547 0.397937 0)
)
;

boundaryField
{
    floor
    {
        type            noSlip;
    }
    ceiling
    {
        type            noSlip;
    }
    sWall
    {
        type            noSlip;
    }
    nWall
    {
        type            noSlip;
    }
    sideWalls
    {
        type            empty;
    }
    glass1
    {
        type            noSlip;
    }
    glass2
    {
        type            noSlip;
    }
    sun
    {
        type            noSlip;
    }
    heatsource1
    {
        type            noSlip;
    }
    heatsource2
    {
        type            noSlip;
    }
    Table_master
    {
        type            noSlip;
    }
    Table_slave
    {
        type            noSlip;
    }
    inlet
    {
        type            fixedValue;
        value           uniform (0.2 0 0);
    }
    outlet
    {
        type            zeroGradient;
    }
}


// ************************************************************************* //
