/*--------------------------------*- C++ -*----------------------------------*\
  =========                 |
  \\      /  F ield         | OpenFOAM: The Open Source CFD Toolbox
   \\    /   O peration     | Website:  https://openfoam.org
    \\  /    A nd           | Version:  6
     \\/     M anipulation  |
\*---------------------------------------------------------------------------*/
FoamFile
{
    version     2.0;
    format      ascii;
    class       volScalarField;
    location    "120";
    object      alphat;
}
// * * * * * * * * * * * * * * * * * * * * * * * * * * * * * * * * * * * * * //

dimensions      [1 -1 -1 0 0 0 0];

internalField   nonuniform List<scalar> 
459
(
0.00125268
0.00140443
0.00147941
0.00157506
0.00167577
0.00177646
0.00185591
0.00190093
0.00188967
0.00179068
0.00168137
0.00155479
0.00141579
0.00128429
0.00114199
0.000722693
0.000901246
0.00102124
0.00111068
0.00112373
0.001096
0.0010239
0.000948327
0.000882005
0.0008256
0.000777555
0.000736329
0.000700394
0.0006689
0.000640107
0.000612007
0.000581866
0.000538677
0.000495183
0.00156135
0.00416736
0.00431469
0.00506767
0.00575333
0.00628182
0.00676707
0.00722334
0.00758819
0.00760313
0.00729231
0.00676749
0.00590204
0.00461345
0.00303189
0.001303
0.00110675
0.000921202
0.00295767
0.00347164
0.00409902
0.00453652
0.0043993
0.00299367
0.00245157
0.00211148
0.00187332
0.00169862
0.00156653
0.00146575
0.0013665
0.00125319
0.00113858
0.00105177
0.00087531
0.000553343
0.00181763
0.00575938
0.00546885
0.00605557
0.00640204
0.00666862
0.00700329
0.0075675
0.00827086
0.0086725
0.00872622
0.00849563
0.007989
0.0069675
0.00542917
0.00339305
0.00124659
0.00102074
0.00344691
0.00381163
0.004772
0.00558188
0.00525897
0.00137299
0.00118744
0.00103905
0.000921879
0.000829121
0.000755164
0.000695839
0.000650267
0.000619502
0.00072555
0.000898647
0.00098141
0.000595128
0.00206386
0.00703647
0.0058878
0.00628931
0.00629528
0.00626907
0.00644634
0.0071096
0.00798
0.00863503
0.00893961
0.00893371
0.00867985
0.00807536
0.00700169
0.00530845
0.00276416
0.0013548
0.00174942
0.0027356
0.00432217
0.00591371
0.00696139
0.00648897
0.0015344
0.00139879
0.0012914
0.00120393
0.00112615
0.00105236
0.000978883
0.00090263
0.000818465
0.000761473
0.000844428
0.00112421
0.000657688
0.00231826
0.00853872
0.00661343
0.00673609
0.0064201
0.00604753
0.00612948
0.00684975
0.00782731
0.00862589
0.00904532
0.00912439
0.00897846
0.00863888
0.00802227
0.00698933
0.00546744
0.00472998
0.00541645
0.00660989
0.00786204
0.0088355
0.00936141
0.00921242
0.00762758
0.00670794
0.00607549
0.0054258
0.00476842
0.0041079
0.00344209
0.00276551
0.00207925
0.00147996
0.00116443
0.00127454
0.000959856
0.000711699
0.00067217
0.000615013
0.00258887
0.010221
0.0083892
0.00773831
0.00671576
0.00599591
0.00605066
0.00686567
0.00797959
0.0088874
0.00936095
0.00946822
0.00940206
0.00930496
0.00913795
0.00882635
0.00844644
0.00872301
0.00966785
0.0104919
0.0110677
0.0113333
0.0112881
0.0109243
0.0101795
0.00936786
0.00849415
0.00757277
0.00662501
0.0056686
0.0047149
0.0037727
0.00286553
0.00209155
0.0016013
0.00147148
0.00127369
0.0010669
0.0011402
0.000681023
0.00280877
0.0112601
0.0105009
0.0085489
0.00676903
0.00586259
0.00607479
0.00713197
0.00844606
0.00945936
0.00997238
0.0101452
0.0102793
0.0104878
0.0106646
0.0108299
0.0111067
0.0117125
0.0124003
0.012769
0.0128151
0.0125806
0.012126
0.0115042
0.0107441
0.00990149
0.00899092
0.0080262
0.00702101
0.00601055
0.00502024
0.00407189
0.00318865
0.00244793
0.00196386
0.001694
0.00147207
0.00127444
0.00136652
0.000746956
0.00284602
0.00935329
0.00868712
0.00692877
0.00561109
0.00534811
0.00619439
0.00772585
0.00928121
0.0103433
0.0108761
0.0111794
0.011505
0.0116447
0.0118278
0.0121364
0.0125698
0.0130505
0.0133625
0.0133423
0.0129943
0.0123989
0.011638
0.0107611
0.00986507
0.00899262
0.00812181
0.00723529
0.0063361
0.00544628
0.00459414
0.00380663
0.00310884
0.00253956
0.00213985
0.00182708
0.00166741
0.001325
0.00185783
0.000809503
0.00277201
0.00324102
0.003316
0.0032501
0.00360151
0.00487637
0.00688077
0.0089677
0.0105509
0.0113881
0.0118699
0.0118555
0.0117021
0.0116602
0.0118075
0.0120993
0.0124221
0.0126161
0.0125446
0.0121642
0.0115146
0.0106555
0.0096939
0.00874727
0.00786378
0.00705066
0.00627949
0.00552585
0.00478651
0.00407529
0.00341276
0.00281632
0.00229429
0.00186255
0.0015758
0.00144571
0.00142676
0.00144322
0.0014598
0.00105813
0.000710817
0.00187512
0.00469803
0.00764225
0.00991094
0.0112297
0.0118586
0.0116962
0.0113125
0.0109566
0.0107796
0.010774
0.0108737
0.0109898
0.0110183
0.0108622
0.0104868
0.00993074
0.00927107
0.00858362
0.00792678
0.00733112
0.00679654
0.00630571
0.00583797
0.00537911
0.00492078
0.00445583
0.00397688
0.00348213
0.00298847
0.00254026
0.00219018
0.00196145
0.00184386
0.00180733
0.00185918
0.00140669
0.0019469
0.00838863
0.0109657
0.011888
0.0120923
0.0116919
0.0109705
0.0102584
0.00974978
0.00947286
0.00935907
0.00933683
0.00935096
0.00935862
0.00932002
0.00920434
0.009005
0.00874166
0.0084455
0.00814533
0.00786011
0.00759675
0.00735386
0.00712736
0.00691224
0.00670217
0.00648696
0.00624982
0.00596674
0.00561038
0.00516061
0.00462109
0.00403422
0.00347801
0.00302871
0.00274564
0.00321047
0.00167237
0.00196891
0.00214065
0.00232298
0.0026288
0.00260888
0.00255025
0.00244932
0.00233489
0.00221978
0.00213567
0.00208921
0.00206859
0.00206393
0.00206812
0.00207551
0.00208133
0.00208162
0.00207409
0.00205919
0.00203952
0.00201829
0.00199796
0.00197978
0.00196403
0.00195031
0.00193775
0.00192514
0.00191096
0.00189326
0.00186969
0.00183775
0.00179552
0.00174255
0.00168081
0.00161459
0.00154887
0.00148774
0.0014455
0.00154265
0.00151838
)
;

boundaryField
{
    floor
    {
        type            compressible::alphatWallFunction;
        Prt             0.85;
        value           nonuniform List<scalar> 
29
(
0.000162457
0.000102868
0.000128661
0.00014565
0.000158156
0.000159972
0.000156115
0.000146027
0.000135363
0.000125923
0.000117827
0.000110879
0.000104876
9.96104e-05
9.49682e-05
9.07006e-05
8.65128e-05
8.19944e-05
7.54691e-05
6.88289e-05
6.8828e-05
7.76812e-05
8.39689e-05
9.32851e-05
0.000162456
0.000102867
0.000131491
0.000145557
0.000191703
)
;
    }
    ceiling
    {
        type            compressible::alphatWallFunction;
        Prt             0.85;
        value           nonuniform List<scalar> 
43
(
0.000273392
0.000295703
0.000319183
0.00035816
0.000355664
0.000348247
0.000335416
0.000320799
0.000306014
0.000295159
0.000289145
0.000286471
0.000285869
0.000286415
0.000287376
0.000288133
0.00028817
0.000287194
0.00028526
0.000282703
0.000279941
0.000277292
0.000274921
0.000272864
0.000271071
0.000269426
0.000267773
0.000265913
0.000263589
0.000260489
0.000256286
0.000250717
0.000243716
0.000235528
0.000226711
0.000217923
0.000209716
0.00020403
0.000217126
0.000213888
0.000376246
0.000434764
0.000270382
)
;
    }
    sWall
    {
        type            compressible::alphatWallFunction;
        Prt             0.85;
        value           uniform 0.000272621;
    }
    nWall
    {
        type            compressible::alphatWallFunction;
        Prt             0.85;
        value           nonuniform List<scalar> 6(8.66184e-05 9.64078e-05 0.000106068 0.000198409 0.000234037 0.000213536);
    }
    sideWalls
    {
        type            empty;
    }
    glass1
    {
        type            compressible::alphatWallFunction;
        Prt             0.85;
        value           nonuniform List<scalar> 9(0.00017514 0.000216651 0.000250457 0.000282476 0.000315149 0.000349505 0.000377168 0.00038189 0.000372725);
    }
    glass2
    {
        type            compressible::alphatWallFunction;
        Prt             0.85;
        value           nonuniform List<scalar> 2(0.000114879 0.00015016);
    }
    sun
    {
        type            compressible::alphatWallFunction;
        Prt             0.85;
        value           nonuniform List<scalar> 
14
(
0.000177727
0.000198411
0.000208541
0.000221379
0.000234804
0.000248137
0.000258599
0.000264506
0.000263034
0.000250021
0.000235557
0.000218677
0.000199961
0.000182063
)
;
    }
    heatsource1
    {
        type            compressible::alphatWallFunction;
        Prt             0.85;
        value           nonuniform List<scalar> 3(0.000101026 9.52087e-05 8.6722e-05);
    }
    heatsource2
    {
        type            compressible::alphatWallFunction;
        Prt             0.85;
        value           nonuniform List<scalar> 4(0.000184432 0.000157375 0.000157373 0.000176706);
    }
    Table_master
    {
        type            compressible::alphatWallFunction;
        Prt             0.85;
        value           nonuniform List<scalar> 9(0.000193986 0.000168581 0.000147936 0.000131393 0.000118121 0.000107412 9.87307e-05 9.20006e-05 8.74246e-05);
    }
    Table_slave
    {
        type            compressible::alphatWallFunction;
        Prt             0.85;
        value           nonuniform List<scalar> 9(0.000215771 0.000197486 0.000182864 0.000170852 0.000160088 0.000149796 0.000139465 0.000128647 0.00011658);
    }
    inlet
    {
        type            fixedValue;
        value           uniform 1.94e-05;
    }
    outlet
    {
        type            zeroGradient;
    }
}


// ************************************************************************* //
