/*--------------------------------*- C++ -*----------------------------------*\
  =========                 |
  \\      /  F ield         | OpenFOAM: The Open Source CFD Toolbox
   \\    /   O peration     | Website:  https://openfoam.org
    \\  /    A nd           | Version:  6
     \\/     M anipulation  |
\*---------------------------------------------------------------------------*/
FoamFile
{
    version     2.0;
    format      ascii;
    class       surfaceScalarField;
    location    "800";
    object      phi;
}
// * * * * * * * * * * * * * * * * * * * * * * * * * * * * * * * * * * * * * //

dimensions      [1 0 -1 0 0 0 0];

internalField   nonuniform List<scalar> 
852
(
-0.00293335
0.00298955
-0.00396869
0.00103534
-0.00475704
0.00078835
-0.00537574
0.00061869
-0.00579597
0.000420233
-0.00599565
0.000199673
-0.00595319
-4.24577e-05
-0.00565032
-0.00030287
-0.00509692
-0.000553404
-0.00434192
-0.000755004
-0.0034636
-0.000878324
-0.00254962
-0.000913981
-0.00167387
-0.000875756
-0.000856358
-0.000817511
-0.000854939
-0.00066568
0.00066834
-0.000325861
-0.000339821
0.000284669
-0.000610531
0.000755613
-0.000470946
0.00106599
-0.000310373
0.0012575
-0.00019152
0.00136111
-0.000103604
0.0014127
-5.15957e-05
0.00144184
-2.91401e-05
0.00145956
-1.7724e-05
0.00146931
-9.74713e-06
0.00147212
-2.81584e-06
0.00146597
6.14757e-06
0.00144233
2.36397e-05
0.00137855
6.37872e-05
0.00123653
0.000142017
0.00100121
0.000235317
0.000706246
0.000294963
0.000709826
-0.00209171
0.00523255
-0.00309372
0.00203735
-0.00389834
0.00159296
-0.00450306
0.00122341
-0.00491274
0.000829912
-0.00511449
0.000401418
-0.00508337
-7.35801e-05
-0.00480368
-0.000582563
-0.00429593
-0.00106115
-0.00361885
-0.00143208
-0.00285302
-0.00164416
-0.002079
-0.001688
-0.00136957
-0.00158519
-0.000815698
-0.00137138
-0.000613491
-0.00105715
-9.60603e-05
-0.000517484
-9.61136e-05
0.000393181
0.000282715
0.000819459
-0.0007661
0.0010667
-0.000857777
0.00127409
-0.000678334
0.00142697
-0.000463255
0.00151501
-0.000279556
0.00152819
-0.000116786
0.00153183
-5.5241e-05
0.00153622
-3.35245e-05
0.00153988
-2.1388e-05
0.00154233
-1.21981e-05
0.0015435
-3.99385e-06
0.00154251
7.14281e-06
0.00153572
3.04285e-05
0.0014942
0.000105309
0.00131831
0.000317903
0.00101409
0.000539533
0.000629573
0.000679481
0.00134862
-0.00146363
0.00692755
-0.00232422
0.00289794
-0.00303105
0.0022998
-0.00354207
0.00173442
-0.0038941
0.00118194
-0.00407026
0.000577576
-0.00402671
-0.000117137
-0.00373877
-0.000870499
-0.00324749
-0.00155244
-0.00262666
-0.00205292
-0.00195729
-0.00231353
-0.00130488
-0.00234042
-0.000721215
-0.00216886
-0.000260794
-0.00183181
4.64391e-05
-0.00136438
0.000256263
-0.00072731
0.000160148
0.00148508
-0.00119446
0.00169872
-0.000979749
0.00167985
-0.000838902
0.00168155
-0.000680035
0.00170297
-0.000484679
0.00171097
-0.000287556
0.00159433
0.00153924
0.00150587
0.00148463
0.00147259
0.00146875
0.00147604
0.00150662
0.00161208
0.00133156
0.000598424
0.000989633
0.00088146
0.000552826
0.00111629
0.00191553
-0.00102236
0.00824943
-0.00170259
0.00357816
-0.00216202
0.00275923
-0.00248841
0.00206081
-0.00271356
0.00140709
-0.00280746
0.000671469
-0.00269659
-0.000228005
-0.00236266
-0.00120444
-0.00188479
-0.00203031
-0.00134631
-0.0025914
-0.000814941
-0.0028449
-0.000328616
-0.00282675
9.40977e-05
-0.00259158
0.000447043
-0.00218475
0.000755766
-0.00167311
0.00112806
-0.00109961
0.00188099
-0.000592786
0.00243681
-0.000548625
0.00203005
-0.000787697
0.00190511
-0.000854812
0.00179826
-0.000732054
0.0017079
-0.000589679
0.00166039
-0.000437164
0.00164527
-0.000272435
0.00175709
-0.000111973
0.00182874
-7.18073e-05
0.001887
-5.84148e-05
0.00193199
-4.51453e-05
0.00194986
-1.80247e-05
0.00191971
2.99963e-05
0.00181702
0.000102543
0.00160961
0.000207253
0.00124354
0.000365915
0.00111572
0.000726251
0.00083141
0.00116577
0.000395427
0.00155227
0.00232943
-0.000717209
0.00932402
-0.00123303
0.00409399
-0.00131852
0.00284471
-0.00136948
0.00211177
-0.00139186
0.00142947
-0.00131139
0.000591001
-0.00104445
-0.000494943
-0.000643583
-0.00160531
-0.000213466
-0.00246043
0.000177638
-0.00298251
0.000500329
-0.00316759
0.000750412
-0.00307683
0.000939266
-0.00278043
0.00109549
-0.00234098
0.00124929
-0.00182691
0.00145327
-0.00130358
0.00173636
-0.000875881
0.00187899
-0.000691248
0.00178165
-0.000690362
0.00160816
-0.000681325
0.00146372
-0.000587613
0.001347
-0.00047296
0.00126858
-0.00035875
0.00124122
-0.000245074
0.00128418
-0.000154926
0.00133269
-0.000120319
0.00138593
-0.000111657
0.00144037
-9.95896e-05
0.00148548
-6.31282e-05
0.00150186
1.36094e-05
0.00146927
0.000135133
0.00137592
0.000300608
0.00122227
0.000519559
0.00108912
0.000859402
0.000946666
0.00130822
0.00063057
0.00186836
0.000560898
0.0023991
-0.000968481
0.00152917
-0.00143204
0.000463357
-0.00138515
-0.000626523
0.0103567
-0.000980568
0.00444803
-0.000554041
0.00241818
-0.000189872
0.0017476
8.92526e-05
0.00115034
0.000465304
0.000214948
0.000952939
-0.00098258
0.00137401
-0.00202638
0.00166562
-0.00275205
0.00181986
-0.00313675
0.00186343
-0.00321117
0.00182507
-0.00303847
0.00173405
-0.00268942
0.00162639
-0.00223332
0.00153524
-0.00173577
0.00148714
-0.00125548
0.0014766
-0.000865349
0.00142174
-0.000636384
0.00127731
-0.000545938
0.00108728
-0.000491288
0.000921378
-0.000421716
0.000796388
-0.00034797
0.000717884
-0.000280248
0.000692806
-0.000219996
0.000717273
-0.000179393
0.000766946
-0.000169992
0.000831266
-0.000175976
0.000905664
-0.000173987
0.000984586
-0.00014205
0.00105612
-5.79239e-05
0.00110286
8.83934e-05
0.0011209
0.000282573
0.00111815
0.000522304
0.00114232
0.000835234
0.00124112
0.00120942
0.00142758
0.00168191
0.00186947
0.00195721
0.00212872
0.00126993
0.00173854
0.00085353
0.000409868
-0.000682533
0.0114896
-0.000563418
0.00432891
0.000568416
0.00128635
0.00135628
0.000959733
0.00202429
0.000482329
0.002713
-0.000473761
0.00326417
-0.00153376
0.00356266
-0.00232488
0.00360949
-0.00279888
0.00344838
-0.00297564
0.00313989
-0.00290269
0.00274493
-0.00264352
0.00231674
-0.00226123
0.00190207
-0.00181866
0.00153669
-0.00137038
0.00123783
-0.00095663
0.00100442
-0.000631943
0.000802585
-0.000434545
0.000600162
-0.000343516
0.000408873
-0.000299999
0.000254018
-0.000266862
0.000145001
-0.000238954
8.22768e-05
-0.000217523
6.54829e-05
-0.000203202
8.73772e-05
-0.000201287
0.000132885
-0.000215499
0.000192801
-0.000235892
0.000266224
-0.00024741
0.000357316
-0.000233141
0.00047092
-0.000171527
0.000594549
-3.52353e-05
0.000718039
0.000159083
0.000852684
0.00038766
0.00103651
0.000651403
0.00131803
0.000927909
0.00175825
0.00124169
0.00242392
0.00129154
0.00296365
0.000730198
0.00298753
0.000829641
0.00345863
0.00258872
0.00940472
0.0032903
0.00362732
0.00368624
0.000890404
0.00435552
0.00029045
0.00515292
-0.000315068
0.00579095
-0.0011118
0.00602915
-0.00177196
0.00588938
-0.00218511
0.00544539
-0.0023549
0.00478774
-0.00231799
0.00401086
-0.00212581
0.00319899
-0.00183165
0.00241442
-0.00147667
0.00170627
-0.0011105
0.00110763
-0.000771739
0.000626415
-0.000475417
0.000268068
-0.000273596
6.40029e-06
-0.000172878
-0.000193987
-0.000143129
-0.0003497
-0.000144286
-0.000465999
-0.000150563
-0.000546035
-0.000158918
-0.000593995
-0.000169562
-0.00061387
-0.000183328
-0.000612604
-0.000202552
-0.000600237
-0.000227866
-0.000582432
-0.000253697
-0.00055818
-0.000271662
-0.000519127
-0.000272193
-0.000446581
-0.000244073
-0.000311749
-0.000170066
-0.000131426
-2.12402e-05
8.01716e-05
0.000176063
0.000347996
0.000383579
0.000684427
0.000591478
0.00113092
0.000795195
0.00162592
0.000796536
0.0018401
0.000516022
0.0010981
0.00157164
0.00480556
0.00995724
0.0135764
0.0124432
0.00202366
0.0117321
0.00100147
0.0110828
0.000334303
0.010219
-0.000248064
0.00908963
-0.000642573
0.00779748
-0.000892972
0.00643625
-0.000993679
0.00507899
-0.000960737
0.00379213
-0.000838957
0.00262883
-0.000668354
0.0016111
-0.000458933
0.000762967
-0.000262371
9.26444e-05
-0.000101416
-0.000385005
2.23296e-06
-0.000684097
2.54966e-05
-0.000869833
1.28588e-05
-0.00100031
-1.26505e-05
-0.00110385
-4.07492e-05
-0.00118754
-6.68738e-05
-0.00125475
-9.17064e-05
-0.00130938
-0.000114924
-0.00135583
-0.000136882
-0.00140073
-0.000157646
-0.00145229
-0.000176304
-0.00151799
-0.000187995
-0.00160497
-0.000184686
-0.00172183
-0.000155328
-0.00187894
-8.69701e-05
-0.0020818
3.27976e-05
-0.00231699
0.000213955
-0.00261148
0.000470547
-0.00304726
0.00081936
-0.00371514
0.00125936
-0.00468263
0.00176269
-0.00606678
0.00218068
-0.00775127
0.00220051
-0.00728792
0.00110829
-0.0022071
0.00468225
0.00351621
0.00381982
0.00186388
0.00422096
-6.6858e-05
0.00423379
-0.000260907
0.00383574
-0.000244521
0.00321031
-0.000267549
0.00246241
-0.000245777
0.00165991
-0.00015823
0.0008465
-2.55463e-05
7.06521e-05
0.000107496
-0.000581298
0.000193019
-0.00105002
0.000206354
-0.00135133
0.000199898
-0.00152475
0.000175653
-0.0016316
0.000132339
-0.00170751
8.87763e-05
-0.00177049
5.03263e-05
-0.00183026
1.90251e-05
-0.00189126
-5.88012e-06
-0.00195495
-2.80127e-05
-0.00202214
-4.77287e-05
-0.00209472
-6.43076e-05
-0.00217601
-7.63554e-05
-0.00226833
-8.39773e-05
-0.00237272
-8.36068e-05
-0.00248817
-6.92408e-05
-0.00261077
-3.27237e-05
-0.00273285
3.51087e-05
-0.00284231
0.000142255
-0.00293596
0.000307609
-0.00302154
0.000556129
-0.00310442
0.000902238
-0.00318038
0.00133532
-0.00320497
0.00178728
-0.00312743
0.00210314
-0.00277117
0.00184425
-0.00150873
-0.000154156
-0.00364395
-0.000539169
0.00411988
0.000301427
0.00102327
-5.98084e-05
0.00029437
-0.000412675
9.19586e-05
-0.000726772
6.95773e-05
-0.00107947
8.51488e-05
-0.00144652
0.000121282
-0.00177406
0.000169307
-0.00201392
0.000214322
-0.00215384
0.000247413
-0.00221961
0.000258799
-0.00224986
0.000236599
-0.00225244
0.000202478
-0.00224329
0.000166508
-0.00224217
0.000131222
-0.00225434
0.000100946
-0.0022798
7.57889e-05
-0.00231596
5.5182e-05
-0.00236041
3.85747e-05
-0.00241386
2.54302e-05
-0.00247505
1.34619e-05
-0.00254169
2.33954e-06
-0.00261106
-6.98269e-06
-0.00268111
-1.39284e-05
-0.00274784
-1.68768e-05
-0.00280431
-1.2772e-05
-0.00283964
2.60786e-06
-0.0028438
3.92726e-05
-0.0028069
0.000105349
-0.00270746
0.000208172
-0.00251435
0.000363023
-0.00220073
0.00058861
-0.00174702
0.00088162
-0.00112502
0.00116528
-0.00016428
0.00114241
0.00113861
0.000541364
0.00158545
-0.000600994
-0.00197976
-0.00721942
-0.0101158
-0.00595316
-0.00490993
-0.00460435
-0.00450546
-0.00443159
-0.00434415
-0.0042222
-0.00405362
-0.00384126
-0.00359697
-0.00334242
-0.00311113
-0.00291488
-0.00275533
-0.00263163
-0.00253865
-0.00247116
-0.00242453
-0.00239471
-0.00237817
-0.00237368
-0.00238036
-0.00239634
-0.0024192
-0.0024449
-0.00246633
-0.00247217
-0.00244111
-0.00234371
-0.00214319
-0.00178754
-0.00120601
-0.000331222
0.000827445
0.00196321
0.0024977
0.00188944
)
;

boundaryField
{
    floor
    {
        type            calculated;
        value           nonuniform List<scalar> 
29
(
0
0
0
0
0
0
0
0
0
0
0
0
0
0
0
0
0
0
0
0
-3.58104e-06
-9.2249e-06
-1.40762e-05
-1.84744e-05
-1.42083e-06
-2.66097e-06
-7.55705e-06
-7.90379e-06
-7.19619e-06
)
;
    }
    ceiling
    {
        type            calculated;
        value           nonuniform List<scalar> 
43
(
-4.53931e-05
-4.40746e-05
-4.27649e-05
-1.99644e-05
-1.12022e-05
-6.93447e-06
-4.28926e-06
-2.28778e-06
-6.61037e-07
7.23075e-07
1.96146e-06
3.12407e-06
4.25559e-06
5.31399e-06
6.22471e-06
6.95622e-06
7.5245e-06
7.9625e-06
8.29993e-06
8.55804e-06
8.75171e-06
8.89086e-06
8.98043e-06
9.0179e-06
8.99898e-06
8.93134e-06
8.81769e-06
8.65921e-06
8.45685e-06
8.21148e-06
7.94191e-06
7.65861e-06
7.36991e-06
7.08665e-06
6.82851e-06
6.6094e-06
6.63621e-06
6.87389e-06
7.27077e-06
8.50599e-06
1.12102e-05
8.14459e-06
-6.45161e-05
)
;
    }
    sWall
    {
        type            calculated;
        value           uniform -0.000274965;
    }
    nWall
    {
        type            calculated;
        value           nonuniform List<scalar> 6(-4.70954e-05 -5.64752e-05 -6.12228e-05 -7.18839e-05 -7.87321e-05 -9.88289e-05);
    }
    sideWalls
    {
        type            empty;
        value           nonuniform 0();
    }
    glass1
    {
        type            calculated;
        value           nonuniform List<scalar> 9(-5.61979e-05 -0.0001513 -0.000231369 -0.000299526 -0.000357384 -0.000406176 -0.000450334 -0.000503851 -0.000563732);
    }
    glass2
    {
        type            calculated;
        value           nonuniform List<scalar> 2(-0.000248836 -0.000275257);
    }
    sun
    {
        type            calculated;
        value           uniform 0;
    }
    heatsource1
    {
        type            calculated;
        value           nonuniform List<scalar> 3(2.03938e-07 2.03898e-07 2.03915e-07);
    }
    heatsource2
    {
        type            calculated;
        value           nonuniform List<scalar> 4(5.1088e-08 5.12116e-08 0 0);
    }
    Table_master
    {
        type            calculated;
        value           nonuniform List<scalar> 9(-1.52953e-07 -1.53033e-07 -1.53062e-07 -1.53081e-07 -1.53095e-07 -1.53104e-07 -1.53107e-07 -1.531e-07 -1.53068e-07);
    }
    Table_slave
    {
        type            calculated;
        value           nonuniform List<scalar> 9(1.52833e-07 1.52859e-07 1.52842e-07 1.52828e-07 1.52824e-07 1.52828e-07 1.52844e-07 1.52886e-07 1.52966e-07);
    }
    inlet
    {
        type            calculated;
        value           uniform -0.0061748;
    }
    outlet
    {
        type            calculated;
        value           nonuniform List<scalar> 2(0.00753978 0.00294047);
    }
}


// ************************************************************************* //
