/*--------------------------------*- C++ -*----------------------------------*\
  =========                 |
  \\      /  F ield         | OpenFOAM: The Open Source CFD Toolbox
   \\    /   O peration     | Website:  https://openfoam.org
    \\  /    A nd           | Version:  6
     \\/     M anipulation  |
\*---------------------------------------------------------------------------*/
FoamFile
{
    version     2.0;
    format      ascii;
    class       surfaceScalarField;
    location    "1300";
    object      phi;
}
// * * * * * * * * * * * * * * * * * * * * * * * * * * * * * * * * * * * * * //

dimensions      [1 0 -1 0 0 0 0];

internalField   nonuniform List<scalar> 
852
(
0.00444448
-0.00441397
0.00881593
-0.00437123
0.0112183
-0.00240207
0.0125135
-0.00129503
0.013324
-0.000810151
0.0138094
-0.000485164
0.0139996
-0.000190014
0.0139146
8.52186e-05
0.013563
0.000351876
0.0129261
0.000636996
0.0119619
0.000964333
0.0105894
0.00137267
0.00863597
0.00195349
0.00562821
0.00300785
0.00562747
-0.000537266
0.000539835
-0.000486559
-5.06819e-05
-0.000424758
-6.17838e-05
-0.000432464
7.72983e-06
-0.000470111
3.76831e-05
-0.000502885
3.28198e-05
-0.000456805
-4.6024e-05
-0.000297661
-0.000159085
-7.33307e-05
-0.000224266
0.000221841
-0.000295107
0.000338092
-0.000116204
0.000405396
-6.72614e-05
0.000470312
-6.48744e-05
0.000538188
-6.78323e-05
0.000596484
-5.8252e-05
0.00063511
-3.85799e-05
0.000672008
-3.68516e-05
0.000592413
7.96361e-05
0.00059512
0.00512215
-0.00944994
0.00773297
-0.00698191
0.00915006
-0.00381898
0.0100541
-0.00219888
0.0106667
-0.00142255
0.0110504
-0.000868596
0.0112314
-0.000370806
0.0112042
0.000112546
0.0109481
0.000608211
0.0104447
0.00114052
0.00967628
0.0017328
0.00863626
0.00241277
0.00737189
0.00321792
0.00622125
0.00415857
0.00669845
0.00515035
0.00267927
0.00401922
0.00267931
8.3341e-06
0.000538292
-1.66792e-05
-2.56318e-05
8.48892e-05
-0.000163317
0.000126443
-3.38005e-05
0.000111776
5.23774e-05
1.20321e-05
0.000132593
-8.49523e-05
5.0982e-05
-0.000131907
-0.000112065
-9.11087e-05
-0.000265
-2.2434e-05
-0.00036371
9.98227e-06
-0.000148573
1.65316e-05
-7.37711e-05
-2.29417e-06
-4.60077e-05
-4.68649e-05
-2.32118e-05
-8.92286e-05
-1.5835e-05
-3.91819e-05
-8.85753e-05
0.000130275
-0.000206256
0.000189384
2.05679e-05
0.000791242
0.0037068
-0.0130173
0.00528306
-0.00855804
0.00612503
-0.0046608
0.00674356
-0.00281726
0.00720895
-0.00188777
0.00752761
-0.00118711
0.00773413
-0.000577188
0.00781294
3.38433e-05
0.00772899
0.000692252
0.00745995
0.00140963
0.00699657
0.00219625
0.0063552
0.00305419
0.00560239
0.00397079
0.00484922
0.00491181
0.00409693
0.00590271
0.00241715
0.00569908
0.00509656
0.000590633
-4.47116e-05
0.000463093
0.000101948
0.000180892
0.000118935
6.93762e-05
7.77681e-05
9.17028e-05
3.0088e-05
0.000261885
-3.75619e-05
0.000313055
0.000201176
-6.36393e-05
-0.00042712
-0.000575487
-0.000649061
-0.000694873
-0.000717881
-0.000733501
-0.000713428
-0.000108572
-0.000945345
2.57403e-05
-0.000978679
5.39905e-05
-0.000178508
0.002177
-0.0150024
0.00302291
-0.00940382
0.00357204
-0.0052098
0.00386085
-0.00310595
0.00412929
-0.00215609
0.00435558
-0.00141329
0.00454483
-0.000766329
0.00467199
-9.32215e-05
0.00469801
0.000666311
0.00459327
0.00151443
0.00434421
0.00244536
0.0039547
0.00344376
0.00344021
0.00448534
0.0028122
0.00553989
0.00213636
0.00657863
0.00132819
0.00650734
0.000738267
0.00568657
-0.00112611
0.00186384
-0.00110906
-6.17177e-05
-0.00101841
1.13509e-05
-0.000999809
0.000100398
-0.00104573
0.000123753
-0.00111433
9.87741e-05
-0.00120196
5.01523e-05
-0.00120996
7.94123e-06
-0.00117301
-3.70172e-05
-0.00110489
-6.81801e-05
-0.00101692
-8.80375e-05
-0.000916374
-0.00010062
-0.000805727
-0.000110719
-0.000681585
-0.000124215
-0.000535112
-0.000146546
-0.000355082
-0.000180098
-0.000216655
-0.000246904
5.08818e-05
-0.000241679
0.000277849
-0.000172838
0.000104949
0.000955031
-0.0157133
0.00133205
-0.0097807
0.00158395
-0.00546159
0.00141753
-0.00293942
0.0015307
-0.00226915
0.00171887
-0.00160135
0.00189729
-0.000944642
0.00202333
-0.000219146
0.00207697
0.00061276
0.00203647
0.001555
0.00189249
0.00258941
0.00164207
0.00369425
0.00128417
0.0048433
0.000837963
0.00598618
0.000410752
0.00700593
-8.41364e-05
0.00700232
-0.000413115
0.00601561
-0.000792926
0.00224366
-0.00125901
0.000404447
-0.00140383
0.000156247
-0.00144592
0.000142568
-0.00145536
0.00013327
-0.00145172
9.5227e-05
-0.00143846
3.69745e-05
-0.00140457
-2.58586e-05
-0.00135873
-8.27701e-05
-0.00130188
-0.000124939
-0.00123628
-0.000153558
-0.00116406
-0.000172748
-0.00108525
-0.000189453
-0.000995484
-0.000213894
-0.000883507
-0.000258439
-0.000728339
-0.00033518
-0.000525955
-0.000449197
-0.000176508
-0.000591029
0.000388479
-0.000737721
0.00130187
-0.000808318
0.00194083
-0.000639053
0.00167086
0.000269869
0.00169965
-2.88237e-05
-0.0153883
-1.12566e-05
-0.00979815
-0.000219296
-0.00525345
-0.00071411
-0.0024445
-0.000696063
-0.00228708
-0.000556808
-0.00174049
-0.000418955
-0.00108238
-0.000332575
-0.000305414
-0.000305732
0.000586016
-0.000328663
0.00157802
-0.000401748
0.00266258
-0.000531468
0.00382405
-0.000719137
0.00503105
-0.000939457
0.00620659
-0.00108785
0.00715442
-0.00121992
0.00713447
-0.00108822
0.00588396
-0.00109868
0.00225416
-0.00135523
0.000661085
-0.00148942
0.000290528
-0.00152939
0.00018263
-0.00151876
0.00012273
-0.00148547
6.20264e-05
-0.00144462
-3.79393e-06
-0.00140365
-6.67377e-05
-0.00136769
-0.00011864
-0.00133722
-0.00015532
-0.00131362
-0.000177067
-0.00129909
-0.000187194
-0.00129511
-0.000193351
-0.00129994
-0.000208976
-0.00130614
-0.000252148
-0.00129925
-0.000341987
-0.0012544
-0.000493959
-0.00112553
-0.000719803
-0.000832394
-0.00103077
-0.000230598
-0.00141002
0.000710142
-0.0015797
0.00114331
-0.000163199
0.00287641
-0.00101668
-0.0140243
-0.00176224
-0.00905249
-0.00235963
-0.00465595
-0.0029403
-0.00186373
-0.00298473
-0.00224255
-0.00288152
-0.00184358
-0.00276316
-0.00120063
-0.00267409
-0.000394372
-0.00261418
0.000526211
-0.00256888
0.00153281
-0.00252738
0.00262117
-0.0024872
0.00378397
-0.00244268
0.00498662
-0.00236743
0.00613144
-0.00218703
0.00697411
-0.00193262
0.00688014
-0.0014729
0.0054243
-0.00132339
0.00210472
-0.00138672
0.00072451
-0.00142056
0.000324468
-0.00140326
0.000165426
-0.00135154
7.11034e-05
-0.0012868
-2.62384e-06
-0.00122772
-6.27766e-05
-0.00118509
-0.000109273
-0.0011611
-0.000142538
-0.00115615
-0.000160178
-0.00117324
-0.000159887
-0.00121903
-0.000141316
-0.00130299
-0.000109308
-0.00143349
-7.83848e-05
-0.00161195
-7.3604e-05
-0.00182996
-0.000123896
-0.00206699
-0.000256841
-0.0022925
-0.000494195
-0.00246887
-0.000854309
-0.00253705
-0.00134175
-0.00232878
-0.00178788
-0.0010614
-0.00143048
0.00185443
-0.0036692
-0.00995961
-0.00579904
-0.00692254
-0.00583417
-0.00462072
-0.00585343
-0.00184438
-0.00546739
-0.00262848
-0.00516008
-0.00215079
-0.00496888
-0.00139173
-0.00483392
-0.000529229
-0.00470884
0.00040124
-0.00456144
0.00138552
-0.00436388
0.00242371
-0.00410122
0.00352141
-0.00376294
0.00464844
-0.0033342
0.00570279
-0.00279088
0.00643088
-0.00219232
0.00628166
-0.00154562
0.00477767
-0.00127653
0.00183571
-0.00120326
0.000651345
-0.00113241
0.000253713
-0.00103285
6.59673e-05
-0.000919145
-4.25031e-05
-0.00081939
-0.00010228
-0.00074909
-0.000132978
-0.00070785
-0.000150414
-0.000691385
-0.000158906
-0.000695598
-0.000155867
-0.000719865
-0.000135523
-0.000768915
-9.21705e-05
-0.000854557
-2.35737e-05
-0.00100231
6.94549e-05
-0.0012523
0.000176479
-0.00164111
0.000265006
-0.0021781
0.000280234
-0.00283662
0.000164416
-0.00359964
-9.11932e-05
-0.00456046
-0.000380834
-0.00570822
-0.000640028
-0.00547027
-0.00166834
-0.00345864
-0.00953747
-0.0164727
-0.011627
-0.00946625
-0.00823932
-0.00523197
-0.00720969
-0.00365801
-0.00680483
-0.00255555
-0.0066504
-0.00154606
-0.00655265
-0.000626877
-0.00640538
0.000254078
-0.00615556
0.0011358
-0.00578105
0.0020493
-0.00526322
0.00300368
-0.00459405
0.00397937
-0.00378077
0.0048896
-0.00285821
0.00550842
-0.00194747
0.00537101
-0.00117166
0.00400194
-0.000792161
0.00145632
-0.000633605
0.000492893
-0.000483171
0.000103384
-0.000315306
-0.000101793
-0.000173347
-0.000184358
-7.61211e-05
-0.000199402
-1.90723e-05
-0.000189923
6.60756e-06
-0.00017599
1.01596e-05
-0.000162354
8.53441e-08
-0.000145689
-1.63329e-05
-0.000119002
-3.36185e-05
-7.47826e-05
-4.89462e-05
-8.14508e-06
-6.04951e-05
8.11026e-05
-7.23858e-05
0.000188466
-8.54897e-05
0.000278204
-0.000100096
0.000294934
-0.00013348
0.000197894
-0.000204506
-2.00722e-05
-0.000295167
-0.000290076
-0.000362618
-0.000572482
-0.000471375
-0.00155949
-0.00376107
-0.00949127
2.05254e-05
-0.00761776
-0.00710538
-0.00738881
-0.00388686
-0.00754849
-0.00239577
-0.0076779
-0.00141655
-0.00768728
-0.000617392
-0.00754453
0.000111432
-0.00722832
0.000819687
-0.00669917
0.00152025
-0.00593601
0.00224062
-0.00493736
0.00298084
-0.00373541
0.00368776
-0.00241535
0.00418847
-0.00117678
0.00413254
-5.25064e-05
0.00287778
0.000381435
0.00102248
0.000563891
0.000310549
0.00070621
-3.88235e-05
0.000808033
-0.000203508
0.000861493
-0.000237711
0.000883132
-0.000220934
0.000885678
-0.000192361
0.000876003
-0.000166208
0.000858258
-0.000144502
0.00083647
-0.000123793
0.000816345
-9.8769e-05
0.000805786
-6.4115e-05
0.000813013
-1.52641e-05
0.000849745
4.44776e-05
0.000919558
0.000118758
0.00102198
0.000175887
0.00114795
0.000169063
0.00128212
6.38278e-05
0.00139502
-0.000132867
0.00151328
-0.000408236
0.00169977
-0.000758872
0.00158578
-0.0014454
-0.00213868
-0.000322598
0.000319899
-0.00454193
-0.00288595
-0.00649994
-0.00192875
-0.00762933
-0.00126628
-0.00826846
-0.000777311
-0.00851803
-0.000367727
-0.00841703
1.05359e-05
-0.00802647
0.000429238
-0.00733695
0.000830825
-0.00632984
0.00123363
-0.00499902
0.00165012
-0.00339032
0.00207917
-0.00161229
0.00241055
0.00022581
0.00229456
0.00171404
0.00138968
0.00220458
0.000532063
0.00235718
0.000158074
0.00233583
-1.73573e-05
0.0022138
-8.13671e-05
0.00208499
-0.000108784
0.0019776
-0.000113437
0.0018945
-0.000109145
0.00183015
-0.000101748
0.00177783
-9.20776e-05
0.00173364
-7.94946e-05
0.00169832
-6.33318e-05
0.00167751
-4.31974e-05
0.00168128
-1.89213e-05
0.00171201
1.38561e-05
0.00178137
4.95151e-05
0.00188846
6.89009e-05
0.00200899
4.86433e-05
0.00210102
-2.80887e-05
0.00211718
-0.000148923
0.00202877
-0.000319717
0.00180962
-0.000539613
0.00126577
-0.000901443
-0.000831721
0.00489727
-0.001298
-0.0010216
-0.00395838
-0.00593687
-0.00725257
-0.00807883
-0.00849509
-0.00853272
-0.00815125
-0.00736779
-0.00618106
-0.00457731
-0.00254388
-0.000178317
0.00207347
0.00342198
0.00391323
0.00403091
0.00397389
0.00385426
0.0037088
0.00356009
0.00341676
0.00328163
0.00315675
0.00304492
0.00294967
0.00287496
0.00282497
0.00280828
0.00282785
0.00286733
0.0028869
0.00282987
0.00265208
0.00230343
0.00173456
0.000804471
)
;

boundaryField
{
    floor
    {
        type            calculated;
        value           nonuniform List<scalar> 
29
(
0
0
0
0
0
0
0
0
0
0
0
0
0
0
0
0
0
0
0
0
-2.67254e-06
-6.70543e-06
-8.83622e-06
-5.49744e-06
8.20768e-07
-2.53987e-06
-6.75842e-06
-7.61088e-06
4.99972e-07
)
;
    }
    ceiling
    {
        type            calculated;
        value           nonuniform List<scalar> 
43
(
7.86872e-05
7.20145e-05
4.35895e-05
5.09347e-05
4.98473e-05
4.95247e-05
4.90495e-05
4.86408e-05
4.82748e-05
4.78745e-05
4.74706e-05
4.70124e-05
4.6482e-05
4.5864e-05
4.51116e-05
4.28828e-05
4.13004e-05
4.0932e-05
4.0518e-05
3.97843e-05
3.83736e-05
3.67894e-05
3.53878e-05
3.42974e-05
3.3498e-05
3.29107e-05
3.24478e-05
3.20354e-05
3.1622e-05
3.11799e-05
3.06622e-05
3.00629e-05
2.95295e-05
2.91856e-05
2.90589e-05
2.89766e-05
2.9046e-05
2.93568e-05
2.87556e-05
3.06044e-05
1.53882e-05
1.27626e-05
2.33314e-05
)
;
    }
    sWall
    {
        type            calculated;
        value           uniform -0.00013242;
    }
    nWall
    {
        type            calculated;
        value           nonuniform List<scalar> 6(-2.88848e-05 -3.33601e-05 -3.93298e-05 -3.65048e-05 -4.10948e-05 -5.7754e-05);
    }
    sideWalls
    {
        type            empty;
        value           nonuniform 0();
    }
    glass1
    {
        type            calculated;
        value           nonuniform List<scalar> 9(-3.02839e-05 -8.60808e-05 -0.000139401 -0.000191857 -0.00024404 -0.000296104 -0.000347175 -0.000395443 -0.000437427);
    }
    glass2
    {
        type            calculated;
        value           nonuniform List<scalar> 2(-0.000157102 -0.000168852);
    }
    sun
    {
        type            calculated;
        value           uniform 0;
    }
    heatsource1
    {
        type            calculated;
        value           nonuniform List<scalar> 3(2.01829e-07 2.01914e-07 2.02093e-07);
    }
    heatsource2
    {
        type            calculated;
        value           nonuniform List<scalar> 4(4.93384e-08 4.97937e-08 0 0);
    }
    Table_master
    {
        type            calculated;
        value           nonuniform List<scalar> 9(-1.52767e-07 -1.52834e-07 -1.52905e-07 -1.52852e-07 -1.52746e-07 -1.52682e-07 -1.52632e-07 -1.52585e-07 -1.52515e-07);
    }
    Table_slave
    {
        type            calculated;
        value           nonuniform List<scalar> 9(1.519e-07 1.51888e-07 1.51888e-07 1.51902e-07 1.51923e-07 1.51951e-07 1.51984e-07 1.52026e-07 1.52059e-07);
    }
    inlet
    {
        type            calculated;
        value           uniform 4.62189e-06;
    }
    outlet
    {
        type            calculated;
        value           nonuniform List<scalar> 2(-0.00484334 0.00612352);
    }
}


// ************************************************************************* //
