// -*- C++ -*-
// File generated by PyFoam - sorry for the ugliness

FoamFile
{
 version 2.0;
 format ascii;
 class volScalarField;
 location "500";
 object T;
}

dimensions [ 0 0 0 1 0 0 0 ];

internalField nonuniform List<scalar> 459
(
  302.088
  302.014
  302.012
  302.013
  302.014
  302.015
  302.015
  302.015
  302.015
  302.017
  302.024
  302.037
  302.042
  302.041
  302.031
  302.084
  302.128
  302.153
  302.168
  302.18
  302.188
  302.192
  302.194
  302.196
  302.196
  302.197
  302.198
  302.198
  302.199
  302.2
  302.2
  302.2
  302.198
  302.183
  302.134
  302.027
  302.023
  302.024
  302.025
  302.025
  302.023
  302.019
  302.014
  302.015
  302.024
  302.042
  302.053
  302.056
  302.05
  302.053
  302.056
  302.118
  302.141
  302.161
  302.182
  302.201
  302.216
  302.221
  302.224
  302.227
  302.229
  302.231
  302.233
  302.235
  302.236
  302.236
  302.233
  302.228
  302.219
  302.21
  302.182
  302.04
  302.031
  302.034
  302.037
  302.038
  302.035
  302.024
  302.011
  302.007
  302.018
  302.042
  302.06
  302.068
  302.068
  302.066
  302.064
  302.113
  302.136
  302.165
  302.195
  302.223
  302.244
  302.245
  302.247
  302.248
  302.25
  302.253
  302.255
  302.257
  302.258
  302.258
  302.257
  302.25
  302.238
  302.226
  302.231
  302.055
  302.041
  302.047
  302.055
  302.06
  302.056
  302.036
  302.009
  301.997
  302.011
  302.041
  302.068
  302.083
  302.086
  302.084
  302.079
  302.084
  302.106
  302.14
  302.181
  302.221
  302.257
  302.286
  302.311
  302.331
  302.347
  302.362
  302.374
  302.385
  302.393
  302.401
  302.406
  302.364
  302.32
  302.279
  302.25
  302.282
  302.074
  302.051
  302.059
  302.075
  302.089
  302.083
  302.049
  302.007
  301.988
  302.004
  302.041
  302.079
  302.105
  302.115
  302.115
  302.115
  302.129
  302.156
  302.192
  302.233
  302.274
  302.311
  302.343
  302.371
  302.392
  302.409
  302.423
  302.434
  302.442
  302.447
  302.447
  302.443
  302.42
  302.38
  302.331
  302.286
  302.288
  302.293
  302.339
  302.33
  302.099
  302.067
  302.071
  302.089
  302.116
  302.103
  302.054
  302.002
  301.979
  301.998
  302.046
  302.098
  302.136
  302.157
  302.163
  302.171
  302.191
  302.221
  302.259
  302.299
  302.338
  302.373
  302.402
  302.426
  302.444
  302.458
  302.468
  302.475
  302.479
  302.481
  302.478
  302.47
  302.454
  302.424
  302.384
  302.341
  302.325
  302.319
  302.348
  302.374
  302.142
  302.104
  302.102
  302.118
  302.138
  302.11
  302.045
  301.984
  301.964
  301.995
  302.059
  302.129
  302.182
  302.213
  302.228
  302.242
  302.265
  302.297
  302.333
  302.37
  302.404
  302.433
  302.456
  302.473
  302.485
  302.492
  302.497
  302.499
  302.5
  302.498
  302.494
  302.486
  302.473
  302.451
  302.422
  302.387
  302.363
  302.347
  302.359
  302.439
  302.255
  302.21
  302.19
  302.197
  302.171
  302.095
  302.002
  301.941
  301.94
  302
  302.092
  302.183
  302.247
  302.283
  302.303
  302.32
  302.345
  302.376
  302.407
  302.437
  302.462
  302.482
  302.495
  302.503
  302.507
  302.509
  302.509
  302.507
  302.504
  302.5
  302.495
  302.489
  302.478
  302.462
  302.442
  302.417
  302.397
  302.382
  302.448
  302.53
  302.443
  302.381
  302.329
  302.279
  302.141
  301.985
  301.879
  301.858
  301.919
  302.036
  302.162
  302.269
  302.329
  302.36
  302.38
  302.398
  302.421
  302.445
  302.467
  302.486
  302.5
  302.509
  302.513
  302.514
  302.513
  302.511
  302.507
  302.503
  302.498
  302.492
  302.486
  302.479
  302.473
  302.469
  302.467
  302.47
  302.48
  302.495
  302.537
  300.728
  300.988
  301.072
  301.188
  301.355
  301.558
  301.772
  301.976
  302.168
  302.297
  302.369
  302.407
  302.429
  302.445
  302.461
  302.477
  302.492
  302.503
  302.511
  302.515
  302.517
  302.516
  302.514
  302.511
  302.508
  302.504
  302.5
  302.496
  302.492
  302.488
  302.485
  302.483
  302.482
  302.484
  302.49
  302.502
  302.521
  302.561
  300.785
  301.062
  301.261
  301.491
  301.708
  301.922
  302.093
  302.232
  302.335
  302.4
  302.437
  302.459
  302.474
  302.485
  302.495
  302.503
  302.51
  302.514
  302.516
  302.516
  302.515
  302.513
  302.511
  302.509
  302.506
  302.504
  302.502
  302.5
  302.498
  302.496
  302.494
  302.492
  302.492
  302.493
  302.497
  302.505
  302.519
  302.546
  301.359
  301.341
  301.34
  301.624
  301.862
  302.059
  302.189
  302.278
  302.345
  302.396
  302.433
  302.457
  302.472
  302.482
  302.488
  302.493
  302.496
  302.498
  302.499
  302.498
  302.497
  302.495
  302.494
  302.492
  302.49
  302.489
  302.488
  302.487
  302.487
  302.487
  302.488
  302.488
  302.489
  302.489
  302.49
  302.492
  302.494
  302.499
  302.502
  302.54
)
;

boundaryField
{
  floor
  {
    type wallHeatTransfer;
    Tinf uniform 300.35;
    alphaWall uniform 0.24;
    value nonuniform List<scalar> 29
(
  301.793
  301.739
  301.844
  301.882
  301.899
  301.908
  301.911
  301.904
  301.893
  301.881
  301.869
  301.857
  301.845
  301.834
  301.823
  301.812
  301.799
  301.784
  301.758
  301.713
  301.713
  301.782
  301.815
  301.863
  301.793
  301.739
  301.851
  301.869
  301.887
)
;
  }
  ceiling
  {
    type wallHeatTransfer;
    Tinf uniform 300.35;
    alphaWall uniform 0.24;
    value nonuniform List<scalar> 43
(
  301.271
  301.258
  301.26
  301.533
  301.753
  301.934
  302.051
  302.131
  302.19
  302.231
  302.259
  302.275
  302.285
  302.292
  302.297
  302.301
  302.304
  302.306
  302.306
  302.305
  302.304
  302.302
  302.3
  302.297
  302.295
  302.292
  302.288
  302.283
  302.278
  302.273
  302.269
  302.266
  302.264
  302.264
  302.266
  302.269
  302.273
  302.276
  302.274
  302.302
  302.387
  302.325
  300.742
)
;
  }
  sWall
  {
    type wallHeatTransfer;
    Tinf uniform 306.167;
    alphaWall uniform 0.36;
    value uniform 301.964;
  }
  nWall
  {
    type wallHeatTransfer;
    Tinf uniform 305.15;
    alphaWall uniform 0.36;
    value nonuniform List<scalar> 6
(
  303.033
  302.918
  302.862
  302.927
  302.894
  302.944
)
;
  }
  sideWalls
  {
    type empty;
  }
  glass1
  {
    type wallHeatTransfer;
    Tinf uniform 306.167;
    alphaWall uniform 4.3;
    value nonuniform List<scalar> 9
(
  305.076
  304.915
  304.804
  304.715
  304.636
  304.56
  304.495
  304.503
  304.558
)
;
  }
  glass2
  {
    type wallHeatTransfer;
    Tinf uniform 305.15;
    alphaWall uniform 4.3;
    value nonuniform List<scalar> 2
(
  304.269
  304.284
)
;
  }
  sun
  {
    type wallHeatTransfer;
    Tinf uniform 300.35;
    alphaWall uniform 0.24;
    value nonuniform List<scalar> 14
(
  301.86
  301.811
  301.815
  301.824
  301.832
  301.839
  301.845
  301.85
  301.853
  301.856
  301.859
  301.861
  301.85
  301.826
)
;
  }
  heatsource1
  {
    type fixedGradient;
    gradient uniform 0;
  }
  heatsource2
  {
    type fixedGradient;
    gradient uniform 0;
  }
  Table_master
  {
    type zeroGradient;
  }
  Table_slave
  {
    type zeroGradient;
  }
  inlet
  {
    type fixedValue;
    value uniform 300.15;
  }
  outlet
  {
    type zeroGradient;
  }
} 	// ************************************************************************* //

