/*--------------------------------*- C++ -*----------------------------------*\
  =========                 |
  \\      /  F ield         | OpenFOAM: The Open Source CFD Toolbox
   \\    /   O peration     | Website:  https://openfoam.org
    \\  /    A nd           | Version:  6
     \\/     M anipulation  |
\*---------------------------------------------------------------------------*/
FoamFile
{
    version     2.0;
    format      ascii;
    class       volScalarField;
    location    "100";
    object      nut;
}
// * * * * * * * * * * * * * * * * * * * * * * * * * * * * * * * * * * * * * //

dimensions      [0 2 -1 0 0 0 0];

internalField   nonuniform List<scalar> 
459
(
0.00100927
0.00111268
0.00114768
0.00120892
0.00126745
0.00132578
0.00138501
0.00143015
0.00145425
0.00145129
0.00141781
0.00135043
0.00122578
0.0010464
0.000874215
0.000590604
0.000746627
0.000793065
0.000800424
0.000788347
0.000764217
0.000719626
0.000671685
0.000627718
0.000588369
0.000552845
0.000520237
0.000489988
0.000461175
0.000432432
0.000402111
0.000368736
0.000324792
0.000366663
0.00133212
0.00335372
0.00327226
0.00381882
0.00438076
0.00490068
0.00529169
0.00566345
0.00598981
0.00623681
0.00637356
0.00636276
0.00615646
0.00564733
0.00395828
0.00110116
0.000839435
0.000907774
0.00283759
0.00261174
0.00279822
0.0029616
0.00288313
0.00208435
0.00172843
0.00148711
0.00130856
0.00117363
0.00107063
0.000975711
0.000872834
0.000764356
0.000671859
0.000658158
0.000586381
0.000423683
0.00159931
0.00454151
0.00406883
0.00484368
0.0052472
0.005557
0.00581568
0.00612384
0.00648345
0.00686363
0.0072185
0.00745923
0.00751474
0.00729361
0.00649031
0.00439901
0.00110107
0.000977624
0.00240605
0.00293095
0.00342998
0.00377011
0.00353865
0.00096803
0.000843989
0.00074041
0.000654209
0.000582089
0.000522006
0.000473931
0.000437462
0.000411517
0.000451184
0.000571717
0.000684834
0.000466476
0.00185432
0.00563828
0.00410005
0.00498857
0.00517337
0.00526274
0.00540939
0.00566279
0.00604078
0.00650866
0.00701178
0.00739869
0.00763637
0.00769585
0.00744133
0.00638043
0.00356745
0.00127781
0.00187429
0.00263351
0.0035442
0.00431701
0.00475918
0.00437429
0.00103638
0.000926759
0.000847336
0.000786153
0.00073549
0.000690751
0.000650597
0.000611451
0.000569111
0.000528439
0.000574864
0.000810976
0.000529733
0.00211581
0.00704149
0.00439421
0.00489929
0.00504877
0.00501888
0.00510978
0.00531867
0.00570862
0.00621919
0.00675234
0.00719456
0.00748055
0.00760614
0.00756432
0.00720464
0.00622821
0.00553643
0.00558943
0.00587673
0.00617158
0.00634914
0.00633859
0.00600024
0.00484277
0.0042449
0.00390501
0.0036836
0.00350501
0.00330308
0.00301984
0.00264486
0.00217341
0.00164663
0.00123272
0.00115974
0.000869436
0.000619756
0.000608011
0.000575329
0.00239641
0.00862085
0.00580192
0.00506295
0.00526475
0.00512897
0.00512048
0.00525528
0.00561634
0.00615585
0.00673377
0.00720275
0.00747859
0.00757244
0.00756459
0.0075303
0.00745975
0.00755705
0.007712
0.00780344
0.00777137
0.00760004
0.00729441
0.00685277
0.00626997
0.0057902
0.00542028
0.00510895
0.00482526
0.00454987
0.00424258
0.00387451
0.00342093
0.00287696
0.0023162
0.00192288
0.00154611
0.00123992
0.0012984
0.00067713
0.00265404
0.00975777
0.00800708
0.00638098
0.00599877
0.00553831
0.00527342
0.0053403
0.00574119
0.00636022
0.00700784
0.00750821
0.00777335
0.00783941
0.0078474
0.00796398
0.00822399
0.00850663
0.00864036
0.00856932
0.00831761
0.00792992
0.00744917
0.00691633
0.00638507
0.00592646
0.005551
0.00523147
0.00495606
0.00472444
0.00451626
0.00429581
0.0040133
0.00364342
0.00320694
0.00278805
0.00232049
0.00187051
0.00174613
0.000780721
0.00271051
0.00874923
0.00773557
0.00695346
0.00610815
0.00543903
0.00520739
0.00545215
0.00607821
0.00687987
0.00761947
0.0081272
0.00835229
0.00838077
0.00836926
0.00844723
0.00857102
0.00864746
0.00857539
0.00831358
0.00789269
0.00737936
0.00682899
0.00629882
0.00584477
0.0054911
0.0052136
0.00497961
0.00477357
0.00459193
0.00443285
0.0042819
0.00411744
0.00390202
0.00361194
0.00327931
0.00292869
0.00240642
0.00254219
0.000937708
0.00264745
0.00314798
0.00359995
0.00367019
0.00379491
0.00415457
0.0048215
0.00579134
0.00690798
0.00791069
0.00860922
0.00895003
0.0089849
0.00883891
0.00852597
0.00820898
0.00799865
0.00782677
0.00760016
0.0072827
0.00689213
0.00648754
0.00612388
0.00583279
0.00561044
0.00542334
0.00523534
0.00502395
0.00477978
0.00450647
0.00421478
0.00389086
0.00348989
0.00305276
0.00264957
0.00230604
0.0020498
0.001861
0.00173547
0.00102884
0.00190185
0.0035245
0.00485168
0.00603793
0.00717677
0.0082488
0.00905264
0.00945303
0.00949806
0.00922666
0.00871943
0.00819887
0.00779091
0.00751415
0.00732492
0.00716573
0.00700185
0.00683329
0.00667805
0.00655346
0.0064643
0.00640073
0.00633928
0.00624848
0.00609767
0.00587526
0.00556811
0.00517181
0.00470022
0.00417689
0.00363775
0.00314074
0.00271311
0.00238295
0.00215924
0.0019997
0.00190909
0.00132144
0.00186377
0.00393526
0.00578764
0.00717974
0.00843144
0.0094029
0.00979916
0.00964773
0.00915836
0.00859661
0.00812647
0.00779459
0.00759515
0.00748881
0.0074354
0.00740521
0.00738143
0.00735973
0.00734369
0.00733823
0.00734475
0.00736003
0.00737621
0.00737975
0.00734771
0.00725738
0.00707957
0.0067879
0.00636694
0.00581574
0.00516832
0.00449315
0.00386203
0.00332848
0.00290864
0.00259961
0.00315556
0.00154642
0.0014099
0.00151921
0.00164824
0.00174236
0.00184392
0.00196505
0.00204322
0.00206916
0.00204497
0.00199962
0.00194187
0.00188547
0.00184445
0.00181905
0.00180543
0.00179942
0.00179736
0.00179665
0.0017961
0.00179566
0.00179575
0.00179671
0.00179854
0.00180071
0.00180208
0.00180087
0.00179529
0.00178247
0.00175976
0.0017253
0.00167888
0.00162327
0.00156296
0.00150266
0.00144734
0.0014003
0.00136123
0.00132957
0.0014127
0.00136447
)
;

boundaryField
{
    floor
    {
        type            nutkWallFunction;
        Cmu             0.09;
        kappa           0.41;
        E               9.8;
        value           nonuniform List<scalar> 
29
(
0.000105816
7.11615e-05
9.04158e-05
9.60512e-05
9.69386e-05
9.5475e-05
9.25464e-05
8.71085e-05
8.12179e-05
7.57711e-05
7.0857e-05
6.63857e-05
6.22499e-05
5.83846e-05
5.46749e-05
5.09451e-05
4.6977e-05
4.25663e-05
3.66852e-05
4.23355e-05
4.23354e-05
4.98347e-05
5.53845e-05
6.34788e-05
0.000105816
7.11614e-05
0.000109824
0.000118103
0.000152981
)
;
    }
    ceiling
    {
        type            nutkWallFunction;
        Cmu             0.09;
        kappa           0.41;
        E               9.8;
        value           nonuniform List<scalar> 
43
(
0.000167978
0.000180297
0.000194719
0.000205203
0.000216429
0.000229722
0.000238256
0.000241087
0.000238463
0.000233526
0.000227219
0.000221039
0.000216531
0.000213734
0.000212234
0.000211571
0.000211344
0.000211266
0.000211207
0.000211159
0.000211169
0.000211276
0.000211479
0.000211721
0.000211874
0.000211743
0.00021113
0.000209717
0.000207212
0.000203399
0.000198249
0.000192058
0.000185315
0.000178544
0.000172305
0.000166978
0.000162539
0.000158929
0.000168373
0.000162897
0.000303171
0.000355696
0.000218484
)
;
    }
    sWall
    {
        type            nutkWallFunction;
        Cmu             0.09;
        kappa           0.41;
        E               9.8;
        value           uniform 0.000168019;
    }
    nWall
    {
        type            nutkWallFunction;
        Cmu             0.09;
        kappa           0.41;
        E               9.8;
        value           nonuniform List<scalar> 6(6.92322e-05 8.19092e-05 9.45768e-05 0.000158013 0.00018347 0.000162914);
    }
    sideWalls
    {
        type            empty;
    }
    glass1
    {
        type            nutkWallFunction;
        Cmu             0.09;
        kappa           0.41;
        E               9.8;
        value           nonuniform List<scalar> 9(0.000121895 0.000159331 0.000189532 0.000217837 0.000246426 0.000276687 0.000304141 0.000310126 0.000303456);
    }
    glass2
    {
        type            nutkWallFunction;
        Cmu             0.09;
        kappa           0.41;
        E               9.8;
        value           nonuniform List<scalar> 2(0.000113408 0.000124168);
    }
    sun
    {
        type            nutkWallFunction;
        Cmu             0.09;
        kappa           0.41;
        E               9.8;
        value           nonuniform List<scalar> 
14
(
0.000121834
0.000133928
0.000137992
0.00014507
0.000151797
0.000158467
0.000165206
0.000170321
0.000173045
0.000172711
0.000168925
0.000161276
0.000147015
0.000126192
)
;
    }
    heatsource1
    {
        type            nutkWallFunction;
        Cmu             0.09;
        kappa           0.41;
        E               9.8;
        value           nonuniform List<scalar> 3(7.47995e-05 7.33345e-05 6.92369e-05);
    }
    heatsource2
    {
        type            nutkWallFunction;
        Cmu             0.09;
        kappa           0.41;
        E               9.8;
        value           nonuniform List<scalar> 4(0.000132592 0.000101646 0.000101646 0.00013258);
    }
    Table_master
    {
        type            nutkWallFunction;
        Cmu             0.09;
        kappa           0.41;
        E               9.8;
        value           nonuniform List<scalar> 9(0.000116956 0.000102177 8.96392e-05 7.90456e-05 7.00532e-05 6.24587e-05 5.63061e-05 5.15872e-05 4.81995e-05);
    }
    Table_slave
    {
        type            nutkWallFunction;
        Cmu             0.09;
        kappa           0.41;
        E               9.8;
        value           nonuniform List<scalar> 9(0.000125002 0.000112062 0.000102575 9.51946e-05 8.90317e-05 8.35486e-05 7.85924e-05 7.37265e-05 6.84222e-05);
    }
    inlet
    {
        type            calculated;
        value           uniform 6.7082e-05;
    }
    outlet
    {
        type            calculated;
        value           nonuniform List<scalar> 2(0.0014099 0.00151921);
    }
}


// ************************************************************************* //
