/*--------------------------------*- C++ -*----------------------------------*\
  =========                 |
  \\      /  F ield         | OpenFOAM: The Open Source CFD Toolbox
   \\    /   O peration     | Website:  https://openfoam.org
    \\  /    A nd           | Version:  6
     \\/     M anipulation  |
\*---------------------------------------------------------------------------*/
FoamFile
{
    version     2.0;
    format      ascii;
    class       surfaceScalarField;
    location    "100";
    object      phi;
}
// * * * * * * * * * * * * * * * * * * * * * * * * * * * * * * * * * * * * * //

dimensions      [1 0 -1 0 0 0 0];

internalField   nonuniform List<scalar> 
852
(
-0.00238241
0.00244583
-0.00246845
8.61588e-05
-0.00254508
7.67496e-05
-0.00268049
0.000135525
-0.0028178
0.000137421
-0.00292711
0.000109423
-0.00299097
6.39731e-05
-0.00299523
4.36184e-06
-0.00292534
-6.97751e-05
-0.00276579
-0.00015944
-0.00250386
-0.000261824
-0.00213065
-0.000373096
-0.00162846
-0.000502073
-0.000935578
-0.000692765
-0.000933156
-0.000460304
0.000463997
-0.000266536
-0.000193716
8.30499e-05
-0.000349538
0.000322788
-0.000239686
0.000405036
-8.21993e-05
0.000324287
8.07916e-05
0.000216507
0.000107818
0.00020483
1.17083e-05
0.000213382
-8.52496e-06
0.00022378
-1.03733e-05
0.000237577
-1.37731e-05
0.000259464
-2.18667e-05
0.000279136
-1.96534e-05
0.000263053
1.61036e-05
0.000220033
4.30423e-05
0.000354186
-0.000134113
0.000624422
-0.000270181
0.000704529
-8.00486e-05
0.000708567
-0.00171917
0.00432618
-0.00220305
0.000570147
-0.00244535
0.000319166
-0.00262686
0.000317147
-0.00278078
0.00029146
-0.00290063
0.000229379
-0.00297664
0.000140094
-0.00299866
2.64917e-05
-0.00295698
-0.000111334
-0.00284176
-0.000274556
-0.00264172
-0.000461745
-0.00234448
-0.000670221
-0.00194308
-0.000903352
-0.00147788
-0.00115784
-0.00104421
-0.00136669
0.000213728
-0.00125786
0.000213791
0.000651095
-0.000177419
0.000385533
7.19122e-05
2.62314e-05
9.81955e-06
-6.02049e-05
-0.000153187
5.96172e-05
-0.000201954
6.63919e-05
7.40734e-05
-2.28954e-06
0.00017654
3.52047e-06
5.91544e-06
4.81419e-06
-9.80881e-06
3.70317e-06
-9.25459e-06
7.16667e-06
-1.72307e-05
2.51472e-05
-3.98427e-05
5.50747e-05
-4.9575e-05
5.60142e-05
1.5176e-05
4.11309e-05
5.7961e-05
0.000194099
-0.000287015
0.00039
-0.000466023
0.000365645
-5.56349e-05
0.0010847
-0.00126193
0.0058244
-0.0018993
0.00120763
-0.00222026
0.000640244
-0.00243725
0.000534251
-0.00260482
0.00045914
-0.00273494
0.000359613
-0.00282701
0.000232268
-0.002876
7.56004e-05
-0.00287683
-0.000110391
-0.00282655
-0.000324721
-0.0027237
-0.00056448
-0.00256988
-0.00082392
-0.00237628
-0.00109682
-0.00217247
-0.00136152
-0.00198596
-0.00155307
-0.00166891
-0.00157478
-0.00145499
-0.000891034
0.000725989
-0.00108486
0.000265838
-0.0011176
4.26562e-05
-0.00109245
-0.000178234
-0.000945021
-0.000349277
-0.000373141
-0.000497712
-0.000196403
-0.000190324
-0.000199973
-0.000209068
-0.000226138
-0.000265811
-0.000315195
-0.000299784
-0.000241532
-0.000119495
-0.000408994
-0.00074098
0.000155514
-0.00112453
0.000327965
-2.32918e-05
-0.00092834
0.00704956
-0.00160579
0.0018852
-0.00192134
0.000955916
-0.0021459
0.000758927
-0.00230823
0.000621585
-0.00242963
0.000481132
-0.00251909
0.00032184
-0.00257813
0.00013475
-0.00260629
-8.21114e-05
-0.002608
-0.000322895
-0.00259484
-0.000577512
-0.0025843
-0.000834341
-0.00260265
-0.00107834
-0.00268281
-0.00128123
-0.00283919
-0.00139656
-0.00305361
-0.00136022
-0.00352728
-0.000981181
-0.0030871
-0.000427961
-0.00243907
7.80773e-05
-0.00233392
0.00016081
-0.00230502
1.38766e-05
-0.00232299
-0.00016014
-0.00236831
-0.000303847
-0.00251247
-0.000353449
-0.00223715
-0.000275366
-0.00195106
-0.000286158
-0.00160787
-0.00034325
-0.00118832
-0.000419623
-0.000680608
-0.000507781
-8.61728e-05
-0.000594507
0.000540992
-0.000627233
0.00110792
-0.000566992
0.00156556
-0.000457703
0.00142342
-0.000266777
0.00134352
0.000235487
0.00105078
0.000620768
0.00104323
-0.000682899
0.00808044
-0.0013536
0.00255602
-0.00155182
0.00115426
-0.0017184
0.000925628
-0.00185798
0.000761292
-0.00195304
0.000576304
-0.00201203
0.000380956
-0.00204652
0.000169349
-0.00206264
-6.587e-05
-0.0020704
-0.000315019
-0.00208714
-0.000560648
-0.00213197
-0.000789382
-0.00222212
-0.000988064
-0.00236604
-0.00113718
-0.00255736
-0.0012051
-0.00277951
-0.00113794
-0.00289658
-0.00086397
-0.00283527
-0.000489137
-0.00256826
-0.000188797
-0.00232656
-8.07655e-05
-0.00218939
-0.000123169
-0.00213193
-0.000217481
-0.00212322
-0.000312456
-0.0021094
-0.000367181
-0.00198562
-0.000399058
-0.00180426
-0.000467442
-0.00157292
-0.000574514
-0.00128706
-0.000705409
-0.000953169
-0.000841589
-0.00058777
-0.00095982
-0.000195189
-0.00101972
0.000220721
-0.000982797
0.000606965
-0.000843834
0.000925376
-0.000585072
0.00129433
-0.000133352
0.001587
0.000328201
0.00209868
0.00053164
0.00126338
0.000835203
-0.00036223
0.00162551
-0.00031474
-0.00063698
0.00911005
-0.00121003
0.0031292
-0.00103191
0.000976267
-0.000980893
0.000874749
-0.00111087
0.000891401
-0.00121577
0.000681336
-0.00125311
0.00041842
-0.001257
0.000173363
-0.00124651
-7.62436e-05
-0.00124129
-0.000320112
-0.00126189
-0.000539924
-0.00132462
-0.000726528
-0.00143785
-0.000874705
-0.0015985
-0.0009764
-0.00179091
-0.00101257
-0.00197821
-0.000950503
-0.002072
-0.000770038
-0.00203765
-0.000523357
-0.00190622
-0.000320101
-0.00176763
-0.000219235
-0.00167998
-0.000210706
-0.00164635
-0.000251003
-0.00165116
-0.000307551
-0.00165691
-0.000361343
-0.00163219
-0.000423698
-0.00157858
-0.000520986
-0.00149767
-0.00065536
-0.0013911
-0.000811896
-0.00126696
-0.000965649
-0.00113621
-0.00109047
-0.000999316
-0.0011565
-0.000844594
-0.00113738
-0.000664725
-0.00102354
-0.00042109
-0.000828513
5.93928e-05
-0.000613603
0.000860954
-0.000473107
0.00176438
-0.000371503
0.00231056
0.000289234
0.00243786
0.00149837
0.00217574
-0.000808648
0.0103534
-0.000732021
0.0030527
9.1545e-05
0.00015284
0.000426771
0.00053967
0.000247658
0.00107066
6.62584e-05
0.000862883
-3.19928e-05
0.000516812
-8.42958e-05
0.000225803
-0.000107024
-5.33831e-05
-0.000126194
-0.000300811
-0.000174016
-0.000491973
-0.00026608
-0.000634335
-0.000407522
-0.000733134
-0.000590817
-0.000792975
-0.000794273
-0.000808982
-0.000979235
-0.000765412
-0.00109586
-0.000653285
-0.00112003
-0.00049906
-0.00107804
-0.000361964
-0.00101903
-0.000278129
-0.000981493
-0.000248124
-0.000979043
-0.000253349
-0.00101004
-0.000276459
-0.00106231
-0.000308996
-0.00112721
-0.000358727
-0.00120607
-0.000442056
-0.00129948
-0.000561884
-0.00141023
-0.000701073
-0.00154799
-0.000827801
-0.00172045
-0.000917894
-0.00192155
-0.000955258
-0.00212737
-0.000931353
-0.00230394
-0.000846706
-0.00241313
-0.000719005
-0.00242249
-0.000603879
-0.00227921
-0.000615988
-0.00170162
-0.000948661
6.72195e-05
-0.00147917
0.00164891
-8.31242e-05
0.00388043
0.00208276
0.00875994
0.00299177
0.00214381
0.00343557
-0.00029082
0.00298576
0.000989623
0.00249641
0.00156017
0.00216855
0.0011909
0.00189765
0.000787866
0.0016689
0.000454708
0.00147208
0.000143584
0.00130385
-0.000132442
0.00115106
-0.000339053
0.000984533
-0.00046767
0.000792419
-0.000540885
0.000574819
-0.000575242
0.000344886
-0.000578915
0.000131136
-0.000551529
-3.09646e-05
-0.000491054
-0.000121683
-0.000408213
-0.000155136
-0.000328385
-0.0001627
-0.000270444
-0.000171528
-0.000239181
-0.00019682
-0.00022795
-0.000245263
-0.00022792
-0.000320514
-0.00023366
-0.000431389
-0.00024778
-0.000593984
-0.000279398
-0.000821415
-0.000334389
-0.00112259
-0.000399818
-0.00151493
-0.000435374
-0.0020223
-0.000410399
-0.00266245
-0.000314934
-0.00342299
-0.00017055
-0.00424661
-2.27516e-05
-0.00505898
9.37403e-05
-0.00580433
0.000141846
-0.00647396
5.39932e-05
-0.00720163
-0.000220669
-0.00798769
-0.000692825
-0.00657892
-0.00149164
-0.00242053
0.00930201
0.0114385
0.010145
0.00100283
0.0071205
0.00401423
0.00582369
0.0028571
0.00491979
0.00209493
0.00420691
0.00150088
0.00368588
0.000975883
0.00328197
0.000547637
0.00292318
0.000226489
0.00259069
-6.42078e-06
0.00228927
-0.000166111
0.00201271
-0.00026419
0.0017512
-0.000313587
0.00150115
-0.000328731
0.00127026
-0.000320506
0.00107521
-0.000295868
0.000928863
-0.000261733
0.000827887
-0.000227281
0.000757282
-0.000199715
0.000700151
-0.00018193
0.000644169
-0.000171856
0.000581543
-0.000165191
0.000506055
-0.00015808
0.0004076
-0.000149244
0.000267454
-0.000139182
6.17723e-05
-0.00012864
-0.00021809
-0.000119873
-0.000551766
-0.000101599
-0.000905155
-5.68934e-05
-0.00124233
2.23802e-05
-0.00155345
0.000140721
-0.00187005
0.000294015
-0.00221627
0.00044013
-0.00258384
0.000509581
-0.00298502
0.000455339
-0.00349789
0.000292336
-0.00400515
-0.000185432
-0.00344002
-0.00205663
-0.00557194
-0.00157691
0.00355537
0.00122169
0.00121573
0.00294451
0.00113441
0.00340501
0.00163456
0.00350115
0.00140487
0.00349611
0.000981059
0.00343402
0.000609862
0.00332668
0.000333964
0.00317916
0.000141243
0.00300389
9.29305e-06
0.00281519
-7.53453e-05
0.00262122
-0.000119472
0.00242789
-0.000135267
0.00224082
-0.000133297
0.00206749
-0.000122401
0.00191524
-0.000109344
0.00178649
-9.83953e-05
0.00167795
-9.10454e-05
0.00158375
-8.75999e-05
0.00149822
-8.62106e-05
0.00141715
-8.40072e-05
0.00133749
-7.83241e-05
0.00125597
-6.76341e-05
0.00116686
-4.99928e-05
0.00106367
-2.5382e-05
0.000940236
3.63008e-06
0.000800825
3.78824e-05
0.000659842
8.41734e-05
0.000531374
0.000150943
0.000432604
0.000239602
0.000382692
0.000344057
0.000387845
0.000435126
0.000441901
0.000455688
0.000564915
0.000332488
0.000893682
-3.6275e-05
0.00139578
-0.000687366
0.00137617
-0.00203685
-0.00413198
-0.00108104
0.00463737
0.000363011
-0.000228213
0.00134868
0.000148851
0.00200893
0.000974436
0.00254423
0.000869709
0.002911
0.000614418
0.00312654
0.000394463
0.00322805
0.000232582
0.00325051
0.000118921
0.00321785
4.20927e-05
0.00314431
-1.66403e-06
0.00304714
-2.21577e-05
0.00293966
-2.76479e-05
0.00282991
-2.34158e-05
0.00272212
-1.44668e-05
0.00261793
-5.0217e-06
0.00251762
2.05346e-06
0.00242121
5.49641e-06
0.00232857
5.16762e-06
0.00223994
2.54187e-06
0.0021565
-4.505e-07
0.00208019
-1.89929e-06
0.00201295
-3.03409e-07
0.00195684
6.20735e-06
0.0019129
1.86438e-05
0.00187923
3.73682e-05
0.00185433
6.28423e-05
0.00184439
9.41805e-05
0.00186235
0.000133044
0.00192284
0.000179181
0.00203847
0.000228515
0.00220801
0.000265694
0.00240685
0.000256979
0.00258992
0.00014957
0.00266003
-0.00010623
0.00246566
-0.000492834
0.00155463
-0.00112566
-0.00250182
-0.00426159
-0.00476816
-0.000129116
-0.00035903
-0.000214821
0.000753708
0.00161669
0.00222369
0.00261012
0.00283408
0.00294384
0.00297627
0.00296451
0.00293188
0.00289346
0.00285906
0.00283348
0.0028173
0.00280826
0.00280283
0.00279731
0.00278948
0.00277901
0.00276751
0.00275803
0.00275553
0.00276599
0.00279576
0.0028517
0.00293976
0.00306757
0.00324244
0.00346754
0.00373062
0.00398564
0.00413369
0.00402622
0.00353237
0.0024059
)
;

boundaryField
{
    floor
    {
        type            calculated;
        value           nonuniform List<scalar> 
29
(
0
0
0
0
0
0
0
0
0
0
0
0
0
0
0
0
0
0
0
0
-3.98446e-06
-1.04315e-05
-1.64983e-05
-1.56747e-05
-2.30265e-06
-3.63986e-06
-9.60751e-06
-1.22792e-05
-1.20843e-05
)
;
    }
    ceiling
    {
        type            calculated;
        value           nonuniform List<scalar> 
43
(
-1.76235e-06
-1.79749e-06
-1.5599e-06
1.79118e-06
4.74959e-06
6.02925e-06
6.85747e-06
7.54625e-06
8.1725e-06
8.75391e-06
9.29529e-06
9.79491e-06
1.02405e-05
1.06098e-05
1.09047e-05
1.11208e-05
1.12506e-05
1.12867e-05
1.12233e-05
1.10607e-05
1.08137e-05
1.04994e-05
1.0132e-05
9.72301e-06
9.28357e-06
8.80698e-06
8.28007e-06
7.68046e-06
6.98322e-06
6.18184e-06
5.29539e-06
4.37058e-06
3.47372e-06
2.67777e-06
2.04391e-06
1.6079e-06
1.34093e-06
1.12533e-06
9.24493e-07
1.29692e-06
9.61412e-06
7.41245e-06
-8.37096e-07
)
;
    }
    sWall
    {
        type            calculated;
        value           uniform -0.000132294;
    }
    nWall
    {
        type            calculated;
        value           nonuniform List<scalar> 6(-4.75753e-05 -5.24819e-05 -5.56213e-05 -6.36387e-05 -7.53902e-05 -9.70875e-05);
    }
    sideWalls
    {
        type            empty;
        value           nonuniform 0();
    }
    glass1
    {
        type            calculated;
        value           nonuniform List<scalar> 9(-6.33023e-05 -0.000161068 -0.000236175 -0.000296706 -0.000347867 -0.00039252 -0.000434575 -0.000489208 -0.000551571);
    }
    glass2
    {
        type            calculated;
        value           nonuniform List<scalar> 2(-0.000277726 -0.000288451);
    }
    sun
    {
        type            calculated;
        value           uniform 0;
    }
    heatsource1
    {
        type            calculated;
        value           nonuniform List<scalar> 3(2.0437e-07 2.04636e-07 2.05163e-07);
    }
    heatsource2
    {
        type            calculated;
        value           nonuniform List<scalar> 4(5.11665e-08 5.13361e-08 0 0);
    }
    Table_master
    {
        type            calculated;
        value           nonuniform List<scalar> 9(-1.54245e-07 -1.54363e-07 -1.54372e-07 -1.54374e-07 -1.5437e-07 -1.54355e-07 -1.54325e-07 -1.54285e-07 -1.54185e-07);
    }
    Table_slave
    {
        type            calculated;
        value           nonuniform List<scalar> 9(1.5303e-07 1.53122e-07 1.53211e-07 1.53319e-07 1.53453e-07 1.5362e-07 1.53644e-07 1.53496e-07 1.53351e-07);
    }
    inlet
    {
        type            calculated;
        value           uniform -0.000975485;
    }
    outlet
    {
        type            calculated;
        value           nonuniform List<scalar> 2(0.00439576 0.000508476);
    }
}


// ************************************************************************* //
