/*--------------------------------*- C++ -*----------------------------------*\
  =========                 |
  \\      /  F ield         | OpenFOAM: The Open Source CFD Toolbox
   \\    /   O peration     | Website:  https://openfoam.org
    \\  /    A nd           | Version:  6
     \\/     M anipulation  |
\*---------------------------------------------------------------------------*/
FoamFile
{
    version     2.0;
    format      ascii;
    class       volScalarField;
    location    "550";
    object      alphat;
}
// * * * * * * * * * * * * * * * * * * * * * * * * * * * * * * * * * * * * * //

dimensions      [1 -1 -1 0 0 0 0];

internalField   nonuniform List<scalar> 
459
(
0.000477141
0.000648958
0.000794883
0.000986491
0.000999399
0.000985356
0.000957449
0.0009249
0.000891227
0.00085859
0.000827376
0.00079512
0.000759066
0.000714408
0.000663296
0.000604157
0.000729964
0.000738269
0.000716695
0.000683525
0.000646863
0.00060523
0.000565777
0.000530848
0.000500344
0.000473659
0.000450123
0.000429091
0.000410133
0.000392225
0.000374141
0.000355799
0.000330948
0.000352452
0.000705691
0.00200961
0.00271172
0.00257977
0.00269012
0.0027987
0.00276597
0.00266793
0.00255664
0.00241307
0.00221185
0.00196535
0.00167734
0.00134396
0.000994966
0.000658553
0.000589125
0.000877993
0.00268569
0.00215056
0.00214084
0.00219859
0.00213239
0.00166832
0.00141839
0.00124585
0.00111721
0.00101769
0.000939297
0.000876014
0.000809693
0.000735964
0.000667563
0.000677565
0.000670209
0.000458583
0.000856981
0.00292482
0.00329307
0.00248736
0.00265312
0.0029718
0.00306002
0.00303224
0.00299225
0.00293668
0.00281081
0.00258558
0.00225969
0.00185474
0.00141984
0.00101447
0.000601544
0.000831608
0.00244076
0.00221629
0.00243899
0.00268192
0.00257141
0.000798377
0.000704182
0.000627477
0.000565093
0.000514043
0.000471957
0.000437229
0.00040981
0.00039013
0.000440075
0.000607452
0.000837867
0.000533242
0.000957511
0.00335868
0.00328748
0.00217202
0.00253838
0.00308697
0.0032508
0.00322262
0.0032034
0.00319746
0.00311863
0.00292422
0.00261539
0.00221942
0.00177776
0.00133686
0.000887934
0.000625457
0.00129761
0.00175442
0.00242791
0.00305898
0.00346129
0.00327124
0.000871195
0.000799077
0.000742052
0.000692394
0.000645769
0.000599528
0.00055176
0.000500684
0.000441983
0.000429702
0.000571943
0.001001
0.00062227
0.00101305
0.00347167
0.0028853
0.00190247
0.00253443
0.00332947
0.00355667
0.00349154
0.00347493
0.00348202
0.00339573
0.00320535
0.00292564
0.00258125
0.00220623
0.00184419
0.00154657
0.00166994
0.00229591
0.00313449
0.00387018
0.00438336
0.00465567
0.00463599
0.00397744
0.00357957
0.00318245
0.00279604
0.00241186
0.00202559
0.00163384
0.00124248
0.000851318
0.000612203
0.000626651
0.000971616
0.000870122
0.000673626
0.000708003
0.00098359
0.00104188
0.00355956
0.00233095
0.00172161
0.00258817
0.00363075
0.00394081
0.00388054
0.00396257
0.00389331
0.00376076
0.00358873
0.00337901
0.00314465
0.0029273
0.00280019
0.0028663
0.00346697
0.00423569
0.0048792
0.00532537
0.00556275
0.00562355
0.00552871
0.00523419
0.00480275
0.0042871
0.00373275
0.0031641
0.00259383
0.00202543
0.00150986
0.00113327
0.000966788
0.000952712
0.00102348
0.00100157
0.00106058
0.00153584
0.00131708
0.00108918
0.00388419
0.00181872
0.00161577
0.00266264
0.00393665
0.00434486
0.00430325
0.00427596
0.00417185
0.00407833
0.00400255
0.00393442
0.00388229
0.0039078
0.00408746
0.00450182
0.00518923
0.00575989
0.00610583
0.00624534
0.00620412
0.00604202
0.00577233
0.00538634
0.00491723
0.00438809
0.00382514
0.00325839
0.00272142
0.00225387
0.00190861
0.00172181
0.00167237
0.00164355
0.00151081
0.00123839
0.00151159
0.00282054
0.00179306
0.00111731
0.00362148
0.00137269
0.00157278
0.00277194
0.00425695
0.00478081
0.00464845
0.00441436
0.00427861
0.00425701
0.00429622
0.00437795
0.00451624
0.00474847
0.00512693
0.00562784
0.00613994
0.00645196
0.00650807
0.00636009
0.00603041
0.00561029
0.00517606
0.00474574
0.00432145
0.00389731
0.00348566
0.00311678
0.00282856
0.00265431
0.00260835
0.00266388
0.00273675
0.00270233
0.00248874
0.00198997
0.00220014
0.00511919
0.00246665
0.00112623
0.0014063
0.000852435
0.00161368
0.00300894
0.00473757
0.00535577
0.005072
0.00482694
0.00478678
0.00484828
0.00495059
0.00508442
0.00526102
0.00549517
0.00578915
0.00609154
0.00629726
0.006304
0.00610569
0.0057568
0.00534556
0.00493877
0.00457642
0.00427119
0.00402144
0.0038239
0.00368593
0.00362208
0.00364534
0.00375788
0.0039417
0.00414825
0.00429512
0.00428725
0.00408086
0.00357341
0.00350593
0.0067316
0.00276521
0.000606425
0.00212008
0.00372669
0.00571352
0.00584429
0.00577784
0.00584948
0.00599025
0.00612567
0.00623804
0.006333
0.00642005
0.00650382
0.00657748
0.00661628
0.00658614
0.00647078
0.00628763
0.00607131
0.00585285
0.00565253
0.00548081
0.00534287
0.00524393
0.00519111
0.00519391
0.00526148
0.0053981
0.00559742
0.00583542
0.00606385
0.00620987
0.00618456
0.00600653
0.00560211
0.00536421
0.00696968
0.00233375
0.00237941
0.00689049
0.00706989
0.00654976
0.00644049
0.00659664
0.00684256
0.00706281
0.00722253
0.00732581
0.00738723
0.00742068
0.00743643
0.00744044
0.00743312
0.0074094
0.00736192
0.00728982
0.00720064
0.00710491
0.00701054
0.00692365
0.00685057
0.00679965
0.00678053
0.00680343
0.00687746
0.00700805
0.00719289
0.0074155
0.00763632
0.0077836
0.00775232
0.0075404
0.00707555
0.00653033
0.00568345
0.00196299
0.00152158
0.0016149
0.00178255
0.00187602
0.00186711
0.00182614
0.0018098
0.0018116
0.00181846
0.00182489
0.00182976
0.0018335
0.00183679
0.00184025
0.00184408
0.00184792
0.00185074
0.00185126
0.00184894
0.00184424
0.00183819
0.00183181
0.00182588
0.00182104
0.00181787
0.00181697
0.00181892
0.00182422
0.00183317
0.00184557
0.00186033
0.00187502
0.00188532
0.0018856
0.00187687
0.00185895
0.0018602
0.00189466
0.00189821
0.00167165
)
;

boundaryField
{
    floor
    {
        type            compressible::alphatWallFunction;
        Prt             0.85;
        value           nonuniform List<scalar> 
29
(
9.40558e-05
8.52645e-05
0.000103873
0.000105088
0.000101932
9.70573e-05
9.16352e-05
8.54315e-05
7.95037e-05
7.42125e-05
6.95557e-05
6.54526e-05
6.18092e-05
5.85329e-05
5.55617e-05
5.27389e-05
4.98711e-05
4.69438e-05
4.29455e-05
4.6407e-05
4.64064e-05
6.3123e-05
7.45794e-05
8.79815e-05
9.40546e-05
8.52635e-05
0.000125273
0.000118611
8.84414e-05
)
;
    }
    ceiling
    {
        type            compressible::alphatWallFunction;
        Prt             0.85;
        value           nonuniform List<scalar> 
43
(
0.000214221
0.00022671
0.000248949
0.000261248
0.000260081
0.000254701
0.000252551
0.000252792
0.000253696
0.000254542
0.000255185
0.000255676
0.00025611
0.000256565
0.000257069
0.000257574
0.000257944
0.000258013
0.000257708
0.00025709
0.000256295
0.000255455
0.000254675
0.000254037
0.00025362
0.000253501
0.000253757
0.000254454
0.000255631
0.000257261
0.0002592
0.000261128
0.000262477
0.000262513
0.000261367
0.000259014
0.000259178
0.000263698
0.000264165
0.000234273
0.000160229
0.000198629
0.000326411
)
;
    }
    sWall
    {
        type            compressible::alphatWallFunction;
        Prt             0.85;
        value           uniform 0.000214118;
    }
    nWall
    {
        type            compressible::alphatWallFunction;
        Prt             0.85;
        value           nonuniform List<scalar> 6(0.000140286 0.000186533 0.000250328 0.000320572 0.000272626 0.00023426);
    }
    sideWalls
    {
        type            empty;
    }
    glass1
    {
        type            compressible::alphatWallFunction;
        Prt             0.85;
        value           nonuniform List<scalar> 9(6.59051e-05 0.000100268 0.000122228 0.000136552 0.000144382 0.000148425 0.000155037 0.000158954 0.000160185);
    }
    glass2
    {
        type            compressible::alphatWallFunction;
        Prt             0.85;
        value           nonuniform List<scalar> 2(0.00033856 0.000376438);
    }
    sun
    {
        type            compressible::alphatWallFunction;
        Prt             0.85;
        value           nonuniform List<scalar> 
14
(
6.5971e-05
9.19313e-05
0.000113308
0.000140677
0.000142495
0.000140515
0.00013657
0.000131952
0.000127155
0.000122485
0.000117999
0.000113341
0.000108108
0.000101584
)
;
    }
    heatsource1
    {
        type            compressible::alphatWallFunction;
        Prt             0.85;
        value           nonuniform List<scalar> 3(9.54335e-05 0.000100494 0.000140109);
    }
    heatsource2
    {
        type            compressible::alphatWallFunction;
        Prt             0.85;
        value           nonuniform List<scalar> 4(9.32065e-05 8.28587e-05 8.28577e-05 8.47191e-05);
    }
    Table_master
    {
        type            compressible::alphatWallFunction;
        Prt             0.85;
        value           nonuniform List<scalar> 9(0.000113658 9.99327e-05 8.85912e-05 7.92417e-05 7.14954e-05 6.50367e-05 5.9652e-05 5.53621e-05 5.22603e-05);
    }
    Table_slave
    {
        type            compressible::alphatWallFunction;
        Prt             0.85;
        value           nonuniform List<scalar> 9(0.000124138 0.000113762 0.000105478 9.82024e-05 9.13127e-05 8.44194e-05 7.72291e-05 6.94544e-05 6.03937e-05);
    }
    inlet
    {
        type            fixedValue;
        value           uniform 1.94e-05;
    }
    outlet
    {
        type            zeroGradient;
    }
}


// ************************************************************************* //
