/*--------------------------------*- C++ -*----------------------------------*\
  =========                 |
  \\      /  F ield         | OpenFOAM: The Open Source CFD Toolbox
   \\    /   O peration     | Website:  https://openfoam.org
    \\  /    A nd           | Version:  6
     \\/     M anipulation  |
\*---------------------------------------------------------------------------*/
FoamFile
{
    version     2.0;
    format      ascii;
    class       volScalarField;
    location    "1600";
    object      alphat;
}
// * * * * * * * * * * * * * * * * * * * * * * * * * * * * * * * * * * * * * //

dimensions      [1 -1 -1 0 0 0 0];

internalField   nonuniform List<scalar> 
459
(
0.00125328
0.00137032
0.00139574
0.0014628
0.00152489
0.00158299
0.00163992
0.00169566
0.00173506
0.00175177
0.00173988
0.00169571
0.00161904
0.00151635
0.00140371
0.000550363
0.000673313
0.000757055
0.000751818
0.000725674
0.000691513
0.000648905
0.000606738
0.000568442
0.000534413
0.000504246
0.00047741
0.000453531
0.000432078
0.000412293
0.000393185
0.000373294
0.000359072
0.000327051
0.00170686
0.00417451
0.00399452
0.00464872
0.00529172
0.00593495
0.00650332
0.00693105
0.00731855
0.00763441
0.00783441
0.00786803
0.0076585
0.0070139
0.00524227
0.00143086
0.00084335
0.000595663
0.00124937
0.0017233
0.00206062
0.00223743
0.00222717
0.00179295
0.00154744
0.00137145
0.0012361
0.00112829
0.00104038
0.000964343
0.000893434
0.000824833
0.000763987
0.000711192
0.000833287
0.000427197
0.00208375
0.00570351
0.00495797
0.00621703
0.00684565
0.00731257
0.00767579
0.00796562
0.00828061
0.00860965
0.00891393
0.00913796
0.00922044
0.00907139
0.00845307
0.00651911
0.00142172
0.00118965
0.00170684
0.00218263
0.00260327
0.00288471
0.00280014
0.000928895
0.000820385
0.000733247
0.000662937
0.000605642
0.000558448
0.000519272
0.000486776
0.0004604
0.000495802
0.000572553
0.000936725
0.000494006
0.00244495
0.00728993
0.00497505
0.00658173
0.0071343
0.00732284
0.00744593
0.0075961
0.00784793
0.00818474
0.00856677
0.0089249
0.00919591
0.00930902
0.0091788
0.00851471
0.00624534
0.0017024
0.00211165
0.00272337
0.00330722
0.00376209
0.00403255
0.00376791
0.00104806
0.000954221
0.00088698
0.000835715
0.000792189
0.000752321
0.000714079
0.000674015
0.000627614
0.000588285
0.000600693
0.00106921
0.000545749
0.00281283
0.00932437
0.00547254
0.00633916
0.0070701
0.00711944
0.00706087
0.0071431
0.00736641
0.00770807
0.00813581
0.00855459
0.00887706
0.0090319
0.00899349
0.00871254
0.00799428
0.00660794
0.00613062
0.00596781
0.00590461
0.00585948
0.00578478
0.00555241
0.00468529
0.00426873
0.00402653
0.00383988
0.00364362
0.00336135
0.00298029
0.00251732
0.00200266
0.00148347
0.00109377
0.00109733
0.000731357
0.000672668
0.000814368
0.00091403
0.00320247
0.0115369
0.00753167
0.00631605
0.00686468
0.00711028
0.00695698
0.00702572
0.00719429
0.00749978
0.0079293
0.00838659
0.00874054
0.00888919
0.00880824
0.0085514
0.00820706
0.0078463
0.00763859
0.00747981
0.00729988
0.00709725
0.00687468
0.00660352
0.00621169
0.00586313
0.00555458
0.0052588
0.00495725
0.0046291
0.00421556
0.00370124
0.00308649
0.0024063
0.00180478
0.00135065
0.00101962
0.0008675
0.00123769
0.000953827
0.00355643
0.0130808
0.0105454
0.00814172
0.00769798
0.00760257
0.00734941
0.00718914
0.00724233
0.00753833
0.00801265
0.0085213
0.00889348
0.00900898
0.00885477
0.00854299
0.00827106
0.00817121
0.00816902
0.00807852
0.00785056
0.00752875
0.00715252
0.00674169
0.00631284
0.00591518
0.00554997
0.00520867
0.0048919
0.00460775
0.00435618
0.00401266
0.00353208
0.00294597
0.0023826
0.0018787
0.00151014
0.00139765
0.00142728
0.0010871
0.00362254
0.0116249
0.0103339
0.00954538
0.00884796
0.00804035
0.00740737
0.00715562
0.00731033
0.00778505
0.0084165
0.00899635
0.00932902
0.00931975
0.00901416
0.00860619
0.00835526
0.00834138
0.00832977
0.00806036
0.00760723
0.00705865
0.00648453
0.0059417
0.00546647
0.00506588
0.0047253
0.00443702
0.00420517
0.00403934
0.00394781
0.00390117
0.00366052
0.00328416
0.00295314
0.00278433
0.00289301
0.00333639
0.00409911
0.00169575
0.00352252
0.0041803
0.00464451
0.00476357
0.00486302
0.0051335
0.00567838
0.00650793
0.0075258
0.00855533
0.00940655
0.00990145
0.00992171
0.00952064
0.00891519
0.00849456
0.00824876
0.00802853
0.0076695
0.0071133
0.00644091
0.00575354
0.00513378
0.00462181
0.00421604
0.00389234
0.00362667
0.00340447
0.00321638
0.00305267
0.00290279
0.00276501
0.00265599
0.00257557
0.00254505
0.00255606
0.0025415
0.00243985
0.00228061
0.001594
0.0017646
0.00361387
0.00584374
0.00769926
0.00914508
0.010247
0.0109409
0.0112133
0.0111062
0.0106134
0.0098395
0.00886504
0.00803101
0.0075071
0.00707983
0.006562
0.00593627
0.00527325
0.00464694
0.00410745
0.00368097
0.00335228
0.00309656
0.00289464
0.00273521
0.00261235
0.00252296
0.00246534
0.00244123
0.00244813
0.00247007
0.00250265
0.00253701
0.00254544
0.00248317
0.00233596
0.00211446
0.00132509
0.00235559
0.00604016
0.00899072
0.0100983
0.0106562
0.0108299
0.0105871
0.00999746
0.00918151
0.00825766
0.007383
0.00659965
0.00596503
0.00542459
0.00488225
0.00435163
0.00388346
0.00350362
0.00320962
0.002984
0.00280065
0.00264647
0.00251592
0.00241357
0.00234073
0.00229598
0.00227725
0.00228161
0.00231534
0.00237508
0.00245677
0.00255191
0.00264179
0.0027038
0.00268311
0.00271275
0.00275039
0.001351
0.00208864
0.00221379
0.00230212
0.00246445
0.00237756
0.00227667
0.00221147
0.00212085
0.0019917
0.00183154
0.00165138
0.001464
0.00128197
0.00112533
0.00100676
0.000922529
0.00086296
0.000820159
0.000789246
0.00076739
0.000752828
0.000744493
0.000741732
0.000744792
0.000754191
0.00076933
0.000790131
0.000816979
0.000850523
0.000891763
0.000939562
0.000993993
0.00105564
0.00112503
0.0012016
0.00129261
0.00132192
0.00128795
0.00120994
0.00112698
)
;

boundaryField
{
    floor
    {
        type            compressible::alphatWallFunction;
        Prt             0.85;
        value           nonuniform List<scalar> 
29
(
0.000198003
7.69162e-05
9.52825e-05
0.000107555
0.000106792
0.000102976
9.79648e-05
9.16718e-05
8.53941e-05
7.9646e-05
7.44981e-05
6.99003e-05
6.57811e-05
6.20912e-05
5.87553e-05
5.56597e-05
5.26521e-05
4.95012e-05
4.7235e-05
4.20891e-05
4.20885e-05
5.79935e-05
6.83322e-05
7.62179e-05
0.000198001
7.69152e-05
8.3736e-05
0.000168739
0.000238021
)
;
    }
    ceiling
    {
        type            compressible::alphatWallFunction;
        Prt             0.85;
        value           nonuniform List<scalar> 
43
(
0.000288544
0.000304716
0.000316074
0.000336948
0.000325909
0.000313002
0.000304627
0.000292932
0.000276164
0.000255199
0.000231373
0.000206282
0.000181558
0.000159963
0.000143386
0.000131472
0.00012297
0.000116818
0.000112351
0.00010918
0.000107062
0.000105847
0.000105444
0.000105891
0.000107261
0.000109463
0.00011248
0.000116361
0.000121188
0.000127092
0.000133894
0.000141591
0.00015025
0.000159926
0.000170524
0.000183022
0.000187026
0.000182385
0.000171675
0.000160201
0.000469343
0.000549345
0.000322757
)
;
    }
    sWall
    {
        type            compressible::alphatWallFunction;
        Prt             0.85;
        value           uniform 0.000287335;
    }
    nWall
    {
        type            compressible::alphatWallFunction;
        Prt             0.85;
        value           nonuniform List<scalar> 6(0.000129946 0.00013559 0.000154309 0.000187132 0.000190659 0.000159879);
    }
    sideWalls
    {
        type            empty;
    }
    glass1
    {
        type            compressible::alphatWallFunction;
        Prt             0.85;
        value           nonuniform List<scalar> 9(0.000173213 0.000233521 0.000282408 0.000328454 0.000374678 0.000422995 0.000466407 0.000474596 0.000462625);
    }
    glass2
    {
        type            compressible::alphatWallFunction;
        Prt             0.85;
        value           nonuniform List<scalar> 2(0.000235584 0.000222158);
    }
    sun
    {
        type            compressible::alphatWallFunction;
        Prt             0.85;
        value           nonuniform List<scalar> 
14
(
0.000177517
0.000193479
0.000196928
0.000205994
0.000214347
0.000222129
0.000229724
0.000237131
0.00024235
0.00024456
0.000242986
0.000237135
0.000226938
0.000213197
)
;
    }
    heatsource1
    {
        type            compressible::alphatWallFunction;
        Prt             0.85;
        value           nonuniform List<scalar> 3(9.52912e-05 0.000115967 0.000130248);
    }
    heatsource2
    {
        type            compressible::alphatWallFunction;
        Prt             0.85;
        value           nonuniform List<scalar> 4(0.000201799 0.000120141 0.000120139 0.00020056);
    }
    Table_master
    {
        type            compressible::alphatWallFunction;
        Prt             0.85;
        value           nonuniform List<scalar> 9(0.000132359 0.000116833 0.000104187 9.38508e-05 8.53293e-05 7.82355e-05 7.22903e-05 6.73161e-05 6.32479e-05);
    }
    Table_slave
    {
        type            compressible::alphatWallFunction;
        Prt             0.85;
        value           nonuniform List<scalar> 9(0.00014917 0.000135955 0.000126391 0.000119043 0.000112762 0.000106972 0.000101384 9.54901e-05 8.86105e-05);
    }
    inlet
    {
        type            fixedValue;
        value           uniform 1.94e-05;
    }
    outlet
    {
        type            zeroGradient;
    }
}


// ************************************************************************* //
