// -*- C++ -*-
// File generated by PyFoam - sorry for the ugliness

FoamFile
{
 version 2.0;
 format ascii;
 class volVectorField;
 location "700";
 object U;
}

dimensions [ 0 1 -1 0 0 0 0 ];

internalField nonuniform List<vector> 459
(
  (0.032958 0.085445 0)
  (-0.166091 0.025675 0)
  (-0.190674 0.0178453 0)
  (-0.221273 0.0123283 0)
  (-0.243586 0.00629906 0)
  (-0.256776 -2.11136e-05 0)
  (-0.259514 -0.00668676 0)
  (-0.250597 -0.0137013 0)
  (-0.230692 -0.020591 0)
  (-0.201252 -0.0263051 0)
  (-0.165268 -0.0300032 0)
  (-0.12616 -0.0314202 0)
  (-0.0871758 -0.0310816 0)
  (-0.0530679 -0.0306362 0)
  (-0.037485 -0.0318249 0)
  (-0.00268599 0.0074167 0)
  (-0.0223412 -0.0174881 0)
  (0.00136746 -0.026217 0)
  (0.0222591 -0.0194487 0)
  (0.0379637 -0.0130706 0)
  (0.0495779 -0.00834859 0)
  (0.0564432 -0.00500468 0)
  (0.0598725 -0.00325842 0)
  (0.0614359 -0.00250403 0)
  (0.0622584 -0.00213975 0)
  (0.0627792 -0.00190424 0)
  (0.063054 -0.00171167 0)
  (0.0630171 -0.00147408 0)
  (0.0624584 -0.00101887 0)
  (0.0608084 3.72261e-05 0)
  (0.0568613 0.00223745 0)
  (0.0492919 0.00463311 0)
  (0.0414228 0.00672732 0)
  (-0.0103135 0.0203948 0)
  (0.205199 0.174559 0)
  (-0.154257 0.0671689 0)
  (-0.152602 0.0521494 0)
  (-0.183837 0.0406624 0)
  (-0.205623 0.0278107 0)
  (-0.218778 0.0135933 0)
  (-0.221957 -0.00224371 0)
  (-0.213759 -0.0192548 0)
  (-0.195376 -0.0353233 0)
  (-0.168636 -0.0479497 0)
  (-0.13675 -0.0553545 0)
  (-0.103132 -0.0570816 0)
  (-0.070997 -0.0538132 0)
  (-0.044088 -0.0471345 0)
  (-0.0269957 -0.0382257 0)
  (-0.0134446 -0.0187155 0)
  (-0.0071424 0.013377 0)
  (0.0598786 0.0313109 0)
  (0.0315063 -0.019885 0)
  (0.0385586 -0.030592 0)
  (0.0493303 -0.0259279 0)
  (0.0577677 -0.0178468 0)
  (0.0633497 -0.0104638 0)
  (0.06555 -0.00431807 0)
  (0.065863 -0.000914094 0)
  (0.0657748 0.000542047 0)
  (0.0658552 0.00121883 0)
  (0.0660179 0.00164543 0)
  (0.066134 0.00201667 0)
  (0.0661617 0.00250146 0)
  (0.0660472 0.00343822 0)
  (0.0652574 0.00573454 0)
  (0.0613687 0.0120627 0)
  (0.051595 0.0174717 0)
  (0.0452005 0.0213635 0)
  (-0.0437222 0.0440424 0)
  (0.363003 0.260818 0)
  (-0.169923 0.10649 0)
  (-0.113989 0.0839041 0)
  (-0.14376 0.0634868 0)
  (-0.162704 0.0424107 0)
  (-0.174487 0.01942 0)
  (-0.176936 -0.00625247 0)
  (-0.167838 -0.0334139 0)
  (-0.149451 -0.0582906 0)
  (-0.124361 -0.07684 0)
  (-0.096062 -0.0866808 0)
  (-0.0675074 -0.0877199 0)
  (-0.0409824 -0.0811169 0)
  (-0.0186921 -0.0684437 0)
  (-0.00243861 -0.0507155 0)
  (0.009965 -0.0251152 0)
  (0.0166705 0.00925678 0)
  (0.105479 -0.0391356 0)
  (0.0729414 -0.0431428 0)
  (0.0690247 -0.039447 0)
  (0.071208 -0.0316213 0)
  (0.0727549 -0.0224834 0)
  (0.0735892 -0.014822 0)
  (0.0718727 -0.0120715 0)
  (0.0678623 -0.00863728 0)
  (0.0650922 -0.00677656 0)
  (0.0638378 -0.00571699 0)
  (0.0632876 -0.00504587 0)
  (0.0630188 -0.00457773 0)
  (0.0630656 -0.00412183 0)
  (0.0639005 -0.00331541 0)
  (0.0667358 -0.000181855 0)
  (0.0646976 0.0170477 0)
  (0.0514338 0.0292796 0)
  (0.0508025 0.0379874 0)
  (-0.0731499 0.069159 0)
  (0.504986 0.329991 0)
  (-0.203224 0.141143 0)
  (-0.0737772 0.110456 0)
  (-0.10128 0.0823676 0)
  (-0.114391 0.0553393 0)
  (-0.122204 0.0252754 0)
  (-0.120949 -0.00989476 0)
  (-0.108527 -0.0475762 0)
  (-0.0893407 -0.0804675 0)
  (-0.0666594 -0.10337 0)
  (-0.043713 -0.114103 0)
  (-0.0222668 -0.113718 0)
  (-0.00308898 -0.104 0)
  (0.0132479 -0.086728 0)
  (0.0266471 -0.0647689 0)
  (0.0409808 -0.038771 0)
  (0.0630605 -0.0121071 0)
  (0.0936135 0.000142565 0)
  (0.101242 -0.0329139 0)
  (0.0877005 -0.0382701 0)
  (0.0791372 -0.0341009 0)
  (0.0749574 -0.0278386 0)
  (0.0722224 -0.0204562 0)
  (0.070914 -0.0118967 0)
  (0.0726487 -0.00698249 0)
  (0.0767768 -0.00550825 0)
  (0.0801897 -0.00468235 0)
  (0.0824961 -0.0040407 0)
  (0.0838958 -0.00321423 0)
  (0.0838284 -0.00194832 0)
  (0.0812425 -2.59619e-05 0)
  (0.0749022 0.00283926 0)
  (0.0620169 0.00717996 0)
  (0.0510773 0.0274467 0)
  (0.0404332 0.0442677 0)
  (0.0536819 0.0578508 0)
  (-0.103514 0.0919961 0)
  (0.626945 0.383473 0)
  (-0.243941 0.16936 0)
  (-0.0347428 0.125118 0)
  (-0.0571827 0.0925403 0)
  (-0.0619282 0.0621824 0)
  (-0.0626225 0.0271848 0)
  (-0.0515506 -0.0166691 0)
  (-0.0335822 -0.0635834 0)
  (-0.0146434 -0.101005 0)
  (0.00305271 -0.124644 0)
  (0.0174908 -0.133198 0)
  (0.0288223 -0.129796 0)
  (0.0375547 -0.117448 0)
  (0.044409 -0.0986916 0)
  (0.0505268 -0.0761879 0)
  (0.0578796 -0.0525877 0)
  (0.0690632 -0.033343 0)
  (0.0795235 -0.0287982 0)
  (0.0810901 -0.0346532 0)
  (0.0745484 -0.0334687 0)
  (0.0665321 -0.0285434 0)
  (0.060408 -0.0229966 0)
  (0.0560929 -0.0172691 0)
  (0.0538012 -0.0113877 0)
  (0.0539051 -0.00624033 0)
  (0.0560516 -0.0038803 0)
  (0.0584447 -0.00302996 0)
  (0.0607675 -0.00231382 0)
  (0.0629186 -0.000796856 0)
  (0.0645172 0.00206629 0)
  (0.0643975 0.00639263 0)
  (0.0619772 0.0123466 0)
  (0.0565649 0.0205806 0)
  (0.0500045 0.0360007 0)
  (0.04101 0.0545312 0)
  (0.0619362 0.0750402 0)
  (-0.0170048 0.104274 0)
  (0.0453863 0.0340379 0)
  (-0.0612873 -0.0344043 0)
  (-0.268921 -0.0566857 0)
  (0.714649 0.427988 0)
  (-0.283229 0.188152 0)
  (-0.00565986 0.119958 0)
  (-0.0117206 0.0916332 0)
  (-0.00488303 0.0621544 0)
  (0.00545291 0.020364 0)
  (0.0343035 -0.0341044 0)
  (0.055375 -0.0822056 0)
  (0.0701715 -0.116419 0)
  (0.0786645 -0.13542 0)
  (0.0816412 -0.140426 0)
  (0.0806044 -0.134174 0)
  (0.0769244 -0.119691 0)
  (0.0720121 -0.0999613 0)
  (0.0673459 -0.0778737 0)
  (0.0642851 -0.0561126 0)
  (0.0637157 -0.0384017 0)
  (0.0632553 -0.0293265 0)
  (0.0592223 -0.0270268 0)
  (0.0516117 -0.0248933 0)
  (0.0433809 -0.0213005 0)
  (0.0367936 -0.0173397 0)
  (0.0322758 -0.0134838 0)
  (0.0299959 -0.00980313 0)
  (0.0299303 -0.00695579 0)
  (0.031607 -0.00601145 0)
  (0.0340976 -0.00598963 0)
  (0.0370599 -0.00569903 0)
  (0.0403311 -0.00417634 0)
  (0.0436972 -0.000570708 0)
  (0.0466555 0.00538758 0)
  (0.0481987 0.0133903 0)
  (0.0485354 0.0236525 0)
  (0.0490756 0.0379522 0)
  (0.048392 0.0558972 0)
  (0.0703461 0.0787479 0)
  (0.0522799 0.0973174 0)
  (0.0914537 0.0683336 0)
  (0.114477 0.0445993 0)
  (-0.128244 -0.0073698 0)
  (0.76761 0.468577 0)
  (-0.301805 0.173514 0)
  (0.0221011 0.0677639 0)
  (0.0496253 0.0628586 0)
  (0.0704034 0.0437164 0)
  (0.103647 -0.00418038 0)
  (0.135307 -0.0577783 0)
  (0.153543 -0.0986521 0)
  (0.159479 -0.124245 0)
  (0.155198 -0.135569 0)
  (0.143342 -0.134785 0)
  (0.126776 -0.124743 0)
  (0.108041 -0.108341 0)
  (0.0892903 -0.0884917 0)
  (0.0722745 -0.067771 0)
  (0.0580933 -0.0482354 0)
  (0.0472529 -0.0325384 0)
  (0.0386296 -0.0230556 0)
  (0.0302333 -0.0188038 0)
  (0.0217083 -0.0164656 0)
  (0.0140605 -0.0142009 0)
  (0.00825562 -0.0120716 0)
  (0.0044879 -0.0102426 0)
  (0.00275224 -0.00873811 0)
  (0.00288529 -0.00792733 0)
  (0.00438695 -0.00819693 0)
  (0.00664355 -0.00891137 0)
  (0.00943896 -0.00921359 0)
  (0.0128246 -0.00825101 0)
  (0.0169312 -0.00502505 0)
  (0.0226944 0.00143255 0)
  (0.0283914 0.0101964 0)
  (0.033823 0.020555 0)
  (0.0408061 0.0331781 0)
  (0.0486213 0.0478298 0)
  (0.0703911 0.0662384 0)
  (0.0839986 0.0746116 0)
  (0.115858 0.0525838 0)
  (0.155392 0.0440071 0)
  (-0.0362637 0.0925496 0)
  (0.872427 0.469875 0)
  (-0.0642016 0.152124 0)
  (0.110075 -0.0139316 0)
  (0.181908 -0.0414085 0)
  (0.21296 -0.0532133 0)
  (0.244383 -0.0757003 0)
  (0.262007 -0.0978747 0)
  (0.262633 -0.113599 0)
  (0.247874 -0.120936 0)
  (0.221818 -0.119962 0)
  (0.188968 -0.111919 0)
  (0.153357 -0.0986182 0)
  (0.118131 -0.0818165 0)
  (0.0856759 -0.0636944 0)
  (0.0575969 -0.0461596 0)
  (0.0345018 -0.0304052 0)
  (0.0171886 -0.0185879 0)
  (0.0047183 -0.0120126 0)
  (-0.00482788 -0.00947724 0)
  (-0.0121226 -0.00873581 0)
  (-0.0179144 -0.00833805 0)
  (-0.0221383 -0.00812107 0)
  (-0.0248993 -0.00810919 0)
  (-0.0263403 -0.0083437 0)
  (-0.0266877 -0.0089784 0)
  (-0.0263483 -0.0100769 0)
  (-0.025708 -0.0113247 0)
  (-0.0248736 -0.0122703 0)
  (-0.023686 -0.0124178 0)
  (-0.0217497 -0.0111802 0)
  (-0.0180896 -0.00781473 0)
  (-0.00944332 -0.0016339 0)
  (-0.00117657 0.0063583 0)
  (0.00934284 0.0145055 0)
  (0.021027 0.0215617 0)
  (0.040799 0.028899 0)
  (0.0598451 0.0224853 0)
  (0.0798814 -0.00465362 0)
  (0.138651 0.0390791 0)
  (-0.405059 0.202494 0)
  (1.01941 0.422955 0)
  (0.484938 0.279517 0)
  (0.499814 0.182914 0)
  (0.526423 0.111508 0)
  (0.507444 0.0600312 0)
  (0.465403 0.0128304 0)
  (0.416541 -0.0263728 0)
  (0.362875 -0.0531156 0)
  (0.304713 -0.0666796 0)
  (0.244972 -0.0691183 0)
  (0.187125 -0.0638235 0)
  (0.133753 -0.0539427 0)
  (0.0864413 -0.0413516 0)
  (0.0467275 -0.0282539 0)
  (0.0146881 -0.0164461 0)
  (-0.0107269 -0.00700276 0)
  (-0.0255884 -0.00283303 0)
  (-0.0347523 -0.001843 0)
  (-0.0409089 -0.00237326 0)
  (-0.04569 -0.00337721 0)
  (-0.0496129 -0.00438985 0)
  (-0.0528123 -0.00538353 0)
  (-0.0553923 -0.00638368 0)
  (-0.0575069 -0.00742581 0)
  (-0.0593937 -0.00855878 0)
  (-0.0614032 -0.00976273 0)
  (-0.0638876 -0.0108309 0)
  (-0.067144 -0.0113962 0)
  (-0.071489 -0.0109298 0)
  (-0.0773496 -0.00872819 0)
  (-0.0852704 -0.00396997 0)
  (-0.0951984 0.00389334 0)
  (-0.105314 0.0143465 0)
  (-0.1201 0.0276229 0)
  (-0.143292 0.0438597 0)
  (-0.177397 0.0619977 0)
  (-0.225769 0.07818 0)
  (-0.281448 0.0898463 0)
  (-0.349443 0.0969336 0)
  (-0.609113 0.0999713 0)
  (-0.150426 0.00172998 0)
  (0.121108 0.00117749 0)
  (0.199898 -0.0322478 0)
  (0.186987 -0.0420876 0)
  (0.170892 -0.0399978 0)
  (0.148784 -0.0350346 0)
  (0.119326 -0.0287818 0)
  (0.0856036 -0.0213805 0)
  (0.0511207 -0.013291 0)
  (0.0162423 -0.00511851 0)
  (-0.0171078 0.00240372 0)
  (-0.0393785 0.0066539 0)
  (-0.0547306 0.00895724 0)
  (-0.0638756 0.00941926 0)
  (-0.0689372 0.00856035 0)
  (-0.0724583 0.00761389 0)
  (-0.0752502 0.00684875 0)
  (-0.0777366 0.00627145 0)
  (-0.0802344 0.00579141 0)
  (-0.0828665 0.00514618 0)
  (-0.0856074 0.00439808 0)
  (-0.0885352 0.00356377 0)
  (-0.0917734 0.00269952 0)
  (-0.0954658 0.00193004 0)
  (-0.0996936 0.00149595 0)
  (-0.104454 0.00171 0)
  (-0.109677 0.00290133 0)
  (-0.115184 0.00537112 0)
  (-0.120357 0.00964645 0)
  (-0.124473 0.01663 0)
  (-0.127884 0.0274382 0)
  (-0.130803 0.0424564 0)
  (-0.133891 0.0608837 0)
  (-0.137581 0.0793152 0)
  (-0.138836 0.0882388 0)
  (-0.121397 0.0671653 0)
  (-0.0785116 -0.022994 0)
  (-0.27394 -0.198255 0)
  (0.0161495 0.194428 0)
  (0.0412008 0.0700991 0)
  (0.000422401 0.00571973 0)
  (-0.0128426 -0.00236012 0)
  (-0.0263981 -0.000303234 0)
  (-0.041426 7.4248e-05 0)
  (-0.0577157 0.00121829 0)
  (-0.0731572 0.00348643 0)
  (-0.0852737 0.00559458 0)
  (-0.0918794 0.00590579 0)
  (-0.0961323 0.00394724 0)
  (-0.0978614 -7.27522e-05 0)
  (-0.0981114 -0.00460557 0)
  (-0.0975277 -0.00947359 0)
  (-0.0970201 -0.0146777 0)
  (-0.0971195 -0.0197491 0)
  (-0.09785 -0.0244044 0)
  (-0.0991103 -0.0283879 0)
  (-0.100771 -0.0315124 0)
  (-0.102755 -0.0336797 0)
  (-0.105126 -0.035039 0)
  (-0.107794 -0.0355497 0)
  (-0.110662 -0.0351554 0)
  (-0.113641 -0.0340133 0)
  (-0.116605 -0.0321673 0)
  (-0.119318 -0.0293903 0)
  (-0.121406 -0.0252626 0)
  (-0.122397 -0.0191877 0)
  (-0.121865 -0.0112419 0)
  (-0.118931 -0.00112077 0)
  (-0.112232 0.0118959 0)
  (-0.100488 0.0284511 0)
  (-0.0832534 0.04806 0)
  (-0.0612831 0.0668101 0)
  (-0.0374482 0.0777637 0)
  (0.00238423 0.0618567 0)
  (0.142953 -0.00835383 0)
  (-0.204863 -0.108355 0)
  (-0.0429175 -0.31966 0)
  (-0.413063 -0.123256 0)
  (-0.30113 0.0641836 0)
  (-0.250056 -0.0171684 0)
  (-0.21032 -0.0224065 0)
  (-0.199174 -0.011371 0)
  (-0.194744 -0.00170665 0)
  (-0.191253 0.0062922 0)
  (-0.186681 0.0138009 0)
  (-0.180139 0.0212729 0)
  (-0.17147 0.0287875 0)
  (-0.161003 0.0362401 0)
  (-0.149898 0.0434635 0)
  (-0.139303 0.0504454 0)
  (-0.130007 0.0574613 0)
  (-0.122274 0.06447 0)
  (-0.116143 0.0714266 0)
  (-0.111437 0.0781099 0)
  (-0.107917 0.0841112 0)
  (-0.105374 0.0890489 0)
  (-0.103626 0.092673 0)
  (-0.102518 0.0948716 0)
  (-0.101962 0.0957127 0)
  (-0.101918 0.0951467 0)
  (-0.102345 0.0931327 0)
  (-0.103166 0.0900191 0)
  (-0.104252 0.0861167 0)
  (-0.105389 0.08152 0)
  (-0.106197 0.0762752 0)
  (-0.106 0.070503 0)
  (-0.103544 0.0654534 0)
  (-0.0969974 0.0620404 0)
  (-0.0839974 0.061154 0)
  (-0.0627454 0.063763 0)
  (-0.0336837 0.0704043 0)
  (0.0119493 0.0801464 0)
  (0.054956 0.0811082 0)
  (0.0957241 0.0683941 0)
  (0.160931 0.0428032 0)
  (-0.232577 -0.00714286 0)
)
;

boundaryField
{
  floor
  {
    type noSlip;
  }
  ceiling
  {
    type noSlip;
  }
  sWall
  {
    type noSlip;
  }
  nWall
  {
    type noSlip;
  }
  sideWalls
  {
    type empty;
  }
  glass1
  {
    type noSlip;
  }
  glass2
  {
    type noSlip;
  }
  sun
  {
    type noSlip;
  }
  heatsource1
  {
    type noSlip;
  }
  heatsource2
  {
    type noSlip;
  }
  Table_master
  {
    type noSlip;
  }
  Table_slave
  {
    type noSlip;
  }
  inlet
  {
    type fixedValue;
    value uniform (0.277164 -0.114805 0);
  }
  outlet
  {
    type zeroGradient;
  }
} 	// ************************************************************************* //

