/*--------------------------------*- C++ -*----------------------------------*\
  =========                 |
  \\      /  F ield         | OpenFOAM: The Open Source CFD Toolbox
   \\    /   O peration     | Website:  https://openfoam.org
    \\  /    A nd           | Version:  6
     \\/     M anipulation  |
\*---------------------------------------------------------------------------*/
FoamFile
{
    version     2.0;
    format      ascii;
    class       volScalarField;
    location    "2100";
    object      nut;
}
// * * * * * * * * * * * * * * * * * * * * * * * * * * * * * * * * * * * * * //

dimensions      [0 2 -1 0 0 0 0];

internalField   nonuniform List<scalar> 
459
(
0.00110412
0.00121097
0.00123979
0.00130154
0.00135892
0.00141326
0.00146753
0.00151735
0.00155083
0.00156216
0.00154665
0.00150156
0.0014259
0.00132322
0.00120391
0.000494342
0.000603073
0.000686023
0.000689029
0.000667374
0.00063638
0.000595534
0.000554775
0.000517899
0.000485288
0.000456497
0.000430969
0.00040819
0.000387801
0.00036903
0.000350917
0.000331989
0.000315104
0.000283244
0.00148588
0.003693
0.00357277
0.00416738
0.00476369
0.00535195
0.00584991
0.00624222
0.00659182
0.00687024
0.00704446
0.00708082
0.00692657
0.0064432
0.00507156
0.00124292
0.000742659
0.000522956
0.00116565
0.00162815
0.00195841
0.0021315
0.00211261
0.00165841
0.00141318
0.0012406
0.00110972
0.00100667
0.000923515
0.000854166
0.000788841
0.000724635
0.000667198
0.000618029
0.000693489
0.000356662
0.00180236
0.00503584
0.00446916
0.00552948
0.00608581
0.00650301
0.00682568
0.00710376
0.00740488
0.00771509
0.00799913
0.0082161
0.00831612
0.0081972
0.00761545
0.00581654
0.00128278
0.00102365
0.00153186
0.00201856
0.00244699
0.00272718
0.00264166
0.000856489
0.000752614
0.000668981
0.000601484
0.000546541
0.000501377
0.000463968
0.000433056
0.000408026
0.000436081
0.000498947
0.000769919
0.000404912
0.00210537
0.00637351
0.00450159
0.00583723
0.00628326
0.00644467
0.00656708
0.00673486
0.00699317
0.00732417
0.00768469
0.00802616
0.00829206
0.00839007
0.00827512
0.00762012
0.005153
0.0015175
0.0018713
0.0024411
0.00302195
0.00348768
0.00376124
0.00351764
0.000968391
0.000876851
0.000808734
0.000754901
0.000709399
0.00066926
0.000630966
0.000591653
0.000547395
0.000507027
0.000511036
0.000852639
0.000442739
0.0024155
0.00809302
0.00491849
0.0056594
0.00621692
0.00624452
0.0062105
0.00633222
0.00656634
0.00691084
0.00731102
0.00769938
0.00799256
0.00813818
0.00812147
0.00788889
0.00723204
0.00607803
0.00570263
0.00560308
0.00557901
0.00554272
0.00544926
0.00519307
0.00434142
0.00389845
0.00362431
0.00341073
0.00318286
0.0028948
0.00254277
0.00213317
0.00168414
0.00122966
0.000896574
0.000895561
0.00057928
0.000547026
0.000669308
0.000749807
0.00274636
0.0099848
0.006697
0.0057055
0.00614346
0.00622285
0.00616812
0.00623768
0.00641266
0.00673115
0.00715499
0.00758137
0.00789406
0.00802141
0.00796722
0.00779562
0.00757936
0.00736656
0.00726061
0.00715798
0.00699681
0.00677911
0.00652028
0.00621244
0.00579892
0.00543066
0.00510745
0.00480128
0.00448683
0.00412176
0.00369263
0.0031891
0.00261309
0.00199621
0.00146887
0.00111295
0.000811779
0.000683462
0.000976714
0.000777668
0.00304575
0.0112966
0.00927528
0.007336
0.00701771
0.00676204
0.00646717
0.00634006
0.00645388
0.00679981
0.00728579
0.00776256
0.008084
0.00817325
0.00805907
0.00787291
0.00778255
0.00783703
0.00790192
0.00782386
0.0075868
0.00724773
0.00685776
0.00644296
0.00601391
0.00561106
0.00523605
0.00488004
0.00454178
0.0042246
0.00390851
0.00351178
0.00302546
0.0024751
0.00196846
0.00153999
0.00121163
0.00109243
0.00109548
0.000865286
0.00310304
0.00995416
0.0089185
0.00824168
0.0075232
0.00679346
0.00634048
0.00627239
0.00656859
0.00712112
0.00775711
0.00828058
0.00854533
0.00851735
0.00829234
0.00807464
0.00804296
0.00813703
0.00812032
0.00785552
0.00741898
0.00689275
0.00633881
0.0058034
0.00531669
0.00488803
0.00450666
0.00416757
0.00387831
0.00365237
0.00349625
0.00334937
0.00305963
0.00268866
0.00237339
0.00219151
0.00221006
0.00249718
0.00312433
0.00137298
0.00302125
0.00357679
0.00394353
0.00400293
0.00413566
0.00449874
0.00514584
0.00604785
0.00707912
0.008059
0.00879943
0.00915278
0.00908674
0.00873077
0.00834619
0.00817015
0.00803868
0.00783947
0.00748832
0.00697556
0.00636007
0.00572195
0.00512361
0.00460078
0.00415553
0.00377049
0.00342873
0.00312439
0.00285753
0.00262628
0.00242411
0.00225922
0.00212979
0.0020384
0.00200202
0.00201281
0.00201683
0.00195941
0.00184648
0.00131139
0.00135585
0.00294312
0.00535186
0.00724084
0.00864087
0.00963303
0.0101943
0.0103501
0.0101301
0.00963431
0.00893209
0.00821804
0.00768696
0.00730157
0.00687959
0.00636433
0.00578633
0.00520084
0.00465772
0.00417947
0.00376854
0.00342063
0.00311608
0.00284061
0.0025914
0.00237471
0.00219967
0.00207398
0.0019992
0.00196156
0.00195166
0.00196435
0.00199116
0.00200911
0.00198071
0.0018876
0.00173474
0.00112564
0.00189732
0.00542935
0.00794961
0.00915706
0.00968547
0.00978994
0.00951316
0.00896216
0.00826004
0.00754403
0.00687534
0.00628416
0.005765
0.00527273
0.00480192
0.00438133
0.00402754
0.00374034
0.0035081
0.00331273
0.00313616
0.00296283
0.00278737
0.00261189
0.00244368
0.00229234
0.00216669
0.00207261
0.00201332
0.00198955
0.00199989
0.00203784
0.00208746
0.00212504
0.0021122
0.00215435
0.00229787
0.00115591
0.00193518
0.00189256
0.00192927
0.00210126
0.00205229
0.00200571
0.00196548
0.00189011
0.00177703
0.00163778
0.00148503
0.00133051
0.00119076
0.00108007
0.000999511
0.000942233
0.000900641
0.000869113
0.000844123
0.000823479
0.000805704
0.000789845
0.000775587
0.000763065
0.000753294
0.00074765
0.000747478
0.000753742
0.00076692
0.000786973
0.000813674
0.000847111
0.000887599
0.000935479
0.000990167
0.00105332
0.00108009
0.0010547
0.000996918
0.000940707
)
;

boundaryField
{
    floor
    {
        type            nutkWallFunction;
        Cmu             0.09;
        kappa           0.41;
        E               9.8;
        value           nonuniform List<scalar> 
29
(
0.000144466
5.898e-05
7.27254e-05
8.30052e-05
8.33735e-05
8.07056e-05
7.68695e-05
7.17797e-05
6.66583e-05
6.1985e-05
5.78177e-05
5.41097e-05
5.07971e-05
4.78203e-05
4.5138e-05
4.26526e-05
4.02387e-05
3.76991e-05
3.54176e-05
3.1068e-05
3.1068e-05
4.10067e-05
4.73912e-05
5.23283e-05
0.000144467
5.898e-05
6.26315e-05
0.000123511
0.000180116
)
;
    }
    ceiling
    {
        type            nutkWallFunction;
        Cmu             0.09;
        kappa           0.41;
        E               9.8;
        value           nonuniform List<scalar> 
43
(
0.0002263
0.000221559
0.000225562
0.000244369
0.000239097
0.00023405
0.000229674
0.000221437
0.000209004
0.00019357
0.000176472
0.000158974
0.000142952
0.00013011
0.00012067
0.000113905
0.000108963
0.0001052
0.000102206
9.97252e-05
9.75832e-05
9.56673e-05
9.3941e-05
9.24217e-05
9.12341e-05
9.05473e-05
9.05264e-05
9.12888e-05
9.28901e-05
9.53204e-05
9.85453e-05
0.000102566
0.00010741
0.000113106
0.000119571
0.000126985
0.000130113
0.000127147
0.000120366
0.000113727
0.000342364
0.00039985
0.00022193
)
;
    }
    sWall
    {
        type            nutkWallFunction;
        Cmu             0.09;
        kappa           0.41;
        E               9.8;
        value           uniform 0.000226359;
    }
    nWall
    {
        type            nutkWallFunction;
        Cmu             0.09;
        kappa           0.41;
        E               9.8;
        value           nonuniform List<scalar> 6(9.08089e-05 9.41931e-05 0.000104745 0.000135424 0.000138934 0.000113731);
    }
    sideWalls
    {
        type            empty;
    }
    glass1
    {
        type            nutkWallFunction;
        Cmu             0.09;
        kappa           0.41;
        E               9.8;
        value           nonuniform List<scalar> 9(0.000133018 0.000176779 0.000212092 0.00024527 0.000278701 0.000313869 0.000345312 0.000351302 0.000342777);
    }
    glass2
    {
        type            nutkWallFunction;
        Cmu             0.09;
        kappa           0.41;
        E               9.8;
        value           nonuniform List<scalar> 2(0.000163859 0.000156845);
    }
    sun
    {
        type            nutkWallFunction;
        Cmu             0.09;
        kappa           0.41;
        E               9.8;
        value           nonuniform List<scalar> 
14
(
0.000132911
0.000145275
0.000148588
0.00015566
0.000162198
0.000168361
0.00017449
0.000180095
0.00018385
0.000185118
0.000183382
0.000178322
0.000169792
0.000158137
)
;
    }
    heatsource1
    {
        type            nutkWallFunction;
        Cmu             0.09;
        kappa           0.41;
        E               9.8;
        value           nonuniform List<scalar> 3(6.56843e-05 8.09478e-05 9.08099e-05);
    }
    heatsource2
    {
        type            nutkWallFunction;
        Cmu             0.09;
        kappa           0.41;
        E               9.8;
        value           nonuniform List<scalar> 4(0.00014895 8.99303e-05 8.99303e-05 0.000153513);
    }
    Table_master
    {
        type            nutkWallFunction;
        Cmu             0.09;
        kappa           0.41;
        E               9.8;
        value           nonuniform List<scalar> 9(0.000103685 9.11481e-05 8.09054e-05 7.25268e-05 6.56225e-05 5.9883e-05 5.50807e-05 5.10758e-05 4.78065e-05);
    }
    Table_slave
    {
        type            nutkWallFunction;
        Cmu             0.09;
        kappa           0.41;
        E               9.8;
        value           nonuniform List<scalar> 9(0.000116994 0.000106122 9.79454e-05 9.14265e-05 8.58735e-05 8.09397e-05 7.61994e-05 7.12967e-05 6.57296e-05);
    }
    inlet
    {
        type            calculated;
        value           uniform 0.000100623;
    }
    outlet
    {
        type            calculated;
        value           nonuniform List<scalar> 2(0.00193518 0.00189256);
    }
}


// ************************************************************************* //
