/*--------------------------------*- C++ -*----------------------------------*\
  =========                 |
  \\      /  F ield         | OpenFOAM: The Open Source CFD Toolbox
   \\    /   O peration     | Website:  https://openfoam.org
    \\  /    A nd           | Version:  6
     \\/     M anipulation  |
\*---------------------------------------------------------------------------*/
FoamFile
{
    version     2.0;
    format      ascii;
    class       volScalarField;
    location    "1500";
    object      epsilon;
}
// * * * * * * * * * * * * * * * * * * * * * * * * * * * * * * * * * * * * * //

dimensions      [0 2 -3 0 0 0 0];

internalField   nonuniform List<scalar> 
459
(
0.00559961
0.00489614
0.0043144
0.00386214
0.00350891
0.00322183
0.00298075
0.00276894
0.00257417
0.00238722
0.00220009
0.00200446
0.00178918
0.00153364
0.00123625
2.12524e-06
2.37825e-06
2.50592e-06
2.15049e-06
1.89688e-06
1.59495e-06
1.28128e-06
1.16937e-06
1.06076e-06
1.18378e-06
1.49503e-06
2.08276e-06
3.00353e-06
3.57325e-06
3.60772e-06
3.79439e-06
3.60268e-06
3.16175e-06
2.47203e-06
0.00815234
0.0057819
0.00440705
0.00339192
0.00275057
0.00233562
0.00205102
0.00184617
0.00169223
0.00157387
0.0014815
0.00140574
0.0013308
0.00121442
0.0010515
0.00105285
0.000679257
8.19533e-06
7.82413e-06
6.72178e-06
5.95209e-06
5.27083e-06
3.53077e-06
2.5113e-06
1.84376e-06
1.87318e-06
2.5214e-06
3.77128e-06
5.62809e-06
7.6477e-06
9.27504e-06
1.02889e-05
9.98175e-06
8.9561e-06
8.38526e-06
5.88901e-06
0.0102059
0.00697081
0.00452699
0.00296573
0.00216525
0.00173313
0.00148568
0.00133403
0.00122896
0.00115387
0.001101
0.00106506
0.00103678
0.000983306
0.000913044
0.000926386
0.000691839
2.73316e-05
1.9873e-05
1.66374e-05
1.56129e-05
1.44083e-05
1.36583e-05
9.12389e-06
3.17722e-06
3.71616e-06
5.45762e-06
7.71614e-06
1.07262e-05
1.49231e-05
2.12252e-05
3.26058e-05
2.52462e-05
2.53058e-05
2.96078e-05
2.4961e-05
0.0120596
0.00845476
0.00427978
0.00212463
0.00129479
0.000949914
0.000801936
0.000756428
0.000758049
0.000774479
0.000793347
0.00081153
0.000826549
0.000816995
0.000801288
0.000850468
0.000726228
0.000111042
3.85138e-05
2.78136e-05
2.77933e-05
2.98631e-05
3.32746e-05
3.87616e-05
4.87655e-05
5.28777e-05
5.73546e-05
6.19482e-05
6.64489e-05
7.1768e-05
7.91843e-05
9.09038e-05
0.000111822
6.35852e-05
7.46077e-05
9.97223e-05
0.000114056
0.0139601
0.0103374
0.00386765
0.00127331
0.00066855
0.000502821
0.000461746
0.000468372
0.000503013
0.000547233
0.00059333
0.000637246
0.000675305
0.000687393
0.000697555
0.00074665
0.000644458
0.000171289
4.63747e-05
3.25741e-05
3.20122e-05
3.35954e-05
3.58507e-05
3.85496e-05
4.14688e-05
4.41013e-05
4.70575e-05
5.00958e-05
5.33015e-05
5.71591e-05
6.22674e-05
6.92651e-05
7.86013e-05
8.98173e-05
0.000109641
0.000139717
0.000187288
0.000215752
0.000167104
0.000102944
0.016146
0.0128013
0.00398415
0.000733021
0.000489164
0.000372729
0.000347451
0.000355591
0.000383219
0.000425823
0.000473653
0.000521147
0.000561646
0.000581765
0.000603638
0.000639416
0.000550787
0.000185085
6.23884e-05
5.00975e-05
5.20458e-05
5.56751e-05
5.93388e-05
6.29973e-05
6.67415e-05
7.04893e-05
7.38801e-05
7.66344e-05
7.921e-05
8.2185e-05
8.63684e-05
9.28767e-05
0.000103147
0.000118845
0.000141943
0.000173752
0.000212981
0.000246312
0.000251113
0.000111395
0.0189878
0.0163918
0.00689559
0.000892507
0.000508137
0.000328725
0.000290282
0.000297179
0.000321421
0.000355615
0.000395687
0.000436882
0.000473053
0.000497714
0.000523598
0.000547784
0.000465291
0.000181701
9.32828e-05
9.48991e-05
0.000107213
0.000117476
0.000123745
0.0001275
0.000130772
0.000132863
0.000134023
0.000135044
0.000136161
0.000137752
0.000140544
0.000145817
0.000155601
0.000172703
0.000200492
0.000242834
0.000305697
0.000395659
0.000501864
0.000501453
0.0234996
0.0251467
0.0188791
0.00183815
0.000605859
0.000311866
0.000252094
0.000255051
0.00027976
0.000310381
0.000344924
0.000380795
0.000413692
0.000439409
0.000461843
0.000473349
0.000393116
0.000186993
0.000157427
0.000196964
0.000240687
0.000271725
0.000281995
0.000278749
0.000269565
0.000260545
0.00025349
0.000248533
0.00024532
0.000243611
0.000243635
0.000246385
0.000253931
0.000269847
0.000299604
0.000350074
0.000434463
0.000595651
0.00089342
0.000948005
0.0324355
0.0490581
0.0710432
0.0098076
0.00102744
0.000416853
0.000282471
0.000252581
0.000264311
0.000292465
0.000325185
0.00035971
0.000391654
0.000415218
0.000427699
0.000424637
0.000352738
0.000225667
0.000288313
0.000418086
0.000545881
0.000605872
0.000610611
0.000585852
0.000552752
0.000521789
0.000496799
0.000478077
0.000464477
0.000454574
0.000447334
0.000442612
0.000441535
0.000446863
0.00046312
0.000494466
0.000535032
0.000580386
0.000963437
0.00116918
0.164953
0.0252145
0.0021858
0.000793645
0.000500738
0.00039396
0.000368216
0.000377084
0.000401681
0.000432921
0.000462066
0.000479331
0.000480289
0.000485202
0.000439181
0.000410875
0.000610675
0.000916191
0.0011615
0.00128551
0.00130238
0.00125662
0.00118768
0.0011194
0.00106233
0.00101885
0.000987313
0.000964549
0.000947347
0.000933368
0.000921648
0.000912669
0.000907744
0.00090654
0.000900502
0.000876282
0.000947369
0.00138701
0.0190833
0.00359862
0.00322498
0.00159248
0.00105004
0.000721028
0.000535885
0.000448442
0.000426187
0.000434775
0.000454505
0.000468623
0.000471453
0.000454684
0.000473775
0.000691533
0.00119233
0.00185575
0.00240818
0.0027028
0.00276178
0.0026827
0.00255393
0.00242836
0.00232858
0.00225867
0.00221329
0.00218333
0.0021593
0.0021335
0.0021012
0.0020608
0.00201216
0.00195229
0.00187207
0.00174158
0.0018963
0.00195219
0.000494596
0.000515099
0.00392962
0.00149755
0.000755205
0.000671259
0.000648083
0.000639395
0.000643363
0.000658707
0.000669534
0.000682968
0.000698587
0.000711599
0.000715807
0.00069797
0.000695786
0.000729919
0.000802692
0.00091928
0.00109091
0.00126486
0.00139754
0.00147229
0.0014956
0.00148432
0.00145545
0.00142154
0.00138965
0.00136225
0.00133853
0.0013158
0.00129057
0.00125922
0.00121807
0.00116242
0.00108464
0.00097152
0.000871433
0.000761555
)
;

boundaryField
{
    floor
    {
        Cmu             0.09;
        kappa           0.41;
        E               9.8;
        type            epsilonWallFunction;
        value           nonuniform List<scalar> 
29
(
0.00123625
2.12524e-06
2.37825e-06
2.50592e-06
2.15049e-06
1.89688e-06
1.59495e-06
1.28128e-06
1.16937e-06
1.06076e-06
1.18378e-06
1.49503e-06
2.08276e-06
3.00353e-06
3.57325e-06
3.60772e-06
3.79439e-06
3.60268e-06
3.16175e-06
2.47203e-06
2.47203e-06
5.88901e-06
2.4961e-05
0.000114056
0.00123625
2.12524e-06
8.19533e-06
2.73316e-05
0.000111042
)
;
    }
    ceiling
    {
        Cmu             0.09;
        kappa           0.41;
        E               9.8;
        type            epsilonWallFunction;
        value           nonuniform List<scalar> 
43
(
0.000494596
0.000515099
0.00392962
0.00149755
0.000755205
0.000671259
0.000648083
0.000639395
0.000643363
0.000658707
0.000669534
0.000682968
0.000698587
0.000711599
0.000715807
0.00069797
0.000695786
0.000729919
0.000802692
0.00091928
0.00109091
0.00126486
0.00139754
0.00147229
0.0014956
0.00148432
0.00145545
0.00142154
0.00138965
0.00136225
0.00133853
0.0013158
0.00129057
0.00125922
0.00121807
0.00116242
0.00108464
0.00097152
0.000871433
0.000761555
0.0324355
0.0490581
0.0190833
)
;
    }
    sWall
    {
        Cmu             0.09;
        kappa           0.41;
        E               9.8;
        type            epsilonWallFunction;
        value           uniform 0.000494596;
    }
    nWall
    {
        Cmu             0.09;
        kappa           0.41;
        E               9.8;
        type            epsilonWallFunction;
        value           nonuniform List<scalar> 6(0.000102944 0.000111395 0.000501453 0.00138701 0.00195219 0.000761555);
    }
    sideWalls
    {
        type            empty;
    }
    glass1
    {
        Cmu             0.09;
        kappa           0.41;
        E               9.8;
        type            epsilonWallFunction;
        value           nonuniform List<scalar> 9(0.00559961 0.00815234 0.0102059 0.0120596 0.0139601 0.016146 0.0189878 0.0234996 0.0324355);
    }
    glass2
    {
        Cmu             0.09;
        kappa           0.41;
        E               9.8;
        type            epsilonWallFunction;
        value           nonuniform List<scalar> 2(0.000948005 0.00116918);
    }
    sun
    {
        Cmu             0.09;
        kappa           0.41;
        E               9.8;
        type            epsilonWallFunction;
        value           nonuniform List<scalar> 
14
(
0.00559961
0.00489614
0.0043144
0.00386214
0.00350891
0.00322183
0.00298075
0.00276894
0.00257417
0.00238722
0.00220009
0.00200446
0.00178918
0.00153364
)
;
    }
    heatsource1
    {
        Cmu             0.09;
        kappa           0.41;
        E               9.8;
        type            epsilonWallFunction;
        value           nonuniform List<scalar> 3(0.000215752 0.000167104 0.000102944);
    }
    heatsource2
    {
        Cmu             0.09;
        kappa           0.41;
        E               9.8;
        type            epsilonWallFunction;
        value           nonuniform List<scalar> 4(0.00105285 0.000679257 0.000679257 0.000691839);
    }
    Table_master
    {
        Cmu             0.09;
        kappa           0.41;
        E               9.8;
        type            epsilonWallFunction;
        value           nonuniform List<scalar> 9(9.12389e-06 3.17722e-06 3.71616e-06 5.45762e-06 7.71614e-06 1.07262e-05 1.49231e-05 2.12252e-05 3.26058e-05);
    }
    Table_slave
    {
        Cmu             0.09;
        kappa           0.41;
        E               9.8;
        type            epsilonWallFunction;
        value           nonuniform List<scalar> 9(4.87655e-05 5.28777e-05 5.73546e-05 6.19482e-05 6.64489e-05 7.1768e-05 7.91843e-05 9.09038e-05 0.000111822);
    }
    inlet
    {
        type            turbulentMixingLengthDissipationRateInlet;
        mixingLength    0.01;
        phi             phi;
        k               k;
        value           uniform 0.164953;
    }
    outlet
    {
        type            zeroGradient;
    }
}


// ************************************************************************* //
