/*--------------------------------*- C++ -*----------------------------------*\
  =========                 |
  \\      /  F ield         | OpenFOAM: The Open Source CFD Toolbox
   \\    /   O peration     | Website:  https://openfoam.org
    \\  /    A nd           | Version:  6
     \\/     M anipulation  |
\*---------------------------------------------------------------------------*/
FoamFile
{
    version     2.0;
    format      ascii;
    class       surfaceScalarField;
    location    "800";
    object      phi;
}
// * * * * * * * * * * * * * * * * * * * * * * * * * * * * * * * * * * * * * //

dimensions      [1 0 -1 0 0 0 0];

internalField   nonuniform List<scalar> 
852
(
-0.0028772
0.002935
-0.00379265
0.000915458
-0.00451148
0.000718841
-0.00510571
0.000594246
-0.00554968
0.000443972
-0.00582865
0.00027898
-0.00592506
9.64232e-05
-0.00581698
-0.000108066
-0.00548509
-0.000331881
-0.00493246
-0.000552622
-0.00419306
-0.000739381
-0.00332407
-0.000868983
-0.00237753
-0.000946528
-0.00133151
-0.001046
-0.00132999
-0.000459615
0.000462584
4.55422e-05
-0.000505148
0.000650287
-0.000604735
0.00104653
-0.000396233
0.00128321
-0.000236674
0.00141629
-0.000133072
0.00148267
-6.63735e-05
0.00151671
-3.40377e-05
0.00153743
-2.07168e-05
0.00155155
-1.41179e-05
0.00156093
-9.37498e-06
0.00156438
-3.46283e-06
0.00155666
7.71307e-06
0.00152519
3.14611e-05
0.00144304
8.21416e-05
0.00126826
0.000174776
0.000988548
0.00027971
0.000698489
0.000290083
0.000702875
-0.00203979
0.00512963
-0.00296157
0.00183725
-0.00370733
0.00146461
-0.00428537
0.00117229
-0.00471277
0.000871384
-0.00498823
0.000554457
-0.0050953
0.000203498
-0.00500969
-0.000193665
-0.00471612
-0.000625435
-0.00422703
-0.00104171
-0.00358735
-0.00137905
-0.00286191
-0.00159441
-0.00212581
-0.00168262
-0.00150388
-0.00166792
-0.00135344
-0.00148042
-0.000462746
-0.000890733
-0.000462785
0.000742354
-0.000272622
0.00105892
-0.000821702
0.00123067
-0.000776467
0.00139817
-0.000563728
0.00151287
-0.000351358
0.00156552
-0.00018571
0.00156757
-6.84074e-05
0.00156727
-3.37347e-05
0.00156752
-2.09586e-05
0.00156771
-1.42978e-05
0.00156773
-9.39507e-06
0.00156728
-3.00661e-06
0.00156491
1.0079e-05
0.00155619
4.01741e-05
0.00151088
0.000127442
0.00132415
0.00036149
0.00100731
0.00059655
0.000621715
0.000675694
0.00133536
-0.00142885
0.00679413
-0.00224382
0.00265223
-0.00289627
0.00211707
-0.00337688
0.00165291
-0.0037383
0.00123281
-0.00398197
0.000798137
-0.00408337
0.000304912
-0.00400388
-0.000273149
-0.0037229
-0.000906409
-0.00326428
-0.00150031
-0.0026843
-0.00195903
-0.00205054
-0.00222815
-0.00143655
-0.00229661
-0.000924202
-0.00218026
-0.000549197
-0.00185541
-0.000128094
-0.00131182
-0.000590866
0.00123924
-0.00150326
0.00149157
-0.00107401
0.00152264
-0.000807523
0.00155587
-0.000596943
0.00158875
-0.00038422
0.00157285
-0.0001698
0.00150461
0.00147104
0.00145025
0.00143612
0.00142688
0.00142403
0.00143426
0.00147458
0.00160217
0.00132069
0.000642969
0.000978927
0.000938305
0.000545304
0.00110933
0.00189684
-0.00100794
0.00810568
-0.00167671
0.00332101
-0.00208705
0.00252742
-0.00238755
0.00195342
-0.00262164
0.00146691
-0.00278584
0.000962352
-0.00284688
0.000365957
-0.00274409
-0.000375929
-0.0024563
-0.00119419
-0.00203012
-0.00192649
-0.00153357
-0.00245557
-0.001027
-0.00273471
-0.000560726
-0.00276288
-0.000161343
-0.00257963
0.000194221
-0.00221096
0.000585993
-0.00170358
0.00117661
-0.00118147
0.00205122
-0.000866359
0.00158788
-0.00103991
0.00151241
-0.000998522
0.00147508
-0.000770182
0.00144472
-0.000566558
0.00144907
-0.000388553
0.00150387
-0.000224587
0.00160988
-0.000106148
0.00170089
-9.11399e-05
0.00178787
-8.71202e-05
0.00186465
-7.69283e-05
0.00191317
-4.86558e-05
0.00190619
6.82932e-06
0.001815
9.10447e-05
0.00160738
0.00020747
0.00122914
0.000378088
0.0011034
0.000768715
0.000804154
0.00123755
0.000310515
0.00160298
0.00222844
-0.000720247
0.00918663
-0.00125283
0.00385361
-0.00130277
0.00257737
-0.00133861
0.00198927
-0.00138496
0.00151327
-0.00141243
0.000989834
-0.00137212
0.000325655
-0.00119319
-0.000554849
-0.000886767
-0.00150061
-0.00052285
-0.0022904
-0.000162821
-0.0028156
0.000154203
-0.00305173
0.000410773
-0.00301944
0.000610264
-0.00277911
0.000785621
-0.00238631
0.000986833
-0.00190478
0.0012388
-0.00143343
0.00146643
-0.00109397
0.00139396
-0.000967424
0.00124836
-0.000852899
0.00114709
-0.000668893
0.001077
-0.000496453
0.00104666
-0.000358192
0.00106902
-0.000246924
0.00114487
-0.000181985
0.00122478
-0.000171035
0.00131175
-0.000174076
0.00139876
-0.000163926
0.00147129
-0.000121179
0.0015065
-2.83811e-05
0.00148062
0.000116934
0.00138124
0.000306842
0.00121316
0.000546174
0.0010703
0.000911573
0.000917905
0.00138994
0.000543172
0.00197772
0.000348022
0.00242362
-0.00109227
0.00144013
-0.00152824
0.000435789
-0.00147904
-0.000643609
0.0102389
-0.00103676
0.00424676
-0.000590617
0.00213124
-0.000224744
0.00162341
-1.37984e-05
0.00130233
0.000139275
0.000836771
0.000355219
0.00010972
0.000661173
-0.000860796
0.000961435
-0.00180087
0.00119744
-0.00252641
0.00134416
-0.00296232
0.00140148
-0.00310904
0.00139032
-0.00300827
0.00133449
-0.00272327
0.00126473
-0.00231653
0.00121308
-0.00185312
0.00118397
-0.0014043
0.00113748
-0.00104747
0.000997462
-0.000827388
0.000812228
-0.000667644
0.000663052
-0.000519696
0.000565593
-0.000398973
0.000522589
-0.000315167
0.000537065
-0.000261381
0.000595648
-0.000240552
0.000673826
-0.000249199
0.000764186
-0.000264426
0.000862523
-0.000262256
0.000962223
-0.000220873
0.00105082
-0.000116972
0.00110523
6.25182e-05
0.00111864
0.000293435
0.00110576
0.000559056
0.00112407
0.000893255
0.00123158
0.00128243
0.00142692
0.00178238
0.0018746
0.00197597
0.00212395
0.00119081
0.00175269
0.000807072
0.00033287
-0.000708205
0.0113993
-0.000629118
0.00416768
0.000518727
0.000983404
0.00125708
0.000885072
0.00167614
0.000883278
0.0020552
0.000457732
0.00245975
-0.000294824
0.00280083
-0.00120186
0.00299046
-0.0019905
0.00300628
-0.00254223
0.0028648
-0.00282084
0.00260317
-0.00284741
0.00226846
-0.00267356
0.00190513
-0.00235994
0.00154995
-0.00196134
0.00123087
-0.00153402
0.000953106
-0.00112652
0.00070595
-0.000800293
0.00045997
-0.000581387
0.000237908
-0.000445558
7.31069e-05
-0.000354873
-2.66591e-05
-0.000299186
-6.86823e-05
-0.000273124
-6.19397e-05
-0.000268106
-2.11388e-05
-0.000281338
3.80268e-05
-0.000308353
0.00010863
-0.00033502
0.000191423
-0.000345043
0.000291312
-0.000320758
0.000413768
-0.000239427
0.000549474
-7.31884e-05
0.000684054
0.000158854
0.000825918
0.000417189
0.00102183
0.000697342
0.00133766
0.000966592
0.0018377
0.00128234
0.00254077
0.00127291
0.00307309
0.000658498
0.00312885
0.000751335
0.00352646
0.00253065
0.00937481
0.00321628
0.00348207
0.00377596
0.000423728
0.00417418
0.000486864
0.0044722
0.000585274
0.0048446
8.53474e-05
0.00519419
-0.000644407
0.0053121
-0.00131977
0.00515731
-0.00183572
0.00475834
-0.00214327
0.00418094
-0.00224344
0.00350139
-0.00216786
0.00279052
-0.00196269
0.00210325
-0.00167266
0.00147201
-0.00133009
0.000922855
-0.000984846
0.000456521
-0.000660169
7.95987e-05
-0.000423348
-0.000212229
-0.000289535
-0.000421881
-0.000235882
-0.000560605
-0.000216126
-0.0006448
-0.00021497
-0.000690008
-0.000227898
-0.000707095
-0.000251003
-0.000706484
-0.000281936
-0.000697981
-0.000316845
-0.000685365
-0.000347629
-0.000665946
-0.000364455
-0.000630176
-0.000356524
-0.000557709
-0.000311892
-0.000414144
-0.000216752
-0.000209835
-4.54569e-05
3.54236e-05
0.00017193
0.000345875
0.00038689
0.000740122
0.000572344
0.00126923
0.00075324
0.00180129
0.000740856
0.00191785
0.000541941
0.000929426
0.00173977
0.00471914
0.00993135
0.013406
0.0129402
0.000889497
0.0118331
0.00159402
0.0110326
0.00138578
0.0102789
0.000839004
0.00936675
0.000267727
0.00829324
-0.000246285
0.00710862
-0.000651125
0.00588111
-0.000915788
0.00467161
-0.00103395
0.00353005
-0.00102631
0.00249347
-0.000926098
0.00158431
-0.000763482
0.000794514
-0.000540287
0.00013496
-0.000325271
-0.000367985
-0.000157199
-0.000706258
-8.50487e-05
-0.000925344
-7.04246e-05
-0.0010779
-8.32998e-05
-0.00118761
-0.000106393
-0.00126916
-0.000133403
-0.00133413
-0.000162915
-0.00139119
-0.000193928
-0.00144839
-0.000224722
-0.00151347
-0.000251753
-0.0015925
-0.000268585
-0.00169065
-0.000266303
-0.00181354
-0.000233628
-0.00196828
-0.000157145
-0.00216065
-2.43793e-05
-0.00237629
0.000170198
-0.00263941
0.000435058
-0.00303489
0.000782372
-0.00367029
0.00120776
-0.00461083
0.00169379
-0.00598802
0.00211806
-0.00772472
0.00227866
-0.0075159
0.00153098
-0.00250476
0.0031858
0.0023348
0.00381302
0.000966517
0.00488276
0.000315791
0.00498242
0.000739125
0.00463682
0.000613156
0.0041566
0.000233824
0.00357222
-6.68053e-05
0.00288214
-0.000225736
0.00213032
-0.000282143
0.00136542
-0.000261406
0.000624355
-0.000185014
-6.95776e-05
-6.9525e-05
-0.000657182
4.73445e-05
-0.00107641
9.39805e-05
-0.00133358
0.000100003
-0.00149048
7.1879e-05
-0.00159604
3.51622e-05
-0.00168081
1.48797e-06
-0.00175791
-2.92716e-05
-0.00183353
-5.77622e-05
-0.00191259
-8.38316e-05
-0.00199858
-0.000107932
-0.00209466
-0.000128623
-0.00220313
-0.000143267
-0.0023243
-0.000147407
-0.00245578
-0.000134812
-0.00259162
-9.77778e-05
-0.00272154
-2.72122e-05
-0.00283271
8.68019e-05
-0.00291867
0.000256167
-0.0029862
0.0005026
-0.00304121
0.000837394
-0.00308385
0.00125041
-0.00307035
0.00168031
-0.00292979
0.00197752
-0.00217178
0.00152068
-0.000478568
-0.00016222
-0.00290434
-0.000489819
0.00290361
-0.000156804
0.000633424
-0.000282347
0.000441276
-6.68507e-05
0.00052356
7.867e-05
0.000467568
1.68779e-05
0.000295606
-0.000190116
0.000140223
-0.00048634
7.05165e-05
-0.000844404
7.59487e-05
-0.00121259
0.000106809
-0.00153783
0.000140255
-0.00177353
0.000166211
-0.00190165
0.000175486
-0.00196655
0.000158911
-0.00199615
0.000129632
-0.00201856
9.43167e-05
-0.00204459
6.12148e-05
-0.00207636
3.32821e-05
-0.00211686
1.12506e-05
-0.00216743
-7.17179e-06
-0.00222845
-2.2793e-05
-0.00229996
-3.64013e-05
-0.00238095
-4.76102e-05
-0.00246899
-5.52155e-05
-0.00255931
-5.70717e-05
-0.00264408
-5.00267e-05
-0.00271185
-2.99851e-05
-0.00274729
8.24446e-06
-0.00273622
7.57429e-05
-0.00265943
0.00017939
-0.00248684
0.000330027
-0.00219216
0.000542724
-0.00176028
0.00081855
-0.00115237
0.00107241
-6.48461e-05
0.000890017
0.00180172
-0.000345872
0.00338696
-0.00174744
0.00056897
0.00275647
-0.00886115
-0.00591136
-0.00525561
-0.00479848
-0.00426248
-0.0037853
-0.00348251
-0.00333712
-0.00326299
-0.00318462
-0.00307639
-0.00293558
-0.00276962
-0.00259512
-0.00243785
-0.00231036
-0.00221853
-0.00216002
-0.00212959
-0.00212129
-0.00213148
-0.00215734
-0.00219682
-0.00224753
-0.00230582
-0.00236595
-0.002419
-0.00245196
-0.00244662
-0.00237371
-0.00219707
-0.00186972
-0.00132961
-0.00051363
0.000556217
0.00144355
0.00109468
-0.00065693
)
;

boundaryField
{
    floor
    {
        type            calculated;
        value           nonuniform List<scalar> 
29
(
0
0
0
0
0
0
0
0
0
0
0
0
0
0
0
0
0
0
0
0
-4.33566e-06
-1.07293e-05
-1.6132e-05
-2.10436e-05
-1.51338e-06
-2.96343e-06
-7.13831e-06
-8.58726e-06
-8.22878e-06
)
;
    }
    ceiling
    {
        type            calculated;
        value           nonuniform List<scalar> 
43
(
-2.20447e-05
-4.08588e-05
-4.61427e-05
-2.22883e-05
-1.58261e-05
-1.24065e-05
-9.581e-06
-7.1496e-06
-5.13776e-06
-3.58995e-06
-2.38801e-06
-1.39447e-06
-5.23764e-07
2.76243e-07
1.02044e-06
1.66894e-06
2.16884e-06
2.51019e-06
2.73073e-06
2.8757e-06
2.97453e-06
3.04154e-06
3.08388e-06
3.10695e-06
3.11246e-06
3.10197e-06
3.07698e-06
3.03873e-06
2.98795e-06
2.9243e-06
2.84762e-06
2.76946e-06
2.69516e-06
2.63087e-06
2.58667e-06
2.58549e-06
2.69859e-06
3.02055e-06
4.18883e-06
5.23161e-06
1.03314e-05
7.43948e-06
-7.90555e-05
)
;
    }
    sWall
    {
        type            calculated;
        value           uniform -0.000228536;
    }
    nWall
    {
        type            calculated;
        value           nonuniform List<scalar> 6(-4.93738e-05 -5.91858e-05 -6.47202e-05 -7.89714e-05 -8.63253e-05 -9.31704e-05);
    }
    sideWalls
    {
        type            empty;
        value           nonuniform 0();
    }
    glass1
    {
        type            calculated;
        value           nonuniform List<scalar> 9(-5.77927e-05 -0.000154828 -0.000235645 -0.000303598 -0.0003607 -0.00040861 -0.000452208 -0.000506174 -0.000566861);
    }
    glass2
    {
        type            calculated;
        value           nonuniform List<scalar> 2(-0.000263238 -0.000291979);
    }
    sun
    {
        type            calculated;
        value           uniform 0;
    }
    heatsource1
    {
        type            calculated;
        value           nonuniform List<scalar> 3(2.04287e-07 2.04182e-07 2.04194e-07);
    }
    heatsource2
    {
        type            calculated;
        value           nonuniform List<scalar> 4(5.10671e-08 5.12234e-08 0 0);
    }
    Table_master
    {
        type            calculated;
        value           nonuniform List<scalar> 9(-1.53219e-07 -1.53277e-07 -1.53299e-07 -1.53314e-07 -1.53326e-07 -1.53334e-07 -1.53336e-07 -1.53324e-07 -1.53282e-07);
    }
    Table_slave
    {
        type            calculated;
        value           nonuniform List<scalar> 9(1.53121e-07 1.5313e-07 1.53103e-07 1.53078e-07 1.53062e-07 1.53065e-07 1.53072e-07 1.5311e-07 1.53188e-07);
    }
    inlet
    {
        type            calculated;
        value           uniform -0.00463124;
    }
    outlet
    {
        type            calculated;
        value           nonuniform List<scalar> 2(-0.00250588 0.0116585);
    }
}


// ************************************************************************* //
