/*--------------------------------*- C++ -*----------------------------------*\
  =========                 |
  \\      /  F ield         | OpenFOAM: The Open Source CFD Toolbox
   \\    /   O peration     | Website:  https://openfoam.org
    \\  /    A nd           | Version:  6
     \\/     M anipulation  |
\*---------------------------------------------------------------------------*/
FoamFile
{
    version     2.0;
    format      ascii;
    class       volScalarField;
    location    "280";
    object      epsilon;
}
// * * * * * * * * * * * * * * * * * * * * * * * * * * * * * * * * * * * * * //

dimensions      [0 2 -3 0 0 0 0];

internalField   nonuniform List<scalar> 
459
(
0.000304618
0.000411389
0.000458828
0.000538231
0.000622476
0.000716114
0.000820309
0.000911462
0.000970619
0.000976651
0.000913711
0.000751308
0.000526186
0.000323458
0.000203794
4.38051e-05
0.000100769
0.000130214
0.00014297
0.000140454
0.000128733
0.000106979
8.64833e-05
7.01787e-05
5.75777e-05
4.77898e-05
4.01314e-05
3.40712e-05
2.91403e-05
2.49742e-05
2.12573e-05
1.77623e-05
1.32516e-05
1.10846e-05
0.000664307
0.000862649
0.000378329
0.000379859
0.000407883
0.000459024
0.000534707
0.000614493
0.000672374
0.000684966
0.000644175
0.000549159
0.000427627
0.000329196
0.000237701
0.000394584
0.000193514
0.000176859
0.000331384
0.0001769
0.000138658
0.000119128
0.000106434
0.000105694
8.61627e-05
6.7979e-05
5.35726e-05
4.25166e-05
3.40929e-05
2.7686e-05
2.27654e-05
1.91695e-05
1.72188e-05
1.93174e-05
1.8059e-05
2.21841e-05
0.00111785
0.00182459
0.000411495
0.000348623
0.000379984
0.000448444
0.000545905
0.00064236
0.000709318
0.000729373
0.000696137
0.00060875
0.000501351
0.000401596
0.000308372
0.000286555
0.000365772
0.000222671
0.00026342
0.000192009
0.000156554
0.000133215
0.000125238
0.000275273
0.000180038
0.000122509
8.69142e-05
6.4095e-05
4.89467e-05
3.86764e-05
3.16531e-05
2.7077e-05
2.0873e-05
2.08527e-05
2.42783e-05
3.0278e-05
0.00170471
0.00354997
0.000558086
0.000341462
0.000371925
0.000466412
0.000601364
0.00071006
0.000778304
0.000801105
0.000766824
0.000678902
0.000567213
0.000460288
0.000371967
0.000315723
0.000302306
0.000537009
0.00037604
0.000268504
0.000209944
0.000173727
0.000148706
0.00014238
0.00037254
0.000276855
0.000220171
0.000182997
0.000155783
0.000133414
0.000114478
9.67658e-05
7.87376e-05
4.56291e-05
3.14112e-05
4.16892e-05
4.39232e-05
0.00248774
0.00623364
0.00097667
0.000378457
0.000390594
0.000554288
0.000745833
0.000848861
0.000905738
0.000919463
0.000872409
0.00076452
0.000623153
0.000487449
0.000382068
0.000312848
0.000283295
0.000284896
0.000259595
0.000236938
0.000213977
0.000189874
0.000165878
0.000145972
0.000144448
0.000133868
0.000123403
0.00011345
0.000103412
9.28173e-05
8.17482e-05
7.04262e-05
5.93986e-05
4.63602e-05
3.55543e-05
4.55852e-05
4.81656e-05
6.41853e-05
6.11479e-05
5.441e-05
0.00356955
0.00940644
0.00210685
0.000627446
0.000533718
0.000868646
0.00103589
0.00108775
0.00111029
0.00110243
0.0010281
0.000879004
0.00068878
0.000509468
0.000376006
0.000297621
0.000268339
0.000266658
0.000265201
0.000256153
0.000238494
0.00021422
0.000186936
0.00016115
0.000143091
0.000131776
0.000124086
0.000116961
0.000108959
9.94522e-05
8.80799e-05
7.55877e-05
6.35071e-05
5.27553e-05
4.3469e-05
4.44165e-05
5.02519e-05
5.52362e-05
0.000146713
0.000107281
0.00484352
0.0115084
0.00449847
0.00190787
0.00150298
0.00159513
0.00153038
0.00145638
0.00141663
0.00136639
0.00124134
0.00102828
0.000771533
0.000540383
0.00038005
0.000298029
0.000277512
0.000285996
0.00029244
0.000285351
0.000265803
0.000238265
0.000208202
0.000181019
0.000161775
0.000151065
0.000144566
0.000138501
0.000131411
0.000123165
0.000114147
0.000103405
9.21716e-05
8.29283e-05
7.63612e-05
7.39585e-05
7.66734e-05
8.47744e-05
0.000238055
0.000179718
0.00519373
0.013509
0.00733617
0.00479346
0.00360734
0.00274116
0.00220897
0.00194509
0.00183163
0.0017227
0.00151307
0.00120186
0.000856276
0.000571138
0.000398028
0.000327319
0.000318907
0.000331131
0.00033572
0.00032361
0.000299753
0.000271017
0.000243629
0.000221965
0.000208087
0.000200394
0.000194541
0.000187413
0.000178404
0.000169254
0.000163337
0.000163933
0.000170041
0.000180925
0.000206297
0.000243384
0.000300707
0.000373934
0.00143501
0.000351787
0.0048817
0.00829571
0.0062823
0.00471868
0.00362594
0.00289636
0.00251835
0.00239659
0.00234343
0.00216776
0.00179751
0.00133282
0.000886165
0.000591217
0.000471127
0.000429887
0.000426573
0.000432886
0.000431785
0.000418894
0.000398473
0.000377578
0.000361296
0.000350881
0.000345265
0.000340977
0.000332268
0.000315391
0.000289949
0.000260144
0.000234765
0.000224147
0.000235891
0.00026924
0.000324748
0.000407005
0.000517502
0.000655263
0.000807213
0.000445077
0.00142349
0.00181972
0.0021436
0.00264403
0.00305211
0.00325348
0.00308246
0.00253264
0.00175243
0.00119057
0.000919854
0.000803611
0.000763489
0.000758071
0.000766639
0.000777258
0.000784396
0.000788068
0.000790826
0.000795066
0.000800859
0.0008075
0.00081323
0.000814112
0.000797837
0.000756617
0.00068653
0.000591926
0.0004901
0.000407758
0.0003486
0.000326288
0.000346215
0.000407844
0.000501991
0.000607351
0.000720603
0.000731466
0.000893795
0.00346739
0.00525489
0.0058014
0.00573766
0.0053232
0.00446074
0.00345704
0.00261507
0.0020908
0.0018335
0.00173515
0.00171866
0.0017423
0.00179007
0.0018527
0.00191983
0.00198348
0.0020415
0.0020965
0.00215186
0.00220809
0.00226116
0.00230156
0.00231821
0.00229241
0.00220555
0.00204608
0.00181595
0.00153249
0.00124251
0.000985204
0.000793306
0.000677542
0.000624079
0.000622601
0.00146664
0.00105664
0.0010858
0.00130161
0.00151624
0.00233792
0.00253386
0.00245916
0.00253877
0.00249765
0.00231669
0.00207722
0.00181823
0.0016176
0.00149626
0.00143323
0.00140583
0.0013982
0.00139885
0.0014002
0.0013988
0.00139463
0.00138909
0.00138323
0.00137693
0.00136876
0.00135612
0.00133582
0.00130301
0.001254
0.00118719
0.00110448
0.00101204
0.000919891
0.000834916
0.00076366
0.000709372
0.000670764
0.000638603
0.000600479
0.000635715
0.000586022
)
;

boundaryField
{
    floor
    {
        Cmu             0.09;
        kappa           0.41;
        E               9.8;
        type            epsilonWallFunction;
        value           nonuniform List<scalar> 
29
(
0.000203794
4.38051e-05
0.000100769
0.000130214
0.00014297
0.000140454
0.000128733
0.000106979
8.64833e-05
7.01787e-05
5.75777e-05
4.77898e-05
4.01314e-05
3.40712e-05
2.91403e-05
2.49742e-05
2.12573e-05
1.77623e-05
1.32516e-05
1.10846e-05
1.10846e-05
2.21841e-05
3.0278e-05
4.39232e-05
0.000203794
4.38051e-05
0.000176859
0.000222671
0.000537009
)
;
    }
    ceiling
    {
        Cmu             0.09;
        kappa           0.41;
        E               9.8;
        type            epsilonWallFunction;
        value           nonuniform List<scalar> 
43
(
0.0010858
0.00130161
0.00151624
0.00233792
0.00253386
0.00245916
0.00253877
0.00249765
0.00231669
0.00207722
0.00181823
0.0016176
0.00149626
0.00143323
0.00140583
0.0013982
0.00139885
0.0014002
0.0013988
0.00139463
0.00138909
0.00138323
0.00137693
0.00136876
0.00135612
0.00133582
0.00130301
0.001254
0.00118719
0.00110448
0.00101204
0.000919891
0.000834916
0.00076366
0.000709372
0.000670764
0.000638603
0.000600479
0.000635715
0.000586022
0.0048817
0.00829571
0.000893795
)
;
    }
    sWall
    {
        Cmu             0.09;
        kappa           0.41;
        E               9.8;
        type            epsilonWallFunction;
        value           uniform 0.0010858;
    }
    nWall
    {
        Cmu             0.09;
        kappa           0.41;
        E               9.8;
        type            epsilonWallFunction;
        value           nonuniform List<scalar> 6(5.441e-05 0.000107281 0.000179718 0.000731466 0.00105664 0.000586022);
    }
    sideWalls
    {
        type            empty;
    }
    glass1
    {
        Cmu             0.09;
        kappa           0.41;
        E               9.8;
        type            epsilonWallFunction;
        value           nonuniform List<scalar> 9(0.000304618 0.000664307 0.00111785 0.00170471 0.00248774 0.00356955 0.00484352 0.00519373 0.0048817);
    }
    glass2
    {
        Cmu             0.09;
        kappa           0.41;
        E               9.8;
        type            epsilonWallFunction;
        value           nonuniform List<scalar> 2(0.000351787 0.000445077);
    }
    sun
    {
        Cmu             0.09;
        kappa           0.41;
        E               9.8;
        type            epsilonWallFunction;
        value           nonuniform List<scalar> 
14
(
0.000304618
0.000411389
0.000458828
0.000538231
0.000622476
0.000716114
0.000820309
0.000911462
0.000970619
0.000976651
0.000913711
0.000751308
0.000526186
0.000323458
)
;
    }
    heatsource1
    {
        Cmu             0.09;
        kappa           0.41;
        E               9.8;
        type            epsilonWallFunction;
        value           nonuniform List<scalar> 3(6.41853e-05 6.11479e-05 5.441e-05);
    }
    heatsource2
    {
        Cmu             0.09;
        kappa           0.41;
        E               9.8;
        type            epsilonWallFunction;
        value           nonuniform List<scalar> 4(0.000394584 0.000193514 0.000193514 0.000365772);
    }
    Table_master
    {
        Cmu             0.09;
        kappa           0.41;
        E               9.8;
        type            epsilonWallFunction;
        value           nonuniform List<scalar> 9(0.000275273 0.000180038 0.000122509 8.69142e-05 6.4095e-05 4.89467e-05 3.86764e-05 3.16531e-05 2.7077e-05);
    }
    Table_slave
    {
        Cmu             0.09;
        kappa           0.41;
        E               9.8;
        type            epsilonWallFunction;
        value           nonuniform List<scalar> 9(0.00037254 0.000276855 0.000220171 0.000182997 0.000155783 0.000133414 0.000114478 9.67658e-05 7.87376e-05);
    }
    inlet
    {
        type            turbulentMixingLengthDissipationRateInlet;
        mixingLength    0.01;
        phi             phi;
        k               k;
        value           uniform 0.000101881;
    }
    outlet
    {
        type            zeroGradient;
    }
}


// ************************************************************************* //
