/*--------------------------------*- C++ -*----------------------------------*\
  =========                 |
  \\      /  F ield         | OpenFOAM: The Open Source CFD Toolbox
   \\    /   O peration     | Website:  https://openfoam.org
    \\  /    A nd           | Version:  6
     \\/     M anipulation  |
\*---------------------------------------------------------------------------*/
FoamFile
{
    version     2.0;
    format      ascii;
    class       volScalarField;
    location    "670";
    object      alphat;
}
// * * * * * * * * * * * * * * * * * * * * * * * * * * * * * * * * * * * * * //

dimensions      [1 -1 -1 0 0 0 0];

internalField   nonuniform List<scalar> 
459
(
0.00102451
0.00111292
0.00112974
0.00118309
0.00123221
0.00127786
0.00132208
0.00136752
0.00140629
0.00143226
0.00143992
0.00142362
0.00137778
0.0012971
0.00118598
0.000684899
0.000917912
0.00087408
0.000826647
0.000785214
0.000745784
0.000702051
0.000659434
0.00062054
0.000585785
0.000554828
0.000526997
0.000501677
0.000478198
0.000455719
0.000432963
0.000409452
0.000375841
0.000396483
0.00141338
0.00321843
0.00298326
0.00344937
0.00390016
0.00437165
0.00482058
0.00517478
0.00550259
0.00580977
0.00605792
0.00619354
0.00612809
0.00565793
0.00417157
0.00123676
0.000772684
0.000922972
0.00260038
0.00242648
0.00252728
0.00260263
0.00253194
0.00202955
0.00175998
0.00156917
0.0014206
0.00129567
0.00118687
0.00108868
0.00099551
0.000906027
0.000831391
0.000828178
0.000751373
0.000501937
0.00174233
0.00436822
0.00360585
0.00458956
0.00502446
0.00534619
0.00559889
0.00580554
0.0060473
0.00634554
0.00667762
0.00700308
0.00725723
0.00732771
0.00698253
0.00558737
0.001204
0.00116468
0.00211033
0.0027699
0.00321857
0.00346089
0.00322493
0.000944368
0.000833573
0.000746035
0.000676422
0.000620505
0.000575121
0.000538083
0.000508203
0.000485643
0.000547353
0.000704382
0.000846415
0.000549697
0.00206168
0.00563921
0.0035151
0.00482048
0.00518093
0.00525307
0.00526647
0.00532491
0.00549206
0.00578064
0.00616944
0.00662562
0.00708962
0.00746569
0.00763388
0.00726125
0.00559878
0.00149718
0.00222591
0.00300739
0.00371606
0.00422313
0.00447288
0.00405093
0.00104106
0.000954253
0.000899001
0.000862038
0.000834126
0.000807995
0.000777402
0.00074589
0.000708215
0.000678041
0.00072407
0.000967354
0.000618372
0.00238721
0.00729802
0.00374273
0.0045342
0.00504271
0.00497183
0.00481893
0.00479221
0.00494877
0.0052463
0.00566708
0.00618722
0.00673405
0.00717275
0.00744458
0.00745301
0.00704199
0.00602552
0.00582078
0.00582568
0.00584899
0.0058323
0.00574845
0.00548534
0.0046553
0.00432454
0.00416975
0.00407499
0.00398807
0.00387459
0.00368998
0.00331046
0.00277628
0.00215627
0.00163526
0.00146128
0.00103486
0.000703283
0.000691985
0.000663024
0.00273022
0.00912442
0.00513814
0.00415922
0.00470026
0.00479507
0.00467592
0.00453864
0.00471458
0.00501433
0.00544955
0.00599147
0.00654917
0.00700716
0.00728416
0.00736164
0.00728507
0.00712929
0.00703631
0.00692294
0.00675112
0.00653092
0.00628622
0.00602573
0.00573857
0.00554149
0.00540615
0.00530208
0.00521018
0.00510695
0.00495348
0.00467059
0.00421175
0.00358857
0.00290593
0.002381
0.00184956
0.00143405
0.00156033
0.000825736
0.00306327
0.010537
0.00769612
0.00506438
0.00449346
0.00458909
0.00466476
0.0046658
0.00476717
0.00502714
0.00546955
0.00604547
0.00664163
0.00712497
0.00740786
0.00749383
0.00747852
0.00744398
0.00736503
0.00717291
0.00688653
0.00656417
0.0062596
0.00600665
0.00581565
0.00568129
0.00557649
0.00549025
0.0054226
0.00536143
0.00526933
0.00510644
0.00483021
0.0043938
0.00384334
0.00329146
0.00271255
0.00216601
0.00201981
0.000973666
0.00314695
0.0100557
0.00840841
0.00706084
0.00606539
0.0055927
0.00523401
0.00496902
0.00494952
0.00521145
0.00571588
0.0063583
0.00699717
0.00749056
0.00775744
0.00781032
0.00773924
0.007587
0.00733889
0.00700453
0.00666302
0.00636185
0.00612102
0.00593794
0.0057951
0.00566813
0.00553917
0.00541091
0.00530102
0.00521592
0.00511956
0.00497218
0.00481274
0.00462053
0.00429068
0.00392804
0.00352431
0.00289477
0.00307102
0.0012261
0.00307801
0.00370887
0.00429706
0.00447647
0.00448925
0.00442484
0.00441442
0.00456735
0.00493708
0.00552027
0.00623587
0.00696526
0.0075962
0.00801668
0.00817731
0.00809913
0.00785085
0.00750441
0.00716046
0.00686166
0.00662304
0.00643829
0.00629295
0.00616613
0.00603448
0.00587603
0.00567652
0.00543725
0.00517739
0.00491666
0.00462305
0.00421791
0.00373207
0.00330361
0.00296341
0.00267017
0.002426
0.00222765
0.00209595
0.00131322
0.00256538
0.00417931
0.00457344
0.00483465
0.00517549
0.00566112
0.00623894
0.00684179
0.0074237
0.00794758
0.00836083
0.00854533
0.00846425
0.00820503
0.00792758
0.00769956
0.00752241
0.00737924
0.00725808
0.00715312
0.00705652
0.00695572
0.00683337
0.0066672
0.00643172
0.00610399
0.00567532
0.00516622
0.00462507
0.00407607
0.00355633
0.00312079
0.00279499
0.00257991
0.0024354
0.00230948
0.00222509
0.00156196
0.0023664
0.00426011
0.00490147
0.00555662
0.00642467
0.00717644
0.00770238
0.0081823
0.00865684
0.00910081
0.00946233
0.00955878
0.00939249
0.00909625
0.00884394
0.00868527
0.00858348
0.0084893
0.00838888
0.00829795
0.00822072
0.00815876
0.00810848
0.00805473
0.00796483
0.00778859
0.00747022
0.00697476
0.00634303
0.00564047
0.00493173
0.00427985
0.00372709
0.00329377
0.00296711
0.00273923
0.00364062
0.00177257
0.00175044
0.00190973
0.00207829
0.00212611
0.00198101
0.00193412
0.0019128
0.0019318
0.00199621
0.00206373
0.00212153
0.00215704
0.00216099
0.002134
0.00209322
0.00205912
0.00203373
0.00201494
0.00200001
0.0019885
0.00198053
0.00197476
0.0019712
0.00196892
0.00196552
0.00195682
0.00193748
0.00190287
0.00185232
0.00179306
0.00173041
0.0016686
0.0016123
0.00156494
0.00152956
0.0015066
0.00149067
0.00147195
0.00151865
0.00147429
)
;

boundaryField
{
    floor
    {
        type            compressible::alphatWallFunction;
        Prt             0.85;
        value           nonuniform List<scalar> 
29
(
0.000168593
9.73134e-05
0.000131034
0.00012478
0.000117969
0.000111981
0.000106246
9.98432e-05
9.35563e-05
8.77751e-05
8.25711e-05
7.79033e-05
7.36791e-05
6.98115e-05
6.6203e-05
6.2727e-05
5.91855e-05
5.55013e-05
5.01857e-05
5.34504e-05
5.34497e-05
6.98497e-05
7.71262e-05
8.7452e-05
0.000168591
9.73122e-05
0.000131754
0.000165649
0.000210994
)
;
    }
    ceiling
    {
        type            compressible::alphatWallFunction;
        Prt             0.85;
        value           nonuniform List<scalar> 
43
(
0.000244624
0.000265575
0.000287545
0.000293789
0.000274957
0.000268845
0.000266065
0.000268563
0.000276985
0.000285779
0.000293282
0.000297881
0.000298396
0.000294909
0.000289628
0.000285204
0.000281905
0.00027946
0.000277516
0.000276016
0.000274976
0.000274224
0.000273759
0.000273462
0.000273018
0.000271882
0.000269356
0.000264826
0.000258195
0.000250394
0.000242117
0.000233918
0.000226422
0.000220092
0.00021535
0.000212266
0.000210123
0.000207603
0.000213886
0.000207921
0.00041464
0.000492375
0.000324635
)
;
    }
    sWall
    {
        type            compressible::alphatWallFunction;
        Prt             0.85;
        value           uniform 0.000243525;
    }
    nWall
    {
        type            compressible::alphatWallFunction;
        Prt             0.85;
        value           nonuniform List<scalar> 6(9.3665e-05 0.000117395 0.000138487 0.000219212 0.000247201 0.000207438);
    }
    sideWalls
    {
        type            empty;
    }
    glass1
    {
        type            compressible::alphatWallFunction;
        Prt             0.85;
        value           nonuniform List<scalar> 9(0.000143029 0.000196018 0.000239637 0.000281179 0.000322857 0.000366157 0.000407683 0.000418124 0.000409733);
    }
    glass2
    {
        type            compressible::alphatWallFunction;
        Prt             0.85;
        value           nonuniform List<scalar> 2(0.000172903 0.00018483);
    }
    sun
    {
        type            compressible::alphatWallFunction;
        Prt             0.85;
        value           nonuniform List<scalar> 
14
(
0.000146119
0.000158468
0.000160807
0.000168198
0.000174969
0.000181234
0.000187278
0.000193465
0.000198726
0.00020224
0.000203274
0.000201071
0.000194857
0.000183863
)
;
    }
    heatsource1
    {
        type            compressible::alphatWallFunction;
        Prt             0.85;
        value           nonuniform List<scalar> 3(9.97998e-05 9.81389e-05 9.38661e-05);
    }
    heatsource2
    {
        type            compressible::alphatWallFunction;
        Prt             0.85;
        value           nonuniform List<scalar> 4(0.000175346 0.000109932 0.00010993 0.000170834);
    }
    Table_master
    {
        type            compressible::alphatWallFunction;
        Prt             0.85;
        value           nonuniform List<scalar> 9(0.000134556 0.000118732 0.000106053 9.58431e-05 8.75491e-05 8.07499e-05 7.51517e-05 7.06005e-05 6.71418e-05);
    }
    Table_slave
    {
        type            compressible::alphatWallFunction;
        Prt             0.85;
        value           nonuniform List<scalar> 9(0.00014819 0.000135959 0.000128107 0.000122823 0.000118814 0.000115047 0.000110618 0.000106035 0.000100524);
    }
    inlet
    {
        type            fixedValue;
        value           uniform 1.94e-05;
    }
    outlet
    {
        type            zeroGradient;
    }
}


// ************************************************************************* //
