/*--------------------------------*- C++ -*----------------------------------*\
  =========                 |
  \\      /  F ield         | OpenFOAM: The Open Source CFD Toolbox
   \\    /   O peration     | Website:  https://openfoam.org
    \\  /    A nd           | Version:  6
     \\/     M anipulation  |
\*---------------------------------------------------------------------------*/
FoamFile
{
    version     2.0;
    format      ascii;
    class       volScalarField;
    location    "670";
    object      epsilon;
}
// * * * * * * * * * * * * * * * * * * * * * * * * * * * * * * * * * * * * * //

dimensions      [0 2 -3 0 0 0 0];

internalField   nonuniform List<scalar> 
459
(
0.000248634
0.000318151
0.000332783
0.0003822
0.000431819
0.000481612
0.000533352
0.000590257
0.000641877
0.000678061
0.000688932
0.000665742
0.000603423
0.000503451
0.00038478
7.40503e-05
0.000178379
0.000154061
0.000130327
0.0001117
9.57043e-05
7.9834e-05
6.61573e-05
5.51254e-05
4.63699e-05
3.93978e-05
3.37598e-05
2.91223e-05
2.52204e-05
2.18271e-05
1.87165e-05
1.58286e-05
1.22393e-05
1.43493e-05
0.000653749
0.000989174
0.000295951
0.000283351
0.000292887
0.000309367
0.000334683
0.000372452
0.00041663
0.000456334
0.000479224
0.000475752
0.000442643
0.000386953
0.000338346
0.000436524
0.00010645
0.000181399
0.000367619
0.000193063
0.00013415
0.000103052
8.38389e-05
7.55757e-05
6.22629e-05
5.05091e-05
4.10041e-05
3.35213e-05
2.76419e-05
2.30055e-05
1.93844e-05
1.68758e-05
1.5859e-05
1.994e-05
2.11336e-05
2.91633e-05
0.00122642
0.00251928
0.000370847
0.000264717
0.000268505
0.000291144
0.000327639
0.000379312
0.000440125
0.000494632
0.000529526
0.000537763
0.000517193
0.000473076
0.000418089
0.00037596
0.000402776
0.000364639
0.000257064
0.000181315
0.00013743
0.000109266
9.58075e-05
0.000194484
0.000133748
9.588e-05
7.14661e-05
5.5167e-05
4.39254e-05
3.59732e-05
3.03064e-05
2.64455e-05
2.0993e-05
2.22301e-05
2.87618e-05
3.83221e-05
0.00203476
0.00529841
0.000595102
0.000262312
0.000252194
0.000280681
0.000329215
0.00040162
0.000484097
0.000549073
0.000587785
0.000599634
0.000582721
0.000540231
0.000477269
0.00041395
0.000374743
0.000774582
0.000449708
0.000282379
0.000197071
0.000147815
0.000118013
0.000107413
0.000260645
0.000200741
0.000167862
0.000148004
0.000134093
0.000121886
0.000108562
9.589e-05
8.20819e-05
4.99854e-05
3.57484e-05
4.96226e-05
5.45742e-05
0.00316301
0.00949939
0.00117227
0.000296706
0.000240587
0.000269965
0.000338399
0.000462016
0.000576243
0.000644088
0.000676851
0.00068312
0.000658134
0.000600896
0.000518348
0.000427515
0.000345488
0.000307849
0.000259862
0.000214863
0.000176768
0.000146779
0.000124992
0.000111642
0.000113419
0.000110104
0.000106469
0.000102531
9.76337e-05
9.10621e-05
8.24179e-05
7.30564e-05
6.41078e-05
5.27731e-05
4.21531e-05
5.44745e-05
5.8531e-05
8.03131e-05
7.65048e-05
6.73123e-05
0.00473744
0.0141502
0.0026306
0.000515833
0.000300347
0.000302734
0.000396144
0.000632882
0.000758136
0.000806045
0.000818842
0.000810175
0.000773112
0.000697865
0.000588078
0.000466772
0.000362168
0.000293193
0.000248208
0.000213489
0.000184944
0.000162412
0.000146299
0.000136711
0.000134273
0.000134944
0.000135272
0.000133232
0.000128115
0.000119833
0.000108467
9.37084e-05
7.89714e-05
6.57131e-05
5.42495e-05
5.42849e-05
6.11704e-05
6.81022e-05
0.000172771
0.000130045
0.00669835
0.017023
0.0058236
0.00173186
0.000924371
0.000733761
0.000895908
0.00104431
0.00107936
0.00106271
0.00103434
0.00100145
0.000945633
0.000846022
0.000703756
0.00054901
0.000418367
0.000332213
0.000280383
0.000245799
0.0002209
0.000203918
0.000194305
0.000191202
0.000193229
0.000196764
0.000197441
0.000192901
0.000183138
0.000169997
0.000155757
0.000141038
0.000122565
0.000106805
9.56388e-05
9.01157e-05
9.18913e-05
9.97305e-05
0.000273662
0.000213238
0.00727368
0.0209961
0.0107499
0.00636569
0.00394478
0.00273059
0.00220689
0.00185499
0.00160615
0.00144086
0.00134209
0.00127649
0.0011956
0.00106097
0.000872685
0.000674857
0.00051296
0.000411883
0.000355579
0.000323891
0.000306586
0.000298814
0.000298314
0.000302742
0.000309091
0.000313021
0.000309624
0.000295922
0.000272929
0.000246705
0.000226161
0.00021717
0.000218424
0.000223021
0.00024566
0.000283265
0.000346435
0.000426574
0.0016012
0.000426167
0.00682051
0.0119088
0.00983305
0.00727798
0.00534693
0.00403241
0.00312201
0.00249454
0.00208687
0.00185402
0.00174049
0.0016715
0.00156647
0.00137701
0.00111795
0.000870462
0.000684915
0.000593595
0.000551785
0.00053289
0.000526615
0.00052913
0.000537667
0.000549162
0.000559305
0.00056172
0.000548564
0.000513513
0.000456471
0.000388302
0.000329689
0.000298093
0.000299427
0.000330029
0.000389235
0.000483606
0.000616067
0.000784361
0.000968149
0.00052405
0.00463997
0.00617978
0.00480633
0.00381839
0.00313586
0.00270098
0.00247967
0.00241275
0.00241648
0.00239158
0.00224695
0.00196266
0.00160592
0.00135831
0.00123005
0.00118117
0.00116871
0.00116701
0.00116879
0.00117611
0.00118871
0.00120499
0.00122028
0.0012246
0.00120199
0.00113364
0.00100675
0.000829216
0.00064312
0.000503772
0.000420651
0.000388675
0.000409795
0.00048188
0.000595855
0.000728948
0.000883892
0.000881891
0.00297819
0.0043413
0.00377592
0.00347851
0.0035885
0.00383954
0.0040657
0.00433213
0.0045731
0.00468695
0.00454371
0.00418028
0.00376113
0.00342604
0.0032362
0.00315821
0.00313115
0.00311215
0.00309245
0.00308366
0.0030909
0.00311857
0.00316624
0.00322133
0.00325236
0.00320884
0.00303713
0.00271644
0.00229937
0.00185596
0.00144828
0.00112166
0.000897723
0.000775401
0.00072979
0.000741201
0.00185867
0.00128881
0.00121248
0.00157309
0.00202742
0.00218704
0.00177446
0.00165426
0.0016025
0.00165377
0.00182833
0.00202363
0.00220142
0.00231617
0.00233066
0.00224549
0.00211983
0.00201828
0.00194477
0.00189147
0.00184983
0.00181815
0.0017964
0.00178079
0.0017712
0.0017651
0.00175599
0.00173282
0.00168199
0.00159348
0.00146988
0.00133329
0.0011984
0.00107453
0.000969421
0.000886489
0.000827727
0.000791032
0.000766224
0.000737769
0.000810249
0.000741537
)
;

boundaryField
{
    floor
    {
        Cmu             0.09;
        kappa           0.41;
        E               9.8;
        type            epsilonWallFunction;
        value           nonuniform List<scalar> 
29
(
0.00038478
7.40503e-05
0.000178379
0.000154061
0.000130327
0.0001117
9.57043e-05
7.9834e-05
6.61573e-05
5.51254e-05
4.63699e-05
3.93978e-05
3.37598e-05
2.91223e-05
2.52204e-05
2.18271e-05
1.87165e-05
1.58286e-05
1.22393e-05
1.43493e-05
1.43493e-05
2.91633e-05
3.83221e-05
5.45742e-05
0.00038478
7.40503e-05
0.000181399
0.000364639
0.000774582
)
;
    }
    ceiling
    {
        Cmu             0.09;
        kappa           0.41;
        E               9.8;
        type            epsilonWallFunction;
        value           nonuniform List<scalar> 
43
(
0.00121248
0.00157309
0.00202742
0.00218704
0.00177446
0.00165426
0.0016025
0.00165377
0.00182833
0.00202363
0.00220142
0.00231617
0.00233066
0.00224549
0.00211983
0.00201828
0.00194477
0.00189147
0.00184983
0.00181815
0.0017964
0.00178079
0.0017712
0.0017651
0.00175599
0.00173282
0.00168199
0.00159348
0.00146988
0.00133329
0.0011984
0.00107453
0.000969421
0.000886489
0.000827727
0.000791032
0.000766224
0.000737769
0.000810249
0.000741537
0.00682051
0.0119088
0.00297819
)
;
    }
    sWall
    {
        Cmu             0.09;
        kappa           0.41;
        E               9.8;
        type            epsilonWallFunction;
        value           uniform 0.00121248;
    }
    nWall
    {
        Cmu             0.09;
        kappa           0.41;
        E               9.8;
        type            epsilonWallFunction;
        value           nonuniform List<scalar> 6(6.73123e-05 0.000130045 0.000213238 0.000881891 0.00128881 0.000741537);
    }
    sideWalls
    {
        type            empty;
    }
    glass1
    {
        Cmu             0.09;
        kappa           0.41;
        E               9.8;
        type            epsilonWallFunction;
        value           nonuniform List<scalar> 9(0.000248634 0.000653749 0.00122642 0.00203476 0.00316301 0.00473744 0.00669835 0.00727368 0.00682051);
    }
    glass2
    {
        Cmu             0.09;
        kappa           0.41;
        E               9.8;
        type            epsilonWallFunction;
        value           nonuniform List<scalar> 2(0.000426167 0.00052405);
    }
    sun
    {
        Cmu             0.09;
        kappa           0.41;
        E               9.8;
        type            epsilonWallFunction;
        value           nonuniform List<scalar> 
14
(
0.000248634
0.000318151
0.000332783
0.0003822
0.000431819
0.000481612
0.000533352
0.000590257
0.000641877
0.000678061
0.000688932
0.000665742
0.000603423
0.000503451
)
;
    }
    heatsource1
    {
        Cmu             0.09;
        kappa           0.41;
        E               9.8;
        type            epsilonWallFunction;
        value           nonuniform List<scalar> 3(8.03131e-05 7.65048e-05 6.73123e-05);
    }
    heatsource2
    {
        Cmu             0.09;
        kappa           0.41;
        E               9.8;
        type            epsilonWallFunction;
        value           nonuniform List<scalar> 4(0.000436524 0.00010645 0.00010645 0.000402776);
    }
    Table_master
    {
        Cmu             0.09;
        kappa           0.41;
        E               9.8;
        type            epsilonWallFunction;
        value           nonuniform List<scalar> 9(0.000194484 0.000133748 9.588e-05 7.14661e-05 5.5167e-05 4.39254e-05 3.59732e-05 3.03064e-05 2.64455e-05);
    }
    Table_slave
    {
        Cmu             0.09;
        kappa           0.41;
        E               9.8;
        type            epsilonWallFunction;
        value           nonuniform List<scalar> 9(0.000260645 0.000200741 0.000167862 0.000148004 0.000134093 0.000121886 0.000108562 9.589e-05 8.20819e-05);
    }
    inlet
    {
        type            turbulentMixingLengthDissipationRateInlet;
        mixingLength    0.01;
        phi             phi;
        k               k;
        value           uniform 3.01869e-05;
    }
    outlet
    {
        type            zeroGradient;
    }
}


// ************************************************************************* //
