// -*- C++ -*-
// File generated by PyFoam - sorry for the ugliness

FoamFile
{
 version 2.0;
 format ascii;
 class volVectorField;
 location "1500";
 object U;
}

dimensions [ 0 1 -1 0 0 0 0 ];

internalField nonuniform List<vector> 459
(
  (0.0335537 0.0840205 0)
  (-0.163209 0.0250149 0)
  (-0.187428 0.0182017 0)
  (-0.21864 0.0131773 0)
  (-0.242617 0.00778468 0)
  (-0.258851 0.00217145 0)
  (-0.266269 -0.00382917 0)
  (-0.263228 -0.0103368 0)
  (-0.249244 -0.0173554 0)
  (-0.224711 -0.0241342 0)
  (-0.191365 -0.0297531 0)
  (-0.151918 -0.0336657 0)
  (-0.109459 -0.0362952 0)
  (-0.0695401 -0.0394017 0)
  (-0.0481091 -0.0444591 0)
  (-0.00281318 0.00580857 0)
  (-0.0149274 -0.019639 0)
  (0.0128466 -0.0271491 0)
  (0.0321046 -0.0195213 0)
  (0.0485144 -0.0127218 0)
  (0.0595737 -0.00795514 0)
  (0.0654254 -0.00504051 0)
  (0.0681134 -0.00355209 0)
  (0.069421 -0.00281591 0)
  (0.0702288 -0.00240854 0)
  (0.0707759 -0.00215608 0)
  (0.0710886 -0.00196924 0)
  (0.0711098 -0.00173926 0)
  (0.0705903 -0.00125167 0)
  (0.0688384 -7.25503e-05 0)
  (0.0644294 0.00242354 0)
  (0.0557288 0.00551223 0)
  (0.0436067 0.00914081 0)
  (0.00229584 0.0217077 0)
  (0.206855 0.171809 0)
  (-0.152304 0.0649698 0)
  (-0.149151 0.0523152 0)
  (-0.180678 0.0421535 0)
  (-0.203646 0.0310937 0)
  (-0.219402 0.0190404 0)
  (-0.226973 0.00540485 0)
  (-0.224505 -0.0101178 0)
  (-0.211634 -0.0265053 0)
  (-0.189254 -0.0414549 0)
  (-0.159537 -0.0526637 0)
  (-0.125707 -0.0586401 0)
  (-0.0913667 -0.0594835 0)
  (-0.0612838 -0.0564876 0)
  (-0.041628 -0.0495446 0)
  (-0.0254177 -0.0266636 0)
  (-0.00988514 0.00695672 0)
  (0.0483091 0.028913 0)
  (0.0381923 -0.0259657 0)
  (0.046246 -0.0334605 0)
  (0.0574976 -0.0261802 0)
  (0.0661699 -0.0164837 0)
  (0.0710488 -0.00828145 0)
  (0.0725251 -0.00324043 0)
  (0.0725642 -0.000661651 0)
  (0.0725058 0.000572976 0)
  (0.0726271 0.00123831 0)
  (0.072786 0.00165199 0)
  (0.0728875 0.00198859 0)
  (0.0729099 0.00247704 0)
  (0.0727632 0.00352688 0)
  (0.0718516 0.00618122 0)
  (0.0675319 0.0133911 0)
  (0.0568604 0.0202094 0)
  (0.0449375 0.0264798 0)
  (-0.0247117 0.0462679 0)
  (0.36652 0.256696 0)
  (-0.170184 0.102815 0)
  (-0.110019 0.083749 0)
  (-0.139927 0.0654052 0)
  (-0.159226 0.04719 0)
  (-0.172953 0.0277425 0)
  (-0.179809 0.00570865 0)
  (-0.176755 -0.0192368 0)
  (-0.163555 -0.0451299 0)
  (-0.142022 -0.0678722 0)
  (-0.114884 -0.0839242 0)
  (-0.0855544 -0.0912426 0)
  (-0.0569432 -0.0900845 0)
  (-0.0319216 -0.0813109 0)
  (-0.013242 -0.0650041 0)
  (0.00194981 -0.0371349 0)
  (0.0117327 0.00150995 0)
  (0.103087 -0.0533957 0)
  (0.0770537 -0.0524602 0)
  (0.0747208 -0.0446028 0)
  (0.0774375 -0.0333048 0)
  (0.0791197 -0.021333 0)
  (0.0788554 -0.0110927 0)
  (0.0754207 -0.00948259 0)
  (0.0717587 -0.0071764 0)
  (0.0695554 -0.00590923 0)
  (0.0684863 -0.00517211 0)
  (0.0679205 -0.00471986 0)
  (0.0675908 -0.00440926 0)
  (0.0675619 -0.00405476 0)
  (0.0683738 -0.00323006 0)
  (0.0714934 0.000132693 0)
  (0.0694409 0.0186726 0)
  (0.0560017 0.0329298 0)
  (0.0480695 0.0449659 0)
  (-0.0485863 0.0732521 0)
  (0.510145 0.324627 0)
  (-0.206542 0.135947 0)
  (-0.069373 0.109369 0)
  (-0.0974533 0.0840261 0)
  (-0.109978 0.061047 0)
  (-0.119151 0.0364111 0)
  (-0.123317 0.00714497 0)
  (-0.116966 -0.0273335 0)
  (-0.101888 -0.0626822 0)
  (-0.0812607 -0.0920868 0)
  (-0.057957 -0.111477 0)
  (-0.035104 -0.118915 0)
  (-0.0140123 -0.115701 0)
  (0.00481723 -0.102527 0)
  (0.0204219 -0.0812937 0)
  (0.0367636 -0.053667 0)
  (0.0624734 -0.0263433 0)
  (0.097136 -0.0161396 0)
  (0.10771 -0.0445593 0)
  (0.0936426 -0.0461982 0)
  (0.0842463 -0.0388093 0)
  (0.0800099 -0.0294628 0)
  (0.0779646 -0.019257 0)
  (0.0782742 -0.00802515 0)
  (0.0809829 -0.00432314 0)
  (0.0837252 -0.00364867 0)
  (0.0853562 -0.00320174 0)
  (0.0859987 -0.00271102 0)
  (0.0855809 -0.00197979 0)
  (0.0836775 -0.000890257 0)
  (0.0796164 0.00068978 0)
  (0.0723824 0.0030473 0)
  (0.0587532 0.00675723 0)
  (0.0500171 0.0289868 0)
  (0.0422732 0.0475984 0)
  (0.0485634 0.0644139 0)
  (-0.0713635 0.0986386 0)
  (0.632678 0.377219 0)
  (-0.249973 0.163115 0)
  (-0.0302022 0.122719 0)
  (-0.0545195 0.0934637 0)
  (-0.0580453 0.0681558 0)
  (-0.0601666 0.0409145 0)
  (-0.0586092 0.00611794 0)
  (-0.0435521 -0.0377816 0)
  (-0.0258818 -0.0803113 0)
  (-0.00791989 -0.112824 0)
  (0.00885322 -0.132329 0)
  (0.0220854 -0.13728 0)
  (0.0327967 -0.131203 0)
  (0.0413432 -0.116196 0)
  (0.0488494 -0.0946505 0)
  (0.0575266 -0.0696714 0)
  (0.0701804 -0.0472533 0)
  (0.0827655 -0.0388715 0)
  (0.0855252 -0.043463 0)
  (0.0783389 -0.0404496 0)
  (0.069587 -0.0330014 0)
  (0.0633327 -0.0248319 0)
  (0.0594645 -0.0168452 0)
  (0.0581011 -0.00947722 0)
  (0.0587609 -0.00461561 0)
  (0.0605919 -0.00229361 0)
  (0.0621814 -0.00108482 0)
  (0.0634354 0.000118352 0)
  (0.0643419 0.00192541 0)
  (0.0642057 0.00456182 0)
  (0.0625633 0.00818252 0)
  (0.0590473 0.0131164 0)
  (0.0528122 0.02019 0)
  (0.0464085 0.0359282 0)
  (0.0397545 0.0561046 0)
  (0.0565004 0.078976 0)
  (-0.00376662 0.111922 0)
  (0.041436 0.038754 0)
  (-0.0626079 -0.0370146 0)
  (-0.258825 -0.0576121 0)
  (0.719135 0.421445 0)
  (-0.290416 0.181745 0)
  (-0.00227349 0.11638 0)
  (-0.0116585 0.0918926 0)
  (-0.00354082 0.0679892 0)
  (0.00364057 0.0384239 0)
  (0.0209349 -0.00381325 0)
  (0.0435559 -0.0544037 0)
  (0.0609601 -0.0968747 0)
  (0.072686 -0.126232 0)
  (0.0788685 -0.141497 0)
  (0.0803516 -0.143634 0)
  (0.0786269 -0.135176 0)
  (0.0749641 -0.118735 0)
  (0.0708813 -0.0972689 0)
  (0.0679746 -0.074062 0)
  (0.0673346 -0.0534302 0)
  (0.0668772 -0.0408502 0)
  (0.0624472 -0.0360685 0)
  (0.0537976 -0.0315358 0)
  (0.0445585 -0.0254265 0)
  (0.0375456 -0.0191546 0)
  (0.0332545 -0.0134608 0)
  (0.0316892 -0.00856429 0)
  (0.0323099 -0.00528403 0)
  (0.034201 -0.00395402 0)
  (0.0364607 -0.00332449 0)
  (0.0388351 -0.00231015 0)
  (0.0412653 -0.000148987 0)
  (0.0434447 0.00348624 0)
  (0.0446052 0.00852735 0)
  (0.0448438 0.015123 0)
  (0.0441842 0.0238744 0)
  (0.0441304 0.0375139 0)
  (0.0441602 0.0563619 0)
  (0.0644118 0.0806736 0)
  (0.0517539 0.104038 0)
  (0.0860121 0.0727015 0)
  (0.110246 0.0451414 0)
  (-0.13038 -0.0112506 0)
  (0.766046 0.461809 0)
  (-0.309133 0.167375 0)
  (0.0212428 0.0640468 0)
  (0.0450722 0.0653131 0)
  (0.0636435 0.0550822 0)
  (0.0819973 0.0241518 0)
  (0.116835 -0.0269865 0)
  (0.140796 -0.0738482 0)
  (0.153017 -0.108956 0)
  (0.154605 -0.13067 0)
  (0.147514 -0.13941 0)
  (0.13419 -0.136806 0)
  (0.117283 -0.125431 0)
  (0.0990492 -0.107869 0)
  (0.0814567 -0.0869787 0)
  (0.0659541 -0.0655472 0)
  (0.0533242 -0.0466802 0)
  (0.0428166 -0.0335979 0)
  (0.0324344 -0.0263176 0)
  (0.0220231 -0.0216063 0)
  (0.013023 -0.0173694 0)
  (0.0067396 -0.0136561 0)
  (0.00330786 -0.0106542 0)
  (0.00241212 -0.00830417 0)
  (0.00341091 -0.00686676 0)
  (0.00545212 -0.00638423 0)
  (0.00790694 -0.00612221 0)
  (0.0106281 -0.00534534 0)
  (0.0136823 -0.00333472 0)
  (0.0177214 0.0006208 0)
  (0.0219302 0.00631471 0)
  (0.0258079 0.0132686 0)
  (0.0300135 0.0218515 0)
  (0.0359823 0.03344 0)
  (0.0432717 0.0484237 0)
  (0.064239 0.0680333 0)
  (0.0781735 0.0808337 0)
  (0.108391 0.0589547 0)
  (0.148406 0.0447817 0)
  (-0.044976 0.0878179 0)
  (0.867634 0.465208 0)
  (-0.0735454 0.146947 0)
  (0.103882 -0.0177613 0)
  (0.173003 -0.0336069 0)
  (0.189127 -0.0353122 0)
  (0.219063 -0.0552127 0)
  (0.244713 -0.0792886 0)
  (0.2552 -0.100175 0)
  (0.249611 -0.114895 0)
  (0.230988 -0.121943 0)
  (0.203303 -0.121007 0)
  (0.170445 -0.112998 0)
  (0.135981 -0.0996081 0)
  (0.102485 -0.0824341 0)
  (0.0720471 -0.0637167 0)
  (0.0457799 -0.0454851 0)
  (0.0245611 -0.0299965 0)
  (0.00833955 -0.0196195 0)
  (-0.00468471 -0.0142151 0)
  (-0.0142254 -0.0119912 0)
  (-0.0211312 -0.0107856 0)
  (-0.0254949 -0.0100533 0)
  (-0.0277289 -0.00959457 0)
  (-0.0283342 -0.0092642 0)
  (-0.0278471 -0.00911088 0)
  (-0.0268203 -0.00915521 0)
  (-0.0256148 -0.00919355 0)
  (-0.0242694 -0.0089282 0)
  (-0.0225468 -0.0079602 0)
  (-0.0197876 -0.00572668 0)
  (-0.014195 -0.00164041 0)
  (-0.00781334 0.00377845 0)
  (-0.000956347 0.00978941 0)
  (0.00882425 0.0166261 0)
  (0.0200873 0.0237023 0)
  (0.0403767 0.0321459 0)
  (0.0618552 0.0291968 0)
  (0.0846858 0.00115073 0)
  (0.146286 0.0352777 0)
  (-0.385175 0.189351 0)
  (1.00871 0.423827 0)
  (0.480193 0.281705 0)
  (0.4962 0.185359 0)
  (0.519629 0.119261 0)
  (0.500981 0.07516 0)
  (0.466952 0.0327575 0)
  (0.426332 -0.00753064 0)
  (0.380169 -0.0400541 0)
  (0.327948 -0.0617842 0)
  (0.272072 -0.0723728 0)
  (0.215807 -0.0734456 0)
  (0.161942 -0.0676096 0)
  (0.11274 -0.0573965 0)
  (0.0688066 -0.0441879 0)
  (0.031867 -0.0302829 0)
  (0.00130554 -0.017458 0)
  (-0.0205933 -0.00868769 0)
  (-0.0339972 -0.00509052 0)
  (-0.0431696 -0.00447779 0)
  (-0.0496962 -0.00534343 0)
  (-0.0544622 -0.00657028 0)
  (-0.0577449 -0.00771425 0)
  (-0.059926 -0.00863636 0)
  (-0.0613807 -0.00932572 0)
  (-0.0624876 -0.00985735 0)
  (-0.0636636 -0.0102729 0)
  (-0.0653012 -0.0104748 0)
  (-0.0677125 -0.0101806 0)
  (-0.0711263 -0.00888366 0)
  (-0.0757272 -0.00591301 0)
  (-0.0818856 -0.000645336 0)
  (-0.0883866 0.00643206 0)
  (-0.0970208 0.0154625 0)
  (-0.110228 0.0272327 0)
  (-0.130717 0.042249 0)
  (-0.160651 0.0598148 0)
  (-0.203951 0.0764755 0)
  (-0.257304 0.0897369 0)
  (-0.3259 0.0992566 0)
  (-0.581154 0.103166 0)
  (-0.170642 0.000385874 0)
  (0.12784 0.0125104 0)
  (0.221099 -0.01174 0)
  (0.211248 -0.0271556 0)
  (0.199173 -0.0322373 0)
  (0.180813 -0.0339026 0)
  (0.15365 -0.0334664 0)
  (0.12045 -0.0307885 0)
  (0.0844961 -0.0260488 0)
  (0.0484201 -0.019611 0)
  (0.0142189 -0.0114812 0)
  (-0.0206467 -0.00149838 0)
  (-0.04418 0.0052715 0)
  (-0.0602923 0.0095366 0)
  (-0.0699161 0.0114198 0)
  (-0.0755104 0.011755 0)
  (-0.0792779 0.0114369 0)
  (-0.0823331 0.0107245 0)
  (-0.0853186 0.00971742 0)
  (-0.0882988 0.00907227 0)
  (-0.0912863 0.00902041 0)
  (-0.0942641 0.00955366 0)
  (-0.0972567 0.0105582 0)
  (-0.100355 0.01187 0)
  (-0.103689 0.0132827 0)
  (-0.10739 0.0145729 0)
  (-0.111541 0.0155614 0)
  (-0.115926 0.0164517 0)
  (-0.119553 0.0185447 0)
  (-0.122722 0.0231402 0)
  (-0.125441 0.0311636 0)
  (-0.127757 0.0433139 0)
  (-0.12988 0.0595184 0)
  (-0.131866 0.077274 0)
  (-0.131284 0.0878803 0)
  (-0.11512 0.0711523 0)
  (-0.081132 -0.0106127 0)
  (-0.253202 -0.185122 0)
  (0.00999393 0.187664 0)
  (0.0559242 0.0692699 0)
  (0.0156337 0.00532469 0)
  (0.0040702 -0.00396297 0)
  (-0.00149191 -0.00344612 0)
  (-0.0104809 -0.00627149 0)
  (-0.0245333 -0.00872171 0)
  (-0.0416264 -0.0093678 0)
  (-0.0590635 -0.00913906 0)
  (-0.0744749 -0.00914827 0)
  (-0.0857946 -0.0102726 0)
  (-0.0920797 -0.0134877 0)
  (-0.0955329 -0.019387 0)
  (-0.0970682 -0.0264489 0)
  (-0.097487 -0.0339641 0)
  (-0.0976422 -0.0411184 0)
  (-0.0980642 -0.0473123 0)
  (-0.0990617 -0.0524875 0)
  (-0.100886 -0.0566301 0)
  (-0.10373 -0.0602791 0)
  (-0.107442 -0.0635241 0)
  (-0.111766 -0.0662077 0)
  (-0.11638 -0.0680137 0)
  (-0.120896 -0.0684968 0)
  (-0.12489 -0.0671663 0)
  (-0.127961 -0.0635605 0)
  (-0.129814 -0.0572464 0)
  (-0.130289 -0.0480397 0)
  (-0.129166 -0.0365739 0)
  (-0.125625 -0.0228443 0)
  (-0.118521 -0.00670991 0)
  (-0.106636 0.012195 0)
  (-0.0891191 0.0335358 0)
  (-0.0662778 0.0541798 0)
  (-0.0406244 0.0668156 0)
  (-0.00214842 0.0508193 0)
  (0.143709 -0.0204047 0)
  (-0.187884 -0.0963795 0)
  (-0.000465315 -0.301951 0)
  (-0.395591 -0.120784 0)
  (-0.28771 0.0608621 0)
  (-0.236213 -0.0106994 0)
  (-0.198298 -0.0108627 0)
  (-0.185233 0.00439584 0)
  (-0.179829 0.0171515 0)
  (-0.177176 0.0274039 0)
  (-0.174946 0.0370378 0)
  (-0.171722 0.0468594 0)
  (-0.16687 0.0572195 0)
  (-0.160191 0.0683386 0)
  (-0.151822 0.0801649 0)
  (-0.142382 0.0922265 0)
  (-0.133228 0.10422 0)
  (-0.125268 0.115653 0)
  (-0.119008 0.125863 0)
  (-0.11459 0.134471 0)
  (-0.111822 0.141529 0)
  (-0.110356 0.147376 0)
  (-0.109792 0.152347 0)
  (-0.109814 0.156993 0)
  (-0.110208 0.161352 0)
  (-0.11081 0.165146 0)
  (-0.111496 0.167863 0)
  (-0.112172 0.168846 0)
  (-0.112744 0.167501 0)
  (-0.113065 0.163502 0)
  (-0.112819 0.156885 0)
  (-0.111414 0.148254 0)
  (-0.10791 0.138998 0)
  (-0.100871 0.130224 0)
  (-0.088271 0.123148 0)
  (-0.0683112 0.119049 0)
  (-0.0407852 0.119002 0)
  (-0.00310735 0.122241 0)
  (0.0395288 0.123068 0)
  (0.0758733 0.115548 0)
  (0.15662 0.0987163 0)
  (-0.281074 0.0661217 0)
)
;

boundaryField
{
  floor
  {
    type noSlip;
  }
  ceiling
  {
    type noSlip;
  }
  sWall
  {
    type noSlip;
  }
  nWall
  {
    type noSlip;
  }
  sideWalls
  {
    type empty;
  }
  glass1
  {
    type noSlip;
  }
  glass2
  {
    type noSlip;
  }
  sun
  {
    type noSlip;
  }
  heatsource1
  {
    type noSlip;
  }
  heatsource2
  {
    type noSlip;
  }
  Table_master
  {
    type noSlip;
  }
  Table_slave
  {
    type noSlip;
  }
  inlet
  {
    type fixedValue;
    value uniform (0.277164 -0.114805 0);
  }
  outlet
  {
    type zeroGradient;
  }
} 	// ************************************************************************* //

