// -*- C++ -*-
// File generated by PyFoam - sorry for the ugliness

FoamFile
{
 version 2.0;
 format ascii;
 class volVectorField;
 location "200";
 object U;
}

dimensions [ 0 1 -1 0 0 0 0 ];

internalField nonuniform List<vector> 459
(
  (0.0952039 0.0675841 0)
  (-0.13598 0.00348131 0)
  (-0.121565 0.00777851 0)
  (-0.138751 0.00841036 0)
  (-0.155284 0.00717932 0)
  (-0.169917 0.00511549 0)
  (-0.181507 0.0024666 0)
  (-0.1891 -0.000738502 0)
  (-0.191727 -0.00455486 0)
  (-0.188297 -0.00912589 0)
  (-0.17732 -0.0147665 0)
  (-0.156832 -0.0217075 0)
  (-0.126004 -0.0309542 0)
  (-0.0919747 -0.0444818 0)
  (-0.0811592 -0.0613 0)
  (0.0309398 0.0100694 0)
  (-0.0278102 -0.00414522 0)
  (-0.0196621 -0.00383062 0)
  (-0.013824 0.00188815 0)
  (-0.0150642 0.00494647 0)
  (-0.0198572 0.00334052 0)
  (-0.0255161 -0.00144014 0)
  (-0.0271865 -0.00580893 0)
  (-0.0233869 -0.00752143 0)
  (-0.0183299 -0.00875247 0)
  (-0.0101154 -0.0120794 0)
  (-0.000260301 -0.012279 0)
  (0.0103155 -0.0083612 0)
  (0.017178 -0.00620719 0)
  (0.0219163 -0.00519642 0)
  (0.0269706 -0.00530036 0)
  (0.0316093 -0.00859175 0)
  (0.0424451 -0.00282505 0)
  (-0.0139281 0.0191162 0)
  (0.295566 0.147305 0)
  (-0.159581 0.021219 0)
  (-0.111973 0.0260603 0)
  (-0.135349 0.0266211 0)
  (-0.153343 0.0245979 0)
  (-0.168876 0.0209808 0)
  (-0.181265 0.0160026 0)
  (-0.189805 0.00961887 0)
  (-0.193649 0.00167642 0)
  (-0.191842 -0.00803127 0)
  (-0.18359 -0.0193276 0)
  (-0.167918 -0.0320179 0)
  (-0.144837 -0.046703 0)
  (-0.117209 -0.064817 0)
  (-0.0911972 -0.0839863 0)
  (-0.0711717 -0.0919665 0)
  (0.052295 0.0191855 0)
  (0.113476 0.0111511 0)
  (0.0187413 0.00902509 0)
  (-0.00944439 0.00507008 0)
  (-0.00563688 0.00321885 0)
  (0.000656916 0.000784597 0)
  (0.0099717 0.00733663 0)
  (0.0101441 0.0121633 0)
  (0.00370053 0.0060133 0)
  (-0.0043121 -0.00359969 0)
  (-0.00329518 -0.00642948 0)
  (0.00116444 -0.0132384 0)
  (-0.00259881 -0.0154046 0)
  (0.00213652 -0.00932215 0)
  (0.00324591 -0.00579112 0)
  (0.000148833 -0.00530273 0)
  (0.00450026 -0.0111822 0)
  (0.00499012 -0.0187954 0)
  (0.0296935 -0.0057413 0)
  (-0.078348 0.0413736 0)
  (0.464568 0.226017 0)
  (-0.205598 0.0500654 0)
  (-0.0941314 0.0492351 0)
  (-0.125428 0.0452707 0)
  (-0.143727 0.0404482 0)
  (-0.159796 0.0337234 0)
  (-0.173074 0.0249644 0)
  (-0.183037 0.0140574 0)
  (-0.188914 0.000929669 0)
  (-0.189698 -0.0143024 0)
  (-0.185147 -0.0315032 0)
  (-0.175442 -0.0499321 0)
  (-0.161562 -0.068796 0)
  (-0.145633 -0.086982 0)
  (-0.130409 -0.100622 0)
  (-0.120454 -0.102912 0)
  (-0.125237 -0.0925721 0)
  (0.0182356 0.0313978 0)
  (-0.0478076 0.0158306 0)
  (-0.0461455 0.00798417 0)
  (-0.0388378 -0.00395744 0)
  (-0.0288364 -0.0154143 0)
  (-0.0225532 -0.0240318 0)
  (0.0269733 0.00142446 0)
  (0.0286368 0.00131866 0)
  (0.0277667 -0.00171737 0)
  (0.0239268 -0.00489263 0)
  (0.0177325 -0.0110558 0)
  (-0.00440032 -0.0143698 0)
  (-0.0166731 -0.00765371 0)
  (-0.0240418 -0.00345059 0)
  (-0.0256611 -0.00121246 0)
  (-0.00558953 -0.00398136 0)
  (-0.0275747 0.00388402 0)
  (-0.064056 0.0159879 0)
  (-0.150216 0.0269137 0)
  (0.603222 0.29239 0)
  (-0.25422 0.0841731 0)
  (-0.0696945 0.0731313 0)
  (-0.109758 0.0642982 0)
  (-0.126395 0.0574276 0)
  (-0.141394 0.0486435 0)
  (-0.154341 0.0373605 0)
  (-0.164797 0.0232491 0)
  (-0.172041 0.00613606 0)
  (-0.174954 -0.013716 0)
  (-0.173307 -0.0353372 0)
  (-0.168722 -0.0571181 0)
  (-0.16299 -0.0772063 0)
  (-0.158526 -0.0934933 0)
  (-0.15825 -0.102198 0)
  (-0.166828 -0.096548 0)
  (-0.184108 -0.0638939 0)
  (-0.17374 0.00948657 0)
  (-0.116966 0.0218712 0)
  (-0.10293 0.00961364 0)
  (-0.0853627 -0.00168525 0)
  (-0.0755754 -0.0127772 0)
  (-0.0716631 -0.0220719 0)
  (-0.0738034 -0.0263363 0)
  (-0.0689191 -0.0166157 0)
  (-0.0518794 -0.0144449 0)
  (-0.0363318 -0.0147527 0)
  (-0.0208862 -0.01592 0)
  (-0.00353842 -0.0175195 0)
  (0.015871 -0.0185442 0)
  (0.0346845 -0.0186593 0)
  (0.0540109 -0.0176817 0)
  (0.0729045 -0.0148787 0)
  (0.0816652 -0.00838957 0)
  (0.0794155 0.00805439 0)
  (0.0685395 0.0195598 0)
  (-0.00727993 0.0269527 0)
  (0.71562 0.34757 0)
  (-0.297726 0.119741 0)
  (-0.0418339 0.0928994 0)
  (-0.0889439 0.0804037 0)
  (-0.102147 0.0719587 0)
  (-0.113793 0.0615463 0)
  (-0.124043 0.0483259 0)
  (-0.132608 0.0317397 0)
  (-0.138918 0.0114885 0)
  (-0.141691 -0.0120084 0)
  (-0.140247 -0.036776 0)
  (-0.137371 -0.0599541 0)
  (-0.134925 -0.0793288 0)
  (-0.134775 -0.0934849 0)
  (-0.138304 -0.100963 0)
  (-0.145553 -0.0993031 0)
  (-0.151244 -0.0831496 0)
  (-0.145947 -0.0479431 0)
  (-0.127384 -0.020149 0)
  (-0.105442 -0.0116337 0)
  (-0.0882648 -0.0143793 0)
  (-0.0776077 -0.0199672 0)
  (-0.0718449 -0.02511 0)
  (-0.0683521 -0.0267789 0)
  (-0.0622588 -0.0227271 0)
  (-0.0524472 -0.0216077 0)
  (-0.0415873 -0.0221065 0)
  (-0.0301674 -0.023801 0)
  (-0.0180132 -0.0261769 0)
  (-0.00479551 -0.0284415 0)
  (0.0105492 -0.0298889 0)
  (0.0259859 -0.0294144 0)
  (0.0423475 -0.0252912 0)
  (0.0590235 -0.0155966 0)
  (0.0784558 0.0035577 0)
  (0.0988873 0.0240348 0)
  (0.100906 0.0428947 0)
  (0.128325 0.0339449 0)
  (0.128397 0.0369739 0)
  (-0.0985641 0.0643006 0)
  (0.793215 0.396949 0)
  (-0.334663 0.151853 0)
  (-0.0179051 0.103034 0)
  (-0.0633191 0.092513 0)
  (-0.0727565 0.0825484 0)
  (-0.0795546 0.0705003 0)
  (-0.0849609 0.0558727 0)
  (-0.0892459 0.0377172 0)
  (-0.0922406 0.0153293 0)
  (-0.0920127 -0.0111761 0)
  (-0.0887319 -0.0385898 0)
  (-0.0860862 -0.0620114 0)
  (-0.0853364 -0.0794923 0)
  (-0.0874441 -0.0904928 0)
  (-0.0926715 -0.0943838 0)
  (-0.099751 -0.0897192 0)
  (-0.1044 -0.075042 0)
  (-0.101925 -0.0536525 0)
  (-0.0921599 -0.0355448 0)
  (-0.0797302 -0.0268608 0)
  (-0.0694969 -0.0252478 0)
  (-0.062988 -0.0269767 0)
  (-0.0595535 -0.0294347 0)
  (-0.0573657 -0.0304419 0)
  (-0.0541359 -0.0295566 0)
  (-0.0492847 -0.0295261 0)
  (-0.0436298 -0.0305485 0)
  (-0.0376246 -0.0325559 0)
  (-0.031418 -0.0353848 0)
  (-0.0249209 -0.0386238 0)
  (-0.0177573 -0.041533 0)
  (-0.00973329 -0.0431559 0)
  (0.000115423 -0.0419845 0)
  (0.0132512 -0.0358463 0)
  (0.0323791 -0.0233779 0)
  (0.0619202 -0.00607231 0)
  (0.0906183 0.00899045 0)
  (0.108176 0.0141314 0)
  (0.123845 0.0494133 0)
  (-0.0917011 0.119938 0)
  (0.814934 0.441638 0)
  (-0.354719 0.155205 0)
  (0.000916917 0.0829352 0)
  (-0.0237033 0.101227 0)
  (-0.0348033 0.091775 0)
  (-0.0385235 0.0748539 0)
  (-0.0383214 0.0579155 0)
  (-0.0365327 0.0386887 0)
  (-0.0339685 0.0149468 0)
  (-0.0257281 -0.0143276 0)
  (-0.0199286 -0.0427789 0)
  (-0.0182561 -0.0642661 0)
  (-0.0200983 -0.0786716 0)
  (-0.0252059 -0.0866981 0)
  (-0.032933 -0.0885978 0)
  (-0.0416041 -0.0838464 0)
  (-0.0481929 -0.0722432 0)
  (-0.0500515 -0.0568664 0)
  (-0.0473295 -0.0430059 0)
  (-0.0428013 -0.0341956 0)
  (-0.0392524 -0.0302272 0)
  (-0.0378543 -0.029476 0)
  (-0.0383812 -0.0302122 0)
  (-0.0397464 -0.03094 0)
  (-0.040759 -0.031327 0)
  (-0.0411518 -0.032084 0)
  (-0.0413849 -0.0333519 0)
  (-0.0419861 -0.0352867 0)
  (-0.0433597 -0.0379577 0)
  (-0.0456753 -0.0412147 0)
  (-0.0487555 -0.044625 0)
  (-0.0521018 -0.0474842 0)
  (-0.0547385 -0.0487974 0)
  (-0.0548809 -0.0477408 0)
  (-0.0500781 -0.0448598 0)
  (-0.0384546 -0.0430322 0)
  (-0.0234195 -0.0458316 0)
  (0.0206336 -0.0433946 0)
  (0.100222 0.0254164 0)
  (-0.103108 0.177587 0)
  (0.915142 0.46571 0)
  (-0.158283 0.135082 0)
  (0.062722 0.0280969 0)
  (0.0828955 0.0558961 0)
  (0.0495192 0.0667888 0)
  (0.0325308 0.0533933 0)
  (0.0325465 0.0363892 0)
  (0.0382618 0.0184591 0)
  (0.0448057 -0.0053951 0)
  (0.0611224 -0.0289483 0)
  (0.0656804 -0.0485936 0)
  (0.0632816 -0.0635647 0)
  (0.0565649 -0.0735178 0)
  (0.0468239 -0.0785498 0)
  (0.0351379 -0.0788923 0)
  (0.0229003 -0.0746291 0)
  (0.0121109 -0.0659552 0)
  (0.00472494 -0.0545137 0)
  (0.00104524 -0.0433848 0)
  (-0.000637946 -0.0349072 0)
  (-0.00236327 -0.0297019 0)
  (-0.00532576 -0.0273048 0)
  (-0.00968331 -0.0268284 0)
  (-0.0148421 -0.027222 0)
  (-0.0200873 -0.0278879 0)
  (-0.0253655 -0.0286584 0)
  (-0.0310812 -0.0292911 0)
  (-0.0380414 -0.0299191 0)
  (-0.0471913 -0.0307627 0)
  (-0.0594333 -0.0319255 0)
  (-0.0753008 -0.0332164 0)
  (-0.094707 -0.0338688 0)
  (-0.116959 -0.032398 0)
  (-0.140525 -0.027062 0)
  (-0.163879 -0.0166727 0)
  (-0.18502 -0.000748054 0)
  (-0.198911 0.022747 0)
  (-0.202472 0.0626036 0)
  (-0.233787 0.127643 0)
  (-0.508025 0.218368 0)
  (1.04637 0.438351 0)
  (0.503683 0.297006 0)
  (0.489017 0.259191 0)
  (0.429477 0.208513 0)
  (0.341173 0.165362 0)
  (0.273685 0.11998 0)
  (0.234758 0.0779897 0)
  (0.213739 0.0428657 0)
  (0.203117 0.0127507 0)
  (0.187818 -0.0142189 0)
  (0.171766 -0.0355783 0)
  (0.155211 -0.0506368 0)
  (0.138098 -0.0598643 0)
  (0.120538 -0.0640805 0)
  (0.102975 -0.0640571 0)
  (0.0861508 -0.0604853 0)
  (0.0710551 -0.0541455 0)
  (0.0586674 -0.0461806 0)
  (0.0493074 -0.0380577 0)
  (0.0422741 -0.031019 0)
  (0.0363455 -0.0256995 0)
  (0.0304126 -0.022246 0)
  (0.0237738 -0.0205095 0)
  (0.01625 -0.0200907 0)
  (0.00815793 -0.0204489 0)
  (-0.00051595 -0.0209663 0)
  (-0.0094404 -0.0206564 0)
  (-0.0192638 -0.0191087 0)
  (-0.0312819 -0.0164028 0)
  (-0.0470321 -0.0130431 0)
  (-0.0676632 -0.00972778 0)
  (-0.0933 -0.00683732 0)
  (-0.125066 -0.00542867 0)
  (-0.161969 -0.00682826 0)
  (-0.202149 -0.0124652 0)
  (-0.242284 -0.0237442 0)
  (-0.275216 -0.0424965 0)
  (-0.29539 -0.0716803 0)
  (-0.331088 -0.111209 0)
  (-0.577664 -0.15408 0)
  (0.0685575 0.154773 0)
  (0.224342 0.201697 0)
  (0.261519 0.176872 0)
  (0.257041 0.134197 0)
  (0.256206 0.0917045 0)
  (0.257089 0.0549321 0)
  (0.25515 0.0250583 0)
  (0.247718 0.00157375 0)
  (0.234207 -0.0166591 0)
  (0.216882 -0.0298823 0)
  (0.197183 -0.0385076 0)
  (0.176357 -0.043058 0)
  (0.15556 -0.0441206 0)
  (0.135806 -0.0423353 0)
  (0.117941 -0.038433 0)
  (0.102564 -0.0332782 0)
  (0.0898636 -0.0277828 0)
  (0.0795294 -0.0226834 0)
  (0.0709043 -0.0184125 0)
  (0.0632349 -0.0151524 0)
  (0.0558181 -0.0129439 0)
  (0.0480822 -0.0117395 0)
  (0.0397276 -0.0113819 0)
  (0.0308159 -0.0115098 0)
  (0.0219037 -0.0112307 0)
  (0.0136277 -0.00959086 0)
  (0.0064678 -0.00601837 0)
  (0.000549839 -0.000514158 0)
  (-0.0033489 0.00658669 0)
  (-0.00876959 0.0143849 0)
  (-0.0149671 0.0227105 0)
  (-0.0218217 0.0306312 0)
  (-0.028838 0.0376074 0)
  (-0.0353717 0.0439397 0)
  (-0.0385509 0.049007 0)
  (-0.0204009 0.0412841 0)
  (0.101997 -0.0523132 0)
  (-0.192258 -0.210062 0)
  (0.00754696 0.263226 0)
  (0.0806397 0.209194 0)
  (0.123667 0.156038 0)
  (0.166828 0.111936 0)
  (0.204044 0.073393 0)
  (0.229613 0.0420321 0)
  (0.242483 0.0180686 0)
  (0.24476 0.000590096 0)
  (0.238988 -0.011608 0)
  (0.227353 -0.0197709 0)
  (0.211795 -0.0248047 0)
  (0.193946 -0.0273138 0)
  (0.175248 -0.0277859 0)
  (0.156937 -0.02667 0)
  (0.139986 -0.0244245 0)
  (0.125048 -0.0215425 0)
  (0.112395 -0.0185062 0)
  (0.101931 -0.0156776 0)
  (0.0932939 -0.0132314 0)
  (0.0860161 -0.0111783 0)
  (0.0796128 -0.00943463 0)
  (0.073604 -0.00788798 0)
  (0.0675126 -0.00644756 0)
  (0.0609563 -0.00506032 0)
  (0.0540268 -0.00357645 0)
  (0.0475386 -0.00171843 0)
  (0.0426335 0.000907835 0)
  (0.0405519 0.00465939 0)
  (0.0410199 0.00978516 0)
  (0.0444548 0.0161675 0)
  (0.0505805 0.0227291 0)
  (0.0587417 0.0280653 0)
  (0.0681794 0.030936 0)
  (0.0777968 0.0299038 0)
  (0.0873873 0.0204393 0)
  (0.0989921 -0.00712847 0)
  (0.138217 -0.0602017 0)
  (-0.182121 -0.139392 0)
  (-0.189941 -0.362565 0)
  (-0.437237 -0.0809278 0)
  (-0.291663 0.200612 0)
  (-0.165997 0.139069 0)
  (-0.0309647 0.102979 0)
  (0.0768006 0.0716772 0)
  (0.141789 0.0494163 0)
  (0.186619 0.0330059 0)
  (0.211813 0.0216758 0)
  (0.221322 0.01424 0)
  (0.220195 0.00930172 0)
  (0.212109 0.00590782 0)
  (0.199518 0.00373503 0)
  (0.184273 0.00263745 0)
  (0.167894 0.00251131 0)
  (0.151654 0.00323815 0)
  (0.136558 0.00465454 0)
  (0.123302 0.00653158 0)
  (0.112246 0.00858163 0)
  (0.103427 0.0104995 0)
  (0.0966486 0.012008 0)
  (0.0916061 0.0128781 0)
  (0.0879873 0.0129245 0)
  (0.0855237 0.0119876 0)
  (0.083986 0.00991097 0)
  (0.0831296 0.0065527 0)
  (0.0826564 0.00191623 0)
  (0.0823065 -0.00368755 0)
  (0.0821546 -0.00958757 0)
  (0.082661 -0.01457 0)
  (0.0848683 -0.0169601 0)
  (0.090251 -0.015721 0)
  (0.0999805 -0.0115149 0)
  (0.114075 -0.00636518 0)
  (0.131131 -0.00235858 0)
  (0.148204 -0.00142499 0)
  (0.161513 -0.0064363 0)
  (0.162196 -0.018015 0)
  (0.173554 -0.0396603 0)
  (-0.172397 -0.0828606 0)
)
;

boundaryField
{
  floor
  {
    type noSlip;
  }
  ceiling
  {
    type noSlip;
  }
  sWall
  {
    type noSlip;
  }
  nWall
  {
    type noSlip;
  }
  sideWalls
  {
    type empty;
  }
  glass1
  {
    type noSlip;
  }
  glass2
  {
    type noSlip;
  }
  sun
  {
    type noSlip;
  }
  heatsource1
  {
    type noSlip;
  }
  heatsource2
  {
    type noSlip;
  }
  Table_master
  {
    type noSlip;
  }
  Table_slave
  {
    type noSlip;
  }
  inlet
  {
    type fixedValue;
    value uniform (0.092388 -0.0382683 0);
  }
  outlet
  {
    type zeroGradient;
  }
} 	// ************************************************************************* //

