/*--------------------------------*- C++ -*----------------------------------*\
  =========                 |
  \\      /  F ield         | OpenFOAM: The Open Source CFD Toolbox
   \\    /   O peration     | Website:  https://openfoam.org
    \\  /    A nd           | Version:  6
     \\/     M anipulation  |
\*---------------------------------------------------------------------------*/
FoamFile
{
    version     2.0;
    format      ascii;
    class       volScalarField;
    location    "40";
    object      alphat;
}
// * * * * * * * * * * * * * * * * * * * * * * * * * * * * * * * * * * * * * //

dimensions      [1 -1 -1 0 0 0 0];

internalField   nonuniform List<scalar> 
459
(
0.00151389
0.00174266
0.00187554
0.0020487
0.00219129
0.00226449
0.00222798
0.00215381
0.00206307
0.00196539
0.00186256
0.00176662
0.00166997
0.00155962
0.00142999
0.000889294
0.0010175
0.000868332
0.000822848
0.00079783
0.000748863
0.000654136
0.000557407
0.000481698
0.000431449
0.00040323
0.000389859
0.000385021
0.000386659
0.000403156
0.000470808
0.00064674
0.000854581
0.000878507
0.00185077
0.00588218
0.00673185
0.00746537
0.00774577
0.00794151
0.00824873
0.00821407
0.0079149
0.00748083
0.00696759
0.00614979
0.00511793
0.00394396
0.00269273
0.00149819
0.00132215
0.00126366
0.00424979
0.003755
0.00410954
0.00418677
0.00369188
0.00236728
0.00172892
0.00135162
0.00113645
0.00102268
0.000965169
0.000938178
0.000935181
0.00100087
0.00135476
0.00202853
0.00298524
0.0011509
0.00214563
0.00855553
0.00892111
0.0087578
0.00804752
0.00800714
0.008709
0.00917115
0.00926474
0.00913752
0.00886926
0.00830196
0.00734214
0.00600199
0.00442811
0.00285278
0.00138657
0.00137799
0.00402917
0.00395787
0.00483085
0.00539303
0.0046197
0.000942747
0.000691582
0.000536124
0.000451362
0.000410984
0.000394686
0.000391672
0.000404216
0.000481876
0.00147843
0.0024959
0.0035382
0.00132024
0.00243609
0.0106196
0.0104145
0.00915722
0.00742165
0.00737143
0.00836292
0.00916493
0.00953107
0.00963903
0.00960374
0.00932101
0.00861815
0.00743123
0.00585476
0.00408082
0.00223585
0.00137246
0.00177885
0.00219852
0.0031294
0.00453347
0.00569567
0.00521751
0.00117626
0.00101337
0.000935719
0.000906761
0.000899859
0.000907976
0.000922624
0.000939318
0.000962878
0.00215884
0.00332399
0.00406557
0.00142715
0.00271823
0.0124085
0.0118154
0.009127
0.00681477
0.00701914
0.00829229
0.00934609
0.00987068
0.0101125
0.010229
0.0101072
0.00954797
0.00849866
0.00704302
0.00534148
0.00360375
0.00275772
0.00266384
0.00286322
0.00360357
0.00500237
0.0064715
0.00698671
0.0055999
0.00538514
0.0053978
0.00545627
0.00551215
0.00553499
0.00553975
0.00554063
0.00556479
0.00583329
0.00577332
0.00508187
0.00269307
0.00135657
0.00150725
0.00191752
0.00296658
0.0135421
0.0125756
0.00829347
0.00629593
0.00691467
0.00852353
0.00980161
0.0104368
0.0108106
0.0110843
0.0110011
0.0104247
0.00941643
0.00807252
0.00653421
0.00499297
0.0042097
0.00402143
0.00428187
0.00511618
0.0064418
0.00777744
0.00847885
0.00827912
0.00810689
0.00799445
0.00790693
0.00781158
0.0076808
0.00754725
0.00742491
0.00732849
0.00727605
0.0071124
0.00641029
0.00422712
0.00309366
0.00347641
0.00251409
0.00304561
0.01302
0.0106607
0.0067655
0.00570386
0.00699563
0.00899312
0.0104499
0.0111633
0.0117276
0.0120483
0.0117645
0.011092
0.0101063
0.00884467
0.00746901
0.0061394
0.00545799
0.00533341
0.005763
0.00669802
0.0078529
0.0088075
0.00923734
0.00916999
0.00896889
0.00876578
0.00857737
0.00836887
0.00812567
0.00790751
0.00772383
0.00758165
0.00748285
0.0073703
0.00690543
0.00522593
0.00459391
0.00614134
0.00326989
0.00299155
0.00905786
0.00673909
0.00482571
0.00518043
0.00734936
0.00969447
0.0112034
0.0118954
0.0121302
0.0120793
0.0116787
0.0110522
0.0102375
0.00925092
0.00816668
0.00708693
0.00662184
0.00670435
0.00721411
0.00792475
0.0085683
0.00893538
0.00897846
0.00882152
0.00863062
0.00847032
0.00833233
0.00816352
0.0079692
0.00781181
0.00769197
0.00760976
0.00756068
0.00751941
0.00731205
0.0060849
0.00535936
0.00940007
0.00434893
0.00285101
0.00306608
0.00288561
0.00308697
0.00514303
0.00827342
0.0106299
0.0119234
0.0118559
0.0114571
0.0109574
0.0105177
0.0100822
0.00959089
0.00902272
0.00841309
0.00787175
0.00763057
0.00768012
0.00788748
0.00811272
0.00826179
0.00830355
0.00827362
0.00823687
0.00823363
0.00826303
0.00829932
0.00828771
0.00823065
0.00818388
0.00815753
0.00815969
0.00819005
0.00823292
0.00820599
0.00754388
0.00689948
0.0114077
0.00475543
0.000761654
0.00330893
0.00733261
0.010396
0.0113664
0.0112927
0.0108208
0.0103534
0.0100093
0.00974473
0.00950743
0.0092617
0.00899484
0.00871955
0.00847498
0.00830961
0.00824856
0.0082737
0.00834885
0.00845053
0.00857481
0.00872742
0.00890788
0.00910423
0.00929838
0.0094659
0.00955619
0.00953943
0.00949887
0.00947284
0.00948136
0.00952855
0.00960082
0.00965776
0.00952953
0.00934302
0.0116196
0.0039855
0.00284245
0.00897948
0.0114312
0.0122453
0.0119898
0.0112811
0.0107383
0.0103668
0.0100741
0.00980582
0.00954778
0.00930667
0.00909823
0.00894305
0.00886018
0.00885538
0.00891282
0.00902638
0.00920028
0.00943941
0.00973758
0.010073
0.0104166
0.0107434
0.0110373
0.0112819
0.0114386
0.0114191
0.0113567
0.0113037
0.0112783
0.011266
0.0112127
0.0110348
0.0106093
0.00993932
0.0088356
0.00331201
0.00170598
0.00192879
0.00230313
0.00260586
0.00270858
0.00264095
0.00253863
0.00247378
0.00242105
0.00238099
0.00235087
0.00232929
0.00231584
0.00231098
0.00231552
0.00232999
0.002354
0.00238574
0.00242295
0.00246395
0.00250713
0.00255034
0.0025909
0.00262617
0.00265451
0.00267562
0.00268994
0.00269668
0.00269309
0.0026882
0.00268128
0.00267548
0.00267199
0.00266935
0.00266706
0.00267565
0.00273118
0.00286561
0.00296512
0.00270497
)
;

boundaryField
{
    floor
    {
        type            compressible::alphatWallFunction;
        Prt             0.85;
        value           nonuniform List<scalar> 
29
(
0.000202142
0.000127213
0.000145277
0.000124155
0.000117692
0.000114128
0.00010701
9.30461e-05
7.85403e-05
6.69813e-05
5.91907e-05
5.47697e-05
5.26638e-05
5.19014e-05
5.21652e-05
5.47815e-05
6.53593e-05
9.2005e-05
0.000122286
0.000125696
0.000125695
0.000164056
0.000187359
0.000201893
0.00020214
0.000127212
0.000179533
0.000195191
0.000194358
)
;
    }
    ceiling
    {
        type            compressible::alphatWallFunction;
        Prt             0.85;
        value           nonuniform List<scalar> 
43
(
0.000239122
0.000268462
0.000316954
0.000355554
0.000368552
0.000360018
0.000347049
0.0003388
0.000332072
0.000326947
0.000323087
0.000320316
0.000318588
0.000317963
0.000318545
0.000320407
0.000323497
0.000327576
0.000332354
0.000337606
0.000343122
0.000348626
0.000353774
0.000358237
0.00036181
0.000364466
0.000366262
0.000367103
0.000366642
0.000366025
0.000365149
0.000364414
0.000363973
0.000363643
0.000363362
0.000364456
0.00037146
0.000388358
0.000400809
0.000368147
0.000386371
0.000413239
0.000385295
)
;
    }
    sWall
    {
        type            compressible::alphatWallFunction;
        Prt             0.85;
        value           uniform 0.000238264;
    }
    nWall
    {
        type            compressible::alphatWallFunction;
        Prt             0.85;
        value           nonuniform List<scalar> 6(0.00026737 0.000344312 0.000439053 0.000526581 0.000444171 0.000368402);
    }
    sideWalls
    {
        type            empty;
    }
    glass1
    {
        type            compressible::alphatWallFunction;
        Prt             0.85;
        value           nonuniform List<scalar> 9(0.000210594 0.000255065 0.000293297 0.000330434 0.000366082 0.000397159 0.00040703 0.000400379 0.000382956);
    }
    glass2
    {
        type            compressible::alphatWallFunction;
        Prt             0.85;
        value           nonuniform List<scalar> 2(0.000576327 0.000625138);
    }
    sun
    {
        type            compressible::alphatWallFunction;
        Prt             0.85;
        value           nonuniform List<scalar> 
14
(
0.000213396
0.000243885
0.000261392
0.000284007
0.000302476
0.00031191
0.000307225
0.000297664
0.000285914
0.000273201
0.00025974
0.000247108
0.000234304
0.000219584
)
;
    }
    heatsource1
    {
        type            compressible::alphatWallFunction;
        Prt             0.85;
        value           nonuniform List<scalar> 3(0.000191764 0.000212174 0.00026655);
    }
    heatsource2
    {
        type            compressible::alphatWallFunction;
        Prt             0.85;
        value           nonuniform List<scalar> 4(0.000210931 0.000187089 0.000187087 0.000195853);
    }
    Table_master
    {
        type            compressible::alphatWallFunction;
        Prt             0.85;
        value           nonuniform List<scalar> 9(0.000134343 9.80496e-05 7.48318e-05 6.18457e-05 5.55608e-05 5.30051e-05 5.25351e-05 5.45214e-05 6.66377e-05);
    }
    Table_slave
    {
        type            compressible::alphatWallFunction;
        Prt             0.85;
        value           nonuniform List<scalar> 9(0.000167028 0.000144323 0.000133388 0.000129287 0.00012831 0.000129468 0.000131549 0.00013392 0.000137269);
    }
    inlet
    {
        type            fixedValue;
        value           uniform 1.94e-05;
    }
    outlet
    {
        type            zeroGradient;
    }
}


// ************************************************************************* //
