/*--------------------------------*- C++ -*----------------------------------*\
  =========                 |
  \\      /  F ield         | OpenFOAM: The Open Source CFD Toolbox
   \\    /   O peration     | Website:  https://openfoam.org
    \\  /    A nd           | Version:  6
     \\/     M anipulation  |
\*---------------------------------------------------------------------------*/
FoamFile
{
    version     2.0;
    format      ascii;
    class       volScalarField;
    location    "280";
    object      nut;
}
// * * * * * * * * * * * * * * * * * * * * * * * * * * * * * * * * * * * * * //

dimensions      [0 2 -1 0 0 0 0];

internalField   nonuniform List<scalar> 
459
(
0.00192399
0.00216085
0.00211552
0.00197729
0.00182656
0.00168987
0.00157127
0.0014654
0.0013689
0.00127923
0.00119407
0.00111092
0.00102642
0.000934353
0.000835409
0.000645018
0.000853943
0.000790937
0.000727627
0.000671832
0.000621249
0.000575766
0.000536417
0.000502268
0.000472515
0.000446445
0.000423469
0.000402952
0.000384079
0.000365918
0.000347328
0.00033051
0.00032271
0.000407895
0.00227077
0.00685517
0.00603799
0.00531938
0.00478269
0.00436968
0.00400239
0.00366989
0.00335738
0.00305179
0.00273867
0.00240282
0.00203249
0.00161918
0.00120752
0.00079824
0.000684192
0.000834268
0.00263481
0.00220582
0.00216242
0.00210113
0.00195698
0.00162992
0.00140283
0.00123842
0.00111336
0.00101502
0.000933608
0.000856475
0.000776502
0.000691701
0.000617813
0.000657987
0.000724906
0.000533987
0.00240578
0.00861752
0.00665249
0.00549009
0.00490381
0.00462022
0.00443188
0.00425122
0.00403774
0.00377353
0.00344887
0.0030594
0.00260959
0.0021154
0.00162441
0.00116548
0.000690302
0.000819851
0.0021665
0.00252257
0.00275346
0.00278446
0.00247084
0.000718958
0.000621687
0.000548096
0.000491063
0.000445935
0.000409778
0.000381474
0.000360433
0.000347199
0.000411613
0.000613341
0.000947867
0.000631584
0.0023951
0.00851957
0.00605068
0.00466787
0.00431018
0.00438435
0.00444941
0.0044208
0.004295
0.00407539
0.00376719
0.00337893
0.00292616
0.00243838
0.0019494
0.00148271
0.0010484
0.000731787
0.00167328
0.00239843
0.00301042
0.00333815
0.00339409
0.00295811
0.000790468
0.000705424
0.000635168
0.000574082
0.000518546
0.000465863
0.000413489
0.000358773
0.000300223
0.000483316
0.000605511
0.00120188
0.000747697
0.00235411
0.0072056
0.00501475
0.00405956
0.00425308
0.00446658
0.00453658
0.00452531
0.00442703
0.00424244
0.0039784
0.00364182
0.00324319
0.00283776
0.00244757
0.00213376
0.00198924
0.00254646
0.00332172
0.0039231
0.00421806
0.00427644
0.00419032
0.00392126
0.00302028
0.00252286
0.00212951
0.00178391
0.0014679
0.00117675
0.000911026
0.000708717
0.000690163
0.000962869
0.000862076
0.00124439
0.00110339
0.000798952
0.00087806
0.00120344
0.00226939
0.00575461
0.00403636
0.00393722
0.00454923
0.00475035
0.00476279
0.00472721
0.00464413
0.00451084
0.00433254
0.00411995
0.00388975
0.00367464
0.00349765
0.00350155
0.00377542
0.0045083
0.00491657
0.0050643
0.0050213
0.00486526
0.00466247
0.00437086
0.00382177
0.0032865
0.00278721
0.00231343
0.0018747
0.00153343
0.00132959
0.00131589
0.00152347
0.00182681
0.00186109
0.00186902
0.00141288
0.00134914
0.00193952
0.00163698
0.00214468
0.00456508
0.00346283
0.00399038
0.00473153
0.004976
0.004982
0.00494632
0.00488984
0.00481426
0.00472735
0.00464355
0.00458249
0.00456709
0.00462952
0.00481809
0.00515488
0.00549476
0.0055524
0.00541852
0.00517436
0.00488814
0.00456845
0.00419935
0.00377433
0.00333532
0.00290878
0.00251888
0.00220178
0.00201041
0.001986
0.00215651
0.00249422
0.00280584
0.00285263
0.00255765
0.00184558
0.00211104
0.00371785
0.00219519
0.00196905
0.00342813
0.00304171
0.00430225
0.00479303
0.00495801
0.00495477
0.0049476
0.00494316
0.00493512
0.00492671
0.00492922
0.00495946
0.00502043
0.00513044
0.00528449
0.00544557
0.00551115
0.00542343
0.00520753
0.00491245
0.00458562
0.00422661
0.00388207
0.00356134
0.00326607
0.00300874
0.00281291
0.00270923
0.00273034
0.00289921
0.00321698
0.00362421
0.00396118
0.00410019
0.00399189
0.00323548
0.00315522
0.00646094
0.00296615
0.00166347
0.00162479
0.00233818
0.00521903
0.00561258
0.00555834
0.00556659
0.00562922
0.00568981
0.00572782
0.0057405
0.00573668
0.00573469
0.00573176
0.00574063
0.00576263
0.00578183
0.00576237
0.00568173
0.00553726
0.00534177
0.00511237
0.00483899
0.00457006
0.00433084
0.0041315
0.00398385
0.0039049
0.00391516
0.00403427
0.00427267
0.00461721
0.00500588
0.00531159
0.00545845
0.0054815
0.00508713
0.00473141
0.00803051
0.00326246
0.00127229
0.00563097
0.00688674
0.00706058
0.00722505
0.00735849
0.00742337
0.00743266
0.0073906
0.00730976
0.00721776
0.00712727
0.00705041
0.00699519
0.00696544
0.00695362
0.00694147
0.0069096
0.0068403
0.00671915
0.00653111
0.006332
0.00615125
0.00600177
0.00589524
0.00584591
0.00587006
0.00598219
0.00618664
0.00646336
0.00674996
0.00692717
0.00699515
0.00703621
0.00701509
0.00683685
0.00813128
0.00270005
0.00265137
0.00818568
0.00882936
0.00889298
0.0090065
0.00912181
0.00912993
0.00907737
0.00899909
0.00889946
0.00878926
0.00867798
0.00857553
0.00849275
0.00844734
0.00845889
0.00849778
0.00852929
0.00852314
0.00843619
0.00828318
0.00812369
0.00797946
0.00785929
0.00777121
0.00772572
0.00773589
0.007815
0.00797003
0.00818798
0.00841373
0.00852695
0.00851404
0.00846401
0.00833274
0.00786641
0.00651711
0.00223934
0.00134282
0.00111074
0.00171315
0.00221172
0.00228202
0.00225267
0.0022223
0.00220383
0.00219305
0.00218063
0.00216504
0.00214679
0.00212682
0.00210593
0.00208503
0.0020656
0.00204967
0.00204306
0.0020417
0.00204029
0.00203557
0.00202869
0.00202074
0.00201218
0.00200438
0.00199807
0.00199388
0.0019926
0.00199505
0.00200188
0.00201287
0.00202563
0.00203405
0.00203568
0.00203371
0.00203145
0.00203781
0.0020775
0.00208542
0.00186266
)
;

boundaryField
{
    floor
    {
        type            nutkWallFunction;
        Cmu             0.09;
        kappa           0.41;
        E               9.8;
        value           nonuniform List<scalar> 
29
(
0.000101158
7.79562e-05
0.000103382
9.58005e-05
8.81109e-05
8.12682e-05
7.5006e-05
6.93225e-05
6.43616e-05
6.00202e-05
5.6208e-05
5.28431e-05
4.98574e-05
4.71739e-05
4.46903e-05
4.22857e-05
3.98087e-05
3.7553e-05
3.65014e-05
4.78202e-05
4.78201e-05
6.40506e-05
7.62871e-05
9.05542e-05
0.000101158
7.79562e-05
0.000101021
9.92879e-05
8.86191e-05
)
;
    }
    ceiling
    {
        type            nutkWallFunction;
        Cmu             0.09;
        kappa           0.41;
        E               9.8;
        value           nonuniform List<scalar> 
43
(
0.000160553
0.000133781
0.000202145
0.000256638
0.000264164
0.00026097
0.000257672
0.000255661
0.000254482
0.000253128
0.000251432
0.000249448
0.000247277
0.000245005
0.00024273
0.000240613
0.000238876
0.000238154
0.000238005
0.000237851
0.000237336
0.000236587
0.000235722
0.000234789
0.000233939
0.00023325
0.000232794
0.000232654
0.000232921
0.000233664
0.00023486
0.000236249
0.000237164
0.00023734
0.000237125
0.000236878
0.000237569
0.000241883
0.000242743
0.000218429
0.000196358
0.000192047
0.000303455
)
;
    }
    sWall
    {
        type            nutkWallFunction;
        Cmu             0.09;
        kappa           0.41;
        E               9.8;
        value           uniform 0.000160541;
    }
    nWall
    {
        type            nutkWallFunction;
        Cmu             0.09;
        kappa           0.41;
        E               9.8;
        value           nonuniform List<scalar> 6(0.000144399 0.000193463 0.000254611 0.000308495 0.00025938 0.000218426);
    }
    sideWalls
    {
        type            empty;
    }
    glass1
    {
        type            nutkWallFunction;
        Cmu             0.09;
        kappa           0.41;
        E               9.8;
        value           nonuniform List<scalar> 9(0.000224989 0.000262564 0.000277025 0.000275884 0.0002715 0.000262414 0.000248974 0.000229905 0.000196282);
    }
    glass2
    {
        type            nutkWallFunction;
        Cmu             0.09;
        kappa           0.41;
        E               9.8;
        value           nonuniform List<scalar> 2(0.000336294 0.000367123);
    }
    sun
    {
        type            nutkWallFunction;
        Cmu             0.09;
        kappa           0.41;
        E               9.8;
        value           nonuniform List<scalar> 
14
(
0.000225093
0.000250843
0.000245941
0.000230919
0.000214408
0.000199308
0.000186099
0.000174215
0.000163302
0.000153083
0.000143305
0.000133681
0.000123816
0.000112962
)
;
    }
    heatsource1
    {
        type            nutkWallFunction;
        Cmu             0.09;
        kappa           0.41;
        E               9.8;
        value           nonuniform List<scalar> 3(9.6767e-05 0.000106268 0.000144411);
    }
    heatsource2
    {
        type            nutkWallFunction;
        Cmu             0.09;
        kappa           0.41;
        E               9.8;
        value           nonuniform List<scalar> 4(9.66833e-05 8.27874e-05 8.27874e-05 8.35384e-05);
    }
    Table_master
    {
        type            nutkWallFunction;
        Cmu             0.09;
        kappa           0.41;
        E               9.8;
        value           nonuniform List<scalar> 9(8.70496e-05 7.5053e-05 6.58264e-05 5.85713e-05 5.27566e-05 4.80444e-05 4.43188e-05 4.15263e-05 3.97593e-05);
    }
    Table_slave
    {
        type            nutkWallFunction;
        Cmu             0.09;
        kappa           0.41;
        E               9.8;
        value           nonuniform List<scalar> 9(9.57448e-05 8.53921e-05 7.67271e-05 6.90988e-05 6.20772e-05 5.53299e-05 4.85266e-05 4.13011e-05 3.34083e-05);
    }
    inlet
    {
        type            calculated;
        value           uniform 6.7082e-05;
    }
    outlet
    {
        type            calculated;
        value           nonuniform List<scalar> 2(0.00134282 0.00111074);
    }
}


// ************************************************************************* //
