/*--------------------------------*- C++ -*----------------------------------*\
  =========                 |
  \\      /  F ield         | OpenFOAM: The Open Source CFD Toolbox
   \\    /   O peration     | Website:  https://openfoam.org
    \\  /    A nd           | Version:  6
     \\/     M anipulation  |
\*---------------------------------------------------------------------------*/
FoamFile
{
    version     2.0;
    format      ascii;
    class       volVectorField;
    location    "280";
    object      U;
}
// * * * * * * * * * * * * * * * * * * * * * * * * * * * * * * * * * * * * * //

dimensions      [0 1 -1 0 0 0 0];

internalField   nonuniform List<vector> 
459
(
(-0.122358 -0.120659 0)
(0.162554 -0.0541532 0)
(0.198488 -0.0376574 0)
(0.200974 -0.0267709 0)
(0.208952 -0.0167499 0)
(0.213212 -0.00980587 0)
(0.210091 -0.00516912 0)
(0.20245 -0.00180155 0)
(0.192511 0.000911485 0)
(0.180855 0.00331949 0)
(0.167178 0.00579302 0)
(0.150618 0.00889775 0)
(0.129347 0.0138102 0)
(0.0970642 0.0245584 0)
(0.0938545 0.0535053 0)
(-0.119983 -0.00130144 0)
(0.0439576 -0.0109688 0)
(0.0390768 -0.0130867 0)
(0.0466664 -0.0105878 0)
(0.057447 -0.00686235 0)
(0.0639675 -0.00394647 0)
(0.0661663 -0.00265738 0)
(0.0666601 -0.00211027 0)
(0.0670865 -0.0017391 0)
(0.0675833 -0.0014526 0)
(0.0679119 -0.00122354 0)
(0.0678997 -0.000961238 0)
(0.0673174 -0.000519567 0)
(0.0656831 0.000334655 0)
(0.0620711 0.00207408 0)
(0.0548417 0.00548476 0)
(0.0473769 0.00976797 0)
(-0.0314664 0.0210695 0)
(0.153487 -0.00816278 0)
(-0.300334 -0.160761 0)
(0.170371 -0.0549651 0)
(0.140861 -0.0453977 0)
(0.141282 -0.0251197 0)
(0.151067 -0.0062915 0)
(0.15478 0.00515799 0)
(0.151892 0.0112367 0)
(0.145959 0.0148232 0)
(0.138729 0.0173485 0)
(0.130564 0.0195937 0)
(0.121397 0.0222947 0)
(0.111112 0.026336 0)
(0.100003 0.0329745 0)
(0.0874125 0.0444719 0)
(0.0906814 0.0674252 0)
(0.0812899 0.0598288 0)
(0.0491245 0.0505628 0)
(-0.165405 -0.00545599 0)
(0.0485468 -0.0340451 0)
(0.0404745 -0.0285509 0)
(0.0475485 -0.019573 0)
(0.0556217 -0.010078 0)
(0.0589787 -0.00269084 0)
(0.0590501 -0.000901814 0)
(0.0586802 -0.000389201 0)
(0.0588633 7.21617e-05 0)
(0.0592045 0.000515018 0)
(0.0594667 0.000954622 0)
(0.0596535 0.00157733 0)
(0.0596929 0.00264237 0)
(0.0594406 0.00460867 0)
(0.0582238 0.00852621 0)
(0.0528167 0.0177237 0)
(0.0480265 0.0248316 0)
(-0.027193 0.0344222 0)
(0.207972 0.0178247 0)
(-0.429366 -0.205041 0)
(0.194666 -0.101075 0)
(0.0804842 -0.0794545 0)
(0.084242 -0.0400517 0)
(0.0934925 -0.0133806 0)
(0.0939286 0.00151758 0)
(0.0906669 0.0102579 0)
(0.0868793 0.015944 0)
(0.0830905 0.0200737 0)
(0.0791952 0.0236396 0)
(0.0751978 0.0275623 0)
(0.0712813 0.0327565 0)
(0.0679512 0.0401329 0)
(0.0644153 0.0503934 0)
(0.0665727 0.0651094 0)
(0.0597096 0.0615432 0)
(0.0447637 0.0740253 0)
(-0.0906728 -0.0299059 0)
(0.041586 -0.0485699 0)
(0.0513718 -0.0426046 0)
(0.054179 -0.0285449 0)
(0.057182 -0.0137074 0)
(0.0558427 -0.00103085 0)
(0.0500585 -0.00264461 0)
(0.0478811 -0.00293376 0)
(0.0473251 -0.0031393 0)
(0.0468769 -0.00327192 0)
(0.0464042 -0.00336312 0)
(0.0461825 -0.00328656 0)
(0.0467102 -0.00275745 0)
(0.048911 -0.00128609 0)
(0.0548629 0.0031993 0)
(0.0527327 0.0227413 0)
(0.0487484 0.0340671 0)
(-0.0258777 0.0431468 0)
(0.238898 0.0415735 0)
(-0.530689 -0.225451 0)
(0.216285 -0.134328 0)
(0.0113678 -0.0939881 0)
(0.0290182 -0.0368305 0)
(0.0346832 -0.00817356 0)
(0.0318331 0.00562129 0)
(0.0302392 0.0135384 0)
(0.0299579 0.0187315 0)
(0.0302101 0.0224977 0)
(0.030693 0.0257786 0)
(0.0315164 0.0293816 0)
(0.0329893 0.0340224 0)
(0.0355983 0.0402941 0)
(0.0389561 0.0485624 0)
(0.0472856 0.0602088 0)
(0.057624 0.0656386 0)
(0.0714502 0.0779315 0)
(0.0997914 -0.0652073 0)
(0.0929211 -0.0519483 0)
(0.0835019 -0.0519882 0)
(0.0710571 -0.0441732 0)
(0.0629401 -0.0295797 0)
(0.0601928 -0.0139638 0)
(0.061843 0.000746853 0)
(0.0643814 0.00211122 0)
(0.0620196 0.00100678 0)
(0.0578565 0.000557347 0)
(0.0531515 0.000527272 0)
(0.0476993 0.000750864 0)
(0.0410491 0.00122434 0)
(0.0328594 0.00208764 0)
(0.0228866 0.00380549 0)
(-0.00598057 0.00625893 0)
(0.0203065 0.0336148 0)
(0.0339666 0.0395685 0)
(-0.0283193 0.0441082 0)
(0.256524 0.074079 0)
(-0.587438 -0.224044 0)
(0.201551 -0.147724 0)
(-0.056395 -0.094609 0)
(-0.0140361 -0.0273428 0)
(-0.0161424 -0.0035301 0)
(-0.0191315 0.00675454 0)
(-0.0186982 0.0130181 0)
(-0.0168395 0.0174031 0)
(-0.0141697 0.0207114 0)
(-0.0108689 0.0235297 0)
(-0.0067952 0.0263945 0)
(-0.00155051 0.0298703 0)
(0.00565802 0.034584 0)
(0.0146067 0.0407105 0)
(0.0286638 0.0488648 0)
(0.0464152 0.0523857 0)
(0.0690039 0.0491907 0)
(0.0872713 0.00433479 0)
(0.0841187 -0.0194373 0)
(0.0701237 -0.030865 0)
(0.0570021 -0.0293184 0)
(0.0472259 -0.0200813 0)
(0.0413085 -0.00910875 0)
(0.0387025 8.60575e-05 0)
(0.0364515 0.00348745 0)
(0.0333719 0.00494355 0)
(0.0294456 0.00632854 0)
(0.0250279 0.00782761 0)
(0.0199403 0.00952113 0)
(0.0138675 0.0116012 0)
(0.00705123 0.0142151 0)
(0.000353139 0.0169002 0)
(-0.0110842 0.0150518 0)
(7.89218e-05 0.0166784 0)
(0.0243308 0.0267462 0)
(-0.00749436 0.0251335 0)
(0.126438 0.0670539 0)
(0.0877648 0.0646182 0)
(-0.0945927 0.0616681 0)
(0.331115 -0.019258 0)
(-0.627174 -0.204435 0)
(0.166004 -0.14377 0)
(-0.0854323 -0.0940358 0)
(-0.0429095 -0.0253459 0)
(-0.0490027 -0.00228277 0)
(-0.0524753 0.00666254 0)
(-0.0527306 0.0113172 0)
(-0.0510052 0.0144533 0)
(-0.0477933 0.0168002 0)
(-0.043335 0.0186689 0)
(-0.0376238 0.0203362 0)
(-0.0304221 0.0221233 0)
(-0.0212533 0.0243899 0)
(-0.00997007 0.0272762 0)
(0.00665995 0.0307481 0)
(0.0251069 0.0293459 0)
(0.0454091 0.0198179 0)
(0.0543705 -0.00416595 0)
(0.0518144 -0.0201371 0)
(0.0415557 -0.0243472 0)
(0.0301925 -0.0203439 0)
(0.0207163 -0.0123729 0)
(0.0142384 -0.00392749 0)
(0.0104429 0.00296112 0)
(0.00866605 0.00656985 0)
(0.00666241 0.00826881 0)
(0.00397611 0.00984353 0)
(0.000686148 0.0118275 0)
(-0.00320021 0.0143237 0)
(-0.0071768 0.0170624 0)
(-0.0103138 0.0194628 0)
(-0.0116744 0.0195813 0)
(-0.0130963 0.0133649 0)
(-0.00808859 0.00458726 0)
(0.003163 0.00427958 0)
(-0.0135251 -0.0079956 0)
(0.0362722 0.0323205 0)
(0.0359139 0.0597503 0)
(-0.129755 0.0725161 0)
(0.333307 -0.0400971 0)
(-0.669873 -0.167402 0)
(0.131509 -0.128148 0)
(-0.107014 -0.098484 0)
(-0.0616589 -0.0223313 0)
(-0.0693791 0.00100762 0)
(-0.0728253 0.00813614 0)
(-0.0741208 0.0106582 0)
(-0.0732534 0.0118549 0)
(-0.0704833 0.0125478 0)
(-0.0660707 0.0128967 0)
(-0.0601248 0.0129749 0)
(-0.052591 0.0129211 0)
(-0.0433151 0.0128771 0)
(-0.0321896 0.0128467 0)
(-0.0185117 0.0127546 0)
(-0.00331403 0.0107247 0)
(0.0114994 0.00483957 0)
(0.0163175 -0.00572118 0)
(0.0146321 -0.0133433 0)
(0.00753283 -0.0145647 0)
(-0.000978711 -0.0107715 0)
(-0.0077892 -0.00501723 0)
(-0.0121411 0.000471355 0)
(-0.0139106 0.00477186 0)
(-0.0144823 0.00767537 0)
(-0.0152126 0.00982099 0)
(-0.0163815 0.0119459 0)
(-0.0178239 0.0142754 0)
(-0.019219 0.0166807 0)
(-0.0200275 0.0187209 0)
(-0.0195498 0.0195388 0)
(-0.0175465 0.0174322 0)
(-0.0153883 0.0105519 0)
(-0.0128486 0.00256838 0)
(-0.0109343 -0.000790461 0)
(-0.016197 -0.00090803 0)
(-1.20042e-05 0.0275828 0)
(0.00925344 0.0746648 0)
(-0.172295 0.0839033 0)
(0.418333 -0.0479548 0)
(-0.716149 -0.0969027 0)
(0.0919603 -0.0945421 0)
(-0.135512 -0.12164 0)
(-0.0738579 -0.0323945 0)
(-0.0803527 0.00267292 0)
(-0.0819791 0.010719 0)
(-0.083693 0.0114144 0)
(-0.0835296 0.0105228 0)
(-0.0814731 0.00938046 0)
(-0.0778524 0.0081343 0)
(-0.0728482 0.00672619 0)
(-0.0665296 0.00522033 0)
(-0.0589948 0.00371441 0)
(-0.0503619 0.00233918 0)
(-0.0407488 0.00124058 0)
(-0.0309051 2.94259e-05 0)
(-0.0224225 -0.00185923 0)
(-0.0180466 -0.00532231 0)
(-0.0182114 -0.00788717 0)
(-0.021661 -0.00731517 0)
(-0.0257351 -0.00446114 0)
(-0.0288151 -0.000872692 0)
(-0.0304695 0.00253969 0)
(-0.0306968 0.00549955 0)
(-0.0303577 0.00811126 0)
(-0.0299231 0.0105241 0)
(-0.0294984 0.0128653 0)
(-0.0289344 0.0151079 0)
(-0.0279636 0.0170216 0)
(-0.0262535 0.0181394 0)
(-0.0235113 0.0177251 0)
(-0.0198907 0.0147769 0)
(-0.0163672 0.00890197 0)
(-0.0133698 0.0025137 0)
(-0.0107968 -0.00134542 0)
(-0.00819802 -0.000495435 0)
(0.00650789 0.0210271 0)
(0.0367775 0.069548 0)
(-0.133587 0.0647158 0)
(0.70823 -0.00219295 0)
(-0.779171 0.0760843 0)
(0.0283466 -0.0553724 0)
(-0.183327 -0.159036 0)
(-0.0603266 -0.0508398 0)
(-0.0728692 0.00807642 0)
(-0.0766163 0.0176845 0)
(-0.0782764 0.0160167 0)
(-0.0776556 0.0130306 0)
(-0.0756284 0.0103419 0)
(-0.0727282 0.00789989 0)
(-0.0690408 0.00548012 0)
(-0.0645277 0.00305674 0)
(-0.0596277 0.000831461 0)
(-0.054474 -0.000993523 0)
(-0.0491733 -0.00220411 0)
(-0.0440198 -0.00283259 0)
(-0.0396394 -0.00318296 0)
(-0.0370298 -0.00360678 0)
(-0.0365617 -0.00330929 0)
(-0.0374709 -0.00166798 0)
(-0.0385597 0.000870024 0)
(-0.0392364 0.00364659 0)
(-0.039299 0.0061423 0)
(-0.0387711 0.00844856 0)
(-0.0378105 0.010717 0)
(-0.0365215 0.012925 0)
(-0.0349205 0.0149946 0)
(-0.0329423 0.0167854 0)
(-0.0304869 0.018046 0)
(-0.027466 0.0183757 0)
(-0.0238883 0.0172305 0)
(-0.0200576 0.0140556 0)
(-0.0166275 0.0088356 0)
(-0.0138417 0.00272815 0)
(-0.0112006 -0.00242356 0)
(-0.00672805 -0.0037812 0)
(0.00932428 0.00872773 0)
(0.0402404 0.0402855 0)
(-0.0955711 0.0325072 0)
(0.69896 0.0397157 0)
(-0.20855 -0.0981413 0)
(-0.0143944 -0.030482 0)
(-0.042425 0.0217662 0)
(-0.0587983 0.0222901 0)
(-0.0580017 0.0155629 0)
(-0.0544672 0.00959641 0)
(-0.0511017 0.00493877 0)
(-0.0481772 0.000810664 0)
(-0.0454627 -0.00358368 0)
(-0.0434417 -0.00730671 0)
(-0.0419029 -0.0103497 0)
(-0.0407914 -0.0126831 0)
(-0.0399887 -0.0140655 0)
(-0.0393918 -0.0143338 0)
(-0.0390776 -0.0135411 0)
(-0.0392863 -0.0117779 0)
(-0.040099 -0.00895353 0)
(-0.0411221 -0.00530357 0)
(-0.0417881 -0.00140015 0)
(-0.0419051 0.00231727 0)
(-0.04154 0.0049279 0)
(-0.0407603 0.00692986 0)
(-0.039521 0.00868588 0)
(-0.0377838 0.0102172 0)
(-0.0355252 0.0114486 0)
(-0.0327424 0.0122527 0)
(-0.0294732 0.0124357 0)
(-0.0258317 0.0117161 0)
(-0.022064 0.00973432 0)
(-0.018618 0.00614997 0)
(-0.0161322 0.000882654 0)
(-0.0153432 -0.00602224 0)
(-0.0164484 -0.0124307 0)
(-0.0173415 -0.0151012 0)
(-0.0134617 -0.00643108 0)
(-0.0111093 0.0147194 0)
(-0.140485 0.0141424 0)
(0.411594 0.069609 0)
(-0.256943 -0.183702 0)
(-0.0392731 -0.135084 0)
(-0.0459176 -0.107842 0)
(-0.0397289 -0.102463 0)
(-0.02882 -0.104145 0)
(-0.0212203 -0.105774 0)
(-0.0166509 -0.104589 0)
(-0.0138615 -0.102803 0)
(-0.0126847 -0.100952 0)
(-0.0129622 -0.099352 0)
(-0.0144834 -0.0980228 0)
(-0.0169555 -0.0968429 0)
(-0.0199853 -0.0956674 0)
(-0.023016 -0.0944434 0)
(-0.0258709 -0.0937894 0)
(-0.0287293 -0.0942912 0)
(-0.0317408 -0.095282 0)
(-0.0346437 -0.0964707 0)
(-0.0370331 -0.097687 0)
(-0.0385303 -0.0976585 0)
(-0.0391525 -0.0962563 0)
(-0.0391096 -0.0947868 0)
(-0.0384403 -0.0933428 0)
(-0.0371311 -0.0918296 0)
(-0.0351633 -0.0902359 0)
(-0.0325515 -0.0886568 0)
(-0.0293755 -0.0873193 0)
(-0.0258263 -0.0866136 0)
(-0.0222773 -0.0870683 0)
(-0.0193421 -0.0891229 0)
(-0.0177569 -0.0923899 0)
(-0.0184871 -0.0940059 0)
(-0.0220324 -0.0943325 0)
(-0.0266158 -0.0957356 0)
(-0.0308699 -0.0938756 0)
(-0.0478048 -0.0773425 0)
(-0.113902 -0.0634852 0)
(0.331743 -0.0392431 0)
(-1.03402 -0.0654374 0)
(0.283323 0.172748 0)
(0.0266521 0.621575 0)
(0.0413174 0.511725 0)
(0.0622068 0.437159 0)
(0.0680344 0.41036 0)
(0.06633 0.400927 0)
(0.0623843 0.39567 0)
(0.0575562 0.388548 0)
(0.0523633 0.381906 0)
(0.0465106 0.376285 0)
(0.0399599 0.371687 0)
(0.0327133 0.367921 0)
(0.0247854 0.364797 0)
(0.0162511 0.362303 0)
(0.00744348 0.360438 0)
(-0.00204274 0.358287 0)
(-0.0106382 0.356936 0)
(-0.0179253 0.356901 0)
(-0.0238455 0.358279 0)
(-0.028342 0.360745 0)
(-0.0315451 0.361947 0)
(-0.033478 0.361664 0)
(-0.0342558 0.361818 0)
(-0.0340512 0.362258 0)
(-0.0329645 0.362718 0)
(-0.0311208 0.363023 0)
(-0.0286971 0.363048 0)
(-0.0259469 0.362723 0)
(-0.0232211 0.36208 0)
(-0.0209856 0.36131 0)
(-0.0199021 0.36074 0)
(-0.0209553 0.360262 0)
(-0.0245335 0.356041 0)
(-0.0286953 0.349354 0)
(-0.0301632 0.346122 0)
(-0.0351888 0.345822 0)
(-0.0728718 0.337 0)
(-0.155029 0.342657 0)
(0.453392 0.390946 0)
)
;

boundaryField
{
    floor
    {
        type            noSlip;
    }
    ceiling
    {
        type            noSlip;
    }
    sWall
    {
        type            noSlip;
    }
    nWall
    {
        type            noSlip;
    }
    sideWalls
    {
        type            empty;
    }
    glass1
    {
        type            noSlip;
    }
    glass2
    {
        type            noSlip;
    }
    sun
    {
        type            noSlip;
    }
    heatsource1
    {
        type            noSlip;
    }
    heatsource2
    {
        type            noSlip;
    }
    Table_master
    {
        type            noSlip;
    }
    Table_slave
    {
        type            noSlip;
    }
    inlet
    {
        type            fixedValue;
        value           uniform (0.2 0 0);
    }
    outlet
    {
        type            zeroGradient;
    }
}


// ************************************************************************* //
