/*--------------------------------*- C++ -*----------------------------------*\
  =========                 |
  \\      /  F ield         | OpenFOAM: The Open Source CFD Toolbox
   \\    /   O peration     | Website:  https://openfoam.org
    \\  /    A nd           | Version:  6
     \\/     M anipulation  |
\*---------------------------------------------------------------------------*/
FoamFile
{
    version     2.0;
    format      ascii;
    class       surfaceScalarField;
    location    "700";
    object      phi;
}
// * * * * * * * * * * * * * * * * * * * * * * * * * * * * * * * * * * * * * //

dimensions      [1 0 -1 0 0 0 0];

internalField   nonuniform List<scalar> 
852
(
0.00341967
-0.00339581
0.00703672
-0.00361703
0.00903779
-0.00200105
0.0100668
-0.00102895
0.0106521
-0.000585348
0.0109442
-0.000292071
0.0109778
-3.35583e-05
0.0107828
0.000194969
0.0103758
0.000407069
0.00975574
0.000620045
0.00890284
0.000852912
0.00776957
0.00113327
0.00624541
0.00152417
0.00400921
0.0022362
0.00400699
4.98964e-05
-4.96444e-05
-4.59093e-05
9.58944e-05
-0.000118621
7.27814e-05
-0.000164112
4.55531e-05
-0.000193638
2.95779e-05
-0.000218167
2.45737e-05
-0.000220421
2.31091e-06
-8.72935e-05
-0.000133038
0.000115075
-0.000202244
0.000236488
-0.000121304
0.000296069
-5.94914e-05
0.000325049
-2.8903e-05
0.000353359
-2.82372e-05
0.000392061
-3.86259e-05
0.000409118
-1.69763e-05
0.000309048
0.000100144
0.000174693
0.000134427
-1.48866e-05
0.000189657
-1.44119e-05
0.0043327
-0.00766114
0.0064741
-0.0057584
0.00760107
-0.003128
0.00828618
-0.00171405
0.00871408
-0.00101323
0.00893868
-0.000516656
0.00897706
-7.19297e-05
0.00882849
0.000343544
0.00849562
0.000739955
0.0079751
0.00114057
0.00726208
0.00156593
0.00636
0.00203536
0.00531137
0.0025728
0.00436461
0.00318296
0.00457315
0.00379844
0.00168335
0.00288974
0.00168329
-1.50495e-05
-3.6121e-05
1.41405e-05
6.67742e-05
7.45224e-06
7.95384e-05
-3.10812e-05
8.41443e-05
-0.000105773
0.00010432
-0.000216711
0.000135551
-0.000196291
-1.80743e-05
-1.93382e-05
-0.000309889
8.12652e-05
-0.000302736
0.000129891
-0.000169815
0.000163887
-9.33834e-05
0.000179763
-4.46871e-05
0.00016287
-1.12631e-05
0.000106842
1.74854e-05
2.98568e-05
6.00908e-05
-2.27789e-05
0.000152855
-2.21006e-05
0.00013381
-1.98855e-05
0.000187483
-3.5928e-05
0.00320443
-0.0107569
0.00451101
-0.00706496
0.00513419
-0.00375116
0.00557088
-0.00215073
0.00588509
-0.00132743
0.0060805
-0.00071206
0.00617239
-0.000163817
0.00614868
0.000367248
0.00598831
0.00090033
0.00567623
0.00145265
0.00521012
0.00203203
0.00460773
0.00263774
0.00392238
0.00325815
0.0032403
0.00386504
0.00257736
0.00446137
0.00136048
0.00410662
0.00304376
-0.000182015
0.000140888
-7.05745e-05
-4.45893e-05
3.1546e-05
-2.24941e-05
0.000111786
3.9918e-06
0.000185501
3.0679e-05
0.000289191
3.19301e-05
0.000271368
-3.82417e-05
-0.000340738
-0.000510286
-0.000603399
-0.000647829
-0.00065886
-0.000641173
-0.000580904
-0.000323503
-0.000104534
-0.000132819
-5.68538e-05
3.34628e-05
2.12327e-05
-7.56519e-06
0.0018957
-0.0125038
0.00257748
-0.00774672
0.00293196
-0.00410563
0.003094
-0.00231277
0.00325017
-0.0014836
0.00339475
-0.000856653
0.00351859
-0.000287667
0.00358554
0.000300279
0.00355746
0.000928397
0.00341005
0.00160005
0.00313554
0.00230653
0.00273937
0.0030339
0.00223543
0.00376207
0.0016348
0.00446566
0.000981954
0.0051142
0.00026454
0.00482403
-0.000308438
0.00361681
-0.000650854
0.000332558
-0.00055509
4.51967e-05
-0.000581804
-1.78022e-05
-0.000636455
3.22308e-05
-0.00072102
8.86363e-05
-0.000828137
0.000137874
-0.000955275
0.000159142
-0.00109182
0.00013648
-0.0011599
6.80092e-05
-0.00118246
2.24876e-05
-0.00117223
-1.03012e-05
-0.00113433
-3.79846e-05
-0.00106926
-6.51507e-05
-0.000973394
-9.59635e-05
-0.00083899
-0.000134505
-0.000652237
-0.000186861
-0.000479641
-0.000277093
-0.000215368
-0.000321093
0.000182492
-0.000376593
0.000164072
0.000813288
-0.0131288
0.00110132
-0.00803473
0.00120244
-0.00420675
0.000967875
-0.00207821
0.000997152
-0.0015129
0.00113467
-0.00099419
0.00128853
-0.000441557
0.00139893
0.000189856
0.00143242
0.000894885
0.00137347
0.00165898
0.00121395
0.00246603
0.000949033
0.0032988
0.000576564
0.00413453
0.000117755
0.00492446
-0.000300669
0.00553262
-0.000629354
0.00515273
-0.000635622
0.0036232
-0.000955798
0.000652827
-0.00105227
0.000141746
-0.00112256
5.25647e-05
-0.00116107
7.08198e-05
-0.00117662
0.000104256
-0.00117308
0.000134405
-0.00115608
0.000142217
-0.00113193
0.0001124
-0.00112045
5.66019e-05
-0.00110292
5.02318e-06
-0.00107466
-3.84905e-05
-0.0010357
-7.68822e-05
-0.000986097
-0.000114695
-0.000925707
-0.000156297
-0.000854821
-0.00020534
-0.000777206
-0.00026443
-0.000729098
-0.00032516
-0.000693034
-0.000357123
-0.000790033
-0.00027957
-0.000622723
-3.22053e-06
-0.000755898
0.000133008
-0.000641178
-0.000114887
-0.000642685
-4.09004e-05
-0.0128608
-3.46789e-05
-0.00804093
-0.000296533
-0.00394489
-0.000824656
-0.0015501
-0.000853995
-0.00148358
-0.000733764
-0.00111444
-0.000600173
-0.000575177
-0.000505901
9.55559e-05
-0.000459967
0.000848925
-0.000466816
0.0016658
-0.000537407
0.0025366
-0.000678626
0.00344
-0.000884982
0.00434087
-0.00111305
0.00515251
-0.00122743
0.00564701
-0.00121362
0.00513897
-0.000977517
0.00338724
-0.00115984
0.000835241
-0.00126099
0.000242967
-0.00130715
9.88023e-05
-0.00130223
6.59761e-05
-0.00125991
6.20102e-05
-0.00119194
6.65058e-05
-0.00111306
6.34066e-05
-0.0010407
4.01117e-05
-0.000984607
5.70757e-07
-0.000938887
-4.06347e-05
-0.000898632
-7.86837e-05
-0.000860972
-0.000114483
-0.000825459
-0.000150151
-0.00079404
-0.000187661
-0.000771608
-0.000227722
-0.000768209
-0.000267781
-0.000797284
-0.000296042
-0.000866984
-0.000287383
-0.00094416
-0.000202358
-0.000872445
-7.49027e-05
-0.000662075
-7.73299e-05
-0.000434639
-0.000342292
-0.0010789
-0.000855455
-0.0117412
-0.00142381
-0.00747256
-0.00199069
-0.00337802
-0.00262987
-0.000910931
-0.00267637
-0.0014371
-0.00255681
-0.00123402
-0.00241064
-0.000721374
-0.00228467
-3.04406e-05
-0.00218972
0.000753947
-0.00211763
0.00159369
-0.00206824
0.00248718
-0.00204007
0.00341182
-0.00202026
0.00432104
-0.00196661
0.00509886
-0.00178905
0.00546948
-0.00149322
0.00484323
-0.00111726
0.00301142
-0.00117148
0.000889548
-0.00121761
0.000289172
-0.00121193
9.3196e-05
-0.00115705
1.11751e-05
-0.00106928
-2.56876e-05
-0.000966551
-3.61585e-05
-0.000863401
-3.96786e-05
-0.000772895
-5.0331e-05
-0.000702057
-7.02057e-05
-0.000647948
-9.4684e-05
-0.000605475
-0.000121099
-0.000571568
-0.000148334
-0.000545271
-0.000176393
-0.000527518
-0.000205362
-0.000521002
-0.000234189
-0.000529735
-0.000259
-0.000555532
-0.000270201
-0.000591774
-0.000251101
-0.000603661
-0.000190434
-0.000550028
-0.0001285
-0.00043717
-0.000190155
-0.000247164
-0.000532267
-0.00132784
-0.00305863
-0.00838439
-0.00471406
-0.00581709
-0.00479821
-0.00329385
-0.00499812
-0.000711028
-0.00462358
-0.00181166
-0.00428368
-0.00157395
-0.00403818
-0.000966886
-0.00383918
-0.000229465
-0.00366255
0.000577297
-0.00348593
0.00141705
-0.00328462
0.00228584
-0.00304608
0.00317327
-0.00275741
0.00403238
-0.00239817
0.00473964
-0.00194246
0.00501381
-0.00143669
0.00433755
-0.00098453
0.00255939
-0.000934172
0.000839271
-0.000907086
0.000262158
-0.00082994
1.61202e-05
-0.000716665
-0.000102031
-0.000599534
-0.000142752
-0.000492583
-0.000143044
-0.000399862
-0.000132337
-0.000323813
-0.000126319
-0.000264736
-0.000129225
-0.000220132
-0.000139232
-0.000187271
-0.000153905
-0.000164087
-0.000171463
-0.00014946
-0.000190969
-0.000143085
-0.000211687
-0.000145126
-0.000232099
-0.000155486
-0.000248594
-0.000171838
-0.000253805
-0.000186282
-0.000236616
-0.000185355
-0.000191322
-0.000170336
-0.000143483
-0.000170852
-0.000189605
-0.000158226
-0.000544862
-0.00149475
-0.00808098
-0.0139173
-0.00957563
-0.00763548
-0.00686335
-0.00342329
-0.00590355
-0.00277146
-0.00541374
-0.00206376
-0.00514182
-0.00123882
-0.00495155
-0.00041975
-0.00475075
0.00037648
-0.00447577
0.00114206
-0.00411111
0.00192117
-0.00364381
0.00270597
-0.00306856
0.00345714
-0.00239618
0.00406728
-0.00167434
0.00429203
-0.000999987
0.0036633
-0.000452233
0.00201176
-0.000326946
0.000714059
-0.000242892
0.00017817
-0.000116474
-0.000110235
6.47645e-06
-0.000224918
0.0001008
-0.000237012
0.000169967
-0.00021215
0.000222807
-0.000185119
0.000263743
-0.000167198
0.000294286
-0.000159713
0.000315256
-0.000160149
0.000327211
-0.00016581
0.000330731
-0.000174932
0.00032646
-0.000186649
0.000315213
-0.000200392
0.000298216
-0.000215055
0.000277609
-0.000227941
0.000257295
-0.000233448
0.000243092
-0.000222373
0.000236863
-0.000185054
0.000216965
-0.000123548
0.000109658
-8.22641e-05
-0.000160921
-0.000274252
-0.00166556
-0.00748091
0.000520741
-0.00617268
-0.00473147
-0.0058125
-0.00313163
-0.00577138
-0.00210489
-0.00572856
-0.00128163
-0.00559892
-0.000549395
-0.00535895
0.000136506
-0.00501965
0.00080276
-0.00452299
0.0014245
-0.00384836
0.00203135
-0.00299971
0.0026085
-0.00200906
0.00307667
-0.00100738
0.00329041
-3.23866e-05
0.0026884
0.000598858
0.0013806
0.000789603
0.000523381
0.000886442
8.13913e-05
0.000944573
-0.000168309
0.000956381
-0.000236668
0.000946019
-0.000226593
0.000933452
-0.000199527
0.000924423
-0.000176036
0.000917849
-0.000160572
0.000910248
-0.000152061
0.000898454
-0.000148306
0.000880487
-0.000147796
0.000855539
-0.000149938
0.000823648
-0.000154713
0.000785477
-0.000162176
0.000742402
-0.000171936
0.000697017
-0.000182513
0.000654021
-0.00019041
0.000620639
-0.000188949
0.000603003
-0.00016738
0.000590712
-0.000111221
0.000523296
-1.48137e-05
0.000273923
-2.48474e-05
-0.00139368
-0.000661273
0.00115004
-0.00303911
-0.00235354
-0.00426904
-0.00190167
-0.00523359
-0.00114033
-0.00584265
-0.000672568
-0.00607802
-0.000314013
-0.00594726
5.74357e-06
-0.00554144
0.000396954
-0.00488619
0.000769254
-0.00398002
0.00112521
-0.00283969
0.00146819
-0.00148465
0.00172166
4.78534e-05
0.00175796
0.00140038
0.00133594
0.0020408
0.000740238
0.00224231
0.000321922
0.00223209
9.16653e-05
0.00207963
-1.5793e-05
0.0019128
-6.97914e-05
0.00178515
-9.8886e-05
0.00169649
-0.000110818
0.00163301
-0.000112504
0.0015804
-0.000107913
0.00152845
-0.000100059
0.00147186
-9.1679e-05
0.00140903
-8.49127e-05
0.00134016
-8.10257e-05
0.00126602
-8.05345e-05
0.00118743
-8.35479e-05
0.0011056
-9.00627e-05
0.00102321
-0.000100079
0.00094636
-0.000113517
0.00088741
-0.000129958
0.000868739
-0.000148671
0.000929577
-0.000172023
0.00113133
-0.000216532
0.00138781
-0.000281293
-7.81181e-06
0.000974543
0.000328738
0.00140354
-0.00102915
-0.00300589
-0.00422374
-0.00497619
-0.00537209
-0.00544947
-0.00513589
-0.00445048
-0.00340937
-0.00202518
-0.000387119
0.00128896
0.00254663
0.00321269
0.00346428
0.00348923
0.00341016
0.00328011
0.00312296
0.00295494
0.0027857
0.0026212
0.00246463
0.00231655
0.00217541
0.00203841
0.0019022
0.00176327
0.00161811
0.00146319
0.00129503
0.00111053
0.000907268
0.000680384
0.000408381
7.06328e-05
)
;

boundaryField
{
    floor
    {
        type            calculated;
        value           nonuniform List<scalar> 
29
(
0
0
0
0
0
0
0
0
0
0
0
0
0
0
0
0
0
0
0
0
-3.94344e-07
1.66754e-06
5.12277e-06
1.08904e-05
2.22731e-06
-1.59479e-07
1.58631e-06
5.08731e-06
9.96448e-06
)
;
    }
    ceiling
    {
        type            calculated;
        value           nonuniform List<scalar> 
43
(
0.000241128
0.000232511
7.55264e-05
7.93583e-05
7.50926e-05
7.75471e-05
7.98916e-05
8.19029e-05
8.31312e-05
8.33852e-05
8.38608e-05
8.41074e-05
8.40267e-05
8.36151e-05
8.1937e-05
7.83189e-05
7.42212e-05
7.03749e-05
6.67571e-05
6.33203e-05
6.03056e-05
5.83162e-05
5.72466e-05
5.67832e-05
5.66258e-05
5.65559e-05
5.64497e-05
5.62647e-05
5.60106e-05
5.57184e-05
5.54186e-05
5.51341e-05
5.48828e-05
5.46867e-05
5.45813e-05
5.46239e-05
5.4897e-05
5.55042e-05
5.6485e-05
6.15828e-05
2.29433e-05
1.92533e-05
3.20731e-05
)
;
    }
    sWall
    {
        type            calculated;
        value           uniform 0.00010741;
    }
    nWall
    {
        type            calculated;
        value           nonuniform List<scalar> 6(1.33782e-06 1.60185e-06 1.80368e-06 2.07101e-06 1.96736e-06 1.265e-06);
    }
    sideWalls
    {
        type            empty;
        value           nonuniform 0();
    }
    glass1
    {
        type            calculated;
        value           nonuniform List<scalar> 9(-2.38445e-05 -6.73482e-05 -0.000108598 -0.000148796 -0.0001883 -0.000227045 -0.000264157 -0.000298119 -0.000326324);
    }
    glass2
    {
        type            calculated;
        value           nonuniform List<scalar> 2(8.71436e-06 9.91979e-06);
    }
    sun
    {
        type            calculated;
        value           uniform 0;
    }
    heatsource1
    {
        type            calculated;
        value           nonuniform List<scalar> 3(1.99189e-07 1.99167e-07 1.9923e-07);
    }
    heatsource2
    {
        type            calculated;
        value           nonuniform List<scalar> 4(4.89328e-08 4.92614e-08 0 0);
    }
    Table_master
    {
        type            calculated;
        value           nonuniform List<scalar> 9(-1.51257e-07 -1.514e-07 -1.51406e-07 -1.51269e-07 -1.51156e-07 -1.51061e-07 -1.5098e-07 -1.50903e-07 -1.50806e-07);
    }
    Table_slave
    {
        type            calculated;
        value           nonuniform List<scalar> 9(1.49575e-07 1.49538e-07 1.4952e-07 1.49514e-07 1.49516e-07 1.49533e-07 1.49566e-07 1.49619e-07 1.49686e-07);
    }
    inlet
    {
        type            calculated;
        value           uniform -0.00067525;
    }
    outlet
    {
        type            calculated;
        value           nonuniform List<scalar> 2(-0.00132284 0.000413502);
    }
}


// ************************************************************************* //
