/*--------------------------------*- C++ -*----------------------------------*\
  =========                 |
  \\      /  F ield         | OpenFOAM: The Open Source CFD Toolbox
   \\    /   O peration     | Website:  https://openfoam.org
    \\  /    A nd           | Version:  6
     \\/     M anipulation  |
\*---------------------------------------------------------------------------*/
FoamFile
{
    version     2.0;
    format      ascii;
    class       volScalarField;
    location    "700";
    object      nut;
}
// * * * * * * * * * * * * * * * * * * * * * * * * * * * * * * * * * * * * * //

dimensions      [0 2 -1 0 0 0 0];

internalField   nonuniform List<scalar> 
459
(
0.00108051
0.00118066
0.00120267
0.00126053
0.00131411
0.00136426
0.00141343
0.00146142
0.00149521
0.00150934
0.00149875
0.00146035
0.00139401
0.0013053
0.00120798
0.000474523
0.000580411
0.000652689
0.000648226
0.00062561
0.000596057
0.000559188
0.00052273
0.000489658
0.000460298
0.000434298
0.000411195
0.000390647
0.000372196
0.000355183
0.000338753
0.000321644
0.000309328
0.000281621
0.00147237
0.00360276
0.00345173
0.00401919
0.00457624
0.00513262
0.00562258
0.0059907
0.00632258
0.00659129
0.0067592
0.00678359
0.00659917
0.00604189
0.00451759
0.00123195
0.000725837
0.000513255
0.00107675
0.00148583
0.00177753
0.00193124
0.00192341
0.00154764
0.00133578
0.00118407
0.0010675
0.000974719
0.000899145
0.000833955
0.000773096
0.000713983
0.000661378
0.000615559
0.000720119
0.000367616
0.00179831
0.0049212
0.00428697
0.00538188
0.00592797
0.00633173
0.00664382
0.00689141
0.00715912
0.00743784
0.00769436
0.00788149
0.00794682
0.00781303
0.00727524
0.00560933
0.00122551
0.00102397
0.00146972
0.00188078
0.00224521
0.00249025
0.00241911
0.000800789
0.000707049
0.000631774
0.00057105
0.000521588
0.000480868
0.000447082
0.000419075
0.000396367
0.000427276
0.000494326
0.000809487
0.000424877
0.00211099
0.00628708
0.00430056
0.00570161
0.00618514
0.00634839
0.00645191
0.00657666
0.00678851
0.00707358
0.00739689
0.00769962
0.00792717
0.00801832
0.00790165
0.00732679
0.00536378
0.00146676
0.0018183
0.00234525
0.00285074
0.00324737
0.00348597
0.00326023
0.000903578
0.00082242
0.000764214
0.000719794
0.000682075
0.000647585
0.00061452
0.000579907
0.000539866
0.000506502
0.000518089
0.000923661
0.000469221
0.00242979
0.00804006
0.00472644
0.00549025
0.00613304
0.00617788
0.00612169
0.00618597
0.0063725
0.0066623
0.00702523
0.0073805
0.00765255
0.00778055
0.007743
0.00749825
0.00687922
0.00569099
0.00528368
0.00514893
0.00510235
0.00507243
0.00501615
0.00481979
0.0040648
0.00370184
0.00349022
0.00332671
0.00315508
0.00290894
0.00257788
0.00217649
0.00173068
0.00128132
0.000944587
0.000948197
0.000629549
0.000578164
0.000700296
0.000786019
0.0027677
0.00994938
0.00650039
0.00546324
0.00594835
0.00616614
0.00602619
0.00607985
0.00622037
0.00647983
0.00684612
0.00723548
0.00753511
0.00765797
0.00758384
0.00735977
0.00706334
0.00675751
0.00658761
0.00646359
0.00632325
0.00616198
0.0059789
0.00574686
0.00540307
0.00509452
0.00482066
0.00455883
0.00429352
0.00400645
0.003647
0.00320132
0.00266919
0.00208058
0.00156017
0.00116771
0.000879227
0.000746343
0.00106393
0.000820127
0.00307498
0.0112857
0.00910119
0.0070365
0.00666147
0.00657694
0.00635357
0.00621198
0.0062558
0.00650936
0.00691594
0.00735063
0.00766654
0.00776128
0.00762444
0.00735329
0.00712013
0.0070419
0.00705603
0.00699842
0.00682073
0.00655513
0.00623242
0.00587064
0.00548845
0.00513359
0.00480906
0.00450777
0.00423005
0.00398226
0.00376423
0.00346705
0.00305168
0.00254548
0.00205897
0.00162347
0.00130341
0.0012042
0.00122735
0.000934199
0.00313436
0.0100399
0.00892312
0.00824354
0.00763562
0.00693464
0.00638889
0.00617358
0.00630879
0.00671887
0.00726227
0.00775883
0.00804081
0.00802865
0.0077622
0.00740894
0.00719717
0.00720032
0.00721641
0.00700601
0.00662655
0.00615263
0.00564732
0.005165
0.00474211
0.00438707
0.00408691
0.00383422
0.00363186
0.00348735
0.00340773
0.00336753
0.0031585
0.00283367
0.00254803
0.00240171
0.00249288
0.00287035
0.00352499
0.00145906
0.00305096
0.00361733
0.00401476
0.00411204
0.00419625
0.0044302
0.00490154
0.00561825
0.00649623
0.00738294
0.00811443
0.00853617
0.0085475
0.0081988
0.00767637
0.0073171
0.0071191
0.00695146
0.00666278
0.00619329
0.00561137
0.00500834
0.00446108
0.00400855
0.00365089
0.00336674
0.00313419
0.00293992
0.00277538
0.00263209
0.00250105
0.00238099
0.00228622
0.00221653
0.0021902
0.00219994
0.00218778
0.00210067
0.00196392
0.00137259
0.00148034
0.003054
0.00498244
0.00659111
0.00784885
0.00880917
0.0094156
0.0096561
0.0095658
0.00913655
0.00846183
0.0076268
0.00692046
0.00648345
0.00613096
0.00569637
0.00516124
0.00458674
0.00404018
0.00356788
0.00319444
0.00290678
0.00268279
0.00250522
0.00236416
0.00225474
0.00217458
0.00212254
0.00210027
0.00210531
0.00212384
0.00215194
0.00218188
0.00218968
0.00213669
0.00201046
0.00182036
0.00114177
0.00198327
0.00512889
0.00766964
0.00865263
0.00914857
0.00930595
0.00910086
0.00859527
0.00789387
0.00710043
0.00635092
0.0056859
0.00515092
0.0046948
0.00423369
0.00377872
0.00337473
0.00304575
0.0027909
0.0025957
0.00243729
0.00230358
0.0021893
0.00209735
0.00203016
0.0019871
0.00196679
0.00196745
0.00199399
0.00204358
0.00211275
0.00219406
0.0022713
0.0023247
0.00230713
0.00233312
0.00236848
0.00116418
0.0017753
0.00188122
0.00195623
0.00210745
0.00203923
0.00195687
0.00190311
0.00182636
0.00171589
0.00157848
0.00142381
0.00126302
0.00110705
0.000973388
0.000872517
0.000800839
0.000749937
0.000713092
0.000686231
0.000667026
0.000654024
0.000646334
0.00064338
0.000645359
0.000652722
0.000665169
0.000682528
0.000705145
0.000733586
0.000768624
0.000809355
0.00085585
0.000908617
0.000968107
0.00103385
0.00111192
0.00113738
0.00110829
0.0010413
0.000970338
)
;

boundaryField
{
    floor
    {
        type            nutkWallFunction;
        Cmu             0.09;
        kappa           0.41;
        E               9.8;
        value           nonuniform List<scalar> 
29
(
0.000144928
5.64412e-05
6.98906e-05
7.8896e-05
7.83435e-05
7.5537e-05
7.1851e-05
6.7221e-05
6.26057e-05
5.83847e-05
5.46075e-05
5.12374e-05
4.82214e-05
4.55209e-05
4.30805e-05
4.08164e-05
3.86165e-05
3.6311e-05
3.46414e-05
3.08528e-05
3.08527e-05
4.24717e-05
5.00094e-05
5.57578e-05
0.000144928
5.64411e-05
6.13996e-05
0.000123542
0.000174402
)
;
    }
    ceiling
    {
        type            nutkWallFunction;
        Cmu             0.09;
        kappa           0.41;
        E               9.8;
        value           nonuniform List<scalar> 
43
(
0.000208661
0.000220299
0.000228499
0.000245028
0.000237666
0.00022871
0.000222841
0.000214422
0.00020223
0.000186941
0.000169554
0.000151253
0.000133249
0.000117589
0.000105608
9.69966e-05
9.08265e-05
8.63294e-05
8.30334e-05
8.06675e-05
7.90611e-05
7.81092e-05
7.77432e-05
7.79884e-05
7.89e-05
8.04382e-05
8.25778e-05
8.53557e-05
8.8834e-05
9.30972e-05
9.80244e-05
0.000103613
0.000109914
0.000116966
0.000124702
0.000133816
0.000136773
0.000133395
0.000125575
0.00011723
0.000345451
0.00040399
0.00023132
)
;
    }
    sWall
    {
        type            nutkWallFunction;
        Cmu             0.09;
        kappa           0.41;
        E               9.8;
        value           uniform 0.000208719;
    }
    nWall
    {
        type            nutkWallFunction;
        Cmu             0.09;
        kappa           0.41;
        E               9.8;
        value           nonuniform List<scalar> 6(9.52052e-05 9.93236e-05 0.000112956 0.000137292 0.000139888 0.000117236);
    }
    sideWalls
    {
        type            empty;
    }
    glass1
    {
        type            nutkWallFunction;
        Cmu             0.09;
        kappa           0.41;
        E               9.8;
        value           nonuniform List<scalar> 9(0.000130261 0.000175254 0.000211644 0.000245878 0.000280225 0.000316115 0.000348356 0.000354556 0.000345875);
    }
    glass2
    {
        type            nutkWallFunction;
        Cmu             0.09;
        kappa           0.41;
        E               9.8;
        value           nonuniform List<scalar> 2(0.000173606 0.000163815);
    }
    sun
    {
        type            nutkWallFunction;
        Cmu             0.09;
        kappa           0.41;
        E               9.8;
        value           nonuniform List<scalar> 
14
(
0.00013016
0.000141779
0.000144318
0.000150968
0.000157095
0.000162804
0.00016838
0.0001738
0.000177605
0.000179193
0.000178003
0.000173679
0.000166178
0.000156087
)
;
    }
    heatsource1
    {
        type            nutkWallFunction;
        Cmu             0.09;
        kappa           0.41;
        E               9.8;
        value           nonuniform List<scalar> 3(6.96102e-05 8.47614e-05 9.5205e-05);
    }
    heatsource2
    {
        type            nutkWallFunction;
        Cmu             0.09;
        kappa           0.41;
        E               9.8;
        value           nonuniform List<scalar> 4(0.000147681 8.78889e-05 8.78889e-05 0.000146942);
    }
    Table_master
    {
        type            nutkWallFunction;
        Cmu             0.09;
        kappa           0.41;
        E               9.8;
        value           nonuniform List<scalar> 9(9.69903e-05 8.55901e-05 7.63051e-05 6.87177e-05 6.24648e-05 5.72621e-05 5.29037e-05 4.92596e-05 4.62823e-05);
    }
    Table_slave
    {
        type            nutkWallFunction;
        Cmu             0.09;
        kappa           0.41;
        E               9.8;
        value           nonuniform List<scalar> 9(0.000109312 9.95982e-05 9.25621e-05 8.715e-05 8.25231e-05 7.82654e-05 7.4158e-05 6.98296e-05 6.47827e-05);
    }
    inlet
    {
        type            calculated;
        value           uniform 0.000100623;
    }
    outlet
    {
        type            calculated;
        value           nonuniform List<scalar> 2(0.0017753 0.00188122);
    }
}


// ************************************************************************* //
