/*--------------------------------*- C++ -*----------------------------------*\
  =========                 |
  \\      /  F ield         | OpenFOAM: The Open Source CFD Toolbox
   \\    /   O peration     | Website:  https://openfoam.org
    \\  /    A nd           | Version:  6
     \\/     M anipulation  |
\*---------------------------------------------------------------------------*/
FoamFile
{
    version     2.0;
    format      ascii;
    class       volScalarField;
    location    "200";
    object      alphat;
}
// * * * * * * * * * * * * * * * * * * * * * * * * * * * * * * * * * * * * * //

dimensions      [1 -1 -1 0 0 0 0];

internalField   nonuniform List<scalar> 
459
(
0.0013861
0.00152683
0.00156854
0.0016504
0.00172984
0.00181037
0.00188567
0.00193692
0.00195477
0.00193301
0.00186664
0.0017426
0.00152294
0.00128098
0.00107493
0.000626834
0.000738642
0.000858703
0.000918743
0.00091895
0.000893143
0.000837714
0.000778799
0.000725551
0.000679031
0.000638533
0.000603189
0.000572057
0.000544463
0.000519423
0.000495593
0.000471098
0.000448411
0.000406966
0.00184286
0.00470129
0.00458687
0.00533516
0.00607835
0.00671984
0.00721445
0.00764736
0.00798263
0.00818684
0.00822926
0.00806252
0.00759984
0.00674652
0.00461177
0.00136979
0.00105456
0.000615155
0.0015609
0.00241113
0.00311284
0.00353698
0.00348984
0.00248982
0.00206421
0.00178596
0.00158368
0.00142937
0.00130764
0.00121019
0.00112207
0.00103049
0.000942908
0.000865712
0.000946438
0.000482427
0.00221575
0.0063865
0.00568639
0.00672997
0.00724149
0.00763123
0.00796871
0.00832983
0.00870725
0.00906648
0.00935652
0.00947322
0.00932439
0.00882635
0.00757752
0.00508375
0.00137067
0.00092036
0.00171311
0.00268399
0.0037098
0.00444173
0.00425758
0.00115591
0.00100561
0.000885195
0.000789119
0.000711899
0.000649164
0.000597682
0.000555921
0.000524149
0.000585263
0.000699595
0.0010932
0.000536197
0.00256758
0.00798301
0.00581308
0.00698395
0.00723006
0.0073885
0.00759698
0.00789179
0.00828964
0.00874848
0.00918752
0.00944249
0.00950778
0.00934643
0.00880618
0.00739249
0.00413125
0.00157156
0.00193231
0.00278768
0.00396887
0.00512349
0.00588413
0.00545844
0.00131355
0.00118783
0.00109279
0.00101544
0.000949252
0.00088789
0.000827174
0.000763746
0.000692291
0.000638858
0.000691361
0.0012669
0.000577513
0.00292326
0.0100032
0.00641714
0.00704748
0.00725278
0.00725587
0.00735319
0.00757316
0.00797543
0.0084733
0.00892821
0.00921563
0.00929656
0.00920812
0.00896602
0.00839083
0.00716456
0.00633339
0.00653885
0.00705911
0.00765236
0.00810421
0.00827608
0.00794192
0.00642879
0.00564089
0.00512657
0.00469195
0.00420922
0.00367119
0.00308357
0.0024651
0.00184934
0.00131292
0.00101229
0.00121869
0.000736114
0.000688862
0.000828416
0.000930969
0.00329949
0.0122359
0.00861051
0.00764636
0.00776984
0.00753825
0.00742143
0.00752492
0.00790046
0.00843049
0.00891539
0.00918826
0.00920914
0.00908305
0.00897725
0.0089732
0.00899067
0.00923339
0.00970045
0.0100702
0.0102404
0.0101899
0.00992583
0.00942842
0.00862935
0.00788705
0.00722959
0.00658847
0.00591708
0.00520609
0.00444591
0.00364313
0.00282887
0.00207938
0.00156418
0.00133046
0.00101554
0.00089021
0.00127955
0.000976277
0.00362991
0.0137387
0.0116666
0.00965608
0.00881382
0.00798429
0.00755837
0.0076045
0.00803954
0.00865329
0.00918126
0.00943041
0.00939092
0.00927106
0.009402
0.00994726
0.0106081
0.0112026
0.0115999
0.011674
0.0114713
0.0110555
0.0104838
0.0097881
0.00898785
0.00821082
0.00748049
0.00677619
0.00608704
0.00544384
0.00478784
0.00411094
0.00340562
0.00270525
0.00216624
0.00178723
0.00149001
0.00144295
0.00150576
0.00114282
0.00368492
0.0118004
0.010739
0.00946395
0.00825101
0.0074749
0.00729793
0.00767271
0.00840544
0.00919419
0.00974151
0.009899
0.00978607
0.00980155
0.010427
0.0112598
0.011801
0.0121112
0.0121572
0.0118888
0.011361
0.0106469
0.00980873
0.00889663
0.00796963
0.00709692
0.00630065
0.00559126
0.0049951
0.00454182
0.00422634
0.00396165
0.00360471
0.00318709
0.00291572
0.00285457
0.00308562
0.00369405
0.00454
0.00174386
0.00358166
0.00421933
0.00455842
0.00466328
0.00497695
0.00572458
0.00685598
0.00818447
0.0094279
0.0102665
0.010515
0.0102924
0.0102644
0.0106762
0.0111992
0.0115835
0.0117191
0.0116294
0.011295
0.010708
0.00991092
0.00896369
0.00792775
0.00687769
0.00589587
0.00503821
0.00431953
0.00375081
0.00333125
0.00303819
0.00284258
0.00271988
0.00264926
0.00261594
0.00261986
0.00264079
0.00261635
0.00249582
0.00232195
0.00161775
0.00150759
0.0036601
0.00723107
0.0096078
0.0110489
0.011775
0.0118754
0.0114944
0.0107221
0.0101027
0.0100004
0.0102581
0.0104181
0.010379
0.0101514
0.00972739
0.00908935
0.00825682
0.00729474
0.00629117
0.00533621
0.00450302
0.00383034
0.00332212
0.00296357
0.00272643
0.00258492
0.00251872
0.00250773
0.00253392
0.00258561
0.00265188
0.00271596
0.00274707
0.00270774
0.0026002
0.00238513
0.00135173
0.00241123
0.00791935
0.0106706
0.01122
0.0110578
0.0104568
0.00963445
0.00885657
0.00825099
0.00788642
0.00772033
0.0075844
0.00739536
0.00715005
0.00682268
0.00637932
0.00581703
0.00518084
0.00454687
0.0039852
0.00353252
0.00319017
0.00293937
0.00275733
0.00262592
0.00253406
0.00247786
0.00245808
0.00247627
0.00253223
0.00262139
0.00273049
0.00283517
0.00291478
0.00289296
0.0029442
0.00291525
0.00137638
0.00214843
0.00227855
0.00237218
0.0025428
0.00237823
0.00222947
0.00210582
0.0019568
0.00178864
0.00161951
0.00146895
0.00135471
0.00127432
0.00121624
0.00117016
0.00112849
0.00108609
0.00104087
0.000993977
0.000948637
0.000908274
0.00087503
0.000849469
0.000831209
0.000819819
0.000815448
0.000818954
0.000831597
0.000854523
0.000888369
0.000933263
0.000989114
0.00105591
0.00113348
0.00122132
0.001321
0.00134187
0.00129432
0.00121964
0.00113307
)
;

boundaryField
{
    floor
    {
        type            compressible::alphatWallFunction;
        Prt             0.85;
        value           nonuniform List<scalar> 
29
(
0.000152786
8.83743e-05
0.000104852
0.000122217
0.000130794
0.000130826
0.000127151
0.000119211
0.000110704
0.000102948
9.6116e-05
9.01222e-05
8.48533e-05
8.01808e-05
7.60131e-05
7.22084e-05
6.85663e-05
6.47996e-05
6.12883e-05
5.48155e-05
5.48147e-05
6.65418e-05
7.4755e-05
8.09967e-05
0.000152784
8.83732e-05
8.66323e-05
0.000131001
0.000220557
)
;
    }
    ceiling
    {
        type            compressible::alphatWallFunction;
        Prt             0.85;
        value           nonuniform List<scalar> 
43
(
0.00029631
0.000313074
0.000325076
0.000346945
0.00032602
0.000306947
0.000290985
0.000271608
0.000249548
0.000227129
0.000206954
0.000191495
0.00018053
0.000172559
0.000166203
0.000160431
0.000154531
0.000148209
0.000141617
0.000135209
0.000129474
0.000124727
0.000121062
0.000118435
0.000116792
0.000116159
0.000116662
0.00011848
0.000121771
0.000126613
0.000133002
0.000140903
0.000150284
0.000161094
0.000173232
0.00018689
0.000189735
0.000183247
0.000173005
0.000161042
0.000476562
0.000554014
0.000329847
)
;
    }
    sWall
    {
        type            compressible::alphatWallFunction;
        Prt             0.85;
        value           uniform 0.000295108;
    }
    nWall
    {
        type            compressible::alphatWallFunction;
        Prt             0.85;
        value           nonuniform List<scalar> 6(0.000132337 0.000138745 0.000162032 0.000190758 0.000194107 0.00016072);
    }
    sideWalls
    {
        type            empty;
    }
    glass1
    {
        type            compressible::alphatWallFunction;
        Prt             0.85;
        value           nonuniform List<scalar> 9(0.000190811 0.000250952 0.000298961 0.00034355 0.000388036 0.000434525 0.00047495 0.000481785 0.000469461);
    }
    glass2
    {
        type            compressible::alphatWallFunction;
        Prt             0.85;
        value           nonuniform List<scalar> 2(0.000241854 0.000225276);
    }
    sun
    {
        type            compressible::alphatWallFunction;
        Prt             0.85;
        value           nonuniform List<scalar> 
14
(
0.000195607
0.00021458
0.000220169
0.000231092
0.000241636
0.000252269
0.000262164
0.000268872
0.000271204
0.000268357
0.000259658
0.000243299
0.000214046
0.000181256
)
;
    }
    heatsource1
    {
        type            compressible::alphatWallFunction;
        Prt             0.85;
        value           nonuniform List<scalar> 3(9.76755e-05 0.000117989 0.000132652);
    }
    heatsource2
    {
        type            compressible::alphatWallFunction;
        Prt             0.85;
        value           nonuniform List<scalar> 4(0.000193523 0.00015009 0.000150089 0.000193636);
    }
    Table_master
    {
        type            compressible::alphatWallFunction;
        Prt             0.85;
        value           nonuniform List<scalar> 9(0.000164201 0.000143219 0.000126143 0.000112323 0.000101069 9.18177e-05 8.41439e-05 7.78593e-05 7.30386e-05);
    }
    Table_slave
    {
        type            compressible::alphatWallFunction;
        Prt             0.85;
        value           nonuniform List<scalar> 9(0.000185878 0.000168618 0.000155432 0.000144602 0.000135259 0.000126529 0.000117819 0.000108639 9.8187e-05);
    }
    inlet
    {
        type            fixedValue;
        value           uniform 1.94e-05;
    }
    outlet
    {
        type            zeroGradient;
    }
}


// ************************************************************************* //
