// -*- C++ -*-
// File generated by PyFoam - sorry for the ugliness

FoamFile
{
 version 2.0;
 format ascii;
 class volVectorField;
 location "300";
 object U;
}

dimensions [ 0 1 -1 0 0 0 0 ];

internalField nonuniform List<vector> 459
(
  (0.0797683 0.0728704 0)
  (-0.14445 0.00930731 0)
  (-0.142692 0.0112773 0)
  (-0.165399 0.00993362 0)
  (-0.185641 0.00743053 0)
  (-0.202741 0.00443865 0)
  (-0.215911 0.00102299 0)
  (-0.224381 -0.00289377 0)
  (-0.227229 -0.0074415 0)
  (-0.22324 -0.0128347 0)
  (-0.210954 -0.0195356 0)
  (-0.188006 -0.0279133 0)
  (-0.153204 -0.0394883 0)
  (-0.114939 -0.0575032 0)
  (-0.103637 -0.0824871 0)
  (0.033877 0.0186181 0)
  (-0.0350611 -0.00168605 0)
  (-0.0222157 -0.00407286 0)
  (-0.0213802 -0.00193656 0)
  (-0.0197709 -0.000425018 0)
  (-0.0191866 0.00028886 0)
  (-0.0206037 -1.62874e-05 0)
  (-0.0219474 -0.00128324 0)
  (-0.022383 -0.00252497 0)
  (-0.0211317 -0.00331075 0)
  (-0.0192132 -0.00389221 0)
  (-0.0167154 -0.00432406 0)
  (-0.0136552 -0.00497923 0)
  (-0.00962826 -0.0062037 0)
  (-0.00372775 -0.00853057 0)
  (0.00200483 -0.00887338 0)
  (0.0101228 -0.0112066 0)
  (0.0318109 -0.0100037 0)
  (-0.0403204 0.0146232 0)
  (0.281063 0.156572 0)
  (-0.160188 0.0335559 0)
  (-0.123915 0.0363714 0)
  (-0.151365 0.0337379 0)
  (-0.172364 0.029684 0)
  (-0.189984 0.0247412 0)
  (-0.203777 0.0187845 0)
  (-0.213148 0.0115473 0)
  (-0.217261 0.00272878 0)
  (-0.214948 -0.00793491 0)
  (-0.205765 -0.0199964 0)
  (-0.188888 -0.0332128 0)
  (-0.165276 -0.0485947 0)
  (-0.140024 -0.0681565 0)
  (-0.117948 -0.0859529 0)
  (-0.0851849 -0.0732448 0)
  (-0.0504842 -0.04812 0)
  (0.103254 0.00728421 0)
  (0.0538852 0.00609714 0)
  (0.0389487 0.00445011 0)
  (0.0341349 0.00353478 0)
  (0.0324477 0.00250651 0)
  (0.0322376 0.00246683 0)
  (0.0310167 0.00486149 0)
  (0.0281734 0.00505013 0)
  (0.0251955 0.00372973 0)
  (0.021905 0.00184095 0)
  (0.0186017 -0.000268681 0)
  (0.0163082 -0.002037 0)
  (0.0147594 -0.00321535 0)
  (0.0145919 -0.00455463 0)
  (0.0158807 -0.007477 0)
  (0.0149068 -0.00801654 0)
  (0.017272 -0.0146676 0)
  (0.0414769 -0.0129528 0)
  (-0.0801651 0.0307183 0)
  (0.456196 0.238594 0)
  (-0.203701 0.0643242 0)
  (-0.0977229 0.0625244 0)
  (-0.130616 0.0544044 0)
  (-0.149866 0.0465069 0)
  (-0.166504 0.0375476 0)
  (-0.179994 0.026973 0)
  (-0.189801 0.0144158 0)
  (-0.195039 -0.000308189 0)
  (-0.194395 -0.0169895 0)
  (-0.1877 -0.0353567 0)
  (-0.175418 -0.0544608 0)
  (-0.159387 -0.0737356 0)
  (-0.142404 -0.0922246 0)
  (-0.124046 -0.10467 0)
  (-0.10282 -0.104517 0)
  (-0.104007 -0.108696 0)
  (0.0679954 -0.0160064 0)
  (-0.00830995 -0.00436212 0)
  (0.00725226 0.00194896 0)
  (0.0182053 0.000684316 0)
  (0.0274693 -0.00229423 0)
  (0.0361774 -0.00558366 0)
  (0.0462966 -0.0022978 0)
  (0.0507276 -0.000598961 0)
  (0.0534112 -0.000422112 0)
  (0.0555394 -0.000802307 0)
  (0.0568365 -0.00146424 0)
  (0.0565026 -0.00226337 0)
  (0.0547515 -0.00319302 0)
  (0.0518408 -0.00443351 0)
  (0.0465007 -0.00556976 0)
  (0.0369431 0.000618054 0)
  (0.027533 -0.0108698 0)
  (0.0433372 -0.00830082 0)
  (-0.147827 0.0524295 0)
  (0.602702 0.306844 0)
  (-0.254993 0.0980168 0)
  (-0.0656104 0.0863134 0)
  (-0.105279 0.0734415 0)
  (-0.120513 0.0634832 0)
  (-0.134499 0.0524329 0)
  (-0.146508 0.0392481 0)
  (-0.15596 0.02328 0)
  (-0.161804 0.0041105 0)
  (-0.162317 -0.018031 0)
  (-0.15738 -0.0417603 0)
  (-0.148708 -0.0649757 0)
  (-0.138617 -0.0858861 0)
  (-0.129533 -0.102675 0)
  (-0.122725 -0.112349 0)
  (-0.12206 -0.112295 0)
  (-0.132383 -0.0938462 0)
  (-0.116147 -0.0269796 0)
  (-0.0620517 -0.0291403 0)
  (-0.0365838 -0.0216523 0)
  (-0.013028 -0.0166689 0)
  (0.0041999 -0.0133922 0)
  (0.0144264 -0.0126604 0)
  (0.0199339 -0.0127167 0)
  (0.0244398 -0.00919357 0)
  (0.0334326 -0.00867335 0)
  (0.0419918 -0.00857747 0)
  (0.0508208 -0.00888965 0)
  (0.0607331 -0.00936308 0)
  (0.071556 -0.00940675 0)
  (0.0818134 -0.00801533 0)
  (0.0886826 -0.0039842 0)
  (0.0874068 0.00337862 0)
  (0.0727086 0.0182081 0)
  (0.062266 0.0330341 0)
  (-0.0165801 0.0286839 0)
  (-0.19226 0.0341554 0)
  (0.720541 0.362688 0)
  (-0.302373 0.131531 0)
  (-0.0313466 0.102007 0)
  (-0.0762 0.0870686 0)
  (-0.0863628 0.076214 0)
  (-0.0961348 0.0639122 0)
  (-0.105002 0.0488828 0)
  (-0.112466 0.0302443 0)
  (-0.117428 0.00737041 0)
  (-0.117409 -0.0193779 0)
  (-0.112493 -0.0473797 0)
  (-0.105519 -0.0728296 0)
  (-0.0986515 -0.0933682 0)
  (-0.0936711 -0.107958 0)
  (-0.0914959 -0.116117 0)
  (-0.0926935 -0.1175 0)
  (-0.0926463 -0.107123 0)
  (-0.0804761 -0.0763891 0)
  (-0.0567391 -0.0605879 0)
  (-0.0339842 -0.047018 0)
  (-0.0152027 -0.0347998 0)
  (-0.00205875 -0.0259473 0)
  (0.00631865 -0.0204581 0)
  (0.0111708 -0.01701 0)
  (0.0154381 -0.0129705 0)
  (0.0207666 -0.0115008 0)
  (0.02646 -0.0119658 0)
  (0.0331795 -0.0136463 0)
  (0.0414909 -0.0156387 0)
  (0.0513727 -0.0164839 0)
  (0.0621478 -0.0139997 0)
  (0.0726112 -0.00553408 0)
  (0.0812447 0.00988364 0)
  (0.0837596 0.0292602 0)
  (0.0876546 0.048856 0)
  (0.0793839 0.0500644 0)
  (0.0629695 0.0274292 0)
  (0.0647041 0.0136936 0)
  (0.123528 0.0262945 0)
  (-0.330255 0.0152229 0)
  (0.797763 0.412063 0)
  (-0.340309 0.159915 0)
  (-0.00524867 0.10271 0)
  (-0.0421919 0.0952696 0)
  (-0.0480538 0.0848009 0)
  (-0.0534921 0.0712802 0)
  (-0.0580817 0.0550657 0)
  (-0.0619442 0.0349452 0)
  (-0.064302 0.00960553 0)
  (-0.060663 -0.0213082 0)
  (-0.0546854 -0.0529984 0)
  (-0.0493939 -0.0792194 0)
  (-0.0458981 -0.0981402 0)
  (-0.0450408 -0.109953 0)
  (-0.0470308 -0.115337 0)
  (-0.0513213 -0.114352 0)
  (-0.0537805 -0.10539 0)
  (-0.0492695 -0.0905963 0)
  (-0.0373691 -0.0789912 0)
  (-0.0235681 -0.0642682 0)
  (-0.0118445 -0.0469991 0)
  (-0.00455954 -0.0340698 0)
  (-0.000227157 -0.0253418 0)
  (0.00202102 -0.0196654 0)
  (0.0036238 -0.0158739 0)
  (0.00564337 -0.0150053 0)
  (0.0083819 -0.0166411 0)
  (0.012388 -0.0200335 0)
  (0.0180929 -0.0240564 0)
  (0.0257186 -0.0269479 0)
  (0.0353687 -0.0261768 0)
  (0.0473419 -0.0185209 0)
  (0.062699 -0.00137776 0)
  (0.0783919 0.0216767 0)
  (0.0935 0.0421926 0)
  (0.105964 0.0462903 0)
  (0.112764 0.0336149 0)
  (0.111903 0.0269955 0)
  (0.13274 0.0481074 0)
  (-0.111548 0.0739885 0)
  (0.819219 0.456578 0)
  (-0.355671 0.154186 0)
  (0.0121269 0.0611151 0)
  (0.0095637 0.094441 0)
  (0.00313661 0.0969128 0)
  (-0.00260032 0.0778215 0)
  (-0.00393924 0.057512 0)
  (-0.00349959 0.0360628 0)
  (-0.00242469 0.00733569 0)
  (0.0102726 -0.0284425 0)
  (0.0162122 -0.0598782 0)
  (0.0178145 -0.0832902 0)
  (0.0160225 -0.098765 0)
  (0.0111356 -0.107417 0)
  (0.00371257 -0.110457 0)
  (-0.00546764 -0.108547 0)
  (-0.0132197 -0.102114 0)
  (-0.0170448 -0.0941581 0)
  (-0.0152666 -0.0873749 0)
  (-0.0109207 -0.0734452 0)
  (-0.00669847 -0.0523233 0)
  (-0.00563564 -0.0364794 0)
  (-0.00620808 -0.0260946 0)
  (-0.00777657 -0.0194969 0)
  (-0.00958102 -0.0159972 0)
  (-0.0110217 -0.0157703 0)
  (-0.0117973 -0.0184361 0)
  (-0.0116322 -0.0232641 0)
  (-0.0102836 -0.0291274 0)
  (-0.00747026 -0.0344154 0)
  (-0.00270307 -0.0369514 0)
  (0.00547727 -0.033557 0)
  (0.018524 -0.0214514 0)
  (0.0407033 -0.000223525 0)
  (0.0646226 0.0202006 0)
  (0.0836884 0.0268938 0)
  (0.0976925 0.0216356 0)
  (0.110768 0.018739 0)
  (0.145002 0.0520943 0)
  (-0.0654873 0.141393 0)
  (0.915993 0.473422 0)
  (-0.126227 0.136658 0)
  (0.0833972 -0.0144326 0)
  (0.129705 0.0315007 0)
  (0.107222 0.0646927 0)
  (0.0868938 0.05725 0)
  (0.0812069 0.0372858 0)
  (0.0823399 0.0147057 0)
  (0.0877449 -0.0141087 0)
  (0.098838 -0.0408204 0)
  (0.0999441 -0.0633965 0)
  (0.0939863 -0.0804155 0)
  (0.0836049 -0.0915735 0)
  (0.0703005 -0.0973718 0)
  (0.0553022 -0.0986941 0)
  (0.039814 -0.096607 0)
  (0.0253035 -0.0922835 0)
  (0.0131956 -0.0880686 0)
  (0.00587767 -0.0859344 0)
  (0.00156179 -0.0746782 0)
  (-0.00116952 -0.0511045 0)
  (-0.00629452 -0.0333219 0)
  (-0.0115372 -0.0224025 0)
  (-0.0169149 -0.0157197 0)
  (-0.0220908 -0.0126177 0)
  (-0.0269795 -0.0129494 0)
  (-0.0316815 -0.0162594 0)
  (-0.0363608 -0.0217884 0)
  (-0.0411498 -0.0284795 0)
  (-0.0460081 -0.035002 0)
  (-0.0505121 -0.0397827 0)
  (-0.0534359 -0.0411254 0)
  (-0.0525927 -0.037803 0)
  (-0.0446098 -0.0295958 0)
  (-0.0255383 -0.0176968 0)
  (-0.0101485 -0.00735685 0)
  (-0.00743848 -0.00256797 0)
  (0.0115564 0.00946108 0)
  (0.0605765 0.101216 0)
  (-0.497096 0.253575 0)
  (1.04608 0.438074 0)
  (0.499291 0.289384 0)
  (0.505622 0.209779 0)
  (0.487414 0.185036 0)
  (0.401623 0.164149 0)
  (0.326069 0.128752 0)
  (0.282525 0.0890469 0)
  (0.258202 0.0515258 0)
  (0.243229 0.0169648 0)
  (0.221635 -0.0154079 0)
  (0.197758 -0.041519 0)
  (0.173226 -0.0600201 0)
  (0.148537 -0.0715297 0)
  (0.124014 -0.0773952 0)
  (0.100093 -0.0790197 0)
  (0.0772619 -0.0777552 0)
  (0.0560363 -0.0751347 0)
  (0.0370376 -0.0735221 0)
  (0.0228684 -0.075209 0)
  (0.0116844 -0.0676386 0)
  (0.00397157 -0.0440262 0)
  (-0.00702474 -0.0254183 0)
  (-0.015721 -0.0152497 0)
  (-0.0235685 -0.00907491 0)
  (-0.0308125 -0.00624872 0)
  (-0.0380568 -0.00652241 0)
  (-0.0459735 -0.0093131 0)
  (-0.0553227 -0.0137561 0)
  (-0.0669471 -0.0187465 0)
  (-0.08176 -0.0229201 0)
  (-0.100704 -0.0246438 0)
  (-0.124463 -0.0221219 0)
  (-0.152982 -0.0137678 0)
  (-0.184669 0.00123336 0)
  (-0.219892 0.0207096 0)
  (-0.258633 0.0404808 0)
  (-0.302918 0.0569607 0)
  (-0.345723 0.0671879 0)
  (-0.400896 0.0697661 0)
  (-0.652796 0.0563481 0)
  (-0.481833 0.0332315 0)
  (0.175507 0.151689 0)
  (0.251105 0.157818 0)
  (0.245322 0.133815 0)
  (0.247223 0.0983206 0)
  (0.249424 0.0603866 0)
  (0.246235 0.0264309 0)
  (0.236674 -0.000775575 0)
  (0.220226 -0.0212932 0)
  (0.199018 -0.0358337 0)
  (0.174801 -0.0453426 0)
  (0.149095 -0.0506975 0)
  (0.123112 -0.0527592 0)
  (0.0976649 -0.0524682 0)
  (0.0731691 -0.0511051 0)
  (0.0501518 -0.0510815 0)
  (0.0318804 -0.0564858 0)
  (0.014374 -0.052461 0)
  (0.00494421 -0.0282947 0)
  (-0.00899569 -0.013215 0)
  (-0.018499 -0.0062103 0)
  (-0.0256203 -0.00158219 0)
  (-0.0310969 0.00103897 0)
  (-0.0362292 0.00152418 0)
  (-0.0421246 0.000237685 0)
  (-0.0494089 -0.0021175 0)
  (-0.0581414 -0.00445908 0)
  (-0.0682205 -0.00561811 0)
  (-0.0795082 -0.00451614 0)
  (-0.0913336 -0.000146101 0)
  (-0.103092 0.00811167 0)
  (-0.11579 0.020209 0)
  (-0.127979 0.0363789 0)
  (-0.138575 0.0540421 0)
  (-0.142999 0.0664929 0)
  (-0.12161 0.0568267 0)
  (-0.0403062 -0.0205941 0)
  (-0.260335 -0.231956 0)
  (-0.237029 0.199348 0)
  (0.113819 0.138475 0)
  (0.0971071 0.111852 0)
  (0.124258 0.102676 0)
  (0.158262 0.0792924 0)
  (0.183996 0.0502527 0)
  (0.19774 0.02525 0)
  (0.200021 0.00712782 0)
  (0.193804 -0.0055139 0)
  (0.180666 -0.0143362 0)
  (0.162862 -0.0201992 0)
  (0.142213 -0.023604 0)
  (0.120101 -0.0249645 0)
  (0.0974716 -0.024758 0)
  (0.0747946 -0.0239057 0)
  (0.0525657 -0.0255854 0)
  (0.0327403 -0.0391273 0)
  (0.00341032 -0.0401894 0)
  (-0.00708789 -0.00243092 0)
  (-0.016793 0.0111392 0)
  (-0.023179 0.0139662 0)
  (-0.0263413 0.0143756 0)
  (-0.0276753 0.0139469 0)
  (-0.028366 0.0130046 0)
  (-0.029318 0.0114506 0)
  (-0.0310898 0.00937253 0)
  (-0.0339429 0.00710753 0)
  (-0.0375668 0.00544463 0)
  (-0.041036 0.00551335 0)
  (-0.0437262 0.00839106 0)
  (-0.0446287 0.0149512 0)
  (-0.0420394 0.0249816 0)
  (-0.0345278 0.0373033 0)
  (-0.0222347 0.0497569 0)
  (-0.00468683 0.058562 0)
  (0.0282191 0.0462499 0)
  (0.129068 -0.0173355 0)
  (-0.185916 -0.132365 0)
  (-0.0294102 -0.294531 0)
  (-0.364036 -0.0884327 0)
  (-0.291565 0.115895 0)
  (-0.128652 0.0407998 0)
  (-0.0847057 0.0407155 0)
  (-0.00140258 0.053662 0)
  (0.0675424 0.0386773 0)
  (0.113693 0.0206734 0)
  (0.143619 0.0057773 0)
  (0.157189 -0.00556646 0)
  (0.158133 -0.0140184 0)
  (0.150412 -0.020414 0)
  (0.136959 -0.0255242 0)
  (0.120118 -0.0298822 0)
  (0.101614 -0.0340225 0)
  (0.0827722 -0.0386911 0)
  (0.0645297 -0.0452679 0)
  (0.0473682 -0.0570231 0)
  (0.0282294 -0.0800457 0)
  (-0.024927 -0.0865118 0)
  (-0.034485 -0.0722079 0)
  (-0.0367564 -0.0621663 0)
  (-0.0351831 -0.0539709 0)
  (-0.0321056 -0.0485116 0)
  (-0.0281655 -0.0442399 0)
  (-0.0238758 -0.0407731 0)
  (-0.0197094 -0.0382072 0)
  (-0.0161628 -0.0363205 0)
  (-0.0135756 -0.034669 0)
  (-0.0118632 -0.0326333 0)
  (-0.0100869 -0.0293223 0)
  (-0.00658097 -0.0237695 0)
  (0.00165221 -0.0148381 0)
  (0.0170785 -0.00382763 0)
  (0.0402351 0.00692182 0)
  (0.0700628 0.0150822 0)
  (0.101733 0.0171488 0)
  (0.132089 0.00545191 0)
  (0.167786 -0.021836 0)
  (-0.162481 -0.0782756 0)
)
;

boundaryField
{
  floor
  {
    type noSlip;
  }
  ceiling
  {
    type noSlip;
  }
  sWall
  {
    type noSlip;
  }
  nWall
  {
    type noSlip;
  }
  sideWalls
  {
    type empty;
  }
  glass1
  {
    type noSlip;
  }
  glass2
  {
    type noSlip;
  }
  sun
  {
    type noSlip;
  }
  heatsource1
  {
    type noSlip;
  }
  heatsource2
  {
    type noSlip;
  }
  Table_master
  {
    type noSlip;
  }
  Table_slave
  {
    type noSlip;
  }
  inlet
  {
    type fixedValue;
    value uniform (0.277164 -0.114805 0);
  }
  outlet
  {
    type zeroGradient;
  }
} 	// ************************************************************************* //

