/*--------------------------------*- C++ -*----------------------------------*\
  =========                 |
  \\      /  F ield         | OpenFOAM: The Open Source CFD Toolbox
   \\    /   O peration     | Website:  https://openfoam.org
    \\  /    A nd           | Version:  6
     \\/     M anipulation  |
\*---------------------------------------------------------------------------*/
FoamFile
{
    version     2.0;
    format      ascii;
    class       volScalarField;
    location    "500";
    object      alphat;
}
// * * * * * * * * * * * * * * * * * * * * * * * * * * * * * * * * * * * * * //

dimensions      [1 -1 -1 0 0 0 0];

internalField   nonuniform List<scalar> 
459
(
0.00116126
0.00125924
0.00127406
0.00133126
0.00138344
0.00143123
0.00147669
0.00152233
0.0015611
0.00158437
0.00158614
0.00156153
0.00150965
0.0014378
0.00135977
0.000503948
0.000618635
0.000673847
0.000654284
0.000625152
0.000593095
0.000558521
0.000525634
0.00049583
0.000469143
0.000445268
0.000423996
0.000404889
0.000387463
0.000371169
0.000355204
0.000338334
0.00032962
0.000304134
0.00161157
0.00368304
0.0034383
0.00398723
0.00449665
0.00501762
0.00550777
0.00589855
0.0062236
0.00650216
0.00668789
0.00671728
0.00649208
0.00580809
0.00411691
0.0013732
0.000920853
0.000595373
0.0010697
0.00139024
0.00160384
0.00170166
0.0016904
0.0014414
0.00128067
0.0011593
0.0010626
0.000983263
0.000914193
0.000851834
0.000793539
0.000738101
0.000690551
0.000645378
0.000777394
0.000416459
0.00199207
0.00504605
0.00416291
0.00537084
0.00590793
0.00629515
0.00658828
0.00681699
0.00704248
0.00729106
0.0075331
0.00772114
0.00778796
0.00765603
0.00717587
0.00584085
0.00133471
0.00114204
0.00151958
0.00181929
0.00206142
0.00221351
0.0021464
0.000783736
0.000701867
0.000635575
0.000581581
0.000537179
0.000500289
0.000469398
0.000443515
0.000422181
0.000454253
0.000519743
0.000870802
0.000489613
0.00236268
0.00661085
0.00410565
0.00570322
0.00624703
0.00640583
0.00645574
0.00651831
0.00665423
0.00687826
0.00715937
0.00745666
0.00769694
0.00781955
0.00776785
0.00731231
0.00569262
0.00151296
0.00189445
0.0023579
0.00272206
0.00297146
0.00311699
0.00293302
0.000874651
0.000810163
0.000766615
0.000734902
0.000707629
0.000679572
0.000652182
0.00062243
0.000586351
0.000552401
0.000556522
0.0010077
0.000545497
0.0027415
0.00865364
0.00454705
0.00539336
0.00621243
0.00629171
0.00617575
0.00610578
0.00621001
0.00643247
0.00673653
0.00709164
0.00739735
0.00756459
0.00754523
0.00728924
0.00665984
0.00542486
0.00489735
0.00462716
0.00446648
0.00437898
0.00433693
0.00424161
0.00372793
0.00351481
0.00340547
0.00331539
0.00320097
0.00302293
0.0027208
0.00232903
0.00187938
0.00141193
0.00103938
0.00102007
0.000724891
0.000685734
0.000826512
0.00092476
0.00314134
0.0108709
0.0064943
0.00514218
0.00578004
0.00611788
0.006167
0.00592561
0.00603779
0.00624462
0.00654707
0.00690801
0.00723171
0.007406
0.00735269
0.00706188
0.00659381
0.00606091
0.00568865
0.00543085
0.00523639
0.00509963
0.00499816
0.00489124
0.00472489
0.00458395
0.00445394
0.00431568
0.00415857
0.00397452
0.00370858
0.00332776
0.00283114
0.00224531
0.00169652
0.00123558
0.00096961
0.000845887
0.00122421
0.000963295
0.00351652
0.0124945
0.00957371
0.00674464
0.00604068
0.00609222
0.00620321
0.0061392
0.00613778
0.00627448
0.00656493
0.00694259
0.00728031
0.00743963
0.00732901
0.00695549
0.0064443
0.00600327
0.00575638
0.00559833
0.00542229
0.00520982
0.00498255
0.00477967
0.00461588
0.00448704
0.00436694
0.00424252
0.00411267
0.00398311
0.0038554
0.00361964
0.00322752
0.00271747
0.00220933
0.00172781
0.00140107
0.00130963
0.00135818
0.00108157
0.00359441
0.0114361
0.00995434
0.00888291
0.00799218
0.00745124
0.00689807
0.0064491
0.00628084
0.00641229
0.00676426
0.00719283
0.00752689
0.00761378
0.00737339
0.00685322
0.00624093
0.00581452
0.00564071
0.00538563
0.00502036
0.00464795
0.00435026
0.0041486
0.00401824
0.00392349
0.00384037
0.00376364
0.00369949
0.00365997
0.00365877
0.00367392
0.00345533
0.00310248
0.00278307
0.00262318
0.00275036
0.00323472
0.00406026
0.00171079
0.00350236
0.00418365
0.00470706
0.00494044
0.00506832
0.00508948
0.00518634
0.00547609
0.00596661
0.00659218
0.00723009
0.00772799
0.00794563
0.00778438
0.00723287
0.00645801
0.00581526
0.0053874
0.00500116
0.0045207
0.00405267
0.00370389
0.0034819
0.00334636
0.00325622
0.00318372
0.00311435
0.00304217
0.0029641
0.00287704
0.00277784
0.0026665
0.00257138
0.0025016
0.00248422
0.00251192
0.00251473
0.00242568
0.00227199
0.00160475
0.00205701
0.00390335
0.00506241
0.00588023
0.00665933
0.00735336
0.00794822
0.00839393
0.00863112
0.00856161
0.00814401
0.00736809
0.00632863
0.00536048
0.00473254
0.00422956
0.00370022
0.00323506
0.00291637
0.00272537
0.00261376
0.00254467
0.0024968
0.00245931
0.00242755
0.00240039
0.00237877
0.00236541
0.0023647
0.00238718
0.00241732
0.00245504
0.00249455
0.00250846
0.00245006
0.00230157
0.00207822
0.00132348
0.00245241
0.00523807
0.00689449
0.00753445
0.00811956
0.00858526
0.0086729
0.00856464
0.00824222
0.00744458
0.00637464
0.0052676
0.00434998
0.0036663
0.0031222
0.00266135
0.00233954
0.00214453
0.00202397
0.00195682
0.00192318
0.00191174
0.00191727
0.00193745
0.00197131
0.00201804
0.00207613
0.00214214
0.00221842
0.00230902
0.00241199
0.00252141
0.00262165
0.0026924
0.00268255
0.00271894
0.00269964
0.0013452
0.00211849
0.00224218
0.00233202
0.0024514
0.00231152
0.00215433
0.00200745
0.00186687
0.00175005
0.00162038
0.00146491
0.00129352
0.00110394
0.000924277
0.000780483
0.000685063
0.000631682
0.000607438
0.000601511
0.000606759
0.000619468
0.000636284
0.000656369
0.000679502
0.000705654
0.000734919
0.000767515
0.000803837
0.000844588
0.000891024
0.000943793
0.00100194
0.00106628
0.00113765
0.00121621
0.00131088
0.00134327
0.00131147
0.00122948
0.00114247
)
;

boundaryField
{
    floor
    {
        type            compressible::alphatWallFunction;
        Prt             0.85;
        value           nonuniform List<scalar> 
29
(
0.000192037
6.98505e-05
8.71655e-05
9.53562e-05
9.24635e-05
8.81364e-05
8.33462e-05
7.81437e-05
7.3158e-05
6.8606e-05
6.45008e-05
6.0803e-05
5.74873e-05
5.44907e-05
5.1742e-05
4.91573e-05
4.66105e-05
4.3903e-05
4.24977e-05
3.83591e-05
3.83585e-05
5.63069e-05
6.76516e-05
7.61733e-05
0.000192035
6.98497e-05
8.36895e-05
0.000162148
0.000212736
)
;
    }
    ceiling
    {
        type            compressible::alphatWallFunction;
        Prt             0.85;
        value           nonuniform List<scalar> 
43
(
0.000292412
0.000308371
0.000319907
0.000335271
0.000317431
0.000297217
0.000278179
0.000259811
0.000244433
0.000227226
0.000206387
0.000183122
0.000156972
0.000131705
0.000111066
9.71206e-05
8.92179e-05
8.56024e-05
8.47163e-05
8.55021e-05
8.74008e-05
8.99053e-05
9.28861e-05
9.63054e-05
0.000100154
0.00010444
0.00010919
0.000114454
0.000120326
0.000126977
0.000134485
0.000142702
0.000151729
0.000161669
0.000172528
0.000185509
0.000189926
0.000185591
0.000174357
0.000162342
0.000466868
0.000549748
0.000335162
)
;
    }
    sWall
    {
        type            compressible::alphatWallFunction;
        Prt             0.85;
        value           uniform 0.0002912;
    }
    nWall
    {
        type            compressible::alphatWallFunction;
        Prt             0.85;
        value           nonuniform List<scalar> 6(0.000131459 0.000136918 0.000153526 0.000186898 0.000189855 0.000162015);
    }
    sideWalls
    {
        type            empty;
    }
    glass1
    {
        type            compressible::alphatWallFunction;
        Prt             0.85;
        value           nonuniform List<scalar> 9(0.00016073 0.000221016 0.000270625 0.000318053 0.000365788 0.000415475 0.000461545 0.000471176 0.000460167);
    }
    glass2
    {
        type            compressible::alphatWallFunction;
        Prt             0.85;
        value           nonuniform List<scalar> 2(0.000237503 0.000223524);
    }
    sun
    {
        type            compressible::alphatWallFunction;
        Prt             0.85;
        value           nonuniform List<scalar> 
14
(
0.000164834
0.000178317
0.000180348
0.000188161
0.000195257
0.00020173
0.000207863
0.000214001
0.000219198
0.00022231
0.000222546
0.000219253
0.000212295
0.000202614
)
;
    }
    heatsource1
    {
        type            compressible::alphatWallFunction;
        Prt             0.85;
        value           nonuniform List<scalar> 3(9.72189e-05 0.000117719 0.000131775);
    }
    heatsource2
    {
        type            compressible::alphatWallFunction;
        Prt             0.85;
        value           nonuniform List<scalar> 4(0.000193984 0.000131219 0.000131218 0.000188747);
    }
    Table_master
    {
        type            compressible::alphatWallFunction;
        Prt             0.85;
        value           nonuniform List<scalar> 9(0.000111534 9.95885e-05 8.97924e-05 8.17211e-05 7.50141e-05 6.93891e-05 6.46386e-05 6.06277e-05 5.72993e-05);
    }
    Table_slave
    {
        type            compressible::alphatWallFunction;
        Prt             0.85;
        value           nonuniform List<scalar> 9(0.000124628 0.00011536 0.000109051 0.000104431 0.000100437 9.63099e-05 9.22604e-05 8.78381e-05 8.24404e-05);
    }
    inlet
    {
        type            fixedValue;
        value           uniform 1.94e-05;
    }
    outlet
    {
        type            zeroGradient;
    }
}


// ************************************************************************* //
