// -*- C++ -*-
// File generated by PyFoam - sorry for the ugliness

FoamFile
{
 version 2.0;
 format ascii;
 class volVectorField;
 location "100";
 object U;
}

dimensions [ 0 1 -1 0 0 0 0 ];

internalField nonuniform List<vector> 459
(
  (0.0393521 0.0796291 0)
  (0.069091 -0.155523 0)
  (0.170571 -0.112741 0)
  (0.253451 -0.067832 0)
  (0.297643 -0.0388156 0)
  (0.306827 -0.0208422 0)
  (0.293339 -0.00716067 0)
  (0.265573 0.00448862 0)
  (0.226985 0.0148906 0)
  (0.179104 0.0249562 0)
  (0.122783 0.0366227 0)
  (0.0570951 0.0516212 0)
  (-0.0405539 0.0107339 0)
  (-0.0199506 -0.0121973 0)
  (0.0450499 -0.00765265 0)
  (-0.0792645 -0.00286957 0)
  (0.0238588 0.00531318 0)
  (-0.00704828 0.00528959 0)
  (-0.012742 0.00196596 0)
  (-0.0145772 0.00103052 0)
  (-0.0162987 0.00130625 0)
  (-0.0185731 0.00124621 0)
  (-0.0202608 0.000714711 0)
  (-0.0214061 0.000651088 0)
  (-0.022641 0.000833489 0)
  (-0.0240845 0.0010943 0)
  (-0.0259409 0.00129714 0)
  (-0.0287222 0.00129149 0)
  (-0.0321946 0.000714313 0)
  (-0.0336274 -0.00135517 0)
  (-0.029871 -0.00544443 0)
  (-0.0277689 -0.0076778 0)
  (-0.0290479 -0.00782517 0)
  (0.0658691 -0.0111157 0)
  (0.405956 -0.0266731 0)
  (0.199677 -0.162697 0)
  (0.243039 -0.125849 0)
  (0.29375 -0.0625898 0)
  (0.311967 -0.0163264 0)
  (0.306842 0.0152676 0)
  (0.285605 0.0382939 0)
  (0.25278 0.0559693 0)
  (0.210471 0.0695133 0)
  (0.160964 0.0802614 0)
  (0.107718 0.0897031 0)
  (0.055376 0.0957151 0)
  (-0.000781274 0.0566756 0)
  (-0.0108444 -0.00909685 0)
  (-0.00711507 -0.01289 0)
  (-0.00494552 -0.00945789 0)
  (0.0051663 0.00321151 0)
  (-0.0932782 0.00703183 0)
  (-0.000978262 0.009597 0)
  (-0.0198719 0.00858489 0)
  (-0.0220084 0.0045704 0)
  (-0.0215151 0.0029909 0)
  (-0.0202213 0.00336764 0)
  (-0.0198846 0.00428532 0)
  (-0.0206734 0.00395119 0)
  (-0.0208021 0.00396091 0)
  (-0.020751 0.00405896 0)
  (-0.0205333 0.00417815 0)
  (-0.0201978 0.00435717 0)
  (-0.0204252 0.00468092 0)
  (-0.0219894 0.00456604 0)
  (-0.0219513 0.000997474 0)
  (-0.0129234 -0.011167 0)
  (-0.00880552 -0.0122988 0)
  (-0.0257011 -0.00980438 0)
  (0.103292 -0.0102764 0)
  (0.561422 -0.290834 0)
  (0.154517 -0.264196 0)
  (0.213616 -0.164133 0)
  (0.251926 -0.0838681 0)
  (0.253358 -0.0288163 0)
  (0.241124 0.0150584 0)
  (0.221289 0.0529146 0)
  (0.1935 0.0838836 0)
  (0.157988 0.107674 0)
  (0.116768 0.125145 0)
  (0.0734422 0.136746 0)
  (0.0339116 0.136583 0)
  (-0.00180312 0.0825753 0)
  (-0.00835106 0.0068746 0)
  (-0.0182565 -0.00879963 0)
  (-0.0246294 -0.00910592 0)
  (-0.0315552 -0.00673039 0)
  (-0.101126 0.0318808 0)
  (-0.0229813 0.0153989 0)
  (-0.0349804 0.00925746 0)
  (-0.0351738 0.00366955 0)
  (-0.0335652 -0.000271039 0)
  (-0.02979 -0.00281441 0)
  (-0.0212158 -0.0042832 0)
  (-0.0213807 -0.0069917 0)
  (-0.020432 -0.00751548 0)
  (-0.0191846 -0.00748591 0)
  (-0.0176775 -0.00705795 0)
  (-0.0156584 -0.0061909 0)
  (-0.0136429 -0.00473184 0)
  (-0.0140763 -0.00328326 0)
  (-0.0151361 -0.00699582 0)
  (0.00710072 -0.0263185 0)
  (0.0100447 -0.0195299 0)
  (-0.00485826 -0.0111219 0)
  (0.11208 -0.00187943 0)
  (0.604116 -0.42047 0)
  (-0.0276343 -0.282478 0)
  (0.123209 -0.145778 0)
  (0.15513 -0.0689443 0)
  (0.145715 -0.0143812 0)
  (0.138063 0.0344869 0)
  (0.128567 0.0775477 0)
  (0.111664 0.113335 0)
  (0.0877226 0.141514 0)
  (0.0586931 0.1622 0)
  (0.0280705 0.173941 0)
  (0.00240724 0.164212 0)
  (-0.0153223 0.0907283 0)
  (-0.0213725 0.0217216 0)
  (-0.0383044 -0.000265338 0)
  (-0.0527234 -0.0109576 0)
  (-0.0653479 -0.0199983 0)
  (-0.0736732 -0.0276121 0)
  (-0.0714761 0.0284236 0)
  (-0.0471432 0.014259 0)
  (-0.0506431 0.00845342 0)
  (-0.0507834 0.0029317 0)
  (-0.0519042 -0.00182248 0)
  (-0.0528523 -0.00546988 0)
  (-0.0512827 -0.00653746 0)
  (-0.0462124 -0.00655074 0)
  (-0.0402525 -0.00737197 0)
  (-0.0331937 -0.00825221 0)
  (-0.025057 -0.00916109 0)
  (-0.0159386 -0.0100974 0)
  (-0.00568412 -0.0111382 0)
  (0.00756378 -0.0127213 0)
  (0.0226975 -0.0167868 0)
  (0.0260036 -0.0278598 0)
  (0.0241236 -0.0238707 0)
  (0.0125016 -0.0115881 0)
  (0.121462 0.0195335 0)
  (0.622062 -0.484447 0)
  (-0.183195 -0.289743 0)
  (0.080444 -0.150003 0)
  (0.0757197 -0.0718234 0)
  (0.0494015 -0.0178723 0)
  (0.0423511 0.0386489 0)
  (0.0400066 0.0891824 0)
  (0.0313557 0.130756 0)
  (0.0177546 0.163793 0)
  (0.000250577 0.18787 0)
  (-0.016205 0.196218 0)
  (-0.0251034 0.173334 0)
  (-0.0271649 0.0947332 0)
  (-0.0281281 0.036577 0)
  (-0.037821 0.0166478 0)
  (-0.0471736 0.00843398 0)
  (-0.0566559 0.00479401 0)
  (-0.0602839 0.00629257 0)
  (-0.0570116 0.0152666 0)
  (-0.0500612 0.0103332 0)
  (-0.0491491 0.00749653 0)
  (-0.04769 0.00342004 0)
  (-0.0468482 -0.000670542 0)
  (-0.0461349 -0.00385654 0)
  (-0.0443666 -0.00559428 0)
  (-0.0410078 -0.00732574 0)
  (-0.0364659 -0.00912126 0)
  (-0.0308508 -0.0109409 0)
  (-0.024221 -0.0127083 0)
  (-0.0167196 -0.014391 0)
  (-0.00855282 -0.0161288 0)
  (0.000485917 -0.0183456 0)
  (0.00880369 -0.0218929 0)
  (0.013562 -0.0283493 0)
  (0.0157259 -0.0273177 0)
  (0.0122197 -0.0180351 0)
  (0.0551928 0.0151027 0)
  (0.0501135 0.0157482 0)
  (0.0449278 0.0134924 0)
  (-0.0224429 0.0216595 0)
  (0.596615 -0.495671 0)
  (-0.239603 -0.296717 0)
  (0.0470336 -0.157699 0)
  (-0.000792902 -0.0463503 0)
  (-0.0403419 -3.40729e-05 0)
  (-0.0411588 0.0466266 0)
  (-0.0386428 0.094498 0)
  (-0.0395338 0.138486 0)
  (-0.04272 0.174345 0)
  (-0.0471549 0.198213 0)
  (-0.0487746 0.201317 0)
  (-0.0435572 0.168679 0)
  (-0.0348544 0.0921719 0)
  (-0.0316607 0.0423245 0)
  (-0.0351488 0.0216338 0)
  (-0.0390886 0.0113906 0)
  (-0.0432089 0.00692919 0)
  (-0.0451576 0.00790058 0)
  (-0.0433828 0.00988593 0)
  (-0.0398284 0.00771645 0)
  (-0.0379227 0.00534309 0)
  (-0.0362444 0.00178958 0)
  (-0.0351067 -0.00210231 0)
  (-0.034367 -0.00555807 0)
  (-0.0332786 -0.00830382 0)
  (-0.031403 -0.0109355 0)
  (-0.0286751 -0.013648 0)
  (-0.0250934 -0.0163519 0)
  (-0.0207081 -0.0188577 0)
  (-0.0157165 -0.0209757 0)
  (-0.0105183 -0.0226969 0)
  (-0.00567434 -0.0244022 0)
  (-0.00211216 -0.0269101 0)
  (-0.00115955 -0.0302907 0)
  (-0.00277676 -0.0301035 0)
  (-0.00709391 -0.0247345 0)
  (0.00225322 -0.00499267 0)
  (0.0150803 0.00174116 0)
  (0.027015 0.0098723 0)
  (-0.0517374 0.0366553 0)
  (0.507388 -0.4561 0)
  (-0.21374 -0.276751 0)
  (-0.0411681 -0.136832 0)
  (-0.0681999 -0.0169762 0)
  (-0.112518 0.00820287 0)
  (-0.108562 0.0456732 0)
  (-0.1017 0.091015 0)
  (-0.0942134 0.135489 0)
  (-0.0867621 0.172015 0)
  (-0.0786963 0.194274 0)
  (-0.0674808 0.192393 0)
  (-0.0515847 0.154043 0)
  (-0.0359388 0.0840632 0)
  (-0.0292133 0.0419059 0)
  (-0.0278332 0.0228799 0)
  (-0.027543 0.0131192 0)
  (-0.0277843 0.00827468 0)
  (-0.0273323 0.00708564 0)
  (-0.0252674 0.00693286 0)
  (-0.0222925 0.00527635 0)
  (-0.0200152 0.00314185 0)
  (-0.0182348 0.000218864 0)
  (-0.0173181 -0.00305411 0)
  (-0.0170722 -0.00629163 0)
  (-0.0169939 -0.0094178 0)
  (-0.0167364 -0.0126368 0)
  (-0.0161183 -0.0160102 0)
  (-0.0150407 -0.0193829 0)
  (-0.0135027 -0.0224162 0)
  (-0.0116972 -0.0246765 0)
  (-0.0101172 -0.0258361 0)
  (-0.00962758 -0.0260695 0)
  (-0.011446 -0.0261508 0)
  (-0.0168506 -0.0263683 0)
  (-0.0256802 -0.0249896 0)
  (-0.034638 -0.0198886 0)
  (-0.0356205 -0.00873519 0)
  (-0.0252458 0.00638614 0)
  (-0.0144237 0.0310488 0)
  (-0.0895373 0.0607636 0)
  (0.357864 -0.352482 0)
  (-0.255533 -0.215588 0)
  (-0.198009 -0.120801 0)
  (-0.137204 0.0131849 0)
  (-0.178341 0.00649842 0)
  (-0.16048 0.0370601 0)
  (-0.145226 0.080044 0)
  (-0.129139 0.123266 0)
  (-0.111829 0.158558 0)
  (-0.092944 0.178455 0)
  (-0.0716577 0.173026 0)
  (-0.0483387 0.133228 0)
  (-0.0283601 0.0724717 0)
  (-0.0190153 0.0372574 0)
  (-0.0142408 0.020513 0)
  (-0.010865 0.011874 0)
  (-0.00830593 0.00731197 0)
  (-0.00581893 0.00529048 0)
  (-0.00287665 0.0043047 0)
  (0.000267215 0.00293201 0)
  (0.00274191 0.00130452 0)
  (0.00452316 -0.000692701 0)
  (0.00509342 -0.00297381 0)
  (0.004842 -0.00549283 0)
  (0.0039993 -0.00826231 0)
  (0.00280498 -0.0113504 0)
  (0.00143286 -0.01474 0)
  (9.50997e-06 -0.0182324 0)
  (-0.00138015 -0.0213271 0)
  (-0.0028112 -0.0233139 0)
  (-0.00465599 -0.0233709 0)
  (-0.00784757 -0.0210587 0)
  (-0.0143815 -0.0170285 0)
  (-0.0270907 -0.0128182 0)
  (-0.0468535 -0.0089179 0)
  (-0.0689909 -0.0048094 0)
  (-0.0879112 -0.00191105 0)
  (-0.100801 -0.00333368 0)
  (-0.114722 -0.0117515 0)
  (-0.165023 -0.033918 0)
  (0.145272 -0.23037 0)
  (-0.454269 -0.200085 0)
  (-0.567916 -0.190689 0)
  (-0.172926 -0.0630322 0)
  (-0.234391 -0.0267543 0)
  (-0.192091 0.0168182 0)
  (-0.166357 0.0608065 0)
  (-0.143022 0.102524 0)
  (-0.11766 0.13556 0)
  (-0.0901472 0.153238 0)
  (-0.0613916 0.146622 0)
  (-0.0327822 0.109596 0)
  (-0.00958762 0.059795 0)
  (0.00161942 0.0309469 0)
  (0.0080442 0.0175536 0)
  (0.0129104 0.0108336 0)
  (0.0169111 0.00718977 0)
  (0.0203935 0.00528638 0)
  (0.0235816 0.00422637 0)
  (0.0263547 0.00334206 0)
  (0.0283867 0.00246522 0)
  (0.0294538 0.00143814 0)
  (0.0296311 0.00016616 0)
  (0.0289871 -0.00144254 0)
  (0.0275745 -0.00345026 0)
  (0.0254632 -0.00591881 0)
  (0.0227107 -0.00884615 0)
  (0.0193808 -0.0120673 0)
  (0.0155806 -0.0151282 0)
  (0.0114739 -0.0171968 0)
  (0.00727995 -0.0170901 0)
  (0.00323903 -0.0136577 0)
  (-0.000752207 -0.00660226 0)
  (-0.00512275 0.00189289 0)
  (-0.00941905 0.00902114 0)
  (-0.0149264 0.0143046 0)
  (-0.019976 0.0182923 0)
  (-0.0244362 0.0157528 0)
  (-0.0384247 -0.0117056 0)
  (-0.0942036 -0.0837968 0)
  (-1.21707 -0.196766 0)
  (-0.0701288 -0.148176 0)
  (-0.210598 -0.071839 0)
  (-0.188964 -0.00579537 0)
  (-0.164573 0.0446466 0)
  (-0.137862 0.0805447 0)
  (-0.107034 0.107289 0)
  (-0.0725969 0.121065 0)
  (-0.0371111 0.114321 0)
  (-0.0019927 0.081109 0)
  (0.0229289 0.0446215 0)
  (0.0342451 0.0258489 0)
  (0.0404354 0.0167875 0)
  (0.0446171 0.0121554 0)
  (0.0478531 0.00929403 0)
  (0.0502442 0.00756932 0)
  (0.0518656 0.00666775 0)
  (0.0529456 0.00607918 0)
  (0.0535539 0.00557016 0)
  (0.0536811 0.00493244 0)
  (0.0532892 0.00395891 0)
  (0.0522903 0.00247556 0)
  (0.0505772 0.000352371 0)
  (0.0480367 -0.0025004 0)
  (0.04455 -0.00608137 0)
  (0.0400262 -0.0102104 0)
  (0.0344768 -0.0144199 0)
  (0.0281238 -0.0178654 0)
  (0.0215269 -0.0193165 0)
  (0.0156692 -0.0174278 0)
  (0.0117601 -0.0115335 0)
  (0.0105196 -0.00285197 0)
  (0.0118322 0.00480064 0)
  (0.0152984 0.0112677 0)
  (0.0210152 0.0159842 0)
  (0.0271602 0.0162271 0)
  (0.0247986 0.00103375 0)
  (0.0114249 -0.089333 0)
  (-0.323443 -0.0222962 0)
  (0.035885 -0.149251 0)
  (-0.137177 -0.129561 0)
  (-0.156212 -0.107907 0)
  (-0.151695 -0.0669797 0)
  (-0.128216 -0.0201864 0)
  (-0.0927933 0.0136958 0)
  (-0.0500455 0.0313607 0)
  (-0.000940444 0.0232553 0)
  (0.0414434 -0.0136968 0)
  (0.0661499 -0.049706 0)
  (0.0767481 -0.0739572 0)
  (0.0799225 -0.0876289 0)
  (0.0800442 -0.0938723 0)
  (0.0789803 -0.0952901 0)
  (0.0776032 -0.0937154 0)
  (0.0763593 -0.0914052 0)
  (0.0753507 -0.0894091 0)
  (0.0744435 -0.087965 0)
  (0.0734481 -0.0870139 0)
  (0.0721793 -0.0864128 0)
  (0.0704537 -0.0860147 0)
  (0.0680907 -0.0857009 0)
  (0.0649113 -0.085389 0)
  (0.0607439 -0.0850238 0)
  (0.0554655 -0.0845678 0)
  (0.0490877 -0.0839982 0)
  (0.0418816 -0.0833139 0)
  (0.0345177 -0.0825612 0)
  (0.0281528 -0.0818882 0)
  (0.0242978 -0.081576 0)
  (0.0241873 -0.0818785 0)
  (0.0273154 -0.0824937 0)
  (0.0328583 -0.0832726 0)
  (0.0409494 -0.0852106 0)
  (0.0511577 -0.0883739 0)
  (0.0672674 -0.10064 0)
  (0.0457709 -0.178071 0)
  (0.584843 0.212708 0)
  (0.23107 -0.211939 0)
  (-0.254761 0.296708 0)
  (0.0461155 0.23803 0)
  (-0.0888702 0.275332 0)
  (-0.105812 0.306274 0)
  (-0.105869 0.299325 0)
  (-0.0879483 0.285546 0)
  (-0.0550685 0.285203 0)
  (-0.00938153 0.290529 0)
  (0.0421784 0.289903 0)
  (0.0780767 0.28973 0)
  (0.101023 0.293676 0)
  (0.112201 0.29805 0)
  (0.115769 0.299762 0)
  (0.115511 0.298657 0)
  (0.113547 0.2956 0)
  (0.110827 0.291105 0)
  (0.107854 0.287046 0)
  (0.104805 0.284272 0)
  (0.101762 0.282765 0)
  (0.0987754 0.282159 0)
  (0.095836 0.282021 0)
  (0.0928648 0.282001 0)
  (0.0897238 0.281866 0)
  (0.0862348 0.281499 0)
  (0.0821961 0.280876 0)
  (0.0774058 0.280077 0)
  (0.0717003 0.279309 0)
  (0.0650191 0.278953 0)
  (0.0575036 0.279598 0)
  (0.0496191 0.281947 0)
  (0.0421917 0.286419 0)
  (0.0360728 0.292525 0)
  (0.0315653 0.298946 0)
  (0.0284884 0.30442 0)
  (0.0255921 0.308947 0)
  (0.0221623 0.310953 0)
  (0.0363078 0.322283 0)
  (-0.114174 0.469066 0)
)
;

boundaryField
{
  floor
  {
    type noSlip;
  }
  ceiling
  {
    type noSlip;
  }
  sWall
  {
    type noSlip;
  }
  nWall
  {
    type noSlip;
  }
  sideWalls
  {
    type empty;
  }
  glass1
  {
    type noSlip;
  }
  glass2
  {
    type noSlip;
  }
  sun
  {
    type noSlip;
  }
  heatsource1
  {
    type noSlip;
  }
  heatsource2
  {
    type noSlip;
  }
  Table_master
  {
    type noSlip;
  }
  Table_slave
  {
    type noSlip;
  }
  inlet
  {
    type fixedValue;
    value uniform (0.0707107 -0.0707107 0);
  }
  outlet
  {
    type zeroGradient;
  }
} 	// ************************************************************************* //

