/*--------------------------------*- C++ -*----------------------------------*\
  =========                 |
  \\      /  F ield         | OpenFOAM: The Open Source CFD Toolbox
   \\    /   O peration     | Website:  https://openfoam.org
    \\  /    A nd           | Version:  6
     \\/     M anipulation  |
\*---------------------------------------------------------------------------*/
FoamFile
{
    version     2.0;
    format      ascii;
    class       volScalarField;
    location    "1700";
    object      epsilon;
}
// * * * * * * * * * * * * * * * * * * * * * * * * * * * * * * * * * * * * * //

dimensions      [0 2 -3 0 0 0 0];

internalField   nonuniform List<scalar> 
459
(
0.00397968
0.00320325
0.00261297
0.00218306
0.00185733
0.00159389
0.00136608
0.00115782
0.00095664
0.000751799
0.00045628
0.000227239
0.000176644
0.000189756
0.000187338
2.09953e-06
2.71697e-06
2.0792e-06
1.76073e-06
1.59673e-06
1.39349e-06
1.19819e-06
1.31185e-06
1.70184e-06
2.28934e-06
3.00722e-06
3.65988e-06
3.72928e-06
3.64937e-06
4.37821e-06
5.50869e-06
5.3561e-06
6.36398e-06
5.90991e-06
0.00658597
0.0041536
0.00280714
0.00199146
0.00150817
0.00121087
0.00102139
0.000903818
0.000833612
0.000797195
0.000607016
0.000301747
0.00019824
0.000181582
0.00015391
0.000183001
8.86629e-05
1.14176e-05
1.56098e-05
9.63963e-06
7.06302e-06
5.38393e-06
4.82543e-06
4.8508e-06
6.36977e-06
8.52235e-06
1.0982e-05
1.33238e-05
1.54799e-05
1.86058e-05
2.40719e-05
3.25148e-05
4.06575e-05
4.53825e-05
6.86369e-05
2.76544e-05
0.00941881
0.00550623
0.00319066
0.00196282
0.00133447
0.000987001
0.00079413
0.000703033
0.000687417
0.000723224
0.000609682
0.000382128
0.000303146
0.000229232
0.000169368
0.000168525
0.000208943
6.73247e-05
6.1114e-05
4.05778e-05
3.10303e-05
2.43481e-05
1.90508e-05
1.00899e-05
1.30804e-05
1.72583e-05
2.27959e-05
3.03035e-05
4.08223e-05
5.63063e-05
8.10463e-05
0.000123085
8.33179e-05
0.000103177
0.000177142
7.54143e-05
0.0127216
0.0073087
0.00345765
0.00171632
0.000992743
0.000688546
0.000563762
0.000530109
0.000564415
0.00063697
0.000579469
0.000463032
0.000401889
0.000265232
0.000193957
0.000176681
0.000175783
0.000200668
9.02891e-05
7.9961e-05
7.12395e-05
7.46105e-05
8.48323e-05
0.00010175
0.000130195
0.000128855
0.000127659
0.000127334
0.000128796
0.000132889
0.000140798
0.000154871
0.000179998
9.04678e-05
9.96253e-05
0.000117886
0.000130409
0.0169095
0.0100835
0.00364485
0.00130807
0.000588023
0.000406243
0.000374972
0.000398605
0.000472034
0.000552363
0.000537256
0.000499022
0.000427192
0.000282462
0.000229236
0.000218439
0.000200911
0.000167559
0.000127713
0.000111213
0.000108123
0.00011099
0.00011559
0.000117389
0.000116522
0.000113069
0.000109395
0.00010632
0.00010434
0.000103795
0.000104974
0.000108207
0.000113305
0.000116766
0.000123423
0.00013145
0.000145481
0.000176294
0.000161534
0.00015622
0.0226264
0.0150241
0.00370592
0.000683961
0.000330128
0.000257684
0.000266699
0.000318247
0.000403298
0.000478194
0.000483747
0.000483464
0.000409451
0.000301464
0.000299901
0.000339396
0.000360048
0.000346798
0.000316006
0.000287073
0.000270863
0.000260923
0.000250855
0.000239981
0.000227508
0.000214094
0.000201427
0.000190471
0.000181684
0.000175285
0.000171439
0.000170557
0.000173344
0.000179566
0.000186795
0.000192001
0.00019455
0.000195184
0.000207272
0.000267948
0.0310689
0.0252701
0.0039186
0.000738236
0.00034327
0.000237056
0.000235171
0.000286914
0.000366511
0.0004261
0.000426786
0.000435697
0.000373013
0.00030902
0.000367016
0.000471926
0.000559911
0.000603408
0.000608531
0.000593619
0.000570383
0.000541809
0.000509399
0.000474623
0.000438951
0.000404408
0.000373104
0.000346214
0.000324099
0.000306737
0.000294128
0.000286708
0.000285244
0.000289253
0.000295301
0.00029883
0.000296793
0.000293495
0.000313577
0.000409699
0.0452021
0.0513868
0.0163909
0.00160188
0.000647377
0.000402958
0.000329892
0.000341341
0.000393076
0.000420522
0.000389203
0.000380198
0.000330356
0.0002923
0.000412978
0.00058356
0.000753677
0.000887403
0.000972031
0.0010118
0.00101361
0.000983781
0.000931096
0.000865308
0.000794877
0.000726427
0.00066444
0.000611078
0.00056683
0.000531354
0.000504209
0.000485479
0.000475708
0.000474283
0.000477643
0.000480076
0.000475441
0.000465488
0.00048043
0.000600041
0.0746395
0.140086
0.173473
0.0182714
0.00307012
0.00160846
0.000978814
0.000714303
0.000632077
0.000539445
0.000419805
0.0003686
0.000313589
0.000291075
0.000384148
0.000603002
0.000873109
0.00113643
0.00135794
0.00151672
0.00160141
0.00161312
0.00156555
0.00147886
0.00137273
0.00126278
0.00115943
0.0010683
0.000991509
0.000929197
0.000880681
0.000845339
0.00082278
0.000811896
0.000809489
0.000809615
0.000803567
0.000785876
0.000780161
0.000891986
0.516264
0.186691
0.0193129
0.00536277
0.00335499
0.00242014
0.00196957
0.00125702
0.000771301
0.000581528
0.000472675
0.000426999
0.000471935
0.00063105
0.000913192
0.0013142
0.00176477
0.0021712
0.00246098
0.00260614
0.00261996
0.00253842
0.00240152
0.00224241
0.00208395
0.00193959
0.00181592
0.00171504
0.00163661
0.00157914
0.00154071
0.00151884
0.00150928
0.00150419
0.00149035
0.00145104
0.00140035
0.00135015
0.213769
0.0615766
0.0284842
0.0113548
0.00706619
0.00490563
0.00335021
0.00172814
0.000988762
0.000720167
0.000615398
0.000620145
0.000743758
0.00101894
0.00150837
0.0022338
0.00310019
0.00392732
0.00454549
0.00487657
0.00494058
0.00481207
0.00457456
0.00429571
0.00402103
0.003777
0.00357653
0.00342372
0.00331714
0.00325188
0.00322051
0.00321306
0.00321597
0.00321093
0.00317632
0.00308566
0.00299078
0.00197986
0.00142461
0.00359619
0.0401385
0.027361
0.0174459
0.0103557
0.0061695
0.00370061
0.0023333
0.00190925
0.00154404
0.00130148
0.00115791
0.00107885
0.0010448
0.00104569
0.00107982
0.00116716
0.00132974
0.00156127
0.00183303
0.00210138
0.00232443
0.00247575
0.00254822
0.00254996
0.00249745
0.00240945
0.00230321
0.00219245
0.00208674
0.0019915
0.00190836
0.00183552
0.00176798
0.00169748
0.00161213
0.001494
0.00131406
0.000858561
)
;

boundaryField
{
    floor
    {
        Cmu             0.09;
        kappa           0.41;
        E               9.8;
        type            epsilonWallFunction;
        value           nonuniform List<scalar> 
29
(
0.000187338
2.09953e-06
2.71697e-06
2.0792e-06
1.76073e-06
1.59673e-06
1.39349e-06
1.19819e-06
1.31185e-06
1.70184e-06
2.28934e-06
3.00722e-06
3.65988e-06
3.72928e-06
3.64937e-06
4.37821e-06
5.50869e-06
5.3561e-06
6.36398e-06
5.90991e-06
5.90991e-06
2.76544e-05
7.54143e-05
0.000130409
0.000187338
2.09953e-06
1.14176e-05
6.73247e-05
0.000200668
)
;
    }
    ceiling
    {
        Cmu             0.09;
        kappa           0.41;
        E               9.8;
        type            epsilonWallFunction;
        value           nonuniform List<scalar> 
43
(
0.00142461
0.00359619
0.0401385
0.027361
0.0174459
0.0103557
0.0061695
0.00370061
0.0023333
0.00190925
0.00154404
0.00130148
0.00115791
0.00107885
0.0010448
0.00104569
0.00107982
0.00116716
0.00132974
0.00156127
0.00183303
0.00210138
0.00232443
0.00247575
0.00254822
0.00254996
0.00249745
0.00240945
0.00230321
0.00219245
0.00208674
0.0019915
0.00190836
0.00183552
0.00176798
0.00169748
0.00161213
0.001494
0.00131406
0.000858561
0.0746395
0.140086
0.213769
)
;
    }
    sWall
    {
        Cmu             0.09;
        kappa           0.41;
        E               9.8;
        type            epsilonWallFunction;
        value           uniform 0.00142461;
    }
    nWall
    {
        Cmu             0.09;
        kappa           0.41;
        E               9.8;
        type            epsilonWallFunction;
        value           nonuniform List<scalar> 6(0.00015622 0.000267948 0.000409699 0.00135015 0.00197986 0.000858561);
    }
    sideWalls
    {
        type            empty;
    }
    glass1
    {
        Cmu             0.09;
        kappa           0.41;
        E               9.8;
        type            epsilonWallFunction;
        value           nonuniform List<scalar> 9(0.00397968 0.00658597 0.00941881 0.0127216 0.0169095 0.0226264 0.0310689 0.0452021 0.0746395);
    }
    glass2
    {
        Cmu             0.09;
        kappa           0.41;
        E               9.8;
        type            epsilonWallFunction;
        value           nonuniform List<scalar> 2(0.000600041 0.000891986);
    }
    sun
    {
        Cmu             0.09;
        kappa           0.41;
        E               9.8;
        type            epsilonWallFunction;
        value           nonuniform List<scalar> 
14
(
0.00397968
0.00320325
0.00261297
0.00218306
0.00185733
0.00159389
0.00136608
0.00115782
0.00095664
0.000751799
0.00045628
0.000227239
0.000176644
0.000189756
)
;
    }
    heatsource1
    {
        Cmu             0.09;
        kappa           0.41;
        E               9.8;
        type            epsilonWallFunction;
        value           nonuniform List<scalar> 3(0.000176294 0.000161534 0.00015622);
    }
    heatsource2
    {
        Cmu             0.09;
        kappa           0.41;
        E               9.8;
        type            epsilonWallFunction;
        value           nonuniform List<scalar> 4(0.000183001 8.86629e-05 8.86629e-05 0.000208943);
    }
    Table_master
    {
        Cmu             0.09;
        kappa           0.41;
        E               9.8;
        type            epsilonWallFunction;
        value           nonuniform List<scalar> 9(1.00899e-05 1.30804e-05 1.72583e-05 2.27959e-05 3.03035e-05 4.08223e-05 5.63063e-05 8.10463e-05 0.000123085);
    }
    Table_slave
    {
        Cmu             0.09;
        kappa           0.41;
        E               9.8;
        type            epsilonWallFunction;
        value           nonuniform List<scalar> 9(0.000130195 0.000128855 0.000127659 0.000127334 0.000128796 0.000132889 0.000140798 0.000154871 0.000179998);
    }
    inlet
    {
        type            turbulentMixingLengthDissipationRateInlet;
        mixingLength    0.01;
        phi             phi;
        k               k;
        value           uniform 0.516264;
    }
    outlet
    {
        type            zeroGradient;
    }
}


// ************************************************************************* //
