/*--------------------------------*- C++ -*----------------------------------*\
  =========                 |
  \\      /  F ield         | OpenFOAM: The Open Source CFD Toolbox
   \\    /   O peration     | Website:  https://openfoam.org
    \\  /    A nd           | Version:  6
     \\/     M anipulation  |
\*---------------------------------------------------------------------------*/
FoamFile
{
    version     2.0;
    format      ascii;
    class       volScalarField;
    location    "1200";
    object      nut;
}
// * * * * * * * * * * * * * * * * * * * * * * * * * * * * * * * * * * * * * //

dimensions      [0 2 -1 0 0 0 0];

internalField   nonuniform List<scalar> 
459
(
0.00108022
0.00118014
0.00120204
0.00125979
0.00131326
0.0013633
0.00141233
0.0014603
0.00149417
0.00150845
0.00149808
0.00145991
0.00139376
0.00130525
0.00120821
0.000473957
0.000579812
0.000651946
0.000647466
0.000624974
0.000595588
0.000558914
0.00052261
0.000489639
0.000460339
0.000434373
0.000411289
0.000390753
0.000372305
0.000355288
0.000338847
0.000321724
0.000309439
0.000281818
0.00147198
0.00359638
0.00344176
0.00400588
0.00456034
0.00511482
0.00560443
0.00597282
0.00630618
0.00657743
0.0067485
0.00677603
0.00659411
0.00603789
0.0045126
0.0012316
0.000725902
0.000512918
0.00107605
0.00148409
0.0017743
0.00192635
0.00191747
0.00154346
0.00133215
0.00118063
0.00106406
0.000971184
0.000895526
0.000830279
0.000769587
0.00071088
0.000658828
0.000613605
0.000718426
0.000368005
0.00179804
0.00491405
0.00427304
0.0053591
0.00590163
0.00630435
0.00661724
0.0068666
0.00713726
0.00741956
0.00768015
0.00787132
0.00794036
0.0078098
0.00727536
0.00561012
0.00122399
0.00102429
0.00146989
0.00187986
0.00224216
0.00248454
0.00241192
0.000800045
0.000706624
0.000631587
0.000571029
0.000521674
0.00048102
0.000447271
0.000419281
0.000396573
0.000427273
0.000493766
0.000807074
0.000425433
0.00211094
0.00628127
0.00428796
0.00567477
0.00615216
0.00631502
0.00642083
0.0065496
0.00676566
0.00705452
0.00738198
0.00768877
0.00792031
0.00801545
0.00790122
0.00732797
0.00537314
0.00146569
0.001818
0.00234484
0.00284809
0.00324057
0.00347439
0.00324722
0.000902752
0.000821935
0.000764078
0.000720017
0.000682639
0.000648386
0.000615515
0.00058104
0.000541065
0.000507384
0.000518208
0.000920729
0.000469954
0.00242997
0.00803562
0.00471599
0.0054656
0.00609691
0.00613974
0.00608884
0.00615941
0.0063509
0.00664384
0.00701048
0.00736948
0.00764561
0.00777736
0.00774255
0.007499
0.00687975
0.00568741
0.00527718
0.00513823
0.00508577
0.00504925
0.00498738
0.0047895
0.00404332
0.00368626
0.00347984
0.00332116
0.0031538
0.00291172
0.00258329
0.00218294
0.00173674
0.00128606
0.000947271
0.000946764
0.000629999
0.00057936
0.000701548
0.000787378
0.00276808
0.00994557
0.00649065
0.00544415
0.00591816
0.00613047
0.00599878
0.00605802
0.00620218
0.00646369
0.00683181
0.0072239
0.00752729
0.0076541
0.0075832
0.0073607
0.0070631
0.00675255
0.00657519
0.00644143
0.00629064
0.0061208
0.00593389
0.00570491
0.00537121
0.00507457
0.00481179
0.00455898
0.00430009
0.00401726
0.00365998
0.00321485
0.0026817
0.00209066
0.00156687
0.00116899
0.000880117
0.000747662
0.00106538
0.000821498
0.00307562
0.0112827
0.00909238
0.00701986
0.00663808
0.00655611
0.00633781
0.00619871
0.00624286
0.00649581
0.00690226
0.00733848
0.00765769
0.00775636
0.00762292
0.00735353
0.00711844
0.0070328
0.00703394
0.00696145
0.00677192
0.00650193
0.0061846
0.00583656
0.00547163
0.0051321
0.00481858
0.00452366
0.00424825
0.0039999
0.00377942
0.00348119
0.00306432
0.0025554
0.00206559
0.00162667
0.00130563
0.00120615
0.00122866
0.000934967
0.00313509
0.0100405
0.00892148
0.00823872
0.00763474
0.00693619
0.00638824
0.00616882
0.00629962
0.00670608
0.00724772
0.00774545
0.00803111
0.008023
0.0077598
0.00740792
0.0071914
0.00718141
0.00717784
0.00695412
0.00657264
0.00610836
0.00562067
0.00515775
0.00475048
0.00440482
0.00410797
0.00385396
0.00364745
0.00349794
0.003414
0.00337105
0.0031633
0.00283667
0.00254876
0.00240096
0.0024917
0.00286865
0.0035228
0.00145965
0.00305172
0.00361833
0.00401661
0.00411597
0.00419907
0.00442934
0.00489549
0.00560662
0.00648001
0.00736406
0.00809569
0.00852172
0.00853984
0.00819541
0.00767454
0.00731214
0.00710223
0.00691771
0.00661666
0.00614709
0.00557715
0.0049927
0.00446354
0.00402355
0.00367139
0.00338664
0.00314933
0.00294831
0.00277709
0.00262891
0.00249574
0.00237596
0.00228303
0.00221466
0.00218878
0.00219858
0.00218648
0.00209956
0.00196304
0.00137285
0.0014845
0.00306059
0.00497323
0.00657158
0.00782389
0.00878323
0.00939194
0.00963646
0.00955192
0.00913291
0.00846972
0.0076316
0.00691438
0.00646476
0.00610072
0.00566136
0.00513084
0.00456829
0.0040359
0.00357524
0.00320813
0.00292148
0.0026946
0.00251195
0.00236512
0.00225049
0.00216652
0.00211251
0.00209008
0.00209655
0.00211711
0.00214708
0.00217836
0.00218703
0.00213462
0.00200883
0.00181904
0.00114131
0.00198645
0.00512859
0.00766968
0.0086439
0.00913987
0.00930185
0.00910238
0.00860134
0.00790281
0.00710935
0.00635723
0.00568311
0.0051375
0.0046743
0.00421151
0.00376024
0.00336312
0.00304137
0.00279199
0.00259934
0.00244055
0.00230431
0.00218643
0.00209138
0.0020215
0.00197647
0.00195501
0.00195503
0.0019818
0.00203235
0.00210301
0.0021861
0.00226509
0.00232009
0.0023038
0.00233065
0.00236386
0.00116351
0.00177752
0.00188355
0.00195868
0.00210971
0.00204089
0.00195709
0.00190261
0.00182564
0.00171511
0.00157758
0.00142265
0.0012614
0.00110471
0.000969976
0.000868109
0.000795855
0.000744842
0.000708262
0.000681906
0.000663318
0.000650952
0.000643858
0.000641448
0.000643929
0.000651757
0.000664509
0.000682109
0.000704903
0.000733456
0.000768602
0.00080939
0.000855894
0.000908648
0.000968124
0.00103388
0.00111212
0.00113752
0.00110846
0.00104146
0.000970581
)
;

boundaryField
{
    floor
    {
        type            nutkWallFunction;
        Cmu             0.09;
        kappa           0.41;
        E               9.8;
        value           nonuniform List<scalar> 
29
(
0.000144955
5.63684e-05
6.98155e-05
7.88041e-05
7.82494e-05
7.54579e-05
7.17923e-05
6.71865e-05
6.25906e-05
5.83823e-05
5.46128e-05
5.12472e-05
4.82338e-05
4.55349e-05
4.30949e-05
4.08304e-05
3.86293e-05
3.63219e-05
3.46567e-05
3.088e-05
3.08799e-05
4.25235e-05
5.00821e-05
5.58523e-05
0.000144955
5.63683e-05
6.13568e-05
0.00012358
0.000174281
)
;
    }
    ceiling
    {
        type            nutkWallFunction;
        Cmu             0.09;
        kappa           0.41;
        E               9.8;
        value           nonuniform List<scalar> 
43
(
0.000208906
0.000220555
0.000228766
0.000245273
0.000237847
0.000228735
0.000222786
0.000214342
0.000202143
0.00018684
0.000169422
0.000151067
0.000132976
0.000117186
0.000105081
9.63946e-05
9.02062e-05
8.57378e-05
8.25013e-05
8.02099e-05
7.86811e-05
7.78025e-05
7.75038e-05
7.78112e-05
7.87806e-05
8.03569e-05
8.25263e-05
8.53261e-05
8.88182e-05
9.30945e-05
9.80286e-05
0.000103619
0.000109917
0.000116968
0.000124706
0.00013384
0.00013679
0.000133415
0.000125595
0.000117259
0.00034553
0.000404093
0.000231666
)
;
    }
    sWall
    {
        type            nutkWallFunction;
        Cmu             0.09;
        kappa           0.41;
        E               9.8;
        value           uniform 0.000208964;
    }
    nWall
    {
        type            nutkWallFunction;
        Cmu             0.09;
        kappa           0.41;
        E               9.8;
        value           nonuniform List<scalar> 6(9.53697e-05 9.94886e-05 0.000113047 0.000137238 0.000139809 0.000117264);
    }
    sideWalls
    {
        type            empty;
    }
    glass1
    {
        type            nutkWallFunction;
        Cmu             0.09;
        kappa           0.41;
        E               9.8;
        value           nonuniform List<scalar> 9(0.000130227 0.00017521 0.000211614 0.000245873 0.000280245 0.000316155 0.000348422 0.000354633 0.000345954);
    }
    glass2
    {
        type            nutkWallFunction;
        Cmu             0.09;
        kappa           0.41;
        E               9.8;
        value           nonuniform List<scalar> 2(0.000173672 0.000163844);
    }
    sun
    {
        type            nutkWallFunction;
        Cmu             0.09;
        kappa           0.41;
        E               9.8;
        value           nonuniform List<scalar> 
14
(
0.000130127
0.000141719
0.000144245
0.000150882
0.000156998
0.000162695
0.000168255
0.000173674
0.000177488
0.000179094
0.000177927
0.000173628
0.00016615
0.000156082
)
;
    }
    heatsource1
    {
        type            nutkWallFunction;
        Cmu             0.09;
        kappa           0.41;
        E               9.8;
        value           nonuniform List<scalar> 3(6.97604e-05 8.49151e-05 9.53695e-05);
    }
    heatsource2
    {
        type            nutkWallFunction;
        Cmu             0.09;
        kappa           0.41;
        E               9.8;
        value           nonuniform List<scalar> 4(0.000147642 8.78969e-05 8.78969e-05 0.000146766);
    }
    Table_master
    {
        type            nutkWallFunction;
        Cmu             0.09;
        kappa           0.41;
        E               9.8;
        value           nonuniform List<scalar> 9(9.69005e-05 8.5538e-05 7.62819e-05 6.87151e-05 6.24758e-05 5.72817e-05 5.29283e-05 4.92866e-05 4.63095e-05);
    }
    Table_slave
    {
        type            nutkWallFunction;
        Cmu             0.09;
        kappa           0.41;
        E               9.8;
        value           nonuniform List<scalar> 9(0.000109214 9.95397e-05 9.25455e-05 8.71772e-05 8.25925e-05 7.83647e-05 7.4282e-05 6.99717e-05 6.49345e-05);
    }
    inlet
    {
        type            calculated;
        value           uniform 0.000100623;
    }
    outlet
    {
        type            calculated;
        value           nonuniform List<scalar> 2(0.00177752 0.00188355);
    }
}


// ************************************************************************* //
