/*--------------------------------*- C++ -*----------------------------------*\
  =========                 |
  \\      /  F ield         | OpenFOAM: The Open Source CFD Toolbox
   \\    /   O peration     | Website:  https://openfoam.org
    \\  /    A nd           | Version:  6
     \\/     M anipulation  |
\*---------------------------------------------------------------------------*/
FoamFile
{
    version     2.0;
    format      ascii;
    class       surfaceScalarField;
    location    "1200";
    object      phi;
}
// * * * * * * * * * * * * * * * * * * * * * * * * * * * * * * * * * * * * * //

dimensions      [1 0 -1 0 0 0 0];

internalField   nonuniform List<scalar> 
852
(
-0.00293604
0.00299229
-0.00397365
0.00103761
-0.0047622
0.000788553
-0.00537929
0.000617092
-0.00579579
0.000416498
-0.0059891
0.000193308
-0.00593736
-5.17421e-05
-0.00562289
-0.000314471
-0.00505765
-0.000565234
-0.00429316
-0.000764491
-0.00340984
-0.000883319
-0.00249648
-0.000913359
-0.00162796
-0.000868523
-0.00082639
-0.000801572
-0.00082495
-0.000674242
0.000676929
-0.000342262
-0.00033198
0.00026619
-0.000608451
0.000739087
-0.000472897
0.00105231
-0.000313219
0.00124654
-0.000194235
0.00135185
-0.000105313
0.00140406
-5.2201e-05
0.00143341
-2.93565e-05
0.00145126
-1.78454e-05
0.00146109
-9.8342e-06
0.00146401
-2.92028e-06
0.00145805
5.95703e-06
0.00143479
2.32643e-05
0.00137171
6.3076e-05
0.00123101
0.000140707
0.00099801
0.000232997
0.000706577
0.000291433
0.000710189
-0.00209445
0.0052382
-0.00309905
0.00204221
-0.00390449
0.001594
-0.00450835
0.00122095
-0.00491495
0.000823105
-0.00511079
0.000389145
-0.00507062
-9.19083e-05
-0.00477976
-0.000605338
-0.00426116
-0.00108383
-0.00357589
-0.00144976
-0.00280601
-0.0016532
-0.00203212
-0.00168725
-0.00132658
-0.00157406
-0.000777894
-0.00135026
-0.000574505
-0.00102834
-7.88024e-05
-0.000495754
-7.88536e-05
0.000381654
0.000302922
0.000805594
-0.00075592
0.00105371
-0.000856569
0.0012621
-0.000681282
0.00141684
-0.000467965
0.00150701
-0.000284401
0.00152081
-0.000119111
0.00152455
-5.5949e-05
0.00152908
-3.38803e-05
0.00153286
-2.16326e-05
0.0015354
-1.23686e-05
0.00153664
-4.16203e-06
0.00153572
6.88011e-06
0.00152906
2.99261e-05
0.00148781
0.00010432
0.00131265
0.000315867
0.00100997
0.000535674
0.000628324
0.000673083
0.00134782
-0.00146581
0.00693565
-0.00232868
0.00290508
-0.00303692
0.00230224
-0.00354805
0.00173208
-0.00389794
0.001173
-0.00406875
0.00055995
-0.00401582
-0.000144836
-0.00371671
-0.000904451
-0.00321591
-0.00158463
-0.00258905
-0.00207661
-0.00191787
-0.00232439
-0.0012667
-0.00233842
-0.000686458
-0.0021543
-0.000228908
-0.00180781
7.58049e-05
-0.00133305
0.000277164
-0.000697113
0.00019831
0.00148311
-0.00117217
0.00169708
-0.000969895
0.0016767
-0.000836182
0.00167755
-0.000682137
0.00169937
-0.000489785
0.00171033
-0.000295357
0.00159137
0.00153557
0.00150185
0.00148037
0.00146815
0.00146414
0.00147118
0.00150125
0.00160573
0.00132492
0.00059667
0.000983677
0.000876921
0.000549621
0.00110714
0.00191162
-0.00102375
0.0082593
-0.00170547
0.0035868
-0.00216656
0.00276332
-0.00249369
0.00205921
-0.00271744
0.00139675
-0.00280592
0.000648434
-0.00268442
-0.000266333
-0.00233989
-0.00124899
-0.0018554
-0.00206912
-0.00131431
-0.0026177
-0.000783911
-0.00285479
-0.000300047
-0.00282228
0.000119386
-0.00257373
0.000469139
-0.00215756
0.000776109
-0.00164002
0.00114466
-0.00106566
0.0019033
-0.000560326
0.00243997
-0.000529403
0.00203769
-0.000769888
0.00191153
-0.000843735
0.00180279
-0.000727451
0.00171047
-0.000589814
0.00166094
-0.000440257
0.00164227
-0.000276679
0.0017563
-0.00011419
0.00182902
-7.28749e-05
0.0018881
-5.9224e-05
0.0019338
-4.58529e-05
0.0019522
-1.85626e-05
0.00192225
2.9803e-05
0.00181917
0.000102929
0.00161054
0.00020847
0.00124224
0.000368153
0.00111168
0.000727233
0.000825291
0.00116331
0.000387835
0.0015446
0.00231807
-0.000717883
0.00933505
-0.00123431
0.00410322
-0.00132098
0.00284999
-0.00137252
0.00211075
-0.00139369
0.00141792
-0.00130534
0.00056008
-0.00102643
-0.000545247
-0.000618277
-0.00165714
-0.000186561
-0.00250084
0.000202165
-0.00300642
0.00052091
-0.00317354
0.000766919
-0.00306829
0.000952998
-0.00275981
0.00110741
-0.00231197
0.00126065
-0.00179327
0.00146426
-0.00126928
0.00174846
-0.000844525
0.00188641
-0.00066735
0.00178935
-0.000672832
0.00161538
-0.000669765
0.00146959
-0.00058166
0.001351
-0.000471219
0.00127033
-0.000359585
0.00124059
-0.000246942
0.00128261
-0.000156217
0.00133068
-0.000120944
0.00138362
-0.000112161
0.00143802
-0.000100254
0.00148339
-6.39339e-05
0.0015002
1.29935e-05
0.00146791
0.000135221
0.00137454
0.00030184
0.00122074
0.000521952
0.0010866
0.000861376
0.00094268
0.00130722
0.000623516
0.00186376
0.000551419
0.00239017
-0.000969477
0.00152069
-0.00143214
0.000462464
-0.00138516
-0.00062667
0.0103685
-0.00098019
0.00445674
-0.000553204
0.002423
-0.000187519
0.00174507
9.393e-05
0.00113648
0.00048274
0.00017127
0.000980391
-0.0010429
0.00140093
-0.00207767
0.00168698
-0.00278689
0.00183418
-0.00315363
0.00187189
-0.00321124
0.00182856
-0.00302497
0.00173435
-0.00266559
0.00162533
-0.00220295
0.00153455
-0.00170249
0.0014877
-0.00122243
0.00147896
-0.000835782
0.00142478
-0.000613172
0.00128118
-0.00052923
0.00109158
-0.000480164
0.000925081
-0.000415161
0.00079848
-0.000344618
0.000717679
-0.000278783
0.000690138
-0.000219401
0.000712785
-0.000178863
0.00076136
-0.000169519
0.000825121
-0.000175921
0.000899466
-0.000174599
0.000978859
-0.000143327
0.00105145
-5.95958e-05
0.00109956
8.7108e-05
0.00111879
0.000282614
0.00111711
0.000523635
0.00114184
0.00083664
0.00124058
0.00120849
0.00142653
0.0016778
0.00186894
0.00194776
0.00212944
0.0012602
0.00174109
0.000850814
0.000412486
-0.000681181
0.0115007
-0.000560033
0.0043356
0.00057604
0.00128693
0.00137156
0.000949542
0.00205617
0.000451865
0.00275674
-0.000529297
0.00330066
-0.00158682
0.00358765
-0.00236466
0.00362232
-0.00282156
0.00345007
-0.00298139
0.00313295
-0.00289412
0.0027321
-0.00262411
0.00230074
-0.00223424
0.00188558
-0.00178779
0.00152207
-0.00133898
0.00122636
-0.000926727
0.000997005
-0.000606424
0.000798873
-0.00041504
0.000599284
-0.000329641
0.000409463
-0.000290343
0.000254428
-0.000260127
0.000143942
-0.000234132
7.91047e-05
-0.000213946
6.0188e-05
-0.000200485
8.05267e-05
-0.000199202
0.000125169
-0.000214161
0.000184797
-0.000235549
0.000258406
-0.000248207
0.000350118
-0.00023504
0.000464824
-0.000174302
0.000590373
-3.84405e-05
0.000716093
0.000156894
0.000852753
0.000386975
0.00103827
0.000651128
0.00132086
0.000925896
0.00176198
0.00123668
0.00242813
0.00128161
0.00296857
0.000719748
0.0029923
0.000827086
0.00346603
0.00259516
0.00941016
0.00330012
0.00363064
0.00370285
0.000884196
0.00439225
0.000260146
0.00520674
-0.00036263
0.00583593
-0.00115848
0.00605725
-0.00180813
0.00589935
-0.00220676
0.00543895
-0.00236116
0.00476822
-0.00231065
0.00398252
-0.00210842
0.00316591
-0.00180751
0.00237989
-0.00144821
0.00167348
-0.00108137
0.00107947
-0.000744974
0.000604314
-0.000451573
0.000253325
-0.000255434
-1.97078e-06
-0.000159744
-0.00019824
-0.000133372
-0.000352185
-0.000136398
-0.000468462
-0.00014385
-0.000549353
-0.00015324
-0.000598436
-0.000164863
-0.000619309
-0.000179612
-0.00061866
-0.000199851
-0.000606538
-0.000226283
-0.000588728
-0.00025336
-0.000564342
-0.000272593
-0.000525112
-0.00027427
-0.000452389
-0.000247026
-0.00031716
-0.00017367
-0.000134989
-2.52767e-05
7.92079e-05
0.000172778
0.000348894
0.000381442
0.000685769
0.000589021
0.00113053
0.000791916
0.00162036
0.00079179
0.00182932
0.000510783
0.00108797
0.00156844
0.00480352
0.00996371
0.0135863
0.0124558
0.00201474
0.0117487
0.000967215
0.0110929
0.000293211
0.0102128
-0.000278379
0.00906768
-0.000663062
0.00776228
-0.000901361
0.00639073
-0.000989613
0.00502659
-0.000946515
0.0037369
-0.000818728
0.00257439
-0.000644992
0.00156001
-0.000433837
0.000718273
-0.000239637
5.60411e-05
-8.27422e-05
-0.000410828
1.52958e-05
-0.000699511
3.32488e-05
-0.000878523
1.92678e-05
-0.00100535
-6.54676e-06
-0.00110712
-3.46234e-05
-0.00119009
-6.08863e-05
-0.00125694
-8.63852e-05
-0.00131137
-0.000110436
-0.00135764
-0.000133336
-0.00140238
-0.000155113
-0.00145394
-0.000174726
-0.00151991
-0.000187386
-0.00160753
-0.000184981
-0.00172543
-0.000156363
-0.00188403
-8.84315e-05
-0.00208897
3.12698e-05
-0.00232704
0.0002128
-0.00262453
0.000470264
-0.00306334
0.000820254
-0.00373528
0.00126096
-0.00470707
0.00176371
-0.00609497
0.00217969
-0.00778073
0.00219655
-0.007308
0.00109571
-0.00222844
0.00467897
0.00351306
0.00379358
0.00185261
0.00417613
-8.93414e-05
0.00418265
-0.000284896
0.00377882
-0.000259233
0.00314811
-0.000270654
0.00239702
-0.000238524
0.00159347
-0.00014296
0.000779737
-4.99865e-06
7.96784e-06
0.000126777
-0.000631376
0.000205506
-0.00108351
0.000212494
-0.00137078
0.000204533
-0.00153458
0.000179096
-0.0016373
0.000135963
-0.00171091
9.28813e-05
-0.0017723
5.48396e-05
-0.00183028
2.33578e-05
-0.0018896
-1.5657e-06
-0.00195202
-2.39658e-05
-0.00201826
-4.41927e-05
-0.00209016
-6.14358e-05
-0.00217099
-7.4285e-05
-0.00226325
-8.2468e-05
-0.00236788
-8.2753e-05
-0.00248379
-6.90673e-05
-0.00260696
-3.31991e-05
-0.00272964
3.42486e-05
-0.00283973
0.000141359
-0.00293397
0.000307047
-0.00302014
0.000556432
-0.00310366
0.000903775
-0.00318029
0.00133758
-0.00320469
0.0017881
-0.00312436
0.00209936
-0.00275991
0.0018321
-0.00149817
-0.000166035
-0.00365454
-0.00054042
0.00411818
0.000296097
0.0010161
-8.08539e-05
0.000287609
-0.000452795
8.70447e-05
-0.000781481
6.9453e-05
-0.00114121
8.90721e-05
-0.00150737
0.000127638
-0.00182704
0.000176715
-0.00205352
0.000221474
-0.00218029
0.000253551
-0.00223767
0.000262891
-0.0022631
0.00023792
-0.00226162
0.00020305
-0.00224967
0.000167149
-0.00224613
0.000132417
-0.00225589
0.000102646
-0.00227888
7.78249e-05
-0.00231287
5.73501e-05
-0.00235487
4.04388e-05
-0.00240604
2.72027e-05
-0.00246526
1.50272e-05
-0.00253031
3.6119e-06
-0.00259843
-6.16756e-06
-0.00266739
-1.35084e-05
-0.00273333
-1.68049e-05
-0.00278941
-1.29924e-05
-0.00282477
2.15835e-06
-0.00282918
3.86599e-05
-0.00279259
0.000104769
-0.00269339
0.000207848
-0.00250026
0.000363302
-0.00218646
0.000589979
-0.00173296
0.000884075
-0.00111166
0.00116681
-0.000151431
0.00113913
0.00114461
0.000536063
0.00158183
-0.000603252
-0.00199377
-0.00723197
-0.0101329
-0.00597189
-0.00493583
-0.00463704
-0.00454307
-0.00446931
-0.00437792
-0.00424956
-0.0040735
-0.0038539
-0.00360336
-0.00334461
-0.00311187
-0.0029149
-0.00275454
-0.00262947
-0.0025346
-0.00246488
-0.00241589
-0.00238399
-0.00236545
-0.00235918
-0.00236434
-0.00237927
-0.00240146
-0.00242683
-0.00244823
-0.00245427
-0.00242357
-0.0023265
-0.00212606
-0.00176988
-0.00118675
-0.000309271
0.000851157
0.00198387
0.00251328
0.00190298
)
;

boundaryField
{
    floor
    {
        type            calculated;
        value           nonuniform List<scalar> 
29
(
0
0
0
0
0
0
0
0
0
0
0
0
0
0
0
0
0
0
0
0
-3.61162e-06
-9.3029e-06
-1.41873e-05
-1.86097e-05
-1.43987e-06
-2.68664e-06
-7.64677e-06
-8.01233e-06
-7.27117e-06
)
;
    }
    ceiling
    {
        type            calculated;
        value           nonuniform List<scalar> 
43
(
-4.54218e-05
-4.41006e-05
-4.2791e-05
-1.99604e-05
-1.11824e-05
-6.9275e-06
-4.30442e-06
-2.32357e-06
-7.1595e-07
6.50085e-07
1.87172e-06
3.01911e-06
4.13805e-06
5.18072e-06
6.07484e-06
6.79227e-06
7.34947e-06
7.7779e-06
8.10588e-06
8.3543e-06
8.53837e-06
8.66797e-06
8.74931e-06
8.78023e-06
8.75641e-06
8.68386e-06
8.56658e-06
8.4059e-06
8.20296e-06
7.95838e-06
7.69081e-06
7.41064e-06
7.12605e-06
6.84781e-06
6.59556e-06
6.38365e-06
6.41567e-06
6.65278e-06
7.04262e-06
8.26955e-06
1.10878e-05
8.03905e-06
-6.47013e-05
)
;
    }
    sWall
    {
        type            calculated;
        value           uniform -0.000274867;
    }
    nWall
    {
        type            calculated;
        value           nonuniform List<scalar> 6(-4.7185e-05 -5.65644e-05 -6.12407e-05 -7.20638e-05 -7.89477e-05 -9.90507e-05);
    }
    sideWalls
    {
        type            empty;
        value           nonuniform 0();
    }
    glass1
    {
        type            calculated;
        value           nonuniform List<scalar> 9(-5.62537e-05 -0.000151463 -0.000231636 -0.000299899 -0.000357863 -0.000406757 -0.000451022 -0.000504646 -0.000564636);
    }
    glass2
    {
        type            calculated;
        value           nonuniform List<scalar> 2(-0.000249527 -0.000276042);
    }
    sun
    {
        type            calculated;
        value           uniform 0;
    }
    heatsource1
    {
        type            calculated;
        value           nonuniform List<scalar> 3(2.03962e-07 2.03918e-07 2.03935e-07);
    }
    heatsource2
    {
        type            calculated;
        value           nonuniform List<scalar> 4(5.10989e-08 5.1221e-08 0 0);
    }
    Table_master
    {
        type            calculated;
        value           nonuniform List<scalar> 9(-1.5297e-07 -1.53052e-07 -1.53081e-07 -1.531e-07 -1.53114e-07 -1.53124e-07 -1.53127e-07 -1.53121e-07 -1.53088e-07);
    }
    Table_slave
    {
        type            calculated;
        value           nonuniform List<scalar> 9(1.52848e-07 1.52874e-07 1.52856e-07 1.52842e-07 1.52837e-07 1.52841e-07 1.52857e-07 1.52899e-07 1.52979e-07);
    }
    inlet
    {
        type            calculated;
        value           uniform -0.00617729;
    }
    outlet
    {
        type            calculated;
        value           nonuniform List<scalar> 2(0.00755226 0.00294499);
    }
}


// ************************************************************************* //
