/*--------------------------------*- C++ -*----------------------------------*\
  =========                 |
  \\      /  F ield         | OpenFOAM: The Open Source CFD Toolbox
   \\    /   O peration     | Website:  https://openfoam.org
    \\  /    A nd           | Version:  6
     \\/     M anipulation  |
\*---------------------------------------------------------------------------*/
FoamFile
{
    version     2.0;
    format      ascii;
    class       volScalarField;
    location    "300";
    object      alphat;
}
// * * * * * * * * * * * * * * * * * * * * * * * * * * * * * * * * * * * * * //

dimensions      [1 -1 -1 0 0 0 0];

internalField   nonuniform List<scalar> 
459
(
0.00121628
0.00133616
0.00137511
0.00144515
0.00151138
0.00157668
0.00164579
0.00170189
0.00173721
0.00174267
0.00171059
0.00163274
0.00145659
0.00122104
0.0010049
0.000418474
0.000516169
0.000620351
0.000687708
0.000703941
0.000688927
0.000640871
0.000589022
0.000542897
0.000503219
0.000469064
0.000439485
0.00041355
0.000390732
0.000369949
0.000349937
0.000328754
0.000301465
0.000266745
0.00160701
0.00390858
0.00374201
0.00433021
0.00493435
0.00550966
0.00592599
0.00634786
0.0067474
0.00708074
0.00729478
0.00733925
0.00711902
0.00642501
0.00441687
0.00126625
0.00096615
0.000443738
0.00127806
0.00181189
0.00227076
0.0025866
0.00258238
0.00179044
0.00146431
0.00125174
0.0010994
0.000985576
0.0008979
0.000829344
0.000763653
0.00069384
0.000627205
0.000570191
0.000474892
0.000285715
0.00192853
0.00525792
0.00458802
0.00543295
0.00582907
0.00612247
0.00635552
0.00666729
0.0070699
0.00754843
0.00802628
0.00842208
0.00856398
0.00826344
0.00724482
0.0048776
0.00125772
0.000635611
0.00145129
0.00205126
0.00267571
0.00317433
0.00312439
0.000907315
0.000777219
0.000672241
0.000588623
0.000521941
0.000468515
0.00042553
0.0003918
0.000367062
0.000408153
0.000474899
0.000475098
0.000295812
0.00223312
0.00653069
0.00455046
0.0055482
0.00567654
0.00568655
0.00578208
0.00600839
0.00640195
0.00698161
0.0076264
0.00822847
0.00856775
0.00862077
0.00825444
0.00698399
0.00384595
0.00141599
0.00154728
0.00197655
0.00267881
0.00347193
0.00409168
0.00397954
0.0010418
0.000935739
0.000854338
0.00078918
0.000733408
0.000682482
0.000633308
0.000583332
0.00052885
0.000467812
0.000458682
0.000482129
0.000314647
0.00254252
0.0081839
0.00475935
0.00536169
0.00546411
0.00533515
0.00537061
0.00554346
0.0059214
0.0065621
0.00726595
0.00787418
0.0082588
0.00839401
0.00827979
0.00775621
0.00644616
0.00523251
0.00511848
0.0052844
0.00559285
0.00589343
0.0060554
0.00589839
0.00492121
0.00432889
0.00392757
0.00355536
0.00317783
0.00278436
0.00236545
0.00191796
0.00145485
0.00103511
0.000758566
0.000654954
0.000461372
0.000357983
0.000459106
0.000594965
0.00287396
0.0100525
0.00620856
0.00527007
0.00552638
0.00537876
0.00533435
0.00543067
0.00578114
0.00640472
0.00714034
0.00776222
0.00812028
0.00821165
0.00813935
0.00798317
0.00767925
0.00746261
0.00756349
0.00768146
0.00774776
0.00770466
0.00752404
0.00717809
0.00661914
0.00605683
0.00550114
0.00496296
0.00443168
0.00389477
0.00333991
0.00276446
0.0021894
0.001666
0.00126751
0.00104747
0.000846974
0.000690598
0.00077033
0.000547006
0.00319023
0.0114226
0.00869984
0.0063667
0.00608683
0.00583361
0.00554455
0.00550397
0.00584407
0.0065196
0.00731104
0.0079519
0.00828312
0.00833598
0.00829828
0.00837785
0.0085798
0.00879723
0.00897954
0.00900174
0.00884409
0.00853742
0.00811367
0.00759533
0.00700344
0.00639225
0.00579598
0.00522793
0.00467937
0.00414144
0.00360161
0.00306436
0.00256121
0.00211537
0.00175421
0.00150545
0.00131285
0.0011105
0.00111614
0.000669222
0.00326519
0.0104154
0.00893499
0.00776719
0.00701257
0.00614232
0.00559179
0.00555993
0.00605678
0.00690901
0.00779923
0.00844187
0.00872588
0.00877403
0.00883321
0.00907138
0.00927907
0.00937752
0.00934095
0.00912471
0.00873029
0.00819997
0.00758046
0.00692292
0.00627353
0.00566312
0.00509795
0.00457322
0.00408315
0.00362549
0.00320018
0.00281327
0.00247503
0.00218948
0.00195825
0.00175834
0.00153738
0.00138092
0.00146155
0.000747077
0.00319432
0.00383313
0.00429711
0.00441705
0.00439192
0.00445374
0.00476892
0.00547687
0.00656758
0.00775809
0.00868254
0.00916878
0.00928646
0.00936589
0.00928571
0.00910252
0.00892944
0.0087324
0.00843418
0.0079954
0.00743333
0.00679892
0.00614896
0.005534
0.00498622
0.00451131
0.00409491
0.00371846
0.00336594
0.00302374
0.0026822
0.00234347
0.00203147
0.00178334
0.00161369
0.00150167
0.00142254
0.00137211
0.00132663
0.00114219
0.00177086
0.00283983
0.00380225
0.00486307
0.00602095
0.00731902
0.00861196
0.00948682
0.00977836
0.00972558
0.00930635
0.00882059
0.00837865
0.00801945
0.00772436
0.00742561
0.00707641
0.00667814
0.00626295
0.00586726
0.00551581
0.00521854
0.00497192
0.00476291
0.00457344
0.00438353
0.00417316
0.00392573
0.00363434
0.0033076
0.00296912
0.00264858
0.00237433
0.00216881
0.00203313
0.00196792
0.00187317
0.00138282
0.0020539
0.00386277
0.00544534
0.00674557
0.00776676
0.008857
0.00982703
0.0100085
0.00950338
0.0087576
0.00808151
0.0075747
0.00724365
0.0070305
0.00687623
0.00674028
0.00660394
0.00646551
0.00633151
0.00620924
0.00610355
0.00601639
0.00594696
0.00589125
0.00584062
0.0057811
0.00569366
0.00555615
0.00534767
0.00505554
0.00468395
0.00425955
0.00382527
0.00341536
0.00303046
0.00293875
0.00329367
0.00156413
0.00206202
0.00196144
0.00199339
0.00212393
0.0020291
0.00196924
0.00202661
0.00206015
0.00203714
0.00195668
0.0018687
0.00177493
0.00170573
0.00166422
0.0016417
0.00163041
0.0016245
0.00162017
0.00161554
0.00161026
0.0016048
0.00159986
0.001596
0.00159344
0.00159202
0.0015911
0.00158962
0.00158617
0.00157912
0.00156691
0.00154838
0.00152318
0.00149198
0.00145619
0.00141657
0.0013702
0.00131
0.00128104
0.00128742
0.00125876
)
;

boundaryField
{
    floor
    {
        type            compressible::alphatWallFunction;
        Prt             0.85;
        value           nonuniform List<scalar> 
29
(
0.000143115
5.67302e-05
7.18283e-05
8.7537e-05
9.75185e-05
9.99066e-05
9.76991e-05
9.05927e-05
8.28516e-05
7.58943e-05
6.98504e-05
6.45996e-05
6.00131e-05
5.59593e-05
5.23656e-05
4.90688e-05
4.58714e-05
4.24607e-05
3.80234e-05
3.22991e-05
3.22986e-05
3.54387e-05
3.70988e-05
4.01757e-05
0.000143113
5.67295e-05
6.0673e-05
8.97912e-05
0.000199786
)
;
    }
    ceiling
    {
        type            compressible::alphatWallFunction;
        Prt             0.85;
        value           nonuniform List<scalar> 
43
(
0.000285401
0.000272216
0.000276367
0.000293385
0.000281124
0.00027336
0.000280849
0.000285216
0.000282229
0.000271747
0.000260229
0.000247888
0.000238737
0.000233229
0.000230235
0.000228733
0.000227946
0.00022737
0.000226753
0.000226049
0.00022532
0.00022466
0.000224144
0.000223802
0.000223612
0.000223489
0.000223292
0.000222831
0.000221889
0.000220256
0.000217776
0.000214396
0.000210203
0.000205381
0.000200027
0.000193737
0.000185539
0.00018158
0.000182455
0.00017853
0.000428964
0.000507393
0.000284171
)
;
    }
    sWall
    {
        type            compressible::alphatWallFunction;
        Prt             0.85;
        value           uniform 0.00028435;
    }
    nWall
    {
        type            compressible::alphatWallFunction;
        Prt             0.85;
        value           nonuniform List<scalar> 6(8.36244e-05 7.63952e-05 9.46759e-05 0.000195184 0.000219622 0.000178259);
    }
    sideWalls
    {
        type            empty;
    }
    glass1
    {
        type            compressible::alphatWallFunction;
        Prt             0.85;
        value           nonuniform List<scalar> 9(0.000168937 0.000221266 0.000263346 0.000302568 0.000341872 0.000383449 0.000422687 0.000432025 0.000423461);
    }
    glass2
    {
        type            compressible::alphatWallFunction;
        Prt             0.85;
        value           nonuniform List<scalar> 2(0.0001058 0.000161801);
    }
    sun
    {
        type            compressible::alphatWallFunction;
        Prt             0.85;
        value           nonuniform List<scalar> 
14
(
0.000172549
0.000188957
0.000194254
0.00020374
0.000212661
0.000221415
0.000230635
0.000238088
0.000242764
0.000243485
0.000239237
0.000228891
0.000205269
0.000173182
)
;
    }
    heatsource1
    {
        type            compressible::alphatWallFunction;
        Prt             0.85;
        value           nonuniform List<scalar> 3(4.71514e-05 6.30487e-05 8.37369e-05);
    }
    heatsource2
    {
        type            compressible::alphatWallFunction;
        Prt             0.85;
        value           nonuniform List<scalar> 4(0.000179394 0.000137646 0.000137645 0.000178219);
    }
    Table_master
    {
        type            compressible::alphatWallFunction;
        Prt             0.85;
        value           nonuniform List<scalar> 9(0.000129287 0.000110587 9.5223e-05 8.27764e-05 7.26944e-05 6.45001e-05 5.78214e-05 5.25203e-05 4.8595e-05);
    }
    Table_slave
    {
        type            compressible::alphatWallFunction;
        Prt             0.85;
        value           nonuniform List<scalar> 9(0.000148292 0.000133333 0.000121717 0.000112324 0.000104211 9.67374e-05 8.94561e-05 8.19846e-05 7.37486e-05);
    }
    inlet
    {
        type            fixedValue;
        value           uniform 1.94e-05;
    }
    outlet
    {
        type            zeroGradient;
    }
}


// ************************************************************************* //
