/*--------------------------------*- C++ -*----------------------------------*\
  =========                 |
  \\      /  F ield         | OpenFOAM: The Open Source CFD Toolbox
   \\    /   O peration     | Website:  https://openfoam.org
    \\  /    A nd           | Version:  6
     \\/     M anipulation  |
\*---------------------------------------------------------------------------*/
FoamFile
{
    version     2.0;
    format      ascii;
    class       volScalarField;
    location    "1100";
    object      nut;
}
// * * * * * * * * * * * * * * * * * * * * * * * * * * * * * * * * * * * * * //

dimensions      [0 2 -1 0 0 0 0];

internalField   nonuniform List<scalar> 
459
(
0.000758566
0.000826796
0.000762602
0.000743407
0.000703725
0.000644436
0.000590471
0.000550533
0.000520636
0.000495529
0.000472144
0.000449459
0.000428326
0.000428176
0.000461687
0.000432974
0.000463443
0.000345463
0.00028696
0.000248012
0.000224045
0.000225945
0.000235859
0.00024819
0.000264712
0.000274498
0.000285322
0.000301574
0.000321403
0.000316831
0.000331519
0.000374257
0.000491122
0.000439106
0.00100198
0.00293716
0.00243358
0.00237221
0.00278947
0.00310376
0.00317425
0.0030882
0.00290959
0.0026705
0.00238516
0.00207155
0.00176434
0.00148763
0.00144012
0.000530062
0.000420525
0.000668357
0.00199346
0.00154066
0.00137129
0.00111121
0.00061435
0.000358816
0.000321552
0.000311936
0.000372803
0.00047625
0.000626325
0.000789402
0.000895071
0.00091788
0.00137799
0.00157099
0.00202291
0.000723862
0.00121143
0.00215664
0.0024101
0.00253976
0.0030521
0.00368773
0.00409941
0.00416458
0.00397836
0.00364053
0.00320361
0.00270317
0.002192
0.00175263
0.00144746
0.00113415
0.000794071
0.000949329
0.00301236
0.00265246
0.0023126
0.00173777
0.00111087
0.000481775
0.000394012
0.000336262
0.00039406
0.000460608
0.000529091
0.000608305
0.000709138
0.000851229
0.00234335
0.00265883
0.00348836
0.00104333
0.00177583
0.00281611
0.00272314
0.00291792
0.0034111
0.00395854
0.00456605
0.00478107
0.00467105
0.00437856
0.00399198
0.00357869
0.00316692
0.00277536
0.00241149
0.00203851
0.00159652
0.00107287
0.00303185
0.00384227
0.00325509
0.00244765
0.00171454
0.00115352
0.000801481
0.000819034
0.000841814
0.000868957
0.000899987
0.000938861
0.000991371
0.00106777
0.00118965
0.00315756
0.00341951
0.0040459
0.00132851
0.00239079
0.00437164
0.00312115
0.00293215
0.00343221
0.0040828
0.00492978
0.00531157
0.00535065
0.00526275
0.00514487
0.00504726
0.00501999
0.00508098
0.00521633
0.00535834
0.00541357
0.00543387
0.00560961
0.00552927
0.00520522
0.00487703
0.0046259
0.00447901
0.0044356
0.00449747
0.00451687
0.00447911
0.00441875
0.00433917
0.00424213
0.00413198
0.00401461
0.00389089
0.00353994
0.00311633
0.0026314
0.00189891
0.00209411
0.00219495
0.0030795
0.00611468
0.00409655
0.00318838
0.00321939
0.00426129
0.00522602
0.00564508
0.00573847
0.00579579
0.00589558
0.00605445
0.00627333
0.00653947
0.00682257
0.00706955
0.00721022
0.0072495
0.00721444
0.00713499
0.00702073
0.00690804
0.00682033
0.00676339
0.00672936
0.0066961
0.00663394
0.00655324
0.00645644
0.00634112
0.00620253
0.00603581
0.0058416
0.00563686
0.00547078
0.00544879
0.00566179
0.00619412
0.00685695
0.00280832
0.00381277
0.00620876
0.00479263
0.00367269
0.00336727
0.00461516
0.0052988
0.00560099
0.00574135
0.00596145
0.00625844
0.0066096
0.0069932
0.00739041
0.00778145
0.00814063
0.0084317
0.0086202
0.00871131
0.00873695
0.00871289
0.00865207
0.00857058
0.00847868
0.00837537
0.00826336
0.00814256
0.00801514
0.00788345
0.00775091
0.00762188
0.00750125
0.00739403
0.00730445
0.00723775
0.00721824
0.00735797
0.00813154
0.0100651
0.00337297
0.0046639
0.00651389
0.00635778
0.00423302
0.00391969
0.0049596
0.00518764
0.00537008
0.00573264
0.00619856
0.00669595
0.00721345
0.00773112
0.0082389
0.00873113
0.00919474
0.00959919
0.00990493
0.0101056
0.0102106
0.0102347
0.0101929
0.0101016
0.00997559
0.00982575
0.00966039
0.00948361
0.00929694
0.00910165
0.00890045
0.00869852
0.00850476
0.00833373
0.00820742
0.0081561
0.00821028
0.00828854
0.00855996
0.0113335
0.00398209
0.00589377
0.00802929
0.0149003
0.00509536
0.00420038
0.00489542
0.0051348
0.00573935
0.00643569
0.00708855
0.00766237
0.00821786
0.00874888
0.00925546
0.0097424
0.0102032
0.0106084
0.0109379
0.0111785
0.0113266
0.0113878
0.0113729
0.011296
0.0111721
0.0110146
0.0108338
0.0106354
0.0104218
0.0101932
0.00994893
0.00968918
0.00941607
0.00913657
0.00886751
0.00864621
0.00854461
0.00863155
0.00892095
0.0108944
0.00394653
0.0220983
0.0123709
0.0053729
0.00653316
0.00721972
0.00779963
0.00826919
0.00866946
0.00904984
0.00946442
0.00991183
0.010374
0.0108266
0.0112458
0.0116108
0.0119056
0.0121219
0.0122583
0.0123195
0.0123139
0.0122522
0.012146
0.0120057
0.0118399
0.0116547
0.0114528
0.0112343
0.0109978
0.0107404
0.01046
0.0101563
0.00983541
0.00951784
0.00925173
0.00911793
0.00917407
0.00882971
0.00269544
0.00958672
0.0140094
0.0112994
0.0100315
0.00921258
0.00876049
0.00857893
0.00859722
0.00878256
0.00912044
0.00958681
0.0101376
0.0107142
0.0112575
0.0117221
0.0120833
0.0123356
0.0124877
0.0125556
0.012558
0.0125126
0.0124342
0.0123342
0.0122203
0.0120965
0.0119641
0.0118219
0.0116674
0.0114971
0.011308
0.0110987
0.0108705
0.0106296
0.0103876
0.0101519
0.00994256
0.00843186
0.00243132
0.00242468
0.00294238
0.00526742
0.0051528
0.00486395
0.00455039
0.00424684
0.00396549
0.00371215
0.00348978
0.00330008
0.00314436
0.00302353
0.00293721
0.00288271
0.00285451
0.00284503
0.00284624
0.00285121
0.00285501
0.00285483
0.00284959
0.0028394
0.00282503
0.00280755
0.00278799
0.0027672
0.00274578
0.00272403
0.00270201
0.00267962
0.00265668
0.00263307
0.00260896
0.00258504
0.00256302
0.00254789
0.00255889
0.00242913
0.002185
)
;

boundaryField
{
    floor
    {
        type            nutkWallFunction;
        Cmu             0.09;
        kappa           0.41;
        E               9.8;
        value           nonuniform List<scalar> 
29
(
5.47163e-05
5.10042e-05
5.49598e-05
3.94588e-05
3.15263e-05
2.61246e-05
2.27433e-05
2.30087e-05
2.44097e-05
2.61352e-05
2.84427e-05
2.98044e-05
3.1299e-05
3.35228e-05
3.62129e-05
3.55912e-05
3.75768e-05
4.32925e-05
5.85275e-05
5.18141e-05
5.1814e-05
8.76311e-05
0.000125863
0.000158897
5.47163e-05
5.10041e-05
8.07995e-05
0.000114768
0.000129342
)
;
    }
    ceiling
    {
        type            nutkWallFunction;
        Cmu             0.09;
        kappa           0.41;
        E               9.8;
        value           nonuniform List<scalar> 
43
(
0.000280428
0.0003355
0.00057278
0.000561328
0.000532438
0.0005009
0.000470171
0.000441499
0.000415509
0.00039255
0.000372848
0.00035659
0.000343917
0.000334831
0.000329077
0.00032609
0.000325077
0.00032519
0.000325698
0.000326082
0.000326043
0.00032547
0.000324374
0.000322838
0.000320972
0.000318885
0.000316668
0.000314383
0.000312061
0.000309711
0.000307319
0.000304868
0.000302344
0.000299765
0.000297203
0.000294842
0.000293213
0.000294367
0.000280469
0.000254125
0.000633972
0.000840405
0.000989262
)
;
    }
    sWall
    {
        type            nutkWallFunction;
        Cmu             0.09;
        kappa           0.41;
        E               9.8;
        value           uniform 0.000280458;
    }
    nWall
    {
        type            nutkWallFunction;
        Cmu             0.09;
        kappa           0.41;
        E               9.8;
        value           nonuniform List<scalar> 6(0.000255154 0.000320713 0.000379756 0.000308811 0.000280658 0.000254126);
    }
    sideWalls
    {
        type            empty;
    }
    glass1
    {
        type            nutkWallFunction;
        Cmu             0.09;
        kappa           0.41;
        E               9.8;
        value           nonuniform List<scalar> 9(9.18716e-05 0.000121098 0.000145507 0.000209311 0.000276396 0.00034943 0.000425387 0.000511716 0.000633775);
    }
    glass2
    {
        type            nutkWallFunction;
        Cmu             0.09;
        kappa           0.41;
        E               9.8;
        value           nonuniform List<scalar> 2(0.000442006 0.000438398);
    }
    sun
    {
        type            nutkWallFunction;
        Cmu             0.09;
        kappa           0.41;
        E               9.8;
        value           nonuniform List<scalar> 
14
(
9.18808e-05
0.000100146
9.23823e-05
9.0043e-05
8.51793e-05
7.785e-05
7.11105e-05
6.60768e-05
6.2281e-05
5.90733e-05
5.60676e-05
5.31338e-05
5.03837e-05
5.03638e-05
)
;
    }
    heatsource1
    {
        type            nutkWallFunction;
        Cmu             0.09;
        kappa           0.41;
        E               9.8;
        value           nonuniform List<scalar> 3(0.000222855 0.000244228 0.000255191);
    }
    heatsource2
    {
        type            nutkWallFunction;
        Cmu             0.09;
        kappa           0.41;
        E               9.8;
        value           nonuniform List<scalar> 4(6.34552e-05 4.93352e-05 4.93352e-05 9.61858e-05);
    }
    Table_master
    {
        type            nutkWallFunction;
        Cmu             0.09;
        kappa           0.41;
        E               9.8;
        value           nonuniform List<scalar> 9(5.7296e-05 4.5871e-05 3.81808e-05 4.58787e-05 5.4565e-05 6.33427e-05 7.33252e-05 8.581e-05 0.000103057);
    }
    Table_slave
    {
        type            nutkWallFunction;
        Cmu             0.09;
        kappa           0.41;
        E               9.8;
        value           nonuniform List<scalar> 9(9.70683e-05 9.91907e-05 0.000101937 0.000105199 0.000108912 0.000113544 0.000119766 0.000128752 0.00014294);
    }
    inlet
    {
        type            calculated;
        value           uniform 0.0220983;
    }
    outlet
    {
        type            calculated;
        value           nonuniform List<scalar> 2(0.00242468 0.00294238);
    }
}


// ************************************************************************* //
