/*--------------------------------*- C++ -*----------------------------------*\
  =========                 |
  \\      /  F ield         | OpenFOAM: The Open Source CFD Toolbox
   \\    /   O peration     | Website:  https://openfoam.org
    \\  /    A nd           | Version:  6
     \\/     M anipulation  |
\*---------------------------------------------------------------------------*/
FoamFile
{
    version     2.0;
    format      ascii;
    class       volScalarField;
    location    "350";
    object      alphat;
}
// * * * * * * * * * * * * * * * * * * * * * * * * * * * * * * * * * * * * * //

dimensions      [1 -1 -1 0 0 0 0];

internalField   nonuniform List<scalar> 
459
(
0.00110476
0.00121022
0.00123745
0.00129988
0.00135862
0.00141507
0.00147259
0.00152493
0.0015617
0.00157605
0.00156183
0.00151523
0.00143453
0.0013155
0.00101796
0.000688193
0.000883493
0.000852535
0.000825243
0.000799401
0.00076834
0.000722535
0.000674769
0.000630807
0.000591513
0.000556751
0.000525892
0.000498132
0.000472661
0.000448527
0.000424389
0.00040052
0.000371548
0.000415588
0.0014925
0.00363317
0.00346263
0.00402216
0.00458906
0.00515586
0.0056328
0.0060399
0.00642657
0.0067596
0.00699586
0.00708979
0.00699715
0.00662207
0.00537402
0.00118198
0.000806703
0.000966559
0.00290049
0.00270464
0.00289719
0.00304472
0.00294935
0.00221392
0.00187097
0.00163926
0.00146612
0.00132825
0.00120944
0.00110352
0.00100425
0.00090932
0.000829742
0.000833383
0.000786418
0.000523408
0.00181537
0.00491683
0.00426315
0.00524649
0.0057219
0.00607853
0.00636547
0.00665754
0.00701404
0.00742174
0.00783453
0.00818083
0.00840068
0.00835658
0.00770423
0.00564571
0.00122068
0.00112421
0.00241376
0.00312535
0.00367735
0.00400152
0.00368467
0.00100029
0.00087166
0.000770769
0.000691355
0.000628137
0.000577416
0.000536472
0.000503779
0.000479387
0.000545222
0.000713525
0.000900862
0.000575886
0.00212428
0.00619715
0.00422509
0.00545058
0.00575719
0.00583273
0.00592541
0.00611707
0.00644466
0.00690555
0.00744915
0.0079731
0.00841698
0.00864171
0.00854031
0.00770821
0.00476208
0.00146447
0.00221617
0.00306278
0.00396859
0.00469045
0.00507244
0.0045677
0.00110324
0.00100178
0.000935253
0.000889473
0.000854938
0.000824171
0.000790373
0.0007562
0.000716242
0.000688227
0.000739916
0.00102944
0.000647969
0.00243857
0.00784351
0.00449894
0.00521621
0.00558453
0.00549607
0.00547131
0.00563108
0.00594354
0.00643714
0.00705495
0.007645
0.0081174
0.00841335
0.00849988
0.00828741
0.00758181
0.00654523
0.00635964
0.00646796
0.00661711
0.0066932
0.00663004
0.00627575
0.00516725
0.00468291
0.00443284
0.00427569
0.00414611
0.00400289
0.00379802
0.00339825
0.00284595
0.0022261
0.00170814
0.00153897
0.00109168
0.000729285
0.000713074
0.000676237
0.002772
0.00966663
0.00601065
0.00506023
0.00546118
0.0055438
0.00537021
0.0054968
0.00577808
0.00626152
0.00689012
0.00751804
0.00800376
0.00827816
0.00836128
0.00832957
0.00825588
0.00819146
0.00819173
0.0081487
0.00800786
0.00776065
0.00742283
0.00700368
0.00650409
0.00612305
0.00584765
0.00563822
0.00546629
0.00530323
0.00510793
0.00480237
0.00433178
0.00371297
0.00304409
0.00251814
0.00195993
0.00150681
0.00161498
0.000829347
0.00308572
0.0110163
0.00853605
0.00625745
0.00590071
0.00585681
0.00565716
0.0056154
0.00583992
0.00634565
0.00702867
0.00770253
0.00820024
0.00845239
0.00851211
0.00853032
0.00863788
0.00878896
0.00882569
0.00866486
0.00833225
0.0078865
0.00739331
0.00691254
0.00649457
0.00617781
0.0059411
0.00575854
0.0056168
0.00549876
0.00536804
0.00518535
0.0049246
0.0045142
0.00399015
0.00345141
0.00286539
0.00228523
0.00210635
0.000976703
0.00315754
0.0101668
0.00874915
0.00773343
0.0071101
0.00638055
0.00584715
0.00572464
0.0060331
0.0066876
0.007496
0.00822088
0.00870136
0.00890567
0.00891947
0.0088955
0.00890387
0.008867
0.00868747
0.00833356
0.00787188
0.00737395
0.00690783
0.00651506
0.00620605
0.00596475
0.00576096
0.00557914
0.00542361
0.00529834
0.00517538
0.00501591
0.0048488
0.00471332
0.00441447
0.00407104
0.00366381
0.00299753
0.00315763
0.00121107
0.00308251
0.00368841
0.00426977
0.00442152
0.00443907
0.0045571
0.0048979
0.00552109
0.00641968
0.0074644
0.00842194
0.00908138
0.00939227
0.00941636
0.00924038
0.00894278
0.00859536
0.00827772
0.00797477
0.00763939
0.00729646
0.00697285
0.00669723
0.0064678
0.00626476
0.00606369
0.00584135
0.00558754
0.00531107
0.00502942
0.00472461
0.00432838
0.00384096
0.00339182
0.00304187
0.00273796
0.00247601
0.00225861
0.0021131
0.00130544
0.00245197
0.004201
0.00507397
0.00595621
0.00682208
0.00772526
0.00860882
0.00937509
0.00984601
0.0099227
0.00970063
0.00927559
0.00876938
0.00836271
0.0080989
0.00792895
0.00780268
0.00769118
0.00758188
0.00746171
0.0073397
0.00720897
0.0070621
0.00688315
0.00664801
0.00633106
0.00591653
0.00541509
0.00486946
0.00430918
0.00376787
0.00330084
0.00293656
0.00268572
0.00251378
0.00236846
0.00227242
0.00157352
0.00230117
0.00447488
0.00617799
0.00735404
0.00830861
0.00915077
0.00987401
0.0104507
0.0105961
0.0102354
0.00966776
0.00914483
0.00877897
0.00857153
0.00848185
0.00845934
0.00846781
0.00848621
0.00850119
0.00849709
0.00846276
0.00839677
0.00833118
0.00826391
0.00817173
0.0080115
0.00772853
0.00728002
0.00670037
0.0060254
0.00530806
0.00461985
0.0040134
0.00352106
0.00314029
0.00286822
0.00373022
0.00179851
0.00170226
0.00184931
0.00200723
0.00205503
0.00200295
0.00207139
0.00215839
0.00223052
0.00227393
0.00227732
0.00224001
0.0021912
0.00213268
0.00208293
0.002051
0.00203345
0.00202496
0.00202119
0.00201917
0.00201701
0.00201366
0.00200938
0.0020051
0.00200309
0.00200017
0.00199358
0.0019788
0.00195117
0.00190898
0.00185764
0.00179825
0.00173575
0.00167557
0.0016219
0.00157869
0.00154707
0.00152222
0.00149568
0.00154614
0.00149714
)
;

boundaryField
{
    floor
    {
        type            compressible::alphatWallFunction;
        Prt             0.85;
        value           nonuniform List<scalar> 
29
(
0.000145178
9.78029e-05
0.000126129
0.000121696
0.000117772
0.000114042
0.000109538
0.000102855
9.58309e-05
8.93121e-05
8.34379e-05
7.82007e-05
7.35173e-05
6.92745e-05
6.53551e-05
6.16165e-05
5.78514e-05
5.41008e-05
4.95084e-05
5.6464e-05
5.64632e-05
7.31372e-05
8.10883e-05
9.18643e-05
0.000145176
9.78018e-05
0.000137941
0.000160041
0.000206592
)
;
    }
    ceiling
    {
        type            compressible::alphatWallFunction;
        Prt             0.85;
        value           nonuniform List<scalar> 
43
(
0.000238242
0.000257646
0.000278304
0.000284579
0.000277838
0.000286759
0.000298042
0.000307358
0.00031295
0.00031339
0.000308595
0.000302308
0.000294749
0.000288305
0.00028416
0.000281879
0.000280776
0.000280285
0.000280023
0.000279741
0.000279306
0.000278749
0.000278192
0.000277929
0.000277549
0.00027669
0.000274763
0.000271156
0.000265637
0.000258904
0.00025109
0.000242834
0.000234855
0.000227712
0.000221943
0.000217709
0.000214376
0.000210809
0.000217585
0.000211007
0.000415203
0.00048988
0.000316255
)
;
    }
    sWall
    {
        type            compressible::alphatWallFunction;
        Prt             0.85;
        value           uniform 0.000237146;
    }
    nWall
    {
        type            compressible::alphatWallFunction;
        Prt             0.85;
        value           nonuniform List<scalar> 6(9.56271e-05 0.000117927 0.000138928 0.000220772 0.000250637 0.000210528);
    }
    sideWalls
    {
        type            empty;
    }
    glass1
    {
        type            compressible::alphatWallFunction;
        Prt             0.85;
        value           nonuniform List<scalar> 9(0.00015414 0.000206617 0.00024922 0.000289261 0.000329401 0.000371418 0.000410497 0.000419468 0.000410325);
    }
    glass2
    {
        type            compressible::alphatWallFunction;
        Prt             0.85;
        value           nonuniform List<scalar> 2(0.000170896 0.000183828);
    }
    sun
    {
        type            compressible::alphatWallFunction;
        Prt             0.85;
        value           nonuniform List<scalar> 
14
(
0.00015735
0.000171948
0.000175696
0.000184254
0.000192262
0.000199922
0.000207692
0.000214732
0.000219661
0.000221581
0.000219677
0.000213425
0.000202549
0.000186381
)
;
    }
    heatsource1
    {
        type            compressible::alphatWallFunction;
        Prt             0.85;
        value           nonuniform List<scalar> 3(0.00010361 0.000101237 9.58183e-05);
    }
    heatsource2
    {
        type            compressible::alphatWallFunction;
        Prt             0.85;
        value           nonuniform List<scalar> 4(0.000167801 0.000114866 0.000114864 0.000173131);
    }
    Table_master
    {
        type            compressible::alphatWallFunction;
        Prt             0.85;
        value           nonuniform List<scalar> 9(0.000142459 0.000124199 0.000109654 9.80443e-05 8.86868e-05 8.10956e-05 7.49074e-05 6.99241e-05 6.61794e-05);
    }
    Table_slave
    {
        type            compressible::alphatWallFunction;
        Prt             0.85;
        value           nonuniform List<scalar> 9(0.000156879 0.000142672 0.000133266 0.000126748 0.000121805 0.000117381 0.000112499 0.000107537 0.000101701);
    }
    inlet
    {
        type            fixedValue;
        value           uniform 1.94e-05;
    }
    outlet
    {
        type            zeroGradient;
    }
}


// ************************************************************************* //
