/*--------------------------------*- C++ -*----------------------------------*\
  =========                 |
  \\      /  F ield         | OpenFOAM: The Open Source CFD Toolbox
   \\    /   O peration     | Website:  https://openfoam.org
    \\  /    A nd           | Version:  6
     \\/     M anipulation  |
\*---------------------------------------------------------------------------*/
FoamFile
{
    version     2.0;
    format      ascii;
    class       volScalarField;
    location    "1900";
    object      epsilon;
}
// * * * * * * * * * * * * * * * * * * * * * * * * * * * * * * * * * * * * * //

dimensions      [0 2 -3 0 0 0 0];

internalField   nonuniform List<scalar> 
459
(
0.000524362
0.000694404
0.000747338
0.00086615
0.000989067
0.00111858
0.00126385
0.00138872
0.00146445
0.00146828
0.00138941
0.00122914
0.000996638
0.000696974
0.000370229
4.64542e-05
7.9141e-05
0.000121122
0.000136772
0.000130464
0.000117074
9.62369e-05
7.72503e-05
6.23552e-05
5.09687e-05
4.22184e-05
3.54153e-05
3.00328e-05
2.57372e-05
2.21997e-05
1.91415e-05
1.63031e-05
1.40439e-05
1.03823e-05
0.00126172
0.00173625
0.00065317
0.000642393
0.000682972
0.000751916
0.000854142
0.000964008
0.0010461
0.00107094
0.0010283
0.00092436
0.000779432
0.000610749
0.000476357
0.000626015
0.00021139
4.85214e-05
0.000113893
0.000138557
0.000137035
0.000124717
0.000110516
0.000105674
8.5067e-05
6.62911e-05
5.16062e-05
4.05008e-05
3.21503e-05
2.58197e-05
2.10242e-05
1.74456e-05
1.51676e-05
1.40436e-05
2.52905e-05
1.90989e-05
0.00222714
0.00402853
0.000783783
0.000617687
0.000666826
0.000776578
0.000931962
0.00108861
0.00119552
0.00122515
0.00117913
0.00106701
0.000917037
0.000748795
0.000614628
0.000555108
0.000729187
0.000276147
0.000243907
0.000212474
0.000182424
0.00015492
0.000139276
0.000273899
0.00018172
0.000124849
8.89576e-05
6.55809e-05
4.98604e-05
3.898e-05
3.13614e-05
2.61171e-05
1.95035e-05
1.60066e-05
4.18746e-05
2.74277e-05
0.00351082
0.00815462
0.00119582
0.00063928
0.000682186
0.000849627
0.00109891
0.00130553
0.00141706
0.0014298
0.00136348
0.00122287
0.00104623
0.000865743
0.000714975
0.000624643
0.000614917
0.0011336
0.000669075
0.000430776
0.000307123
0.000234372
0.000187243
0.000167112
0.000401783
0.000294876
0.000229174
0.000184637
0.000151994
0.000126348
0.000104547
8.48514e-05
6.58771e-05
3.72027e-05
2.33161e-05
6.44578e-05
3.58588e-05
0.00524541
0.0143919
0.00230495
0.000790318
0.000772286
0.00106518
0.00146167
0.00167755
0.00174644
0.001713
0.00160128
0.00142057
0.00119442
0.000956999
0.000746734
0.000589701
0.000497519
0.000467772
0.000401334
0.000336826
0.000281651
0.000234339
0.00019404
0.000163697
0.000157134
0.000142433
0.000127543
0.000113187
9.94635e-05
8.62597e-05
7.36068e-05
6.17935e-05
5.09978e-05
3.83043e-05
2.79248e-05
4.95622e-05
3.8727e-05
6.50408e-05
0.000116542
0.00016579
0.00763569
0.0213645
0.00514841
0.00156544
0.00131576
0.00190262
0.00222245
0.00228943
0.00223661
0.00212027
0.00193954
0.00168864
0.0013841
0.00106663
0.000786647
0.000579009
0.000452819
0.000391429
0.000352995
0.000315247
0.000273664
0.000231482
0.000192534
0.000160704
0.00014014
0.000126696
0.000116245
0.000106184
9.55992e-05
8.4106e-05
7.1983e-05
6.02473e-05
4.97288e-05
4.04097e-05
3.44036e-05
4.0911e-05
4.17406e-05
5.0923e-05
0.00021484
0.00018883
0.01032
0.0255657
0.0105531
0.00496592
0.00405265
0.00388325
0.00356507
0.00323599
0.00295018
0.00268721
0.00239322
0.00203313
0.0016179
0.00119647
0.000836357
0.000582606
0.00043823
0.000370703
0.000332598
0.000295803
0.000254838
0.000213987
0.000177883
0.000149917
0.000132025
0.000122056
0.000115784
0.000110615
0.000105543
9.95639e-05
9.08579e-05
8.12159e-05
7.17433e-05
6.35861e-05
6.08611e-05
6.63069e-05
8.01326e-05
0.000118706
0.00028757
0.000277754
0.0108772
0.0270106
0.0155568
0.0109784
0.00841535
0.0064936
0.00519769
0.00437217
0.00383498
0.00341291
0.00296763
0.00244212
0.00186213
0.0012944
0.000837623
0.000547319
0.000398787
0.000332226
0.000293058
0.000255398
0.000217243
0.000182835
0.000155282
0.000136067
0.000125128
0.000120595
0.000120166
0.000122843
0.000128724
0.000138083
0.000150294
0.000160516
0.00017207
0.000192871
0.000231664
0.000333694
0.000565741
0.00103981
0.00364321
0.000967985
0.0100349
0.016539
0.013118
0.0100756
0.00789452
0.00652429
0.00570531
0.00520221
0.00479937
0.00430975
0.00362175
0.00278661
0.00193694
0.00115743
0.000642792
0.000420319
0.000321327
0.000271038
0.000236123
0.000205061
0.000176875
0.000153215
0.000135386
0.00012382
0.000118101
0.000117325
0.000120914
0.000129248
0.000143566
0.000165734
0.000198225
0.000245092
0.000311581
0.000410266
0.000555209
0.000756399
0.00100131
0.0012417
0.00142956
0.000779164
0.00317401
0.00496707
0.00657321
0.00700161
0.00697454
0.00656585
0.00575172
0.00454157
0.00301393
0.00179695
0.00105876
0.00063435
0.000408388
0.000300226
0.0002458
0.000212973
0.000187932
0.000166551
0.000148505
0.000134093
0.000123272
0.000115655
0.00011085
0.000108772
0.000109871
0.00011512
0.0001259
0.000144089
0.000172415
0.000214619
0.000275908
0.00036329
0.000483213
0.000633955
0.000794186
0.000921069
0.000876987
0.000400005
0.00260118
0.00703218
0.00760715
0.00631484
0.00531003
0.00426194
0.00318074
0.00222744
0.00144813
0.000899912
0.000574395
0.00039705
0.000305443
0.000259637
0.000235786
0.000221914
0.000212405
0.000204859
0.000198295
0.000192256
0.000186478
0.000180812
0.000175288
0.000170182
0.000166111
0.000164148
0.00016583
0.000173133
0.000188498
0.000214996
0.000256601
0.000317506
0.000399084
0.000494319
0.000581729
0.000686471
0.000414435
0.000428294
0.00198836
0.0023754
0.00267701
0.00345838
0.00313483
0.00281423
0.0025429
0.00216578
0.00172724
0.00130618
0.000951505
0.00068842
0.000517717
0.000413216
0.000347337
0.000301988
0.000267351
0.000238592
0.000213875
0.000192874
0.000175561
0.000161688
0.000150838
0.000142641
0.000136939
0.000133855
0.000133759
0.000137172
0.000144704
0.000157032
0.000174964
0.000199596
0.000232434
0.000275329
0.000329353
0.000393333
0.000402108
0.000283825
0.000256978
0.000460434
)
;

boundaryField
{
    floor
    {
        Cmu             0.09;
        kappa           0.41;
        E               9.8;
        type            epsilonWallFunction;
        value           nonuniform List<scalar> 
29
(
0.000370229
4.64542e-05
7.9141e-05
0.000121122
0.000136772
0.000130464
0.000117074
9.62369e-05
7.72503e-05
6.23552e-05
5.09687e-05
4.22184e-05
3.54153e-05
3.00328e-05
2.57372e-05
2.21997e-05
1.91415e-05
1.63031e-05
1.40439e-05
1.03823e-05
1.03823e-05
1.90989e-05
2.74277e-05
3.58588e-05
0.000370229
4.64542e-05
4.85214e-05
0.000276147
0.0011336
)
;
    }
    ceiling
    {
        Cmu             0.09;
        kappa           0.41;
        E               9.8;
        type            epsilonWallFunction;
        value           nonuniform List<scalar> 
43
(
0.00198836
0.0023754
0.00267701
0.00345838
0.00313483
0.00281423
0.0025429
0.00216578
0.00172724
0.00130618
0.000951505
0.00068842
0.000517717
0.000413216
0.000347337
0.000301988
0.000267351
0.000238592
0.000213875
0.000192874
0.000175561
0.000161688
0.000150838
0.000142641
0.000136939
0.000133855
0.000133759
0.000137172
0.000144704
0.000157032
0.000174964
0.000199596
0.000232434
0.000275329
0.000329353
0.000393333
0.000402108
0.000283825
0.000256978
0.000460434
0.0100349
0.016539
0.00260118
)
;
    }
    sWall
    {
        Cmu             0.09;
        kappa           0.41;
        E               9.8;
        type            epsilonWallFunction;
        value           uniform 0.00198836;
    }
    nWall
    {
        Cmu             0.09;
        kappa           0.41;
        E               9.8;
        type            epsilonWallFunction;
        value           nonuniform List<scalar> 6(0.00016579 0.00018883 0.000277754 0.000400005 0.000428294 0.000460434);
    }
    sideWalls
    {
        type            empty;
    }
    glass1
    {
        Cmu             0.09;
        kappa           0.41;
        E               9.8;
        type            epsilonWallFunction;
        value           nonuniform List<scalar> 9(0.000524362 0.00126172 0.00222714 0.00351082 0.00524541 0.00763569 0.01032 0.0108772 0.0100349);
    }
    glass2
    {
        Cmu             0.09;
        kappa           0.41;
        E               9.8;
        type            epsilonWallFunction;
        value           nonuniform List<scalar> 2(0.000967985 0.000779164);
    }
    sun
    {
        Cmu             0.09;
        kappa           0.41;
        E               9.8;
        type            epsilonWallFunction;
        value           nonuniform List<scalar> 
14
(
0.000524362
0.000694404
0.000747338
0.00086615
0.000989067
0.00111858
0.00126385
0.00138872
0.00146445
0.00146828
0.00138941
0.00122914
0.000996638
0.000696974
)
;
    }
    heatsource1
    {
        Cmu             0.09;
        kappa           0.41;
        E               9.8;
        type            epsilonWallFunction;
        value           nonuniform List<scalar> 3(6.50408e-05 0.000116542 0.00016579);
    }
    heatsource2
    {
        Cmu             0.09;
        kappa           0.41;
        E               9.8;
        type            epsilonWallFunction;
        value           nonuniform List<scalar> 4(0.000626015 0.00021139 0.00021139 0.000729187);
    }
    Table_master
    {
        Cmu             0.09;
        kappa           0.41;
        E               9.8;
        type            epsilonWallFunction;
        value           nonuniform List<scalar> 9(0.000273899 0.00018172 0.000124849 8.89576e-05 6.55809e-05 4.98604e-05 3.898e-05 3.13614e-05 2.61171e-05);
    }
    Table_slave
    {
        Cmu             0.09;
        kappa           0.41;
        E               9.8;
        type            epsilonWallFunction;
        value           nonuniform List<scalar> 9(0.000401783 0.000294876 0.000229174 0.000184637 0.000151994 0.000126348 0.000104547 8.48514e-05 6.58771e-05);
    }
    inlet
    {
        type            turbulentMixingLengthDissipationRateInlet;
        mixingLength    0.01;
        phi             phi;
        k               k;
        value           uniform 0.000101881;
    }
    outlet
    {
        type            zeroGradient;
    }
}


// ************************************************************************* //
