/*--------------------------------*- C++ -*----------------------------------*\
  =========                 |
  \\      /  F ield         | OpenFOAM: The Open Source CFD Toolbox
   \\    /   O peration     | Website:  https://openfoam.org
    \\  /    A nd           | Version:  6
     \\/     M anipulation  |
\*---------------------------------------------------------------------------*/
FoamFile
{
    version     2.0;
    format      ascii;
    class       volScalarField;
    location    "1300";
    object      alphat;
}
// * * * * * * * * * * * * * * * * * * * * * * * * * * * * * * * * * * * * * //

dimensions      [1 -1 -1 0 0 0 0];

internalField   nonuniform List<scalar> 
459
(
0.00125426
0.00137155
0.00139728
0.00146452
0.00152677
0.00158505
0.00164219
0.00169792
0.00173714
0.00175349
0.00174108
0.00169629
0.00161893
0.00151544
0.00140181
0.000550841
0.000673399
0.000757524
0.00075281
0.000726847
0.000692753
0.000650018
0.000607676
0.000569231
0.000535084
0.000504836
0.000477954
0.000454043
0.000432569
0.000412767
0.000393639
0.000373724
0.00035945
0.000327352
0.00170742
0.00417755
0.00399955
0.00465552
0.00530076
0.00594582
0.0065145
0.00694322
0.00733075
0.00764553
0.00784361
0.00787527
0.00766484
0.00702208
0.00525584
0.00142973
0.000839524
0.000595385
0.00125029
0.00172635
0.00206597
0.00224484
0.00223513
0.00179707
0.00154998
0.00137285
0.00123665
0.00112823
0.00103997
0.000963939
0.000893213
0.000824784
0.00076404
0.000711365
0.000834255
0.000427307
0.00208386
0.00570559
0.00496422
0.00622253
0.0068523
0.00732075
0.00768534
0.00797727
0.00829354
0.00862271
0.00892571
0.00914763
0.00922773
0.00907581
0.00845278
0.00651524
0.00142333
0.0011872
0.00170591
0.00218421
0.00260814
0.00289262
0.00280893
0.000930624
0.000821759
0.000734309
0.000663745
0.000606256
0.00055892
0.000519639
0.000487069
0.000460647
0.000496082
0.000572962
0.000938941
0.000494132
0.0024446
0.00728928
0.00498069
0.00658572
0.0071377
0.00732851
0.00745508
0.00760876
0.00786292
0.00820106
0.00858234
0.00893844
0.00920628
0.00931454
0.00918038
0.00851118
0.00622132
0.00170238
0.00211089
0.00272334
0.00331013
0.00376886
0.0040425
0.00377825
0.00105008
0.000955871
0.000888341
0.000836842
0.000793131
0.00075312
0.000714775
0.000674631
0.000628163
0.000588818
0.000601391
0.00107247
0.000545982
0.00281211
0.00932161
0.0054763
0.00634463
0.00707338
0.00712566
0.00707123
0.00715808
0.00738338
0.00772738
0.00815468
0.00857139
0.00888985
0.00904005
0.00899779
0.00871452
0.00799444
0.00661379
0.00613948
0.00597984
0.00591973
0.00587659
0.00580215
0.0055679
0.00469615
0.0042762
0.00403172
0.00384359
0.00364643
0.00336355
0.00298198
0.00251869
0.00200383
0.0014847
0.00109534
0.00110109
0.000732947
0.000672599
0.00081434
0.000914145
0.00320152
0.0115338
0.00753526
0.00632469
0.00687464
0.00712376
0.00697122
0.00704143
0.00721132
0.00751909
0.00795009
0.00840622
0.00875615
0.00889947
0.00881429
0.00855637
0.00821473
0.00785984
0.00765762
0.0075027
0.00732467
0.00712169
0.00689678
0.00662191
0.0062257
0.00587385
0.00556332
0.0052665
0.00496448
0.00463575
0.00422139
0.00370634
0.00309093
0.00241027
0.00180866
0.00135594
0.00102342
0.000869693
0.00123992
0.000954116
0.00355533
0.013078
0.0105499
0.00815472
0.0077176
0.00761806
0.0073605
0.00720051
0.00725723
0.00755779
0.00803522
0.00854343
0.00891137
0.00902098
0.00886242
0.00855073
0.00828458
0.00819332
0.00819702
0.00810846
0.00787958
0.00755512
0.00717533
0.00676085
0.00632885
0.0059294
0.00556353
0.00522222
0.0049056
0.00462109
0.00436846
0.00402463
0.00354345
0.00295597
0.00239109
0.00188652
0.00151628
0.00140201
0.00143021
0.00108753
0.00362144
0.0116198
0.010332
0.00954761
0.00884377
0.008033
0.00740495
0.00716175
0.00732564
0.00780788
0.00844319
0.00902169
0.00934836
0.00933233
0.00902312
0.00861801
0.00837646
0.00837148
0.00836136
0.00808958
0.00763303
0.00708127
0.00650477
0.00596034
0.00548442
0.00508403
0.0047437
0.00445521
0.00422243
0.00405491
0.00396162
0.00391366
0.00367402
0.00329648
0.00296399
0.00279329
0.00289934
0.0033388
0.00409874
0.00169537
0.00352159
0.00417912
0.00464187
0.00475773
0.00485936
0.0051368
0.00569156
0.00653159
0.00755761
0.00859108
0.00944103
0.00992864
0.00993739
0.00952894
0.00892431
0.00851665
0.00827628
0.00805583
0.00769259
0.00713174
0.00645675
0.00576923
0.00515091
0.00464107
0.00423724
0.00391439
0.0036478
0.00342296
0.00323104
0.0030632
0.00290977
0.00276944
0.00265908
0.00257789
0.00254666
0.00255688
0.00254146
0.00243928
0.00228006
0.00159369
0.00175969
0.00360853
0.00586773
0.0077411
0.00919547
0.0102976
0.0109854
0.0112486
0.0111309
0.010626
0.00983797
0.00886451
0.00804092
0.00752518
0.00709573
0.00657047
0.00593855
0.00527446
0.00465238
0.00411934
0.00369925
0.00337531
0.00312158
0.00291859
0.00275571
0.00262821
0.00253405
0.00247235
0.00244522
0.00245008
0.00247073
0.00250255
0.00253648
0.00254468
0.00248235
0.00233531
0.00211409
0.00132511
0.00235281
0.00604925
0.00900476
0.0101241
0.0106817
0.0108481
0.0105951
0.00999638
0.009175
0.0082513
0.00737818
0.00660017
0.00596964
0.00542732
0.00487897
0.00434284
0.00387284
0.00349592
0.00320863
0.00299203
0.00281741
0.0026693
0.00254124
0.00243728
0.00236075
0.00231154
0.0022884
0.00228918
0.00231995
0.00237736
0.0024573
0.00255116
0.00264015
0.00270163
0.00268069
0.00271025
0.00274818
0.00135098
0.002087
0.00221206
0.00230028
0.00246294
0.00237656
0.0022772
0.0022126
0.00212176
0.00199207
0.00183141
0.00165101
0.00146369
0.00128206
0.00112635
0.00100862
0.000924725
0.000865048
0.000821958
0.000790812
0.000768896
0.00075443
0.000746271
0.000743632
0.000746659
0.000755856
0.000770837
0.000791439
0.000818082
0.000851442
0.000892478
0.000940105
0.000994386
0.0010559
0.00112515
0.00120157
0.00129239
0.00132154
0.00128751
0.00120963
0.00112689
)
;

boundaryField
{
    floor
    {
        type            compressible::alphatWallFunction;
        Prt             0.85;
        value           nonuniform List<scalar> 
29
(
0.000197746
7.69886e-05
9.52952e-05
0.000107623
0.000106937
0.000103148
9.81473e-05
9.18368e-05
8.55343e-05
7.9765e-05
7.46001e-05
6.99906e-05
6.5865e-05
6.21707e-05
5.88319e-05
5.57342e-05
5.27238e-05
4.95696e-05
4.72955e-05
4.21377e-05
4.21372e-05
5.80108e-05
6.83515e-05
7.62534e-05
0.000197744
7.69876e-05
8.36944e-05
0.000168402
0.000238019
)
;
    }
    ceiling
    {
        type            compressible::alphatWallFunction;
        Prt             0.85;
        value           nonuniform List<scalar> 
43
(
0.000288331
0.000304493
0.000315838
0.000336755
0.000325782
0.00031307
0.000304773
0.000293051
0.000276213
0.000255184
0.000231325
0.00020624
0.00018157
0.000160105
0.000143648
0.000131785
0.000123269
0.000117078
0.000112578
0.000109399
0.000107295
0.000106106
0.000105722
0.000106163
0.000107503
0.000109682
0.00011267
0.00011652
0.00012132
0.000127194
0.000133971
0.000141647
0.000150286
0.000159942
0.00017052
0.000182991
0.000186974
0.000182325
0.000171633
0.000160188
0.000469229
0.000549202
0.000322401
)
;
    }
    sWall
    {
        type            compressible::alphatWallFunction;
        Prt             0.85;
        value           uniform 0.000287122;
    }
    nWall
    {
        type            compressible::alphatWallFunction;
        Prt             0.85;
        value           nonuniform List<scalar> 6(0.000129962 0.000135631 0.00015437 0.000187134 0.000190656 0.000159866);
    }
    sideWalls
    {
        type            empty;
    }
    glass1
    {
        type            compressible::alphatWallFunction;
        Prt             0.85;
        value           nonuniform List<scalar> 9(0.000173345 0.000233594 0.000282422 0.00032841 0.000374588 0.000422877 0.000466272 0.000474461 0.000462512);
    }
    glass2
    {
        type            compressible::alphatWallFunction;
        Prt             0.85;
        value           nonuniform List<scalar> 2(0.000235534 0.000222118);
    }
    sun
    {
        type            compressible::alphatWallFunction;
        Prt             0.85;
        value           nonuniform List<scalar> 
14
(
0.000177651
0.000193647
0.000197137
0.000206226
0.0002146
0.000222404
0.000230026
0.00023743
0.000242626
0.000244787
0.000243145
0.000237212
0.000226923
0.000213075
)
;
    }
    heatsource1
    {
        type            compressible::alphatWallFunction;
        Prt             0.85;
        value           nonuniform List<scalar> 3(9.5281e-05 0.000115963 0.000130265);
    }
    heatsource2
    {
        type            compressible::alphatWallFunction;
        Prt             0.85;
        value           nonuniform List<scalar> 4(0.000201646 0.000119591 0.000119589 0.000200778);
    }
    Table_master
    {
        type            compressible::alphatWallFunction;
        Prt             0.85;
        value           nonuniform List<scalar> 9(0.000132605 0.000117031 0.000104342 9.39704e-05 8.54212e-05 7.83069e-05 7.23462e-05 6.73612e-05 6.32861e-05);
    }
    Table_slave
    {
        type            compressible::alphatWallFunction;
        Prt             0.85;
        value           nonuniform List<scalar> 9(0.000149453 0.000136188 0.000126586 0.000119205 0.000112898 0.000107088 0.000101486 9.5581e-05 8.86923e-05);
    }
    inlet
    {
        type            fixedValue;
        value           uniform 1.94e-05;
    }
    outlet
    {
        type            zeroGradient;
    }
}


// ************************************************************************* //
