/*--------------------------------*- C++ -*----------------------------------*\
  =========                 |
  \\      /  F ield         | OpenFOAM: The Open Source CFD Toolbox
   \\    /   O peration     | Website:  https://openfoam.org
    \\  /    A nd           | Version:  6
     \\/     M anipulation  |
\*---------------------------------------------------------------------------*/
FoamFile
{
    version     2.0;
    format      ascii;
    class       volScalarField;
    location    "1300";
    object      alphat;
}
// * * * * * * * * * * * * * * * * * * * * * * * * * * * * * * * * * * * * * //

dimensions      [1 -1 -1 0 0 0 0];

internalField   nonuniform List<scalar> 
459
(
0.00125293
0.00136996
0.00139541
0.00146247
0.00152456
0.00158266
0.00163959
0.00169533
0.00173473
0.00175144
0.00173954
0.00169538
0.00161872
0.00151608
0.00140351
0.00055038
0.000673239
0.000756917
0.000751663
0.000725459
0.000691244
0.000648602
0.000606418
0.000568138
0.000534137
0.000504017
0.000477235
0.000453401
0.00043199
0.000412239
0.000393157
0.000373287
0.000359071
0.000327042
0.00170641
0.00417376
0.00399352
0.00464783
0.00529103
0.00593442
0.00650281
0.00693043
0.00731765
0.0076331
0.00783253
0.00786546
0.00765517
0.00701001
0.00523902
0.00143064
0.000843475
0.000595601
0.00124846
0.00172191
0.00205901
0.00223587
0.0022258
0.00179199
0.00154647
0.00137037
0.00123489
0.001127
0.00103914
0.000963385
0.000892831
0.000824529
0.000763848
0.000711067
0.000833761
0.000427125
0.00208321
0.00570235
0.00495701
0.0062165
0.00684559
0.00731269
0.00767577
0.0079652
0.00827968
0.00860817
0.00891189
0.00913523
0.00921678
0.00906666
0.00844772
0.00651515
0.00142149
0.00118923
0.00170569
0.00218072
0.00260089
0.00288237
0.00279841
0.000928565
0.000820078
0.000732973
0.0006627
0.000605444
0.000558285
0.000519136
0.000486667
0.000460316
0.000495665
0.000572475
0.000938097
0.000493919
0.00244434
0.0072882
0.00497364
0.00658154
0.00713475
0.00732335
0.00744593
0.0075953
0.00784654
0.00818288
0.00856453
0.00892238
0.00919274
0.00930483
0.00917356
0.00850914
0.00624158
0.00170218
0.00211067
0.00272129
0.00330451
0.00375956
0.00403091
0.00376751
0.00104779
0.000953933
0.000886696
0.000835468
0.000792008
0.000752249
0.000714118
0.000674152
0.00062782
0.000588546
0.000601184
0.00107199
0.000545671
0.00281216
0.00932193
0.00546988
0.00633784
0.00706952
0.00711878
0.00705947
0.00714114
0.00736418
0.0077056
0.00813306
0.00855171
0.00887396
0.00902829
0.00898899
0.00870706
0.00798863
0.00660365
0.00612656
0.00596435
0.00590271
0.00585972
0.00578731
0.00555678
0.0046897
0.00427328
0.00403116
0.00384435
0.00364809
0.0033661
0.00298571
0.00252332
0.00200858
0.00148856
0.0010977
0.00110108
0.000732616
0.000672394
0.000814166
0.00091398
0.00320179
0.0115339
0.00752777
0.00631188
0.00686079
0.00710674
0.00695364
0.00702276
0.00719148
0.0074969
0.00792622
0.00838329
0.0087371
0.00888563
0.00880413
0.00854631
0.00820105
0.00784029
0.00763374
0.00747752
0.00730134
0.00710265
0.00688321
0.00661362
0.00622134
0.00587146
0.00556095
0.00526325
0.00496073
0.00463255
0.00422009
0.0037075
0.00309437
0.00241489
0.0018128
0.00135692
0.0010233
0.000869519
0.00124
0.000954022
0.00355582
0.0130776
0.0105414
0.00813705
0.00769341
0.00759865
0.00734596
0.00718628
0.00723974
0.00753566
0.00800962
0.00851792
0.00888992
0.00900533
0.00885074
0.00853818
0.0082655
0.00816625
0.00816704
0.00808128
0.0078584
0.00754016
0.00716474
0.00675212
0.00631993
0.00591871
0.0055502
0.00520694
0.00489007
0.00460693
0.00435653
0.00401564
0.00353865
0.00295546
0.00239312
0.00188789
0.00151695
0.0014038
0.00143365
0.0010893
0.00362196
0.0116228
0.0103312
0.00954256
0.00884479
0.00803733
0.00740491
0.00715365
0.00730854
0.00778305
0.00841401
0.00899323
0.00932558
0.00931617
0.00901028
0.00860194
0.0083516
0.00834126
0.00833579
0.00807114
0.00761982
0.00706941
0.00649079
0.00594257
0.00546286
0.00505966
0.00471852
0.00443201
0.00420355
0.00404111
0.00395195
0.00390667
0.0036697
0.00329675
0.00296768
0.00279932
0.00290868
0.00335299
0.00411382
0.00169777
0.003522
0.00417984
0.00464376
0.00476247
0.00486202
0.00513282
0.00567799
0.00650769
0.00752541
0.00855442
0.00940487
0.00989892
0.00991867
0.00951747
0.00891197
0.00849333
0.00825266
0.00803861
0.00768289
0.00712534
0.00644727
0.00575208
0.00512521
0.00460898
0.00420274
0.00388206
0.00362191
0.0034064
0.00322446
0.00306505
0.00291707
0.00277918
0.00266869
0.00258698
0.00255545
0.00256552
0.00254974
0.00244655
0.00228595
0.00159575
0.0017639
0.00361293
0.00584418
0.0077003
0.00914643
0.0102482
0.0109415
0.0112129
0.0111045
0.0106104
0.0098363
0.00886364
0.00803328
0.00751472
0.00709221
0.00657491
0.00594405
0.00527196
0.00463616
0.00408987
0.00366111
0.00333486
0.00308527
0.00289126
0.00273964
0.0026233
0.00253834
0.00248291
0.00245912
0.00246484
0.00248497
0.00251569
0.00254838
0.00255522
0.00249129
0.00234232
0.00211904
0.00132647
0.0023551
0.00604004
0.00899006
0.0100988
0.0106566
0.0108296
0.010586
0.00999573
0.00917956
0.0082562
0.00738353
0.0066037
0.00597326
0.00543582
0.00489267
0.00435625
0.00387894
0.00348974
0.00318917
0.0029613
0.00278034
0.00263203
0.00250912
0.00241413
0.00234728
0.00230699
0.00229123
0.00229756
0.0023322
0.00239195
0.00247293
0.00256685
0.00265525
0.00271563
0.00269325
0.00272103
0.0027583
0.00135254
0.00208819
0.00221333
0.00230165
0.00246393
0.00237706
0.00227634
0.00221124
0.00212064
0.00199149
0.00183135
0.0016513
0.00146413
0.0012824
0.00112616
0.00100796
0.000923955
0.000864336
0.000821198
0.000789759
0.000767332
0.000752293
0.000743662
0.000740823
0.000743974
0.000753551
0.000768938
0.000789999
0.000817111
0.000850931
0.000892423
0.000940489
0.000995199
0.00105712
0.00112675
0.00120351
0.00129461
0.00132387
0.0012897
0.00121147
0.0011281
)
;

boundaryField
{
    floor
    {
        type            compressible::alphatWallFunction;
        Prt             0.85;
        value           nonuniform List<scalar> 
29
(
0.000197977
7.69188e-05
9.52717e-05
0.000107535
0.00010677
0.000102945
9.79253e-05
9.16269e-05
8.53462e-05
7.96002e-05
7.44563e-05
6.98652e-05
6.57542e-05
6.20712e-05
5.87416e-05
5.56513e-05
5.26477e-05
4.95e-05
4.72349e-05
4.20877e-05
4.20871e-05
5.79823e-05
6.83189e-05
7.62062e-05
0.000197974
7.69179e-05
8.37267e-05
0.000168681
0.000237992
)
;
    }
    ceiling
    {
        type            compressible::alphatWallFunction;
        Prt             0.85;
        value           nonuniform List<scalar> 
43
(
0.000288486
0.000304657
0.000316013
0.000336882
0.000325846
0.00031296
0.000304597
0.000292905
0.000276137
0.000255175
0.000231362
0.000206299
0.000181617
0.000160078
0.000143556
0.000131675
0.000123167
0.000116968
0.000112425
0.000109172
0.000106984
0.000105726
0.000105312
0.000105772
0.000107168
0.000109406
0.000112461
0.00011638
0.000121246
0.000127186
0.000134026
0.000141761
0.000150457
0.000160165
0.000170787
0.000183295
0.000187291
0.000182625
0.000171886
0.000160356
0.00046928
0.000549288
0.000322695
)
;
    }
    sWall
    {
        type            compressible::alphatWallFunction;
        Prt             0.85;
        value           uniform 0.000287276;
    }
    nWall
    {
        type            compressible::alphatWallFunction;
        Prt             0.85;
        value           nonuniform List<scalar> 6(0.000129938 0.000135618 0.000154616 0.00018732 0.000190869 0.000160034);
    }
    sideWalls
    {
        type            empty;
    }
    glass1
    {
        type            compressible::alphatWallFunction;
        Prt             0.85;
        value           nonuniform List<scalar> 9(0.000173166 0.000233462 0.00028234 0.000328377 0.000374595 0.000422911 0.000466332 0.000474525 0.000462563);
    }
    glass2
    {
        type            compressible::alphatWallFunction;
        Prt             0.85;
        value           nonuniform List<scalar> 2(0.000235851 0.000222393);
    }
    sun
    {
        type            compressible::alphatWallFunction;
        Prt             0.85;
        value           nonuniform List<scalar> 
14
(
0.000177469
0.000193431
0.000196883
0.00020595
0.000214303
0.000222085
0.00022968
0.000237088
0.000242307
0.000244516
0.000242942
0.000237091
0.000226896
0.00021316
)
;
    }
    heatsource1
    {
        type            compressible::alphatWallFunction;
        Prt             0.85;
        value           nonuniform List<scalar> 3(9.52507e-05 0.000115938 0.000130241);
    }
    heatsource2
    {
        type            compressible::alphatWallFunction;
        Prt             0.85;
        value           nonuniform List<scalar> 4(0.000201769 0.000120159 0.000120157 0.000200529);
    }
    Table_master
    {
        type            compressible::alphatWallFunction;
        Prt             0.85;
        value           nonuniform List<scalar> 9(0.000132313 0.000116788 0.000104147 9.38159e-05 8.52997e-05 7.8211e-05 7.22696e-05 6.72995e-05 6.32349e-05);
    }
    Table_slave
    {
        type            compressible::alphatWallFunction;
        Prt             0.85;
        value           nonuniform List<scalar> 9(0.000149133 0.000135914 0.000126351 0.000119007 0.000112735 0.000106961 0.000101389 9.55104e-05 8.86412e-05);
    }
    inlet
    {
        type            fixedValue;
        value           uniform 1.94e-05;
    }
    outlet
    {
        type            zeroGradient;
    }
}


// ************************************************************************* //
