/*--------------------------------*- C++ -*----------------------------------*\
  =========                 |
  \\      /  F ield         | OpenFOAM: The Open Source CFD Toolbox
   \\    /   O peration     | Website:  https://openfoam.org
    \\  /    A nd           | Version:  6
     \\/     M anipulation  |
\*---------------------------------------------------------------------------*/
FoamFile
{
    version     2.0;
    format      ascii;
    class       surfaceScalarField;
    location    "720";
    object      phi;
}
// * * * * * * * * * * * * * * * * * * * * * * * * * * * * * * * * * * * * * //

dimensions      [1 0 -1 0 0 0 0];

internalField   nonuniform List<scalar> 
852
(
-0.00152576
0.00153841
-0.00218818
0.000662422
-0.00267547
0.000487284
-0.00302104
0.000345563
-0.00320508
0.000184044
-0.00320405
-1.03411e-06
-0.00298974
-0.000214323
-0.00254939
-0.00044035
-0.00191133
-0.000638067
-0.00114944
-0.000761894
-0.000375828
-0.000773614
0.000246371
-0.000622205
0.000548591
-0.000302224
0.000517339
3.1247e-05
0.000515833
1.13049e-05
-1.33173e-05
0.000152943
-0.000141645
0.000458804
-0.000305868
0.000793366
-0.000334569
0.00108641
-0.00029305
0.00130857
-0.000222167
0.00142742
-0.000118861
0.00147229
-4.48748e-05
0.00148948
-1.71939e-05
0.00149505
-5.57444e-06
0.00149169
3.344e-06
0.00147971
1.1981e-05
0.00145552
2.41734e-05
0.00140726
4.82525e-05
0.00130628
0.000100978
0.0011028
0.00020347
0.000751714
0.000351079
0.000195619
0.000556087
0.000192853
-0.00116664
0.00274073
-0.00177876
0.00127454
-0.00226761
0.000976122
-0.00261543
0.000693389
-0.00280926
0.000377867
-0.00282637
1.60665e-05
-0.00264208
-0.000398612
-0.00225041
-0.000832029
-0.00169458
-0.0011939
-0.00106109
-0.00139539
-0.000453
-0.00138171
5.42656e-05
-0.00112948
0.000424052
-0.000672016
0.000674568
-0.000219273
0.000966308
0.000224088
0.000549011
0.000417241
0.000548954
-7.15875e-05
5.34406e-05
0.000402712
-0.00061595
0.000724367
-0.000627529
0.000988111
-0.000598319
0.00120909
-0.000514037
0.00137286
-0.000385938
0.00140941
-0.000155427
0.00141636
-5.18286e-05
0.00142346
-2.43028e-05
0.00142941
-1.15241e-05
0.00143299
-2.46203e-07
0.0014342
1.07572e-05
0.00143234
2.60275e-05
0.00142359
5.69947e-05
0.00137846
0.000146106
0.00120191
0.000380005
0.00089653
0.000656454
0.000522689
0.00092992
0.000707984
-0.00087489
0.00367215
-0.00138623
0.00178587
-0.00182736
0.00141725
-0.00214512
0.00101115
-0.0023359
0.000568643
-0.00237201
5.21702e-05
-0.00221228
-0.000558345
-0.00185472
-0.00118959
-0.00136262
-0.001686
-0.00082542
-0.00193259
-0.000326675
-0.00188046
8.37844e-05
-0.00153994
0.000419379
-0.00100762
0.000658152
-0.000458051
0.000808124
7.41103e-05
0.000681532
0.000543828
0.00123048
0.000605643
-0.000559649
0.000797455
-0.000807768
0.00101474
-0.000844815
0.00116857
-0.000752165
0.00129425
-0.000639717
0.00146505
-0.000556749
0.00130977
0.00125809
0.00123394
0.00122256
0.00122246
0.00123337
0.00125954
0.00131669
0.00146294
0.00128087
0.000562063
0.00105402
0.000883301
0.000707321
0.00127661
0.00140323
-0.000650447
0.0043981
-0.00103107
0.00216649
-0.0013502
0.00173637
-0.00158987
0.00125081
-0.0017487
0.000727471
-0.00178898
9.24472e-05
-0.00163631
-0.00071102
-0.00130529
-0.00152061
-0.000886635
-0.00210467
-0.000459044
-0.00236019
-7.86789e-05
-0.00226083
0.000240119
-0.00185874
0.00051756
-0.00128506
0.000744474
-0.000684971
0.000946295
-0.000127717
0.00117334
0.00031678
0.00184708
0.000556729
0.00176558
7.39111e-05
0.00165757
-0.000451638
0.0014829
-0.000633105
0.00134382
-0.000705745
0.00126888
-0.000677227
0.00122393
-0.000594777
0.00112822
-0.000461044
0.0013524
-0.000224348
0.00149139
-0.000139157
0.00160571
-0.000114477
0.00170581
-0.000100266
0.00178572
-8.00764e-05
0.0018297
-4.41461e-05
0.00181049
1.90513e-05
0.00169035
0.000119978
0.00140935
0.000280829
0.00135212
0.000619285
0.00122039
0.00101502
0.00100918
0.00148782
0.00239653
-0.000479124
0.00496988
-0.000726504
0.00241387
-0.000839777
0.00184964
-0.000944688
0.00135572
-0.00102631
0.000809093
-0.0010342
0.000100327
-0.000856142
-0.000889079
-0.000564393
-0.00181236
-0.000255276
-0.00241378
2.43613e-05
-0.00263983
0.000255221
-0.00249169
0.000450823
-0.00205435
0.000627505
-0.00146175
0.00079237
-0.000849841
0.000980695
-0.000316048
0.00122524
7.22259e-05
0.00154507
0.000236899
0.00162733
-8.35613e-06
0.00148253
-0.000306845
0.00132958
-0.000480161
0.00118029
-0.000556463
0.0010616
-0.000558541
0.000975597
-0.000508782
0.000931473
-0.000416928
0.00100332
-0.000296204
0.001091
-0.000226847
0.00117833
-0.000201817
0.00126592
-0.000187862
0.00134962
-0.000163787
0.00141957
-0.00011411
0.00145889
-2.02726e-05
0.00145027
0.000128581
0.00139781
0.000333285
0.00139328
0.000623805
0.00146805
0.000940241
0.00179888
0.00115698
0.00271526
0.00148014
0.0017078
0.00100724
0.000966586
0.000740995
0.00100266
-0.000409836
0.00548768
-0.000521393
0.00252542
-0.000335978
0.00166422
-0.000244481
0.00126422
-0.00021011
0.000774717
-9.16403e-05
-1.81475e-05
0.000136312
-0.00111704
0.000347109
-0.00202316
0.000501052
-0.00256773
0.000591491
-0.00273027
0.000639749
-0.00253995
0.000667299
-0.00208191
0.000691197
-0.00148566
0.000728938
-0.000887589
0.000808639
-0.000395756
0.000945575
-6.47163e-05
0.00111362
6.88442e-05
0.00114575
-4.04888e-05
0.00105421
-0.000215306
0.000923359
-0.000349322
0.000786739
-0.000419851
0.000666479
-0.000438289
0.000577098
-0.00041941
0.000534668
-0.000374507
0.000557362
-0.000318908
0.000617917
-0.000287412
0.000694444
-0.000278354
0.000778986
-0.000272414
0.00086837
-0.000253182
0.000960424
-0.000206174
0.00105255
-0.000112411
0.0011331
4.80243e-05
0.00120007
0.000266303
0.00129971
0.000524152
0.00146174
0.000778207
0.00166726
0.000951447
0.00192392
0.00122347
0.00169741
0.00123374
0.00104208
0.00139632
0.0020813
-0.00045906
0.00606861
-0.00030119
0.00236755
0.000266711
0.00109631
0.000557701
0.000973224
0.00079479
0.000537624
0.0010819
-0.000305257
0.00129313
-0.00132827
0.00137295
-0.00210298
0.0013332
-0.00252799
0.00120066
-0.00259774
0.00101899
-0.00235829
0.000826919
-0.00188985
0.000655352
-0.0013141
0.000529885
-0.000762129
0.000478791
-0.000344669
0.00050425
-9.0182e-05
0.000566732
6.35539e-06
0.000568486
-4.22502e-05
0.000500912
-0.00014774
0.000392461
-0.000240879
0.000271799
-0.000299197
0.000160551
-0.000327051
7.58447e-05
-0.000334713
3.2258e-05
-0.00033093
3.76653e-05
-0.000324326
7.74485e-05
-0.000327206
0.000134496
-0.000335412
0.000200726
-0.000338655
0.000275567
-0.000328034
0.000364647
-0.000295265
0.000479104
-0.000226879
0.000622996
-9.58787e-05
0.000780658
0.00010863
0.000955144
0.000349654
0.00115968
0.000573666
0.00135684
0.000754269
0.00159723
0.000983072
0.0017384
0.00109257
0.00152817
0.00160654
0.00364766
0.00105496
0.00515061
0.00144878
0.00197373
0.00164869
0.000896399
0.00185488
0.000767024
0.00219006
0.00020244
0.00254142
-0.000656623
0.00264043
-0.00142729
0.00249657
-0.00195912
0.00216892
-0.00220034
0.0017336
-0.00216242
0.00126614
-0.00189083
0.000820869
-0.00144459
0.000444324
-0.000937562
0.000167866
-0.00048568
2.01334e-05
-0.000196945
-2.49806e-05
-4.50763e-05
-2.21753e-05
3.54208e-06
-4.00318e-05
-2.44021e-05
-0.000101727
-8.60528e-05
-0.000195408
-0.000147208
-0.000299701
-0.000194913
-0.000396284
-0.000230478
-0.000471821
-0.000259187
-0.000518271
-0.00028449
-0.000534165
-0.000308443
-0.000528923
-0.000332459
-0.000512304
-0.000352042
-0.000490039
-0.000360932
-0.000463664
-0.00035442
-0.000428504
-0.000330435
-0.000367448
-0.000287946
-0.000244514
-0.000218824
-4.82434e-05
-8.76516e-05
0.000187254
0.000114146
0.000432634
0.000328274
0.000656509
0.000530384
0.000910665
0.000728906
0.00113837
0.000864856
0.000777641
0.00196726
0.00457559
0.00528851
0.00724972
0.00631258
0.00183354
0.00580518
0.00127442
0.00544573
0.000561888
0.0049664
-0.000177301
0.00432834
-0.000789222
0.00356888
-0.00119967
0.00273956
-0.00137102
0.00190864
-0.00133151
0.00114316
-0.00112535
0.000476761
-0.000778198
-3.84183e-05
-0.000422393
-0.000360111
-0.000163997
-0.000519165
-3.79004e-05
-0.000583281
1.90297e-05
-0.00060837
2.86218e-05
-0.000639517
6.73551e-06
-0.000695729
-2.98505e-05
-0.000771301
-7.16458e-05
-0.000855259
-0.000110966
-0.000938373
-0.000147375
-0.00101407
-0.000183504
-0.00107931
-0.000219262
-0.00113411
-0.000253651
-0.00118202
-0.000284555
-0.00122728
-0.000306794
-0.00127529
-0.000312936
-0.00133501
-0.000294712
-0.00142038
-0.000245075
-0.00154513
-0.000163202
-0.00171314
-5.08201e-05
-0.0019192
0.000118396
-0.00216927
0.000364201
-0.00253664
0.000695634
-0.0031362
0.00112994
-0.00408698
0.00167967
-0.00541983
0.0021977
-0.00552595
0.00207337
-0.000786727
0.00577986
0.00252422
0.00515273
0.00190155
0.00474217
0.000972461
0.00428252
0.000282348
0.00364145
-0.000148151
0.00282558
-0.000383797
0.00192396
-0.000469404
0.00103973
-0.000447286
0.000242478
-0.000328111
-0.000380857
-0.000154875
-0.000769734
-3.35273e-05
-0.00096521
3.14678e-05
-0.00105861
5.54871e-05
-0.0010983
5.87162e-05
-0.00111953
4.98382e-05
-0.00114494
3.2134e-05
-0.0011824
7.59467e-06
-0.00123307
-2.09816e-05
-0.00129651
-4.75428e-05
-0.0013717
-7.21901e-05
-0.00145743
-9.77862e-05
-0.00155336
-0.000123343
-0.00165897
-0.000148054
-0.00177295
-0.00017058
-0.00189239
-0.000187363
-0.00201354
-0.000191796
-0.00213421
-0.000174052
-0.00225755
-0.00012175
-0.00238758
-3.31793e-05
-0.00251964
8.12261e-05
-0.00263695
0.000235698
-0.00273291
0.000460154
-0.00280832
0.000771032
-0.00285471
0.00117632
-0.00284985
0.0016748
-0.00270726
0.0020551
-0.00138269
0.000748783
-0.00212844
0.000246805
0.0022652
0.0007626
0.00138576
0.000882803
0.000852257
0.000795361
0.000369785
0.000568479
7.8724e-05
0.000222223
-3.75507e-05
-0.00019699
-5.02038e-05
-0.000631046
-1.32425e-05
-0.000997614
3.84441e-05
-0.00123077
7.82736e-05
-0.00135404
8.97221e-05
-0.00140861
8.60349e-05
-0.00142855
7.54134e-05
-0.00143266
6.28169e-05
-0.00143294
5.01091e-05
-0.00143741
3.65881e-05
-0.0014511
2.12757e-05
-0.00147879
6.69163e-06
-0.00151909
-7.25532e-06
-0.00157111
-2.01754e-05
-0.00163762
-3.12896e-05
-0.0017214
-3.95767e-05
-0.00182557
-4.38861e-05
-0.00195272
-4.34461e-05
-0.00210229
-3.78062e-05
-0.00226743
-2.66653e-05
-0.00243165
-9.83344e-06
-0.00256793
1.45148e-05
-0.0026498
4.8679e-05
-0.00267499
0.000106406
-0.00263165
0.000192346
-0.00248864
0.000317136
-0.00221478
0.000497166
-0.0017636
0.000725124
-0.000984015
0.000895211
0.000304489
0.000766591
0.00120925
-0.000155984
-0.000876025
-0.005651
-0.0067533
-0.00450189
-0.00312997
-0.00229292
-0.00194015
-0.00188022
-0.0019377
-0.00200867
-0.00204367
-0.00202805
-0.0019737
-0.0019088
-0.00184812
-0.00179835
-0.0017613
-0.00173703
-0.00172634
-0.00173103
-0.00175039
-0.00178376
-0.00183009
-0.00188756
-0.00195338
-0.00202362
-0.00209365
-0.00215843
-0.00221266
-0.00225078
-0.00226533
-0.00224638
-0.00217025
-0.00200853
-0.00172216
-0.0012557
-0.000561075
0.000303851
0.00103996
0.000853056
)
;

boundaryField
{
    floor
    {
        type            calculated;
        value           nonuniform List<scalar> 
29
(
0
0
0
0
0
0
0
0
0
0
0
0
0
0
0
0
0
0
0
0
2.75799e-06
7.54999e-06
1.20629e-05
1.58751e-05
1.50144e-06
2.00607e-06
4.8231e-06
7.44057e-06
7.58588e-06
)
;
    }
    ceiling
    {
        type            calculated;
        value           nonuniform List<scalar> 
43
(
1.47308e-05
1.41572e-05
1.37822e-05
1.38284e-05
1.51952e-05
1.70026e-05
1.87835e-05
1.99145e-05
2.07529e-05
2.17454e-05
2.28122e-05
2.39106e-05
2.48054e-05
2.53497e-05
2.56271e-05
2.57585e-05
2.58272e-05
2.58853e-05
2.59588e-05
2.60419e-05
2.61034e-05
2.61388e-05
2.61719e-05
2.62267e-05
2.63439e-05
2.65746e-05
2.69683e-05
2.75499e-05
2.82854e-05
2.90459e-05
2.97267e-05
3.02621e-05
3.06139e-05
3.07593e-05
3.0698e-05
3.04878e-05
3.02741e-05
3.0476e-05
3.09068e-05
3.20726e-05
1.50765e-05
1.25117e-05
1.22207e-05
)
;
    }
    sWall
    {
        type            calculated;
        value           uniform -6.32482e-05;
    }
    nWall
    {
        type            calculated;
        value           nonuniform List<scalar> 6(-3.62874e-05 -3.65777e-05 -3.82003e-05 -4.09829e-05 -4.31775e-05 -5.50511e-05);
    }
    sideWalls
    {
        type            empty;
        value           nonuniform 0();
    }
    glass1
    {
        type            calculated;
        value           nonuniform List<scalar> 9(-1.2655e-05 -3.56882e-05 -5.65331e-05 -7.55054e-05 -9.26577e-05 -0.000107968 -0.000121868 -0.000136966 -0.000152977);
    }
    glass2
    {
        type            calculated;
        value           nonuniform List<scalar> 2(-0.000150297 -0.000163649);
    }
    sun
    {
        type            calculated;
        value           uniform 0;
    }
    heatsource1
    {
        type            calculated;
        value           nonuniform List<scalar> 3(2.06554e-07 2.06995e-07 2.0729e-07);
    }
    heatsource2
    {
        type            calculated;
        value           nonuniform List<scalar> 4(5.18592e-08 5.19348e-08 0 0);
    }
    Table_master
    {
        type            calculated;
        value           nonuniform List<scalar> 9(-1.55274e-07 -1.55374e-07 -1.55401e-07 -1.55416e-07 -1.55425e-07 -1.55426e-07 -1.55421e-07 -1.55405e-07 -1.5536e-07);
    }
    Table_slave
    {
        type            calculated;
        value           nonuniform List<scalar> 9(1.55216e-07 1.55217e-07 1.55176e-07 1.55139e-07 1.55109e-07 1.55092e-07 1.55094e-07 1.55105e-07 1.55153e-07);
    }
    inlet
    {
        type            calculated;
        value           uniform -0.00647055;
    }
    outlet
    {
        type            calculated;
        value           nonuniform List<scalar> 2(0.00569951 0.00108814);
    }
}


// ************************************************************************* //
