/*--------------------------------*- C++ -*----------------------------------*\
  =========                 |
  \\      /  F ield         | OpenFOAM: The Open Source CFD Toolbox
   \\    /   O peration     | Website:  https://openfoam.org
    \\  /    A nd           | Version:  6
     \\/     M anipulation  |
\*---------------------------------------------------------------------------*/
FoamFile
{
    version     2.0;
    format      ascii;
    class       volScalarField;
    location    "200";
    object      alphat;
}
// * * * * * * * * * * * * * * * * * * * * * * * * * * * * * * * * * * * * * //

dimensions      [1 -1 -1 0 0 0 0];

internalField   nonuniform List<scalar> 
459
(
0.000855203
0.000877122
0.000797211
0.000826432
0.000858785
0.000889415
0.000918325
0.000946248
0.000974335
0.00100285
0.00102647
0.00104368
0.00105337
0.00105494
0.00104411
0.000441549
0.000486395
0.000494596
0.000392368
0.000303235
0.000275514
0.000267499
0.000262012
0.000276722
0.000302814
0.000334762
0.000366957
0.000396141
0.00042054
0.000462804
0.00051981
0.000559783
0.000546722
0.000484424
0.0014719
0.0025767
0.00182867
0.00243278
0.00264704
0.00286372
0.0030886
0.00330138
0.00347385
0.00358503
0.00363551
0.00358734
0.00337876
0.00291185
0.00209359
0.00112208
0.000770824
0.000571616
0.00138008
0.0015887
0.00156064
0.0012662
0.00074616
0.000384634
0.000363209
0.00047365
0.000671095
0.000904401
0.00113851
0.00136953
0.00155813
0.00174277
0.00193621
0.00185829
0.00183664
0.000608111
0.00200895
0.00427745
0.0019314
0.00343141
0.00393394
0.00417276
0.00437648
0.0045494
0.00468202
0.00476617
0.00479794
0.0047338
0.00450463
0.00401413
0.00319184
0.00215145
0.00119649
0.00101455
0.00281081
0.00262577
0.002286
0.00181015
0.00132867
0.000406038
0.000352391
0.000399051
0.000447417
0.000497768
0.000552757
0.000616295
0.000695252
0.000800114
0.00190096
0.00176691
0.00140352
0.000801747
0.00251043
0.00636473
0.00218777
0.00360072
0.00459969
0.00484923
0.0050067
0.00514151
0.00525936
0.00535436
0.00544771
0.00551703
0.00549503
0.00525936
0.00464168
0.00354224
0.00220196
0.00130876
0.00311177
0.00344563
0.00315068
0.00258266
0.00196702
0.00134569
0.000853618
0.000853486
0.000857339
0.00086249
0.000869448
0.000880321
0.000899372
0.00093525
0.000998578
0.00258218
0.00343068
0.00356135
0.00121656
0.00296922
0.00857308
0.00287148
0.00327196
0.00476196
0.00506129
0.00516542
0.00524633
0.00533123
0.00542968
0.00559701
0.00585921
0.00619226
0.00653867
0.00680394
0.00688069
0.0067094
0.00633204
0.00616961
0.00581183
0.00541494
0.00504059
0.00473096
0.00447817
0.00428358
0.00419342
0.00410716
0.00402435
0.00395943
0.00393444
0.00396898
0.00407034
0.00423219
0.00445498
0.00458679
0.00450553
0.00381461
0.00164946
0.00147493
0.00129099
0.00339268
0.0104943
0.00416966
0.00292907
0.00441075
0.00488187
0.00499826
0.00503331
0.00504325
0.00506169
0.00521104
0.00551244
0.00596367
0.00653813
0.00715293
0.00766979
0.00793535
0.00787697
0.00759484
0.00721242
0.00683912
0.00652642
0.00627384
0.00605572
0.00584078
0.00561526
0.00537701
0.00513982
0.00493002
0.00478181
0.00471946
0.00473962
0.00480808
0.00486906
0.00489305
0.00481837
0.0044527
0.0036486
0.00275171
0.00136274
0.00378827
0.0118499
0.00649932
0.00334401
0.00335282
0.00408955
0.00456314
0.00477905
0.00478491
0.00467357
0.00472363
0.00490881
0.0052517
0.00577547
0.00644349
0.00712554
0.0076371
0.00784345
0.00778443
0.00758848
0.00737063
0.00718706
0.00703942
0.00689943
0.00672985
0.00651097
0.00624371
0.00594097
0.00562724
0.00533864
0.00510546
0.0049309
0.00479646
0.00465847
0.00446049
0.00413703
0.00362901
0.00298767
0.00233422
0.00132847
0.003884
0.0121899
0.00888903
0.00606622
0.0042589
0.00384072
0.00425355
0.00467759
0.00462824
0.00446848
0.00439651
0.00442196
0.0045518
0.00481774
0.00525948
0.00585833
0.00648589
0.00690946
0.00710232
0.0071434
0.00712536
0.00711494
0.00713606
0.00717563
0.00719895
0.00717138
0.00707081
0.00689312
0.00664998
0.00637205
0.006085
0.00574229
0.00532815
0.00485943
0.00436917
0.00389912
0.00347087
0.00305238
0.00264908
0.00162829
0.00376641
0.00453144
0.00515644
0.00511848
0.00466724
0.00419462
0.00391437
0.00381477
0.00379003
0.00381124
0.0038546
0.00390771
0.00397241
0.00406832
0.00423458
0.00451375
0.0049031
0.00531448
0.00566028
0.00591144
0.00609442
0.00625729
0.00643965
0.00665926
0.00691175
0.00717626
0.00741384
0.00759259
0.00769699
0.00769191
0.00755588
0.00737354
0.0072116
0.0071318
0.00711277
0.00684821
0.00595381
0.00507713
0.00490761
0.00184398
0.00439254
0.00553605
0.00508664
0.00465401
0.00432619
0.00409598
0.00393244
0.0038115
0.00371866
0.00364264
0.00357708
0.00352345
0.00349319
0.00350765
0.0035906
0.00374949
0.00396766
0.0042152
0.00446959
0.00472781
0.00500344
0.00531538
0.00567693
0.0060904
0.00654429
0.00701209
0.00745276
0.00775818
0.00787966
0.00786182
0.00777028
0.00767199
0.00759599
0.00749846
0.0071689
0.00628197
0.00581525
0.00181317
0.00318509
0.00568206
0.0051767
0.00478001
0.00444421
0.00416131
0.00392295
0.00371871
0.00350521
0.00329627
0.00310018
0.00292242
0.00276758
0.00264103
0.00254979
0.00250148
0.00250215
0.00255441
0.00265758
0.00281013
0.00301226
0.00326672
0.00357746
0.00394859
0.00438529
0.00489241
0.00546062
0.0060145
0.00645687
0.00673576
0.0068516
0.00683792
0.00672636
0.00650611
0.00597459
0.00512514
0.00469852
0.00159417
0.0022098
0.00248014
0.00275824
0.00284322
0.00253436
0.00232902
0.00215446
0.00200102
0.00186425
0.00174095
0.00163401
0.00153766
0.00144879
0.00136573
0.00128774
0.00121471
0.00114693
0.00108489
0.00102911
0.000979974
0.000937695
0.000902385
0.000874198
0.000853477
0.000840873
0.000837435
0.000844747
0.000864998
0.000900636
0.000960024
0.00104509
0.00114481
0.00123982
0.00131215
0.00135114
0.00135161
0.00132957
0.00129629
0.00129618
0.00122712
)
;

boundaryField
{
    floor
    {
        type            compressible::alphatWallFunction;
        Prt             0.85;
        value           nonuniform List<scalar> 
29
(
0.000148453
6.01345e-05
6.70654e-05
6.83246e-05
5.24275e-05
3.81246e-05
3.35678e-05
3.22392e-05
3.13246e-05
3.37629e-05
3.80493e-05
4.32319e-05
4.83893e-05
5.30138e-05
5.68475e-05
6.34225e-05
7.21731e-05
7.82357e-05
7.62595e-05
6.67576e-05
6.67567e-05
8.54942e-05
0.000113938
0.000172391
0.000148451
6.01337e-05
8.00293e-05
0.000144269
0.000185032
)
;
    }
    ceiling
    {
        type            compressible::alphatWallFunction;
        Prt             0.85;
        value           nonuniform List<scalar> 
43
(
0.000304444
0.000339066
0.000374268
0.000384955
0.000345966
0.000319768
0.000297301
0.000277391
0.000259505
0.000243256
0.000229061
0.000216185
0.000204227
0.000192976
0.000182341
0.000172316
0.00016295
0.000154321
0.000146514
0.000139596
0.000133611
0.000128588
0.000124562
0.000121593
0.000119783
0.000119289
0.00012034
0.000123245
0.000128339
0.000136774
0.00014875
0.000162648
0.00017576
0.000185664
0.000190976
0.00019104
0.000188036
0.000183492
0.000183474
0.000174003
0.000499138
0.000591487
0.000427596
)
;
    }
    sWall
    {
        type            compressible::alphatWallFunction;
        Prt             0.85;
        value           uniform 0.000303346;
    }
    nWall
    {
        type            compressible::alphatWallFunction;
        Prt             0.85;
        value           nonuniform List<scalar> 6(0.000182387 0.000192173 0.00018751 0.000252388 0.000223356 0.000173653);
    }
    sideWalls
    {
        type            empty;
    }
    glass1
    {
        type            compressible::alphatWallFunction;
        Prt             0.85;
        value           nonuniform List<scalar> 9(0.000118153 0.000202226 0.000272431 0.000336313 0.000393682 0.000445881 0.000494076 0.000505802 0.0004918);
    }
    glass2
    {
        type            compressible::alphatWallFunction;
        Prt             0.85;
        value           nonuniform List<scalar> 2(0.000226367 0.000254774);
    }
    sun
    {
        type            compressible::alphatWallFunction;
        Prt             0.85;
        value           nonuniform List<scalar> 
14
(
0.000121703
0.000124822
0.00011333
0.000117547
0.000122197
0.000126579
0.000130699
0.000134664
0.000138639
0.00014266
0.000145981
0.000148394
0.00014975
0.000149969
)
;
    }
    heatsource1
    {
        type            compressible::alphatWallFunction;
        Prt             0.85;
        value           nonuniform List<scalar> 3(0.000231119 0.000207752 0.000182786);
    }
    heatsource2
    {
        type            compressible::alphatWallFunction;
        Prt             0.85;
        value           nonuniform List<scalar> 4(0.0001595 0.000109665 0.000109664 0.000169801);
    }
    Table_master
    {
        type            compressible::alphatWallFunction;
        Prt             0.85;
        value           nonuniform List<scalar> 9(5.47685e-05 4.62522e-05 5.36664e-05 6.12344e-05 6.90029e-05 7.7375e-05 8.69209e-05 9.8617e-05 0.000113906);
    }
    Table_slave
    {
        type            compressible::alphatWallFunction;
        Prt             0.85;
        value           nonuniform List<scalar> 9(0.00012162 0.0001216 0.000122153 0.000122892 0.000123889 0.000125444 0.000128164 0.000133269 0.000142222);
    }
    inlet
    {
        type            fixedValue;
        value           uniform 1.94e-05;
    }
    outlet
    {
        type            zeroGradient;
    }
}


// ************************************************************************* //
