// -*- C++ -*-
// File generated by PyFoam - sorry for the ugliness

FoamFile
{
 version 2.0;
 format ascii;
 class volVectorField;
 location "200";
 object U;
}

dimensions [ 0 1 -1 0 0 0 0 ];

internalField nonuniform List<vector> 459
(
  (0.10395 0.0669601 0)
  (-0.136701 0.000634837 0)
  (-0.11434 0.0048421 0)
  (-0.126953 0.00645364 0)
  (-0.139913 0.00587205 0)
  (-0.151654 0.00429153 0)
  (-0.160905 0.00206095 0)
  (-0.166708 -0.000726918 0)
  (-0.168195 -0.00407295 0)
  (-0.164473 -0.00808304 0)
  (-0.154347 -0.012939 0)
  (-0.136158 -0.0188485 0)
  (-0.109222 -0.026774 0)
  (-0.0803027 -0.0385393 0)
  (-0.0746982 -0.0530216 0)
  (0.0221657 0.0151519 0)
  (-0.0425373 -0.00773784 0)
  (-0.0305188 -0.00788479 0)
  (-0.0278019 -0.00391431 0)
  (-0.0268845 -0.00320838 0)
  (-0.0249382 -0.00579493 0)
  (-0.016586 -0.0116016 0)
  (-0.0103065 -0.0142885 0)
  (0.00532883 -0.00952599 0)
  (0.0119233 -0.00702937 0)
  (0.017244 -0.00540658 0)
  (0.0213293 -0.00427346 0)
  (0.0243914 -0.00320018 0)
  (0.0266728 -0.00153382 0)
  (0.0278811 -0.00026452 0)
  (0.0298546 -0.00192265 0)
  (0.0338569 -0.00628505 0)
  (0.0458942 -0.00290723 0)
  (-0.014874 0.0186406 0)
  (0.308705 0.14672 0)
  (-0.162085 0.0154341 0)
  (-0.105599 0.0180675 0)
  (-0.124374 0.0203217 0)
  (-0.138621 0.0195089 0)
  (-0.151022 0.0167394 0)
  (-0.160801 0.0124973 0)
  (-0.167272 0.0069145 0)
  (-0.169683 -1.63258e-05 0)
  (-0.167297 -0.00834298 0)
  (-0.159515 -0.0178616 0)
  (-0.14557 -0.0284419 0)
  (-0.125442 -0.0408043 0)
  (-0.101499 -0.0564254 0)
  (-0.078827 -0.0732906 0)
  (-0.0600367 -0.08006 0)
  (0.042853 0.0139834 0)
  (0.130205 0.0212136 0)
  (0.043625 0.0134913 0)
  (0.00951913 0.00615659 0)
  (-0.000998854 0.00409428 0)
  (-0.00310632 0.00520433 0)
  (-0.00893142 0.00478838 0)
  (-0.00438345 -0.0119177 0)
  (-0.0118674 -0.0153061 0)
  (-0.00745756 -0.0100648 0)
  (-0.00680846 -0.0066644 0)
  (-0.00729477 -0.00466482 0)
  (-0.00829584 -0.00283104 0)
  (-0.00983264 -0.000430692 0)
  (-0.0130068 0.00142344 0)
  (-0.0140011 -0.00168286 0)
  (-0.0114719 -0.0115417 0)
  (-0.00659152 -0.0192901 0)
  (0.0243799 -0.00561579 0)
  (-0.10208 0.0445406 0)
  (0.478248 0.224633 0)
  (-0.20862 0.0425338 0)
  (-0.0891078 0.0371037 0)
  (-0.116227 0.0352014 0)
  (-0.13118 0.0322432 0)
  (-0.144074 0.0269906 0)
  (-0.154515 0.0196139 0)
  (-0.162033 0.0102238 0)
  (-0.165998 -0.00108548 0)
  (-0.165642 -0.0140659 0)
  (-0.161079 -0.0284501 0)
  (-0.152553 -0.0436847 0)
  (-0.140953 -0.0595201 0)
  (-0.127924 -0.0753387 0)
  (-0.115522 -0.0877756 0)
  (-0.107545 -0.090499 0)
  (-0.113547 -0.0820905 0)
  (0.0558445 0.0186823 0)
  (-0.0427158 0.0147176 0)
  (-0.0392392 0.0131063 0)
  (-0.0335325 0.00691237 0)
  (-0.0267167 0.000268732 0)
  (-0.0232531 -0.0067576 0)
  (0.0117439 -0.0111382 0)
  (-0.0214334 -0.0130806 0)
  (-0.0325332 -0.00877717 0)
  (-0.0394918 -0.00645681 0)
  (-0.0442152 -0.00506374 0)
  (-0.0472756 -0.00409045 0)
  (-0.0489171 -0.00340771 0)
  (-0.0491929 -0.00341425 0)
  (-0.0474415 -0.00553725 0)
  (-0.0353856 -0.00900541 0)
  (-0.0457311 -0.00232119 0)
  (-0.074189 0.00950746 0)
  (-0.15844 0.0223084 0)
  (0.614947 0.289722 0)
  (-0.255528 0.0753836 0)
  (-0.0677277 0.0581269 0)
  (-0.104123 0.0511312 0)
  (-0.118714 0.0460956 0)
  (-0.130904 0.0388464 0)
  (-0.141032 0.0291244 0)
  (-0.148726 0.0168562 0)
  (-0.153433 0.00210398 0)
  (-0.154372 -0.0146334 0)
  (-0.152156 -0.0322531 0)
  (-0.148235 -0.0495778 0)
  (-0.144317 -0.065723 0)
  (-0.142302 -0.0793363 0)
  (-0.144497 -0.0871559 0)
  (-0.154904 -0.0829324 0)
  (-0.173058 -0.0547143 0)
  (-0.16495 0.0119355 0)
  (-0.115273 0.0147188 0)
  (-0.107245 0.0114681 0)
  (-0.0919102 0.00538005 0)
  (-0.084799 -0.00185649 0)
  (-0.0804926 -0.0091689 0)
  (-0.0794434 -0.0149204 0)
  (-0.0747057 -0.0119478 0)
  (-0.0619448 -0.0115534 0)
  (-0.0495115 -0.0120012 0)
  (-0.0371041 -0.0122716 0)
  (-0.0250354 -0.0122438 0)
  (-0.0137556 -0.0118972 0)
  (-0.00318815 -0.011208 0)
  (0.00757241 -0.0100468 0)
  (0.0185861 -0.0084549 0)
  (0.0179269 -0.0110574 0)
  (0.0255398 -0.00430328 0)
  (0.037742 -0.00170618 0)
  (-0.0673944 -0.00270911 0)
  (0.724065 0.343737 0)
  (-0.296155 0.110667 0)
  (-0.0450534 0.0775819 0)
  (-0.0887972 0.0657783 0)
  (-0.101966 0.0584619 0)
  (-0.111719 0.0492159 0)
  (-0.119695 0.0374041 0)
  (-0.125617 0.0226847 0)
  (-0.128924 0.00504568 0)
  (-0.128643 -0.0146539 0)
  (-0.126076 -0.0341213 0)
  (-0.123409 -0.0514211 0)
  (-0.122416 -0.0658346 0)
  (-0.12443 -0.076806 0)
  (-0.130301 -0.0831284 0)
  (-0.139691 -0.0823996 0)
  (-0.147605 -0.0695997 0)
  (-0.146126 -0.0402136 0)
  (-0.133272 -0.0165095 0)
  (-0.117067 -0.00611149 0)
  (-0.102661 -0.00581085 0)
  (-0.0925021 -0.00878481 0)
  (-0.0854894 -0.013091 0)
  (-0.0804817 -0.0163914 0)
  (-0.0746355 -0.0163912 0)
  (-0.0669054 -0.0170739 0)
  (-0.0587235 -0.01758 0)
  (-0.0505702 -0.0176271 0)
  (-0.0427936 -0.0170708 0)
  (-0.0356776 -0.0160234 0)
  (-0.0291883 -0.0148282 0)
  (-0.0227158 -0.0139776 0)
  (-0.0154537 -0.0142556 0)
  (-0.00746024 -0.0177267 0)
  (0.007986 -0.0187122 0)
  (0.037191 -0.0164851 0)
  (0.0618946 -0.0107637 0)
  (0.108968 -0.0169783 0)
  (0.136609 0.00827508 0)
  (-0.0385805 0.0654383 0)
  (0.797514 0.392415 0)
  (-0.330514 0.143848 0)
  (-0.0274003 0.0907323 0)
  (-0.0700429 0.0782674 0)
  (-0.0813445 0.0681526 0)
  (-0.0872966 0.0565733 0)
  (-0.0912383 0.0428259 0)
  (-0.0933987 0.0260081 0)
  (-0.0930985 0.00572429 0)
  (-0.0886863 -0.0167179 0)
  (-0.0841934 -0.0369865 0)
  (-0.0813965 -0.0527671 0)
  (-0.0815674 -0.0641951 0)
  (-0.0852842 -0.0715654 0)
  (-0.0924239 -0.0743286 0)
  (-0.101519 -0.0708361 0)
  (-0.108588 -0.0593384 0)
  (-0.10949 -0.0422383 0)
  (-0.103873 -0.0272467 0)
  (-0.0948634 -0.0186746 0)
  (-0.0860559 -0.0158972 0)
  (-0.0791943 -0.0164724 0)
  (-0.0743856 -0.0187247 0)
  (-0.0710179 -0.020905 0)
  (-0.067876 -0.0219853 0)
  (-0.0644518 -0.0228727 0)
  (-0.0611058 -0.0233028 0)
  (-0.058205 -0.0229377 0)
  (-0.0561235 -0.0216723 0)
  (-0.0551341 -0.0197958 0)
  (-0.0552115 -0.0180078 0)
  (-0.0559356 -0.0172821 0)
  (-0.0566418 -0.0188733 0)
  (-0.0562802 -0.0240175 0)
  (-0.0513146 -0.0322037 0)
  (-0.0380011 -0.0445703 0)
  (-0.0188023 -0.0631843 0)
  (0.0101524 -0.0728986 0)
  (0.106153 0.00191834 0)
  (-0.0749184 0.125335 0)
  (0.818062 0.437363 0)
  (-0.349291 0.151179 0)
  (-0.0116989 0.0786141 0)
  (-0.0370596 0.0885164 0)
  (-0.0514006 0.0757988 0)
  (-0.0544547 0.0589907 0)
  (-0.0529052 0.0426118 0)
  (-0.0493671 0.0238103 0)
  (-0.042108 0.000678935 0)
  (-0.0315468 -0.0238678 0)
  (-0.0261872 -0.0422543 0)
  (-0.0244448 -0.0544862 0)
  (-0.0264696 -0.062001 0)
  (-0.0321164 -0.065933 0)
  (-0.0407015 -0.0664572 0)
  (-0.0505372 -0.0626784 0)
  (-0.0588288 -0.0538703 0)
  (-0.0628911 -0.042224 0)
  (-0.0625923 -0.0316115 0)
  (-0.0597154 -0.0245124 0)
  (-0.0563321 -0.0210855 0)
  (-0.0537203 -0.0203028 0)
  (-0.0523076 -0.0210824 0)
  (-0.0519606 -0.0222896 0)
  (-0.0522326 -0.0232284 0)
  (-0.0529685 -0.0237796 0)
  (-0.0544398 -0.0235175 0)
  (-0.0570937 -0.0220502 0)
  (-0.0615692 -0.0193681 0)
  (-0.0684878 -0.016085 0)
  (-0.0781314 -0.0133199 0)
  (-0.0902428 -0.0121581 0)
  (-0.103931 -0.0137631 0)
  (-0.118254 -0.0198978 0)
  (-0.131852 -0.0326379 0)
  (-0.142591 -0.0537361 0)
  (-0.146052 -0.0797037 0)
  (-0.132797 -0.0889937 0)
  (-0.0918646 -0.0258721 0)
  (-0.157195 0.229069 0)
  (0.920021 0.464144 0)
  (-0.162577 0.133053 0)
  (0.0541725 0.0352379 0)
  (0.0678231 0.0555237 0)
  (0.028294 0.0553541 0)
  (0.0123052 0.0358361 0)
  (0.0152504 0.0181434 0)
  (0.0220848 -0.000690345 0)
  (0.0399773 -0.020364 0)
  (0.0479862 -0.0356835 0)
  (0.0489987 -0.0467556 0)
  (0.0458812 -0.0537805 0)
  (0.0397121 -0.0573352 0)
  (0.0310235 -0.058119 0)
  (0.0203234 -0.0566147 0)
  (0.00863947 -0.0527608 0)
  (-0.00237001 -0.0461336 0)
  (-0.0100056 -0.0380564 0)
  (-0.0143274 -0.0305636 0)
  (-0.0164663 -0.025 0)
  (-0.0177049 -0.0217154 0)
  (-0.019 -0.02033 0)
  (-0.0208437 -0.0202133 0)
  (-0.0233585 -0.0206173 0)
  (-0.026451 -0.0209312 0)
  (-0.0301145 -0.0206708 0)
  (-0.0345866 -0.0191289 0)
  (-0.0402557 -0.0155858 0)
  (-0.0479401 -0.00970649 0)
  (-0.0584892 -0.00187613 0)
  (-0.0728831 0.0064891 0)
  (-0.0938112 0.0125051 0)
  (-0.122083 0.0126766 0)
  (-0.157066 0.00425591 0)
  (-0.196793 -0.0132576 0)
  (-0.236913 -0.0370089 0)
  (-0.270617 -0.0609954 0)
  (-0.300084 -0.0766125 0)
  (-0.365889 -0.0690503 0)
  (-0.612635 -0.0138221 0)
  (1.05668 0.434824 0)
  (0.50945 0.289861 0)
  (0.474586 0.245498 0)
  (0.401429 0.197619 0)
  (0.30912 0.152599 0)
  (0.245245 0.104032 0)
  (0.21098 0.061553 0)
  (0.193101 0.0280274 0)
  (0.176045 0.000716035 0)
  (0.157899 -0.0201595 0)
  (0.141263 -0.0341989 0)
  (0.125957 -0.0423521 0)
  (0.111405 -0.0459738 0)
  (0.0972519 -0.0462719 0)
  (0.083362 -0.0441731 0)
  (0.0698614 -0.0403772 0)
  (0.0573066 -0.0355083 0)
  (0.046688 -0.0301949 0)
  (0.0383903 -0.0252057 0)
  (0.0320593 -0.0212438 0)
  (0.0269583 -0.0186189 0)
  (0.0223714 -0.017234 0)
  (0.017809 -0.0167633 0)
  (0.0130349 -0.0167529 0)
  (0.00803133 -0.0167268 0)
  (0.00290339 -0.0161787 0)
  (-0.00228217 -0.0143433 0)
  (-0.00696556 -0.0104502 0)
  (-0.0109688 -0.00393994 0)
  (-0.0136575 0.0053249 0)
  (-0.0166549 0.0165923 0)
  (-0.0201763 0.0280597 0)
  (-0.0248036 0.0364834 0)
  (-0.0306079 0.0385384 0)
  (-0.0373795 0.0314369 0)
  (-0.0494641 0.0129797 0)
  (-0.0679674 -0.0174689 0)
  (-0.0608443 -0.0650979 0)
  (-0.0829727 -0.155409 0)
  (-0.532525 -0.266288 0)
  (-0.284806 0.218156 0)
  (0.135708 0.204556 0)
  (0.20407 0.156234 0)
  (0.210402 0.108226 0)
  (0.217555 0.0677571 0)
  (0.22146 0.0360135 0)
  (0.218942 0.0124696 0)
  (0.20994 -0.00469397 0)
  (0.197218 -0.0167532 0)
  (0.182554 -0.0245006 0)
  (0.167023 -0.0286552 0)
  (0.151463 -0.0299094 0)
  (0.136505 -0.028934 0)
  (0.122572 -0.0263961 0)
  (0.109926 -0.0229947 0)
  (0.0987484 -0.019411 0)
  (0.0890798 -0.0161957 0)
  (0.0807619 -0.0137136 0)
  (0.0734607 -0.0121002 0)
  (0.0667808 -0.011275 0)
  (0.060386 -0.0110186 0)
  (0.0540764 -0.0110401 0)
  (0.0478293 -0.0110251 0)
  (0.0418071 -0.0106315 0)
  (0.0363544 -0.00943227 0)
  (0.032075 -0.00685898 0)
  (0.0297296 -0.00238445 0)
  (0.0299867 0.00455949 0)
  (0.0330411 0.0137315 0)
  (0.0388637 0.0232853 0)
  (0.0464788 0.0300722 0)
  (0.0545131 0.0310042 0)
  (0.0616501 0.0248882 0)
  (0.0666316 0.0135177 0)
  (0.0713966 0.00115345 0)
  (0.0799726 -0.014188 0)
  (0.137205 -0.0762936 0)
  (-0.160528 -0.207675 0)
  (-0.201196 0.190298 0)
  (0.110982 0.15674 0)
  (0.129578 0.107279 0)
  (0.162715 0.0737071 0)
  (0.194411 0.0460837 0)
  (0.214158 0.0235621 0)
  (0.221871 0.00663595 0)
  (0.221015 -0.00524628 0)
  (0.214399 -0.0129439 0)
  (0.204235 -0.0175511 0)
  (0.19205 -0.0197826 0)
  (0.179048 -0.0201797 0)
  (0.166203 -0.0191974 0)
  (0.154235 -0.0172443 0)
  (0.143578 -0.014718 0)
  (0.134372 -0.0119985 0)
  (0.126493 -0.00938379 0)
  (0.119631 -0.00704558 0)
  (0.113415 -0.00503157 0)
  (0.107506 -0.00330856 0)
  (0.101669 -0.00181228 0)
  (0.0957943 -0.000476034 0)
  (0.0899156 0.000766384 0)
  (0.0842155 0.00201813 0)
  (0.0790465 0.0035061 0)
  (0.0749758 0.0056847 0)
  (0.0728428 0.00910478 0)
  (0.0734395 0.0136199 0)
  (0.0777802 0.0191597 0)
  (0.0862488 0.0249784 0)
  (0.0979078 0.0291806 0)
  (0.110723 0.0297117 0)
  (0.122076 0.0256517 0)
  (0.129388 0.0171809 0)
  (0.130209 0.00316469 0)
  (0.12268 -0.0190574 0)
  (0.154295 -0.0650076 0)
  (-0.195485 -0.146006 0)
  (0.140395 -0.189986 0)
  (-0.250446 -0.053631 0)
  (-0.190903 0.154355 0)
  (0.0301634 0.0923933 0)
  (0.069359 0.0621177 0)
  (0.123871 0.047911 0)
  (0.169686 0.035871 0)
  (0.198934 0.0261045 0)
  (0.213032 0.0190572 0)
  (0.21638 0.0143968 0)
  (0.212991 0.0110319 0)
  (0.205527 0.00862846 0)
  (0.195762 0.00699596 0)
  (0.18501 0.0059712 0)
  (0.174323 0.0053722 0)
  (0.164506 0.00498688 0)
  (0.156091 0.00457114 0)
  (0.149324 0.00386574 0)
  (0.144185 0.00263867 0)
  (0.140443 0.000730091 0)
  (0.137753 -0.00192503 0)
  (0.135747 -0.00530829 0)
  (0.134104 -0.00934431 0)
  (0.132581 -0.0139222 0)
  (0.131007 -0.0189068 0)
  (0.129292 -0.0241357 0)
  (0.127458 -0.0293975 0)
  (0.125732 -0.0343797 0)
  (0.124816 -0.0386233 0)
  (0.125398 -0.041063 0)
  (0.128524 -0.0409194 0)
  (0.135251 -0.0385209 0)
  (0.145666 -0.0354837 0)
  (0.158183 -0.0339935 0)
  (0.169815 -0.0356652 0)
  (0.177354 -0.0413416 0)
  (0.176617 -0.0500204 0)
  (0.163453 -0.0614934 0)
  (0.178731 -0.080272 0)
  (-0.216688 -0.121081 0)
)
;

boundaryField
{
  floor
  {
    type noSlip;
  }
  ceiling
  {
    type noSlip;
  }
  sWall
  {
    type noSlip;
  }
  nWall
  {
    type noSlip;
  }
  sideWalls
  {
    type empty;
  }
  glass1
  {
    type noSlip;
  }
  glass2
  {
    type noSlip;
  }
  sun
  {
    type noSlip;
  }
  heatsource1
  {
    type noSlip;
  }
  heatsource2
  {
    type noSlip;
  }
  Table_master
  {
    type noSlip;
  }
  Table_slave
  {
    type noSlip;
  }
  inlet
  {
    type fixedValue;
    value uniform (0.0707107 -0.0707107 0);
  }
  outlet
  {
    type zeroGradient;
  }
} 	// ************************************************************************* //

