/*--------------------------------*- C++ -*----------------------------------*\
  =========                 |
  \\      /  F ield         | OpenFOAM: The Open Source CFD Toolbox
   \\    /   O peration     | Website:  https://openfoam.org
    \\  /    A nd           | Version:  6
     \\/     M anipulation  |
\*---------------------------------------------------------------------------*/
FoamFile
{
    version     2.0;
    format      ascii;
    class       volScalarField;
    location    "100";
    object      alphat;
}
// * * * * * * * * * * * * * * * * * * * * * * * * * * * * * * * * * * * * * //

dimensions      [1 -1 -1 0 0 0 0];

internalField   nonuniform List<scalar> 
459
(
0.000924777
0.000948451
0.00083719
0.000866242
0.000901457
0.000935686
0.000968624
0.00100104
0.00103438
0.00106627
0.00109119
0.00110667
0.00111037
0.00110028
0.00107014
0.000577302
0.0006639
0.000644611
0.000499521
0.000339659
0.00028597
0.000267633
0.000265059
0.000255642
0.000247385
0.000244239
0.000243828
0.00025443
0.000310433
0.000423751
0.000615528
0.000785206
0.000795542
0.000683096
0.00161921
0.00300005
0.00209981
0.00289529
0.0031635
0.00341913
0.00368418
0.00393233
0.00412724
0.00426004
0.0043181
0.00425508
0.00399685
0.00342671
0.00242485
0.00113963
0.000813642
0.000669354
0.00172535
0.00170282
0.00139617
0.00100265
0.000661379
0.000562037
0.00044293
0.000428809
0.000439067
0.000451004
0.000473541
0.000559531
0.000731552
0.00111499
0.00170727
0.00213021
0.00219682
0.000790318
0.00219395
0.00486664
0.00223818
0.00403142
0.00470145
0.00497947
0.00521004
0.00540434
0.00554781
0.00563805
0.00565159
0.00553497
0.00520646
0.00456179
0.00354228
0.00230479
0.00119743
0.00112015
0.00274992
0.00232289
0.00191735
0.00159478
0.0012677
0.000395787
0.000260333
0.000260617
0.000292026
0.000341046
0.00040617
0.000490365
0.000606409
0.00081093
0.0020417
0.00241141
0.00191676
0.000888006
0.00271468
0.0070319
0.00252972
0.00420743
0.00547409
0.00577901
0.00596296
0.00612338
0.00626217
0.0063734
0.00646528
0.00649278
0.00636516
0.00594177
0.00506468
0.00370868
0.00223663
0.00135232
0.00266697
0.00285856
0.00256359
0.00222864
0.00188861
0.00149049
0.00113869
0.00117043
0.00121086
0.00125501
0.00129947
0.0013412
0.00137994
0.00140344
0.00141349
0.00232686
0.00291712
0.00331263
0.00129501
0.00318114
0.00923579
0.00318565
0.00387606
0.00566376
0.00603695
0.00617779
0.006305
0.00644484
0.0065994
0.00683358
0.00714519
0.00748091
0.00775438
0.00785613
0.00769001
0.00723781
0.00657118
0.00596118
0.00558328
0.00541472
0.0052952
0.00518915
0.00511655
0.00509175
0.00518272
0.00532102
0.00546795
0.00557888
0.00562223
0.00560449
0.005559
0.00550191
0.00548121
0.00531032
0.00482258
0.00359461
0.00156659
0.00138156
0.00134455
0.00360524
0.011086
0.00433625
0.00347699
0.00529953
0.00581987
0.00595015
0.00601915
0.00608466
0.00618024
0.00645768
0.00691456
0.00751149
0.00817555
0.00879036
0.00921111
0.00931281
0.00907289
0.00860564
0.00809121
0.00765715
0.00735247
0.00715082
0.00701019
0.00690668
0.00685351
0.00685002
0.00685613
0.00681049
0.00667618
0.00648055
0.00630294
0.00621055
0.00620198
0.00626138
0.00628457
0.00579507
0.00487621
0.00326566
0.00165353
0.00399638
0.0123486
0.00641008
0.00354463
0.00411538
0.0049875
0.00538756
0.00553931
0.00549356
0.0054457
0.00563188
0.00602948
0.00663624
0.00742074
0.00827977
0.00903287
0.00949338
0.0095987
0.00940823
0.00906738
0.00871678
0.00843052
0.00821425
0.00804339
0.00789785
0.00778849
0.00772782
0.00768021
0.0075597
0.00729476
0.00690634
0.00650557
0.00619992
0.00601895
0.00591044
0.00573845
0.00535013
0.00478466
0.00381668
0.00169111
0.00408749
0.0127116
0.00900421
0.00582958
0.00425311
0.00444095
0.00496314
0.00532093
0.00505611
0.00488035
0.00488382
0.00505626
0.00541601
0.00600178
0.00681715
0.00771831
0.0084307
0.00886303
0.00900737
0.00894677
0.00879405
0.00863266
0.00850277
0.0084193
0.00838975
0.00842189
0.00851059
0.00861534
0.00863575
0.00844435
0.00799074
0.00734677
0.00659896
0.00582052
0.00507615
0.00442177
0.00387645
0.00339437
0.00293161
0.00192571
0.00395885
0.00476909
0.00532272
0.00518101
0.00464501
0.00419418
0.00397095
0.00392643
0.00395076
0.00402028
0.00411862
0.00424786
0.00443084
0.00471535
0.00516359
0.00579033
0.00649469
0.00712926
0.00758614
0.00784897
0.00796597
0.00799928
0.00800114
0.0080185
0.00810676
0.00833116
0.0087254
0.00922798
0.00969238
0.0100209
0.0101714
0.0101274
0.00993001
0.00963223
0.00920012
0.00843277
0.007202
0.0060881
0.00548361
0.00214691
0.00438619
0.00503218
0.00483396
0.00449473
0.00421699
0.00402599
0.00389962
0.00382932
0.00380018
0.00379972
0.00382599
0.00389213
0.00402952
0.00428044
0.00466759
0.00516111
0.00568074
0.00614355
0.00650386
0.00675635
0.0069227
0.00704254
0.00717407
0.00739811
0.00780337
0.00842845
0.00918954
0.00988951
0.0103741
0.0106169
0.0106563
0.0105604
0.0103803
0.0101105
0.00963408
0.00855939
0.00743044
0.00214936
0.00323111
0.00506162
0.00492321
0.00464738
0.00436463
0.00411636
0.00390643
0.00372872
0.00354614
0.00337121
0.00321858
0.00310228
0.00303853
0.00304805
0.00315481
0.00337644
0.00370656
0.004105
0.00451137
0.00487268
0.00516289
0.00538675
0.00557513
0.00578032
0.00607139
0.00651704
0.00713702
0.00783156
0.00844547
0.00890068
0.00916653
0.00925742
0.00920208
0.00900512
0.00857828
0.00747926
0.00613036
0.00196865
0.00234561
0.0025897
0.00281593
0.00287303
0.00259581
0.00240117
0.00223092
0.00208226
0.00195145
0.00183529
0.00173447
0.00164459
0.00156298
0.0014884
0.00142056
0.00135994
0.00130756
0.0012649
0.00123354
0.00121443
0.0012071
0.00120952
0.00121873
0.00123193
0.00124745
0.00126543
0.00128821
0.0013202
0.00136603
0.00143189
0.00151987
0.00161928
0.00171704
0.00180039
0.00185838
0.00188099
0.00185477
0.00181079
0.00176259
0.00163305
)
;

boundaryField
{
    floor
    {
        type            compressible::alphatWallFunction;
        Prt             0.85;
        value           nonuniform List<scalar> 
29
(
0.000151994
8.08384e-05
9.37475e-05
9.08731e-05
6.90226e-05
4.39955e-05
3.52666e-05
3.22338e-05
3.18044e-05
3.02336e-05
2.88482e-05
2.83152e-05
2.8243e-05
3.00277e-05
3.92833e-05
5.73581e-05
8.66056e-05
0.000111535
0.000113026
9.65925e-05
9.65913e-05
0.000112235
0.000126274
0.000183061
0.000151993
8.08374e-05
9.45535e-05
0.000158932
0.000190863
)
;
    }
    ceiling
    {
        type            compressible::alphatWallFunction;
        Prt             0.85;
        value           nonuniform List<scalar> 
43
(
0.00032182
0.000352911
0.000381454
0.000388621
0.000353683
0.000328921
0.000307085
0.000287873
0.000270845
0.00025562
0.00024232
0.000230392
0.000219499
0.000209488
0.000200335
0.000192113
0.000184975
0.000179139
0.000174835
0.000172205
0.000171196
0.000171529
0.000172796
0.00017461
0.000176739
0.000179202
0.000182318
0.000186684
0.000192923
0.000201848
0.000213702
0.000227006
0.000240004
0.000251024
0.000258663
0.00026164
0.000258201
0.000252417
0.000246052
0.000228868
0.000522452
0.00061976
0.000433232
)
;
    }
    sWall
    {
        type            compressible::alphatWallFunction;
        Prt             0.85;
        value           uniform 0.000320676;
    }
    nWall
    {
        type            compressible::alphatWallFunction;
        Prt             0.85;
        value           nonuniform List<scalar> 6(0.000189522 0.00023103 0.000236139 0.000296096 0.000272656 0.000228462);
    }
    sideWalls
    {
        type            empty;
    }
    glass1
    {
        type            compressible::alphatWallFunction;
        Prt             0.85;
        value           nonuniform List<scalar> 9(0.000127425 0.000221024 0.000295359 0.000361084 0.000418952 0.000470873 0.000518243 0.000529374 0.000514159);
    }
    glass2
    {
        type            compressible::alphatWallFunction;
        Prt             0.85;
        value           nonuniform List<scalar> 2(0.000264669 0.000293327);
    }
    sun
    {
        type            compressible::alphatWallFunction;
        Prt             0.85;
        value           nonuniform List<scalar> 
14
(
0.00013155
0.000134884
0.000119006
0.000123175
0.000128206
0.000133074
0.000137738
0.000142311
0.000146996
0.000151461
0.000154939
0.000157094
0.000157607
0.0001562
)
;
    }
    heatsource1
    {
        type            compressible::alphatWallFunction;
        Prt             0.85;
        value           nonuniform List<scalar> 3(0.000219986 0.000195047 0.00019008);
    }
    heatsource2
    {
        type            compressible::alphatWallFunction;
        Prt             0.85;
        value           nonuniform List<scalar> 4(0.000161922 0.000115855 0.000115853 0.000169913);
    }
    Table_master
    {
        type            compressible::alphatWallFunction;
        Prt             0.85;
        value           nonuniform List<scalar> 9(5.31313e-05 3.12167e-05 3.12691e-05 3.64545e-05 4.44106e-05 5.4759e-05 6.78332e-05 8.54088e-05 0.000115443);
    }
    Table_slave
    {
        type            compressible::alphatWallFunction;
        Prt             0.85;
        value           nonuniform List<scalar> 9(0.000161797 0.000166199 0.000171786 0.000177865 0.000183962 0.000189666 0.000194944 0.000198133 0.000199487);
    }
    inlet
    {
        type            fixedValue;
        value           uniform 1.94e-05;
    }
    outlet
    {
        type            zeroGradient;
    }
}


// ************************************************************************* //
