// -*- C++ -*-
// File generated by PyFoam - sorry for the ugliness

FoamFile
{
 version 2.0;
 format ascii;
 class volScalarField;
 location "100";
 object T;
}

dimensions [ 0 0 0 1 0 0 0 ];

internalField nonuniform List<scalar> 459
(
  301.24
  300.836
  300.827
  300.836
  300.844
  300.851
  300.857
  300.862
  300.867
  300.87
  300.87
  300.866
  300.859
  300.849
  300.84
  300.386
  300.36
  300.354
  300.341
  300.298
  300.224
  300.166
  300.111
  300.102
  300.106
  300.114
  300.127
  300.148
  300.182
  300.254
  300.371
  300.391
  300.365
  300.358
  301.521
  300.911
  300.87
  300.884
  300.901
  300.917
  300.93
  300.942
  300.951
  300.957
  300.956
  300.946
  300.927
  300.897
  300.856
  300.809
  300.693
  300.405
  300.394
  300.38
  300.378
  300.344
  300.235
  300.063
  300
  299.991
  299.999
  300.018
  300.048
  300.097
  300.188
  300.318
  300.48
  300.435
  300.38
  300.355
  301.781
  301.006
  300.929
  300.948
  300.975
  301.002
  301.025
  301.045
  301.06
  301.07
  301.068
  301.053
  301.022
  300.976
  300.914
  300.846
  300.786
  300.515
  300.519
  300.548
  300.581
  300.587
  300.539
  300.078
  299.969
  299.97
  300
  300.049
  300.114
  300.194
  300.291
  300.437
  300.619
  300.478
  300.426
  300.411
  302.019
  301.11
  300.992
  301.014
  301.054
  301.094
  301.131
  301.163
  301.187
  301.203
  301.204
  301.186
  301.149
  301.092
  301.017
  300.927
  300.831
  300.759
  300.71
  300.766
  300.82
  300.856
  300.873
  300.881
  300.888
  300.885
  300.882
  300.877
  300.872
  300.866
  300.857
  300.847
  300.833
  300.8
  300.73
  300.66
  300.647
  302.238
  301.22
  301.057
  301.077
  301.129
  301.183
  301.235
  301.282
  301.321
  301.346
  301.355
  301.343
  301.311
  301.258
  301.191
  301.117
  301.044
  300.986
  300.951
  300.951
  300.97
  300.981
  300.982
  300.977
  300.969
  300.958
  300.945
  300.932
  300.92
  300.909
  300.901
  300.893
  300.882
  300.862
  300.826
  300.768
  300.726
  300.712
  300.7
  300.802
  302.427
  301.335
  301.13
  301.132
  301.191
  301.256
  301.322
  301.385
  301.439
  301.479
  301.499
  301.497
  301.473
  301.428
  301.367
  301.297
  301.228
  301.171
  301.131
  301.109
  301.099
  301.092
  301.083
  301.07
  301.054
  301.033
  301.011
  300.988
  300.968
  300.956
  300.951
  300.951
  300.951
  300.948
  300.944
  300.941
  300.926
  300.863
  300.777
  300.774
  302.576
  301.506
  301.271
  301.207
  301.247
  301.314
  301.385
  301.458
  301.529
  301.583
  301.615
  301.626
  301.617
  301.587
  301.537
  301.474
  301.408
  301.346
  301.297
  301.261
  301.236
  301.217
  301.2
  301.18
  301.156
  301.127
  301.092
  301.055
  301.026
  301.012
  301.015
  301.03
  301.049
  301.069
  301.09
  301.11
  301.122
  301.108
  300.977
  300.838
  302.831
  301.978
  301.711
  301.488
  301.392
  301.41
  301.464
  301.53
  301.61
  301.664
  301.699
  301.72
  301.726
  301.717
  301.687
  301.637
  301.58
  301.521
  301.467
  301.422
  301.387
  301.358
  301.333
  301.308
  301.28
  301.244
  301.198
  301.147
  301.102
  301.079
  301.083
  301.109
  301.145
  301.183
  301.218
  301.249
  301.277
  301.3
  301.319
  301.335
  303.181
  302.815
  302.58
  302.291
  302.059
  301.909
  301.825
  301.791
  301.776
  301.778
  301.789
  301.8
  301.807
  301.806
  301.794
  301.768
  301.73
  301.683
  301.633
  301.586
  301.545
  301.51
  301.479
  301.45
  301.419
  301.383
  301.338
  301.282
  301.221
  301.171
  301.144
  301.135
  301.141
  301.161
  301.188
  301.221
  301.26
  301.301
  301.35
  301.485
  302.123
  302.205
  302.127
  302.043
  301.984
  301.95
  301.933
  301.919
  301.91
  301.903
  301.896
  301.888
  301.877
  301.86
  301.837
  301.807
  301.771
  301.732
  301.694
  301.658
  301.625
  301.593
  301.561
  301.526
  301.485
  301.435
  301.378
  301.321
  301.267
  301.225
  301.197
  301.184
  301.182
  301.187
  301.195
  301.208
  301.23
  301.287
  302.121
  302.186
  302.139
  302.091
  302.054
  302.03
  302.014
  302.001
  301.989
  301.978
  301.967
  301.956
  301.944
  301.93
  301.913
  301.893
  301.87
  301.843
  301.814
  301.784
  301.754
  301.724
  301.693
  301.66
  301.624
  301.582
  301.533
  301.478
  301.42
  301.364
  301.316
  301.277
  301.25
  301.233
  301.223
  301.224
  301.239
  301.297
  302.185
  302.13
  302.132
  302.167
  302.129
  302.104
  302.085
  302.07
  302.059
  302.049
  302.04
  302.03
  302.021
  302.011
  302
  301.989
  301.977
  301.964
  301.95
  301.934
  301.916
  301.897
  301.875
  301.852
  301.827
  301.8
  301.77
  301.737
  301.701
  301.659
  301.61
  301.556
  301.502
  301.451
  301.407
  301.372
  301.347
  301.325
  301.308
  301.329
)
;

boundaryField
{
  floor
  {
    type wallHeatTransfer;
    Tinf uniform 305.2;
    alphaWall uniform 0.24;
    value nonuniform List<scalar> 29
(
  301.359
  301.271
  301.17
  301.181
  301.323
  301.553
  301.629
  301.64
  301.609
  301.632
  301.662
  301.678
  301.689
  301.669
  301.535
  301.362
  301.221
  301.107
  301.078
  301.152
  301.152
  301.073
  301.064
  301.117
  301.359
  301.271
  301.203
  301.054
  301.202
)
;
  }
  ceiling
  {
    type wallHeatTransfer;
    Tinf uniform 303.2;
    alphaWall uniform 0.24;
    value nonuniform List<scalar> 43
(
  302.25
  302.193
  302.192
  302.223
  302.193
  302.173
  302.16
  302.15
  302.144
  302.139
  302.135
  302.13
  302.126
  302.121
  302.115
  302.109
  302.102
  302.094
  302.083
  302.071
  302.056
  302.038
  302.018
  301.996
  301.972
  301.946
  301.918
  301.886
  301.849
  301.806
  301.755
  301.699
  301.643
  301.591
  301.547
  301.513
  301.491
  301.474
  301.461
  301.49
  303.182
  302.829
  302.174
)
;
  }
  sWall
  {
    type wallHeatTransfer;
    Tinf uniform 315.2;
    alphaWall uniform 0.36;
    value uniform 303.41;
  }
  nWall
  {
    type wallHeatTransfer;
    Tinf uniform 307.2;
    alphaWall uniform 0.36;
    value nonuniform List<scalar> 6
(
  301.718
  301.564
  301.607
  301.882
  301.932
  302.057
)
;
  }
  sideWalls
  {
    type empty;
  }
  glass1
  {
    type wallHeatTransfer;
    Tinf uniform 315.2;
    alphaWall uniform 4.3;
    value nonuniform List<scalar> 9
(
  311.534
  310.213
  309.464
  308.958
  308.61
  308.354
  308.15
  308.23
  308.51
)
;
  }
  glass2
  {
    type wallHeatTransfer;
    Tinf uniform 307.2;
    alphaWall uniform 4.3;
    value nonuniform List<scalar> 2
(
  304.836
  304.766
)
;
  }
  sun
  {
    type wallHeatTransfer;
    Tinf uniform 305.2;
    alphaWall uniform 0.24;
    value nonuniform List<scalar> 14
(
  301.765
  301.403
  301.449
  301.442
  301.432
  301.422
  301.413
  301.404
  301.395
  301.387
  301.378
  301.369
  301.361
  301.356
)
;
  }
  heatsource1
  {
    type fixedGradient;
    gradient uniform 0;
  }
  heatsource2
  {
    type fixedGradient;
    gradient uniform 0;
  }
  Table_master
  {
    type zeroGradient;
  }
  Table_slave
  {
    type zeroGradient;
  }
  inlet
  {
    type fixedValue;
    value uniform 299.15;
  }
  outlet
  {
    type zeroGradient;
  }
} 	// ************************************************************************* //

