/*--------------------------------*- C++ -*----------------------------------*\
  =========                 |
  \\      /  F ield         | OpenFOAM: The Open Source CFD Toolbox
   \\    /   O peration     | Website:  https://openfoam.org
    \\  /    A nd           | Version:  6
     \\/     M anipulation  |
\*---------------------------------------------------------------------------*/
FoamFile
{
    version     2.0;
    format      ascii;
    class       volScalarField;
    location    "660";
    object      alphat;
}
// * * * * * * * * * * * * * * * * * * * * * * * * * * * * * * * * * * * * * //

dimensions      [1 -1 -1 0 0 0 0];

internalField   nonuniform List<scalar> 
459
(
0.000727367
0.000807763
0.000844311
0.000891919
0.000936923
0.000982023
0.00103015
0.00107314
0.00110675
0.00112441
0.00111718
0.00105292
0.000941866
0.000808208
0.000695358
0.000444623
0.000649918
0.000655827
0.000661733
0.000657663
0.000642181
0.000610222
0.000574934
0.000541856
0.000511925
0.000485068
0.000461054
0.00043929
0.000419164
0.000399918
0.000380446
0.000358921
0.000325333
0.000289901
0.000921722
0.00226483
0.00221641
0.00256845
0.00294917
0.00331307
0.00358993
0.00388763
0.00419273
0.00447699
0.00469814
0.004781
0.00456668
0.00395019
0.00258278
0.000847053
0.000677981
0.000671641
0.00214912
0.00222809
0.00252431
0.00270302
0.00260708
0.00190034
0.00160289
0.00140825
0.00126476
0.00115227
0.00105454
0.000966013
0.000880838
0.000795496
0.000720569
0.000676292
0.000551842
0.00035143
0.00108543
0.00307618
0.0028113
0.00321899
0.00346177
0.00364485
0.00379525
0.0040168
0.00432893
0.0047341
0.00517945
0.00555573
0.00564322
0.00537011
0.00447449
0.00284541
0.000820308
0.000747132
0.00183219
0.00258847
0.00318427
0.00351541
0.00319069
0.000817522
0.000719569
0.000641063
0.000578489
0.000528272
0.000487811
0.000455096
0.000429026
0.0004098
0.000465758
0.000570965
0.000594002
0.000382557
0.0012411
0.00369814
0.00286026
0.00329104
0.00333062
0.00331579
0.00336712
0.00352621
0.00384284
0.00434678
0.0049479
0.00548941
0.00576565
0.00578269
0.00541462
0.0043995
0.00235856
0.000944539
0.00146972
0.00231939
0.00327493
0.00400119
0.00434474
0.00385478
0.000891631
0.000816949
0.00076847
0.000734973
0.000708746
0.000683621
0.000656219
0.000627547
0.000593303
0.000562794
0.000580769
0.000661381
0.000430016
0.00140174
0.00446539
0.00288758
0.00320588
0.00316793
0.00303328
0.00303947
0.00316186
0.00348671
0.00406841
0.00475158
0.00530454
0.00563378
0.00575907
0.00568994
0.0052819
0.00446588
0.00412572
0.00447828
0.0049306
0.00528493
0.00545695
0.00542784
0.00511682
0.00417818
0.003787
0.00360106
0.00348987
0.00339043
0.00326071
0.00303221
0.00265714
0.00217047
0.00164947
0.00123282
0.00104694
0.000718499
0.000498089
0.000506562
0.000522368
0.00157824
0.00540249
0.00349539
0.00312369
0.00318011
0.00306108
0.00296172
0.00303518
0.00336865
0.00398322
0.00469511
0.005265
0.0055781
0.00569796
0.00576239
0.005808
0.00582378
0.00608517
0.00635796
0.00648832
0.00644594
0.00625011
0.00594433
0.00556882
0.00515479
0.00487805
0.00470528
0.0045799
0.00446182
0.00431889
0.00411988
0.00379526
0.00333314
0.00275894
0.0021732
0.00174279
0.00133567
0.00104554
0.0011654
0.00070698
0.00175544
0.00616872
0.00480266
0.00356179
0.00338588
0.00328116
0.00307842
0.00306544
0.00340343
0.00407197
0.00483699
0.00542358
0.00571427
0.00582013
0.00598253
0.00631165
0.00665892
0.00697885
0.00709099
0.00697669
0.00667854
0.00626241
0.00580128
0.00536929
0.00503335
0.00482613
0.00470154
0.00461042
0.00451939
0.00440165
0.00424448
0.00405413
0.00378314
0.00338306
0.00290043
0.00244095
0.00199298
0.00163086
0.00155339
0.000846339
0.00180948
0.00589873
0.00503593
0.00436086
0.00399568
0.00350822
0.00312621
0.00311331
0.00356437
0.00436114
0.00519269
0.00577219
0.00602724
0.00612923
0.00631621
0.0065962
0.00682035
0.00695889
0.0068808
0.00659033
0.00615774
0.0056766
0.00522954
0.00487434
0.00463067
0.00447605
0.00436862
0.00427871
0.00418564
0.00406921
0.00392786
0.00380256
0.00373519
0.00360671
0.0033564
0.00310282
0.00284631
0.00244965
0.00263171
0.00112486
0.00178559
0.00213793
0.00236992
0.00246323
0.00243882
0.00241623
0.00255182
0.0030403
0.00391153
0.00494524
0.0057906
0.00625211
0.00638888
0.00637794
0.00628864
0.00623377
0.0062508
0.00622521
0.00606724
0.00576688
0.00540474
0.0050612
0.00477633
0.00455708
0.00438624
0.00423745
0.00408974
0.0039337
0.00376186
0.00355329
0.00328695
0.00299284
0.00272963
0.00252291
0.00234503
0.00217792
0.00202471
0.00188619
0.00178788
0.00116452
0.000629538
0.00107216
0.00150429
0.00208292
0.00296085
0.00408049
0.00524356
0.00614115
0.00655589
0.00656205
0.00630158
0.00600814
0.00583813
0.00577444
0.00574085
0.00567863
0.00556529
0.00540845
0.00522963
0.00506323
0.00491758
0.00478494
0.00464713
0.00448307
0.0042753
0.00401569
0.00371018
0.00337809
0.00303991
0.00271111
0.00244258
0.00225185
0.00212518
0.00203752
0.00195365
0.001843
0.00172502
0.00121782
0.00106493
0.00278621
0.00404171
0.00537565
0.0063245
0.00689025
0.00731312
0.00737853
0.00709392
0.00660504
0.00617883
0.00592328
0.00581152
0.00577789
0.00577625
0.00578076
0.00577777
0.0057591
0.00571739
0.00565028
0.00558958
0.00553958
0.00549109
0.00542446
0.00531122
0.00511997
0.00482832
0.00443737
0.00399589
0.00354683
0.00313529
0.00279091
0.00252775
0.00233684
0.00218623
0.00207067
0.00260502
0.00131771
0.00139287
0.00144478
0.00149693
0.00175431
0.00176908
0.00173154
0.00167944
0.00165248
0.00163058
0.00158696
0.00152663
0.00146266
0.00141556
0.0013904
0.00137936
0.00137568
0.00137489
0.00137389
0.00137109
0.00136642
0.00136145
0.001359
0.00135667
0.00135314
0.00134602
0.00133228
0.00130923
0.00127611
0.00123593
0.00119656
0.00116171
0.00113472
0.00111687
0.00110906
0.00111144
0.00112177
0.00113279
0.00112332
0.00110475
0.00107692
)
;

boundaryField
{
    floor
    {
        type            compressible::alphatWallFunction;
        Prt             0.85;
        value           nonuniform List<scalar> 
29
(
9.87031e-05
6.08636e-05
9.19956e-05
9.28727e-05
9.3748e-05
9.31459e-05
9.08502e-05
8.60889e-05
8.07955e-05
7.57969e-05
7.12409e-05
6.71243e-05
6.34188e-05
6.00394e-05
5.68952e-05
5.38703e-05
5.07904e-05
4.73619e-05
4.1957e-05
3.61736e-05
3.61731e-05
4.61621e-05
5.11253e-05
5.85937e-05
9.87019e-05
6.08628e-05
9.52095e-05
0.000106287
0.000134656
)
;
    }
    ceiling
    {
        type            compressible::alphatWallFunction;
        Prt             0.85;
        value           nonuniform List<scalar> 
43
(
0.000196708
0.000203733
0.000210762
0.000245079
0.000247037
0.00024208
0.000235178
0.000231597
0.000228683
0.000222864
0.000214785
0.000206179
0.000199816
0.000196409
0.000194912
0.000194411
0.000194304
0.000194169
0.000193789
0.000193154
0.000192478
0.000192146
0.000191828
0.000191347
0.000190379
0.000188507
0.000185363
0.000180834
0.000175322
0.000169899
0.000165083
0.000161342
0.000158862
0.000157776
0.000158106
0.000159543
0.000161073
0.000159758
0.000157175
0.000153295
0.000249232
0.000295241
0.000151569
)
;
    }
    sWall
    {
        type            compressible::alphatWallFunction;
        Prt             0.85;
        value           uniform 0.000196435;
    }
    nWall
    {
        type            compressible::alphatWallFunction;
        Prt             0.85;
        value           nonuniform List<scalar> 6(7.26248e-05 0.000100192 0.000120414 0.000172584 0.000186272 0.000153051);
    }
    sideWalls
    {
        type            empty;
    }
    glass1
    {
        type            compressible::alphatWallFunction;
        Prt             0.85;
        value           nonuniform List<scalar> 9(0.000102743 0.000130661 0.000153644 0.000175134 0.000196996 0.000220698 0.000244204 0.000251333 0.000248211);
    }
    glass2
    {
        type            compressible::alphatWallFunction;
        Prt             0.85;
        value           nonuniform List<scalar> 2(0.000159202 0.000164706);
    }
    sun
    {
        type            compressible::alphatWallFunction;
        Prt             0.85;
        value           nonuniform List<scalar> 
14
(
0.000103399
0.000115083
0.000120348
0.000127167
0.000133573
0.000139957
0.000146731
0.000152752
0.00015744
0.000159896
0.00015889
0.000149924
0.000134276
0.000115149
)
;
    }
    heatsource1
    {
        type            compressible::alphatWallFunction;
        Prt             0.85;
        value           nonuniform List<scalar> 3(6.90544e-05 7.03515e-05 7.27638e-05);
    }
    heatsource2
    {
        type            compressible::alphatWallFunction;
        Prt             0.85;
        value           nonuniform List<scalar> 4(0.000120673 9.60762e-05 9.60751e-05 0.000116823);
    }
    Table_master
    {
        type            compressible::alphatWallFunction;
        Prt             0.85;
        value           nonuniform List<scalar> 9(0.000116421 0.000102187 9.06093e-05 8.12574e-05 7.36615e-05 6.74757e-05 6.24267e-05 5.83703e-05 5.53586e-05);
    }
    Table_slave
    {
        type            compressible::alphatWallFunction;
        Prt             0.85;
        value           nonuniform List<scalar> 9(0.000127057 0.000116341 0.000109322 0.000104442 0.000100602 9.69073e-05 9.28589e-05 8.86007e-05 8.34835e-05);
    }
    inlet
    {
        type            fixedValue;
        value           uniform 1.94e-05;
    }
    outlet
    {
        type            zeroGradient;
    }
}


// ************************************************************************* //
