/*--------------------------------*- C++ -*----------------------------------*\
  =========                 |
  \\      /  F ield         | OpenFOAM: The Open Source CFD Toolbox
   \\    /   O peration     | Website:  https://openfoam.org
    \\  /    A nd           | Version:  6
     \\/     M anipulation  |
\*---------------------------------------------------------------------------*/
FoamFile
{
    version     2.0;
    format      ascii;
    class       volScalarField;
    location    "500";
    object      alphat;
}
// * * * * * * * * * * * * * * * * * * * * * * * * * * * * * * * * * * * * * //

dimensions      [1 -1 -1 0 0 0 0];

internalField   nonuniform List<scalar> 
459
(
0.000834582
0.000867261
0.000846514
0.000876845
0.000904116
0.000927849
0.00094878
0.000967778
0.000985793
0.00100401
0.00101945
0.001031
0.00103848
0.00104291
0.00104349
0.000627795
0.000780032
0.000784876
0.000743962
0.000711813
0.000681689
0.000641854
0.000601928
0.000565541
0.000532627
0.000502398
0.000474354
0.000448118
0.00042333
0.000399494
0.000375763
0.000350562
0.000338814
0.000316937
0.00130635
0.00203948
0.00164282
0.00193957
0.00206973
0.00220896
0.00234882
0.00247788
0.00257997
0.0026334
0.00264881
0.00259885
0.00244585
0.00213814
0.00164102
0.00110782
0.000759331
0.000681139
0.00218653
0.00254013
0.00268065
0.00266899
0.00247944
0.00184264
0.00159291
0.00142042
0.00127197
0.00114052
0.00102379
0.000919315
0.000822999
0.00073133
0.000653832
0.00057445
0.000717413
0.000447675
0.00174395
0.00318621
0.00175665
0.00274104
0.00295473
0.00309835
0.00321244
0.00330004
0.00336297
0.00339727
0.00339961
0.00333736
0.00316949
0.00284807
0.00235264
0.00176751
0.00122638
0.000982072
0.00271111
0.00304455
0.0031459
0.00313086
0.00274273
0.000755897
0.000649221
0.000568166
0.000508494
0.000464008
0.000429668
0.000402266
0.000380331
0.000364597
0.000424491
0.000465544
0.000861116
0.000548984
0.00219009
0.00489319
0.00177198
0.00308881
0.00349816
0.00363627
0.00372023
0.00377587
0.0038151
0.00384076
0.00385521
0.00384122
0.00376805
0.00358262
0.00320597
0.0025888
0.00185931
0.00136871
0.00356331
0.00351568
0.00332321
0.00323644
0.00320932
0.00285734
0.000756632
0.000725634
0.000721359
0.000724704
0.000726062
0.000718495
0.000696876
0.000672145
0.000641265
0.000606466
0.000570137
0.00114725
0.00062014
0.00263538
0.00706342
0.00226449
0.00293995
0.00375598
0.00392992
0.00399806
0.0040283
0.00404228
0.00405449
0.00407125
0.00410476
0.00414086
0.00415841
0.0041267
0.00401234
0.00379999
0.00348243
0.00330464
0.00304138
0.00283547
0.00304439
0.00322702
0.00326852
0.00302135
0.00303646
0.00308398
0.0031113
0.00309525
0.00302063
0.0028728
0.00253302
0.00208346
0.00161486
0.00117903
0.00108981
0.000897759
0.00079411
0.000935479
0.00105109
0.00307956
0.00930012
0.00384978
0.00258769
0.0035712
0.00396201
0.00411187
0.00416598
0.00415392
0.00411455
0.00409567
0.00413846
0.00420071
0.0042589
0.00427474
0.00418943
0.00394044
0.00351046
0.00299652
0.00255416
0.00242264
0.00296195
0.00325675
0.00339759
0.00346567
0.00354777
0.00361764
0.0036523
0.00364332
0.00358853
0.00349045
0.00328854
0.00293067
0.00243213
0.00188038
0.00126838
0.00112946
0.00104221
0.00151721
0.0011112
0.00352018
0.0111029
0.00701216
0.00359798
0.00280763
0.00313362
0.00364548
0.00403167
0.00424083
0.00411828
0.00405924
0.0040959
0.00414818
0.00420419
0.00422874
0.0041593
0.00392548
0.0034994
0.00292595
0.00235619
0.00217288
0.00297998
0.00333321
0.00345552
0.00351273
0.00357086
0.00362404
0.00365171
0.00365074
0.0036289
0.0036001
0.00356511
0.00335395
0.00293557
0.00244101
0.00188552
0.0016318
0.00165021
0.0017761
0.00131094
0.00363351
0.0112465
0.00896976
0.00689879
0.00498707
0.00384021
0.00352327
0.00370212
0.00403425
0.00406653
0.00402711
0.00401522
0.0040299
0.004053
0.00405606
0.00399819
0.0038289
0.0035108
0.00298955
0.00230622
0.00198198
0.00303476
0.00344996
0.003533
0.00353425
0.00353382
0.00353224
0.00352158
0.0035093
0.0035158
0.00356604
0.00368211
0.00379677
0.00348251
0.00319976
0.00313556
0.00353771
0.00435372
0.00529145
0.00194984
0.00355644
0.00431612
0.00481834
0.00499516
0.00482944
0.00443404
0.0040673
0.00384653
0.00376527
0.00373584
0.00375091
0.00378764
0.00382328
0.00383776
0.00381443
0.00373895
0.00359895
0.00338192
0.00299842
0.00227951
0.00180607
0.00307831
0.00359836
0.00363448
0.00356814
0.00350148
0.00342636
0.00333712
0.00324323
0.00315759
0.00308788
0.00303412
0.00299279
0.00296446
0.00298442
0.00303418
0.00301439
0.00284643
0.00261746
0.00178066
0.0025681
0.0042452
0.0046132
0.00455582
0.00437874
0.00420455
0.00407297
0.00397365
0.00389543
0.00382518
0.00374662
0.00364763
0.00352316
0.00337622
0.00321928
0.00306354
0.00278733
0.00208177
0.00163639
0.0030497
0.00375709
0.00374421
0.00362418
0.00352914
0.0034245
0.00330481
0.00318558
0.00308377
0.00301529
0.00299376
0.00301079
0.00303961
0.00306458
0.0030426
0.00290972
0.00264489
0.00227981
0.00143161
0.00272444
0.00483534
0.00508166
0.00490964
0.00470744
0.00449144
0.00427642
0.00406975
0.00384506
0.00357848
0.00329706
0.00301849
0.00275599
0.00252189
0.0023321
0.00220194
0.00206953
0.00163986
0.00142968
0.00267419
0.00329455
0.00325388
0.0031488
0.00307967
0.00302018
0.00297598
0.00296069
0.00297438
0.00300061
0.00306319
0.00315683
0.00325939
0.00334308
0.00339426
0.00335869
0.003304
0.00287236
0.00145096
0.00237225
0.00249657
0.00260227
0.00275016
0.00260007
0.00238914
0.00221845
0.00206537
0.00192282
0.00178973
0.00166907
0.0015635
0.00146596
0.00137288
0.00128273
0.00119542
0.00111225
0.00103581
0.000968438
0.000907013
0.00086342
0.000905425
0.000927892
0.000931214
0.000936336
0.000948102
0.000966543
0.00099231
0.00102629
0.00106983
0.00112584
0.00119196
0.00126773
0.00135178
0.00144175
0.00155932
0.00158888
0.0015457
0.00143993
0.00132577
)
;

boundaryField
{
    floor
    {
        type            compressible::alphatWallFunction;
        Prt             0.85;
        value           nonuniform List<scalar> 
29
(
0.000148374
8.85019e-05
0.000110867
0.000111557
0.000105603
0.0001009
9.64703e-05
9.05762e-05
8.46238e-05
7.91571e-05
7.41745e-05
6.95645e-05
6.52567e-05
6.11973e-05
5.73344e-05
5.35925e-05
4.98384e-05
4.58175e-05
4.39312e-05
4.03984e-05
4.03978e-05
6.11326e-05
7.66576e-05
8.73426e-05
0.000148373
8.85009e-05
9.64001e-05
0.000139685
0.000193236
)
;
    }
    ceiling
    {
        type            compressible::alphatWallFunction;
        Prt             0.85;
        value           nonuniform List<scalar> 
43
(
0.00032507
0.000340924
0.000354341
0.000373108
0.000354188
0.000327375
0.00030548
0.000285686
0.00026711
0.00024963
0.000233658
0.00021958
0.000206478
0.000193885
0.000181595
0.000169599
0.000158078
0.000147402
0.000137918
0.000129204
0.000122976
0.000128978
0.000132179
0.000132651
0.000133377
0.000135045
0.000137655
0.000141293
0.000146074
0.000152172
0.000159975
0.00016913
0.000179551
0.000191029
0.000203226
0.000219036
0.00022299
0.000217213
0.000202979
0.000187489
0.000473471
0.000565664
0.000369696
)
;
    }
    sWall
    {
        type            compressible::alphatWallFunction;
        Prt             0.85;
        value           uniform 0.000323845;
    }
    nWall
    {
        type            compressible::alphatWallFunction;
        Prt             0.85;
        value           nonuniform List<scalar> 6(0.00014919 0.000157574 0.000185088 0.000201494 0.000204106 0.000187129);
    }
    sideWalls
    {
        type            empty;
    }
    glass1
    {
        type            compressible::alphatWallFunction;
        Prt             0.85;
        value           nonuniform List<scalar> 9(0.000115284 0.000180165 0.000238157 0.000295789 0.000352168 0.000407485 0.00046159 0.000475531 0.00046637);
    }
    glass2
    {
        type            compressible::alphatWallFunction;
        Prt             0.85;
        value           nonuniform List<scalar> 2(0.000268363 0.000246345);
    }
    sun
    {
        type            compressible::alphatWallFunction;
        Prt             0.85;
        value           nonuniform List<scalar> 
14
(
0.000118746
0.000123417
0.000120441
0.000124787
0.000128681
0.000132058
0.000135028
0.000137717
0.000140261
0.000142829
0.000145
0.000146622
0.000147672
0.000148293
)
;
    }
    heatsource1
    {
        type            compressible::alphatWallFunction;
        Prt             0.85;
        value           nonuniform List<scalar> 3(0.000113043 0.000133299 0.000149598);
    }
    heatsource2
    {
        type            compressible::alphatWallFunction;
        Prt             0.85;
        value           nonuniform List<scalar> 4(0.000157531 0.000107957 0.000107956 0.000173929);
    }
    Table_master
    {
        type            compressible::alphatWallFunction;
        Prt             0.85;
        value           nonuniform List<scalar> 9(0.000107491 9.18174e-05 7.96985e-05 7.06407e-05 6.38015e-05 5.84655e-05 5.41682e-05 5.07012e-05 4.81984e-05);
    }
    Table_slave
    {
        type            compressible::alphatWallFunction;
        Prt             0.85;
        value           nonuniform List<scalar> 9(0.000107602 0.000103079 0.000102454 0.000102944 0.000103143 0.000102036 9.88644e-05 9.52202e-05 9.06469e-05);
    }
    inlet
    {
        type            fixedValue;
        value           uniform 1.94e-05;
    }
    outlet
    {
        type            zeroGradient;
    }
}


// ************************************************************************* //
