/*--------------------------------*- C++ -*----------------------------------*\
  =========                 |
  \\      /  F ield         | OpenFOAM: The Open Source CFD Toolbox
   \\    /   O peration     | Website:  https://openfoam.org
    \\  /    A nd           | Version:  6
     \\/     M anipulation  |
\*---------------------------------------------------------------------------*/
FoamFile
{
    version     2.0;
    format      ascii;
    class       surfaceScalarField;
    location    "340";
    object      phi;
}
// * * * * * * * * * * * * * * * * * * * * * * * * * * * * * * * * * * * * * //

dimensions      [1 0 -1 0 0 0 0];

internalField   nonuniform List<scalar> 
852
(
-0.0025366
0.00257874
-0.00344769
0.000911077
-0.00413535
0.000687656
-0.00465668
0.000521326
-0.0049784
0.000321718
-0.00507243
9.40179e-05
-0.00491253
-0.000159908
-0.00448654
-0.000425991
-0.00382509
-0.000661456
-0.00300262
-0.00082247
-0.0021185
-0.000884131
-0.00127184
-0.000846659
-0.000546508
-0.000725343
-7.6806e-06
-0.000538834
-1.15295e-05
0.000122574
-0.000127554
0.000274397
-0.000151829
0.000589186
-0.000314798
0.000918441
-0.000329263
0.00119891
-0.000280483
0.00140969
-0.000210782
0.00152392
-0.000114246
0.00156712
-4.32064e-05
0.00158282
-1.57145e-05
0.00158673
-3.91446e-06
0.00158152
5.19346e-06
0.00156692
1.45957e-05
0.00153824
2.86653e-05
0.00148153
5.66979e-05
0.00136343
0.000118086
0.00112631
0.000237109
0.000718033
0.000408269
3.12855e-05
0.000686735
2.44256e-05
-0.00183975
0.00453289
-0.00272662
0.00179794
-0.00343786
0.00139889
-0.00395788
0.00104134
-0.00428101
0.000644841
-0.00438559
0.00019859
-0.00424372
-0.000301783
-0.00385028
-0.000819429
-0.00324917
-0.00126258
-0.00252235
-0.00154929
-0.00176475
-0.00164174
-0.00106167
-0.00154974
-0.000486439
-0.00130058
-8.59255e-05
-0.000939353
0.000300911
-0.000398372
0.000263325
3.75307e-05
0.000263269
-9.75258e-05
-4.20182e-05
0.000518423
-0.000767785
0.00087152
-0.000667903
0.00114416
-0.000601907
0.00136368
-0.000500021
0.00152114
-0.000368244
0.00155818
-0.000151297
0.00156694
-5.1983e-05
0.00157553
-2.43107e-05
0.00158248
-1.08763e-05
0.00158672
9.47922e-07
0.00158823
1.30751e-05
0.0015861
3.07858e-05
0.00157582
6.69594e-05
0.00152342
0.000170474
0.00132093
0.000439591
0.000970784
0.000758405
0.000602643
0.00105486
0.000608681
-0.00131391
0.00602288
-0.00208137
0.00256539
-0.00272255
0.00204007
-0.00317941
0.00149819
-0.00347186
0.000937289
-0.00357147
0.000298192
-0.00342718
-0.00044608
-0.00303716
-0.00120945
-0.00247153
-0.0018282
-0.00182314
-0.00219768
-0.00117952
-0.00228536
-0.000602793
-0.00212647
-0.000142383
-0.001761
0.000176818
-0.00125856
0.000416697
-0.000638257
0.000471646
-1.74246e-05
0.00073491
0.0007483
-0.000808378
0.000944409
-0.000963902
0.00120948
-0.000932983
0.00138206
-0.000774493
0.00150582
-0.000623793
0.00165412
-0.000516549
0.00150296
0.00145112
0.00142695
0.00141621
0.0014173
0.00143052
0.00146144
0.00152854
0.00169916
0.00150852
0.000630211
0.00127473
0.000992186
0.000924741
0.00140484
0.00150449
-0.000938344
0.0071905
-0.00154754
0.00317457
-0.00198999
0.00248251
-0.00230718
0.00181538
-0.00251559
0.00114569
-0.00257027
0.000352873
-0.00237837
-0.000637989
-0.00196796
-0.00161987
-0.00144659
-0.00234956
-0.000903748
-0.00274053
-0.00040364
-0.00278547
2.45209e-05
-0.00255463
0.000369381
-0.00210586
0.000646756
-0.00153594
0.000915633
-0.000907141
0.00122247
-0.000324268
0.00190278
5.45954e-05
0.00212732
-0.000242324
0.00201089
-0.000691953
0.0018056
-0.000758623
0.00163236
-0.000759744
0.00153669
-0.000678835
0.00148031
-0.000567419
0.00138747
-0.00042372
0.00158861
-0.000201308
0.00171367
-0.000125217
0.0018185
-0.000104998
0.00191413
-9.57881e-05
0.00199597
-8.20105e-05
0.00204964
-5.38265e-05
0.00204591
3.56216e-06
0.00194004
0.000105704
0.00166222
0.000277657
0.00164025
0.000652167
0.00153939
0.00109303
0.00135389
0.00159033
0.00282078
-0.000671996
0.00813754
-0.00113011
0.00363268
-0.00125423
0.00260663
-0.00135166
0.0019128
-0.0014104
0.00120442
-0.00134416
0.000286631
-0.00103862
-0.000943535
-0.000615728
-0.00204276
-0.000186509
-0.00277878
0.000189767
-0.0031168
0.000490998
-0.0030867
0.000718225
-0.00278186
0.000900756
-0.0022884
0.00106471
-0.0016999
0.00125678
-0.00109922
0.00151661
-0.0005841
0.0018483
-0.000277102
0.00195753
-0.000351565
0.00177696
-0.000511392
0.00160012
-0.00058179
0.00142886
-0.000588497
0.00129568
-0.000545659
0.00120039
-0.000472146
0.00114966
-0.000372994
0.00120738
-0.000259043
0.0012813
-0.000199152
0.00135884
-0.000182557
0.00144115
-0.000178107
0.00152488
-0.000165756
0.0016013
-0.000130257
0.00165644
-5.15983e-05
0.00167318
8.89524e-05
0.00165128
0.000299536
0.00169534
0.000608096
0.0018455
0.000942857
0.00234342
0.0010924
0.00360758
0.00155661
0.00243679
0.00117058
0.00149658
0.000939997
0.00153474
-0.000589799
0.00904149
-0.000894755
0.00393763
-0.000569553
0.00228142
-0.000333041
0.00167628
-0.00015861
0.00102998
0.000161637
-3.36297e-05
0.000602515
-0.00138442
0.000970419
-0.00241067
0.001222
-0.00303036
0.00135868
-0.00325347
0.00140942
-0.00313744
0.00139966
-0.00277211
0.00136236
-0.00225111
0.00133105
-0.00166859
0.00134005
-0.00110824
0.00140553
-0.000649588
0.00149817
-0.000369743
0.0014689
-0.00032231
0.00132695
-0.000369448
0.00115887
-0.000413721
0.000995255
-0.000424891
0.000857414
-0.000407829
0.000756688
-0.000371432
0.000705266
-0.000321585
0.000716764
-0.000270555
0.000765619
-0.000248021
0.000833239
-0.000250192
0.000912657
-0.000257541
0.00100071
-0.000253827
0.00109602
-0.000225581
0.00119946
-0.000155058
0.00130337
-1.49701e-05
0.00140182
0.000201069
0.00154041
0.000469493
0.00174545
0.000737793
0.00195164
0.000886194
0.00224166
0.00126657
0.00197305
0.00143918
0.00120871
0.00170432
0.00278424
-0.000663412
0.0100542
-0.000551126
0.00382534
0.000359072
0.00137122
0.000958154
0.00107719
0.00149945
0.000488668
0.00207053
-0.000604715
0.00247408
-0.00178797
0.00267175
-0.00260833
0.00266827
-0.00302687
0.00250712
-0.00309231
0.00224642
-0.00287674
0.00193985
-0.00246553
0.00163331
-0.00194458
0.00136583
-0.00140112
0.0011654
-0.000907816
0.00103972
-0.000523921
0.000962569
-0.000292603
0.000859364
-0.000219117
0.00072001
-0.000230105
0.000564294
-0.000258017
0.000414246
-0.000274856
0.000286057
-0.000279653
0.000191167
-0.000276555
0.000139485
-0.000269918
0.000136216
-0.000267301
0.000167986
-0.000279807
0.000219758
-0.000301981
0.000283535
-0.000321335
0.000356969
-0.000327278
0.000443372
-0.000312001
0.000554271
-0.000265974
0.000706911
-0.000167628
0.00088696
2.10038e-05
0.00108183
0.000274602
0.00129342
0.000526188
0.00145098
0.000728618
0.00165272
0.00106482
0.00175538
0.0013365
0.00148661
0.00197309
0.00431368
0.0021072
0.00833777
0.00271173
0.00322081
0.00288525
0.00119768
0.00333496
0.000627472
0.00394484
-0.000121231
0.00446846
-0.00112834
0.00462105
-0.00194055
0.00443256
-0.00241983
0.00399569
-0.00258999
0.00340838
-0.00250499
0.00276037
-0.00222873
0.0021224
-0.00182757
0.00154198
-0.00136417
0.00105857
-0.000917717
0.000693335
-0.0005426
0.000444099
-0.000274698
0.000281952
-0.000130469
0.00015001
-8.71868e-05
1.69292e-05
-9.70369e-05
-0.000119371
-0.00012173
-0.000247431
-0.00014681
-0.000355942
-0.000171157
-0.000437638
-0.000194875
-0.000488452
-0.000219121
-0.000507924
-0.000247846
-0.000504739
-0.000283009
-0.000487909
-0.000318828
-0.000463189
-0.000346072
-0.000434223
-0.000356261
-0.000401177
-0.000345064
-0.000352513
-0.000314655
-0.000256572
-0.000263585
-7.18069e-05
-0.000163778
0.000163022
3.97564e-05
0.000390029
0.000299165
0.000558511
0.000560119
0.000751218
0.000872093
0.000928048
0.00115966
0.000518484
0.00238264
0.00501371
0.00873799
0.0119287
0.010486
0.0026404
0.00963822
0.0014752
0.00890023
0.000616755
0.00803971
-0.000267797
0.0069802
-0.000881017
0.00582298
-0.00126258
0.00465348
-0.00142048
0.00353085
-0.00138236
0.0025093
-0.00120719
0.00162202
-0.000940301
0.000879606
-0.000621769
0.000307162
-0.000345291
-9.04755e-05
-0.000144979
-0.000340565
-2.46238e-05
-0.000493673
2.26234e-05
-0.000605001
2.41264e-05
-0.000706772
4.71874e-06
-0.000807345
-2.11729e-05
-0.00090337
-5.08005e-05
-0.000988106
-8.64383e-05
-0.00105972
-0.000123274
-0.00112046
-0.000158405
-0.00117148
-0.000196836
-0.00121659
-0.000237923
-0.00125908
-0.000276356
-0.00130206
-0.000303105
-0.00135279
-0.000305548
-0.00142795
-0.000269927
-0.00154703
-0.000195589
-0.00172524
-8.53926e-05
-0.00196851
7.94788e-05
-0.00226456
0.000335793
-0.00266838
0.00070297
-0.00332
0.00121172
-0.00435368
0.00190576
-0.00584245
0.00264842
-0.00615572
0.00269588
-0.0009471
0.0036591
0.00325049
0.0033071
0.00182725
0.00383852
8.54122e-05
0.00397654
-0.000405769
0.00367986
-0.000584306
0.0031055
-0.000688215
0.00236757
-0.000682556
0.00156619
-0.000581008
0.000800186
-0.000441201
0.000113082
-0.000253222
-0.000431817
-7.68948e-05
-0.000799565
2.24369e-05
-0.0010222
7.7633e-05
-0.0011474
0.000100567
-0.00122112
9.63241e-05
-0.00127628
7.9265e-05
-0.00132835
5.67717e-05
-0.00138087
3.13281e-05
-0.00143662
4.93729e-06
-0.00149778
-2.5293e-05
-0.00156587
-5.52091e-05
-0.00164562
-7.86714e-05
-0.00173818
-0.000104289
-0.00184501
-0.000131108
-0.0019651
-0.000156292
-0.00209399
-0.000174223
-0.00222586
-0.0001737
-0.00236169
-0.000134106
-0.00250211
-5.51921e-05
-0.0026488
6.12879e-05
-0.00279215
0.000222814
-0.00291685
0.000460472
-0.00302124
0.000807342
-0.00309215
0.00128261
-0.00308317
0.00189677
-0.00286333
0.00242856
-0.00123598
0.00106852
-0.00214142
0.000584767
0.00265454
0.00171462
0.000697443
0.00175171
4.83526e-05
0.00146903
-0.000123081
0.00105923
-0.000174525
0.000549708
-0.000178721
1.36723e-05
-0.000146559
-0.000494335
-7.30405e-05
-0.000943316
7.75034e-06
-0.00127353
7.69679e-05
-0.00147214
0.000121688
-0.00158542
0.000135704
-0.00164369
0.000135883
-0.00166772
0.000124579
-0.00167809
0.000106669
-0.00168591
8.70703e-05
-0.00169689
6.7738e-05
-0.00171455
4.89617e-05
-0.00174005
3.04201e-05
-0.00177991
1.45542e-05
-0.00183467
-4.72998e-07
-0.00189985
-1.35067e-05
-0.00198096
-2.31974e-05
-0.00208344
-2.86399e-05
-0.0022118
-2.79475e-05
-0.00236654
-1.94983e-05
-0.00253766
-2.6008e-06
-0.00269759
2.58116e-05
-0.00281998
6.71807e-05
-0.00288913
0.000130423
-0.00289167
0.000225334
-0.00278868
0.00035747
-0.00252739
0.000546039
-0.00203813
0.000793334
-0.00112589
0.000984523
0.000393742
0.000908905
0.00143663
2.56153e-05
-0.000662924
-0.00344523
-0.00484293
-0.00221206
-0.00154965
-0.0015438
-0.00171164
-0.00193212
-0.00215773
-0.00235217
-0.00247435
-0.00251729
-0.00249254
-0.00242468
-0.00234412
-0.00226423
-0.00219614
-0.00214623
-0.00211606
-0.00210528
-0.00211335
-0.00214003
-0.00218267
-0.00224043
-0.00231125
-0.00239182
-0.00247798
-0.00256377
-0.00264177
-0.0027039
-0.00273893
-0.0027342
-0.00266803
-0.0025088
-0.00221922
-0.00174261
-0.00101993
-0.000107123
0.000728937
0.00068351
)
;

boundaryField
{
    floor
    {
        type            calculated;
        value           nonuniform List<scalar> 
29
(
0
0
0
0
0
0
0
0
0
0
0
0
0
0
0
0
0
0
0
0
6.84064e-06
1.83748e-05
2.89236e-05
3.75825e-05
3.84279e-06
4.97368e-06
1.19824e-05
1.80534e-05
1.77757e-05
)
;
    }
    ceiling
    {
        type            calculated;
        value           nonuniform List<scalar> 
43
(
2.86956e-05
2.53651e-05
2.36701e-05
3.50048e-05
4.24539e-05
4.47179e-05
4.59104e-05
4.68576e-05
4.78442e-05
4.91048e-05
5.06664e-05
5.22039e-05
5.3808e-05
5.51151e-05
5.59753e-05
5.64763e-05
5.67418e-05
5.68748e-05
5.69481e-05
5.70082e-05
5.70823e-05
5.71729e-05
5.72681e-05
5.73017e-05
5.73568e-05
5.7498e-05
5.78333e-05
5.84828e-05
5.95136e-05
6.08233e-05
6.24312e-05
6.42349e-05
6.60943e-05
6.7872e-05
6.94106e-05
7.06376e-05
7.17054e-05
7.28292e-05
7.10269e-05
7.34037e-05
3.65837e-05
3.01199e-05
1.12098e-05
)
;
    }
    sWall
    {
        type            calculated;
        value           uniform -0.000224025;
    }
    nWall
    {
        type            calculated;
        value           nonuniform List<scalar> 6(-3.83769e-05 -4.08103e-05 -4.28501e-05 -4.16765e-05 -4.18776e-05 -5.28339e-05);
    }
    sideWalls
    {
        type            empty;
        value           nonuniform 0();
    }
    glass1
    {
        type            calculated;
        value           nonuniform List<scalar> 9(-4.21459e-05 -0.000114403 -0.000176074 -0.000229279 -0.000275055 -0.00031415 -0.000349311 -0.000390769 -0.00043681);
    }
    glass2
    {
        type            calculated;
        value           nonuniform List<scalar> 2(-0.000181558 -0.000194919);
    }
    sun
    {
        type            calculated;
        value           uniform 0;
    }
    heatsource1
    {
        type            calculated;
        value           nonuniform List<scalar> 3(2.00122e-07 2.00632e-07 2.01032e-07);
    }
    heatsource2
    {
        type            calculated;
        value           nonuniform List<scalar> 4(5.03766e-08 5.04395e-08 0 0);
    }
    Table_master
    {
        type            calculated;
        value           nonuniform List<scalar> 9(-1.50664e-07 -1.50771e-07 -1.50801e-07 -1.50819e-07 -1.50829e-07 -1.50831e-07 -1.50827e-07 -1.5081e-07 -1.5076e-07);
    }
    Table_slave
    {
        type            calculated;
        value           nonuniform List<scalar> 9(1.50573e-07 1.50592e-07 1.50558e-07 1.50524e-07 1.50494e-07 1.50474e-07 1.50475e-07 1.5048e-07 1.50524e-07);
    }
    inlet
    {
        type            calculated;
        value           uniform -0.00426915;
    }
    outlet
    {
        type            calculated;
        value           nonuniform List<scalar> 2(0.00364056 0.00137232);
    }
}


// ************************************************************************* //
