/*--------------------------------*- C++ -*----------------------------------*\
  =========                 |
  \\      /  F ield         | OpenFOAM: The Open Source CFD Toolbox
   \\    /   O peration     | Website:  https://openfoam.org
    \\  /    A nd           | Version:  6
     \\/     M anipulation  |
\*---------------------------------------------------------------------------*/
FoamFile
{
    version     2.0;
    format      ascii;
    class       volScalarField;
    location    "340";
    object      T;
}
// * * * * * * * * * * * * * * * * * * * * * * * * * * * * * * * * * * * * * //

dimensions      [0 0 0 1 0 0 0];

internalField   nonuniform List<scalar> 
459
(
305.688
305.513
305.509
305.51
305.511
305.511
305.51
305.507
305.501
305.492
305.482
305.473
305.465
305.455
305.396
305.362
305.432
305.469
305.487
305.497
305.502
305.502
305.499
305.495
305.491
305.487
305.483
305.479
305.474
305.469
305.463
305.455
305.436
305.308
305.818
305.564
305.555
305.562
305.568
305.571
305.57
305.563
305.548
305.528
305.508
305.493
305.483
305.478
305.469
305.476
305.48
305.466
305.507
305.523
305.536
305.546
305.554
305.555
305.555
305.555
305.555
305.554
305.553
305.551
305.548
305.543
305.532
305.514
305.484
305.472
305.947
305.607
305.59
305.603
305.616
305.625
305.627
305.617
305.592
305.556
305.522
305.498
305.485
305.482
305.482
305.484
305.485
305.504
305.521
305.539
305.554
305.568
305.579
305.579
305.579
305.58
305.58
305.58
305.581
305.581
305.58
305.577
305.57
305.552
305.523
305.508
306.076
305.653
305.621
305.64
305.664
305.685
305.695
305.682
305.641
305.583
305.531
305.496
305.481
305.48
305.485
305.489
305.492
305.496
305.512
305.53
305.551
305.572
305.591
305.606
305.621
305.633
305.644
305.654
305.663
305.67
305.676
305.681
305.685
305.654
305.617
305.573
305.544
306.202
305.708
305.651
305.67
305.704
305.74
305.764
305.745
305.683
305.601
305.532
305.49
305.474
305.476
305.485
305.496
305.506
305.519
305.536
305.557
305.58
305.602
305.623
305.64
305.657
305.671
305.683
305.693
305.701
305.707
305.711
305.712
305.71
305.695
305.665
305.624
305.582
305.584
305.586
305.611
306.316
305.776
305.695
305.7
305.735
305.784
305.818
305.782
305.699
305.602
305.523
305.476
305.462
305.47
305.488
305.508
305.526
305.545
305.567
305.591
305.615
305.638
305.659
305.677
305.692
305.705
305.714
305.722
305.728
305.731
305.733
305.732
305.728
305.718
305.698
305.67
305.633
305.618
305.61
305.622
306.42
305.882
305.794
305.779
305.802
305.85
305.855
305.789
305.681
305.569
305.487
305.447
305.445
305.467
305.498
305.529
305.557
305.582
305.607
305.632
305.656
305.678
305.697
305.712
305.724
305.732
305.739
305.743
305.745
305.746
305.745
305.743
305.739
305.73
305.716
305.697
305.669
305.646
305.63
305.634
306.57
306.157
306.051
305.991
305.973
305.96
305.881
305.747
305.599
305.48
305.414
305.402
305.429
305.475
305.524
305.567
305.601
305.629
305.654
305.677
305.698
305.715
305.729
305.738
305.745
305.749
305.751
305.752
305.751
305.749
305.747
305.743
305.739
305.733
305.722
305.708
305.688
305.669
305.655
305.71
306.781
306.585
306.41
306.266
306.15
305.989
305.758
305.534
305.375
305.304
305.308
305.362
305.438
305.513
305.576
305.623
305.655
305.679
305.699
305.716
305.73
305.74
305.748
305.752
305.754
305.754
305.754
305.752
305.749
305.746
305.742
305.738
305.733
305.728
305.724
305.722
305.723
305.732
305.746
305.784
302.195
303.536
304.094
304.275
304.459
304.658
304.867
305.073
305.252
305.398
305.518
305.595
305.645
305.678
305.701
305.717
305.73
305.74
305.746
305.751
305.754
305.755
305.754
305.753
305.752
305.75
305.747
305.744
305.741
305.738
305.736
305.734
305.733
305.734
305.738
305.748
305.764
305.801
302.334
303.32
303.701
304.065
304.414
304.733
305.015
305.261
305.42
305.531
305.609
305.658
305.69
305.71
305.724
305.734
305.742
305.747
305.75
305.751
305.752
305.752
305.752
305.751
305.75
305.749
305.748
305.747
305.746
305.744
305.743
305.742
305.741
305.742
305.744
305.75
305.765
305.788
303.212
303.11
303.107
304.03
304.557
304.846
305.073
305.259
305.406
305.515
305.587
305.636
305.67
305.693
305.708
305.718
305.724
305.729
305.731
305.733
305.733
305.733
305.733
305.733
305.733
305.733
305.733
305.733
305.734
305.735
305.736
305.737
305.738
305.74
305.741
305.742
305.744
305.75
305.754
305.787
)
;

boundaryField
{
    floor
    {
        type            wallHeatTransfer;
        Tinf            uniform 301.25;
        alphaWall       uniform 0.24;
        value           nonuniform List<scalar> 
29
(
304.879
304.693
304.86
304.878
304.88
304.876
304.863
304.835
304.8
304.764
304.728
304.693
304.66
304.627
304.594
304.56
304.524
304.484
304.424
304.391
304.391
304.648
304.728
304.817
304.879
304.693
304.928
305.017
305.098
)
;
    }
    ceiling
    {
        type            wallHeatTransfer;
        Tinf            uniform 301.25;
        alphaWall       uniform 0.24;
        value           nonuniform List<scalar> 
43
(
303.049
302.965
302.971
303.83
304.315
304.591
304.81
304.991
305.132
305.233
305.297
305.337
305.362
305.377
305.387
305.394
305.399
305.403
305.405
305.406
305.407
305.406
305.405
305.405
305.404
305.403
305.401
305.398
305.393
305.386
305.379
305.37
305.36
305.352
305.345
305.34
305.336
305.336
305.35
305.369
306.495
306.348
302.263
)
;
    }
    sWall
    {
        type            wallHeatTransfer;
        Tinf            uniform 314.15;
        alphaWall       uniform 0.36;
        value           uniform 304.531;
    }
    nWall
    {
        type            wallHeatTransfer;
        Tinf            uniform 308.15;
        alphaWall       uniform 0.36;
        value           nonuniform List<scalar> 6(306.191 306.129 306.086 306.1 306.06 306.099);
    }
    sideWalls
    {
        type            empty;
    }
    glass1
    {
        type            wallHeatTransfer;
        Tinf            uniform 314.15;
        alphaWall       uniform 4.3;
        value           nonuniform List<scalar> 9(311.649 311.223 310.948 310.734 310.554 310.388 310.257 310.295 310.44);
    }
    glass2
    {
        type            wallHeatTransfer;
        Tinf            uniform 308.15;
        alphaWall       uniform 4.3;
        value           nonuniform List<scalar> 2(307.385 307.375);
    }
    sun
    {
        type            wallHeatTransfer;
        Tinf            uniform 301.25;
        alphaWall       uniform 0.24;
        value           nonuniform List<scalar> 
14
(
305.175
305.053
305.057
305.075
305.09
305.103
305.114
305.122
305.123
305.118
305.106
305.088
305.064
305.027
)
;
    }
    heatsource1
    {
        type            fixedGradient;
        gradient        uniform 0;
    }
    heatsource2
    {
        type            fixedGradient;
        gradient        uniform 0;
    }
    Table_master
    {
        type            zeroGradient;
    }
    Table_slave
    {
        type            zeroGradient;
    }
    inlet
    {
        type            fixedValue;
        value           uniform 299.15;
    }
    outlet
    {
        type            zeroGradient;
    }
}


// ************************************************************************* //
