// -*- C++ -*-
// File generated by PyFoam - sorry for the ugliness

FoamFile
{
 version 2.0;
 format ascii;
 class volVectorField;
 location "400";
 object U;
}

dimensions [ 0 1 -1 0 0 0 0 ];

internalField nonuniform List<vector> 459
(
  (0.0687572 0.077771 0)
  (-0.15284 0.0140419 0)
  (-0.160698 0.0143785 0)
  (-0.188771 0.0118159 0)
  (-0.213251 0.00839755 0)
  (-0.23363 0.00461453 0)
  (-0.249216 0.000459445 0)
  (-0.259261 -0.00419541 0)
  (-0.262793 -0.00952596 0)
  (-0.258416 -0.0157845 0)
  (-0.244582 -0.0235741 0)
  (-0.218509 -0.0333404 0)
  (-0.178674 -0.0469097 0)
  (-0.1348 -0.0681786 0)
  (-0.12259 -0.0980152 0)
  (0.0772311 -0.0420022 0)
  (0.0524495 -0.0262058 0)
  (0.066142 -0.0161142 0)
  (0.0798403 -0.010754 0)
  (0.0868251 -0.0076775 0)
  (0.0899924 -0.00541723 0)
  (0.0913036 -0.00353222 0)
  (0.0909347 -0.00235822 0)
  (0.0896738 -0.00174678 0)
  (0.0882103 -0.00139814 0)
  (0.0867591 -0.00114315 0)
  (0.0852621 -0.00090639 0)
  (0.0835636 -0.000601406 0)
  (0.0813516 -4.94321e-05 0)
  (0.0779221 0.00114415 0)
  (0.0718923 0.0035423 0)
  (0.0617384 0.00637927 0)
  (0.0503973 0.00917555 0)
  (-0.00654795 0.0250823 0)
  (0.269957 0.165336 0)
  (-0.162233 0.0441204 0)
  (-0.13625 0.0457279 0)
  (-0.168438 0.0412309 0)
  (-0.193403 0.0357707 0)
  (-0.214102 0.0296449 0)
  (-0.230164 0.022578 0)
  (-0.241014 0.0141826 0)
  (-0.245759 0.00404917 0)
  (-0.243034 -0.00816258 0)
  (-0.232515 -0.0217781 0)
  (-0.213368 -0.0364901 0)
  (-0.187005 -0.0535843 0)
  (-0.160344 -0.0755644 0)
  (-0.140494 -0.0949097 0)
  (-0.107046 -0.0771436 0)
  (-0.0626802 -0.0679608 0)
  (0.0801904 -0.0635716 0)
  (0.0354492 -0.0315084 0)
  (0.0450004 -0.0143324 0)
  (0.0567668 -0.00783927 0)
  (0.0636764 -0.00503705 0)
  (0.0678742 -0.00233844 0)
  (0.0704907 0.00146545 0)
  (0.0709858 0.00349004 0)
  (0.0709028 0.00412841 0)
  (0.0710085 0.00424417 0)
  (0.0712568 0.00425216 0)
  (0.0714836 0.00431258 0)
  (0.0716281 0.00460262 0)
  (0.0716268 0.00550235 0)
  (0.0709032 0.00796499 0)
  (0.0668721 0.0147128 0)
  (0.0564687 0.0208768 0)
  (0.0500013 0.0254658 0)
  (-0.0489498 0.0523808 0)
  (0.4495 0.250962 0)
  (-0.202249 0.0777818 0)
  (-0.104803 0.0764854 0)
  (-0.141201 0.0654361 0)
  (-0.163319 0.0550177 0)
  (-0.182112 0.043807 0)
  (-0.197078 0.0310801 0)
  (-0.207681 0.0163391 0)
  (-0.212925 -0.000686544 0)
  (-0.211208 -0.0197639 0)
  (-0.202362 -0.0405345 0)
  (-0.186841 -0.0617861 0)
  (-0.166885 -0.0829088 0)
  (-0.146168 -0.102863 0)
  (-0.124259 -0.114971 0)
  (-0.0953617 -0.110434 0)
  (-0.0766592 -0.114886 0)
  (0.0557053 -0.0788147 0)
  (0.0127886 -0.0416864 0)
  (0.0241194 -0.0241782 0)
  (0.0355927 -0.017473 0)
  (0.0439955 -0.0136088 0)
  (0.0501401 -0.0101835 0)
  (0.0539929 -0.00739917 0)
  (0.0535817 -0.0052681 0)
  (0.0532111 -0.00426009 0)
  (0.0539769 -0.00377505 0)
  (0.0552756 -0.00346802 0)
  (0.0566882 -0.00319271 0)
  (0.0582854 -0.00278707 0)
  (0.0606515 -0.00186991 0)
  (0.0652404 0.00161006 0)
  (0.0645213 0.0200569 0)
  (0.0515598 0.0333743 0)
  (0.0550235 0.0423938 0)
  (-0.0874089 0.0798635 0)
  (0.603804 0.321749 0)
  (-0.25511 0.112411 0)
  (-0.0678197 0.103669 0)
  (-0.110389 0.0871055 0)
  (-0.126913 0.0740982 0)
  (-0.142084 0.0603066 0)
  (-0.154895 0.0444705 0)
  (-0.164733 0.0257301 0)
  (-0.170313 0.00343346 0)
  (-0.169349 -0.0223198 0)
  (-0.161797 -0.0498463 0)
  (-0.149351 -0.0766009 0)
  (-0.134523 -0.100642 0)
  (-0.119869 -0.120086 0)
  (-0.105733 -0.131577 0)
  (-0.0926514 -0.13313 0)
  (-0.0837041 -0.118526 0)
  (-0.0577705 -0.0464979 0)
  (0.00485468 -0.080849 0)
  (0.00267979 -0.0528717 0)
  (0.012401 -0.0353889 0)
  (0.0218764 -0.0267857 0)
  (0.0299555 -0.021147 0)
  (0.0367302 -0.015501 0)
  (0.0455522 -0.0122552 0)
  (0.0577326 -0.0109128 0)
  (0.0687411 -0.00972177 0)
  (0.0778809 -0.00836909 0)
  (0.084764 -0.00657793 0)
  (0.0885777 -0.00423375 0)
  (0.0878704 -0.00127394 0)
  (0.0815494 0.00253865 0)
  (0.0674442 0.00783264 0)
  (0.0538875 0.0299266 0)
  (0.0409243 0.0485635 0)
  (0.0600805 0.0628082 0)
  (-0.128897 0.103149 0)
  (0.731494 0.379049 0)
  (-0.307684 0.145613 0)
  (-0.0282099 0.120826 0)
  (-0.0771975 0.101745 0)
  (-0.0867679 0.0877696 0)
  (-0.0968425 0.0724762 0)
  (-0.105923 0.0544103 0)
  (-0.11354 0.0324919 0)
  (-0.118308 0.00577004 0)
  (-0.116715 -0.0256448 0)
  (-0.109298 -0.0586893 0)
  (-0.0991394 -0.0887767 0)
  (-0.0884608 -0.113424 0)
  (-0.0789786 -0.131677 0)
  (-0.0709925 -0.143039 0)
  (-0.0637621 -0.147611 0)
  (-0.052134 -0.140688 0)
  (-0.0312119 -0.108188 0)
  (-0.00789241 -0.0890999 0)
  (-0.00273504 -0.0620041 0)
  (0.00440685 -0.0443467 0)
  (0.011376 -0.0348808 0)
  (0.0182281 -0.0287433 0)
  (0.0254148 -0.0235612 0)
  (0.0340852 -0.0189737 0)
  (0.043859 -0.0162146 0)
  (0.0530557 -0.0141302 0)
  (0.061252 -0.011535 0)
  (0.068064 -0.00758473 0)
  (0.0727479 -0.00176194 0)
  (0.0740605 0.00551753 0)
  (0.0709932 0.0137565 0)
  (0.0636188 0.0235535 0)
  (0.0544282 0.0405871 0)
  (0.0414101 0.0610336 0)
  (0.0681432 0.0832678 0)
  (-0.0351914 0.117511 0)
  (0.0415888 0.0213134 0)
  (-0.0749364 -0.0422076 0)
  (-0.283557 -0.0651524 0)
  (0.819546 0.429363 0)
  (-0.35237 0.173148 0)
  (0.00430018 0.12114 0)
  (-0.0409295 0.109597 0)
  (-0.0442756 0.0960849 0)
  (-0.0491513 0.0798233 0)
  (-0.053395 0.060716 0)
  (-0.0571564 0.0373718 0)
  (-0.0595092 0.00786209 0)
  (-0.0536427 -0.0290515 0)
  (-0.0456373 -0.0668149 0)
  (-0.0384187 -0.0981735 0)
  (-0.0328204 -0.121647 0)
  (-0.0295323 -0.137792 0)
  (-0.0283548 -0.147659 0)
  (-0.0281939 -0.152017 0)
  (-0.023735 -0.148124 0)
  (-0.01532 -0.12624 0)
  (-0.00659772 -0.0947559 0)
  (-0.0049712 -0.0660064 0)
  (-0.00203079 -0.0495791 0)
  (0.00139203 -0.040248 0)
  (0.00558694 -0.0345803 0)
  (0.0107088 -0.0303039 0)
  (0.0169523 -0.0269396 0)
  (0.0239263 -0.0247795 0)
  (0.0310547 -0.0227571 0)
  (0.0380351 -0.0197682 0)
  (0.0446857 -0.0147732 0)
  (0.050576 -0.00684253 0)
  (0.0553432 0.00396042 0)
  (0.0564198 0.0159103 0)
  (0.0550112 0.0287677 0)
  (0.0535769 0.0449168 0)
  (0.0493401 0.0647506 0)
  (0.0766117 0.0902896 0)
  (0.0460918 0.112031 0)
  (0.0945779 0.072004 0)
  (0.121239 0.045038 0)
  (-0.146068 -0.0168223 0)
  (0.844179 0.474421 0)
  (-0.373683 0.164896 0)
  (0.0242017 0.0780019 0)
  (0.00926434 0.109037 0)
  (0.00639374 0.10614 0)
  (0.00301327 0.0854173 0)
  (0.00286957 0.0626707 0)
  (0.00385735 0.0381135 0)
  (0.00503195 0.00517426 0)
  (0.0219202 -0.0382522 0)
  (0.0289096 -0.0750536 0)
  (0.0308677 -0.103154 0)
  (0.0291694 -0.123119 0)
  (0.0243076 -0.13634 0)
  (0.0171522 -0.144449 0)
  (0.0087471 -0.149093 0)
  (0.00407411 -0.14961 0)
  (0.00086837 -0.131464 0)
  (-0.000839253 -0.0947067 0)
  (-0.00624698 -0.0644142 0)
  (-0.00822442 -0.0495382 0)
  (-0.00937545 -0.0417477 0)
  (-0.00905969 -0.037172 0)
  (-0.00757111 -0.0341227 0)
  (-0.00500679 -0.0320122 0)
  (-0.00163129 -0.0305404 0)
  (0.00244202 -0.0289132 0)
  (0.00690774 -0.0262898 0)
  (0.0119705 -0.021597 0)
  (0.0177436 -0.013514 0)
  (0.0255949 -0.000875448 0)
  (0.032973 0.0134066 0)
  (0.0379591 0.0271594 0)
  (0.044366 0.0418134 0)
  (0.0504062 0.0580027 0)
  (0.07634 0.0790597 0)
  (0.0867402 0.088251 0)
  (0.123835 0.0570757 0)
  (0.167108 0.0426028 0)
  (-0.0361191 0.0942283 0)
  (0.941736 0.490474 0)
  (-0.129884 0.147157 0)
  (0.0861042 0.00801904 0)
  (0.126244 0.0449303 0)
  (0.104968 0.0717402 0)
  (0.088079 0.0617858 0)
  (0.0851076 0.0389551 0)
  (0.0881127 0.0121207 0)
  (0.100787 -0.0212212 0)
  (0.113063 -0.0518034 0)
  (0.113814 -0.0782565 0)
  (0.106501 -0.0992559 0)
  (0.0940739 -0.11458 0)
  (0.0782684 -0.124963 0)
  (0.0606207 -0.131814 0)
  (0.0425393 -0.137113 0)
  (0.0287243 -0.140963 0)
  (0.0156415 -0.12557 0)
  (0.00519854 -0.0876264 0)
  (-0.00906541 -0.0570213 0)
  (-0.0161441 -0.0449964 0)
  (-0.0218495 -0.0391978 0)
  (-0.0257701 -0.035977 0)
  (-0.0284699 -0.0340519 0)
  (-0.0302533 -0.0328952 0)
  (-0.0313724 -0.0321031 0)
  (-0.0319515 -0.0311401 0)
  (-0.0319521 -0.0294182 0)
  (-0.0311134 -0.0263142 0)
  (-0.0289123 -0.0211561 0)
  (-0.0238221 -0.0132283 0)
  (-0.00986226 -0.00173486 0)
  (0.000139762 0.0110937 0)
  (0.0121673 0.0215509 0)
  (0.0240306 0.0296412 0)
  (0.0475201 0.0392462 0)
  (0.0680803 0.0322851 0)
  (0.0896217 -0.00374183 0)
  (0.152485 0.0397974 0)
  (-0.448256 0.217029 0)
  (1.06916 0.451773 0)
  (0.517939 0.301849 0)
  (0.519586 0.23325 0)
  (0.489235 0.195203 0)
  (0.406521 0.169068 0)
  (0.334519 0.131192 0)
  (0.293165 0.0887716 0)
  (0.271639 0.0482469 0)
  (0.256956 0.010229 0)
  (0.234824 -0.0253576 0)
  (0.209233 -0.054721 0)
  (0.181789 -0.0764778 0)
  (0.153107 -0.0913973 0)
  (0.123734 -0.101229 0)
  (0.0944366 -0.108153 0)
  (0.0665319 -0.114991 0)
  (0.0452123 -0.122792 0)
  (0.024186 -0.109395 0)
  (0.0079018 -0.0709222 0)
  (-0.0148631 -0.0447289 0)
  (-0.0265207 -0.0371172 0)
  (-0.0359761 -0.0338138 0)
  (-0.0437491 -0.0319379 0)
  (-0.0506166 -0.0307969 0)
  (-0.0569966 -0.0300648 0)
  (-0.0632 -0.0294004 0)
  (-0.0694563 -0.0283447 0)
  (-0.0759425 -0.026333 0)
  (-0.0828651 -0.0227032 0)
  (-0.0905512 -0.0167373 0)
  (-0.0993608 -0.00777017 0)
  (-0.109313 0.00448697 0)
  (-0.117725 0.0188095 0)
  (-0.132607 0.0351079 0)
  (-0.158115 0.0535435 0)
  (-0.196151 0.0726306 0)
  (-0.251355 0.0871379 0)
  (-0.315384 0.0943567 0)
  (-0.387481 0.0953832 0)
  (-0.655592 0.090491 0)
  (-0.241165 0.100437 0)
  (0.175034 0.1731 0)
  (0.265634 0.167415 0)
  (0.263 0.136533 0)
  (0.26381 0.0964854 0)
  (0.265761 0.0555116 0)
  (0.261978 0.0190961 0)
  (0.250057 -0.0105316 0)
  (0.229727 -0.032767 0)
  (0.203578 -0.0486932 0)
  (0.173476 -0.059656 0)
  (0.14097 -0.0670942 0)
  (0.10728 -0.0728711 0)
  (0.0746219 -0.0804091 0)
  (0.0485334 -0.0932024 0)
  (0.0184594 -0.0806452 0)
  (0.00111239 -0.0406282 0)
  (-0.0252191 -0.0253478 0)
  (-0.0393437 -0.0232874 0)
  (-0.0503471 -0.0229633 0)
  (-0.0602331 -0.0228876 0)
  (-0.0697579 -0.0228733 0)
  (-0.079209 -0.0227828 0)
  (-0.0887957 -0.0223895 0)
  (-0.0986052 -0.0213341 0)
  (-0.108548 -0.0191143 0)
  (-0.118327 -0.0151047 0)
  (-0.127387 -0.00862998 0)
  (-0.134817 0.000922853 0)
  (-0.139394 0.0137065 0)
  (-0.141946 0.0300299 0)
  (-0.143831 0.0500856 0)
  (-0.146451 0.0727892 0)
  (-0.150562 0.0938452 0)
  (-0.153036 0.101668 0)
  (-0.13509 0.0736215 0)
  (-0.0838097 -0.0313646 0)
  (-0.290921 -0.22249 0)
  (-0.121552 0.253066 0)
  (0.0902145 0.18177 0)
  (0.107567 0.133577 0)
  (0.139225 0.109289 0)
  (0.173006 0.0802255 0)
  (0.197991 0.0506433 0)
  (0.209701 0.0269057 0)
  (0.208996 0.0108739 0)
  (0.198769 -0.00107604 0)
  (0.181136 -0.0103174 0)
  (0.158187 -0.0174669 0)
  (0.131372 -0.0231883 0)
  (0.101519 -0.0292239 0)
  (0.0707996 -0.0414402 0)
  (0.0383703 -0.0676117 0)
  (-0.0116192 -0.0491128 0)
  (-0.0263911 0.0210353 0)
  (-0.0446164 0.0280506 0)
  (-0.0560696 0.0226667 0)
  (-0.0652599 0.0205747 0)
  (-0.0740481 0.019479 0)
  (-0.0826517 0.0182288 0)
  (-0.0910843 0.0169053 0)
  (-0.0993339 0.0157215 0)
  (-0.107294 0.0148524 0)
  (-0.114733 0.0144442 0)
  (-0.121283 0.0146301 0)
  (-0.126394 0.0155415 0)
  (-0.129083 0.0172963 0)
  (-0.127886 0.0223041 0)
  (-0.121107 0.032007 0)
  (-0.107745 0.0470857 0)
  (-0.0882524 0.0670402 0)
  (-0.0642375 0.0871313 0)
  (-0.0389272 0.0986765 0)
  (0.00433211 0.0805843 0)
  (0.14679 0.00364371 0)
  (-0.210261 -0.135026 0)
  (-0.150431 -0.365046 0)
  (-0.443562 -0.0999773 0)
  (-0.322545 0.153042 0)
  (-0.169371 0.0603219 0)
  (-0.0830094 0.0356426 0)
  (0.0183699 0.0331881 0)
  (0.082983 0.012821 0)
  (0.129211 -0.00806929 0)
  (0.1571 -0.0267475 0)
  (0.167696 -0.0432683 0)
  (0.165661 -0.0563515 0)
  (0.154267 -0.0671649 0)
  (0.136394 -0.0771073 0)
  (0.1141 -0.0874649 0)
  (0.0883574 -0.100126 0)
  (0.0615167 -0.118915 0)
  (0.0143802 -0.144369 0)
  (-0.0593451 -0.135221 0)
  (-0.0653795 -0.127773 0)
  (-0.0683842 -0.123408 0)
  (-0.0740701 -0.118954 0)
  (-0.0813525 -0.113125 0)
  (-0.0887281 -0.10662 0)
  (-0.0959153 -0.0999139 0)
  (-0.102889 -0.0931836 0)
  (-0.109558 -0.0864497 0)
  (-0.1157 -0.0796156 0)
  (-0.120933 -0.0724696 0)
  (-0.124692 -0.0646719 0)
  (-0.126195 -0.0557172 0)
  (-0.124329 -0.0448949 0)
  (-0.117072 -0.033232 0)
  (-0.101439 -0.0201013 0)
  (-0.0752274 -0.00451815 0)
  (-0.039495 0.0143265 0)
  (0.0184543 0.0380939 0)
  (0.0707557 0.0398216 0)
  (0.119928 0.0181578 0)
  (0.175854 -0.0220352 0)
  (-0.186033 -0.0895953 0)
)
;

boundaryField
{
  floor
  {
    type noSlip;
  }
  ceiling
  {
    type noSlip;
  }
  sWall
  {
    type noSlip;
  }
  nWall
  {
    type noSlip;
  }
  sideWalls
  {
    type empty;
  }
  glass1
  {
    type noSlip;
  }
  glass2
  {
    type noSlip;
  }
  sun
  {
    type noSlip;
  }
  heatsource1
  {
    type noSlip;
  }
  heatsource2
  {
    type noSlip;
  }
  Table_master
  {
    type noSlip;
  }
  Table_slave
  {
    type noSlip;
  }
  inlet
  {
    type fixedValue;
    value uniform (0.277164 -0.114805 0);
  }
  outlet
  {
    type zeroGradient;
  }
} 	// ************************************************************************* //

