/*--------------------------------*- C++ -*----------------------------------*\
  =========                 |
  \\      /  F ield         | OpenFOAM: The Open Source CFD Toolbox
   \\    /   O peration     | Website:  https://openfoam.org
    \\  /    A nd           | Version:  6
     \\/     M anipulation  |
\*---------------------------------------------------------------------------*/
FoamFile
{
    version     2.0;
    format      ascii;
    class       volScalarField;
    location    "1400";
    object      alphat;
}
// * * * * * * * * * * * * * * * * * * * * * * * * * * * * * * * * * * * * * //

dimensions      [1 -1 -1 0 0 0 0];

internalField   nonuniform List<scalar> 
459
(
0.00166991
0.00189121
0.00197884
0.0021473
0.00231542
0.00244054
0.00243859
0.00230998
0.00215406
0.00199529
0.00184402
0.00170646
0.00156943
0.00142068
0.00125012
0.0007323
0.000859273
0.00098969
0.0010985
0.00116572
0.0011659
0.00110802
0.00103941
0.000976628
0.000921489
0.00087314
0.000830614
0.0007928
0.000758614
0.000727003
0.000695974
0.000662599
0.0006211
0.000562986
0.00221321
0.00651072
0.00650922
0.00702167
0.00743113
0.00773566
0.00823269
0.00805654
0.00742069
0.00664196
0.00580913
0.00481224
0.00380318
0.00284044
0.00197125
0.00121517
0.00104726
0.000701333
0.00147949
0.00276994
0.00367188
0.00434982
0.00443194
0.00305198
0.00252661
0.00218957
0.0019513
0.00177603
0.00164391
0.00154408
0.00145798
0.00134613
0.00122567
0.00111369
0.000984383
0.000587088
0.00264285
0.00893182
0.00805955
0.00801046
0.00779053
0.0077256
0.00838144
0.00869389
0.00830671
0.00761982
0.00690562
0.00603706
0.00500956
0.00391161
0.00287321
0.00198493
0.00108691
0.000671763
0.00168211
0.00272922
0.00408902
0.00521406
0.00522494
0.00143463
0.00127114
0.00112907
0.00100882
0.000907776
0.000823143
0.000752586
0.000696341
0.000659814
0.000768806
0.000916398
0.000983735
0.000589737
0.00303553
0.0110448
0.00920667
0.00854654
0.0076086
0.00726804
0.00801769
0.00859905
0.00838131
0.00770757
0.00706551
0.00645112
0.00567458
0.00473259
0.00374772
0.00281305
0.00177462
0.0011373
0.00123959
0.00211096
0.00367198
0.00540433
0.00673073
0.00663357
0.00165479
0.00153301
0.00143303
0.00134878
0.00126993
0.00119079
0.00110788
0.00101825
0.000915988
0.000805913
0.000829968
0.00094668
0.000592863
0.00340716
0.0133505
0.0110427
0.00940324
0.00757173
0.00709253
0.00789952
0.00863226
0.00850424
0.00776309
0.00711642
0.00676932
0.00632834
0.00565539
0.0048834
0.00414863
0.00348943
0.00354041
0.00435886
0.00572162
0.00727901
0.00864018
0.0095381
0.00970257
0.00837783
0.00751307
0.00686001
0.006134
0.00535538
0.00454477
0.00371484
0.00287321
0.00203057
0.00130996
0.000976812
0.000969615
0.000674784
0.00057032
0.000527357
0.000598832
0.00375368
0.0154974
0.0136486
0.0100512
0.00753046
0.00710924
0.00798164
0.00882243
0.00872481
0.00793063
0.00746537
0.00758407
0.00750957
0.00712917
0.00669679
0.00642318
0.00645664
0.00724477
0.00865277
0.0100379
0.0111548
0.0118576
0.0120984
0.011871
0.0111685
0.0103213
0.009303
0.00818708
0.00701091
0.00581029
0.00461359
0.00344851
0.00235921
0.00149473
0.00108208
0.00102346
0.000812235
0.000762435
0.00083267
0.000624251
0.00394918
0.0160214
0.014204
0.00953841
0.00722704
0.00711458
0.0082088
0.00915387
0.00903584
0.00836426
0.00871221
0.00925082
0.00929994
0.00916293
0.00913563
0.00938776
0.0100439
0.0111838
0.0123795
0.0132414
0.0137114
0.0137614
0.013424
0.0127697
0.0118685
0.0107765
0.00956485
0.00827674
0.00695163
0.00563477
0.00437512
0.0032261
0.0022482
0.00153821
0.00118084
0.0011346
0.00102236
0.00101136
0.00106139
0.00071435
0.00391739
0.0119105
0.00973852
0.00716555
0.00628456
0.0070724
0.00861755
0.00964458
0.00948221
0.00967457
0.0104083
0.0107975
0.0109028
0.0110375
0.0113551
0.0119267
0.0127473
0.0136672
0.0143652
0.0146507
0.0145333
0.014034
0.013223
0.0121861
0.0110271
0.00981312
0.00855327
0.00726477
0.00598634
0.00477064
0.00367405
0.00274566
0.00202125
0.00153095
0.0012815
0.00123231
0.00121337
0.00120002
0.00155083
0.000795834
0.00375838
0.00416385
0.00421215
0.0041906
0.00533554
0.00748996
0.00948065
0.0102384
0.0104899
0.0110387
0.0114384
0.0115859
0.0117557
0.012054
0.0125008
0.0130698
0.0136705
0.0141339
0.0142824
0.0140379
0.01342
0.0124971
0.0113771
0.0101785
0.00898015
0.00781259
0.00667137
0.00556321
0.00451918
0.00358091
0.00278301
0.00214127
0.00165321
0.0013171
0.00114473
0.00113384
0.00123843
0.00136981
0.00135105
0.00106359
0.000653758
0.00410176
0.00799123
0.0105168
0.0114488
0.0110049
0.0110281
0.0111581
0.0111731
0.0112429
0.0114165
0.0116788
0.0119877
0.012274
0.0124371
0.0123639
0.011988
0.0113254
0.0104541
0.00947707
0.0084907
0.00756155
0.00671499
0.00594603
0.00524381
0.00460697
0.00403827
0.00353387
0.00308051
0.00266326
0.00227865
0.00194272
0.00168647
0.00154625
0.00152869
0.00158609
0.0016344
0.00126894
0.00311785
0.0111089
0.0116892
0.0109828
0.0100437
0.00941522
0.00906776
0.00893354
0.00894085
0.00903624
0.00917742
0.00933041
0.00946081
0.00952636
0.00947834
0.0092773
0.00891859
0.00844043
0.0079049
0.00737155
0.00687933
0.00644427
0.00606701
0.00574194
0.0054621
0.00521859
0.0049969
0.00477421
0.00452097
0.00420854
0.00382257
0.00337826
0.00292673
0.00253808
0.00226432
0.00217712
0.00265746
0.00145104
0.00130079
0.00194777
0.00245821
0.002529
0.00232585
0.0021557
0.00202642
0.00194054
0.00189751
0.00187803
0.00187079
0.00187091
0.00187523
0.00188048
0.00188304
0.00187929
0.00186629
0.00184296
0.00181109
0.00177472
0.00173824
0.00170491
0.0016763
0.0016525
0.00163265
0.0016154
0.00159916
0.00158211
0.0015621
0.00153683
0.00150425
0.00146339
0.00141521
0.00136299
0.00131179
0.0012673
0.00123609
0.00123693
0.00133209
0.00132858
)
;

boundaryField
{
    floor
    {
        type            compressible::alphatWallFunction;
        Prt             0.85;
        value           nonuniform List<scalar> 
29
(
0.000176945
0.000104028
0.000122394
0.000140924
0.00015617
0.000165513
0.000165543
0.000157514
0.000147931
0.000139097
0.000131284
0.000124388
0.000118286
0.000112829
0.000107869
0.000103259
9.87101e-05
9.37905e-05
8.76308e-05
7.89193e-05
7.89184e-05
8.25467e-05
8.29452e-05
8.34159e-05
0.000176943
0.000104027
9.94922e-05
9.51326e-05
0.000161526
)
;
    }
    ceiling
    {
        type            compressible::alphatWallFunction;
        Prt             0.85;
        value           nonuniform List<scalar> 
43
(
0.000185232
0.000271039
0.000336348
0.000345362
0.000319475
0.000297602
0.000280861
0.000269677
0.000264052
0.000261497
0.000260544
0.00026056
0.00026113
0.000261823
0.000262166
0.000261681
0.000259981
0.000256921
0.000252731
0.000247935
0.000243115
0.0002387
0.000234902
0.000231737
0.000229095
0.000226796
0.000224628
0.00022235
0.000219675
0.000216288
0.000211913
0.000206411
0.000199899
0.000192812
0.000185832
0.000179743
0.000175458
0.000175575
0.000188611
0.00018814
0.000498197
0.000547319
0.000419149
)
;
    }
    sWall
    {
        type            compressible::alphatWallFunction;
        Prt             0.85;
        value           uniform 0.000184759;
    }
    nWall
    {
        type            compressible::alphatWallFunction;
        Prt             0.85;
        value           nonuniform List<scalar> 6(8.41859e-05 8.80163e-05 0.000101313 0.000179693 0.000204467 0.000187889);
    }
    sideWalls
    {
        type            empty;
    }
    glass1
    {
        type            compressible::alphatWallFunction;
        Prt             0.85;
        value           nonuniform List<scalar> 9(0.000228392 0.000298656 0.000353004 0.000401929 0.000447674 0.0004899 0.000513626 0.000509931 0.000490933);
    }
    glass2
    {
        type            compressible::alphatWallFunction;
        Prt             0.85;
        value           nonuniform List<scalar> 2(0.000112882 0.000150949);
    }
    sun
    {
        type            compressible::alphatWallFunction;
        Prt             0.85;
        value           nonuniform List<scalar> 
14
(
0.000233693
0.000262875
0.000274309
0.000296193
0.000317829
0.00033382
0.000333493
0.000317019
0.000296928
0.000276323
0.000256542
0.000238393
0.000220153
0.000200156
)
;
    }
    heatsource1
    {
        type            compressible::alphatWallFunction;
        Prt             0.85;
        value           nonuniform List<scalar> 3(8.00292e-05 7.35239e-05 8.42776e-05);
    }
    heatsource2
    {
        type            compressible::alphatWallFunction;
        Prt             0.85;
        value           nonuniform List<scalar> 4(0.000172267 0.000149014 0.000149013 0.000154568);
    }
    Table_master
    {
        type            compressible::alphatWallFunction;
        Prt             0.85;
        value           nonuniform List<scalar> 9(0.00020231 0.000180066 0.00016047 0.00014366 0.000129355 0.000117229 0.000107006 9.8776e-05 9.33884e-05);
    }
    Table_slave
    {
        type            compressible::alphatWallFunction;
        Prt             0.85;
        value           nonuniform List<scalar> 9(0.000231829 0.000215566 0.000202105 0.000190679 0.000179912 0.000169028 0.000157535 0.000144999 0.000130537);
    }
    inlet
    {
        type            fixedValue;
        value           uniform 1.94e-05;
    }
    outlet
    {
        type            zeroGradient;
    }
}


// ************************************************************************* //
