// -*- C++ -*-
// File generated by PyFoam - sorry for the ugliness

FoamFile
{
 version 2.0;
 format ascii;
 class volVectorField;
 location "600";
 object U;
}

dimensions [ 0 1 -1 0 0 0 0 ];

internalField nonuniform List<vector> 459
(
  (-0.0172598 0.0773032 0)
  (-0.162704 0.00729921 0)
  (-0.155596 -0.00831312 0)
  (-0.148982 -0.00384254 0)
  (-0.152297 -0.000817481 0)
  (-0.154919 -0.00481185 0)
  (-0.1514 -0.00894382 0)
  (-0.141761 -0.012457 0)
  (-0.126965 -0.0143403 0)
  (-0.110698 -0.0138183 0)
  (-0.0950367 -0.0131038 0)
  (-0.0793337 -0.013716 0)
  (-0.0617748 -0.0163468 0)
  (-0.0439986 -0.0217423 0)
  (-0.0374502 -0.0289312 0)
  (0.0564502 0.000744598 0)
  (-0.0159381 -0.00246508 0)
  (-0.00129721 -0.00431961 0)
  (0.0020112 -0.00374465 0)
  (0.0045506 -0.00254779 0)
  (0.00768508 -0.00348082 0)
  (0.0118066 -0.00477057 0)
  (0.0169476 -0.00417882 0)
  (0.0212927 -0.00326509 0)
  (0.0242844 -0.00255936 0)
  (0.0264844 -0.00221133 0)
  (0.0281699 -0.0020649 0)
  (0.0295984 -0.00167976 0)
  (0.0290229 -0.00114358 0)
  (0.0270325 -0.000421292 0)
  (0.0243309 0.000328765 0)
  (0.0235853 -0.0020658 0)
  (0.0275288 -0.00278313 0)
  (-0.0112958 0.0109246 0)
  (0.195023 0.160632 0)
  (-0.0749113 -0.0195605 0)
  (0.0531489 -0.0427115 0)
  (0.0206216 -0.00804908 0)
  (0.00814973 0.0206708 0)
  (-0.0394773 0.0149931 0)
  (-0.0855542 -0.00449236 0)
  (-0.109878 -0.0190216 0)
  (-0.108419 -0.0242127 0)
  (-0.100588 -0.0235303 0)
  (-0.0916417 -0.0215577 0)
  (-0.0821692 -0.0216618 0)
  (-0.0710935 -0.0248848 0)
  (-0.0585214 -0.03177 0)
  (-0.0462103 -0.0409871 0)
  (-0.0354755 -0.0457596 0)
  (0.0233521 0.00810318 0)
  (0.0605829 -0.00509912 0)
  (0.016202 0.000322735 0)
  (0.00416106 0.000768994 0)
  (0.00105137 0.000444729 0)
  (-0.000419657 0.00110105 0)
  (0.00024295 -0.000950556 0)
  (-0.00264691 -0.00801986 0)
  (-0.0010966 -0.00617725 0)
  (0.000608776 -0.00400023 0)
  (0.000407277 -0.00265042 0)
  (-0.000555585 -0.00171376 0)
  (-0.00242327 -0.000246108 0)
  (-0.00575646 0.00266483 0)
  (-0.00800142 0.00465629 0)
  (-0.0104566 0.00612046 0)
  (-0.0119154 0.00662672 0)
  (-0.0128146 0.00465931 0)
  (-0.0251253 0.00786227 0)
  (-0.0849343 0.0169369 0)
  (0.439383 0.241209 0)
  (0.283877 0.0455838 0)
  (0.280391 0.0212071 0)
  (0.278196 0.0593228 0)
  (0.227452 0.0898313 0)
  (0.155193 0.0958518 0)
  (0.0788105 0.0799933 0)
  (-0.00510692 0.0355219 0)
  (-0.0666327 -0.0146919 0)
  (-0.0786234 -0.0251955 0)
  (-0.0807473 -0.0259609 0)
  (-0.0800977 -0.0277354 0)
  (-0.077485 -0.0324838 0)
  (-0.0735344 -0.0399848 0)
  (-0.0690767 -0.0480725 0)
  (-0.0668216 -0.0525958 0)
  (-0.0749057 -0.0513874 0)
  (-0.00838261 0.0112249 0)
  (-0.0360173 0.00690191 0)
  (-0.0365375 0.00467832 0)
  (-0.035019 0.000751625 0)
  (-0.0312576 -0.00331945 0)
  (-0.0265536 -0.00802057 0)
  (-0.0170974 -0.00814352 0)
  (-0.0294147 -0.00704624 0)
  (-0.033738 -0.00528415 0)
  (-0.0362665 -0.00405377 0)
  (-0.0376775 -0.00300997 0)
  (-0.0376718 -0.00191208 0)
  (-0.0359569 -0.000663458 0)
  (-0.03323 0.00031994 0)
  (-0.02787 0.00104351 0)
  (-0.0173022 0.00103252 0)
  (-0.00552416 0.00458078 0)
  (-0.00297796 0.00331712 0)
  (-0.0736749 -0.00208337 0)
  (0.609157 -0.256368 0)
  (0.323304 -0.199546 0)
  (0.348448 -0.0930073 0)
  (0.35249 0.0240245 0)
  (0.29877 0.111596 0)
  (0.221945 0.151263 0)
  (0.142551 0.149901 0)
  (0.064926 0.114629 0)
  (-0.00728325 0.0481944 0)
  (-0.0504142 -0.00608145 0)
  (-0.0648786 -0.018725 0)
  (-0.0729346 -0.024467 0)
  (-0.0781704 -0.0306326 0)
  (-0.0826627 -0.0378105 0)
  (-0.0885278 -0.0441782 0)
  (-0.0993216 -0.0461053 0)
  (-0.115566 -0.0364961 0)
  (-0.114341 -0.00400234 0)
  (-0.0877437 0.00929031 0)
  (-0.0794736 0.00488818 0)
  (-0.073215 0.000920178 0)
  (-0.0703351 -0.00282801 0)
  (-0.0693518 -0.00643765 0)
  (-0.0704525 -0.00919899 0)
  (-0.0688948 -0.00683846 0)
  (-0.0625593 -0.00615398 0)
  (-0.0565929 -0.00631249 0)
  (-0.0506281 -0.00648546 0)
  (-0.0446065 -0.00666729 0)
  (-0.0384965 -0.00690874 0)
  (-0.0320902 -0.00731115 0)
  (-0.0248443 -0.00799773 0)
  (-0.0159058 -0.00894865 0)
  (-0.00908465 -0.0096397 0)
  (0.0011336 -0.00577827 0)
  (0.0137913 -0.000763014 0)
  (0.00740849 0.0108441 0)
  (0.578037 -0.430078 0)
  (0.10472 -0.22742 0)
  (0.185721 -0.0267246 0)
  (0.228513 0.105631 0)
  (0.205624 0.183612 0)
  (0.159684 0.21851 0)
  (0.109735 0.214232 0)
  (0.058412 0.173862 0)
  (0.00774091 0.100205 0)
  (-0.0280845 0.0262821 0)
  (-0.0473549 -0.00277282 0)
  (-0.0595228 -0.0152886 0)
  (-0.067516 -0.0236046 0)
  (-0.0742181 -0.0308805 0)
  (-0.0812904 -0.0368366 0)
  (-0.0897849 -0.0396383 0)
  (-0.0974966 -0.0354302 0)
  (-0.0984026 -0.0205333 0)
  (-0.0915391 -0.00808674 0)
  (-0.082896 -0.00378162 0)
  (-0.0758304 -0.00394636 0)
  (-0.0709841 -0.00554061 0)
  (-0.0678903 -0.00753242 0)
  (-0.065865 -0.00873901 0)
  (-0.0631732 -0.0080066 0)
  (-0.059335 -0.00801504 0)
  (-0.0553117 -0.00815662 0)
  (-0.0512675 -0.00832091 0)
  (-0.0472086 -0.00851237 0)
  (-0.0431097 -0.00886268 0)
  (-0.0388329 -0.00965012 0)
  (-0.0340599 -0.0112787 0)
  (-0.0284205 -0.0140964 0)
  (-0.0216676 -0.0179074 0)
  (-0.0123809 -0.0199918 0)
  (0.0043794 -0.0202149 0)
  (0.0299082 -0.0113475 0)
  (0.0583578 -0.0180366 0)
  (0.0849648 -0.00386426 0)
  (-0.0488661 0.0341755 0)
  (0.53293 -0.518723 0)
  (-0.0925992 -0.25301 0)
  (0.0741623 -0.012619 0)
  (0.111825 0.122501 0)
  (0.095571 0.207006 0)
  (0.0742146 0.250686 0)
  (0.0525803 0.250818 0)
  (0.0284382 0.20959 0)
  (0.00283438 0.131734 0)
  (-0.0162726 0.0511339 0)
  (-0.0307643 0.0136151 0)
  (-0.042482 -0.00517716 0)
  (-0.0500046 -0.0162181 0)
  (-0.0562293 -0.024164 0)
  (-0.062415 -0.0298369 0)
  (-0.0688709 -0.0321291 0)
  (-0.0739961 -0.0291674 0)
  (-0.0751399 -0.0213319 0)
  (-0.0719834 -0.0141039 0)
  (-0.0668158 -0.0103111 0)
  (-0.0619505 -0.00916695 0)
  (-0.0581944 -0.0094787 0)
  (-0.0555752 -0.0104241 0)
  (-0.0537114 -0.0111281 0)
  (-0.0518745 -0.0111209 0)
  (-0.0498009 -0.0112166 0)
  (-0.0477239 -0.0113594 0)
  (-0.045789 -0.0114497 0)
  (-0.0441257 -0.0114941 0)
  (-0.0428896 -0.0116548 0)
  (-0.0422135 -0.0123169 0)
  (-0.0421082 -0.0140932 0)
  (-0.0423806 -0.0175894 0)
  (-0.0423597 -0.0228733 0)
  (-0.0403713 -0.0290582 0)
  (-0.0338782 -0.0361168 0)
  (-0.0216834 -0.0433555 0)
  (-0.00517234 -0.0482989 0)
  (0.0617144 -0.00801409 0)
  (-0.0821458 0.0747954 0)
  (0.437174 -0.508794 0)
  (-0.177581 -0.276071 0)
  (0.0318413 -0.0442411 0)
  (0.0123012 0.13768 0)
  (-0.00827712 0.210653 0)
  (-0.00290587 0.256952 0)
  (0.00142935 0.261035 0)
  (0.00100769 0.220969 0)
  (-0.00261479 0.143466 0)
  (-0.00579188 0.0659573 0)
  (-0.0134356 0.0246529 0)
  (-0.0209278 0.00287231 0)
  (-0.0268331 -0.0103415 0)
  (-0.031354 -0.0190556 0)
  (-0.0359042 -0.0248483 0)
  (-0.0404896 -0.0274398 0)
  (-0.0441421 -0.0261921 0)
  (-0.0454779 -0.0219665 0)
  (-0.0442859 -0.0174255 0)
  (-0.0417436 -0.0142879 0)
  (-0.0391346 -0.0126621 0)
  (-0.0370856 -0.0121403 0)
  (-0.0357577 -0.0122531 0)
  (-0.0349962 -0.0124772 0)
  (-0.0344642 -0.0125386 0)
  (-0.034008 -0.0125803 0)
  (-0.0337102 -0.0125232 0)
  (-0.0337018 -0.0122393 0)
  (-0.0342116 -0.011653 0)
  (-0.0356412 -0.0108466 0)
  (-0.0386108 -0.010221 0)
  (-0.0438332 -0.0106141 0)
  (-0.0517718 -0.0129731 0)
  (-0.0621133 -0.0176579 0)
  (-0.0737215 -0.0244563 0)
  (-0.0848965 -0.033294 0)
  (-0.0921073 -0.0424192 0)
  (-0.0897542 -0.041214 0)
  (-0.0814883 0.00178768 0)
  (-0.144476 0.133515 0)
  (0.264283 -0.404654 0)
  (-0.239676 -0.232847 0)
  (-0.149978 -0.0613037 0)
  (-0.0830737 0.148547 0)
  (-0.100445 0.190714 0)
  (-0.0627086 0.235088 0)
  (-0.0336426 0.245769 0)
  (-0.013545 0.212183 0)
  (0.00109937 0.138867 0)
  (0.0101997 0.0710117 0)
  (0.00968359 0.0307736 0)
  (0.00640599 0.00780506 0)
  (0.00297471 -0.00637599 0)
  (0.000332339 -0.0155318 0)
  (-0.00266098 -0.0212259 0)
  (-0.00592073 -0.0238781 0)
  (-0.00887587 -0.0236265 0)
  (-0.0106857 -0.0212176 0)
  (-0.011098 -0.0181502 0)
  (-0.0106482 -0.0155436 0)
  (-0.010029 -0.0137517 0)
  (-0.00967053 -0.0127343 0)
  (-0.00975006 -0.012282 0)
  (-0.0102425 -0.0120988 0)
  (-0.0109992 -0.0119724 0)
  (-0.0119291 -0.0118288 0)
  (-0.0130458 -0.0115083 0)
  (-0.0143996 -0.010787 0)
  (-0.0161239 -0.00941239 0)
  (-0.0185453 -0.00718845 0)
  (-0.0223384 -0.00414193 0)
  (-0.0284393 -0.000728783 0)
  (-0.038674 0.00183376 0)
  (-0.0556652 0.00117898 0)
  (-0.0810758 -0.00526279 0)
  (-0.11425 -0.0185632 0)
  (-0.149459 -0.0369362 0)
  (-0.17939 -0.055901 0)
  (-0.223031 -0.0714972 0)
  (-0.396236 -0.0795767 0)
  (0.0125003 -0.260125 0)
  (-0.51493 -0.191901 0)
  (-0.664025 -0.134766 0)
  (-0.166112 0.0594991 0)
  (-0.179018 0.135701 0)
  (-0.0995645 0.188918 0)
  (-0.0490734 0.210284 0)
  (-0.0113236 0.185867 0)
  (0.0187766 0.120479 0)
  (0.0360849 0.0664584 0)
  (0.0420013 0.0321359 0)
  (0.0426374 0.0112105 0)
  (0.0414889 -0.00209228 0)
  (0.0399943 -0.0105919 0)
  (0.0377447 -0.015602 0)
  (0.0347713 -0.0179174 0)
  (0.0314877 -0.018058 0)
  (0.0285151 -0.0166449 0)
  (0.0262332 -0.0145334 0)
  (0.0245654 -0.0124436 0)
  (0.0232167 -0.0107446 0)
  (0.0219183 -0.00953846 0)
  (0.0204946 -0.00876778 0)
  (0.0188734 -0.00828832 0)
  (0.0170668 -0.00795223 0)
  (0.0151041 -0.00764127 0)
  (0.0130073 -0.00719422 0)
  (0.0108294 -0.00638443 0)
  (0.00866322 -0.00490933 0)
  (0.00661932 -0.00242884 0)
  (0.00479566 0.00129752 0)
  (0.00356349 0.00627631 0)
  (0.00243228 0.0120523 0)
  (0.00133004 0.0172352 0)
  (-4.22859e-05 0.019855 0)
  (-0.00148588 0.0189838 0)
  (-0.00115679 0.0146284 0)
  (0.00513161 0.00182061 0)
  (0.0261289 -0.0557534 0)
  (-0.287109 -0.164501 0)
  (-1.58943 -0.157182 0)
  (-0.0907385 -0.103866 0)
  (-0.176968 0.0241273 0)
  (-0.101092 0.121227 0)
  (-0.0416321 0.158122 0)
  (0.011487 0.14255 0)
  (0.0506723 0.0937836 0)
  (0.0740131 0.0555916 0)
  (0.0851848 0.031061 0)
  (0.0893544 0.0160101 0)
  (0.0902257 0.005456 0)
  (0.0887114 -0.00277492 0)
  (0.0852582 -0.00806741 0)
  (0.080442 -0.010832 0)
  (0.0750193 -0.0116801 0)
  (0.0697122 -0.0112409 0)
  (0.0649976 -0.0101274 0)
  (0.0610121 -0.00882467 0)
  (0.0576481 -0.00762387 0)
  (0.054705 -0.00665499 0)
  (0.0519822 -0.00593936 0)
  (0.0493262 -0.00542963 0)
  (0.0466484 -0.00504676 0)
  (0.0439124 -0.0046949 0)
  (0.0411304 -0.00423436 0)
  (0.0383854 -0.00346133 0)
  (0.0358617 -0.00209727 0)
  (0.0338736 0.000177788 0)
  (0.0328836 0.00355621 0)
  (0.0332733 0.00741259 0)
  (0.0354236 0.0114947 0)
  (0.0396213 0.0142321 0)
  (0.045721 0.0132547 0)
  (0.0531553 0.00709858 0)
  (0.062571 -0.00461478 0)
  (0.0710108 -0.0186966 0)
  (0.0856558 -0.0496817 0)
  (-0.0314147 -0.116325 0)
  (-0.497055 0.00281179 0)
  (0.121495 -0.115641 0)
  (-0.0902386 -0.0756499 0)
  (-0.071501 0.0246901 0)
  (-0.0135258 0.0787962 0)
  (0.0507415 0.0663132 0)
  (0.095998 0.0279455 0)
  (0.125008 -0.00712468 0)
  (0.140077 -0.0352701 0)
  (0.145727 -0.0572027 0)
  (0.145023 -0.0721454 0)
  (0.139728 -0.0788764 0)
  (0.131826 -0.0808291 0)
  (0.122973 -0.0801935 0)
  (0.114305 -0.0783807 0)
  (0.106473 -0.0762756 0)
  (0.0997379 -0.0743868 0)
  (0.0940631 -0.0729382 0)
  (0.0892375 -0.0719541 0)
  (0.0850001 -0.0713469 0)
  (0.081118 -0.0709857 0)
  (0.0774228 -0.0707412 0)
  (0.0738194 -0.0705098 0)
  (0.0702793 -0.0702201 0)
  (0.0668351 -0.0698239 0)
  (0.0635929 -0.0692858 0)
  (0.0607542 -0.0685733 0)
  (0.0586474 -0.0676441 0)
  (0.0578062 -0.0663338 0)
  (0.058465 -0.0632756 0)
  (0.060914 -0.0595035 0)
  (0.065191 -0.0576013 0)
  (0.0707016 -0.0594392 0)
  (0.076422 -0.0626685 0)
  (0.0807962 -0.0658238 0)
  (0.0823267 -0.0676738 0)
  (0.10391 -0.0764634 0)
  (-0.0113166 -0.121068 0)
  (0.605272 0.212611 0)
  (0.211471 -0.238043 0)
  (-0.273932 0.171298 0)
  (0.0937571 0.131881 0)
  (-0.0357106 0.220298 0)
  (-0.0388309 0.197858 0)
  (0.0265208 0.194861 0)
  (0.0866118 0.188067 0)
  (0.133581 0.184359 0)
  (0.164761 0.187708 0)
  (0.180945 0.196267 0)
  (0.186341 0.207368 0)
  (0.185139 0.21699 0)
  (0.180342 0.220852 0)
  (0.174051 0.220953 0)
  (0.167022 0.21917 0)
  (0.159635 0.216902 0)
  (0.152193 0.215048 0)
  (0.144922 0.214056 0)
  (0.137954 0.214019 0)
  (0.131352 0.214794 0)
  (0.125139 0.216123 0)
  (0.119314 0.217724 0)
  (0.11387 0.219355 0)
  (0.108793 0.220851 0)
  (0.104072 0.222125 0)
  (0.0997088 0.223154 0)
  (0.0957295 0.223957 0)
  (0.0921945 0.224569 0)
  (0.0892151 0.225018 0)
  (0.0869566 0.225223 0)
  (0.0855528 0.223238 0)
  (0.0852237 0.21961 0)
  (0.0855378 0.216476 0)
  (0.0849664 0.214983 0)
  (0.0809375 0.210662 0)
  (0.070674 0.203551 0)
  (0.0511525 0.193113 0)
  (0.109224 0.186948 0)
  (-0.346333 0.321095 0)
)
;

boundaryField
{
  floor
  {
    type noSlip;
  }
  ceiling
  {
    type noSlip;
  }
  sWall
  {
    type noSlip;
  }
  nWall
  {
    type noSlip;
  }
  sideWalls
  {
    type empty;
  }
  glass1
  {
    type noSlip;
  }
  glass2
  {
    type noSlip;
  }
  sun
  {
    type noSlip;
  }
  heatsource1
  {
    type noSlip;
  }
  heatsource2
  {
    type noSlip;
  }
  Table_master
  {
    type noSlip;
  }
  Table_slave
  {
    type noSlip;
  }
  inlet
  {
    type fixedValue;
    value uniform (0.1 0 0);
  }
  outlet
  {
    type zeroGradient;
  }
} 	// ************************************************************************* //

