// -*- C++ -*-
// File generated by PyFoam - sorry for the ugliness

FoamFile
{
 version 2.0;
 format ascii;
 class volScalarField;
 location "560";
 object T;
}

dimensions [ 0 0 0 1 0 0 0 ];

internalField nonuniform List<scalar> 459
(
  301.027
  300.991
  300.992
  300.993
  300.994
  300.995
  300.996
  300.997
  301
  301.005
  301.015
  301.028
  301.033
  301.032
  301.025
  301.076
  301.114
  301.133
  301.145
  301.155
  301.162
  301.166
  301.167
  301.169
  301.17
  301.171
  301.172
  301.172
  301.173
  301.174
  301.175
  301.175
  301.174
  301.162
  301.048
  300.997
  300.995
  300.995
  300.995
  300.995
  300.994
  300.994
  300.995
  301.001
  301.016
  301.036
  301.045
  301.047
  301.041
  301.044
  301.046
  301.107
  301.123
  301.139
  301.157
  301.173
  301.185
  301.189
  301.192
  301.195
  301.197
  301.199
  301.202
  301.203
  301.205
  301.205
  301.203
  301.199
  301.191
  301.185
  301.068
  301.001
  300.996
  300.996
  300.996
  300.995
  300.993
  300.989
  300.986
  300.992
  301.012
  301.038
  301.054
  301.06
  301.058
  301.056
  301.053
  301.097
  301.117
  301.142
  301.167
  301.19
  301.208
  301.209
  301.211
  301.213
  301.215
  301.217
  301.22
  301.222
  301.224
  301.224
  301.223
  301.217
  301.207
  301.198
  301.089
  301.006
  300.998
  300.999
  301.001
  301.002
  300.999
  300.988
  300.978
  300.982
  301.007
  301.04
  301.064
  301.076
  301.076
  301.073
  301.066
  301.071
  301.09
  301.119
  301.154
  301.188
  301.218
  301.242
  301.262
  301.279
  301.293
  301.305
  301.316
  301.325
  301.333
  301.34
  301.344
  301.31
  301.273
  301.24
  301.217
  301.111
  301.013
  301.001
  301.003
  301.009
  301.014
  301.01
  300.991
  300.972
  300.974
  301.002
  301.042
  301.077
  301.098
  301.102
  301.1
  301.098
  301.109
  301.132
  301.163
  301.197
  301.231
  301.262
  301.288
  301.311
  301.329
  301.343
  301.355
  301.365
  301.372
  301.376
  301.377
  301.374
  301.355
  301.322
  301.282
  301.246
  301.248
  301.251
  301.28
  301.132
  301.023
  301.007
  301.008
  301.016
  301.027
  301.019
  300.991
  300.966
  300.966
  300.999
  301.049
  301.097
  301.128
  301.14
  301.142
  301.145
  301.161
  301.187
  301.218
  301.251
  301.284
  301.312
  301.336
  301.356
  301.371
  301.382
  301.391
  301.397
  301.401
  301.403
  301.401
  301.396
  301.382
  301.358
  301.326
  301.29
  301.278
  301.273
  301.289
  301.153
  301.042
  301.024
  301.022
  301.029
  301.037
  301.02
  300.985
  300.956
  300.958
  301
  301.064
  301.127
  301.168
  301.188
  301.195
  301.204
  301.223
  301.249
  301.279
  301.309
  301.337
  301.361
  301.379
  301.393
  301.403
  301.409
  301.413
  301.415
  301.416
  301.415
  301.413
  301.407
  301.397
  301.379
  301.356
  301.327
  301.308
  301.295
  301.299
  301.184
  301.095
  301.073
  301.063
  301.065
  301.052
  301.011
  300.962
  300.934
  300.95
  301.011
  301.094
  301.172
  301.221
  301.245
  301.256
  301.268
  301.288
  301.313
  301.339
  301.363
  301.383
  301.398
  301.409
  301.415
  301.419
  301.42
  301.419
  301.418
  301.416
  301.413
  301.409
  301.405
  301.398
  301.385
  301.369
  301.349
  301.332
  301.318
  301.353
  301.225
  301.183
  301.154
  301.128
  301.104
  301.034
  300.952
  300.898
  300.895
  300.948
  301.046
  301.152
  301.24
  301.283
  301.305
  301.317
  301.331
  301.349
  301.368
  301.386
  301.4
  301.411
  301.417
  301.42
  301.421
  301.42
  301.417
  301.414
  301.41
  301.406
  301.401
  301.396
  301.39
  301.384
  301.378
  301.374
  301.373
  301.376
  301.384
  301.409
  300.351
  300.458
  300.497
  300.547
  300.626
  300.734
  300.862
  301.001
  301.147
  301.256
  301.313
  301.342
  301.357
  301.368
  301.38
  301.392
  301.403
  301.411
  301.417
  301.42
  301.42
  301.419
  301.417
  301.414
  301.41
  301.407
  301.403
  301.399
  301.395
  301.391
  301.388
  301.385
  301.383
  301.382
  301.385
  301.391
  301.403
  301.432
  300.385
  300.525
  300.637
  300.773
  300.897
  301.007
  301.111
  301.205
  301.282
  301.333
  301.362
  301.378
  301.389
  301.397
  301.404
  301.41
  301.414
  301.417
  301.418
  301.417
  301.415
  301.413
  301.411
  301.408
  301.406
  301.403
  301.401
  301.399
  301.396
  301.394
  301.392
  301.39
  301.388
  301.388
  301.389
  301.393
  301.403
  301.42
  300.71
  300.702
  300.701
  300.847
  300.975
  301.091
  301.176
  301.237
  301.285
  301.324
  301.352
  301.371
  301.382
  301.389
  301.393
  301.396
  301.398
  301.399
  301.398
  301.397
  301.395
  301.393
  301.391
  301.388
  301.386
  301.385
  301.383
  301.382
  301.381
  301.381
  301.381
  301.382
  301.382
  301.383
  301.383
  301.384
  301.385
  301.387
  301.388
  301.411
)
;

boundaryField
{
  floor
  {
    type wallHeatTransfer;
    Tinf uniform 299.755;
    alphaWall uniform 0.24;
    value nonuniform List<scalar> 29
(
  300.824
  300.794
  300.883
  300.906
  300.919
  300.926
  300.928
  300.923
  300.914
  300.905
  300.895
  300.886
  300.877
  300.868
  300.86
  300.851
  300.841
  300.829
  300.808
  300.775
  300.775
  300.832
  300.859
  300.896
  300.824
  300.794
  300.887
  300.892
  300.9
)
;
  }
  ceiling
  {
    type wallHeatTransfer;
    Tinf uniform 299.755;
    alphaWall uniform 0.24;
    value nonuniform List<scalar> 43
(
  300.623
  300.619
  300.621
  300.766
  300.884
  300.988
  301.062
  301.115
  301.156
  301.187
  301.208
  301.22
  301.227
  301.232
  301.235
  301.238
  301.24
  301.24
  301.24
  301.239
  301.237
  301.234
  301.232
  301.229
  301.227
  301.224
  301.221
  301.217
  301.213
  301.209
  301.205
  301.202
  301.199
  301.198
  301.198
  301.199
  301.2
  301.201
  301.199
  301.217
  301.107
  301.083
  300.314
)
;
  }
  sWall
  {
    type wallHeatTransfer;
    Tinf uniform 303.161;
    alphaWall uniform 0.36;
    value uniform 301.03;
  }
  nWall
  {
    type wallHeatTransfer;
    Tinf uniform 303.145;
    alphaWall uniform 0.36;
    value nonuniform List<scalar> 6
(
  301.782
  301.706
  301.667
  301.694
  301.668
  301.7
)
;
  }
  sideWalls
  {
    type empty;
  }
  glass1
  {
    type wallHeatTransfer;
    Tinf uniform 303.161;
    alphaWall uniform 4.3;
    value nonuniform List<scalar> 9
(
  302.66
  302.59
  302.539
  302.497
  302.459
  302.42
  302.387
  302.387
  302.409
)
;
  }
  glass2
  {
    type wallHeatTransfer;
    Tinf uniform 303.145;
    alphaWall uniform 4.3;
    value nonuniform List<scalar> 2
(
  302.613
  302.617
)
;
  }
  sun
  {
    type wallHeatTransfer;
    Tinf uniform 299.755;
    alphaWall uniform 0.24;
    value nonuniform List<scalar> 14
(
  300.832
  300.816
  300.822
  300.83
  300.837
  300.843
  300.849
  300.855
  300.86
  300.866
  300.873
  300.876
  300.867
  300.85
)
;
  }
  heatsource1
  {
    type fixedGradient;
    gradient uniform 0;
  }
  heatsource2
  {
    type fixedGradient;
    gradient uniform 0;
  }
  Table_master
  {
    type zeroGradient;
  }
  Table_slave
  {
    type zeroGradient;
  }
  inlet
  {
    type fixedValue;
    value uniform 300.15;
  }
  outlet
  {
    type zeroGradient;
  }
} 	// ************************************************************************* //

