/*--------------------------------*- C++ -*----------------------------------*\
  =========                 |
  \\      /  F ield         | OpenFOAM: The Open Source CFD Toolbox
   \\    /   O peration     | Website:  https://openfoam.org
    \\  /    A nd           | Version:  6
     \\/     M anipulation  |
\*---------------------------------------------------------------------------*/
FoamFile
{
    version     2.0;
    format      ascii;
    class       volScalarField;
    location    "200";
    object      nut;
}
// * * * * * * * * * * * * * * * * * * * * * * * * * * * * * * * * * * * * * //

dimensions      [0 2 -1 0 0 0 0];

internalField   nonuniform List<scalar> 
459
(
0.00199194
0.00224467
0.00219895
0.00205757
0.00190287
0.00176218
0.00164006
0.00153102
0.00143159
0.00133912
0.00125121
0.00116523
0.00107766
0.000982003
0.000878563
0.000671113
0.000864422
0.000802709
0.000737645
0.000680123
0.000627613
0.000579709
0.000537993
0.000501647
0.000469806
0.000441693
0.000416788
0.000394397
0.000373678
0.000353725
0.00033343
0.000316612
0.000321396
0.000456722
0.00234682
0.00709845
0.00627049
0.00553783
0.00498908
0.00456823
0.00419324
0.00385309
0.00353227
0.00321677
0.00289101
0.00253872
0.00214758
0.00170961
0.00127286
0.000840625
0.000720611
0.000882682
0.0027958
0.00226951
0.00219348
0.00212775
0.00197968
0.00162518
0.00138773
0.00121809
0.00109097
0.000992693
0.000909334
0.000829533
0.000748465
0.000666662
0.000598072
0.000648662
0.00072993
0.000564645
0.0024828
0.0089191
0.00692121
0.00572995
0.00513082
0.00484643
0.0046608
0.00448145
0.00426508
0.00399223
0.00365228
0.00324064
0.0027625
0.00223628
0.00171408
0.00122809
0.000726746
0.000851879
0.00231504
0.00250495
0.0027049
0.00275099
0.00246168
0.000740348
0.000639783
0.000562249
0.000501455
0.00045318
0.000414832
0.000384969
0.000362513
0.000347477
0.000401819
0.000598569
0.000938158
0.000653755
0.00246926
0.00882252
0.00632844
0.00489698
0.00454022
0.00463334
0.00471015
0.00468452
0.0045541
0.00432245
0.00399485
0.00358062
0.00309542
0.002573
0.00204977
0.00155111
0.00108578
0.000756737
0.00164858
0.00228401
0.0028853
0.00325194
0.00336217
0.00299486
0.000816703
0.000736073
0.000670504
0.000613758
0.000561913
0.000512134
0.000461968
0.000408901
0.00034588
0.000423025
0.000569996
0.00116078
0.000759963
0.00242491
0.00748035
0.00529555
0.00428242
0.00450782
0.00473481
0.00480788
0.00479317
0.00468587
0.0044867
0.0042027
0.00384227
0.00340713
0.002965
0.00253369
0.00217125
0.00195606
0.00238285
0.00312746
0.00376754
0.00413296
0.00426603
0.00424646
0.00405335
0.00330876
0.00284959
0.00246953
0.00212099
0.00178594
0.00145431
0.00112846
0.000839173
0.00061413
0.000768501
0.000773135
0.00115392
0.00107522
0.000802608
0.000899657
0.00124708
0.0023381
0.00597846
0.00428887
0.00415825
0.00480486
0.00500117
0.00500832
0.00496487
0.00487082
0.00472307
0.00452644
0.00429101
0.00403132
0.0037807
0.00355023
0.00348758
0.00368345
0.00438785
0.00482954
0.00503918
0.005069
0.00498219
0.00484333
0.00464134
0.0042336
0.00377072
0.00329462
0.0028158
0.00233982
0.00186916
0.00146304
0.00124735
0.00128123
0.00158289
0.00168888
0.00170582
0.00135775
0.00135637
0.00198246
0.00169225
0.00221173
0.00474239
0.00368786
0.00420774
0.0049767
0.00520431
0.00519615
0.0051464
0.00507468
0.00498262
0.00487838
0.00477647
0.0046947
0.00465878
0.00469261
0.0048464
0.00515443
0.00551164
0.0056132
0.0055443
0.00536914
0.00514576
0.00489971
0.00458898
0.00422058
0.00381322
0.00338187
0.00294621
0.00253349
0.0021847
0.00197069
0.00197449
0.0022148
0.00257589
0.00271585
0.00249566
0.00181221
0.00215067
0.00380352
0.00226706
0.00204007
0.00357079
0.00328145
0.00452551
0.00499942
0.00515953
0.00514191
0.00511714
0.00509321
0.00506544
0.00503963
0.00502998
0.00504439
0.00510345
0.00521487
0.00537492
0.00555332
0.00565748
0.00561894
0.00545157
0.00519758
0.00489619
0.00455254
0.00420672
0.00388155
0.00356937
0.00327302
0.00301129
0.00281435
0.00272072
0.00277378
0.00300385
0.00338586
0.00378273
0.00398385
0.00390597
0.00315792
0.00319188
0.00660386
0.00306475
0.00175444
0.00174748
0.00264268
0.00565774
0.00587342
0.00577926
0.00575953
0.00579958
0.00584082
0.00586027
0.00585585
0.00584353
0.00582828
0.00582488
0.00584522
0.00588914
0.00593619
0.00594577
0.00588469
0.00574466
0.00554234
0.00530125
0.00501768
0.0047375
0.00448688
0.00427054
0.00409618
0.00397904
0.00394022
0.00400348
0.00418928
0.00450085
0.0048983
0.00527367
0.00549073
0.00553459
0.00507744
0.00478092
0.00823528
0.00337304
0.00148963
0.00636321
0.00730023
0.00736956
0.00747033
0.00755433
0.00758638
0.00756494
0.00748728
0.00737858
0.00726511
0.00716741
0.00710236
0.00708053
0.00709504
0.00711561
0.00711419
0.00707572
0.00699058
0.00685404
0.00666112
0.00646247
0.00628249
0.00613011
0.00601477
0.00594981
0.00595192
0.00603839
0.00622059
0.00649146
0.00680778
0.00707485
0.00717895
0.00721805
0.00716167
0.00694579
0.00836002
0.0027973
0.00271478
0.00857777
0.00924
0.00923838
0.00928414
0.009323
0.00928989
0.00921483
0.00910977
0.00897883
0.00883694
0.00870094
0.00859032
0.008532
0.00855515
0.00862151
0.00868307
0.00871646
0.00869513
0.00858117
0.00842221
0.00826593
0.00812594
0.00800711
0.00791574
0.00786146
0.00785706
0.00791696
0.00805279
0.00826287
0.00851342
0.00871495
0.00873023
0.00867341
0.00849954
0.00796961
0.00665312
0.0023196
0.00129589
0.00107433
0.00164357
0.00221739
0.00231978
0.00230081
0.00227032
0.0022503
0.00223683
0.00222212
0.00220391
0.00218203
0.00215724
0.0021309
0.00210556
0.00208547
0.00207889
0.00208001
0.00208144
0.00207985
0.00207324
0.00206544
0.00205716
0.00204877
0.00204114
0.00203483
0.00203042
0.00202867
0.00203046
0.00203663
0.00204749
0.00206169
0.00207454
0.00207868
0.00208017
0.00207947
0.00208837
0.00213702
0.00215117
0.00192552
)
;

boundaryField
{
    floor
    {
        type            nutkWallFunction;
        Cmu             0.09;
        kappa           0.41;
        E               9.8;
        value           nonuniform List<scalar> 
29
(
0.000106327
8.11788e-05
0.000104636
9.72212e-05
8.93304e-05
8.22854e-05
7.57921e-05
6.98111e-05
6.45539e-05
5.99327e-05
5.58504e-05
5.22175e-05
4.89752e-05
4.60393e-05
4.33039e-05
4.06516e-05
3.79342e-05
3.56669e-05
3.63168e-05
5.41696e-05
5.41696e-05
6.79237e-05
7.90386e-05
9.20528e-05
0.000106327
8.11788e-05
0.000106822
0.000103137
9.16557e-05
)
;
    }
    ceiling
    {
        type            nutkWallFunction;
        Cmu             0.09;
        kappa           0.41;
        E               9.8;
        value           nonuniform List<scalar> 
43
(
0.000155169
0.00012952
0.000194405
0.000257268
0.000268247
0.000266174
0.00026287
0.000260695
0.000259229
0.000257629
0.000255652
0.000253277
0.000250587
0.000247726
0.000244971
0.000242785
0.000242068
0.000242189
0.000242344
0.00024217
0.000241452
0.000240603
0.000239703
0.00023879
0.000237961
0.000237273
0.000236793
0.000236602
0.000236797
0.000237469
0.00023865
0.000240192
0.000241588
0.000242037
0.000242198
0.000242122
0.000243088
0.00024836
0.000249891
0.000225341
0.00020645
0.000205671
0.000310182
)
;
    }
    sWall
    {
        type            nutkWallFunction;
        Cmu             0.09;
        kappa           0.41;
        E               9.8;
        value           uniform 0.000155158;
    }
    nWall
    {
        type            nutkWallFunction;
        Cmu             0.09;
        kappa           0.41;
        E               9.8;
        value           nonuniform List<scalar> 6(0.000149431 0.000199631 0.000262388 0.000318782 0.000268033 0.000225338);
    }
    sideWalls
    {
        type            empty;
    }
    glass1
    {
        type            nutkWallFunction;
        Cmu             0.09;
        kappa           0.41;
        E               9.8;
        value           nonuniform List<scalar> 9(0.000232412 0.000270731 0.000285248 0.000283806 0.000279077 0.000269795 0.000256217 0.000237643 0.000206361);
    }
    glass2
    {
        type            nutkWallFunction;
        Cmu             0.09;
        kappa           0.41;
        E               9.8;
        value           nonuniform List<scalar> 2(0.000346614 0.000378583);
    }
    sun
    {
        type            nutkWallFunction;
        Cmu             0.09;
        kappa           0.41;
        E               9.8;
        value           nonuniform List<scalar> 
14
(
0.00023253
0.000259904
0.000254979
0.000239676
0.000222802
0.000207327
0.000193787
0.000181604
0.000170412
0.000159926
0.000149882
0.000139982
0.000129814
0.000118598
)
;
    }
    heatsource1
    {
        type            nutkWallFunction;
        Cmu             0.09;
        kappa           0.41;
        E               9.8;
        value           nonuniform List<scalar> 3(9.72151e-05 0.000108855 0.000149445);
    }
    heatsource2
    {
        type            nutkWallFunction;
        Cmu             0.09;
        kappa           0.41;
        E               9.8;
        value           nonuniform List<scalar> 4(0.000101788 8.72524e-05 8.72524e-05 8.8002e-05);
    }
    Table_master
    {
        type            nutkWallFunction;
        Cmu             0.09;
        kappa           0.41;
        E               9.8;
        value           nonuniform List<scalar> 9(8.96581e-05 7.72957e-05 6.76048e-05 5.98922e-05 5.36855e-05 4.86962e-05 4.47705e-05 4.17928e-05 3.97858e-05);
    }
    Table_slave
    {
        type            nutkWallFunction;
        Cmu             0.09;
        kappa           0.41;
        E               9.8;
        value           nonuniform List<scalar> 9(9.89112e-05 8.91382e-05 8.10968e-05 7.40607e-05 6.7563e-05 6.12545e-05 5.48192e-05 4.79152e-05 3.95652e-05);
    }
    inlet
    {
        type            calculated;
        value           uniform 6.7082e-05;
    }
    outlet
    {
        type            calculated;
        value           nonuniform List<scalar> 2(0.00129589 0.00107433);
    }
}


// ************************************************************************* //
