// -*- C++ -*-
// File generated by PyFoam - sorry for the ugliness

FoamFile
{
 version 2.0;
 format ascii;
 class volVectorField;
 location "1900";
 object U;
}

dimensions [ 0 1 -1 0 0 0 0 ];

internalField nonuniform List<vector> 459
(
  (0.0211392 0.0875256 0)
  (-0.170689 0.0288414 0)
  (-0.20119 0.0188343 0)
  (-0.23335 0.0117124 0)
  (-0.255039 0.00429931 0)
  (-0.265186 -0.00338243 0)
  (-0.262006 -0.01138 0)
  (-0.245433 -0.0195658 0)
  (-0.216908 -0.026781 0)
  (-0.179528 -0.0317597 0)
  (-0.137584 -0.0338094 0)
  (-0.0955175 -0.0326885 0)
  (-0.0574289 -0.028431 0)
  (-0.0276342 -0.0214131 0)
  (-0.0162484 -0.0136599 0)
  (-0.018024 0.00972526 0)
  (-0.0278385 -0.0153311 0)
  (-0.00555274 -0.0276143 0)
  (0.0192708 -0.0228123 0)
  (0.0377918 -0.0162949 0)
  (0.0531158 -0.0109207 0)
  (0.0630198 -0.00663009 0)
  (0.0684278 -0.0043359 0)
  (0.0711052 -0.00336194 0)
  (0.0726185 -0.00288331 0)
  (0.0736648 -0.00254993 0)
  (0.0743605 -0.00226221 0)
  (0.0746237 -0.00193138 0)
  (0.0741899 -0.00133369 0)
  (0.0723653 -2.75483e-05 0)
  (0.0676875 0.00264372 0)
  (0.0584291 0.00604159 0)
  (0.0447932 0.0102515 0)
  (0.00703153 0.0222041 0)
  (0.186665 0.177928 0)
  (-0.15375 0.0743792 0)
  (-0.158826 0.0560221 0)
  (-0.19092 0.0413783 0)
  (-0.211924 0.0252839 0)
  (-0.222047 0.00751543 0)
  (-0.219237 -0.0120112 0)
  (-0.203607 -0.0316663 0)
  (-0.177292 -0.0481765 0)
  (-0.143843 -0.0588475 0)
  (-0.107344 -0.0627652 0)
  (-0.0715523 -0.0600636 0)
  (-0.0397102 -0.0513518 0)
  (-0.0141374 -0.0373123 0)
  (0.00187617 -0.0214134 0)
  (0.0134092 -0.00491513 0)
  (0.00514737 0.0207733 0)
  (0.0253239 0.0383088 0)
  (0.0276061 -0.0236429 0)
  (0.0379233 -0.0361337 0)
  (0.0503499 -0.032565 0)
  (0.0612166 -0.0240606 0)
  (0.0694046 -0.0154562 0)
  (0.0730461 -0.00702858 0)
  (0.0739214 -0.00221168 0)
  (0.0740083 -0.00020845 0)
  (0.0742208 0.000688012 0)
  (0.0745099 0.00124101 0)
  (0.0747146 0.00170449 0)
  (0.0748077 0.00233505 0)
  (0.0746904 0.00352396 0)
  (0.0737805 0.00633477 0)
  (0.0694084 0.0137526 0)
  (0.0585748 0.0211588 0)
  (0.0448797 0.0285462 0)
  (-0.016306 0.0471584 0)
  (0.339921 0.265001 0)
  (-0.16399 0.115595 0)
  (-0.116904 0.0888238 0)
  (-0.146579 0.0638931 0)
  (-0.164609 0.0376632 0)
  (-0.173131 0.00890365 0)
  (-0.168571 -0.0225147 0)
  (-0.151741 -0.0533908 0)
  (-0.12613 -0.0780131 0)
  (-0.096088 -0.0924892 0)
  (-0.0651095 -0.0964424 0)
  (-0.0357953 -0.0907371 0)
  (-0.0105438 -0.0769907 0)
  (0.0108476 -0.0554195 0)
  (0.0246968 -0.0313871 0)
  (0.0331209 -0.00430747 0)
  (0.0326967 0.0373923 0)
  (0.0951398 -0.027144 0)
  (0.0789531 -0.0433698 0)
  (0.078188 -0.0457571 0)
  (0.0808705 -0.0398827 0)
  (0.0831125 -0.0304331 0)
  (0.084939 -0.0218309 0)
  (0.082674 -0.0171998 0)
  (0.076463 -0.0117709 0)
  (0.0719281 -0.00875921 0)
  (0.0696858 -0.00700553 0)
  (0.0685268 -0.00587314 0)
  (0.0677912 -0.0050857 0)
  (0.0674691 -0.00439824 0)
  (0.068167 -0.00329622 0)
  (0.0713607 0.000415036 0)
  (0.0696862 0.0191179 0)
  (0.0568766 0.034031 0)
  (0.0466007 0.0475984 0)
  (-0.0370207 0.0747634 0)
  (0.480036 0.334234 0)
  (-0.193328 0.150285 0)
  (-0.0742927 0.115742 0)
  (-0.100585 0.0823324 0)
  (-0.112568 0.0482688 0)
  (-0.116168 0.00966492 0)
  (-0.105125 -0.033914 0)
  (-0.0850751 -0.0754417 0)
  (-0.0604715 -0.10618 0)
  (-0.0357147 -0.122194 0)
  (-0.0124436 -0.124931 0)
  (0.00877817 -0.115572 0)
  (0.0258279 -0.0975305 0)
  (0.0405493 -0.0731424 0)
  (0.0537137 -0.0451326 0)
  (0.0692239 -0.0150024 0)
  (0.0910001 0.0201364 0)
  (0.127049 0.0140542 0)
  (0.131019 -0.0248869 0)
  (0.116288 -0.0388294 0)
  (0.104477 -0.0400612 0)
  (0.0965231 -0.0353873 0)
  (0.0906263 -0.0275278 0)
  (0.0864513 -0.017604 0)
  (0.0865196 -0.009789 0)
  (0.0899984 -0.00645074 0)
  (0.091915 -0.00453973 0)
  (0.091546 -0.00321569 0)
  (0.0897421 -0.0020331 0)
  (0.0866648 -0.000757575 0)
  (0.0817968 0.000849434 0)
  (0.0740841 0.00317005 0)
  (0.060269 0.00682774 0)
  (0.0511152 0.0288989 0)
  (0.0437627 0.0482706 0)
  (0.0463932 0.066791 0)
  (-0.055398 0.101231 0)
  (0.602318 0.386954 0)
  (-0.232477 0.177125 0)
  (-0.0336756 0.130198 0)
  (-0.0541028 0.0920701 0)
  (-0.0573696 0.0531512 0)
  (-0.0503769 0.00603595 0)
  (-0.0260229 -0.0501781 0)
  (-0.00308241 -0.0982603 0)
  (0.017577 -0.129893 0)
  (0.0333764 -0.142931 0)
  (0.0458256 -0.142169 0)
  (0.0551274 -0.130169 0)
  (0.0621081 -0.109962 0)
  (0.0681202 -0.0845478 0)
  (0.0745918 -0.057012 0)
  (0.0838284 -0.0307823 0)
  (0.0987315 -0.0131177 0)
  (0.110881 -0.0183198 0)
  (0.111253 -0.0292155 0)
  (0.102801 -0.0327188 0)
  (0.0920448 -0.0310543 0)
  (0.0824816 -0.0267257 0)
  (0.0746675 -0.0206558 0)
  (0.0690362 -0.0133079 0)
  (0.0664262 -0.00529004 0)
  (0.0662838 -0.00080108 0)
  (0.0660299 0.0013375 0)
  (0.0652941 0.00271141 0)
  (0.0642722 0.00418374 0)
  (0.0628186 0.00619813 0)
  (0.060518 0.00914297 0)
  (0.0569058 0.0135373 0)
  (0.0509759 0.0203235 0)
  (0.0452117 0.0360201 0)
  (0.0400651 0.0563955 0)
  (0.0543138 0.079942 0)
  (0.00523818 0.113686 0)
  (0.0445433 0.046407 0)
  (-0.0586182 -0.0349512 0)
  (-0.253805 -0.0551375 0)
  (0.692382 0.430021 0)
  (-0.271993 0.193689 0)
  (-0.0029533 0.123966 0)
  (-0.00614828 0.0895715 0)
  (0.00483537 0.0456706 0)
  (0.0379105 -0.0147315 0)
  (0.067272 -0.0737892 0)
  (0.0876837 -0.116989 0)
  (0.0993974 -0.142393 0)
  (0.103913 -0.151373 0)
  (0.103264 -0.146966 0)
  (0.0990907 -0.132299 0)
  (0.0931976 -0.110763 0)
  (0.0874123 -0.085581 0)
  (0.0832816 -0.0597433 0)
  (0.0821822 -0.036606 0)
  (0.0846445 -0.0206234 0)
  (0.0861307 -0.0172195 0)
  (0.0821742 -0.0199058 0)
  (0.0734665 -0.0217181 0)
  (0.0632405 -0.0207684 0)
  (0.0539082 -0.0178036 0)
  (0.0462932 -0.0135475 0)
  (0.0408692 -0.00846584 0)
  (0.0379706 -0.00344467 0)
  (0.0371937 -0.000581328 0)
  (0.0373931 0.000791436 0)
  (0.0379943 0.00186783 0)
  (0.0388047 0.00340907 0)
  (0.0396029 0.00587287 0)
  (0.0402046 0.00965235 0)
  (0.0405198 0.0152538 0)
  (0.0403153 0.0234225 0)
  (0.0409122 0.036881 0)
  (0.0423011 0.0557761 0)
  (0.0611717 0.0800087 0)
  (0.0532599 0.104102 0)
  (0.0850355 0.0742974 0)
  (0.107793 0.045849 0)
  (-0.125409 -0.00840001 0)
  (0.750791 0.469036 0)
  (-0.29111 0.176409 0)
  (0.0281688 0.0675023 0)
  (0.0602321 0.0517485 0)
  (0.0954469 0.0112247 0)
  (0.141233 -0.0498566 0)
  (0.169459 -0.098715 0)
  (0.181879 -0.130217 0)
  (0.180817 -0.145367 0)
  (0.169671 -0.146615 0)
  (0.152102 -0.136991 0)
  (0.131337 -0.119603 0)
  (0.110149 -0.0976464 0)
  (0.0908278 -0.0739478 0)
  (0.0748452 -0.0508038 0)
  (0.0631306 -0.0310597 0)
  (0.0555884 -0.017555 0)
  (0.0497828 -0.0122278 0)
  (0.04285 -0.011933 0)
  (0.0344003 -0.012452 0)
  (0.0256847 -0.0118092 0)
  (0.0179603 -0.0100321 0)
  (0.0118732 -0.00753325 0)
  (0.00782008 -0.00467456 0)
  (0.00598414 -0.00210435 0)
  (0.00598119 -0.000752371 0)
  (0.00708126 -0.000227411 0)
  (0.00895919 0.000322776 0)
  (0.0115017 0.00161749 0)
  (0.014308 0.00402445 0)
  (0.0174884 0.00774508 0)
  (0.0211671 0.0131771 0)
  (0.0255452 0.0208969 0)
  (0.0317638 0.0321329 0)
  (0.0396636 0.04708 0)
  (0.0598535 0.0665005 0)
  (0.0750509 0.080234 0)
  (0.104375 0.0600053 0)
  (0.144063 0.0455802 0)
  (-0.046555 0.0864885 0)
  (0.85549 0.466126 0)
  (-0.0508009 0.152338 0)
  (0.117875 -0.0237658 0)
  (0.208614 -0.0667925 0)
  (0.25766 -0.0876371 0)
  (0.28166 -0.108149 0)
  (0.287428 -0.124274 0)
  (0.275994 -0.13217 0)
  (0.25041 -0.131308 0)
  (0.21558 -0.122818 0)
  (0.176423 -0.108345 0)
  (0.13702 -0.0898243 0)
  (0.100461 -0.0695673 0)
  (0.0689306 -0.0495481 0)
  (0.0433073 -0.0310347 0)
  (0.0246586 -0.0164651 0)
  (0.0122766 -0.00747868 0)
  (0.00411256 -0.00410507 0)
  (-0.0027494 -0.0040647 0)
  (-0.00926267 -0.00474261 0)
  (-0.0153358 -0.00489077 0)
  (-0.0204494 -0.00445955 0)
  (-0.0242534 -0.00367672 0)
  (-0.0265516 -0.00278946 0)
  (-0.0273566 -0.00214659 0)
  (-0.0270287 -0.00206826 0)
  (-0.0260499 -0.00237801 0)
  (-0.0246196 -0.00264314 0)
  (-0.0226208 -0.00236873 0)
  (-0.0193795 -0.00108618 0)
  (-0.0150316 0.00134897 0)
  (-0.0102419 0.00483485 0)
  (-0.00408315 0.00943906 0)
  (0.00540747 0.0159794 0)
  (0.0165396 0.0231363 0)
  (0.0362415 0.0316412 0)
  (0.0580549 0.0299654 0)
  (0.0810975 0.00412425 0)
  (0.142981 0.0370139 0)
  (-0.377174 0.184782 0)
  (1.00203 0.419533 0)
  (0.4761 0.277836 0)
  (0.494528 0.17342 0)
  (0.526979 0.0891986 0)
  (0.502485 0.0261612 0)
  (0.45226 -0.0224625 0)
  (0.395483 -0.0549223 0)
  (0.334304 -0.0714043 0)
  (0.269947 -0.074813 0)
  (0.206112 -0.0692401 0)
  (0.14619 -0.058079 0)
  (0.0930497 -0.0439353 0)
  (0.048504 -0.0293346 0)
  (0.0130178 -0.0160563 0)
  (-0.014802 -0.00494739 0)
  (-0.0304841 0.000598112 0)
  (-0.0396426 0.00267872 0)
  (-0.0449351 0.00252025 0)
  (-0.0487499 0.00127642 0)
  (-0.0521926 -0.00012738 0)
  (-0.0554135 -0.0012646 0)
  (-0.0582261 -0.00213774 0)
  (-0.0604586 -0.00284912 0)
  (-0.0619964 -0.0034985 0)
  (-0.0629668 -0.00416401 0)
  (-0.063723 -0.00487894 0)
  (-0.0647153 -0.00547867 0)
  (-0.0663346 -0.0056301 0)
  (-0.0689641 -0.0048569 0)
  (-0.0728816 -0.0026644 0)
  (-0.0777999 0.00111444 0)
  (-0.0838971 0.00669323 0)
  (-0.0926878 0.0145682 0)
  (-0.105424 0.0255397 0)
  (-0.124695 0.0399726 0)
  (-0.152751 0.0572264 0)
  (-0.193571 0.0741228 0)
  (-0.245279 0.0880658 0)
  (-0.313973 0.0983803 0)
  (-0.566028 0.10209 0)
  (-0.115644 -0.0208999 0)
  (0.103882 -0.0444501 0)
  (0.179449 -0.0691847 0)
  (0.166264 -0.0635922 0)
  (0.143718 -0.0501008 0)
  (0.114587 -0.0368314 0)
  (0.0795877 -0.0247047 0)
  (0.042604 -0.0135647 0)
  (0.00345147 -0.00343561 0)
  (-0.0302345 0.00411964 0)
  (-0.0536648 0.00880154 0)
  (-0.0696314 0.0118607 0)
  (-0.0788139 0.0132021 0)
  (-0.0837238 0.0132775 0)
  (-0.086652 0.0131252 0)
  (-0.0886281 0.0129388 0)
  (-0.0904066 0.0129211 0)
  (-0.092254 0.0132434 0)
  (-0.0941219 0.0139308 0)
  (-0.0958945 0.0148911 0)
  (-0.0975246 0.0160322 0)
  (-0.0990807 0.0172932 0)
  (-0.100649 0.018554 0)
  (-0.102383 0.0196647 0)
  (-0.104448 0.0205043 0)
  (-0.106927 0.0210118 0)
  (-0.109718 0.0212371 0)
  (-0.112593 0.0215253 0)
  (-0.115594 0.0227509 0)
  (-0.118586 0.025938 0)
  (-0.121426 0.0322441 0)
  (-0.123872 0.0427473 0)
  (-0.12588 0.0576929 0)
  (-0.127322 0.0749958 0)
  (-0.126016 0.0867333 0)
  (-0.110382 0.0736401 0)
  (-0.0779099 -0.00161242 0)
  (-0.23997 -0.17976 0)
  (0.0805535 0.169122 0)
  (0.0376057 0.0402255 0)
  (0.00544448 -0.0155434 0)
  (-0.0276378 -0.0182387 0)
  (-0.0544635 -0.0110224 0)
  (-0.0770745 -0.00685292 0)
  (-0.0956031 -0.00390336 0)
  (-0.108824 -0.00200402 0)
  (-0.115776 -0.00238692 0)
  (-0.120083 -0.00539697 0)
  (-0.121918 -0.0100938 0)
  (-0.122042 -0.0152142 0)
  (-0.121004 -0.0206646 0)
  (-0.119628 -0.0264795 0)
  (-0.11842 -0.0322993 0)
  (-0.117579 -0.0380563 0)
  (-0.117206 -0.0436792 0)
  (-0.11729 -0.049053 0)
  (-0.117778 -0.0540801 0)
  (-0.118638 -0.0587015 0)
  (-0.119852 -0.0628502 0)
  (-0.121379 -0.0664088 0)
  (-0.123137 -0.0691651 0)
  (-0.125011 -0.0707681 0)
  (-0.126829 -0.0707446 0)
  (-0.128367 -0.0685855 0)
  (-0.129354 -0.0638586 0)
  (-0.129443 -0.0563119 0)
  (-0.12813 -0.045905 0)
  (-0.124647 -0.0327131 0)
  (-0.117911 -0.0166634 0)
  (-0.106623 0.00244566 0)
  (-0.0896988 0.0241479 0)
  (-0.0671092 0.0454091 0)
  (-0.0410327 0.0587575 0)
  (-0.00267582 0.043614 0)
  (0.138228 -0.0277039 0)
  (-0.176752 -0.0944689 0)
  (0.00758491 -0.29504 0)
  (-0.389353 -0.121538 0)
  (-0.284757 0.0526838 0)
  (-0.265797 0.00331598 0)
  (-0.234876 0.0106081 0)
  (-0.231547 0.0235905 0)
  (-0.229612 0.0333404 0)
  (-0.225693 0.0421069 0)
  (-0.219107 0.0511887 0)
  (-0.209898 0.0607755 0)
  (-0.19872 0.0705502 0)
  (-0.187024 0.0803131 0)
  (-0.175905 0.0900454 0)
  (-0.165971 0.0997153 0)
  (-0.157418 0.109203 0)
  (-0.150284 0.118444 0)
  (-0.144441 0.127353 0)
  (-0.139716 0.13585 0)
  (-0.135951 0.143869 0)
  (-0.132978 0.151369 0)
  (-0.130623 0.158361 0)
  (-0.128714 0.164892 0)
  (-0.127092 0.17096 0)
  (-0.12562 0.176442 0)
  (-0.124193 0.181045 0)
  (-0.122726 0.184308 0)
  (-0.121129 0.185683 0)
  (-0.119261 0.184694 0)
  (-0.116886 0.181121 0)
  (-0.113596 0.175138 0)
  (-0.108669 0.167343 0)
  (-0.100856 0.158729 0)
  (-0.088313 0.150564 0)
  (-0.0692126 0.144394 0)
  (-0.0431645 0.141783 0)
  (-0.00958598 0.142737 0)
  (0.0321757 0.143345 0)
  (0.0655652 0.139196 0)
  (0.153931 0.128321 0)
  (-0.297197 0.105079 0)
)
;

boundaryField
{
  floor
  {
    type noSlip;
  }
  ceiling
  {
    type noSlip;
  }
  sWall
  {
    type noSlip;
  }
  nWall
  {
    type noSlip;
  }
  sideWalls
  {
    type empty;
  }
  glass1
  {
    type noSlip;
  }
  glass2
  {
    type noSlip;
  }
  sun
  {
    type noSlip;
  }
  heatsource1
  {
    type noSlip;
  }
  heatsource2
  {
    type noSlip;
  }
  Table_master
  {
    type noSlip;
  }
  Table_slave
  {
    type noSlip;
  }
  inlet
  {
    type fixedValue;
    value uniform (0.277164 -0.114805 0);
  }
  outlet
  {
    type zeroGradient;
  }
} 	// ************************************************************************* //

