/*--------------------------------*- C++ -*----------------------------------*\
  =========                 |
  \\      /  F ield         | OpenFOAM: The Open Source CFD Toolbox
   \\    /   O peration     | Website:  https://openfoam.org
    \\  /    A nd           | Version:  6
     \\/     M anipulation  |
\*---------------------------------------------------------------------------*/
FoamFile
{
    version     2.0;
    format      ascii;
    class       surfaceScalarField;
    location    "600";
    object      phi;
}
// * * * * * * * * * * * * * * * * * * * * * * * * * * * * * * * * * * * * * //

dimensions      [1 0 -1 0 0 0 0];

internalField   nonuniform List<scalar> 
852
(
-0.00289715
0.00295404
-0.00386769
0.000970547
-0.00463475
0.000767063
-0.00525993
0.00062518
-0.00571547
0.00045555
-0.00598183
0.000266362
-0.00603667
5.48496e-05
-0.00585537
-0.000181296
-0.00542579
-0.000429575
-0.00476982
-0.000655966
-0.00394424
-0.000825569
-0.00302606
-0.000918174
-0.0020843
-0.000941762
-0.00112204
-0.000962245
-0.00112061
-0.000596031
0.000598844
-0.000187493
-0.00040853
0.000426201
-0.000613685
0.00085863
-0.000432421
0.00112518
-0.000266546
0.00127875
-0.000153557
0.00135682
-7.80564e-05
0.00139511
-3.82882e-05
0.00141573
-2.06031e-05
0.00142672
-1.09898e-05
0.00143098
-4.24462e-06
0.00142923
1.76174e-06
0.00141919
1.00421e-05
0.0013923
2.69034e-05
0.00132637
6.59373e-05
0.00118474
0.000141641
0.0009554
0.000229354
0.000685953
0.000269458
0.00068977
-0.00206553
0.00517252
-0.00302855
0.00193358
-0.00382183
0.00156035
-0.00443458
0.00123794
-0.00487781
0.000898783
-0.00514402
0.000532583
-0.00521024
0.000121067
-0.00504994
-0.000341589
-0.00465715
-0.000822361
-0.00406538
-0.00124773
-0.00334057
-0.00155037
-0.00256163
-0.00169711
-0.00180871
-0.00169468
-0.00119429
-0.00157666
-0.00100578
-0.00130911
-0.00027401
-0.000731819
-0.000274054
0.000547068
5.96235e-05
0.000937658
-0.000799113
0.00114162
-0.000817636
0.00132216
-0.000612959
0.00144912
-0.000393498
0.00151323
-0.00021765
0.00151871
-8.35339e-05
0.00152045
-4.00196e-05
0.00152286
-2.30063e-05
0.00152492
-1.3035e-05
0.00152624
-5.56028e-06
0.00152658
1.43873e-06
0.00152493
1.17029e-05
0.00151766
3.41844e-05
0.00147601
0.000107592
0.00130101
0.000316648
0.000998818
0.000531561
0.000620726
0.000647561
0.00132016
-0.00145037
0.00685637
-0.0022919
0.00277511
-0.00299369
0.00226214
-0.00351298
0.00175723
-0.00389631
0.00128212
-0.00413652
0.000772803
-0.00419863
0.000183181
-0.00403842
-0.000501797
-0.00365389
-0.00120688
-0.00309768
-0.00180394
-0.00244526
-0.00220278
-0.0017715
-0.00237086
-0.00114502
-0.00232115
-0.000635604
-0.00208607
-0.000282878
-0.00166183
4.49526e-05
-0.00105964
-0.000229096
0.00141571
-0.00134801
0.00162871
-0.0010121
0.00161814
-0.00080706
0.00162663
-0.000621439
0.00164874
-0.000415605
0.00163473
-0.000203631
0.00155136
0.0015115
0.00148866
0.00147578
0.00147039
0.00147199
0.00148385
0.0015182
0.00162596
0.00134554
0.000597072
0.00100089
0.000876226
0.000556808
0.00109165
0.00189162
-0.00102116
0.00817916
-0.00170295
0.00345691
-0.00216357
0.00272276
-0.00250304
0.00209671
-0.00276305
0.00154213
-0.00293064
0.0009404
-0.00294956
0.000202104
-0.0027519
-0.000699447
-0.00235825
-0.00160053
-0.00184922
-0.00231297
-0.00130205
-0.00274995
-0.000774923
-0.00289799
-0.000306285
-0.00278979
8.87396e-05
-0.00248109
0.000435046
-0.00200813
0.000820352
-0.00144494
0.00149672
-0.000905456
0.00221539
-0.000711073
0.00177628
-0.000908892
0.00168347
-0.000919284
0.00161992
-0.000743503
0.00157006
-0.00057158
0.00156163
-0.000407164
0.00160213
-0.000244125
0.00171447
-0.000112484
0.00180195
-8.76216e-05
0.00187949
-7.76845e-05
0.00194307
-6.37143e-05
0.0019768
-3.38806e-05
0.00195775
1.8909e-05
0.00186081
9.68008e-05
0.00165466
0.000206005
0.00128678
0.000367742
0.00115261
0.000731254
0.000855944
0.0011729
0.000394275
0.00155334
0.00230507
-0.000722541
0.00926087
-0.00125612
0.00399049
-0.0013525
0.00281915
-0.00143218
0.0021764
-0.00150453
0.00161449
-0.00154238
0.000978256
-0.00144129
0.000101023
-0.00115012
-0.00099062
-0.000754009
-0.00199664
-0.000339194
-0.00272779
4.01864e-05
-0.00312933
0.000355235
-0.00321303
0.000599892
-0.00303444
0.00078937
-0.00267057
0.00096508
-0.00218384
0.00117174
-0.0016516
0.00144274
-0.00117645
0.00163054
-0.000898872
0.00154983
-0.000828169
0.00139928
-0.000768727
0.0012896
-0.00063382
0.00121237
-0.000494338
0.00117622
-0.00037101
0.00119266
-0.000260555
0.00126593
-0.00018574
0.00134044
-0.000162122
0.00141787
-0.000155101
0.00149265
-0.000138483
0.00155263
-9.3849e-05
0.00157704
-5.49691e-06
0.00154504
0.000128813
0.00144658
0.000304476
0.00128388
0.000530455
0.00113958
0.000875566
0.000981965
0.00133053
0.000636907
0.0018984
0.000519381
0.00242261
-0.0010079
0.00152709
-0.00146683
0.000458733
-0.00141908
-0.000636287
0.0103047
-0.00102004
0.00437425
-0.000617953
0.00241708
-0.000318849
0.0018773
-0.000126242
0.00142189
6.55361e-05
0.000786486
0.000379589
-0.000213022
0.000767765
-0.00137879
0.00110669
-0.00233556
0.00134611
-0.00296721
0.00147645
-0.00325966
0.00151391
-0.0032505
0.00148586
-0.00300639
0.00141837
-0.00260307
0.00134707
-0.00211253
0.00130148
-0.001606
0.00128447
-0.00115943
0.00123754
-0.00085193
0.0011038
-0.000694429
0.000928721
-0.000593635
0.00078782
-0.000492911
0.000695747
-0.000402255
0.000654626
-0.000329879
0.000667366
-0.000273284
0.000722864
-0.000241228
0.000796707
-0.000235953
0.000880427
-0.00023881
0.000969928
-0.000227973
0.0010591
-0.000183008
0.0011361
-8.24841e-05
0.00118217
8.27553e-05
0.00119369
0.000292969
0.00118116
0.000542992
0.00119455
0.000862187
0.00128226
0.00124284
0.00145606
0.00172461
0.00188665
0.00199203
0.00213583
0.00127792
0.00174414
0.000850438
0.000382589
-0.000728416
0.011484
-0.000644891
0.00429073
0.000426065
0.00134613
0.00107687
0.00122651
0.00151491
0.000983854
0.00201179
0.00028962
0.00254132
-0.000742546
0.00291862
-0.00175608
0.0030926
-0.00250954
0.0030701
-0.00294472
0.00288566
-0.00307522
0.00258839
-0.00295322
0.00223013
-0.00264813
0.00185491
-0.00222785
0.0015011
-0.00175871
0.00119425
-0.00129915
0.000939577
-0.000904749
0.000719695
-0.00063204
0.000506898
-0.000481623
0.000316735
-0.000403462
0.000175578
-0.000351744
8.93463e-05
-0.000316013
5.31555e-05
-0.000293677
6.16964e-05
-0.000281814
0.000102988
-0.000282508
0.000161945
-0.000294898
0.000231428
-0.000308281
0.000312186
-0.000308719
0.000409221
-0.000280031
0.000527377
-0.000200628
0.000652733
-4.25885e-05
0.000774099
0.000171615
0.000903194
0.000413909
0.00108179
0.000683601
0.00135951
0.000965134
0.00179882
0.00128532
0.00246207
0.00132878
0.00299663
0.000743373
0.00302787
0.000819207
0.00347339
0.00251633
0.00947164
0.00316532
0.00364174
0.00343664
0.00107481
0.00381951
0.000843647
0.00427582
0.000527554
0.00484244
-0.000276993
0.00525842
-0.00115852
0.00534894
-0.0018466
0.00512455
-0.00228516
0.00465365
-0.00247382
0.00401935
-0.00244093
0.00330372
-0.0022376
0.00257702
-0.00192143
0.00188671
-0.00153753
0.00127058
-0.00114257
0.000751228
-0.000779798
0.000336007
-0.000489519
2.37968e-05
-0.00031982
-0.0002075
-0.000250316
-0.000373587
-0.000237364
-0.000486973
-0.000238347
-0.000558312
-0.000244662
-0.000596914
-0.000255063
-0.000609834
-0.000268882
-0.000605525
-0.000286805
-0.000592841
-0.00030757
-0.000575629
-0.00032548
-0.000551622
-0.000332714
-0.000511627
-0.000320014
-0.00043582
-0.000276423
-0.000292076
-0.00018632
-0.000102961
-1.7487e-05
0.000113264
0.000197696
0.000384691
0.000412186
0.000726023
0.000623814
0.0011814
0.000829952
0.00168422
0.000825977
0.00189748
0.000530119
0.00113083
0.00158587
0.00485784
0.0100237
0.0136572
0.012335
0.00239695
0.0113569
0.00182174
0.0106397
0.00124483
0.00993278
0.000429895
0.00901042
-0.000236179
0.00790273
-0.000738929
0.0066975
-0.00107995
0.00546098
-0.00123731
0.00425044
-0.00123039
0.00311688
-0.00110404
0.00210022
-0.000904761
0.00120793
-0.00064524
0.000456842
-0.000391472
-0.000128471
-0.000194476
-0.000529698
-8.82814e-05
-0.000779425
-7.00814e-05
-0.000943903
-8.58272e-05
-0.00106545
-0.000115808
-0.0011592
-0.000144585
-0.00123416
-0.000169687
-0.00129652
-0.000192689
-0.00135166
-0.000213732
-0.00140591
-0.000232539
-0.00146644
-0.000247029
-0.00153973
-0.000252177
-0.00163229
-0.000240145
-0.00175229
-0.000199995
-0.00191053
-0.000118169
-0.00211403
1.71866e-05
-0.00234626
0.000214754
-0.00263504
0.000486493
-0.00307156
0.000848715
-0.00374827
0.00130053
-0.00473163
0.00181333
-0.00613763
0.00223199
-0.00784452
0.00223702
-0.00737166
0.00111303
-0.00223292
0.00476379
0.00374716
0.00421235
0.00237311
0.00492385
0.000533251
0.00507491
0.000278754
0.00475626
8.24144e-05
0.00419867
-0.000181375
0.00348499
-0.000366283
0.00267138
-0.000423704
0.00182138
-0.000380376
0.00098903
-0.000271684
0.000206857
-0.000122578
-0.000468702
3.03328e-05
-0.000963819
0.000103658
-0.00127097
0.000112686
-0.00144573
8.64942e-05
-0.00155814
4.23341e-05
-0.00164549
1.5403e-06
-0.00172702
-3.4266e-05
-0.00180782
-6.37755e-05
-0.00189143
-8.60658e-05
-0.00197887
-0.000105231
-0.00207175
-0.000120839
-0.00217221
-0.000132075
-0.00228221
-0.000137012
-0.00240249
-0.000131885
-0.00253163
-0.000110994
-0.00266492
-6.66949e-05
-0.002794
1.0927e-05
-0.00290665
0.000129852
-0.0029988
0.000306911
-0.00308075
0.000568461
-0.00316029
0.000928263
-0.00323553
0.00137578
-0.00326263
0.00184044
-0.0031898
0.00215917
-0.00284554
0.00189278
-0.00157651
-0.000155999
-0.00373565
-0.000564038
0.00437026
0.000535499
0.00127352
0.000548515
0.000520204
0.000529993
0.000297262
0.000455287
0.000157124
0.000228595
4.53303e-05
-0.000146869
9.20985e-06
-0.000607444
3.68906e-05
-0.00106888
8.10714e-05
-0.00146787
0.000127325
-0.00175611
0.000165668
-0.00191207
0.000186312
-0.00198706
0.000178659
-0.00202508
0.000150721
-0.00205234
0.00011376
-0.00208605
7.60557e-05
-0.00212829
4.37935e-05
-0.00218258
2.00375e-05
-0.00224714
8.01327e-07
-0.00231942
-1.37717e-05
-0.00239902
-2.56245e-05
-0.00248455
-3.5294e-05
-0.00257403
-4.25801e-05
-0.00266445
-4.65791e-05
-0.00275092
-4.54048e-05
-0.00282588
-3.6017e-05
-0.00287818
-1.43847e-05
-0.00289412
2.68726e-05
-0.0028643
0.000100053
-0.00276763
0.000210251
-0.00257199
0.000372831
-0.00225063
0.000606917
-0.00178641
0.000911574
-0.0011549
0.00120894
-0.000182193
0.00118648
0.00114255
0.000568048
0.00158904
-0.000602474
-0.00206571
-0.00731883
-0.0101563
-0.00574324
-0.00444785
-0.00391362
-0.00360659
-0.00344282
-0.00339328
-0.00338176
-0.00334409
-0.0032635
-0.0031378
-0.00297481
-0.00279218
-0.00261811
-0.00247271
-0.00236481
-0.00229498
-0.00225765
-0.00224424
-0.00225017
-0.00227071
-0.00230312
-0.00234519
-0.00239449
-0.00244773
-0.00249969
-0.00254215
-0.00256282
-0.00254207
-0.00244795
-0.00224344
-0.00187615
-0.0012746
-0.000368221
0.000835639
0.00201698
0.00257971
0.00197161
)
;

boundaryField
{
    floor
    {
        type            calculated;
        value           nonuniform List<scalar> 
29
(
0
0
0
0
0
0
0
0
0
0
0
0
0
0
0
0
0
0
0
0
-3.80532e-06
-9.65323e-06
-1.46409e-05
-1.91611e-05
-1.42919e-06
-2.80508e-06
-7.83833e-06
-8.06109e-06
-7.59797e-06
)
;
    }
    ceiling
    {
        type            calculated;
        value           nonuniform List<scalar> 
43
(
-4.54302e-05
-4.41257e-05
-4.28138e-05
-2.18515e-05
-1.40045e-05
-9.7461e-06
-6.63197e-06
-4.19057e-06
-2.29329e-06
-7.74093e-07
4.97196e-07
1.6321e-06
2.69416e-06
3.69984e-06
4.60047e-06
5.33325e-06
5.86951e-06
6.2368e-06
6.48136e-06
6.64039e-06
6.73887e-06
6.7852e-06
6.79886e-06
6.78288e-06
6.73873e-06
6.6677e-06
6.57107e-06
6.44994e-06
6.30467e-06
6.1337e-06
5.94467e-06
5.75068e-06
5.5573e-06
5.37229e-06
5.21044e-06
5.09081e-06
5.14473e-06
5.33566e-06
5.64093e-06
6.75831e-06
1.14126e-05
8.26174e-06
-5.90973e-05
)
;
    }
    sWall
    {
        type            calculated;
        value           uniform -0.000274272;
    }
    nWall
    {
        type            calculated;
        value           nonuniform List<scalar> 6(-4.79388e-05 -5.75189e-05 -6.29167e-05 -7.37667e-05 -8.08896e-05 -0.000100853);
    }
    sideWalls
    {
        type            empty;
        value           nonuniform 0();
    }
    glass1
    {
        type            calculated;
        value           nonuniform List<scalar> 9(-5.6878e-05 -0.000152948 -0.000233482 -0.000301621 -0.000359168 -0.000407547 -0.000450907 -0.000503931 -0.00056345);
    }
    glass2
    {
        type            calculated;
        value           nonuniform List<scalar> 2(-0.000253606 -0.00028089);
    }
    sun
    {
        type            calculated;
        value           uniform 0;
    }
    heatsource1
    {
        type            calculated;
        value           nonuniform List<scalar> 3(2.04032e-07 2.03985e-07 2.03999e-07);
    }
    heatsource2
    {
        type            calculated;
        value           nonuniform List<scalar> 4(5.10484e-08 5.11898e-08 0 0);
    }
    Table_master
    {
        type            calculated;
        value           nonuniform List<scalar> 9(-1.53025e-07 -1.53087e-07 -1.5311e-07 -1.53127e-07 -1.53138e-07 -1.53146e-07 -1.53148e-07 -1.53142e-07 -1.53111e-07);
    }
    Table_slave
    {
        type            calculated;
        value           nonuniform List<scalar> 9(1.52913e-07 1.52926e-07 1.52904e-07 1.52886e-07 1.52878e-07 1.52883e-07 1.52897e-07 1.52939e-07 1.53019e-07);
    }
    inlet
    {
        type            calculated;
        value           uniform -0.00611403;
    }
    outlet
    {
        type            calculated;
        value           nonuniform List<scalar> 2(0.00763854 0.0028816);
    }
}


// ************************************************************************* //
