// -*- C++ -*-
// File generated by PyFoam - sorry for the ugliness

FoamFile
{
 version 2.0;
 format ascii;
 class volVectorField;
 location "600";
 object U;
}

dimensions [ 0 1 -1 0 0 0 0 ];

internalField nonuniform List<vector> 459
(
  (0.0381897 0.0839935 0)
  (-0.163107 0.0239968 0)
  (-0.185106 0.0176051 0)
  (-0.21544 0.012906 0)
  (-0.238791 0.00767441 0)
  (-0.254526 0.00216811 0)
  (-0.261543 -0.00372951 0)
  (-0.258283 -0.0101028 0)
  (-0.244373 -0.0169265 0)
  (-0.220275 -0.0234394 0)
  (-0.187772 -0.0287683 0)
  (-0.149451 -0.0324834 0)
  (-0.108196 -0.0351215 0)
  (-0.0696525 -0.0386571 0)
  (-0.0509832 -0.0445267 0)
  (0.0043161 0.00576588 0)
  (-0.0168653 -0.0189013 0)
  (0.00884816 -0.0256168 0)
  (0.0273433 -0.0180864 0)
  (0.0421792 -0.0116929 0)
  (0.0521346 -0.00727487 0)
  (0.0574208 -0.00445573 0)
  (0.0597811 -0.00301442 0)
  (0.0607861 -0.0023465 0)
  (0.0612988 -0.00199537 0)
  (0.0615761 -0.00176871 0)
  (0.0616299 -0.00158454 0)
  (0.0613981 -0.00134901 0)
  (0.0606675 -0.000896436 0)
  (0.0588724 0.000152816 0)
  (0.0548351 0.00232858 0)
  (0.0472745 0.00459363 0)
  (0.0404316 0.00611478 0)
  (-0.0142611 0.0197272 0)
  (0.214294 0.172181 0)
  (-0.154062 0.0631645 0)
  (-0.14882 0.0508522 0)
  (-0.18005 0.0411666 0)
  (-0.202793 0.0303374 0)
  (-0.218345 0.0184219 0)
  (-0.225724 0.00494827 0)
  (-0.223195 -0.010288 0)
  (-0.210482 -0.0262385 0)
  (-0.188506 -0.0406267 0)
  (-0.159482 -0.0512335 0)
  (-0.126505 -0.0568297 0)
  (-0.0930881 -0.0576157 0)
  (-0.0639158 -0.0551745 0)
  (-0.0451756 -0.049304 0)
  (-0.029401 -0.0275387 0)
  (-0.0100816 0.00223937 0)
  (0.0712142 0.0260171 0)
  (0.0376607 -0.0197496 0)
  (0.0421761 -0.0284985 0)
  (0.05228 -0.0228253 0)
  (0.0598905 -0.0146539 0)
  (0.0642844 -0.00765807 0)
  (0.0657013 -0.0027679 0)
  (0.0656915 -0.000198267 0)
  (0.0655328 0.000953217 0)
  (0.0655673 0.00153649 0)
  (0.0656717 0.00192254 0)
  (0.0657365 0.0022679 0)
  (0.0657237 0.00272701 0)
  (0.0655833 0.00364568 0)
  (0.064773 0.00591957 0)
  (0.0608672 0.0122229 0)
  (0.0510407 0.0173949 0)
  (0.0457711 0.0203927 0)
  (-0.0482219 0.0430539 0)
  (0.375271 0.257701 0)
  (-0.173389 0.10118 0)
  (-0.111397 0.0822817 0)
  (-0.141746 0.0644863 0)
  (-0.161421 0.0465716 0)
  (-0.175438 0.0272948 0)
  (-0.182461 0.00545962 0)
  (-0.179657 -0.019109 0)
  (-0.166788 -0.0444433 0)
  (-0.145623 -0.0664749 0)
  (-0.118995 -0.0817239 0)
  (-0.0900947 -0.0886261 0)
  (-0.0620207 -0.0874262 0)
  (-0.0375681 -0.0794394 0)
  (-0.0190665 -0.0645367 0)
  (-0.00434549 -0.0398096 0)
  (0.0102721 -0.00645934 0)
  (0.104352 -0.0513061 0)
  (0.0694055 -0.0471433 0)
  (0.0658001 -0.0389227 0)
  (0.0687326 -0.0290386 0)
  (0.0706334 -0.0191539 0)
  (0.0711543 -0.0110319 0)
  (0.0691926 -0.00925128 0)
  (0.0661778 -0.00691079 0)
  (0.0643168 -0.0056665 0)
  (0.0635647 -0.00496806 0)
  (0.0633106 -0.00453701 0)
  (0.0632847 -0.00422711 0)
  (0.0635597 -0.00386456 0)
  (0.0645988 -0.0031278 0)
  (0.0676129 -0.000100342 0)
  (0.0656486 0.017106 0)
  (0.0522025 0.0291975 0)
  (0.0526405 0.0370929 0)
  (-0.0773261 0.068081 0)
  (0.519093 0.326502 0)
  (-0.210058 0.135344 0)
  (-0.0719882 0.108644 0)
  (-0.10121 0.0838067 0)
  (-0.114887 0.0610908 0)
  (-0.125074 0.0365046 0)
  (-0.130047 0.00731927 0)
  (-0.124701 -0.0268025 0)
  (-0.110268 -0.0616305 0)
  (-0.089902 -0.0903958 0)
  (-0.0668499 -0.108893 0)
  (-0.0437003 -0.115955 0)
  (-0.0226536 -0.112508 0)
  (-0.00438421 -0.100383 0)
  (0.0111283 -0.0802517 0)
  (0.0259977 -0.0549563 0)
  (0.048326 -0.0293869 0)
  (0.0795136 -0.00857891 0)
  (0.089841 -0.0389979 0)
  (0.0769986 -0.0404926 0)
  (0.0699603 -0.0334736 0)
  (0.0677823 -0.0257969 0)
  (0.0670234 -0.0178129 0)
  (0.0677898 -0.00894779 0)
  (0.0709701 -0.00552247 0)
  (0.0754785 -0.00490724 0)
  (0.0793695 -0.00453322 0)
  (0.082444 -0.00410155 0)
  (0.0846129 -0.00335107 0)
  (0.0852043 -0.00209336 0)
  (0.083005 -0.000132089 0)
  (0.0768434 0.00277695 0)
  (0.0640743 0.00714318 0)
  (0.0529397 0.0274969 0)
  (0.0418291 0.0444236 0)
  (0.0560053 0.0576787 0)
  (-0.108054 0.0911972 0)
  (0.641692 0.380089 0)
  (-0.252958 0.163928 0)
  (-0.0332412 0.123385 0)
  (-0.0591209 0.0945243 0)
  (-0.0645249 0.069335 0)
  (-0.0684268 0.0418029 0)
  (-0.0686356 0.00694874 0)
  (-0.0561189 -0.0363567 0)
  (-0.0394235 -0.0788437 0)
  (-0.0214962 -0.111186 0)
  (-0.00470707 -0.129934 0)
  (0.00991413 -0.134913 0)
  (0.0211296 -0.128305 0)
  (0.0299529 -0.113487 0)
  (0.0372854 -0.0927867 0)
  (0.0450246 -0.0692266 0)
  (0.0556952 -0.0477945 0)
  (0.0669568 -0.0376866 0)
  (0.0700186 -0.0410464 0)
  (0.0644833 -0.0373024 0)
  (0.0576961 -0.0301661 0)
  (0.0532912 -0.0232477 0)
  (0.0509264 -0.0169115 0)
  (0.050684 -0.011086 0)
  (0.0525243 -0.00702397 0)
  (0.0559094 -0.00529103 0)
  (0.0593684 -0.00457397 0)
  (0.0626715 -0.00372488 0)
  (0.0656101 -0.00194521 0)
  (0.0677372 0.00130096 0)
  (0.0678197 0.00601834 0)
  (0.0652869 0.0122714 0)
  (0.0595739 0.0207004 0)
  (0.0525783 0.0363379 0)
  (0.0428346 0.0551817 0)
  (0.064058 0.0759288 0)
  (-0.018548 0.104557 0)
  (0.0443238 0.0320216 0)
  (-0.0634816 -0.0357858 0)
  (-0.270703 -0.0580621 0)
  (0.728652 0.425226 0)
  (-0.293125 0.183846 0)
  (-0.00450798 0.118874 0)
  (-0.0159146 0.0949302 0)
  (-0.0107908 0.0714123 0)
  (-0.00639754 0.0425531 0)
  (0.00565421 0.000355726 0)
  (0.0271478 -0.0515895 0)
  (0.0436947 -0.0955232 0)
  (0.0556545 -0.125527 0)
  (0.0628041 -0.140617 0)
  (0.0655672 -0.142227 0)
  (0.0649943 -0.133104 0)
  (0.0623387 -0.116473 0)
  (0.0588903 -0.0953422 0)
  (0.0561152 -0.0728827 0)
  (0.0551053 -0.0527862 0)
  (0.0546221 -0.039667 0)
  (0.0510769 -0.0342585 0)
  (0.044023 -0.0297026 0)
  (0.0366313 -0.0242529 0)
  (0.0313749 -0.0191897 0)
  (0.0285317 -0.0149227 0)
  (0.0280627 -0.0113575 0)
  (0.0296282 -0.00906558 0)
  (0.0325491 -0.00845693 0)
  (0.036001 -0.00839565 0)
  (0.0397232 -0.00779959 0)
  (0.0435606 -0.00579946 0)
  (0.0472142 -0.00158177 0)
  (0.0503477 0.00506449 0)
  (0.0516835 0.0136102 0)
  (0.0516012 0.0242182 0)
  (0.0516711 0.0388041 0)
  (0.050312 0.057134 0)
  (0.0724285 0.0804857 0)
  (0.0526801 0.0988907 0)
  (0.0919084 0.0690203 0)
  (0.115444 0.0447637 0)
  (-0.131022 -0.00900579 0)
  (0.776325 0.466417 0)
  (-0.312094 0.170363 0)
  (0.0202723 0.0687994 0)
  (0.0413033 0.0721899 0)
  (0.0557922 0.0618593 0)
  (0.0698288 0.0307703 0)
  (0.099143 -0.0194735 0)
  (0.121627 -0.0693901 0)
  (0.133611 -0.107431 0)
  (0.135926 -0.130736 0)
  (0.130304 -0.139822 0)
  (0.118829 -0.136859 0)
  (0.103831 -0.124841 0)
  (0.0874105 -0.10687 0)
  (0.0713275 -0.0859596 0)
  (0.0569601 -0.0648918 0)
  (0.0450994 -0.046376 0)
  (0.0354332 -0.0332533 0)
  (0.0262836 -0.0259292 0)
  (0.0174522 -0.0215175 0)
  (0.0100877 -0.017948 0)
  (0.00515535 -0.0151653 0)
  (0.00259798 -0.0131814 0)
  (0.00213863 -0.0118267 0)
  (0.00334767 -0.0112943 0)
  (0.00559371 -0.01162 0)
  (0.0083509 -0.0120809 0)
  (0.0115036 -0.0119022 0)
  (0.015155 -0.0102922 0)
  (0.0194415 -0.00626751 0)
  (0.0253883 0.00113005 0)
  (0.0310973 0.010688 0)
  (0.0362381 0.0215443 0)
  (0.0429026 0.0345141 0)
  (0.0503141 0.0495513 0)
  (0.0722837 0.0684875 0)
  (0.0853054 0.0768795 0)
  (0.117123 0.0540592 0)
  (0.15697 0.0443759 0)
  (-0.0373264 0.0930188 0)
  (0.879429 0.470513 0)
  (-0.0750067 0.15036 0)
  (0.103685 -0.00812241 0)
  (0.16836 -0.0168712 0)
  (0.178491 -0.0154701 0)
  (0.19493 -0.0392721 0)
  (0.221559 -0.0691078 0)
  (0.233784 -0.0952482 0)
  (0.229972 -0.113951 0)
  (0.213413 -0.123378 0)
  (0.188131 -0.123368 0)
  (0.157874 -0.115265 0)
  (0.125999 -0.101271 0)
  (0.0949831 -0.0835402 0)
  (0.0666382 -0.0644748 0)
  (0.0420969 -0.0462393 0)
  (0.0220533 -0.0308286 0)
  (0.00691631 -0.0205149 0)
  (-0.00484391 -0.0153378 0)
  (-0.0130653 -0.013396 0)
  (-0.018984 -0.0124458 0)
  (-0.0228837 -0.0120246 0)
  (-0.0251663 -0.0120049 0)
  (-0.0261739 -0.0122892 0)
  (-0.026261 -0.0129085 0)
  (-0.0258427 -0.0138031 0)
  (-0.0252146 -0.0146582 0)
  (-0.0244062 -0.0150719 0)
  (-0.0232194 -0.0145814 0)
  (-0.0212448 -0.0126185 0)
  (-0.0174506 -0.00845601 0)
  (-0.00795062 -0.00134649 0)
  (0.000386875 0.00750619 0)
  (0.0108897 0.0159224 0)
  (0.0226307 0.0232365 0)
  (0.042922 0.0309007 0)
  (0.0622969 0.0242825 0)
  (0.0826771 -0.00420324 0)
  (0.142235 0.038535 0)
  (-0.407995 0.203711 0)
  (1.02288 0.426066 0)
  (0.488098 0.282251 0)
  (0.500848 0.191646 0)
  (0.515159 0.130152 0)
  (0.485075 0.0873775 0)
  (0.449374 0.0444051 0)
  (0.410642 0.000346029 0)
  (0.365656 -0.0371771 0)
  (0.31523 -0.063222 0)
  (0.261814 -0.0765757 0)
  (0.20838 -0.0788129 0)
  (0.157366 -0.0729115 0)
  (0.110794 -0.0619683 0)
  (0.0694359 -0.048027 0)
  (0.034237 -0.0333721 0)
  (0.00520926 -0.0199887 0)
  (-0.0165706 -0.0106097 0)
  (-0.0292654 -0.00709405 0)
  (-0.0376776 -0.00655318 0)
  (-0.0436143 -0.00723754 0)
  (-0.0481567 -0.00814079 0)
  (-0.0517214 -0.0090668 0)
  (-0.0546137 -0.0100081 0)
  (-0.0570694 -0.0109667 0)
  (-0.059352 -0.0119609 0)
  (-0.0617705 -0.0129264 0)
  (-0.0646162 -0.0136452 0)
  (-0.0681468 -0.0137584 0)
  (-0.0726603 -0.012747 0)
  (-0.0785857 -0.00991458 0)
  (-0.0864557 -0.00446467 0)
  (-0.0963581 0.0041465 0)
  (-0.105935 0.0151615 0)
  (-0.120567 0.0288425 0)
  (-0.14383 0.045422 0)
  (-0.178228 0.0638531 0)
  (-0.227302 0.0801766 0)
  (-0.28393 0.0919109 0)
  (-0.352807 0.0989978 0)
  (-0.614943 0.101825 0)
  (-0.187316 0.0205356 0)
  (0.138487 0.045182 0)
  (0.232217 0.021767 0)
  (0.225069 -0.0021433 0)
  (0.210461 -0.0194594 0)
  (0.192921 -0.0302979 0)
  (0.166267 -0.0358865 0)
  (0.133022 -0.0366432 0)
  (0.0967072 -0.0334053 0)
  (0.0601094 -0.0272057 0)
  (0.0257732 -0.0187843 0)
  (-0.00762411 -0.00795297 0)
  (-0.0333221 0.000459578 0)
  (-0.049853 0.00478804 0)
  (-0.0595676 0.00600449 0)
  (-0.0651138 0.00543883 0)
  (-0.0691194 0.00433375 0)
  (-0.0727154 0.00285768 0)
  (-0.0761783 0.00143691 0)
  (-0.0796851 0.000153421 0)
  (-0.0833394 -0.00101232 0)
  (-0.0871939 -0.00201698 0)
  (-0.0913374 -0.00280186 0)
  (-0.0958704 -0.00324887 0)
  (-0.100854 -0.00315353 0)
  (-0.106273 -0.00224393 0)
  (-0.112025 -0.000211515 0)
  (-0.117904 0.00325051 0)
  (-0.123376 0.00846458 0)
  (-0.127417 0.0162969 0)
  (-0.130646 0.0278966 0)
  (-0.133365 0.0435984 0)
  (-0.136323 0.06261 0)
  (-0.140033 0.0814616 0)
  (-0.141477 0.0903027 0)
  (-0.124483 0.0681844 0)
  (-0.0835155 -0.0241126 0)
  (-0.277121 -0.200403 0)
  (-0.0259372 0.206706 0)
  (0.0558152 0.0936223 0)
  (0.0256225 0.0256979 0)
  (0.0215584 0.0117785 0)
  (0.0201401 0.00591969 0)
  (0.0154229 -0.00150953 0)
  (0.00363849 -0.00658045 0)
  (-0.0157138 -0.00709524 0)
  (-0.0364067 -0.0052739 0)
  (-0.0555862 -0.00316336 0)
  (-0.0706708 -0.00199523 0)
  (-0.0801984 -0.00283054 0)
  (-0.0846144 -0.00617419 0)
  (-0.0867919 -0.0109986 0)
  (-0.0879457 -0.0163729 0)
  (-0.0891341 -0.0215009 0)
  (-0.0907599 -0.0254967 0)
  (-0.0927979 -0.0280441 0)
  (-0.0953617 -0.0294536 0)
  (-0.0983189 -0.0298173 0)
  (-0.101604 -0.0297474 0)
  (-0.10518 -0.02935 0)
  (-0.108986 -0.0286472 0)
  (-0.112923 -0.0275931 0)
  (-0.116828 -0.0260466 0)
  (-0.120429 -0.0237432 0)
  (-0.123325 -0.0202613 0)
  (-0.124979 -0.014963 0)
  (-0.124833 -0.00749306 0)
  (-0.122101 0.00219362 0)
  (-0.115375 0.0148889 0)
  (-0.103366 0.0312793 0)
  (-0.0857037 0.050971 0)
  (-0.0632899 0.0701406 0)
  (-0.0389034 0.0815436 0)
  (0.000519446 0.0661048 0)
  (0.144089 -0.00546286 0)
  (-0.206771 -0.111169 0)
  (-0.0501786 -0.323395 0)
  (-0.414857 -0.120338 0)
  (-0.302939 0.073399 0)
  (-0.229924 -0.0199923 0)
  (-0.184353 -0.0339972 0)
  (-0.16159 -0.0246992 0)
  (-0.151066 -0.0158375 0)
  (-0.147235 -0.00759921 0)
  (-0.146178 0.00139048 0)
  (-0.145107 0.0104515 0)
  (-0.142643 0.0190861 0)
  (-0.138239 0.0276815 0)
  (-0.131938 0.0364179 0)
  (-0.124308 0.0450478 0)
  (-0.116446 0.0531585 0)
  (-0.10948 0.0607102 0)
  (-0.103994 0.0674624 0)
  (-0.100191 0.0729847 0)
  (-0.0979147 0.0768152 0)
  (-0.0968436 0.0787696 0)
  (-0.0967069 0.0790957 0)
  (-0.0972916 0.0779311 0)
  (-0.0984518 0.0761503 0)
  (-0.100084 0.0739008 0)
  (-0.102096 0.0712689 0)
  (-0.104372 0.0683269 0)
  (-0.106743 0.0651386 0)
  (-0.108942 0.0617487 0)
  (-0.110554 0.0581659 0)
  (-0.110906 0.0543673 0)
  (-0.108763 0.0510993 0)
  (-0.102208 0.0495623 0)
  (-0.0888628 0.0505379 0)
  (-0.0668444 0.0549056 0)
  (-0.0364932 0.0631897 0)
  (0.0102023 0.0748412 0)
  (0.0555453 0.0764751 0)
  (0.0978137 0.0624754 0)
  (0.162657 0.0347456 0)
  (-0.227216 -0.0182223 0)
)
;

boundaryField
{
  floor
  {
    type noSlip;
  }
  ceiling
  {
    type noSlip;
  }
  sWall
  {
    type noSlip;
  }
  nWall
  {
    type noSlip;
  }
  sideWalls
  {
    type empty;
  }
  glass1
  {
    type noSlip;
  }
  glass2
  {
    type noSlip;
  }
  sun
  {
    type noSlip;
  }
  heatsource1
  {
    type noSlip;
  }
  heatsource2
  {
    type noSlip;
  }
  Table_master
  {
    type noSlip;
  }
  Table_slave
  {
    type noSlip;
  }
  inlet
  {
    type fixedValue;
    value uniform (0.277164 -0.114805 0);
  }
  outlet
  {
    type zeroGradient;
  }
} 	// ************************************************************************* //

