/*--------------------------------*- C++ -*----------------------------------*\
  =========                 |
  \\      /  F ield         | OpenFOAM: The Open Source CFD Toolbox
   \\    /   O peration     | Website:  https://openfoam.org
    \\  /    A nd           | Version:  6
     \\/     M anipulation  |
\*---------------------------------------------------------------------------*/
FoamFile
{
    version     2.0;
    format      ascii;
    class       volScalarField;
    location    "700";
    object      alphat;
}
// * * * * * * * * * * * * * * * * * * * * * * * * * * * * * * * * * * * * * //

dimensions      [1 -1 -1 0 0 0 0];

internalField   nonuniform List<scalar> 
459
(
0.00123198
0.00134516
0.00136844
0.00143337
0.0014932
0.00154878
0.00160267
0.00165783
0.00169845
0.00171857
0.00171218
0.00167513
0.0016074
0.00151621
0.00141762
0.000540917
0.000667013
0.000743911
0.000731626
0.000702432
0.000667031
0.000625782
0.000585783
0.00054959
0.000517405
0.000488839
0.000463388
0.000440757
0.000420355
0.000401472
0.000383161
0.000363993
0.000350624
0.000319713
0.00168425
0.00407516
0.00388707
0.00452383
0.00514334
0.00576725
0.00633134
0.00674262
0.00711915
0.00743103
0.00763174
0.00766344
0.00743982
0.00675422
0.00493037
0.00144051
0.000891278
0.000595372
0.00121318
0.00164425
0.00193846
0.00208213
0.00206641
0.00169567
0.0014753
0.00131483
0.0011902
0.00109013
0.00100806
0.000935601
0.000867961
0.00080272
0.000745323
0.000694847
0.000816012
0.000421454
0.0020614
0.00557031
0.00481052
0.00608357
0.00671303
0.00717743
0.0075353
0.00780258
0.00809354
0.00840188
0.00869284
0.00890786
0.00898407
0.00884037
0.00825994
0.00649146
0.0013942
0.00121035
0.00169021
0.00211245
0.00246902
0.00269631
0.00260939
0.000894659
0.000792334
0.000710128
0.000643709
0.000589504
0.00054479
0.000507615
0.000476706
0.000451494
0.000485212
0.000558835
0.000913291
0.000488458
0.00242424
0.00715351
0.00481141
0.00645801
0.00704864
0.00724693
0.0073523
0.00746516
0.00767874
0.00798073
0.00834227
0.00868789
0.00895529
0.00908798
0.0089867
0.00840983
0.0064924
0.00169356
0.00210117
0.00267941
0.00319512
0.00357191
0.00378315
0.0035319
0.00100583
0.000917775
0.000854974
0.000807353
0.000767004
0.000729744
0.000694059
0.000656611
0.000613033
0.000575725
0.000586568
0.00103874
0.000540037
0.00279449
0.00919279
0.0053014
0.00618647
0.00699704
0.00707527
0.00699522
0.00700968
0.0071959
0.00749519
0.00790252
0.00831236
0.00864319
0.00881739
0.00879749
0.0085341
0.00785517
0.00643473
0.00591843
0.00569956
0.00557668
0.00548539
0.00539128
0.00518234
0.00441196
0.00404782
0.00383944
0.00367798
0.00350377
0.003247
0.00289075
0.00245207
0.00195984
0.00145593
0.00107233
0.00106749
0.000719713
0.000669201
0.000810751
0.000908823
0.00318671
0.0114087
0.00734933
0.00609909
0.00669098
0.00698159
0.0068347
0.00686926
0.00701748
0.00728916
0.00768556
0.0081303
0.00849828
0.00867732
0.00861999
0.00835631
0.00796618
0.00752474
0.00723393
0.00700841
0.00678682
0.00657174
0.00636416
0.00613182
0.00580115
0.00550817
0.00524626
0.00499162
0.00472889
0.00444102
0.00406692
0.00358972
0.00300813
0.00235333
0.00176553
0.00131352
0.000993963
0.000847991
0.00121383
0.000946768
0.00354497
0.0129672
0.0103707
0.00788815
0.00740263
0.0074021
0.00721255
0.00705813
0.00707556
0.0073178
0.00774644
0.00823972
0.00863346
0.00879048
0.00866504
0.00833024
0.00796205
0.00772249
0.00760984
0.00746521
0.00722437
0.00691501
0.00656677
0.00620039
0.00583477
0.00550643
0.00520756
0.00492705
0.00466427
0.00442586
0.00421128
0.00389549
0.00343705
0.00287115
0.00232257
0.00182561
0.00146363
0.001349
0.00137705
0.00106892
0.00361331
0.0115866
0.0102666
0.00944333
0.0088341
0.00808783
0.00741573
0.00707694
0.00713155
0.00751962
0.00809767
0.00867381
0.00905045
0.00909813
0.00881783
0.00835074
0.00794746
0.00776719
0.00767905
0.00739325
0.00693943
0.00640985
0.00588369
0.00541869
0.00503652
0.00472568
0.00446286
0.00423854
0.00405661
0.00392719
0.0038609
0.00382986
0.00358076
0.0032064
0.00287293
0.00269681
0.0027901
0.00321794
0.00398839
0.00168084
0.00351451
0.00417606
0.00465341
0.00480553
0.00488094
0.00507979
0.00551966
0.00623481
0.00716087
0.00814145
0.00899276
0.0095484
0.00967242
0.00934381
0.00872043
0.0081066
0.00773285
0.00743165
0.00703695
0.00646832
0.00580743
0.00517542
0.00464903
0.00424358
0.00393453
0.00368821
0.00348041
0.00329912
0.00313764
0.00298919
0.00284624
0.00270938
0.00259844
0.0025161
0.00248622
0.00250163
0.00249546
0.00240422
0.00225226
0.00158371
0.00181228
0.00365671
0.00559465
0.00725454
0.00859659
0.00968325
0.0104319
0.010793
0.0107818
0.0104205
0.00969551
0.00873854
0.00778722
0.00709489
0.00658935
0.00604202
0.00541129
0.00476833
0.00419419
0.00374153
0.00340326
0.0031481
0.0029483
0.00278608
0.00265293
0.00254597
0.00246484
0.00241039
0.00238608
0.00239168
0.00241166
0.00244297
0.00247797
0.00248965
0.00243305
0.00229144
0.00207769
0.0013189
0.00236829
0.00586719
0.00867283
0.0097401
0.0103343
0.0105881
0.0104494
0.00995249
0.00919014
0.00827573
0.00733449
0.00648638
0.00577011
0.00516328
0.00458748
0.00405313
0.00361319
0.00328082
0.00303684
0.00284613
0.00268654
0.00254809
0.00243527
0.00234749
0.00228427
0.0022454
0.00222981
0.00223448
0.00226676
0.00232429
0.00240344
0.0024965
0.00258572
0.00264795
0.00263228
0.00266734
0.00271412
0.00134461
0.00208967
0.00221499
0.00230377
0.00246068
0.00237027
0.00226199
0.00219158
0.00210365
0.00198184
0.00182905
0.00165363
0.00146753
0.00128453
0.00112026
0.000990878
0.000898927
0.000836277
0.000793905
0.000765427
0.00074685
0.000735819
0.000730832
0.00073158
0.000738329
0.00074996
0.000766496
0.00078821
0.000815496
0.000848995
0.000889862
0.000937059
0.000990515
0.0010509
0.00111884
0.00119401
0.00128282
0.00131416
0.0012821
0.00120444
0.00112293
)
;

boundaryField
{
    floor
    {
        type            compressible::alphatWallFunction;
        Prt             0.85;
        value           nonuniform List<scalar> 
29
(
0.000199889
7.54866e-05
9.43532e-05
0.000105641
0.000103847
9.95702e-05
9.43552e-05
8.8236e-05
8.2255e-05
7.67994e-05
7.19106e-05
6.75395e-05
6.36179e-05
6.0108e-05
5.69239e-05
5.39595e-05
5.10675e-05
4.8021e-05
4.58839e-05
4.09011e-05
4.09005e-05
5.70964e-05
6.74816e-05
7.53532e-05
0.000199887
7.54856e-05
8.36939e-05
0.000171596
0.000236849
)
;
    }
    ceiling
    {
        type            compressible::alphatWallFunction;
        Prt             0.85;
        value           nonuniform List<scalar> 
43
(
0.000288677
0.000304871
0.000316286
0.000336465
0.000324973
0.000311112
0.000302059
0.000290702
0.000274877
0.00025487
0.000231671
0.000206757
0.000181908
0.000159256
0.000141147
0.000128109
0.000119136
0.000113023
0.000108892
0.000106188
0.000104579
0.00010385
0.00010396
0.000104947
0.000106643
0.00010905
0.000112202
0.000116147
0.000120968
0.00012682
0.000133539
0.000141101
0.000149586
0.000159065
0.000169477
0.000181682
0.000185966
0.000181584
0.000170917
0.000159639
0.000468363
0.000548836
0.000324391
)
;
    }
    sWall
    {
        type            compressible::alphatWallFunction;
        Prt             0.85;
        value           uniform 0.000287468;
    }
    nWall
    {
        type            compressible::alphatWallFunction;
        Prt             0.85;
        value           nonuniform List<scalar> 6(0.000129205 0.000134591 0.000151773 0.000186287 0.000189789 0.000159317);
    }
    sideWalls
    {
        type            empty;
    }
    glass1
    {
        type            compressible::alphatWallFunction;
        Prt             0.85;
        value           nonuniform List<scalar> 9(0.000170352 0.000230585 0.000279567 0.000325869 0.000372425 0.000421089 0.000465045 0.000473507 0.000461681);
    }
    glass2
    {
        type            compressible::alphatWallFunction;
        Prt             0.85;
        value           nonuniform List<scalar> 2(0.000233617 0.000220793);
    }
    sun
    {
        type            compressible::alphatWallFunction;
        Prt             0.85;
        value           nonuniform List<scalar> 
14
(
0.000174593
0.00019006
0.000193225
0.000202023
0.00021009
0.000217552
0.000224759
0.000232108
0.000237502
0.000240168
0.000239322
0.000234406
0.000225388
0.000213181
)
;
    }
    heatsource1
    {
        type            compressible::alphatWallFunction;
        Prt             0.85;
        value           nonuniform List<scalar> 3(9.47792e-05 0.000115445 0.000129507);
    }
    heatsource2
    {
        type            compressible::alphatWallFunction;
        Prt             0.85;
        value           nonuniform List<scalar> 4(0.000203102 0.000127008 0.000127006 0.000196834);
    }
    Table_master
    {
        type            compressible::alphatWallFunction;
        Prt             0.85;
        value           nonuniform List<scalar> 9(0.000127483 0.000112779 0.000100801 9.10004e-05 8.29107e-05 7.61683e-05 7.051e-05 6.57658e-05 6.18671e-05);
    }
    Table_slave
    {
        type            compressible::alphatWallFunction;
        Prt             0.85;
        value           nonuniform List<scalar> 9(0.000143238 0.00013078 0.000121808 0.000114953 0.000109107 0.000103676 9.84429e-05 9.29161e-05 8.64356e-05);
    }
    inlet
    {
        type            fixedValue;
        value           uniform 1.94e-05;
    }
    outlet
    {
        type            zeroGradient;
    }
}


// ************************************************************************* //
