/*--------------------------------*- C++ -*----------------------------------*\
  =========                 |
  \\      /  F ield         | OpenFOAM: The Open Source CFD Toolbox
   \\    /   O peration     | Website:  https://openfoam.org
    \\  /    A nd           | Version:  6
     \\/     M anipulation  |
\*---------------------------------------------------------------------------*/
FoamFile
{
    version     2.0;
    format      ascii;
    class       volScalarField;
    location    "700";
    object      nut;
}
// * * * * * * * * * * * * * * * * * * * * * * * * * * * * * * * * * * * * * //

dimensions      [0 2 -1 0 0 0 0];

internalField   nonuniform List<scalar> 
459
(
0.00106206
0.00115864
0.00117864
0.00123455
0.00128606
0.00133392
0.00138031
0.00142779
0.00146274
0.00148001
0.00147445
0.00144249
0.00138412
0.00130557
0.00122067
0.000465891
0.000574456
0.000640667
0.00063009
0.000604953
0.000574471
0.000538951
0.000504508
0.000473341
0.000445627
0.000421028
0.000399111
0.000379623
0.000362054
0.000345794
0.000330025
0.000313519
0.000302008
0.000275397
0.00145282
0.00351067
0.00334838
0.00389693
0.00443063
0.00496811
0.005454
0.00580819
0.00613227
0.00640047
0.00657279
0.00659953
0.00640651
0.00581586
0.00424529
0.00124033
0.000767422
0.000512803
0.00104481
0.00141602
0.0016694
0.00179315
0.00177963
0.00146035
0.00127057
0.00113237
0.00102504
0.000938858
0.000868181
0.000805774
0.000747523
0.000691339
0.000641912
0.000598449
0.000702822
0.000363026
0.00177925
0.00479963
0.00414443
0.00524137
0.00578396
0.00618431
0.00649279
0.00672303
0.00697332
0.00723814
0.00748769
0.00767182
0.00773658
0.00761229
0.00711226
0.00558947
0.00120048
0.00104232
0.00145556
0.00181922
0.00212636
0.00232216
0.00224734
0.000770526
0.000682398
0.000611598
0.000554394
0.00050771
0.0004692
0.000437183
0.000410562
0.000388848
0.00041789
0.000481304
0.0007866
0.00042074
0.00209375
0.00616518
0.00414576
0.00556484
0.00607433
0.00624576
0.006337
0.00643434
0.00661786
0.00687688
0.00718676
0.00748294
0.00771203
0.00782555
0.00773808
0.00724137
0.00559043
0.00145832
0.00180938
0.00230745
0.00275172
0.00307637
0.00325844
0.00304213
0.000866371
0.000790545
0.000736465
0.000695457
0.000660709
0.000628619
0.000597884
0.000565629
0.000528089
0.000495919
0.000505231
0.000894679
0.000465177
0.00241499
0.00792495
0.00456869
0.0053316
0.00603088
0.00609917
0.00603097
0.00604362
0.00620338
0.0064597
0.00680858
0.00715976
0.0074433
0.00759252
0.00757513
0.00734844
0.00676409
0.00554123
0.00509693
0.00490878
0.00480328
0.00472494
0.0046441
0.00446429
0.00380079
0.00348719
0.00330775
0.0031687
0.00301864
0.00279743
0.00249049
0.00211253
0.00168842
0.00125424
0.00092371
0.000919491
0.000619953
0.000576566
0.000698622
0.000783148
0.00275546
0.00983879
0.00633521
0.00525725
0.00576806
0.00601962
0.00589406
0.00592385
0.00605041
0.00628255
0.00662179
0.0070028
0.00731821
0.00747162
0.00742216
0.00719544
0.00686001
0.00648041
0.00623052
0.00603681
0.0058464
0.0056615
0.00548296
0.00528299
0.00499825
0.00474594
0.00452036
0.004301
0.00407464
0.00382658
0.00350418
0.00309294
0.00259174
0.00202748
0.00152096
0.00113149
0.00085621
0.000730535
0.00104576
0.000815763
0.00306678
0.0111891
0.00894462
0.0068027
0.00638421
0.00638457
0.00622159
0.00608749
0.00610045
0.00630658
0.00667325
0.00709595
0.00743369
0.00756847
0.00746078
0.00717324
0.00685705
0.00665156
0.0065553
0.00643134
0.00622435
0.00595817
0.00565837
0.00534284
0.00502791
0.00474506
0.00448756
0.00424586
0.0040194
0.0038139
0.0036289
0.00335667
0.00296152
0.00247378
0.002001
0.00157274
0.00126086
0.00116214
0.00118634
0.000920972
0.00312817
0.0100115
0.00886669
0.00815319
0.00762588
0.00698082
0.00639869
0.0061033
0.00614681
0.00647779
0.00697293
0.00746732
0.00779109
0.00783265
0.00759245
0.0071916
0.00684555
0.00669131
0.00661621
0.00637053
0.00597986
0.00552375
0.00507049
0.00466986
0.00434057
0.00407273
0.00384623
0.0036529
0.00349608
0.0033845
0.00332728
0.00330041
0.00308562
0.0027629
0.00247543
0.00232357
0.00240391
0.00277264
0.00343667
0.00144892
0.00304574
0.00361576
0.00402565
0.00415406
0.00421631
0.00438474
0.00475969
0.00537131
0.00616475
0.00700608
0.00773765
0.00821637
0.0083249
0.00804428
0.0075097
0.00698298
0.00666238
0.00640371
0.00606415
0.00557446
0.00500511
0.00446055
0.00400696
0.00365755
0.0033912
0.00317891
0.00299981
0.00284354
0.00270434
0.00257637
0.00245315
0.0023352
0.0022396
0.00216869
0.00214303
0.00215648
0.00215138
0.00207294
0.00194206
0.00136582
0.00152587
0.00310019
0.00476321
0.00619044
0.00735044
0.00829439
0.00894922
0.00927032
0.00926956
0.0089655
0.0083469
0.00752635
0.00670884
0.00611353
0.00567859
0.00520732
0.00466397
0.00410995
0.00361518
0.00322507
0.00293353
0.00271361
0.00254139
0.00240158
0.00228681
0.00219462
0.00212469
0.00207777
0.00205683
0.00206167
0.00207893
0.00210598
0.00213624
0.00214644
0.0020978
0.00197585
0.00179164
0.00113739
0.00199848
0.00498262
0.00739837
0.00833349
0.00885877
0.00908941
0.00898044
0.00856087
0.00791025
0.00712655
0.00631817
0.00558893
0.00497255
0.00445007
0.00395408
0.00349366
0.00311454
0.00282811
0.00261783
0.00245347
0.00231591
0.00219658
0.00209934
0.00202368
0.00196919
0.00193569
0.00192226
0.00192631
0.00195414
0.00200375
0.00207202
0.00215228
0.00222927
0.00228302
0.00226962
0.00229998
0.0023403
0.00115952
0.00177874
0.00188493
0.00196044
0.00210653
0.00203452
0.00194412
0.00188509
0.00181051
0.00170643
0.00157539
0.00142466
0.00126456
0.00110702
0.000965537
0.000854079
0.000774853
0.000720869
0.000684356
0.000659816
0.000643809
0.000634306
0.000630013
0.000630663
0.000636487
0.00064652
0.000660781
0.000679506
0.000703035
0.00073192
0.000767158
0.000807854
0.000853948
0.000906015
0.000964601
0.00102943
0.00110603
0.00113309
0.00110547
0.00103851
0.000968355
)
;

boundaryField
{
    floor
    {
        type            nutkWallFunction;
        Cmu             0.09;
        kappa           0.41;
        E               9.8;
        value           nonuniform List<scalar> 
29
(
0.00014639
5.53283e-05
6.9142e-05
7.74059e-05
7.60929e-05
7.29617e-05
6.91434e-05
6.46628e-05
6.02832e-05
5.62881e-05
5.27079e-05
4.95066e-05
4.66345e-05
4.40637e-05
4.17316e-05
3.95601e-05
3.74417e-05
3.52099e-05
3.36444e-05
2.99945e-05
2.99944e-05
4.18608e-05
4.94691e-05
5.52362e-05
0.00014639
5.53282e-05
6.13415e-05
0.000125694
0.00017345
)
;
    }
    ceiling
    {
        type            nutkWallFunction;
        Cmu             0.09;
        kappa           0.41;
        E               9.8;
        value           nonuniform List<scalar> 
43
(
0.00020904
0.000220705
0.000228959
0.000244926
0.000237151
0.000227314
0.000220864
0.000212674
0.000201179
0.000186594
0.000169649
0.000151429
0.000133245
0.000116661
0.0001034
9.38512e-05
8.72792e-05
8.28013e-05
7.97758e-05
7.77951e-05
7.66165e-05
7.60835e-05
7.61645e-05
7.68878e-05
7.81318e-05
7.98961e-05
8.22057e-05
8.50969e-05
8.86306e-05
9.29192e-05
9.78433e-05
0.000103385
0.000109604
0.000116552
0.000124184
0.000133132
0.000136275
0.000133066
0.000125249
0.000116996
0.000344909
0.000403835
0.000232981
)
;
    }
    sWall
    {
        type            nutkWallFunction;
        Cmu             0.09;
        kappa           0.41;
        E               9.8;
        value           uniform 0.000209098;
    }
    nWall
    {
        type            nutkWallFunction;
        Cmu             0.09;
        kappa           0.41;
        E               9.8;
        value           nonuniform List<scalar> 6(9.48576e-05 9.87978e-05 0.000111386 0.000136784 0.000139348 0.000117001);
    }
    sideWalls
    {
        type            empty;
    }
    glass1
    {
        type            nutkWallFunction;
        Cmu             0.09;
        kappa           0.41;
        E               9.8;
        value           nonuniform List<scalar> 9(0.0001281 0.000173045 0.000209538 0.000244007 0.000278644 0.000314825 0.000347503 0.000353914 0.000345331);
    }
    glass2
    {
        type            nutkWallFunction;
        Cmu             0.09;
        kappa           0.41;
        E               9.8;
        value           nonuniform List<scalar> 2(0.000172461 0.000163046);
    }
    sun
    {
        type            nutkWallFunction;
        Cmu             0.09;
        kappa           0.41;
        E               9.8;
        value           nonuniform List<scalar> 
14
(
0.000128005
0.000139234
0.000141545
0.000147985
0.00015389
0.000159352
0.000164626
0.000170004
0.000173948
0.000175895
0.000175269
0.000171664
0.000165057
0.000156119
)
;
    }
    heatsource1
    {
        type            nutkWallFunction;
        Cmu             0.09;
        kappa           0.41;
        E               9.8;
        value           nonuniform List<scalar> 3(6.94096e-05 8.45562e-05 9.48575e-05);
    }
    heatsource2
    {
        type            nutkWallFunction;
        Cmu             0.09;
        kappa           0.41;
        E               9.8;
        value           nonuniform List<scalar> 4(0.000148645 9.29535e-05 9.29535e-05 0.000144062);
    }
    Table_master
    {
        type            nutkWallFunction;
        Cmu             0.09;
        kappa           0.41;
        E               9.8;
        value           nonuniform List<scalar> 9(9.33267e-05 8.25619e-05 7.37933e-05 6.66188e-05 6.06965e-05 5.57605e-05 5.16182e-05 4.81451e-05 4.5291e-05);
    }
    Table_slave
    {
        type            nutkWallFunction;
        Cmu             0.09;
        kappa           0.41;
        E               9.8;
        value           nonuniform List<scalar> 9(0.000104871 9.57512e-05 8.91844e-05 8.4167e-05 7.98878e-05 7.59118e-05 7.20807e-05 6.80343e-05 6.32892e-05);
    }
    inlet
    {
        type            calculated;
        value           uniform 0.000100623;
    }
    outlet
    {
        type            calculated;
        value           nonuniform List<scalar> 2(0.00177874 0.00188493);
    }
}


// ************************************************************************* //
