/*--------------------------------*- C++ -*----------------------------------*\
  =========                 |
  \\      /  F ield         | OpenFOAM: The Open Source CFD Toolbox
   \\    /   O peration     | Website:  https://openfoam.org
    \\  /    A nd           | Version:  6
     \\/     M anipulation  |
\*---------------------------------------------------------------------------*/
FoamFile
{
    version     2.0;
    format      ascii;
    class       surfaceScalarField;
    location    "370";
    object      phi;
}
// * * * * * * * * * * * * * * * * * * * * * * * * * * * * * * * * * * * * * //

dimensions      [1 0 -1 0 0 0 0];

internalField   nonuniform List<scalar> 
852
(
-0.00163762
0.0016491
-0.00243302
0.000795387
-0.00290638
0.00047335
-0.00309239
0.000185993
-0.00295886
-0.000133538
-0.00246107
-0.000497802
-0.0016033
-0.000857776
-0.00049866
-0.00110466
0.000565307
-0.001064
0.00134749
-0.000782208
0.00183989
-0.000492421
0.0020335
-0.000193636
0.00190735
0.000126122
0.00136227
0.000545054
0.00136069
-0.000157117
0.000154461
-0.000324885
0.000167715
1.92952e-05
-0.000344231
0.000552915
-0.000533669
0.00100453
-0.000451663
0.00133204
-0.00032756
0.00151594
-0.00018395
0.00160062
-8.47301e-05
0.00164709
-4.65226e-05
0.00167689
-2.98581e-05
0.0016946
-1.77588e-05
0.00170097
-6.42541e-06
0.00169193
8.9794e-06
0.00165399
3.78889e-05
0.00155558
9.83517e-05
0.00134188
0.000213643
0.00096239
0.000379426
0.000337284
0.000625045
0.000333658
-0.00123625
0.002918
-0.00191703
0.00147615
-0.00237038
0.000926695
-0.00256339
0.000378993
-0.00245352
-0.000243425
-0.00201607
-0.000935255
-0.0012963
-0.00157756
-0.000441263
-0.00195971
0.000374993
-0.00188028
0.00103703
-0.00144428
0.00148337
-0.000938786
0.00172055
-0.000430842
0.00177598
7.06583e-05
0.00175493
0.000566077
0.00206737
0.00104822
0.00103605
0.00103123
0.00103597
-5.21212e-05
0.000200367
0.000312403
-0.000196863
0.00070556
-0.000737435
0.00102115
-0.000849304
0.0012982
-0.000728756
0.00149788
-0.00052729
0.00154338
-0.000229505
0.00155332
-9.4717e-05
0.00156341
-5.66663e-05
0.00157197
-3.84647e-05
0.00157797
-2.38141e-05
0.00158163
-1.01408e-05
0.00158148
9.06983e-06
0.00157228
4.7037e-05
0.00152223
0.000148345
0.00132517
0.000410643
0.000991088
0.000713447
0.000559527
0.00105654
0.000883202
-0.000916085
0.00388618
-0.00145638
0.00201644
-0.00184928
0.00131958
-0.00202659
0.000556288
-0.00192952
-0.0003405
-0.00153366
-0.00133113
-0.000917873
-0.00219336
-0.000240767
-0.00263683
0.000380981
-0.00250206
0.000905049
-0.00196838
0.00127684
-0.00131061
0.00149928
-0.000653322
0.0016101
-4.01878e-05
0.00165472
0.000521423
0.00165041
0.0010525
0.00122381
0.0014578
0.00225975
0.000232091
-4.12216e-05
0.000970069
-0.000934883
0.0012956
-0.00106301
0.00145279
-0.00100654
0.00157447
-0.00085048
0.00172888
-0.000681749
0.00149948
0.00140487
0.00134831
0.00130995
0.00128623
0.00127619
0.00128536
0.0013325
0.00148094
0.00126128
0.000630243
0.00102195
0.000952717
0.000690941
0.00138749
0.00155827
-0.000669718
0.00462584
-0.00104855
0.00239526
-0.00131605
0.00158706
-0.00143369
0.000673922
-0.00129948
-0.00047472
-0.00091944
-0.00171118
-0.000413645
-0.00269917
7.82685e-05
-0.00312876
0.000518802
-0.00294262
0.000890059
-0.00233968
0.00115302
-0.00157362
0.0013127
-0.000813043
0.00140897
-0.000136492
0.00148471
0.000445652
0.0015959
0.000941277
0.00178862
0.00126504
0.00265056
0.00139777
0.00213009
0.00051117
0.00232476
-0.000235932
0.00205184
-0.000661995
0.00187445
-0.000885657
0.00174729
-0.000879413
0.0016476
-0.000750833
0.00150327
-0.000537463
0.00171041
-0.000207347
0.00178261
-7.24071e-05
0.00180391
-2.14979e-05
0.00179368
1.00142e-05
0.00175294
4.05321e-05
0.00167727
7.54643e-05
0.00155386
0.000123204
0.00135729
0.000196352
0.00103659
0.000320489
0.00103495
0.000631829
0.000982608
0.001005
0.000900338
0.0014697
0.00243766
-0.000486331
0.00519839
-0.000710776
0.00261969
-0.000770232
0.0016465
-0.000743973
0.00064765
-0.000487886
-0.000730818
-0.000119614
-0.00207946
0.000228709
-0.0030475
0.00051135
-0.00341142
0.000749185
-0.00318049
0.000934819
-0.00252536
0.00104733
-0.00168618
0.00110283
-0.000868593
0.00114856
-0.000182266
0.00123689
0.000357287
0.00142412
0.000754014
0.00172128
0.000967848
0.00214801
0.00097101
0.002255
0.000404149
0.00217205
-0.000153021
0.00199865
-0.000488626
0.00176917
-0.00065622
0.0015537
-0.000663977
0.0013667
-0.000563881
0.00122219
-0.000393006
0.00120036
-0.000185566
0.00118019
-5.22973e-05
0.00114749
1.11482e-05
0.00111386
4.35902e-05
0.00108412
7.02119e-05
0.00105219
0.000107332
0.00100803
0.000167303
0.000943885
0.000260442
0.000873459
0.000390854
0.000900115
0.000605114
0.0010622
0.000842851
0.00156544
0.000966398
0.0026368
0.00136624
0.00170299
0.000933533
0.00106149
0.000641229
0.00108796
-0.000395428
0.0056947
-0.00046408
0.00268833
-0.00020592
0.00138833
0.000135561
0.000306154
0.000532877
-0.00112814
0.000829927
-0.00237651
0.0009839
-0.00320147
0.00104053
-0.00346807
0.00103478
-0.00317479
0.000983851
-0.00247449
0.000896909
-0.0015993
0.000805788
-0.000777527
0.000766134
-0.00014266
0.000822229
0.000301151
0.000991562
0.000584644
0.00125011
0.000709266
0.00157629
0.0006448
0.00170285
0.000277554
0.00163217
-8.23841e-05
0.00146619
-0.000322679
0.00124359
-0.000433668
0.00101332
-0.000433753
0.000805258
-0.000355875
0.000642555
-0.000230358
0.000549991
-9.30604e-05
0.000499422
-1.78801e-06
0.000473079
3.74303e-05
0.000468032
4.85761e-05
0.000480856
5.73251e-05
0.00050761
8.05146e-05
0.000543657
0.000131191
0.000587746
0.000216289
0.000646573
0.000331962
0.000768465
0.000483159
0.000976204
0.000635051
0.0012413
0.000701239
0.00157939
0.00102809
0.00142459
0.00108827
0.000871463
0.00119429
0.00198767
-0.000313443
0.00612288
-6.20081e-05
0.00243688
0.000710625
0.000615679
0.0013364
-0.000319638
0.0017436
-0.00153536
0.00190914
-0.00254206
0.00184399
-0.00313633
0.00161484
-0.00323893
0.00129629
-0.00285628
0.000951682
-0.00212994
0.000623539
-0.00127122
0.000368485
-0.000522535
0.000248694
-2.29217e-05
0.000277661
0.000272141
0.000426905
0.000435361
0.000645894
0.00049024
0.00087416
0.000416497
0.000954908
0.000196765
0.000888888
-1.64087e-05
0.000728688
-0.000162529
0.000517845
-0.000222878
0.000295765
-0.00021173
9.44701e-05
-0.00015464
-5.99511e-05
-7.60002e-05
-0.000150124
-2.95193e-06
-0.000185355
3.33768e-05
-0.000183139
3.5148e-05
-0.000155411
2.07804e-05
-0.00010369
5.53485e-06
-2.59716e-05
2.72685e-06
7.87856e-05
2.63637e-05
0.000208228
8.67764e-05
0.00035947
0.000180651
0.000540888
0.000301673
0.000744824
0.000431048
0.00091988
0.000526118
0.0011624
0.00078551
0.00132137
0.000929233
0.00120205
0.00131354
0.00321956
0.00138579
0.0048667
0.00194694
0.00187571
0.00249529
6.7314e-05
0.0031101
-0.000934455
0.00334235
-0.00176761
0.00319659
-0.00239629
0.00274526
-0.002685
0.00210157
-0.00259527
0.00137872
-0.00213349
0.000695793
-0.0014471
0.000121232
-0.000696739
-0.000233819
-0.000167552
-0.000363671
0.000106873
-0.00033382
0.000242242
-0.000212688
0.000314183
-5.29443e-05
0.000330451
8.2451e-05
0.000281054
0.000109998
0.000169166
3.38477e-05
5.96844e-05
-0.000116221
-1.25203e-05
-0.000303452
-3.57126e-05
-0.000491148
-2.41006e-05
-0.000651761
5.90274e-06
-0.000764355
3.65227e-05
-0.000819961
5.25822e-05
-0.000833173
4.65167e-05
-0.00082196
2.38618e-05
-0.000793506
-7.74758e-06
-0.000746335
-4.17114e-05
-0.000671846
-7.18378e-05
-0.000557639
-8.79181e-05
-0.00039426
-7.66773e-05
-0.000190519
-2.31637e-05
3.79368e-05
7.31445e-05
0.000257008
0.000211907
0.000404487
0.00037857
0.000583496
0.000606434
0.000731879
0.000780784
0.000324963
0.00172039
0.00365632
0.00499537
0.00685703
0.00645355
0.00047078
0.0060387
-0.0005196
0.00541492
-0.00114382
0.00449111
-0.00147246
0.003346
-0.00153991
0.00213269
-0.00138201
0.000957933
-0.000958813
-2.41013e-05
-0.00046516
-0.00065908
-6.18399e-05
-0.000940405
0.000113705
-0.00101647
0.000182883
-0.000989174
0.000214883
-0.000911387
0.000236339
-0.000823578
0.000242583
-0.000766983
0.000224397
-0.000779395
0.000181512
-0.000856644
0.000136864
-0.000975553
0.000106315
-0.00110638
9.5043e-05
-0.00122616
9.5601e-05
-0.00131825
9.79103e-05
-0.0013772
9.53971e-05
-0.00140858
8.38828e-05
-0.00142408
6.19341e-05
-0.00143329
3.29973e-05
-0.00144336
2.24587e-06
-0.00146218
-2.29726e-05
-0.00149923
-3.48685e-05
-0.00156476
-2.24599e-05
-0.00166722
2.57078e-05
-0.00181161
0.000121153
-0.00201975
0.000281213
-0.00233648
0.000528561
-0.00284758
0.000889605
-0.0036372
0.00139599
-0.00477644
0.00191995
-0.00494837
0.00189226
-0.00117542
0.00629786
0.000661258
0.0055732
0.000205058
0.00452972
-0.000100354
0.00326492
-0.000207692
0.0018853
-0.00016034
0.000504418
-1.19898e-06
-0.000633854
0.000179336
-0.0013264
0.000227287
-0.001613
0.000224679
-0.00169981
0.000200447
-0.0017016
0.000184599
-0.0016681
0.000181307
-0.00162024
0.000188416
-0.00157501
0.000197272
-0.00154929
0.000198603
-0.00155601
0.000188155
-0.00159079
0.000171562
-0.00164017
0.000155615
-0.00168894
0.000143729
-0.00172789
0.000134468
-0.00175478
0.000124719
-0.00177178
0.000112308
-0.00178397
9.59809e-05
-0.00179764
7.55222e-05
-0.00181734
5.26113e-05
-0.00184588
3.07008e-05
-0.00188269
1.37568e-05
-0.00192896
1.13157e-05
-0.00198411
3.26162e-05
-0.00204532
8.68353e-05
-0.00210943
0.00018519
-0.0021754
0.000347107
-0.00223505
0.000588145
-0.00227165
0.00092613
-0.0022459
0.00137017
-0.00200021
0.00167419
-0.000750478
0.000642456
-0.00190002
-0.000620704
0.00127097
-0.000929892
0.000514137
-0.00128123
0.000250899
-0.0016514
0.000162396
-0.00199213
0.000180308
-0.00222267
0.00022925
-0.00231947
0.000276042
-0.00235686
0.000264593
-0.00235176
0.000219498
-0.0023248
0.000173402
-0.00228463
0.00014435
-0.00223567
0.00013226
-0.00217981
0.000132481
-0.00212095
0.000138327
-0.0020656
0.000143169
-0.00202014
0.000142606
-0.00198545
0.000136785
-0.00195788
0.000127951
-0.00193238
0.000118146
-0.00190593
0.000107927
-0.00187843
9.71208e-05
-0.00185185
8.56404e-05
-0.00182953
7.35702e-05
-0.0018155
6.13925e-05
-0.00181336
5.03811e-05
-0.00182527
4.25273e-05
-0.00185186
4.02644e-05
-0.00188813
4.74964e-05
-0.00192357
6.79771e-05
-0.00194227
0.000105448
-0.001922
0.000164843
-0.00182968
0.000254716
-0.00162538
0.000383764
-0.00124026
0.00054094
-0.000511594
0.000641431
0.000609156
0.000553371
0.00132371
-7.21689e-05
-0.00054992
-0.00521956
-0.00615297
-0.00490144
-0.00440731
-0.00417893
-0.00404161
-0.00388872
-0.00368918
-0.00344502
-0.00321411
-0.00302945
-0.00289154
-0.00278301
-0.00268676
-0.00259038
-0.00248822
-0.00238129
-0.002275
-0.00217463
-0.00208314
-0.00200148
-0.00192998
-0.00186918
-0.00181971
-0.00178213
-0.00175659
-0.00174197
-0.00173521
-0.00173088
-0.00171967
-0.00168852
-0.00162061
-0.00149417
-0.00127877
-0.000935203
-0.000435285
0.000164278
0.000674884
0.000560472
)
;

boundaryField
{
    floor
    {
        type            calculated;
        value           nonuniform List<scalar> 
29
(
0
0
0
0
0
0
0
0
0
0
0
0
0
0
0
0
0
0
0
0
3.56153e-06
9.91856e-06
1.58092e-05
2.0884e-05
1.5495e-06
2.59871e-06
6.15576e-06
9.4318e-06
9.27422e-06
)
;
    }
    ceiling
    {
        type            calculated;
        value           nonuniform List<scalar> 
43
(
2.20689e-05
2.06222e-05
1.93178e-05
1.99004e-05
2.24212e-05
2.49838e-05
2.73318e-05
2.96182e-05
3.1796e-05
3.35896e-05
3.47513e-05
3.53976e-05
3.5738e-05
3.59151e-05
3.60105e-05
3.60755e-05
3.61435e-05
3.62268e-05
3.63122e-05
3.63725e-05
3.63828e-05
3.63313e-05
3.62212e-05
3.60688e-05
3.59007e-05
3.5752e-05
3.5664e-05
3.56815e-05
3.58483e-05
3.61963e-05
3.67392e-05
3.74625e-05
3.83192e-05
3.92327e-05
4.01202e-05
4.09443e-05
4.17922e-05
4.26878e-05
4.21632e-05
4.3491e-05
1.63828e-05
1.40312e-05
1.08601e-05
)
;
    }
    sWall
    {
        type            calculated;
        value           uniform -3.37067e-05;
    }
    nWall
    {
        type            calculated;
        value           nonuniform List<scalar> 6(-2.67407e-05 -2.83154e-05 -2.9904e-05 -2.59565e-05 -2.64669e-05 -3.30204e-05);
    }
    sideWalls
    {
        type            empty;
        value           nonuniform 0();
    }
    glass1
    {
        type            calculated;
        value           nonuniform List<scalar> 9(-1.1488e-05 -3.26699e-05 -5.21054e-05 -6.99629e-05 -8.62303e-05 -0.000100896 -0.00011475 -0.000129623 -0.000145065);
    }
    glass2
    {
        type            calculated;
        value           nonuniform List<scalar> 2(-0.00011186 -0.000116699);
    }
    sun
    {
        type            calculated;
        value           uniform 0;
    }
    heatsource1
    {
        type            calculated;
        value           nonuniform List<scalar> 3(2.05843e-07 2.06236e-07 2.06488e-07);
    }
    heatsource2
    {
        type            calculated;
        value           nonuniform List<scalar> 4(5.16626e-08 5.17951e-08 0 0);
    }
    Table_master
    {
        type            calculated;
        value           nonuniform List<scalar> 9(-1.5475e-07 -1.54874e-07 -1.54908e-07 -1.54926e-07 -1.54935e-07 -1.54937e-07 -1.5493e-07 -1.54908e-07 -1.54851e-07);
    }
    Table_slave
    {
        type            calculated;
        value           nonuniform List<scalar> 9(1.54601e-07 1.5462e-07 1.546e-07 1.54588e-07 1.5458e-07 1.54584e-07 1.54601e-07 1.54637e-07 1.547e-07);
    }
    inlet
    {
        type            calculated;
        value           uniform -0.00648832;
    }
    outlet
    {
        type            calculated;
        value           nonuniform List<scalar> 2(0.00523107 0.000912671);
    }
}


// ************************************************************************* //
