/*--------------------------------*- C++ -*----------------------------------*\
  =========                 |
  \\      /  F ield         | OpenFOAM: The Open Source CFD Toolbox
   \\    /   O peration     | Website:  https://openfoam.org
    \\  /    A nd           | Version:  6
     \\/     M anipulation  |
\*---------------------------------------------------------------------------*/
FoamFile
{
    version     2.0;
    format      ascii;
    class       volScalarField;
    location    "200";
    object      epsilon;
}
// * * * * * * * * * * * * * * * * * * * * * * * * * * * * * * * * * * * * * //

dimensions      [0 2 -3 0 0 0 0];

internalField   nonuniform List<scalar> 
459
(
0.0001371
0.000141301
7.76278e-05
7.89458e-05
8.44627e-05
9.07316e-05
9.78044e-05
0.000105769
0.000113864
0.000121749
0.00012892
0.000134775
0.000138962
0.000141394
0.000139545
2.078e-05
2.74669e-05
2.95863e-05
1.70258e-05
7.75272e-06
4.77304e-06
3.53991e-06
3.31253e-06
3.04348e-06
3.19816e-06
3.49955e-06
4.2994e-06
6.00489e-06
9.40547e-06
1.53533e-05
2.41732e-05
3.06668e-05
2.99463e-05
2.20643e-05
0.000889808
0.00204707
0.000180478
6.43956e-05
5.8405e-05
6.08556e-05
6.51158e-05
7.06461e-05
7.71151e-05
8.4653e-05
9.34451e-05
0.000103543
0.000114449
0.000124661
0.000136081
0.000183104
6.16043e-05
6.16767e-05
8.02068e-05
6.06671e-05
3.9544e-05
2.58599e-05
1.73061e-05
1.07637e-05
5.337e-06
4.68689e-06
4.48621e-06
5.99266e-06
9.02793e-06
1.49176e-05
2.55274e-05
4.46619e-05
5.90496e-05
7.01147e-05
8.59713e-05
4.97024e-05
0.00258074
0.00739636
0.00076537
0.000138408
8.48548e-05
7.81497e-05
7.89122e-05
8.26964e-05
8.8316e-05
9.54664e-05
0.000104302
0.000115074
0.000127898
0.000142648
0.000160604
0.00018936
0.000249616
0.000235423
0.000204244
0.000100387
7.60619e-05
6.59071e-05
5.95761e-05
3.53274e-05
1.78491e-05
9.63534e-06
7.45937e-06
1.24713e-05
2.02062e-05
3.2167e-05
5.18251e-05
8.6625e-05
7.73253e-05
9.44612e-05
0.000107865
8.2501e-05
0.00538235
0.0162832
0.00253531
0.00046557
0.000202589
0.00014588
0.000125312
0.000117352
0.00011633
0.000118851
0.00012392
0.000131358
0.000141384
0.000155034
0.000176037
0.000215193
0.000297734
0.000454651
0.000219834
0.000107643
8.24531e-05
7.67426e-05
8.09439e-05
9.65948e-05
0.000137401
0.00014173
0.000148382
0.000155711
0.000163542
0.000172398
0.000182447
0.000192516
0.000205316
0.00015688
0.000180168
0.000302568
0.000384529
0.00913857
0.0270285
0.00638946
0.00168899
0.000720476
0.000414953
0.000281949
0.000216582
0.000184201
0.000169629
0.000163859
0.000163432
0.00016596
0.000169333
0.000171084
0.000169113
0.000162694
0.000146019
0.00010542
8.3082e-05
7.40207e-05
7.23159e-05
7.52936e-05
8.18742e-05
9.15137e-05
0.00010177
0.000114529
0.000130305
0.000149659
0.000173831
0.000204211
0.000243377
0.000297742
0.000359934
0.000442696
0.000518493
0.000609686
0.00102868
0.000753778
0.00050832
0.0135558
0.0355281
0.013149
0.00511859
0.00258092
0.00141019
0.000816815
0.00052342
0.00036515
0.000282019
0.000240704
0.000221384
0.000212747
0.000209188
0.00020583
0.000197328
0.000179576
0.000153382
0.000125739
0.000105281
9.30139e-05
8.80433e-05
8.87669e-05
9.41469e-05
0.00010376
0.000117895
0.000137671
0.000164142
0.000198868
0.000244785
0.000307003
0.000393178
0.000512842
0.0006733
0.000880752
0.00112986
0.00125342
0.00113654
0.000742817
0.000672224
0.0177268
0.0361727
0.0225811
0.0132987
0.00763052
0.00428439
0.00243029
0.00141982
0.000867187
0.000561561
0.000391963
0.000318813
0.000280814
0.000260658
0.000249092
0.000237297
0.000218905
0.000193259
0.000165557
0.000141391
0.00012377
0.000113572
0.000110372
0.000113723
0.000123845
0.000142026
0.000170135
0.000210028
0.000263709
0.000334513
0.00042868
0.000555037
0.000720861
0.000923292
0.00113775
0.00130232
0.00131764
0.00115873
0.000802652
0.000612773
0.0170732
0.0333527
0.0358856
0.0257195
0.0161806
0.00934237
0.0052891
0.00301439
0.00176444
0.00108442
0.000714169
0.000500453
0.000384481
0.000322942
0.000290556
0.000270578
0.000251874
0.00022899
0.000203276
0.000178506
0.000157978
0.000143679
0.000136431
0.000136834
0.000146224
0.000167248
0.000203637
0.00025923
0.000335996
0.000432083
0.000541168
0.000651801
0.000752331
0.000838612
0.000914857
0.000994546
0.00110085
0.00121282
0.00129953
0.000971562
0.0144671
0.0212941
0.106244
0.0693693
0.0351767
0.0174778
0.00890491
0.00472807
0.00265001
0.00158061
0.00100746
0.000687427
0.000499087
0.000387203
0.000322413
0.000285552
0.000262001
0.000242223
0.000222204
0.00020204
0.000183624
0.000168974
0.000159578
0.000156736
0.000162682
0.000180299
0.000214163
0.000270377
0.000355206
0.000471092
0.000617666
0.000794543
0.000999469
0.00123378
0.00149084
0.0017192
0.00184352
0.00209044
0.00275195
0.00149049
0.325548
0.184782
0.0381624
0.0137085
0.00705117
0.00401193
0.00242328
0.00154166
0.0010308
0.00072302
0.000530994
0.000408057
0.000328598
0.000277879
0.000246028
0.000225335
0.000210197
0.000197505
0.000186348
0.000177156
0.000170902
0.000168765
0.000172344
0.000183791
0.00020652
0.000245261
0.000305496
0.000391601
0.000505662
0.000641388
0.000788459
0.000936956
0.00107822
0.00120094
0.00125429
0.00112717
0.00166981
0.00146195
0.203153
0.0749911
0.01633
0.0067158
0.00411764
0.00266908
0.00178902
0.00123859
0.000886155
0.00065461
0.000498342
0.000390292
0.000314352
0.000260848
0.000223531
0.000198168
0.000181492
0.000170953
0.000164694
0.000161546
0.000160994
0.000163118
0.000168679
0.000179344
0.000198175
0.000229827
0.000278999
0.000348851
0.000439041
0.00054135
0.000642184
0.000727244
0.000783792
0.00079899
0.000755644
0.000710274
0.00115614
0.00102271
0.019864
0.0381563
0.0833415
0.0281572
0.00780974
0.00291595
0.00269769
0.00205471
0.00154564
0.00117506
0.000907888
0.000713605
0.00057051
0.000463823
0.000383556
0.000322942
0.000277179
0.00024316
0.000218235
0.000200261
0.00018754
0.000178733
0.000172872
0.000169414
0.000168316
0.000170182
0.000176516
0.000190005
0.000214379
0.000260426
0.000335744
0.000438074
0.000550967
0.000649441
0.000710917
0.00071932
0.00067747
0.00062371
0.000603204
0.000494404
)
;

boundaryField
{
    floor
    {
        Cmu             0.09;
        kappa           0.41;
        E               9.8;
        type            epsilonWallFunction;
        value           nonuniform List<scalar> 
29
(
0.000139545
2.078e-05
2.74669e-05
2.95863e-05
1.70258e-05
7.75272e-06
4.77304e-06
3.53991e-06
3.31253e-06
3.04348e-06
3.19816e-06
3.49955e-06
4.2994e-06
6.00489e-06
9.40547e-06
1.53533e-05
2.41732e-05
3.06668e-05
2.99463e-05
2.20643e-05
2.20643e-05
4.97024e-05
8.2501e-05
0.000384529
0.000139545
2.078e-05
6.16767e-05
0.000235423
0.000454651
)
;
    }
    ceiling
    {
        Cmu             0.09;
        kappa           0.41;
        E               9.8;
        type            epsilonWallFunction;
        value           nonuniform List<scalar> 
43
(
0.019864
0.0381563
0.0833415
0.0281572
0.00780974
0.00291595
0.00269769
0.00205471
0.00154564
0.00117506
0.000907888
0.000713605
0.00057051
0.000463823
0.000383556
0.000322942
0.000277179
0.00024316
0.000218235
0.000200261
0.00018754
0.000178733
0.000172872
0.000169414
0.000168316
0.000170182
0.000176516
0.000190005
0.000214379
0.000260426
0.000335744
0.000438074
0.000550967
0.000649441
0.000710917
0.00071932
0.00067747
0.00062371
0.000603204
0.000494404
0.0144671
0.0212941
0.203153
)
;
    }
    sWall
    {
        Cmu             0.09;
        kappa           0.41;
        E               9.8;
        type            epsilonWallFunction;
        value           uniform 0.019864;
    }
    nWall
    {
        Cmu             0.09;
        kappa           0.41;
        E               9.8;
        type            epsilonWallFunction;
        value           nonuniform List<scalar> 6(0.00050832 0.000672224 0.000612773 0.00146195 0.00102271 0.000494404);
    }
    sideWalls
    {
        type            empty;
    }
    glass1
    {
        Cmu             0.09;
        kappa           0.41;
        E               9.8;
        type            epsilonWallFunction;
        value           nonuniform List<scalar> 9(0.0001371 0.000889808 0.00258074 0.00538235 0.00913857 0.0135558 0.0177268 0.0170732 0.0144671);
    }
    glass2
    {
        Cmu             0.09;
        kappa           0.41;
        E               9.8;
        type            epsilonWallFunction;
        value           nonuniform List<scalar> 2(0.000971562 0.00149049);
    }
    sun
    {
        Cmu             0.09;
        kappa           0.41;
        E               9.8;
        type            epsilonWallFunction;
        value           nonuniform List<scalar> 
14
(
0.0001371
0.000141301
7.76278e-05
7.89458e-05
8.44627e-05
9.07316e-05
9.78044e-05
0.000105769
0.000113864
0.000121749
0.00012892
0.000134775
0.000138962
0.000141394
)
;
    }
    heatsource1
    {
        Cmu             0.09;
        kappa           0.41;
        E               9.8;
        type            epsilonWallFunction;
        value           nonuniform List<scalar> 3(0.00102868 0.000753778 0.00050832);
    }
    heatsource2
    {
        Cmu             0.09;
        kappa           0.41;
        E               9.8;
        type            epsilonWallFunction;
        value           nonuniform List<scalar> 4(0.000183104 6.16043e-05 6.16043e-05 0.000249616);
    }
    Table_master
    {
        Cmu             0.09;
        kappa           0.41;
        E               9.8;
        type            epsilonWallFunction;
        value           nonuniform List<scalar> 9(3.53274e-05 1.78491e-05 9.63534e-06 7.45937e-06 1.24713e-05 2.02062e-05 3.2167e-05 5.18251e-05 8.6625e-05);
    }
    Table_slave
    {
        Cmu             0.09;
        kappa           0.41;
        E               9.8;
        type            epsilonWallFunction;
        value           nonuniform List<scalar> 9(0.000137401 0.00014173 0.000148382 0.000155711 0.000163542 0.000172398 0.000182447 0.000192516 0.000205316);
    }
    inlet
    {
        type            turbulentMixingLengthDissipationRateInlet;
        mixingLength    0.01;
        phi             phi;
        k               k;
        value           uniform 3.77336e-06;
    }
    outlet
    {
        type            zeroGradient;
    }
}


// ************************************************************************* //
