/*--------------------------------*- C++ -*----------------------------------*\
  =========                 |
  \\      /  F ield         | OpenFOAM: The Open Source CFD Toolbox
   \\    /   O peration     | Website:  https://openfoam.org
    \\  /    A nd           | Version:  6
     \\/     M anipulation  |
\*---------------------------------------------------------------------------*/
FoamFile
{
    version     2.0;
    format      ascii;
    class       volScalarField;
    location    "500";
    object      epsilon;
}
// * * * * * * * * * * * * * * * * * * * * * * * * * * * * * * * * * * * * * //

dimensions      [0 2 -3 0 0 0 0];

internalField   nonuniform List<scalar> 
459
(
0.000375336
0.000480439
0.000500017
0.000571844
0.000643381
0.000714287
0.00078683
0.000865149
0.000933103
0.000974044
0.00097444
0.000925827
0.00083173
0.000712714
0.000596541
3.07e-05
5.73727e-05
7.63702e-05
7.07425e-05
6.19375e-05
5.28829e-05
4.39883e-05
3.64776e-05
3.04602e-05
2.56778e-05
2.18568e-05
1.87867e-05
1.62961e-05
1.4233e-05
1.24741e-05
1.09026e-05
9.39653e-06
8.60043e-06
6.67781e-06
0.000991192
0.00149905
0.000454601
0.000435061
0.000451127
0.000477162
0.000515149
0.000569845
0.00063166
0.000682789
0.000704434
0.000683563
0.000619519
0.000532274
0.000481536
0.000620125
0.000172527
4.27481e-05
9.94692e-05
9.75417e-05
8.43617e-05
6.91977e-05
5.62144e-05
4.86581e-05
3.96178e-05
3.18748e-05
2.57015e-05
2.08718e-05
1.71135e-05
1.41964e-05
1.19351e-05
1.02986e-05
9.37654e-06
9.07896e-06
2.49171e-05
1.66115e-05
0.00185888
0.00384648
0.00058418
0.000415891
0.000426692
0.000467176
0.000528152
0.000611306
0.00070462
0.000781182
0.000817617
0.000802801
0.000739399
0.000646041
0.000557228
0.000509345
0.000560718
0.00036221
0.000229951
0.00016042
0.000117078
8.86869e-05
7.20165e-05
0.000124141
8.82333e-05
6.48931e-05
4.92867e-05
3.853e-05
3.09005e-05
2.53567e-05
2.12657e-05
1.82537e-05
1.40724e-05
1.19381e-05
4.61193e-05
2.66599e-05
0.00308326
0.00814843
0.000971764
0.000424384
0.000412853
0.000467441
0.00055563
0.000682827
0.000817567
0.000913446
0.000951063
0.000927737
0.000852214
0.000742679
0.000621597
0.00052701
0.000488077
0.000878109
0.000474668
0.000272757
0.000176288
0.000123541
9.23384e-05
7.79323e-05
0.000173715
0.000135915
0.000113311
9.83022e-05
8.65809e-05
7.59695e-05
6.65533e-05
5.73598e-05
4.75374e-05
2.88318e-05
1.91911e-05
7.39387e-05
3.65911e-05
0.00479632
0.0146289
0.0019967
0.000516894
0.000418861
0.000476181
0.000607385
0.000831782
0.00101716
0.0011147
0.00113427
0.00108478
0.000981373
0.000839087
0.000679325
0.000526968
0.00040155
0.000330162
0.000251054
0.000186111
0.000138125
0.000104858
8.2855e-05
7.02369e-05
6.93704e-05
6.67322e-05
6.39674e-05
6.09116e-05
5.70099e-05
5.19856e-05
4.67793e-05
4.18288e-05
3.73149e-05
3.05198e-05
2.38066e-05
5.29961e-05
4.15684e-05
7.14695e-05
0.000125698
0.000176401
0.00719528
0.02171
0.00458243
0.00103509
0.000627479
0.000626351
0.000850265
0.00120986
0.00138309
0.00142795
0.00139491
0.00130316
0.00115913
0.000971679
0.000762272
0.000560314
0.000393999
0.000280265
0.000206911
0.000155179
0.000117252
9.1507e-05
7.58157e-05
6.81117e-05
6.676e-05
6.81224e-05
6.97893e-05
7.04165e-05
6.89313e-05
6.43404e-05
5.64775e-05
4.80993e-05
4.04579e-05
3.3742e-05
2.94393e-05
3.99392e-05
4.21896e-05
5.33263e-05
0.000232193
0.000199401
0.0100493
0.0259153
0.00961643
0.00355478
0.00214957
0.00175555
0.00195703
0.00205899
0.00201836
0.00191025
0.00177108
0.00160013
0.00138691
0.00113295
0.000860953
0.000605448
0.00040003
0.000262179
0.000179423
0.000129694
9.84305e-05
8.03368e-05
7.19584e-05
7.05742e-05
7.40104e-05
7.97854e-05
8.59982e-05
9.16313e-05
9.55775e-05
9.60055e-05
8.9512e-05
7.80373e-05
6.68216e-05
5.75183e-05
5.36707e-05
6.01667e-05
7.66656e-05
0.000123825
0.000295455
0.000283825
0.0107266
0.0288174
0.0157987
0.0104813
0.007345
0.00551701
0.00434062
0.00351422
0.00295238
0.00256274
0.00225782
0.00196696
0.00164869
0.00129676
0.000940816
0.000620762
0.000374205
0.000221769
0.000138284
0.00010057
8.1687e-05
7.35301e-05
7.24661e-05
7.63043e-05
8.35938e-05
9.3215e-05
0.000104558
0.000117577
0.00013237
0.000148719
0.000165401
0.000173958
0.000180295
0.000197228
0.000234291
0.000350863
0.000652427
0.0012564
0.00378792
0.00111812
0.00993607
0.0168055
0.0134914
0.010206
0.00777766
0.00607073
0.0048911
0.00410276
0.00356614
0.00315472
0.002768
0.00234627
0.00187491
0.00137465
0.000910559
0.000525379
0.000261613
0.000149882
0.000100506
7.88972e-05
7.01111e-05
6.85696e-05
7.1649e-05
7.80149e-05
8.70627e-05
9.86411e-05
0.000113049
0.000131087
0.000154069
0.000183883
0.00022308
0.000275099
0.00034605
0.000454348
0.000615569
0.000836661
0.00109199
0.00131639
0.00148658
0.000927358
0.0042439
0.00642947
0.00640206
0.00599326
0.00553993
0.00501215
0.00442553
0.00378321
0.00309003
0.00237142
0.00166643
0.00097285
0.000491142
0.000245806
0.000131688
8.60625e-05
6.74282e-05
6.01691e-05
5.84603e-05
5.99613e-05
6.36431e-05
6.90841e-05
7.62411e-05
8.53477e-05
9.69265e-05
0.000111852
0.000131459
0.000157741
0.000193678
0.000244067
0.00031392
0.000410424
0.000537454
0.000683931
0.000811552
0.000867676
0.000821524
0.00052393
0.00304338
0.00631422
0.00653
0.00545267
0.00482927
0.0043465
0.00368679
0.00281157
0.00198143
0.00127981
0.000754549
0.00040551
0.000216193
0.000124986
8.61288e-05
7.15794e-05
6.66861e-05
6.566e-05
6.63823e-05
6.82863e-05
7.13782e-05
7.56818e-05
8.13791e-05
8.87955e-05
9.84421e-05
0.000111113
0.000128035
0.00015108
0.000182984
0.000227185
0.000288347
0.000371262
0.000476731
0.000596675
0.000687918
0.000785439
0.000747957
0.000551377
0.00203577
0.00241423
0.00271465
0.00324191
0.00279302
0.00233421
0.00198884
0.0016743
0.00139012
0.00110931
0.000819808
0.000558485
0.000355042
0.000218118
0.000138331
9.60918e-05
7.49219e-05
6.46963e-05
6.03586e-05
5.95095e-05
6.09769e-05
6.42999e-05
6.89451e-05
7.49775e-05
8.25751e-05
9.20112e-05
0.000103672
0.000118113
0.000136176
0.000159239
0.000188572
0.000225046
0.000270785
0.000328536
0.000401074
0.000501174
0.000539115
0.00050137
0.000413747
0.000332884
)
;

boundaryField
{
    floor
    {
        Cmu             0.09;
        kappa           0.41;
        E               9.8;
        type            epsilonWallFunction;
        value           nonuniform List<scalar> 
29
(
0.000596541
3.07e-05
5.73727e-05
7.63702e-05
7.07425e-05
6.19375e-05
5.28829e-05
4.39883e-05
3.64776e-05
3.04602e-05
2.56778e-05
2.18568e-05
1.87867e-05
1.62961e-05
1.4233e-05
1.24741e-05
1.09026e-05
9.39653e-06
8.60043e-06
6.67781e-06
6.67781e-06
1.66115e-05
2.66599e-05
3.65911e-05
0.000596541
3.07e-05
4.27481e-05
0.00036221
0.000878109
)
;
    }
    ceiling
    {
        Cmu             0.09;
        kappa           0.41;
        E               9.8;
        type            epsilonWallFunction;
        value           nonuniform List<scalar> 
43
(
0.00203577
0.00241423
0.00271465
0.00324191
0.00279302
0.00233421
0.00198884
0.0016743
0.00139012
0.00110931
0.000819808
0.000558485
0.000355042
0.000218118
0.000138331
9.60918e-05
7.49219e-05
6.46963e-05
6.03586e-05
5.95095e-05
6.09769e-05
6.42999e-05
6.89451e-05
7.49775e-05
8.25751e-05
9.20112e-05
0.000103672
0.000118113
0.000136176
0.000159239
0.000188572
0.000225046
0.000270785
0.000328536
0.000401074
0.000501174
0.000539115
0.00050137
0.000413747
0.000332884
0.00993607
0.0168055
0.00304338
)
;
    }
    sWall
    {
        Cmu             0.09;
        kappa           0.41;
        E               9.8;
        type            epsilonWallFunction;
        value           uniform 0.00203577;
    }
    nWall
    {
        Cmu             0.09;
        kappa           0.41;
        E               9.8;
        type            epsilonWallFunction;
        value           nonuniform List<scalar> 6(0.000176401 0.000199401 0.000283825 0.00052393 0.000551377 0.000332884);
    }
    sideWalls
    {
        type            empty;
    }
    glass1
    {
        Cmu             0.09;
        kappa           0.41;
        E               9.8;
        type            epsilonWallFunction;
        value           nonuniform List<scalar> 9(0.000375336 0.000991192 0.00185888 0.00308326 0.00479632 0.00719528 0.0100493 0.0107266 0.00993607);
    }
    glass2
    {
        Cmu             0.09;
        kappa           0.41;
        E               9.8;
        type            epsilonWallFunction;
        value           nonuniform List<scalar> 2(0.00111812 0.000927358);
    }
    sun
    {
        Cmu             0.09;
        kappa           0.41;
        E               9.8;
        type            epsilonWallFunction;
        value           nonuniform List<scalar> 
14
(
0.000375336
0.000480439
0.000500017
0.000571844
0.000643381
0.000714287
0.00078683
0.000865149
0.000933103
0.000974044
0.00097444
0.000925827
0.00083173
0.000712714
)
;
    }
    heatsource1
    {
        Cmu             0.09;
        kappa           0.41;
        E               9.8;
        type            epsilonWallFunction;
        value           nonuniform List<scalar> 3(7.14695e-05 0.000125698 0.000176401);
    }
    heatsource2
    {
        Cmu             0.09;
        kappa           0.41;
        E               9.8;
        type            epsilonWallFunction;
        value           nonuniform List<scalar> 4(0.000620125 0.000172527 0.000172527 0.000560718);
    }
    Table_master
    {
        Cmu             0.09;
        kappa           0.41;
        E               9.8;
        type            epsilonWallFunction;
        value           nonuniform List<scalar> 9(0.000124141 8.82333e-05 6.48931e-05 4.92867e-05 3.853e-05 3.09005e-05 2.53567e-05 2.12657e-05 1.82537e-05);
    }
    Table_slave
    {
        Cmu             0.09;
        kappa           0.41;
        E               9.8;
        type            epsilonWallFunction;
        value           nonuniform List<scalar> 9(0.000173715 0.000135915 0.000113311 9.83022e-05 8.65809e-05 7.59695e-05 6.65533e-05 5.73598e-05 4.75374e-05);
    }
    inlet
    {
        type            turbulentMixingLengthDissipationRateInlet;
        mixingLength    0.01;
        phi             phi;
        k               k;
        value           uniform 0.000101881;
    }
    outlet
    {
        type            zeroGradient;
    }
}


// ************************************************************************* //
