/*--------------------------------*- C++ -*----------------------------------*\
  =========                 |
  \\      /  F ield         | OpenFOAM: The Open Source CFD Toolbox
   \\    /   O peration     | Website:  https://openfoam.org
    \\  /    A nd           | Version:  6
     \\/     M anipulation  |
\*---------------------------------------------------------------------------*/
FoamFile
{
    version     2.0;
    format      ascii;
    class       volScalarField;
    location    "600";
    object      nut;
}
// * * * * * * * * * * * * * * * * * * * * * * * * * * * * * * * * * * * * * //

dimensions      [0 2 -1 0 0 0 0];

internalField   nonuniform List<scalar> 
459
(
0.00103904
0.00113091
0.00114848
0.00120213
0.0012514
0.00129693
0.00134074
0.00138547
0.00142061
0.00143993
0.00143816
0.00141133
0.00135913
0.00128784
0.00121028
0.00045374
0.000560044
0.000620275
0.000606766
0.000581067
0.000551143
0.000517545
0.000485309
0.00045616
0.000430193
0.000407091
0.000386476
0.000368121
0.000351513
0.000336092
0.000321085
0.000305319
0.000295143
0.000270092
0.00142845
0.00338125
0.00319843
0.00371712
0.00421502
0.0047202
0.00518617
0.00553834
0.00584981
0.00611207
0.00628476
0.00631514
0.00612241
0.00552558
0.00397669
0.00122791
0.000786885
0.000503558
0.000996431
0.00133335
0.00155827
0.00166375
0.00165009
0.00137521
0.00120556
0.00108021
0.000981937
0.000902445
0.000836742
0.000777701
0.000722572
0.000669681
0.000623577
0.000582334
0.000690389
0.000360575
0.00175563
0.00462568
0.00392968
0.00500576
0.00552212
0.00590113
0.0061921
0.00641526
0.00664666
0.00689502
0.00713299
0.00731444
0.00738023
0.00726234
0.00679678
0.00543649
0.00119077
0.00102841
0.00140683
0.00172772
0.00199205
0.0021571
0.00208712
0.000736218
0.000654619
0.000588881
0.000535599
0.00049198
0.000455894
0.000425805
0.000400704
0.000380127
0.000408136
0.000468889
0.000772679
0.000419899
0.0020725
0.00598542
0.00391173
0.00531918
0.00582278
0.0059869
0.00606163
0.00614297
0.00630032
0.00653483
0.00682189
0.00711095
0.00733684
0.00745365
0.00738844
0.00693498
0.00536915
0.0014093
0.00175499
0.00221732
0.00260796
0.00288257
0.00303431
0.00283828
0.000825572
0.000756845
0.000708458
0.000672144
0.000641289
0.000612034
0.000583879
0.000554037
0.000518865
0.00048776
0.000495249
0.000882813
0.000465406
0.00239659
0.00774803
0.00432086
0.0050709
0.00579048
0.00587195
0.00579867
0.0057646
0.00589747
0.0061282
0.00644634
0.00679155
0.00707376
0.00722942
0.00721737
0.00699387
0.00642112
0.00524938
0.00479568
0.00458261
0.00445419
0.00436597
0.00429356
0.00414829
0.00357275
0.00331007
0.00316431
0.0030498
0.00291994
0.00272172
0.00243325
0.00207123
0.00166135
0.0012386
0.000911959
0.000903731
0.000619395
0.000579861
0.000701765
0.000786122
0.00273984
0.00966471
0.00606247
0.00493902
0.00546615
0.00575861
0.00565234
0.00563144
0.00574903
0.00595986
0.006271
0.00663248
0.0069449
0.0071075
0.0070647
0.006827
0.00645816
0.00603916
0.00575326
0.00553859
0.00534639
0.00517912
0.00503283
0.00487639
0.00464956
0.00444986
0.00426892
0.00408832
0.00389695
0.0036844
0.00339493
0.00301297
0.00253734
0.00199345
0.00149846
0.00110753
0.000846843
0.000727328
0.00104504
0.000818623
0.00305685
0.0110376
0.00869374
0.00643753
0.00594259
0.00601637
0.00592773
0.00582115
0.00582054
0.00598742
0.00631078
0.00670467
0.00703861
0.00718685
0.00708891
0.00678274
0.00640617
0.00612039
0.00596871
0.00583004
0.00563705
0.00540059
0.00514047
0.00487783
0.00462923
0.00441327
0.00421609
0.00402696
0.00384511
0.00367611
0.00351979
0.00327245
0.00289711
0.00242585
0.00196497
0.00154182
0.00123957
0.0011465
0.00117573
0.000921624
0.00312124
0.00996283
0.00877016
0.00798852
0.00740754
0.00686144
0.00628749
0.00593296
0.00588948
0.00613382
0.0065622
0.00702296
0.00735368
0.0074218
0.00719582
0.00676322
0.00632822
0.00607773
0.00596483
0.00572112
0.00535266
0.00494091
0.00455683
0.00424202
0.00399925
0.00380721
0.00364357
0.00350116
0.00338421
0.00330231
0.00326594
0.00325309
0.00304489
0.00272777
0.00244348
0.00229492
0.00238198
0.00276253
0.00344005
0.00145406
0.00304084
0.00361682
0.00404103
0.00419938
0.00427714
0.00437786
0.00462949
0.00509782
0.00575989
0.00650912
0.00719698
0.00768257
0.007854
0.00763495
0.00710816
0.00648919
0.00607078
0.00576236
0.00541495
0.0049416
0.00442134
0.00396089
0.00360766
0.00335273
0.00316453
0.00301368
0.00288231
0.00276247
0.00265006
0.00254083
0.00243005
0.00231866
0.00222665
0.00215846
0.00213578
0.00215263
0.00215061
0.00207385
0.00194338
0.00136946
0.00159599
0.0031712
0.00455388
0.00568466
0.00667243
0.00753507
0.00820083
0.00859324
0.00868325
0.00847997
0.0079879
0.00720006
0.00630583
0.00559664
0.00511349
0.00464381
0.00412311
0.00361441
0.00319497
0.00288944
0.00267375
0.00251671
0.00239513
0.00229589
0.00221329
0.00214578
0.0020938
0.00205889
0.00204453
0.00205386
0.00207357
0.00210206
0.00213343
0.00214445
0.00209593
0.00197292
0.00178735
0.00113742
0.00202065
0.00476367
0.00687393
0.00774381
0.0083295
0.00864998
0.00863977
0.00831505
0.00772248
0.00694476
0.00609485
0.0053
0.00462022
0.0040583
0.00355487
0.00310864
0.0027627
0.00251827
0.00234338
0.00220773
0.00209727
0.00201221
0.00194796
0.00190249
0.00187516
0.00186557
0.00187265
0.00189368
0.00193332
0.00199169
0.00206622
0.00215078
0.00223074
0.00228678
0.0022754
0.00230672
0.00233295
0.0011585
0.00178358
0.00188925
0.00196488
0.00209992
0.00201728
0.00191848
0.0018447
0.00176176
0.00165916
0.00153356
0.00138665
0.00122705
0.00106759
0.000922495
0.000805099
0.000722017
0.000667921
0.000634132
0.000613981
0.000603261
0.000599411
0.000601184
0.000608056
0.000618563
0.000632698
0.000650574
0.000672386
0.000698456
0.000729337
0.000766038
0.000808224
0.000855499
0.0009085
0.000967849
0.00103342
0.0011112
0.00113878
0.00111145
0.00104347
0.000972087
)
;

boundaryField
{
    floor
    {
        type            nutkWallFunction;
        Cmu             0.09;
        kappa           0.41;
        E               9.8;
        value           nonuniform List<scalar> 
29
(
0.000145192
5.37591e-05
6.73282e-05
7.48722e-05
7.31882e-05
6.99719e-05
6.62049e-05
6.19454e-05
5.78262e-05
5.40721e-05
5.07025e-05
4.7683e-05
4.49701e-05
4.2539e-05
4.03259e-05
3.82588e-05
3.62354e-05
3.40963e-05
3.27079e-05
2.92622e-05
2.92621e-05
4.15351e-05
4.93597e-05
5.52664e-05
0.000145192
5.3759e-05
6.01621e-05
0.000124062
0.000167909
)
;
    }
    ceiling
    {
        type            nutkWallFunction;
        Cmu             0.09;
        kappa           0.41;
        E               9.8;
        value           nonuniform List<scalar> 
43
(
0.000209574
0.000221178
0.000229443
0.000244206
0.00023527
0.000224505
0.000216425
0.000207294
0.000195928
0.000181906
0.000165342
0.000147121
0.000128646
0.00011156
9.75082e-05
8.74187e-05
8.07758e-05
7.65941e-05
7.40877e-05
7.27503e-05
7.22696e-05
7.24915e-05
7.33497e-05
7.46597e-05
7.64177e-05
7.8634e-05
8.13286e-05
8.45353e-05
8.83154e-05
9.27834e-05
9.7888e-05
0.000103571
0.0001099
0.000116936
0.000124651
0.000133733
0.000136935
0.000133762
0.00012583
0.000117437
0.000344398
0.000403942
0.0002354
)
;
    }
    sWall
    {
        type            nutkWallFunction;
        Cmu             0.09;
        kappa           0.41;
        E               9.8;
        value           uniform 0.000209632;
    }
    nWall
    {
        type            nutkWallFunction;
        Cmu             0.09;
        kappa           0.41;
        E               9.8;
        value           nonuniform List<scalar> 6(9.52179e-05 9.91424e-05 0.000111463 0.000136787 0.000139229 0.000117442);
    }
    sideWalls
    {
        type            empty;
    }
    glass1
    {
        type            nutkWallFunction;
        Cmu             0.09;
        kappa           0.41;
        E               9.8;
        value           nonuniform List<scalar> 9(0.000125399 0.000170286 0.000206923 0.000241696 0.000276673 0.000313176 0.000346465 0.000353192 0.000344819);
    }
    glass2
    {
        type            nutkWallFunction;
        Cmu             0.09;
        kappa           0.41;
        E               9.8;
        value           nonuniform List<scalar> 2(0.000173041 0.000163459);
    }
    sun
    {
        type            nutkWallFunction;
        Cmu             0.09;
        kappa           0.41;
        E               9.8;
        value           nonuniform List<scalar> 
14
(
0.000125312
0.000136019
0.000138057
0.000144255
0.000149919
0.000155132
0.000160128
0.000165211
0.000169191
0.000171374
0.000171173
0.00016814
0.000162219
0.000154092
)
;
    }
    heatsource1
    {
        type            nutkWallFunction;
        Cmu             0.09;
        kappa           0.41;
        E               9.8;
        value           nonuniform List<scalar> 3(6.98238e-05 8.4942e-05 9.52177e-05);
    }
    heatsource2
    {
        type            nutkWallFunction;
        Cmu             0.09;
        kappa           0.41;
        E               9.8;
        value           nonuniform List<scalar> 4(0.000147217 9.53098e-05 9.53098e-05 0.00014294);
    }
    Table_master
    {
        type            nutkWallFunction;
        Cmu             0.09;
        kappa           0.41;
        E               9.8;
        value           nonuniform List<scalar> 9(8.91542e-05 7.91351e-05 7.09544e-05 6.42423e-05 5.86864e-05 5.40438e-05 5.01376e-05 4.68523e-05 4.41396e-05);
    }
    Table_slave
    {
        type            nutkWallFunction;
        Cmu             0.09;
        kappa           0.41;
        E               9.8;
        value           nonuniform List<scalar> 9(9.99757e-05 9.16655e-05 8.57614e-05 8.1299e-05 7.74848e-05 7.38477e-05 7.03275e-05 6.65737e-05 6.21175e-05);
    }
    inlet
    {
        type            calculated;
        value           uniform 0.000100623;
    }
    outlet
    {
        type            calculated;
        value           nonuniform List<scalar> 2(0.00178358 0.00188925);
    }
}


// ************************************************************************* //
