/*--------------------------------*- C++ -*----------------------------------*\
  =========                 |
  \\      /  F ield         | OpenFOAM: The Open Source CFD Toolbox
   \\    /   O peration     | Website:  https://openfoam.org
    \\  /    A nd           | Version:  6
     \\/     M anipulation  |
\*---------------------------------------------------------------------------*/
FoamFile
{
    version     2.0;
    format      ascii;
    class       volScalarField;
    location    "480";
    object      alphat;
}
// * * * * * * * * * * * * * * * * * * * * * * * * * * * * * * * * * * * * * //

dimensions      [1 -1 -1 0 0 0 0];

internalField   nonuniform List<scalar> 
459
(
0.00106284
0.00115932
0.00118066
0.00123827
0.00129186
0.00134241
0.00139243
0.00144297
0.00148232
0.00150495
0.00150475
0.00147611
0.00141327
0.0013059
0.00114352
0.000685707
0.000902035
0.000860875
0.000819675
0.000784068
0.000748252
0.000703915
0.000659297
0.000618376
0.000581707
0.000549249
0.000520229
0.000493958
0.000469712
0.000446609
0.000423347
0.000399966
0.000370071
0.000411357
0.00145237
0.0034246
0.00321777
0.00372943
0.00423776
0.00476135
0.00523919
0.00560931
0.00597408
0.00630811
0.00657082
0.0067127
0.00666279
0.00626802
0.00493047
0.00120014
0.000691741
0.000941307
0.00273165
0.00252836
0.00266315
0.00277159
0.0026965
0.00209848
0.00179794
0.00158966
0.00143122
0.00130065
0.0011876
0.00108631
0.000991014
0.000900112
0.000824331
0.000826271
0.000768587
0.000514625
0.00177903
0.00463804
0.00392735
0.00492506
0.00538679
0.00572961
0.00600321
0.00623793
0.00653591
0.00689327
0.00728011
0.0076432
0.00790085
0.00795067
0.00747739
0.00566561
0.00121119
0.00114465
0.00220948
0.00289643
0.0033892
0.00366858
0.00340576
0.000964453
0.000846251
0.000753173
0.000679498
0.000620551
0.000572938
0.000534252
0.000503157
0.000479757
0.000543112
0.000704998
0.000872236
0.000563418
0.00209355
0.00591277
0.0038555
0.00514434
0.00548848
0.0055562
0.00559663
0.00570638
0.00594955
0.00632058
0.00679771
0.00732364
0.0077932
0.00814219
0.00816798
0.00756339
0.00532713
0.00148985
0.0022112
0.0030062
0.00379283
0.00439201
0.00470257
0.00425416
0.00106381
0.00097082
0.000911126
0.000871043
0.000841139
0.000813967
0.000782612
0.000750423
0.000712292
0.000683891
0.000731152
0.000996579
0.00063346
0.0024136
0.0075647
0.0040984
0.00486424
0.00531832
0.00522227
0.00511177
0.0051705
0.00540777
0.00579062
0.00631834
0.00692666
0.00745683
0.00784304
0.00802325
0.0079178
0.00736239
0.00629003
0.00607417
0.00611249
0.00618198
0.00619905
0.00611947
0.00581375
0.00486373
0.0044681
0.00427496
0.00415664
0.00405511
0.00393364
0.00375052
0.00336888
0.00283028
0.00221175
0.00168908
0.00151127
0.00106901
0.000717131
0.000703591
0.00067061
0.00275189
0.00938742
0.00554478
0.00456267
0.00503447
0.00510209
0.00490506
0.0049708
0.00519967
0.0055799
0.00611908
0.00673674
0.00729444
0.00767945
0.00785439
0.00785719
0.00775967
0.00762772
0.00756569
0.00747337
0.00730487
0.00706375
0.00677069
0.00643415
0.00605066
0.00577321
0.00557892
0.00543216
0.00530939
0.00518527
0.0050209
0.00474025
0.00428722
0.00367513
0.00300298
0.00247566
0.00192525
0.00148356
0.00159898
0.000829819
0.00307566
0.0107679
0.008081
0.00558945
0.00508022
0.00520094
0.0051218
0.00510973
0.00525212
0.00561426
0.00618258
0.00684512
0.0074341
0.00781934
0.00797583
0.00799057
0.00799615
0.00803303
0.00800268
0.00781635
0.00749934
0.00711607
0.00672508
0.00637078
0.0060831
0.0058749
0.00571866
0.00559513
0.00549871
0.00541668
0.00531331
0.00514861
0.0048916
0.0044776
0.00394615
0.00340152
0.00281681
0.00224776
0.00208037
0.000978597
0.00315356
0.0101157
0.00857377
0.00737741
0.00654823
0.00606054
0.00556822
0.00532252
0.00541988
0.00585034
0.00651956
0.0072574
0.00786614
0.00822244
0.00833263
0.00830394
0.0082362
0.00812513
0.00789926
0.00754225
0.00714085
0.00675842
0.00642894
0.00616485
0.00596031
0.00579295
0.00563818
0.00549026
0.00536165
0.00526008
0.00515548
0.00500613
0.00484531
0.00469457
0.00438536
0.00403339
0.00362624
0.00297347
0.00313604
0.00122343
0.00308137
0.00370046
0.00429136
0.00446894
0.00449745
0.00449069
0.00461036
0.00494857
0.00554305
0.0063467
0.00722612
0.008012
0.00853522
0.00873855
0.00869044
0.00848998
0.00817334
0.00782188
0.00748317
0.00716052
0.00687912
0.00664725
0.00645714
0.00629456
0.0061399
0.00597
0.00576618
0.0055241
0.00525821
0.00498893
0.00469417
0.00429801
0.00381197
0.00337211
0.00302664
0.00272568
0.00246873
0.00225692
0.00211548
0.00131233
0.00252416
0.004195
0.00474282
0.00523536
0.00583448
0.00651972
0.00725052
0.00795946
0.00858186
0.00903447
0.0091708
0.00898601
0.00863154
0.00827902
0.00799099
0.00778872
0.00764492
0.00752047
0.00740821
0.00729871
0.00718897
0.00707485
0.00694394
0.00677591
0.00654538
0.00622743
0.00580893
0.00530464
0.00476083
0.00420721
0.00367549
0.00322343
0.00287801
0.00264453
0.00248488
0.00234682
0.00225356
0.00156753
0.00234084
0.00433501
0.00539116
0.00643745
0.00738391
0.00807193
0.0086675
0.00921818
0.00970096
0.0100239
0.00996547
0.00955626
0.00911053
0.00879216
0.00861571
0.00854188
0.00852049
0.00850986
0.00848188
0.00841698
0.00834026
0.00827139
0.00821285
0.00815403
0.00806694
0.00790473
0.00761095
0.00714427
0.00653664
0.00584453
0.00512732
0.00445462
0.00387349
0.00341012
0.0030564
0.00280605
0.00368743
0.00178468
0.00172814
0.00188186
0.00204538
0.00208517
0.00198059
0.00197429
0.00200691
0.00207696
0.00214318
0.00219395
0.00221721
0.00220448
0.00216169
0.00211671
0.00207516
0.00204582
0.00202844
0.00201811
0.0020104
0.00200306
0.00199538
0.00199012
0.00198677
0.00198444
0.00198145
0.00197423
0.00195775
0.00192714
0.00188088
0.00182492
0.00176352
0.00170096
0.00164261
0.00159218
0.00155317
0.0015263
0.00150636
0.00148391
0.00153196
0.00148501
)
;

boundaryField
{
    floor
    {
        type            compressible::alphatWallFunction;
        Prt             0.85;
        value           nonuniform List<scalar> 
29
(
0.000162716
9.74343e-05
0.000128774
0.00012289
0.000116966
0.000111817
0.000106609
0.00010012
9.3539e-05
8.74551e-05
8.19609e-05
7.70617e-05
7.26506e-05
6.86304e-05
6.4896e-05
6.13148e-05
5.76847e-05
5.40098e-05
4.92695e-05
5.57949e-05
5.57942e-05
7.17935e-05
7.92044e-05
8.9704e-05
0.000162714
9.74332e-05
0.000134361
0.000162876
0.00021001
)
;
    }
    ceiling
    {
        type            compressible::alphatWallFunction;
        Prt             0.85;
        value           nonuniform List<scalar> 
43
(
0.000241671
0.00026192
0.000283268
0.000288484
0.000274907
0.000274103
0.000278372
0.000287492
0.000296081
0.000302646
0.000305651
0.000304012
0.000298492
0.000292675
0.00028729
0.000283481
0.000281221
0.000279877
0.000278874
0.000277919
0.000276918
0.000276232
0.000275796
0.000275492
0.000275103
0.000274161
0.000272009
0.000268008
0.000261949
0.000254596
0.0002465
0.00023822
0.000230465
0.000223739
0.00021852
0.000214917
0.000212239
0.000209218
0.000215677
0.000209369
0.00041506
0.00049135
0.000321354
)
;
    }
    sWall
    {
        type            compressible::alphatWallFunction;
        Prt             0.85;
        value           uniform 0.000240573;
    }
    nWall
    {
        type            compressible::alphatWallFunction;
        Prt             0.85;
        value           nonuniform List<scalar> 6(9.47905e-05 0.000117988 0.000139189 0.000219963 0.000248805 0.000208888);
    }
    sideWalls
    {
        type            empty;
    }
    glass1
    {
        type            compressible::alphatWallFunction;
        Prt             0.85;
        value           nonuniform List<scalar> 9(0.000148349 0.00020125 0.000244459 0.000285298 0.000326223 0.000368889 0.000409236 0.000418961 0.000410169);
    }
    glass2
    {
        type            compressible::alphatWallFunction;
        Prt             0.85;
        value           nonuniform List<scalar> 2(0.000172561 0.000184733);
    }
    sun
    {
        type            compressible::alphatWallFunction;
        Prt             0.85;
        value           nonuniform List<scalar> 
14
(
0.000151496
0.000164914
0.000167866
0.000175806
0.000183154
0.000190053
0.000196852
0.000203692
0.000208999
0.000212044
0.000212016
0.000208161
0.000199672
0.000185068
)
;
    }
    heatsource1
    {
        type            compressible::alphatWallFunction;
        Prt             0.85;
        value           nonuniform List<scalar> 3(0.000101831 9.98451e-05 9.49874e-05);
    }
    heatsource2
    {
        type            compressible::alphatWallFunction;
        Prt             0.85;
        value           nonuniform List<scalar> 4(0.000170303 9.81064e-05 9.81052e-05 0.000171827);
    }
    Table_master
    {
        type            compressible::alphatWallFunction;
        Prt             0.85;
        value           nonuniform List<scalar> 9(0.000137401 0.000120555 0.000107094 9.62971e-05 8.75561e-05 8.04213e-05 7.457e-05 6.98286e-05 6.62363e-05);
    }
    Table_slave
    {
        type            compressible::alphatWallFunction;
        Prt             0.85;
        value           nonuniform List<scalar> 9(0.000151376 0.000138304 0.000129836 0.000124113 0.000119823 0.00011591 0.000111374 0.000106696 0.000101122);
    }
    inlet
    {
        type            fixedValue;
        value           uniform 1.94e-05;
    }
    outlet
    {
        type            zeroGradient;
    }
}


// ************************************************************************* //
