/*--------------------------------*- C++ -*----------------------------------*\
  =========                 |
  \\      /  F ield         | OpenFOAM: The Open Source CFD Toolbox
   \\    /   O peration     | Website:  https://openfoam.org
    \\  /    A nd           | Version:  6
     \\/     M anipulation  |
\*---------------------------------------------------------------------------*/
FoamFile
{
    version     2.0;
    format      ascii;
    class       volScalarField;
    location    "480";
    object      epsilon;
}
// * * * * * * * * * * * * * * * * * * * * * * * * * * * * * * * * * * * * * //

dimensions      [0 2 -3 0 0 0 0];

internalField   nonuniform List<scalar> 
459
(
0.000277729
0.000359807
0.00038003
0.000438428
0.000497855
0.000558613
0.000623411
0.000693772
0.000752059
0.000786973
0.000786574
0.000742435
0.000651522
0.000513962
0.000345008
7.43384e-05
0.000169339
0.000147243
0.000127114
0.000111266
9.67062e-05
8.05129e-05
6.61501e-05
5.45789e-05
4.54316e-05
3.82411e-05
3.24926e-05
2.78129e-05
2.39137e-05
2.05546e-05
1.7506e-05
1.47613e-05
1.16899e-05
1.603e-05
0.000709652
0.00103629
0.00033435
0.000322729
0.000336205
0.000359359
0.000394978
0.000445252
0.000497828
0.00053821
0.000552021
0.000531096
0.000476605
0.000398201
0.000318922
0.000399051
7.64285e-05
0.000192509
0.000382338
0.000193042
0.000134143
0.000104226
8.60737e-05
7.91602e-05
6.48422e-05
5.20599e-05
4.17999e-05
3.37901e-05
2.75803e-05
2.27417e-05
1.89981e-05
1.63979e-05
1.52538e-05
1.94344e-05
2.22539e-05
3.14492e-05
0.00130605
0.00255861
0.000411231
0.000301908
0.000310748
0.000343198
0.000394269
0.000463196
0.000534892
0.000589474
0.000613615
0.000601694
0.000556526
0.000485977
0.000409957
0.000359212
0.000410237
0.000346305
0.000260541
0.000185077
0.000141585
0.000113438
0.000100587
0.000207271
0.000140019
9.87121e-05
7.24845e-05
5.52088e-05
4.34505e-05
3.52293e-05
2.94284e-05
2.55095e-05
2.02821e-05
2.17091e-05
3.07057e-05
4.12877e-05
0.00213133
0.00530402
0.000644351
0.000300178
0.000295404
0.000337701
0.000408754
0.000508418
0.000600976
0.000662627
0.000688834
0.00067773
0.000632684
0.000556844
0.000476584
0.000408203
0.000369974
0.000763613
0.000458862
0.000292346
0.000205716
0.000155205
0.000124317
0.000113524
0.000278265
0.000211504
0.000174851
0.000152784
0.00013759
0.000124689
0.000110831
9.77131e-05
8.35632e-05
5.08942e-05
3.62828e-05
5.27677e-05
5.87023e-05
0.00327014
0.00944708
0.00124787
0.000341758
0.000287663
0.000337759
0.000451318
0.000614131
0.000724191
0.000780169
0.000796992
0.000774838
0.000713686
0.000620036
0.000513357
0.000413816
0.000335585
0.000305261
0.000262718
0.000221315
0.000184727
0.000154665
0.000131752
0.000116803
0.000117675
0.000112942
0.000108305
0.000103823
9.87352e-05
9.2182e-05
8.35898e-05
7.4134e-05
6.50604e-05
5.36647e-05
4.2987e-05
5.64144e-05
6.18247e-05
8.52052e-05
8.04701e-05
6.96928e-05
0.00485269
0.0140528
0.00277132
0.000600957
0.000372049
0.000400494
0.000627985
0.000853824
0.000943514
0.000968566
0.000959869
0.000918327
0.000834783
0.000710633
0.000567774
0.000435903
0.00033776
0.000280747
0.000245293
0.000216735
0.000191363
0.00016936
0.000151819
0.000139793
0.000135102
0.000134436
0.000134422
0.00013268
0.000128158
0.000120525
0.000109737
9.54734e-05
8.07601e-05
6.74726e-05
5.59524e-05
5.59404e-05
6.33597e-05
7.05582e-05
0.000173027
0.000132068
0.00678212
0.0169144
0.00600431
0.00196934
0.00114119
0.000989724
0.00124154
0.00132256
0.00130456
0.00125665
0.00120191
0.00112703
0.00100863
0.000843036
0.000657948
0.000492162
0.000374068
0.000306872
0.000270054
0.000244729
0.000224067
0.000207429
0.000195809
0.00018999
0.000190057
0.000193175
0.000194716
0.000191664
0.000183407
0.000171386
0.000157883
0.000143972
0.000126023
0.000110468
9.94344e-05
9.38369e-05
9.54645e-05
0.000103159
0.000276605
0.000216635
0.00732193
0.0204583
0.0106691
0.00650854
0.00426693
0.00320223
0.00255948
0.00212774
0.00184179
0.00166065
0.00153886
0.001418
0.00124883
0.00102321
0.000783478
0.000579607
0.000443164
0.0003709
0.000335431
0.000315115
0.000302222
0.000294666
0.0002927
0.000295823
0.000302046
0.000307369
0.000306582
0.000295976
0.000275587
0.000250613
0.000229923
0.00022046
0.000223137
0.000228563
0.000251852
0.0002907
0.000353276
0.000431183
0.00159237
0.000423655
0.00684502
0.0118321
0.0097879
0.0072837
0.00542976
0.00416573
0.00329103
0.0027009
0.00233181
0.00212052
0.00198151
0.00182056
0.00157629
0.00125748
0.000951722
0.000719994
0.000590105
0.000536369
0.000516077
0.000510903
0.000512313
0.000517339
0.000526386
0.000538642
0.000550707
0.000556596
0.000548366
0.000518885
0.000466418
0.000399949
0.000339607
0.000304526
0.000303012
0.00033298
0.000390767
0.000483508
0.000613108
0.000777821
0.000958929
0.00052331
0.00456806
0.00617952
0.00493269
0.00404965
0.00344503
0.00306884
0.00288438
0.00280023
0.00269712
0.00247062
0.00209788
0.00164239
0.00132239
0.00116514
0.00110911
0.0011026
0.00111476
0.00113747
0.00115813
0.00117282
0.00118763
0.0012055
0.00122317
0.00123178
0.00121627
0.0011576
0.00104064
0.000869017
0.000681176
0.000532312
0.00044079
0.000401139
0.000416919
0.000485751
0.000597639
0.000729594
0.000885793
0.000891956
0.00287918
0.00427529
0.00409668
0.00408222
0.00425354
0.00444735
0.00470207
0.00491485
0.00496197
0.0046985
0.00420516
0.00364756
0.00325735
0.00305446
0.00298027
0.00298531
0.00302582
0.00306914
0.00310049
0.0031127
0.00312626
0.00315596
0.00320422
0.00326184
0.0033016
0.00327612
0.00313015
0.00283457
0.00243145
0.00198467
0.00155698
0.00120409
0.000953998
0.000811141
0.000751951
0.000756102
0.00188646
0.00131628
0.00116629
0.00150459
0.00193181
0.00206301
0.00177456
0.00176224
0.0018553
0.00206055
0.00226783
0.00243613
0.00251706
0.00247577
0.00233552
0.00219344
0.00206723
0.00198104
0.00193114
0.00190189
0.00188025
0.0018598
0.00183851
0.00182403
0.00181486
0.0018085
0.00180037
0.00178078
0.00173657
0.00165642
0.00154001
0.00140662
0.0012694
0.00113906
0.00102583
0.000934234
0.000867251
0.000823027
0.000791222
0.0007564
0.000832301
0.000758348
)
;

boundaryField
{
    floor
    {
        Cmu             0.09;
        kappa           0.41;
        E               9.8;
        type            epsilonWallFunction;
        value           nonuniform List<scalar> 
29
(
0.000345008
7.43384e-05
0.000169339
0.000147243
0.000127114
0.000111266
9.67062e-05
8.05129e-05
6.61501e-05
5.45789e-05
4.54316e-05
3.82411e-05
3.24926e-05
2.78129e-05
2.39137e-05
2.05546e-05
1.7506e-05
1.47613e-05
1.16899e-05
1.603e-05
1.603e-05
3.14492e-05
4.12877e-05
5.87023e-05
0.000345008
7.43384e-05
0.000192509
0.000346305
0.000763613
)
;
    }
    ceiling
    {
        Cmu             0.09;
        kappa           0.41;
        E               9.8;
        type            epsilonWallFunction;
        value           nonuniform List<scalar> 
43
(
0.00116629
0.00150459
0.00193181
0.00206301
0.00177456
0.00176224
0.0018553
0.00206055
0.00226783
0.00243613
0.00251706
0.00247577
0.00233552
0.00219344
0.00206723
0.00198104
0.00193114
0.00190189
0.00188025
0.0018598
0.00183851
0.00182403
0.00181486
0.0018085
0.00180037
0.00178078
0.00173657
0.00165642
0.00154001
0.00140662
0.0012694
0.00113906
0.00102583
0.000934234
0.000867251
0.000823027
0.000791222
0.0007564
0.000832301
0.000758348
0.00684502
0.0118321
0.00287918
)
;
    }
    sWall
    {
        Cmu             0.09;
        kappa           0.41;
        E               9.8;
        type            epsilonWallFunction;
        value           uniform 0.00116629;
    }
    nWall
    {
        Cmu             0.09;
        kappa           0.41;
        E               9.8;
        type            epsilonWallFunction;
        value           nonuniform List<scalar> 6(6.96928e-05 0.000132068 0.000216635 0.000891956 0.00131628 0.000758348);
    }
    sideWalls
    {
        type            empty;
    }
    glass1
    {
        Cmu             0.09;
        kappa           0.41;
        E               9.8;
        type            epsilonWallFunction;
        value           nonuniform List<scalar> 9(0.000277729 0.000709652 0.00130605 0.00213133 0.00327014 0.00485269 0.00678212 0.00732193 0.00684502);
    }
    glass2
    {
        Cmu             0.09;
        kappa           0.41;
        E               9.8;
        type            epsilonWallFunction;
        value           nonuniform List<scalar> 2(0.000423655 0.00052331);
    }
    sun
    {
        Cmu             0.09;
        kappa           0.41;
        E               9.8;
        type            epsilonWallFunction;
        value           nonuniform List<scalar> 
14
(
0.000277729
0.000359807
0.00038003
0.000438428
0.000497855
0.000558613
0.000623411
0.000693772
0.000752059
0.000786973
0.000786574
0.000742435
0.000651522
0.000513962
)
;
    }
    heatsource1
    {
        Cmu             0.09;
        kappa           0.41;
        E               9.8;
        type            epsilonWallFunction;
        value           nonuniform List<scalar> 3(8.52052e-05 8.04701e-05 6.96928e-05);
    }
    heatsource2
    {
        Cmu             0.09;
        kappa           0.41;
        E               9.8;
        type            epsilonWallFunction;
        value           nonuniform List<scalar> 4(0.000399051 7.64285e-05 7.64285e-05 0.000410237);
    }
    Table_master
    {
        Cmu             0.09;
        kappa           0.41;
        E               9.8;
        type            epsilonWallFunction;
        value           nonuniform List<scalar> 9(0.000207271 0.000140019 9.87121e-05 7.24845e-05 5.52088e-05 4.34505e-05 3.52293e-05 2.94284e-05 2.55095e-05);
    }
    Table_slave
    {
        Cmu             0.09;
        kappa           0.41;
        E               9.8;
        type            epsilonWallFunction;
        value           nonuniform List<scalar> 9(0.000278265 0.000211504 0.000174851 0.000152784 0.00013759 0.000124689 0.000110831 9.77131e-05 8.35632e-05);
    }
    inlet
    {
        type            turbulentMixingLengthDissipationRateInlet;
        mixingLength    0.01;
        phi             phi;
        k               k;
        value           uniform 3.01869e-05;
    }
    outlet
    {
        type            zeroGradient;
    }
}


// ************************************************************************* //
