/*--------------------------------*- C++ -*----------------------------------*\
  =========                 |
  \\      /  F ield         | OpenFOAM: The Open Source CFD Toolbox
   \\    /   O peration     | Website:  https://openfoam.org
    \\  /    A nd           | Version:  6
     \\/     M anipulation  |
\*---------------------------------------------------------------------------*/
FoamFile
{
    version     2.0;
    format      ascii;
    class       volScalarField;
    location    "300";
    object      alphat;
}
// * * * * * * * * * * * * * * * * * * * * * * * * * * * * * * * * * * * * * //

dimensions      [1 -1 -1 0 0 0 0];

internalField   nonuniform List<scalar> 
459
(
0.00079744
0.000803838
0.000647292
0.000647788
0.000667265
0.000688418
0.000710536
0.000733872
0.000759253
0.000783871
0.000806563
0.000826143
0.000841554
0.00085138
0.000849134
0.000359816
0.000393268
0.000405002
0.000331908
0.000264536
0.00024618
0.000246829
0.000258024
0.000278432
0.000304851
0.000335685
0.000364851
0.000380128
0.000383124
0.000390045
0.000404624
0.000444049
0.000442378
0.000403544
0.00149704
0.00283509
0.00156592
0.00248554
0.00279557
0.00293628
0.0030658
0.0031837
0.00327275
0.00333567
0.00335014
0.00328307
0.00307824
0.00263984
0.00186915
0.00093535
0.00063301
0.000497551
0.00102748
0.00119502
0.00118506
0.000871147
0.00047258
0.000340783
0.000399537
0.000549553
0.000766613
0.00100512
0.00121469
0.00133707
0.00139026
0.00143358
0.00153976
0.001288
0.00109012
0.000469712
0.00212978
0.00544631
0.00213608
0.00291878
0.00411979
0.00447597
0.00464914
0.00477058
0.00484775
0.00488495
0.00485682
0.00472236
0.00441594
0.00384759
0.00296665
0.00192163
0.00101362
0.000867468
0.00231125
0.0020763
0.00175457
0.00129325
0.00086754
0.000344613
0.000374677
0.000415684
0.000455348
0.000495805
0.000538854
0.000588191
0.000649728
0.000738018
0.00192407
0.00170731
0.00135666
0.00081234
0.00270657
0.00852782
0.00371691
0.00295421
0.00441582
0.00519495
0.00555949
0.00579078
0.00595035
0.00606268
0.00612298
0.00609081
0.00589182
0.00541145
0.00452843
0.00324747
0.00191546
0.0011488
0.0028692
0.0028
0.00239465
0.00184075
0.00137007
0.00101762
0.0007395
0.000745429
0.000751795
0.000760507
0.000775272
0.000800462
0.000841271
0.000904937
0.00100691
0.00297469
0.00320367
0.00286341
0.00110143
0.00321703
0.0116222
0.0064682
0.00410598
0.00429241
0.00503239
0.00566902
0.00614009
0.00649145
0.00677974
0.00705453
0.00730304
0.00748882
0.00755529
0.00743512
0.00708082
0.00652405
0.0059209
0.00571123
0.00527509
0.00484793
0.00453486
0.00433328
0.00415425
0.0039856
0.00385909
0.00372447
0.00359155
0.00348424
0.00343
0.0034475
0.00353864
0.00369229
0.00390718
0.00395261
0.0038708
0.00329897
0.00143389
0.00124653
0.00108103
0.00367103
0.0141748
0.0101367
0.00693164
0.00537924
0.00490877
0.00518973
0.00571943
0.00623451
0.00670074
0.0071931
0.00770015
0.0081856
0.00859858
0.0088767
0.00895584
0.00879347
0.00841603
0.00794147
0.00745089
0.00702213
0.00667914
0.00640598
0.00617437
0.00595591
0.00572591
0.00546589
0.00517393
0.00487042
0.00459756
0.00439949
0.00429085
0.00424576
0.00421431
0.00414221
0.00397297
0.00361622
0.00303513
0.00217139
0.0011193
0.00403451
0.0152949
0.0130009
0.010124
0.00790926
0.00630031
0.00548961
0.00537116
0.00562077
0.00600951
0.00655914
0.00723259
0.00795868
0.00865034
0.00922072
0.00959135
0.00970245
0.00955976
0.00924355
0.00885395
0.00846775
0.00812418
0.00783397
0.00759374
0.00738783
0.00719256
0.00697898
0.00671408
0.00637232
0.00595938
0.00552868
0.00514756
0.0048427
0.00458877
0.00433055
0.00400014
0.003527
0.00291646
0.00224887
0.00112266
0.00401869
0.0129364
0.011803
0.0114084
0.00985908
0.00810881
0.00678106
0.00595454
0.00554932
0.005488
0.00573713
0.00625056
0.0069819
0.00782357
0.00863219
0.00928223
0.00967111
0.00979517
0.00971236
0.00949931
0.00922613
0.00894366
0.00868432
0.0084674
0.00830041
0.00818176
0.00810058
0.00803101
0.00792635
0.00772653
0.00739936
0.00696659
0.00646879
0.00595231
0.00543046
0.00490262
0.00428386
0.00363948
0.00313851
0.00163796
0.00381108
0.00439059
0.0123339
0.0128983
0.0110034
0.00904431
0.00753141
0.00649273
0.00584874
0.00551536
0.00544167
0.0056262
0.00606816
0.00671584
0.00746271
0.00817632
0.00874022
0.00910056
0.00926434
0.00927233
0.00917522
0.00901964
0.00884362
0.00867653
0.00854002
0.00845092
0.00842284
0.00846409
0.00856754
0.00869054
0.00873354
0.00866788
0.00851251
0.00835657
0.00828946
0.00812831
0.00764806
0.00656825
0.00608937
0.00177813
0.0265218
0.0228242
0.0130876
0.00981639
0.00821478
0.00718809
0.00652161
0.00612344
0.00593406
0.00591419
0.00603697
0.00628615
0.00663303
0.00704109
0.00745851
0.00783055
0.00811682
0.00830058
0.00838679
0.00839413
0.00834707
0.00827058
0.00818712
0.00811676
0.0080793
0.00809461
0.00817657
0.00831701
0.00847879
0.00863024
0.008722
0.00870644
0.00850297
0.00801317
0.00723369
0.00618246
0.0049483
0.00168
0.00874306
0.017109
0.0119226
0.00910866
0.00761758
0.00672536
0.00618739
0.00589402
0.00578049
0.00580149
0.00592015
0.0061063
0.00633604
0.00658891
0.00684389
0.00707867
0.00727354
0.00741645
0.00750511
0.00754542
0.007548
0.00752443
0.00748446
0.00743395
0.00738139
0.00733767
0.00730281
0.0072783
0.00726399
0.00725164
0.00722404
0.00710646
0.00679462
0.00626986
0.0054971
0.00444928
0.00370817
0.00160149
0.00208681
0.0033378
0.00617593
0.00545614
0.0043827
0.00358152
0.00301928
0.00261876
0.00232639
0.00210944
0.00194814
0.00183024
0.0017473
0.00169262
0.0016603
0.0016446
0.00164028
0.00164255
0.00164725
0.00165117
0.00165229
0.00164973
0.00164353
0.00163431
0.00162292
0.0016104
0.00159743
0.00158427
0.00157199
0.00156096
0.00155071
0.00153865
0.00152015
0.00149356
0.00146216
0.00142131
0.00136306
0.00127382
0.00121931
0.00139702
)
;

boundaryField
{
    floor
    {
        type            compressible::alphatWallFunction;
        Prt             0.85;
        value           nonuniform List<scalar> 
29
(
0.000120886
4.73095e-05
5.26195e-05
5.44653e-05
4.2821e-05
3.17926e-05
2.87286e-05
2.88397e-05
3.07129e-05
3.41011e-05
3.84367e-05
4.34353e-05
4.81103e-05
5.05415e-05
5.10171e-05
5.21146e-05
5.44159e-05
6.05871e-05
6.03337e-05
5.42566e-05
5.42559e-05
6.45671e-05
0.000115571
0.000156546
0.000120884
4.73089e-05
6.88231e-05
0.000123468
0.000163108
)
;
    }
    ceiling
    {
        type            compressible::alphatWallFunction;
        Prt             0.85;
        value           nonuniform List<scalar> 
43
(
0.000288844
0.000446828
0.000785356
0.000701295
0.000573844
0.000476688
0.000407192
0.000356868
0.000319622
0.00029166
0.000270669
0.000255204
0.000244259
0.000237009
0.000232709
0.000230614
0.000230035
0.000230332
0.000230954
0.000231471
0.000231616
0.000231271
0.000230443
0.00022921
0.000227688
0.000226014
0.000224278
0.000222515
0.000220869
0.000219388
0.000218012
0.000216392
0.000213906
0.000210328
0.000206094
0.000200572
0.000192669
0.000180489
0.000173004
0.000197281
0.000504659
0.0005747
0.00107809
)
;
    }
    sWall
    {
        type            compressible::alphatWallFunction;
        Prt             0.85;
        value           uniform 0.000287896;
    }
    nWall
    {
        type            compressible::alphatWallFunction;
        Prt             0.85;
        value           nonuniform List<scalar> 6(0.000153542 0.000158874 0.000159339 0.000234916 0.000224456 0.000196969);
    }
    sideWalls
    {
        type            empty;
    }
    glass1
    {
        type            compressible::alphatWallFunction;
        Prt             0.85;
        value           nonuniform List<scalar> 9(0.000110366 0.000206096 0.000288572 0.000361626 0.000425026 0.000480615 0.00052467 0.000522926 0.000498072);
    }
    glass2
    {
        type            compressible::alphatWallFunction;
        Prt             0.85;
        value           nonuniform List<scalar> 2(0.00022837 0.000246903);
    }
    sun
    {
        type            compressible::alphatWallFunction;
        Prt             0.85;
        value           nonuniform List<scalar> 
14
(
0.000113453
0.000114359
9.14507e-05
9.15252e-05
9.44095e-05
9.75302e-05
0.000100781
0.000104197
0.000107898
0.000111473
0.000114756
0.000117581
0.000119798
0.000121209
)
;
    }
    heatsource1
    {
        type            compressible::alphatWallFunction;
        Prt             0.85;
        value           nonuniform List<scalar> 3(0.000202214 0.000176697 0.000153788);
    }
    heatsource2
    {
        type            compressible::alphatWallFunction;
        Prt             0.85;
        value           nonuniform List<scalar> 4(0.000133278 8.94114e-05 8.94103e-05 0.000144334);
    }
    Table_master
    {
        type            compressible::alphatWallFunction;
        Prt             0.85;
        value           nonuniform List<scalar> 9(4.49991e-05 4.98052e-05 5.62808e-05 6.24657e-05 6.87039e-05 7.52714e-05 8.2718e-05 9.18987e-05 0.000104887);
    }
    Table_slave
    {
        type            compressible::alphatWallFunction;
        Prt             0.85;
        value           nonuniform List<scalar> 9(0.000105096 0.000105961 0.000106888 0.000108155 0.000110299 0.000113946 0.000119828 0.000128939 0.000143381);
    }
    inlet
    {
        type            fixedValue;
        value           uniform 1.94e-05;
    }
    outlet
    {
        type            zeroGradient;
    }
}


// ************************************************************************* //
