/*--------------------------------*- C++ -*----------------------------------*\
  =========                 |
  \\      /  F ield         | OpenFOAM: The Open Source CFD Toolbox
   \\    /   O peration     | Website:  https://openfoam.org
    \\  /    A nd           | Version:  6
     \\/     M anipulation  |
\*---------------------------------------------------------------------------*/
FoamFile
{
    version     2.0;
    format      ascii;
    class       surfaceScalarField;
    location    "1200";
    object      phi;
}
// * * * * * * * * * * * * * * * * * * * * * * * * * * * * * * * * * * * * * //

dimensions      [1 0 -1 0 0 0 0];

internalField   nonuniform List<scalar> 
852
(
0.0061827
-0.0061724
0.0102199
-0.00403766
0.0124504
-0.00223089
0.0136997
-0.00124971
0.0144313
-0.000732057
0.014827
-0.000396091
0.0149535
-0.000127013
0.0148376
0.000115542
0.0144824
0.000354747
0.0138623
0.000619664
0.0129215
0.000940467
0.0115529
0.00136814
0.00953796
0.00201455
0.00630531
0.00323224
0.00630133
0.000193892
-0.000198667
8.22706e-05
0.000111957
4.97627e-05
3.28354e-05
-5.03835e-06
5.50589e-05
-5.74895e-05
5.26906e-05
-4.76323e-05
-9.6407e-06
4.2284e-05
-8.9682e-05
0.000103982
-6.15329e-05
0.000184422
-8.03605e-05
0.000300306
-0.000115793
0.000375862
-7.53698e-05
0.000491449
-0.000115347
0.000608175
-0.000116478
0.000698382
-8.99472e-05
0.000721596
-2.29798e-05
0.000629756
9.20042e-05
0.000405618
0.00022425
-4.09942e-05
0.000446664
-4.6632e-05
0.00463942
-0.0107817
0.007649
-0.00704768
0.00936087
-0.0039432
0.0103183
-0.00220758
0.0108929
-0.00130705
0.0112429
-0.00074648
0.0114205
-0.000305055
0.0114239
0.000111723
0.01123
0.00054822
0.0108202
0.00102907
0.0101706
0.00158966
0.00926141
0.00227699
0.00812429
0.00315127
0.00711482
0.00424132
0.00793378
0.00548197
0.00348038
0.00445296
0.00347994
-0.000214148
2.07932e-06
-0.000129382
2.75796e-05
-0.000149757
5.36343e-05
-0.000137385
4.31197e-05
-0.000145253
6.09724e-05
-0.000229442
7.49182e-05
-0.000276164
-4.26676e-05
-0.000275276
-6.22258e-05
-9.02388e-05
-0.000265194
0.000144708
-0.000350576
0.000219354
-0.000149852
0.000226651
-0.000122415
0.000196774
-8.6374e-05
0.000113154
-6.20503e-06
-1.04673e-05
0.000100724
-0.000156962
0.000238565
-0.000178803
0.000246112
4.90318e-05
0.000218842
-1.1566e-05
0.00311916
-0.0138519
0.00515826
-0.00908723
0.00618827
-0.00497364
0.00668944
-0.00270915
0.00701921
-0.0016372
0.00727409
-0.00100174
0.00748238
-0.00051372
0.00761433
-2.05913e-05
0.0076285
0.000533681
0.00750701
0.00115018
0.0072375
0.0018588
0.00682958
0.00268454
0.00634061
0.00363986
0.00586408
0.00471747
0.00534464
0.00600102
0.00348913
0.00630808
0.00696868
-0.000791996
0.000771019
-0.000647048
-0.000116914
-0.00030998
-0.00028292
2.94151e-05
-0.00029574
0.000312791
-0.000221902
0.000506293
-0.000118139
0.00046408
0.000402218
0.00013748
-0.000212829
-0.000362506
-0.000484716
-0.000570852
-0.000576845
-0.000476085
-0.000226822
-1.10153e-05
-1.131e-05
3.03456e-05
0.000193185
1.41001e-05
0.000159822
0.00186494
-0.01565
0.00303799
-0.0102607
0.00335936
-0.00529542
0.00332956
-0.00267973
0.00344422
-0.00175222
0.00366558
-0.00122344
0.00392731
-0.000775792
0.00418371
-0.00027732
0.00438815
0.000328909
0.00449874
0.00103925
0.00450891
0.00184829
0.00442768
0.00276542
0.00427185
0.00379533
0.00404632
0.00494262
0.00382001
0.00622696
0.00347903
0.00664868
0.00379899
0.00664832
-0.000537171
0.00430912
-0.000761499
0.000995416
-0.000563511
-0.000314912
-0.000112523
-0.000733936
0.000329405
-0.00073766
0.000688722
-0.000581192
0.000962139
-0.000391532
0.00112629
-0.000164335
0.0011236
2.4371e-06
0.000993172
0.000130163
0.000785702
0.000207244
0.00056257
0.000222997
0.000370524
0.000191979
0.000212153
0.000158318
7.96056e-05
0.000132501
6.23936e-05
1.71782e-05
0.000210396
-0.00015906
0.000452089
-0.000211538
0.000673062
-0.000207071
0.000799445
0.000775885
-0.0163416
0.00121118
-0.0106965
0.000930601
-0.00501524
0.000533819
-0.0022833
0.000657236
-0.00187597
0.000982288
-0.00154882
0.00133096
-0.00112478
0.0016389
-0.000585575
0.00187729
9.01969e-05
0.00204747
0.000868758
0.00217044
0.00172498
0.0022531
0.00268241
0.00231252
0.00373555
0.00237601
0.00487877
0.00252964
0.00607295
0.00260809
0.00656985
0.00254098
0.00671504
0.00207071
0.00477908
0.000913402
0.00215256
0.00043972
0.000158578
0.000487149
-0.000781609
0.000702824
-0.000953563
0.000900721
-0.00077928
0.00100636
-0.000497335
0.00104116
-0.000199281
0.000984481
5.89814e-05
0.00087782
0.000236709
0.000759403
0.000325568
0.000651271
0.000331065
0.000562052
0.000281161
0.000507504
0.00021286
0.000504257
0.000135776
0.000481137
4.03245e-05
0.000422655
-0.000100574
0.000458047
-0.000246952
0.000682778
-0.000431826
0.00137656
0.000105617
0.000451502
0.000924826
-0.000820188
0.00127135
-0.000866001
-0.000213087
-0.0160274
-0.000423674
-0.0104863
-0.000920975
-0.00451833
-0.00147761
-0.00172701
-0.00139068
-0.00196324
-0.00111007
-0.00182975
-0.000801368
-0.00143381
-0.000529336
-0.000857929
-0.000302932
-0.000136528
-0.000109131
0.000674632
7.36908e-05
0.00154183
0.000263906
0.00249185
0.000483206
0.0035159
0.000757873
0.00460373
0.00112163
0.00570882
0.00141485
0.00627625
0.00169835
0.00643116
0.00184972
0.00462739
0.00165442
0.00234763
0.00136742
0.000445332
0.00119647
-0.000610928
0.00113786
-0.000895228
0.00111284
-0.000754509
0.00106658
-0.000451301
0.000988198
-0.000121094
0.000887698
0.000159312
0.000790858
0.000333402
0.000716963
0.000399334
0.000666434
0.000381478
0.000629608
0.000317885
0.000598798
0.00024359
0.000559074
0.000175444
0.000485473
0.000113888
0.000344521
4.03684e-05
0.00013645
-3.88981e-05
-0.00020589
-8.94908e-05
-0.000408785
0.000308431
-0.000565554
0.0010815
-0.00066304
0.00136876
-0.00157402
-0.00141599
-0.0144945
-0.00221149
-0.00969129
-0.0027368
-0.00399343
-0.00351246
-0.000951704
-0.00344151
-0.00203455
-0.00315112
-0.0021205
-0.0028437
-0.00174157
-0.00257559
-0.00112639
-0.00233262
-0.000379829
-0.0021038
0.000445465
-0.00187219
0.00130988
-0.00160035
0.00221966
-0.00126556
0.00318074
-0.000841363
0.00417917
-0.000291159
0.00515825
0.000260896
0.00572382
0.000827302
0.00586438
0.00130479
0.00414957
0.00160136
0.00205078
0.00163342
0.000412996
0.00150045
-0.000478233
0.00132485
-0.000719892
0.00115028
-0.00058018
0.000984221
-0.000285462
0.000826903
3.60085e-05
0.000704579
0.000281448
0.000629417
0.000408395
0.000594491
0.000434099
0.000579915
0.000395899
0.000564454
0.000333198
0.000533921
0.000273988
0.000479612
0.000229634
0.000394829
0.000198573
0.00026507
0.000170055
7.91391e-05
0.000146995
-0.000197961
0.000187582
-0.000433695
0.000544098
-0.000481066
0.00112878
-9.31673e-05
0.000980798
-0.00171097
-0.0041652
-0.0101974
-0.00622289
-0.00763408
-0.00604411
-0.00417265
-0.00625091
-0.000745291
-0.00564686
-0.00263898
-0.00509737
-0.00267036
-0.00470144
-0.00213786
-0.00441513
-0.00141306
-0.00417366
-0.000621658
-0.00393049
0.000201939
-0.00366134
0.00104036
-0.00332262
0.00188058
-0.00288606
0.00274381
-0.00232587
0.00361861
-0.00160774
0.00443974
-0.000824659
0.00494036
2.20199e-05
0.00501732
0.000756301
0.00341495
0.0013005
0.00150628
0.00146565
0.000247568
0.00135096
-0.000363807
0.0011206
-0.00048978
0.000872597
-0.000332406
0.000644801
-5.78756e-05
0.000476887
0.000203728
0.000389554
0.000368594
0.000363778
0.000433988
0.00037088
0.000426817
0.000383407
0.000383189
0.000383556
0.000332867
0.000365897
0.000291471
0.000333795
0.000261572
0.000294983
0.000237238
0.000257969
0.000206942
0.000239594
0.000165264
0.000289189
0.000137891
0.000573189
0.000260001
0.00116295
0.000538915
0.00181503
0.000328634
-0.000198581
-0.0100809
-0.0177413
-0.0118561
-0.0100584
-0.00828653
-0.00431528
-0.00706063
-0.00386528
-0.00642898
-0.0033024
-0.00608508
-0.00248214
-0.00587994
-0.00161857
-0.00572096
-0.000781012
-0.00553279
1.33985e-05
-0.00524991
0.000757105
-0.00485015
0.00148044
-0.00431365
0.00220693
-0.00361699
0.00292157
-0.0027391
0.00356148
-0.00174574
0.00394662
-0.0006302
0.00390141
0.000260715
0.00252371
0.000829192
0.000937515
0.000955987
0.000120504
0.000817648
-0.000225718
0.000563439
-0.000235807
0.000301315
-7.05096e-05
0.00010614
0.000137077
1.56184e-05
0.000294045
4.83989e-06
0.000379174
3.77195e-05
0.000400912
8.34357e-05
0.000380903
0.000122404
0.000344021
0.000147491
0.000307578
0.00016082
0.000277944
0.00016977
0.000252431
0.000184471
0.000222359
0.000217538
0.000173712
0.000291989
9.0663e-05
0.000464863
-3.51282e-05
0.000860459
-0.000135742
0.00156252
-0.000163303
0.00215543
-0.000264413
0.00161714
-0.00851959
0.000654727
-0.00711222
-0.00572312
-0.00672107
-0.00425688
-0.00677368
-0.00325019
-0.00691847
-0.00233773
-0.00698938
-0.00154805
-0.00693692
-0.000833856
-0.00677024
-0.000153662
-0.0064695
0.000455991
-0.0060344
0.00104496
-0.00541868
0.00159084
-0.00459912
0.00210163
-0.00357053
0.00253252
-0.00238512
0.00276083
-0.00108755
0.0026035
-0.000153686
0.00158954
0.000232866
0.000550677
0.000244655
0.000108458
6.4535e-05
-4.58479e-05
-0.000168624
-2.88429e-06
-0.000346275
0.000106891
-0.000418531
0.000209092
-0.0004071
0.000282384
-0.000346676
0.00031853
-0.000266936
0.000320959
-0.000188915
0.000302669
-0.000122473
0.000277365
-6.84455e-05
0.000253337
-2.30246e-05
0.000232312
1.94357e-05
0.000209767
6.32745e-05
0.000178327
0.000108633
0.000128172
0.000149734
4.93918e-05
0.000174034
-5.95853e-05
0.000167373
-0.000129226
0.000126003
-0.00012207
-8.15128e-05
-5.70227e-05
0.00147452
-0.000540277
0.00115013
-0.00319128
-0.00307265
-0.00448409
-0.00296458
-0.00576012
-0.00197457
-0.0068061
-0.00129214
-0.00753026
-0.000824273
-0.00790751
-0.00045698
-0.00791911
-0.000142442
-0.00766932
0.000205823
-0.00717854
0.000553811
-0.00645154
0.000863466
-0.0054859
0.00113563
-0.00430025
0.00134653
-0.00296674
0.00142699
-0.00163068
0.00126714
-0.000771321
0.000729917
-0.000507823
0.000286919
-0.000512017
0.000112387
-0.000631377
7.32428e-05
-0.000733502
9.89718e-05
-0.000779926
0.000153046
-0.000770248
0.000199153
-0.000714262
0.000226147
-0.000629454
0.000233482
-0.00053455
0.000225823
-0.000442461
0.000210354
-0.000358569
0.000193251
-0.000282946
0.000177496
-0.000213597
0.00016275
-0.00015001
0.000145972
-9.46439e-05
0.000122762
-5.55433e-05
8.88804e-05
-4.88804e-05
4.25496e-05
-9.35108e-05
-1.51184e-05
-0.000151832
-7.10511e-05
-0.000246589
-2.7443e-05
-0.000654982
0.000351256
0.000741505
0.000151267
0.00256594
0.00359259
0.000386743
-0.00269983
-0.00479263
-0.00620385
-0.00714907
-0.00772853
-0.00799415
-0.00791118
-0.00747963
-0.00673764
-0.00572211
-0.00449351
-0.00318116
-0.0020241
-0.00139905
-0.00121325
-0.00120053
-0.00122684
-0.00122806
-0.00117619
-0.00107916
-0.000955808
-0.0008254
-0.00070258
-0.00059494
-0.000504031
-0.000428513
-0.000367414
-0.000322796
-0.000301081
-0.000312908
-0.000370755
-0.00048593
-0.000655945
-0.000781224
-0.000529892
)
;

boundaryField
{
    floor
    {
        type            calculated;
        value           nonuniform List<scalar> 
29
(
0
0
0
0
0
0
0
0
0
0
0
0
0
0
0
0
0
0
0
0
5.67465e-06
1.39223e-05
2.18164e-05
3.32709e-05
3.58699e-06
5.10402e-06
1.36856e-05
2.34343e-05
2.67703e-05
)
;
    }
    ceiling
    {
        type            calculated;
        value           nonuniform List<scalar> 
43
(
0.000204438
0.000216445
0.000123055
0.000132734
0.000121316
0.000117827
0.000118689
0.000120559
0.000122104
0.000122803
0.000122488
0.000121909
0.00012112
0.000119772
0.000117607
0.000114351
0.000109814
0.000104633
0.000100855
9.93862e-05
9.92564e-05
9.98988e-05
0.000100882
0.000101845
0.000102525
0.000102816
0.000102757
0.000102476
0.000102113
0.000101755
0.000101435
0.000101143
0.000100841
0.000100508
0.000100209
9.98881e-05
9.88203e-05
9.77139e-05
9.98142e-05
0.000112495
3.01116e-05
2.57925e-05
4.44024e-05
)
;
    }
    sWall
    {
        type            calculated;
        value           uniform 0.000104122;
    }
    nWall
    {
        type            calculated;
        value           nonuniform List<scalar> 6(4.56039e-05 4.49421e-05 4.37212e-05 6.09987e-05 7.79262e-05 9.90161e-05);
    }
    sideWalls
    {
        type            empty;
        value           nonuniform 0();
    }
    glass1
    {
        type            calculated;
        value           nonuniform List<scalar> 9(-1.07327e-05 -3.06181e-05 -4.93334e-05 -6.73332e-05 -8.47626e-05 -0.000101564 -0.00011743 -0.000132391 -0.000147039);
    }
    glass2
    {
        type            calculated;
        value           nonuniform List<scalar> 2(0.000302562 0.000339589);
    }
    sun
    {
        type            calculated;
        value           uniform 0;
    }
    heatsource1
    {
        type            calculated;
        value           nonuniform List<scalar> 3(1.92136e-07 1.91278e-07 1.91106e-07);
    }
    heatsource2
    {
        type            calculated;
        value           nonuniform List<scalar> 4(4.74189e-08 4.78962e-08 0 0);
    }
    Table_master
    {
        type            calculated;
        value           nonuniform List<scalar> 9(-1.45934e-07 -1.4618e-07 -1.46449e-07 -1.46621e-07 -1.46558e-07 -1.46457e-07 -1.46346e-07 -1.46235e-07 -1.46094e-07);
    }
    Table_slave
    {
        type            calculated;
        value           nonuniform List<scalar> 9(1.4432e-07 1.44295e-07 1.44249e-07 1.44256e-07 1.44312e-07 1.44397e-07 1.44481e-07 1.44568e-07 1.44682e-07);
    }
    inlet
    {
        type            calculated;
        value           uniform -0.00219414;
    }
    outlet
    {
        type            calculated;
        value           nonuniform List<scalar> 2(-0.000460033 -0.00263133);
    }
}


// ************************************************************************* //
