// -*- C++ -*-
// File generated by PyFoam - sorry for the ugliness

FoamFile
{
 version 2.0;
 format ascii;
 class volScalarField;
 location "1200";
 object T;
}

dimensions [ 0 0 0 1 0 0 0 ];

internalField nonuniform List<scalar> 459
(
  312.02
  312.039
  312.063
  312.083
  312.1
  312.114
  312.125
  312.135
  312.145
  312.155
  312.166
  312.176
  312.187
  312.199
  312.209
  309.352
  309.253
  309.12
  309.138
  309.193
  309.256
  309.394
  309.474
  309.663
  309.743
  309.665
  309.607
  309.564
  309.518
  309.468
  309.458
  309.502
  309.665
  309.901
  311.977
  312.041
  312.117
  312.175
  312.219
  312.252
  312.275
  312.289
  312.3
  312.307
  312.309
  312.306
  312.297
  312.28
  312.256
  312.272
  312.304
  309.847
  309.927
  309.995
  310.042
  310.073
  310.092
  310.057
  310.133
  310.201
  310.163
  310.095
  310.027
  309.983
  309.962
  310.014
  310.083
  310.093
  310.154
  310.363
  311.942
  312.06
  312.225
  312.348
  312.436
  312.497
  312.536
  312.552
  312.552
  312.537
  312.51
  312.474
  312.429
  312.38
  312.331
  312.316
  312.326
  310.889
  311.03
  311.209
  311.307
  311.286
  311.205
  310.957
  310.75
  310.495
  310.333
  310.392
  310.45
  310.53
  310.636
  310.755
  310.944
  310.953
  311.01
  311.055
  311.91
  312.081
  312.37
  312.579
  312.71
  312.782
  312.819
  312.831
  312.807
  312.761
  312.699
  312.626
  312.549
  312.472
  312.399
  312.359
  312.346
  312.235
  311.511
  311.88
  312.097
  312.217
  312.257
  312.277
  312.4
  312.476
  312.543
  312.594
  312.615
  312.607
  312.586
  312.544
  312.428
  312.224
  312.171
  312.087
  311.94
  311.878
  312.093
  312.518
  312.806
  312.908
  312.932
  312.943
  312.946
  312.927
  312.879
  312.807
  312.721
  312.628
  312.536
  312.45
  312.397
  312.371
  312.293
  312.05
  312.119
  312.323
  312.491
  312.603
  312.675
  312.739
  312.775
  312.789
  312.793
  312.791
  312.786
  312.777
  312.765
  312.768
  312.751
  312.751
  312.696
  312.398
  312.525
  313.236
  313.581
  311.844
  312.087
  312.613
  312.91
  312.936
  312.934
  312.939
  312.946
  312.943
  312.907
  312.84
  312.753
  312.66
  312.566
  312.48
  312.423
  312.392
  312.331
  312.203
  312.249
  312.387
  312.569
  312.729
  312.841
  312.912
  312.952
  312.963
  312.961
  312.959
  312.962
  312.972
  312.989
  313.016
  313.034
  313.042
  313
  312.908
  312.953
  313.359
  313.635
  311.803
  312.044
  312.554
  312.903
  312.905
  312.888
  312.886
  312.888
  312.884
  312.86
  312.808
  312.738
  312.658
  312.575
  312.497
  312.442
  312.409
  312.36
  312.291
  312.349
  312.499
  312.691
  312.864
  312.99
  313.071
  313.115
  313.126
  313.127
  313.134
  313.151
  313.179
  313.213
  313.25
  313.28
  313.289
  313.256
  313.186
  313.204
  313.425
  313.69
  311.737
  311.907
  312.319
  312.902
  312.88
  312.834
  312.817
  312.81
  312.801
  312.783
  312.746
  312.694
  312.633
  312.567
  312.505
  312.457
  312.428
  312.388
  312.378
  312.492
  312.69
  312.897
  313.069
  313.189
  313.268
  313.297
  313.304
  313.312
  313.332
  313.364
  313.403
  313.442
  313.474
  313.497
  313.502
  313.479
  313.419
  313.401
  313.517
  313.764
  311.61
  311.555
  311.533
  313.126
  312.924
  312.808
  312.769
  312.747
  312.729
  312.709
  312.683
  312.646
  312.602
  312.555
  312.51
  312.475
  312.452
  312.443
  312.535
  312.74
  312.974
  313.177
  313.33
  313.434
  313.48
  313.493
  313.501
  313.518
  313.546
  313.582
  313.618
  313.65
  313.675
  313.69
  313.696
  313.689
  313.665
  313.65
  313.701
  313.904
  309.672
  313.691
  313.076
  312.827
  312.762
  312.726
  312.697
  312.671
  312.647
  312.621
  312.591
  312.56
  312.533
  312.516
  312.519
  312.58
  312.801
  313.068
  313.291
  313.465
  313.58
  313.637
  313.66
  313.671
  313.683
  313.702
  313.728
  313.757
  313.785
  313.808
  313.826
  313.837
  313.842
  313.839
  313.829
  313.822
  313.834
  313.893
  312.795
  315.081
  313.354
  312.882
  312.796
  312.756
  312.724
  312.697
  312.673
  312.654
  312.636
  312.623
  312.619
  312.634
  312.69
  312.843
  313.111
  313.359
  313.539
  313.659
  313.731
  313.768
  313.786
  313.797
  313.809
  313.826
  313.847
  313.869
  313.89
  313.907
  313.919
  313.925
  313.926
  313.919
  313.908
  313.901
  313.904
  313.915
  322.13
  320.857
  317.958
  317.515
  313.769
  312.934
  312.872
  312.853
  312.838
  312.825
  312.814
  312.806
  312.805
  312.814
  312.84
  312.893
  313
  313.197
  313.439
  313.624
  313.744
  313.815
  313.855
  313.875
  313.886
  313.895
  313.905
  313.919
  313.935
  313.952
  313.967
  313.979
  313.987
  313.988
  313.982
  313.968
  313.952
  313.944
  313.945
  313.962
)
;

boundaryField
{
  floor
  {
    type wallHeatTransfer;
    Tinf uniform 305.2;
    alphaWall uniform 0.24;
    value nonuniform List<scalar> 29
(
  311.697
  308.648
  308.552
  308.266
  308.176
  308.18
  308.186
  308.26
  308.277
  308.412
  308.46
  308.394
  308.378
  308.39
  308.385
  308.364
  308.425
  308.61
  308.945
  309.116
  309.116
  309.718
  310.445
  311.272
  311.697
  308.648
  309.215
  310.235
  311.604
)
;
  }
  ceiling
  {
    type wallHeatTransfer;
    Tinf uniform 303.2;
    alphaWall uniform 0.24;
    value nonuniform List<scalar> 43
(
  320.857
  319.519
  317.2
  316.7
  313.042
  312.229
  312.16
  312.128
  312.104
  312.087
  312.076
  312.072
  312.077
  312.095
  312.135
  312.21
  312.344
  312.573
  312.837
  313.03
  313.15
  313.217
  313.251
  313.265
  313.272
  313.28
  313.291
  313.306
  313.325
  313.343
  313.36
  313.374
  313.384
  313.387
  313.383
  313.371
  313.361
  313.359
  313.347
  313.291
  311.366
  311.341
  312.494
)
;
  }
  sWall
  {
    type wallHeatTransfer;
    Tinf uniform 315.2;
    alphaWall uniform 0.36;
    value uniform 321.453;
  }
  nWall
  {
    type wallHeatTransfer;
    Tinf uniform 307.2;
    alphaWall uniform 0.36;
    value nonuniform List<scalar> 6
(
  312.861
  313.052
  313.209
  313.433
  313.384
  313.349
)
;
  }
  sideWalls
  {
    type empty;
  }
  glass1
  {
    type wallHeatTransfer;
    Tinf uniform 315.2;
    alphaWall uniform 4.3;
    value nonuniform List<scalar> 9
(
  313.571
  313.467
  313.391
  313.328
  313.268
  313.207
  313.135
  313.034
  312.868
)
;
  }
  glass2
  {
    type wallHeatTransfer;
    Tinf uniform 307.2;
    alphaWall uniform 4.3;
    value nonuniform List<scalar> 2
(
  310.921
  311.083
)
;
  }
  sun
  {
    type wallHeatTransfer;
    Tinf uniform 305.2;
    alphaWall uniform 0.24;
    value nonuniform List<scalar> 14
(
  311.678
  311.683
  311.693
  311.701
  311.706
  311.711
  311.713
  311.715
  311.717
  311.719
  311.72
  311.72
  311.718
  311.712
)
;
  }
  heatsource1
  {
    type fixedGradient;
    gradient uniform 0;
  }
  heatsource2
  {
    type fixedGradient;
    gradient uniform 0;
  }
  Table_master
  {
    type zeroGradient;
  }
  Table_slave
  {
    type zeroGradient;
  }
  inlet
  {
    type fixedValue;
    value uniform 290.15;
  }
  outlet
  {
    type zeroGradient;
  }
} 	// ************************************************************************* //

