/*--------------------------------*- C++ -*----------------------------------*\
  =========                 |
  \\      /  F ield         | OpenFOAM: The Open Source CFD Toolbox
   \\    /   O peration     | Website:  https://openfoam.org
    \\  /    A nd           | Version:  6
     \\/     M anipulation  |
\*---------------------------------------------------------------------------*/
FoamFile
{
    version     2.0;
    format      ascii;
    class       volScalarField;
    location    "500";
    object      nut;
}
// * * * * * * * * * * * * * * * * * * * * * * * * * * * * * * * * * * * * * //

dimensions      [0 2 -1 0 0 0 0];

internalField   nonuniform List<scalar> 
459
(
0.000979455
0.00105927
0.00107096
0.00111828
0.0011612
0.00120032
0.0012373
0.00127415
0.00130657
0.00132681
0.00132992
0.00131171
0.0012713
0.00121464
0.00115307
0.000427768
0.00052455
0.000563903
0.00054484
0.000519305
0.000492077
0.000463623
0.00043686
0.000412662
0.000390984
0.000371561
0.000354213
0.000338575
0.000324253
0.000310785
0.000297489
0.00028327
0.000275212
0.00025359
0.00136399
0.00305004
0.00283127
0.00328028
0.00369131
0.00411316
0.00451332
0.00483923
0.00510207
0.00532917
0.00548169
0.00550494
0.00531536
0.00474158
0.00335192
0.00116034
0.0007999
0.000545624
0.000904891
0.00114391
0.00129854
0.00136259
0.00134658
0.00116026
0.00103586
0.000940693
0.000864204
0.000800994
0.000745491
0.00069505
0.000647525
0.000602099
0.000563484
0.000526226
0.00063135
0.000347174
0.00169093
0.00418033
0.00340485
0.00441095
0.00484577
0.00515856
0.00539445
0.00557977
0.00575788
0.00595678
0.0061519
0.0063044
0.00636245
0.00625777
0.00587065
0.00477484
0.00113904
0.000957523
0.00126342
0.00149061
0.00166373
0.00176533
0.00170658
0.000643759
0.00057844
0.00052527
0.000481753
0.000445809
0.00041582
0.000390606
0.000369388
0.000351761
0.000376524
0.000426847
0.000707313
0.000408512
0.00201148
0.00551147
0.00334111
0.00468117
0.00512431
0.00525072
0.00528487
0.00532928
0.00543351
0.00561117
0.00583501
0.00607234
0.00627488
0.0063818
0.00635146
0.005993
0.00469464
0.00126161
0.00157284
0.00193064
0.00219448
0.00236463
0.00246111
0.00232436
0.00071613
0.000666479
0.000633252
0.000609145
0.00058815
0.000566256
0.000544707
0.000521054
0.000492022
0.000461585
0.00045904
0.000819568
0.000456121
0.00234052
0.00726538
0.00370401
0.00441103
0.0050911
0.00515099
0.00504606
0.0049855
0.00506576
0.00524684
0.00548917
0.00576955
0.00602851
0.00617437
0.00616608
0.00595377
0.00543057
0.00441917
0.00395557
0.0036953
0.00352831
0.00343354
0.00339316
0.00333486
0.00297817
0.00283865
0.0027726
0.00271606
0.00263495
0.00249498
0.00225315
0.00193501
0.00156588
0.00117667
0.000861467
0.000835777
0.000599882
0.000583765
0.00070529
0.000787758
0.00268859
0.00917877
0.00535707
0.00416692
0.00470777
0.00498522
0.00502358
0.00482115
0.00492349
0.00509802
0.00533853
0.00562636
0.00589314
0.0060467
0.00601189
0.00576566
0.00534893
0.0048627
0.00450471
0.00425091
0.00406574
0.00394743
0.00387575
0.00381821
0.00373233
0.00366575
0.00360115
0.00352208
0.00341971
0.00328735
0.00307694
0.0027672
0.0023568
0.00186777
0.00140622
0.00101518
0.000797222
0.000700945
0.00102219
0.000818527
0.00301875
0.010604
0.00803511
0.00552618
0.00487022
0.00487764
0.00502214
0.00500649
0.00502807
0.00513715
0.00535768
0.00565289
0.00593011
0.00607443
0.00599594
0.005681
0.00521435
0.00477314
0.00449443
0.00432146
0.00416251
0.00399526
0.00384099
0.00373119
0.00366344
0.00361757
0.00356761
0.00350319
0.00342422
0.00333661
0.00324173
0.00303926
0.00270118
0.00226583
0.00183501
0.00142438
0.00114921
0.00107063
0.00111174
0.000908427
0.00309138
0.0097911
0.00847997
0.00750129
0.00665986
0.00613291
0.0057314
0.00536614
0.00520092
0.00526697
0.00551505
0.00584492
0.00612339
0.00621706
0.00603686
0.00559894
0.00503014
0.00457746
0.00435784
0.00411876
0.00382457
0.00356514
0.00339266
0.00330042
0.00325484
0.00322419
0.003191
0.00315332
0.0031183
0.00309816
0.00310654
0.00312174
0.0029021
0.00258851
0.00230586
0.00215727
0.00224753
0.00264925
0.00336874
0.00145303
0.00301791
0.00360845
0.004061
0.00426459
0.00437156
0.00438127
0.00441812
0.00459291
0.00492328
0.00536644
0.00584309
0.00624805
0.00645948
0.00637403
0.00594273
0.00527871
0.00463548
0.00419969
0.00383897
0.00344912
0.00312137
0.0029129
0.00279925
0.00273823
0.00269855
0.00266159
0.00261843
0.00256596
0.00250289
0.00242764
0.0023385
0.00223752
0.00214975
0.00208578
0.00207057
0.00209866
0.00211035
0.0020459
0.00192186
0.00136836
0.00176338
0.00335095
0.00426112
0.00485725
0.0054149
0.00591482
0.00634449
0.00667967
0.00690266
0.00694214
0.00669609
0.00612474
0.00525528
0.0043617
0.00374813
0.00328854
0.00285726
0.00253339
0.00233926
0.00223328
0.00217371
0.00213545
0.00210555
0.00207802
0.00205093
0.00202487
0.00200197
0.0019857
0.00198074
0.00199556
0.00201763
0.00204817
0.00208323
0.00210006
0.00205857
0.00194127
0.0017609
0.00113408
0.0020778
0.00437816
0.00561636
0.00608147
0.00651285
0.0068894
0.00693652
0.00684691
0.00670728
0.00631482
0.0055096
0.004552
0.00370015
0.0030538
0.00255966
0.00219528
0.00197457
0.00184388
0.00176276
0.00171501
0.00168727
0.00167345
0.00167112
0.00167953
0.00169857
0.00172816
0.00176749
0.00181411
0.00186993
0.00193933
0.00202086
0.00211005
0.00219412
0.00225491
0.00225143
0.00229159
0.00229831
0.00115323
0.00180369
0.00190893
0.00198608
0.00209766
0.00197875
0.00183877
0.00169529
0.00155701
0.0014578
0.00135858
0.00124027
0.00110441
0.00095742
0.000804633
0.000676727
0.000593139
0.000548854
0.000530242
0.000526775
0.000532186
0.00054295
0.000556673
0.000572987
0.000591786
0.000613088
0.000636993
0.000663697
0.000693539
0.000727105
0.000765432
0.000809114
0.000857266
0.000910635
0.000970027
0.00103569
0.00111416
0.00114356
0.00111789
0.00104878
0.000976366
)
;

boundaryField
{
    floor
    {
        type            nutkWallFunction;
        Cmu             0.09;
        kappa           0.41;
        E               9.8;
        value           nonuniform List<scalar> 
29
(
0.000138586
5.03867e-05
6.28362e-05
6.78135e-05
6.54075e-05
6.21685e-05
5.8693e-05
5.50354e-05
5.15695e-05
4.84126e-05
4.55646e-05
4.29956e-05
4.06864e-05
3.85924e-05
3.66635e-05
3.48394e-05
3.30284e-05
3.108e-05
2.997e-05
2.69696e-05
2.69695e-05
3.97461e-05
4.78703e-05
5.40681e-05
0.000138586
5.03866e-05
6.55105e-05
0.000115711
0.000151086
)
;
    }
    ceiling
    {
        type            nutkWallFunction;
        Cmu             0.09;
        kappa           0.41;
        E               9.8;
        value           nonuniform List<scalar> 
43
(
0.00021179
0.000223334
0.000231755
0.000243957
0.000231065
0.000215756
0.000199923
0.000184521
0.000173378
0.000162147
0.000148634
0.000132934
0.000115697
9.74499e-05
8.18592e-05
7.14821e-05
6.59141e-05
6.35583e-05
6.31188e-05
6.38061e-05
6.51701e-05
6.6904e-05
6.89583e-05
7.13168e-05
7.39781e-05
7.69514e-05
8.02569e-05
8.3932e-05
8.80431e-05
9.27101e-05
9.79955e-05
0.000103783
0.000110154
0.000117193
0.000124917
0.000134077
0.000137489
0.000134509
0.000126451
0.000117941
0.000342004
0.000403085
0.000241619
)
;
    }
    sWall
    {
        type            nutkWallFunction;
        Cmu             0.09;
        kappa           0.41;
        E               9.8;
        value           uniform 0.000211849;
    }
    nWall
    {
        type            nutkWallFunction;
        Cmu             0.09;
        kappa           0.41;
        E               9.8;
        value           nonuniform List<scalar> 6(9.54161e-05 9.91311e-05 0.000109894 0.000136399 0.000138618 0.000117947);
    }
    sideWalls
    {
        type            empty;
    }
    glass1
    {
        type            nutkWallFunction;
        Cmu             0.09;
        kappa           0.41;
        E               9.8;
        value           nonuniform List<scalar> 9(0.000118374 0.000162963 0.000199744 0.000235048 0.000270661 0.000307759 0.000342485 0.000350079 0.000342423);
    }
    glass2
    {
        type            nutkWallFunction;
        Cmu             0.09;
        kappa           0.41;
        E               9.8;
        value           nonuniform List<scalar> 2(0.000172925 0.000163334);
    }
    sun
    {
        type            nutkWallFunction;
        Cmu             0.09;
        kappa           0.41;
        E               9.8;
        value           nonuniform List<scalar> 
14
(
0.000118306
0.000127675
0.000129041
0.000134552
0.000139528
0.000144045
0.0001483
0.000152526
0.000156231
0.000158539
0.000158894
0.000156818
0.000152197
0.000145693
)
;
    }
    heatsource1
    {
        type            nutkWallFunction;
        Cmu             0.09;
        kappa           0.41;
        E               9.8;
        value           nonuniform List<scalar> 3(7.03144e-05 8.53747e-05 9.54158e-05);
    }
    heatsource2
    {
        type            nutkWallFunction;
        Cmu             0.09;
        kappa           0.41;
        E               9.8;
        value           nonuniform List<scalar> 4(0.000139424 9.68832e-05 9.68832e-05 0.000136958);
    }
    Table_master
    {
        type            nutkWallFunction;
        Cmu             0.09;
        kappa           0.41;
        E               9.8;
        value           nonuniform List<scalar> 9(7.77892e-05 6.9644e-05 6.2931e-05 5.73745e-05 5.27378e-05 4.88334e-05 4.55233e-05 4.27166e-05 4.03691e-05);
    }
    Table_slave
    {
        type            nutkWallFunction;
        Cmu             0.09;
        kappa           0.41;
        E               9.8;
        value           nonuniform List<scalar> 9(8.66988e-05 8.05989e-05 7.64867e-05 7.34869e-05 7.08625e-05 6.81137e-05 6.53954e-05 6.23964e-05 5.86922e-05);
    }
    inlet
    {
        type            calculated;
        value           uniform 0.000100623;
    }
    outlet
    {
        type            calculated;
        value           nonuniform List<scalar> 2(0.00180369 0.00190893);
    }
}


// ************************************************************************* //
