/*--------------------------------*- C++ -*----------------------------------*\
  =========                 |
  \\      /  F ield         | OpenFOAM: The Open Source CFD Toolbox
   \\    /   O peration     | Website:  https://openfoam.org
    \\  /    A nd           | Version:  6
     \\/     M anipulation  |
\*---------------------------------------------------------------------------*/
FoamFile
{
    version     2.0;
    format      ascii;
    class       surfaceScalarField;
    location    "800";
    object      phi;
}
// * * * * * * * * * * * * * * * * * * * * * * * * * * * * * * * * * * * * * //

dimensions      [1 0 -1 0 0 0 0];

internalField   nonuniform List<scalar> 
852
(
-0.00215235
0.0022
-0.0023614
0.000209111
-0.00254832
0.000186982
-0.00275301
0.000204758
-0.00293489
0.000181935
-0.00307659
0.00014177
-0.0031675
9.09632e-05
-0.0031974
2.99637e-05
-0.00315461
-4.27286e-05
-0.00302425
-0.000130296
-0.00279019
-0.000233992
-0.002435
-0.000355132
-0.00192444
-0.00051049
-0.00116405
-0.000760335
-0.00116481
0.000123661
-0.000123163
9.10655e-05
3.267e-05
5.2714e-05
3.84278e-05
6.46078e-05
-1.18174e-05
9.39362e-05
-2.92514e-05
0.000137073
-4.30602e-05
0.000193504
-5.63525e-05
0.000250621
-5.70382e-05
0.00030133
-5.0628e-05
0.000346119
-4.47059e-05
0.000383019
-3.68176e-05
0.000402575
-1.94728e-05
0.000395985
6.67218e-06
0.000360989
3.50779e-05
0.000310362
5.07086e-05
0.000222282
8.81575e-05
9.61149e-05
0.000126244
-4.42483e-05
0.000140448
-4.40446e-05
-0.00154197
0.00386586
-0.00200496
0.000672161
-0.00229135
0.000473439
-0.00251233
0.000425796
-0.00269494
0.00036461
-0.00283799
0.000284884
-0.00293613
0.00018917
-0.00298216
7.60533e-05
-0.0029682
-5.66317e-05
-0.00288713
-0.000211296
-0.00273087
-0.000390194
-0.00248881
-0.000597132
-0.00215275
-0.000846486
-0.00175998
-0.00115304
-0.00146588
-0.00145885
3.75244e-05
-0.00150339
3.75382e-05
-9.27754e-05
-2.99994e-05
-0.000234466
0.000174433
-0.000313446
0.000117481
-0.000364966
3.97764e-05
-0.000374305
-1.98364e-05
-0.000370672
-4.66157e-05
-0.000319061
-0.000107884
-0.00029651
-7.95087e-05
-0.000293296
-5.37595e-05
-0.000304675
-3.32434e-05
-0.000329858
-1.15498e-05
-0.00036346
1.42133e-05
-0.000398148
4.1444e-05
-0.00042691
6.39215e-05
-0.000424455
4.83334e-05
-0.000290166
-4.60574e-05
-0.000134553
-2.92974e-05
-4.24443e-05
4.84076e-05
-8.79403e-05
-0.00113112
0.00518077
-0.00168017
0.00122127
-0.00197619
0.000769522
-0.00218669
0.000636361
-0.00235178
0.000529755
-0.00248032
0.000413495
-0.00257238
0.000281294
-0.00262439
0.00012812
-0.00263179
-4.91726e-05
-0.0025927
-0.000250316
-0.00250944
-0.000473392
-0.00238679
-0.00071972
-0.00223906
-0.000994163
-0.00210401
-0.00128802
-0.00201694
-0.00154586
-0.00183012
-0.00169015
-0.00179252
-0.000837683
0.00080608
-0.000940645
0.000277469
-0.000952961
0.000129868
-0.000948273
3.51582e-05
-0.000919144
-4.88961e-05
-0.000812887
-0.0001528
-0.000920537
-0.000999813
-0.00105334
-0.00108635
-0.00109767
-0.00108322
-0.00104154
-0.000977393
-0.000928832
-0.000581534
-0.000393284
-0.000308889
-0.000301869
8.48548e-06
-0.000268896
-8.34718e-05
-0.000840365
0.00625337
-0.00139854
0.00177951
-0.00163556
0.00100662
-0.00181373
0.000814589
-0.00194537
0.000661458
-0.00204088
0.000509069
-0.00210619
0.000346666
-0.00214295
0.000164939
-0.00215036
-4.16926e-05
-0.00213233
-0.000268291
-0.00210222
-0.000503438
-0.00207909
-0.000742793
-0.00209025
-0.000982937
-0.00217065
-0.00120757
-0.00233906
-0.00137738
-0.00259649
-0.00143266
-0.00319477
-0.00119417
-0.00272811
-0.000470365
-0.00195671
3.47433e-05
-0.00177391
9.47439e-05
-0.00172358
7.96041e-05
-0.00171554
2.7186e-05
-0.00172335
-4.10291e-05
-0.00178539
-9.06942e-05
-0.00171224
-7.32298e-05
-0.00163902
-7.3307e-05
-0.00155849
-8.062e-05
-0.00147067
-8.78965e-05
-0.00137364
-9.71225e-05
-0.00126364
-0.000110079
-0.00113428
-0.000129446
-0.000969724
-0.000164636
-0.000724007
-0.000245798
-0.000699252
-0.000417969
-0.000491397
-0.000509652
-0.000205228
-0.000554993
-0.000295401
-0.000627836
0.00715414
-0.00117244
0.00232417
-0.00127984
0.00111409
-0.00137522
0.00091003
-0.00146128
0.000747588
-0.00151257
0.000560419
-0.00153094
0.000365099
-0.00152565
0.000159717
-0.00150276
-6.4528e-05
-0.00147281
-0.000298174
-0.00145456
-0.000521632
-0.00146947
-0.000727822
-0.00153752
-0.000914831
-0.0016702
-0.00107482
-0.00186462
-0.0011829
-0.00211592
-0.00118129
-0.00234324
-0.000966789
-0.00224577
-0.000567772
-0.00197614
-0.00023482
-0.00178645
-9.4879e-05
-0.0016586
-4.81768e-05
-0.0015786
-5.27576e-05
-0.00153773
-8.18263e-05
-0.00152202
-0.000106349
-0.00148251
-0.000112666
-0.00143724
-0.000118518
-0.00139117
-0.00012662
-0.00134316
-0.00013584
-0.00129288
-0.000147337
-0.00123941
-0.000163492
-0.00117967
-0.000189112
-0.00110856
-0.000235684
-0.00103274
-0.000321553
-0.00100695
-0.000443686
-0.000955857
-0.00056068
-0.000847931
-0.000662851
-0.00039617
-0.000747094
0.000468969
-0.000865273
0.000984631
-0.000515797
0.000998701
-0.000587956
0.00805033
-0.00105793
0.00279421
-0.000846641
0.000902876
-0.000731944
0.000795404
-0.000777306
0.00079302
-0.000809192
0.000592373
-0.000785496
0.00034147
-0.000732162
0.000106448
-0.000671169
-0.000125458
-0.000623486
-0.000345794
-0.000607165
-0.000537893
-0.000640276
-0.000694651
-0.000735786
-0.000819261
-0.000895493
-0.000915056
-0.00110706
-0.000971268
-0.0013405
-0.000947795
-0.00150766
-0.000799572
-0.0015201
-0.000555272
-0.00142171
-0.000333141
-0.00131624
-0.000200286
-0.00123099
-0.000133369
-0.00117255
-0.00011113
-0.00114003
-0.000114284
-0.00112256
-0.000123755
-0.00110507
-0.000130089
-0.00108685
-0.000136671
-0.00106943
-0.000143971
-0.00105362
-0.000151585
-0.00104106
-0.000159834
-0.00103432
-0.000170161
-0.00103675
-0.000186622
-0.00105402
-0.000218344
-0.00109773
-0.000277775
-0.00117282
-0.000368538
-0.00124853
-0.000484903
-0.00127387
-0.00063745
-0.00115337
-0.000867529
-0.000863167
-0.00115541
-0.00036836
-0.00101054
0.000647576
-0.000739331
0.00913103
-0.000659446
0.00271439
9.31006e-05
0.000150401
0.000455196
0.000433383
0.000385563
0.000862729
0.000325448
0.000652562
0.000335816
0.000331175
0.000375305
6.70276e-05
0.000416994
-0.000167081
0.00043599
-0.000364726
0.000419151
-0.000520992
0.000354128
-0.000629567
0.000232434
-0.000697507
5.22032e-05
-0.000734766
-0.000172274
-0.000746731
-0.0004027
-0.000717309
-0.000578792
-0.000623421
-0.000658909
-0.000475094
-0.000662936
-0.000329053
-0.00063881
-0.000224349
-0.000611244
-0.000160873
-0.000592093
-0.000130217
-0.000585094
-0.00012122
-0.000586482
-0.000122303
-0.000590282
-0.000126224
-0.000594962
-0.000131926
-0.000600627
-0.00013824
-0.000608212
-0.000143933
-0.000619983
-0.000147997
-0.000640301
-0.000149777
-0.000676816
-0.00015004
-0.000742739
-0.000152356
-0.000857053
-0.000163396
-0.00103356
-0.000191967
-0.00126641
-0.000251989
-0.00153806
-0.00036574
-0.00184644
-0.00055908
-0.00214367
-0.000858115
-0.00195647
-0.00119767
-0.00129528
0.00175659
0.0077584
0.00255987
0.00191118
0.00304063
-0.000330288
0.00270798
0.000766098
0.00235816
0.00121263
0.00218195
0.000828848
0.00205328
0.000459923
0.00193321
0.000187166
0.00182126
-5.5064e-05
0.00171571
-0.000259104
0.00159489
-0.000400109
0.0014476
-0.000482216
0.00127153
-0.000521378
0.00106683
-0.000529999
0.000838016
-0.00051786
0.00060586
-0.000485094
0.000407115
-0.000424616
0.000271235
-0.000339155
0.000193788
-0.000251546
0.000151531
-0.000182031
0.000126381
-0.000135661
0.000106289
-0.000110063
8.49262e-05
-9.97938e-05
6.14936e-05
-9.88063e-05
3.77578e-05
-0.000102423
1.42584e-05
-0.000108361
-8.94484e-06
-0.000114971
-3.20286e-05
-0.000120783
-5.57037e-05
-0.000124255
-8.19871e-05
-0.000123426
-0.000114675
-0.000117284
-0.000161405
-0.000105558
-0.000235991
-8.87432e-05
-0.000358786
-6.91065e-05
-0.000556512
-5.42001e-05
-0.000866097
-5.60934e-05
-0.00134124
-8.38803e-05
-0.00196643
-0.000232863
-0.00208893
-0.00107511
-0.00332281
0.00816418
0.0100527
0.00912386
0.000598637
0.00650265
0.00338737
0.00542726
0.00228808
0.00473731
0.00151886
0.00419087
0.00100643
0.00376873
0.00060937
0.00341425
0.000299476
0.00308776
6.74537e-05
0.00278342
-9.57057e-05
0.00250175
-0.000200488
0.00224146
-0.000261023
0.00199653
-0.000285008
0.00176139
-0.000282665
0.00153798
-0.000261618
0.00133907
-0.000225654
0.00117935
-0.000179374
0.00106059
-0.000132718
0.000973672
-9.50571e-05
0.000908735
-7.06635e-05
0.000856655
-5.79216e-05
0.000810903
-5.3979e-05
0.000768512
-5.63528e-05
0.000728688
-6.25365e-05
0.000690797
-7.04065e-05
0.000654522
-7.86314e-05
0.000620082
-8.62776e-05
0.000588117
-9.22227e-05
0.000558629
-9.38709e-05
0.000532958
-9.15453e-05
0.000513379
-8.59107e-05
0.000502975
-7.82712e-05
0.000505827
-7.18902e-05
0.000524988
-7.32953e-05
0.00055835
-8.93901e-05
0.000597758
-0.000123225
0.000602548
-0.00023759
0.000387831
-0.000860327
-0.00286623
-0.00111614
0.00238113
0.00145328
0.000817991
0.00290821
0.000833202
0.00337898
0.00104815
0.00349407
0.000891396
0.00348749
0.000616018
0.00341296
0.000374064
0.00328573
0.000194745
0.00312321
6.68741e-05
0.00294187
-1.90918e-05
0.00275266
-7.17514e-05
0.00256278
-9.50663e-05
0.0023772
-9.70231e-05
0.00220032
-8.46812e-05
0.00203848
-6.37513e-05
0.00189849
-3.93274e-05
0.00178297
-1.71347e-05
0.00168956
-1.59237e-06
0.00161344
5.52218e-06
0.00154927
6.30641e-06
0.00149296
2.39619e-06
0.00144167
-5.01016e-06
0.00139348
-1.42753e-05
0.00134708
-2.39496e-05
0.00130199
-3.3474e-05
0.00125852
-4.27449e-05
0.00121794
-5.15775e-05
0.00118096
-5.68269e-05
0.00115077
-6.12874e-05
0.00113178
-6.68597e-05
0.00112954
-7.59559e-05
0.00115024
-9.2524e-05
0.00119927
-0.00012226
0.00127974
-0.0001698
0.0013869
-0.000230317
0.00143836
-0.000288988
0.00109746
-0.000519366
-0.00175433
-0.000117969
0.00248653
0.00128661
-0.000586539
0.00200999
0.000109873
0.00244787
0.000610335
0.00279142
0.000547896
0.00301941
0.000388089
0.0031305
0.000263036
0.00314756
0.000177738
0.00309483
0.000119665
0.0029926
8.32005e-05
0.00285622
6.46798e-05
0.00270728
5.39373e-05
0.00256148
4.88403e-05
0.00242926
4.75904e-05
0.00231671
4.88674e-05
0.00222618
5.12576e-05
0.00215603
5.30796e-05
0.00210147
5.30259e-05
0.00205574
5.13149e-05
0.00201493
4.7172e-05
0.00197613
4.12569e-05
0.00193649
3.46947e-05
0.00189436
2.7914e-05
0.00184954
2.09296e-05
0.00180228
1.38537e-05
0.00175298
6.61471e-06
0.0017021
-6.32134e-07
0.00165361
-8.27444e-06
0.00161006
-1.76729e-05
0.00157324
-2.99719e-05
0.00154469
-4.7349e-05
0.00152547
-7.32355e-05
0.00151596
-0.000112684
0.00151859
-0.00017237
0.00155037
-0.000262031
0.00166453
-0.000403086
0.00177762
-0.000632393
3.78067e-05
0.00457454
-0.00147846
0.000988167
0.000377307
0.000456206
0.00103233
0.00154263
0.0018899
0.00210934
0.00224123
0.00231341
0.00234813
0.00236386
0.00236877
0.00236875
0.00236773
0.00236826
0.00237142
0.00237662
0.00238193
0.00238569
0.00238545
0.00237945
0.00236706
0.00234808
0.00232233
0.00228973
0.00225013
0.00220352
0.00214953
0.00208637
0.00201111
0.0019186
0.00180028
0.00164247
0.00142482
0.00111712
0.000667598
-1.17145e-05
)
;

boundaryField
{
    floor
    {
        type            calculated;
        value           nonuniform List<scalar> 
29
(
0
0
0
0
0
0
0
0
0
0
0
0
0
0
0
0
0
0
0
0
-1.09499e-07
1.52733e-06
4.0915e-06
6.77582e-06
8.30395e-07
-4.22865e-07
-3.17033e-07
1.67428e-06
3.7723e-06
)
;
    }
    ceiling
    {
        type            calculated;
        value           nonuniform List<scalar> 
43
(
6.48733e-05
4.43866e-05
1.99637e-05
2.43771e-05
3.10195e-05
3.42577e-05
3.76546e-05
4.08696e-05
4.36622e-05
4.59051e-05
4.75356e-05
4.85467e-05
4.90088e-05
4.90811e-05
4.89252e-05
4.86703e-05
4.83987e-05
4.81518e-05
4.79441e-05
4.77718e-05
4.76193e-05
4.74732e-05
4.73197e-05
4.7148e-05
4.69544e-05
4.67412e-05
4.65128e-05
4.62755e-05
4.60352e-05
4.57793e-05
4.55467e-05
4.53564e-05
4.52206e-05
4.51536e-05
4.51798e-05
4.53443e-05
4.57346e-05
4.64978e-05
4.69812e-05
4.81942e-05
2.66691e-05
2.26879e-05
1.26343e-05
)
;
    }
    sWall
    {
        type            calculated;
        value           uniform -0.00013002;
    }
    nWall
    {
        type            calculated;
        value           nonuniform List<scalar> 6(-1.42043e-05 -1.71681e-05 -1.35401e-05 -1.43752e-05 -1.44507e-05 -2.20417e-05);
    }
    sideWalls
    {
        type            empty;
        value           nonuniform 0();
    }
    glass1
    {
        type            calculated;
        value           nonuniform List<scalar> 9(-4.75882e-05 -0.000123823 -0.000183729 -0.000232178 -0.000272877 -0.000308177 -0.000341312 -0.000383906 -0.000432395);
    }
    glass2
    {
        type            calculated;
        value           nonuniform List<scalar> 2(-6.13506e-05 -6.86842e-05);
    }
    sun
    {
        type            calculated;
        value           uniform 0;
    }
    heatsource1
    {
        type            calculated;
        value           nonuniform List<scalar> 3(2.00414e-07 2.00415e-07 2.00476e-07);
    }
    heatsource2
    {
        type            calculated;
        value           nonuniform List<scalar> 4(5.00985e-08 5.03224e-08 0 0);
    }
    Table_master
    {
        type            calculated;
        value           nonuniform List<scalar> 9(-1.51225e-07 -1.51167e-07 -1.51106e-07 -1.5105e-07 -1.50998e-07 -1.50948e-07 -1.50894e-07 -1.50832e-07 -1.50736e-07);
    }
    Table_slave
    {
        type            calculated;
        value           nonuniform List<scalar> 9(1.50166e-07 1.50196e-07 1.5022e-07 1.50246e-07 1.50273e-07 1.50302e-07 1.50334e-07 1.50372e-07 1.50398e-07);
    }
    inlet
    {
        type            calculated;
        value           uniform -0.000666296;
    }
    outlet
    {
        type            calculated;
        value           nonuniform List<scalar> 2(-0.0045093 0.00600871);
    }
}


// ************************************************************************* //
