// -*- C++ -*-
// File generated by PyFoam - sorry for the ugliness

FoamFile
{
 version 2.0;
 format ascii;
 class volVectorField;
 location "300";
 object U;
}

dimensions [ 0 1 -1 0 0 0 0 ];

internalField nonuniform List<vector> 459
(
  (0.0858928 0.0732643 0)
  (-0.145503 0.00804718 0)
  (-0.140539 0.0108729 0)
  (-0.162591 0.0100629 0)
  (-0.18269 0.00791499 0)
  (-0.200019 0.00517742 0)
  (-0.213683 0.00196153 0)
  (-0.222844 -0.00178767 0)
  (-0.226546 -0.00618979 0)
  (-0.223543 -0.0114351 0)
  (-0.212216 -0.0180192 0)
  (-0.189942 -0.0263895 0)
  (-0.155083 -0.038087 0)
  (-0.115661 -0.0561656 0)
  (-0.103094 -0.0805147 0)
  (0.020231 0.00730789 0)
  (-0.0261026 -0.013402 0)
  (-0.000219442 -0.0213071 0)
  (0.0227556 -0.019539 0)
  (0.0411936 -0.016452 0)
  (0.0572855 -0.0126853 0)
  (0.068427 -0.007148 0)
  (0.0730354 -0.003982 0)
  (0.0732602 -0.00269253 0)
  (0.0719215 -0.00205931 0)
  (0.0703529 -0.00159291 0)
  (0.0686656 -0.00120534 0)
  (0.066742 -0.000841615 0)
  (0.0644415 -0.0003555 0)
  (0.0613421 0.000576365 0)
  (0.0564783 0.00234593 0)
  (0.0488763 0.00400916 0)
  (0.0455131 0.00439346 0)
  (-0.0213008 0.0221659 0)
  (0.292003 0.158014 0)
  (-0.163936 0.0310563 0)
  (-0.123967 0.0348943 0)
  (-0.151399 0.0330705 0)
  (-0.172471 0.0295778 0)
  (-0.190379 0.0250256 0)
  (-0.204624 0.0193583 0)
  (-0.214573 0.0123401 0)
  (-0.219371 0.00366762 0)
  (-0.217901 -0.00699502 0)
  (-0.209331 -0.0194452 0)
  (-0.19253 -0.0336181 0)
  (-0.167582 -0.0507576 0)
  (-0.138648 -0.0736242 0)
  (-0.114447 -0.0994388 0)
  (-0.0978679 -0.107562 0)
  (0.0669812 0.0357901 0)
  (0.0991954 0.0271817 0)
  (-0.0113579 -0.00849711 0)
  (0.00672697 -0.0258004 0)
  (0.022724 -0.0284403 0)
  (0.0369006 -0.0258469 0)
  (0.0492042 -0.0208022 0)
  (0.0583761 -0.00721822 0)
  (0.0599935 0.000565464 0)
  (0.0589721 0.00346103 0)
  (0.0582751 0.00446867 0)
  (0.0580841 0.00491113 0)
  (0.0579412 0.00509331 0)
  (0.0577132 0.0052211 0)
  (0.0574311 0.00564597 0)
  (0.0566695 0.00712988 0)
  (0.0533754 0.0117179 0)
  (0.0448595 0.0150097 0)
  (0.0490728 0.0150178 0)
  (-0.0735764 0.0475445 0)
  (0.469697 0.241382 0)
  (-0.209428 0.0623192 0)
  (-0.0997325 0.0614033 0)
  (-0.133722 0.0542103 0)
  (-0.153721 0.047088 0)
  (-0.171191 0.0387151 0)
  (-0.185587 0.028601 0)
  (-0.196383 0.0163995 0)
  (-0.202727 0.00189039 0)
  (-0.203393 -0.0148635 0)
  (-0.197897 -0.0337569 0)
  (-0.186517 -0.0540299 0)
  (-0.170576 -0.0750402 0)
  (-0.153173 -0.0960945 0)
  (-0.137902 -0.113124 0)
  (-0.128383 -0.118406 0)
  (-0.132893 -0.113355 0)
  (0.126335 0.0288311 0)
  (-0.00837653 -0.00261641 0)
  (0.00154127 -0.029502 0)
  (0.0161994 -0.039166 0)
  (0.0276759 -0.0379607 0)
  (0.0363687 -0.0363327 0)
  (0.0486162 -0.0228228 0)
  (0.0431026 -0.0126326 0)
  (0.037891 -0.00788054 0)
  (0.0378094 -0.00548559 0)
  (0.0398977 -0.00403845 0)
  (0.0421943 -0.00314631 0)
  (0.0444435 -0.00254535 0)
  (0.0471078 -0.00181703 0)
  (0.051087 0.0010408 0)
  (0.0510124 0.0168022 0)
  (0.0393253 0.0253143 0)
  (0.059026 0.0267055 0)
  (-0.119346 0.0713362 0)
  (0.617674 0.311121 0)
  (-0.261367 0.0973442 0)
  (-0.0689943 0.086454 0)
  (-0.110716 0.0742806 0)
  (-0.127173 0.0650583 0)
  (-0.142343 0.0545867 0)
  (-0.15551 0.0418814 0)
  (-0.166166 0.0263255 0)
  (-0.173424 0.00748778 0)
  (-0.175808 -0.0145712 0)
  (-0.172619 -0.0388539 0)
  (-0.165579 -0.0634625 0)
  (-0.156713 -0.0863688 0)
  (-0.14889 -0.105526 0)
  (-0.145233 -0.11721 0)
  (-0.150106 -0.115116 0)
  (-0.162649 -0.0873381 0)
  (-0.143762 -0.0181957 0)
  (-0.0796019 -0.0161551 0)
  (-0.0523563 -0.0262899 0)
  (-0.0183031 -0.048349 0)
  (0.00228647 -0.0533765 0)
  (0.0123366 -0.0468798 0)
  (0.0136304 -0.0415116 0)
  (0.0204196 -0.0236878 0)
  (0.0390916 -0.0173375 0)
  (0.0552551 -0.0143023 0)
  (0.0686416 -0.0123164 0)
  (0.0799326 -0.0103092 0)
  (0.0884983 -0.00768629 0)
  (0.0928078 -0.0041486 0)
  (0.0901888 0.000682782 0)
  (0.079283 0.00728919 0)
  (0.0618934 0.0255504 0)
  (0.0421786 0.0403544 0)
  (0.0700078 0.0488231 0)
  (-0.175109 0.0909526 0)
  (0.737596 0.368473 0)
  (-0.309185 0.132646 0)
  (-0.0352177 0.104369 0)
  (-0.083233 0.0893774 0)
  (-0.0946124 0.0790733 0)
  (-0.105483 0.067263 0)
  (-0.115302 0.0527323 0)
  (-0.123697 0.034653 0)
  (-0.129955 0.0124043 0)
  (-0.132233 -0.0139357 0)
  (-0.12921 -0.0423489 0)
  (-0.124005 -0.0693106 0)
  (-0.118689 -0.092085 0)
  (-0.115375 -0.10918 0)
  (-0.115619 -0.119185 0)
  (-0.119457 -0.119956 0)
  (-0.120925 -0.10621 0)
  (-0.109006 -0.0737494 0)
  (-0.0822149 -0.0576619 0)
  (-0.051651 -0.0605054 0)
  (-0.0233766 -0.0739613 0)
  (-0.00574684 -0.0676283 0)
  (0.00393451 -0.0535008 0)
  (0.00770695 -0.0428744 0)
  (0.0164641 -0.0290698 0)
  (0.0289587 -0.0227926 0)
  (0.0411268 -0.019971 0)
  (0.0523832 -0.0178166 0)
  (0.0627032 -0.0147006 0)
  (0.0714799 -0.00937133 0)
  (0.0775273 -0.000927984 0)
  (0.0788771 0.00989102 0)
  (0.0745753 0.0226568 0)
  (0.0659933 0.0396965 0)
  (0.0496667 0.0569956 0)
  (0.0777577 0.0749765 0)
  (-0.0481572 0.102689 0)
  (0.049736 0.0192348 0)
  (-0.0703835 -0.0370763 0)
  (-0.291336 -0.0614689 0)
  (0.818396 0.419322 0)
  (-0.348783 0.16316 0)
  (-0.00774311 0.108677 0)
  (-0.0509414 0.099108 0)
  (-0.0576859 0.0884561 0)
  (-0.0636055 0.0754327 0)
  (-0.06852 0.0597592 0)
  (-0.072581 0.040333 0)
  (-0.0757288 0.016026 0)
  (-0.0750658 -0.013797 0)
  (-0.0702768 -0.0458955 0)
  (-0.0661547 -0.0738473 0)
  (-0.0637929 -0.0951098 0)
  (-0.0642034 -0.109311 0)
  (-0.0677286 -0.116081 0)
  (-0.0730219 -0.114602 0)
  (-0.0754329 -0.103734 0)
  (-0.0698869 -0.0877566 0)
  (-0.0565201 -0.079104 0)
  (-0.0397012 -0.083278 0)
  (-0.0203246 -0.0942612 0)
  (-0.00882867 -0.07802 0)
  (-0.00230733 -0.0592047 0)
  (0.000395561 -0.0474474 0)
  (0.00608877 -0.0379877 0)
  (0.013958 -0.0330852 0)
  (0.0224098 -0.0306632 0)
  (0.0310385 -0.028614 0)
  (0.0397567 -0.0252127 0)
  (0.0483731 -0.0187121 0)
  (0.0563663 -0.00743695 0)
  (0.0628875 0.00829352 0)
  (0.0647687 0.0256318 0)
  (0.0647078 0.0443099 0)
  (0.0599353 0.0631107 0)
  (0.0857599 0.0857454 0)
  (0.0510482 0.0996609 0)
  (0.101557 0.066105 0)
  (0.124855 0.044254 0)
  (-0.13772 -0.00886348 0)
  (0.840632 0.465202 0)
  (-0.3672 0.160025 0)
  (0.0112911 0.0736027 0)
  (-0.00212805 0.101994 0)
  (-0.0101152 0.0995103 0)
  (-0.0149074 0.0810018 0)
  (-0.0157113 0.0619953 0)
  (-0.0145897 0.0415264 0)
  (-0.0133193 0.0160736 0)
  (-0.00381102 -0.0175012 0)
  (0.00341938 -0.051588 0)
  (0.00505354 -0.0773041 0)
  (0.00297456 -0.0950635 0)
  (-0.00261489 -0.106065 0)
  (-0.010985 -0.110536 0)
  (-0.0203478 -0.108858 0)
  (-0.0275492 -0.10142 0)
  (-0.0298517 -0.0921617 0)
  (-0.0279266 -0.0879214 0)
  (-0.0243165 -0.0945599 0)
  (-0.0133816 -0.108055 0)
  (-0.00929082 -0.0838421 0)
  (-0.00719673 -0.0612513 0)
  (-0.00844527 -0.0496315 0)
  (-0.00718513 -0.0426941 0)
  (-0.00445438 -0.0390131 0)
  (-0.000827023 -0.0372753 0)
  (0.00357648 -0.0359625 0)
  (0.00872174 -0.0334726 0)
  (0.0149416 -0.0279449 0)
  (0.0225321 -0.0170782 0)
  (0.0342125 0.00115291 0)
  (0.0438849 0.0211732 0)
  (0.0519275 0.0399154 0)
  (0.0587402 0.0566782 0)
  (0.0836302 0.0755843 0)
  (0.0945915 0.0786132 0)
  (0.130956 0.049478 0)
  (0.172861 0.0420487 0)
  (-0.0286259 0.0989872 0)
  (0.940004 0.484486 0)
  (-0.13795 0.143002 0)
  (0.0782143 0.00689641 0)
  (0.115802 0.0439813 0)
  (0.0899088 0.0706542 0)
  (0.0698035 0.061323 0)
  (0.0648484 0.0414522 0)
  (0.0672904 0.0203164 0)
  (0.0718143 -0.00651743 0)
  (0.0863258 -0.0333645 0)
  (0.0905159 -0.0566913 0)
  (0.0863807 -0.075099 0)
  (0.0770396 -0.088013 0)
  (0.064169 -0.0956331 0)
  (0.0490628 -0.0985017 0)
  (0.0333009 -0.0972662 0)
  (0.0188537 -0.0927721 0)
  (0.0075785 -0.0873547 0)
  (-0.00117178 -0.0857827 0)
  (-0.00881993 -0.0955055 0)
  (-0.00521218 -0.115377 0)
  (-0.00830122 -0.0846401 0)
  (-0.0111608 -0.0589904 0)
  (-0.0180963 -0.0475896 0)
  (-0.0221994 -0.0420971 0)
  (-0.0251951 -0.0394758 0)
  (-0.0275607 -0.0384529 0)
  (-0.0294088 -0.0379027 0)
  (-0.0305934 -0.0366487 0)
  (-0.030676 -0.0335045 0)
  (-0.0288313 -0.0272817 0)
  (-0.0227104 -0.0167796 0)
  (-0.00228376 -0.000439733 0)
  (0.0109499 0.0173496 0)
  (0.0233041 0.0273261 0)
  (0.0452435 0.0354201 0)
  (0.0621972 0.0247559 0)
  (0.0784451 -0.00623495 0)
  (0.140227 0.0497125 0)
  (-0.475515 0.231093 0)
  (1.07163 0.446577 0)
  (0.515528 0.297385 0)
  (0.51343 0.232629 0)
  (0.478753 0.195532 0)
  (0.392163 0.169716 0)
  (0.31671 0.132304 0)
  (0.272308 0.0912703 0)
  (0.248031 0.0537059 0)
  (0.234857 0.020052 0)
  (0.216802 -0.011315 0)
  (0.196091 -0.0375236 0)
  (0.173966 -0.056971 0)
  (0.150874 -0.0697663 0)
  (0.127166 -0.0769205 0)
  (0.103395 -0.0796248 0)
  (0.0803185 -0.0790669 0)
  (0.058766 -0.0764841 0)
  (0.0393446 -0.073584 0)
  (0.0210687 -0.0735886 0)
  (0.00513236 -0.084324 0)
  (0.00189497 -0.112745 0)
  (-0.00737299 -0.0771404 0)
  (-0.0144832 -0.050767 0)
  (-0.0281977 -0.0411599 0)
  (-0.0379845 -0.0373122 0)
  (-0.04662 -0.0353605 0)
  (-0.0553444 -0.0342842 0)
  (-0.0646214 -0.0332234 0)
  (-0.074716 -0.0310466 0)
  (-0.0859222 -0.0264954 0)
  (-0.0987115 -0.0182949 0)
  (-0.113471 -0.00531841 0)
  (-0.128969 0.0125432 0)
  (-0.143027 0.0324741 0)
  (-0.169687 0.0532242 0)
  (-0.210863 0.0730424 0)
  (-0.270278 0.0870104 0)
  (-0.33598 0.0925457 0)
  (-0.40853 0.0904935 0)
  (-0.679755 0.0810505 0)
  (-0.225716 0.105565 0)
  (0.173581 0.178547 0)
  (0.258873 0.172548 0)
  (0.254098 0.14138 0)
  (0.254268 0.102057 0)
  (0.256941 0.0629571 0)
  (0.255626 0.0286667 0)
  (0.248074 0.000751188 0)
  (0.23297 -0.0205802 0)
  (0.212444 -0.0356205 0)
  (0.188457 -0.0452799 0)
  (0.16264 -0.0505534 0)
  (0.136332 -0.0523966 0)
  (0.110519 -0.051705 0)
  (0.0857666 -0.0493426 0)
  (0.0619556 -0.0463253 0)
  (0.0373396 -0.0449264 0)
  (0.0177272 -0.054987 0)
  (0.00531628 -0.0942033 0)
  (-0.0125713 -0.052633 0)
  (-0.0210986 -0.0293825 0)
  (-0.0397499 -0.0252168 0)
  (-0.0525771 -0.0245925 0)
  (-0.0636264 -0.0244694 0)
  (-0.0752073 -0.0244102 0)
  (-0.0877155 -0.0238143 0)
  (-0.100915 -0.0217064 0)
  (-0.11414 -0.0169126 0)
  (-0.126133 -0.00820841 0)
  (-0.135281 0.00563831 0)
  (-0.140772 0.0241317 0)
  (-0.144273 0.0475377 0)
  (-0.148295 0.0732872 0)
  (-0.154134 0.0956327 0)
  (-0.158428 0.102996 0)
  (-0.140794 0.0739045 0)
  (-0.0845616 -0.034364 0)
  (-0.291498 -0.237234 0)
  (-0.114663 0.260307 0)
  (0.0827474 0.189102 0)
  (0.10348 0.140864 0)
  (0.136934 0.115765 0)
  (0.172721 0.0865124 0)
  (0.200433 0.0579394 0)
  (0.215637 0.0355427 0)
  (0.218732 0.0208375 0)
  (0.212916 0.011377 0)
  (0.200443 0.00435467 0)
  (0.183498 -0.000455906 0)
  (0.163677 -0.00314181 0)
  (0.142251 -0.00375786 0)
  (0.120198 -0.00237611 0)
  (0.0981825 0.000943468 0)
  (0.0764106 0.00610861 0)
  (0.0537901 0.0101246 0)
  (0.0370475 -0.0144013 0)
  (0.00300578 -0.080628 0)
  (-0.0364427 -0.016154 0)
  (-0.0439538 0.0343918 0)
  (-0.0588672 0.0370437 0)
  (-0.069072 0.0342152 0)
  (-0.0774075 0.0352166 0)
  (-0.0853564 0.0364546 0)
  (-0.0931101 0.0366307 0)
  (-0.10057 0.0360335 0)
  (-0.107441 0.0348619 0)
  (-0.112817 0.0328378 0)
  (-0.114756 0.0327751 0)
  (-0.110672 0.0387259 0)
  (-0.0991831 0.0522319 0)
  (-0.0811641 0.0721608 0)
  (-0.0583795 0.0920179 0)
  (-0.0342999 0.102742 0)
  (0.00990799 0.0848875 0)
  (0.142964 0.00637785 0)
  (-0.204525 -0.152351 0)
  (-0.178199 -0.379303 0)
  (-0.459722 -0.102302 0)
  (-0.332559 0.159344 0)
  (-0.177729 0.0638733 0)
  (-0.083907 0.0367267 0)
  (0.0241379 0.0302679 0)
  (0.0910422 0.00770269 0)
  (0.14082 -0.0145105 0)
  (0.172342 -0.034271 0)
  (0.187068 -0.0518886 0)
  (0.189408 -0.0673179 0)
  (0.183359 -0.0798165 0)
  (0.171499 -0.090738 0)
  (0.155951 -0.101101 0)
  (0.13839 -0.111763 0)
  (0.120147 -0.1235 0)
  (0.102259 -0.136936 0)
  (0.0854654 -0.152314 0)
  (0.0701577 -0.169348 0)
  (0.0601138 -0.188623 0)
  (-0.00452188 -0.201747 0)
  (-0.0718207 -0.184245 0)
  (-0.0765628 -0.173683 0)
  (-0.0820481 -0.169816 0)
  (-0.0899911 -0.166145 0)
  (-0.0982081 -0.16094 0)
  (-0.105301 -0.154275 0)
  (-0.111072 -0.145956 0)
  (-0.115274 -0.135545 0)
  (-0.117304 -0.122384 0)
  (-0.116126 -0.105428 0)
  (-0.109835 -0.0864974 0)
  (-0.0949661 -0.0659569 0)
  (-0.0688459 -0.0432929 0)
  (-0.0334926 -0.0180057 0)
  (0.0307378 0.0134548 0)
  (0.0834979 0.012924 0)
  (0.134738 -0.012401 0)
  (0.184554 -0.0595096 0)
  (-0.154838 -0.133295 0)
)
;

boundaryField
{
  floor
  {
    type noSlip;
  }
  ceiling
  {
    type noSlip;
  }
  sWall
  {
    type noSlip;
  }
  nWall
  {
    type noSlip;
  }
  sideWalls
  {
    type empty;
  }
  glass1
  {
    type noSlip;
  }
  glass2
  {
    type noSlip;
  }
  sun
  {
    type noSlip;
  }
  heatsource1
  {
    type noSlip;
  }
  heatsource2
  {
    type noSlip;
  }
  Table_master
  {
    type noSlip;
  }
  Table_slave
  {
    type noSlip;
  }
  inlet
  {
    type fixedValue;
    value uniform (0.277164 -0.114805 0);
  }
  outlet
  {
    type zeroGradient;
  }
} 	// ************************************************************************* //

