// -*- C++ -*-
// File generated by PyFoam - sorry for the ugliness

FoamFile
{
 version 2.0;
 format ascii;
 class volVectorField;
 location "480";
 object U;
}

dimensions [ 0 1 -1 0 0 0 0 ];

internalField nonuniform List<vector> 459
(
  (-0.00293942 0.0454992 0)
  (-0.0908751 0.0171365 0)
  (-0.112352 0.00914138 0)
  (-0.129348 0.0028887 0)
  (-0.13714 -0.00359959 0)
  (-0.133912 -0.0106183 0)
  (-0.118883 -0.0185803 0)
  (-0.0927513 -0.0266176 0)
  (-0.0590166 -0.0331375 0)
  (-0.0243001 -0.0362019 0)
  (0.0187988 -0.0257403 0)
  (0.0381486 -0.0159099 0)
  (0.0497642 -0.00603041 0)
  (0.0473605 0.00625744 0)
  (0.0535367 0.0285967 0)
  (-0.0734363 0.006531 0)
  (0.0135298 -9.2771e-05 0)
  (0.00797356 -0.0121032 0)
  (0.022839 -0.0143668 0)
  (0.0379362 -0.0125162 0)
  (0.0508844 -0.0092658 0)
  (0.0594843 -0.00540202 0)
  (0.0638703 -0.00321956 0)
  (0.065506 -0.00239293 0)
  (0.0660491 -0.00207243 0)
  (0.0662704 -0.00186129 0)
  (0.0662342 -0.00164156 0)
  (0.0657752 -0.00130745 0)
  (0.0645541 -0.00064651 0)
  (0.0618015 0.000817848 0)
  (0.0559563 0.00389042 0)
  (0.0453394 0.00847724 0)
  (0.0156153 0.0165644 0)
  (0.0566213 0.00691016 0)
  (0.0701328 0.0932994 0)
  (-0.0806361 0.0458723 0)
  (-0.0915817 0.0323279 0)
  (-0.108694 0.0200202 0)
  (-0.116877 0.00601956 0)
  (-0.114743 -0.0102177 0)
  (-0.10164 -0.0279251 0)
  (-0.0788737 -0.0441142 0)
  (-0.0500808 -0.0548504 0)
  (-0.020801 -0.0565603 0)
  (0.00876903 -0.0433408 0)
  (0.0285155 -0.0259594 0)
  (0.0420402 -0.00815194 0)
  (0.0495248 0.0104671 0)
  (0.05748 0.032088 0)
  (0.0548776 0.0326521 0)
  (0.0362391 0.0334751 0)
  (-0.0896668 0.00409556 0)
  (0.0228847 -0.0178348 0)
  (0.0263229 -0.0238303 0)
  (0.037082 -0.0245182 0)
  (0.048104 -0.0208219 0)
  (0.0569998 -0.0149039 0)
  (0.0616299 -0.0061592 0)
  (0.0626563 -0.00100166 0)
  (0.0625276 0.000996008 0)
  (0.0625867 0.00177836 0)
  (0.0628318 0.00226375 0)
  (0.0630247 0.00272177 0)
  (0.0630592 0.0033612 0)
  (0.0628912 0.00463437 0)
  (0.0619882 0.00756236 0)
  (0.0578836 0.015052 0)
  (0.0489045 0.0230863 0)
  (0.0169609 0.033236 0)
  (0.0953971 0.0239514 0)
  (0.139296 0.139739 0)
  (-0.0812994 0.070309 0)
  (-0.0706288 0.050608 0)
  (-0.0867991 0.0304169 0)
  (-0.0949311 0.00768541 0)
  (-0.0933231 -0.0181822 0)
  (-0.0810439 -0.0456847 0)
  (-0.0606893 -0.0693528 0)
  (-0.0363457 -0.0828308 0)
  (-0.0128263 -0.0819308 0)
  (0.00949593 -0.0644018 0)
  (0.0262313 -0.0420433 0)
  (0.0387333 -0.0189095 0)
  (0.0468344 0.00391729 0)
  (0.052134 0.0253139 0)
  (0.0498522 0.0370739 0)
  (0.0403973 0.0594655 0)
  (-0.0454015 -0.0176139 0)
  (0.0349387 -0.0337695 0)
  (0.0455022 -0.0377897 0)
  (0.0512109 -0.0349921 0)
  (0.0569915 -0.0292764 0)
  (0.0621172 -0.0235643 0)
  (0.0639086 -0.0174417 0)
  (0.0588104 -0.0114662 0)
  (0.0547389 -0.00839728 0)
  (0.0532536 -0.00676436 0)
  (0.0529634 -0.00574531 0)
  (0.0530311 -0.00499823 0)
  (0.0535171 -0.00421208 0)
  (0.0550806 -0.00291089 0)
  (0.059317 0.00110076 0)
  (0.0595127 0.0194199 0)
  (0.0525693 0.0335068 0)
  (0.0175386 0.0488456 0)
  (0.119287 0.0496299 0)
  (0.20564 0.177346 0)
  (-0.0905115 0.0902135 0)
  (-0.048347 0.066625 0)
  (-0.0626407 0.0407072 0)
  (-0.0695126 0.011022 0)
  (-0.0666481 -0.0242364 0)
  (-0.0538415 -0.061492 0)
  (-0.0360288 -0.0914258 0)
  (-0.0169347 -0.106285 0)
  (0.000485592 -0.10243 0)
  (0.0157601 -0.0824283 0)
  (0.0284968 -0.0560581 0)
  (0.0384306 -0.0287676 0)
  (0.0458998 -0.00308451 0)
  (0.0527219 0.0202089 0)
  (0.0607136 0.0385846 0)
  (0.0725222 0.059365 0)
  (0.0950513 0.0092699 0)
  (0.0876107 -0.0124894 0)
  (0.0784701 -0.0298698 0)
  (0.0697025 -0.0365918 0)
  (0.0638127 -0.0350933 0)
  (0.0603264 -0.0297713 0)
  (0.0575111 -0.0224787 0)
  (0.0584883 -0.0135535 0)
  (0.065058 -0.00921217 0)
  (0.0699988 -0.00687448 0)
  (0.0726121 -0.00547838 0)
  (0.074011 -0.00437892 0)
  (0.0744391 -0.00319216 0)
  (0.0730305 -0.00155056 0)
  (0.0686109 0.000941401 0)
  (0.0586294 0.00489305 0)
  (0.0510903 0.0249993 0)
  (0.0512329 0.0414705 0)
  (0.0216502 0.0603053 0)
  (0.135919 0.0857424 0)
  (0.268295 0.205913 0)
  (-0.106441 0.104219 0)
  (-0.0253864 0.0764271 0)
  (-0.0360975 0.0474167 0)
  (-0.0399452 0.0132922 0)
  (-0.0316599 -0.0304725 0)
  (-0.0177795 -0.075678 0)
  (-0.00395546 -0.108606 0)
  (0.00828284 -0.122357 0)
  (0.0175935 -0.11572 0)
  (0.0256399 -0.0942301 0)
  (0.0324955 -0.0654742 0)
  (0.0379767 -0.0359519 0)
  (0.0428679 -0.00934134 0)
  (0.0489253 0.0130396 0)
  (0.0575643 0.0287111 0)
  (0.0707688 0.0344295 0)
  (0.0818664 0.00782219 0)
  (0.0808352 -0.0115061 0)
  (0.0732517 -0.0237567 0)
  (0.064711 -0.0288824 0)
  (0.0569554 -0.0284862 0)
  (0.050639 -0.0246201 0)
  (0.045991 -0.0182918 0)
  (0.04449 -0.00954485 0)
  (0.0459741 -0.00466749 0)
  (0.047679 -0.0026921 0)
  (0.0490533 -0.00176569 0)
  (0.0504233 -0.000756336 0)
  (0.0518256 0.00106652 0)
  (0.0527437 0.00413351 0)
  (0.0524363 0.00883056 0)
  (0.0504274 0.0157226 0)
  (0.0488977 0.0284288 0)
  (0.0548116 0.0420214 0)
  (0.0458601 0.0561064 0)
  (0.104999 0.0841549 0)
  (0.0990051 0.0659772 0)
  (0.0963502 0.0462129 0)
  (-0.149136 0.0453149 0)
  (0.320788 0.228346 0)
  (-0.126558 0.111111 0)
  (-0.00532727 0.0757937 0)
  (-0.00771333 0.0496651 0)
  (-0.00588942 0.0138364 0)
  (0.0135019 -0.0415975 0)
  (0.0261123 -0.0884597 0)
  (0.0338326 -0.118683 0)
  (0.0372206 -0.129293 0)
  (0.0376508 -0.120964 0)
  (0.0368081 -0.0982219 0)
  (0.0355325 -0.0682816 0)
  (0.0344461 -0.038235 0)
  (0.034524 -0.0125534 0)
  (0.0372084 0.00692017 0)
  (0.0432678 0.0184759 0)
  (0.052984 0.0195378 0)
  (0.0594303 0.00581851 0)
  (0.0588478 -0.00782416 0)
  (0.053236 -0.016784 0)
  (0.0457111 -0.020956 0)
  (0.0380118 -0.0211544 0)
  (0.0311636 -0.0185505 0)
  (0.0259376 -0.0140587 0)
  (0.0232066 -0.00870106 0)
  (0.0229151 -0.00564216 0)
  (0.0238162 -0.00457294 0)
  (0.0253475 -0.00421466 0)
  (0.0274356 -0.00361366 0)
  (0.0300222 -0.00196264 0)
  (0.0333472 0.0015707 0)
  (0.0365201 0.00723674 0)
  (0.0392852 0.0149587 0)
  (0.0426722 0.0250186 0)
  (0.0503469 0.035168 0)
  (0.0516307 0.0410352 0)
  (0.0742302 0.054297 0)
  (0.072981 0.0421011 0)
  (0.0956587 0.0398802 0)
  (-0.142029 0.0686442 0)
  (0.360764 0.246806 0)
  (-0.140318 0.100162 0)
  (0.0148885 0.0499934 0)
  (0.0286616 0.0341735 0)
  (0.0468521 -0.00368356 0)
  (0.0661919 -0.0559205 0)
  (0.0754887 -0.0971545 0)
  (0.0756415 -0.121287 0)
  (0.0688131 -0.127139 0)
  (0.0578744 -0.116049 0)
  (0.04568 -0.0922566 0)
  (0.034224 -0.0624035 0)
  (0.0250989 -0.0336929 0)
  (0.0194596 -0.0107764 0)
  (0.0182334 0.00463466 0)
  (0.0217723 0.0124664 0)
  (0.0280419 0.0124214 0)
  (0.031772 0.00439994 0)
  (0.0310448 -0.00457161 0)
  (0.026514 -0.0108693 0)
  (0.019916 -0.0139103 0)
  (0.0127905 -0.0141983 0)
  (0.00627713 -0.012597 0)
  (0.00129495 -0.0099537 0)
  (-0.00140423 -0.00724539 0)
  (-0.00188774 -0.00601282 0)
  (-0.00106449 -0.00598845 0)
  (0.000561662 -0.00638685 0)
  (0.0028243 -0.00650342 0)
  (0.00578627 -0.0056677 0)
  (0.0097434 -0.00300605 0)
  (0.015937 0.00244269 0)
  (0.0224141 0.00988274 0)
  (0.0294976 0.0182457 0)
  (0.0385171 0.026135 0)
  (0.0445666 0.0307961 0)
  (0.0570309 0.0401067 0)
  (0.0620335 0.043476 0)
  (0.106598 0.0578813 0)
  (-0.10574 0.115272 0)
  (0.426871 0.2445 0)
  (-0.0351383 0.0749053 0)
  (0.0594051 -0.00829986 0)
  (0.0961682 -0.0366549 0)
  (0.12302 -0.0577894 0)
  (0.134857 -0.0810116 0)
  (0.133292 -0.101535 0)
  (0.119831 -0.112779 0)
  (0.0978579 -0.111482 0)
  (0.0719121 -0.097591 0)
  (0.04616 -0.0739926 0)
  (0.0236057 -0.0463798 0)
  (0.00695989 -0.0218062 0)
  (-0.00287578 -0.00420848 0)
  (-0.00590597 0.00525388 0)
  (-0.00391798 0.00919962 0)
  (-0.000112645 0.00853978 0)
  (0.00179406 0.00365724 0)
  (0.000652904 -0.00177312 0)
  (-0.00345475 -0.00563944 0)
  (-0.00922737 -0.00749943 0)
  (-0.0153169 -0.00782471 0)
  (-0.0206993 -0.00731327 0)
  (-0.0246418 -0.00661297 0)
  (-0.0267646 -0.0062647 0)
  (-0.0273262 -0.00667769 0)
  (-0.0269653 -0.00763815 0)
  (-0.0261224 -0.00873516 0)
  (-0.0249805 -0.00959228 0)
  (-0.0234828 -0.00987856 0)
  (-0.0212581 -0.00922037 0)
  (-0.0173749 -0.00708055 0)
  (-0.00948948 -0.00276682 0)
  (0.000923903 0.00285901 0)
  (0.0110773 0.00756518 0)
  (0.0185774 0.0094993 0)
  (0.0282944 0.0130611 0)
  (0.03574 0.0141192 0)
  (0.107073 0.0604562 0)
  (-0.31797 0.175513 0)
  (0.514135 0.245922 0)
  (0.246859 0.173736 0)
  (0.258562 0.125533 0)
  (0.274479 0.0729749 0)
  (0.260511 0.0198956 0)
  (0.232352 -0.0261819 0)
  (0.196768 -0.0581872 0)
  (0.155024 -0.0736236 0)
  (0.110099 -0.074009 0)
  (0.0664033 -0.062347 0)
  (0.0276684 -0.0425285 0)
  (-0.00312997 -0.0203397 0)
  (-0.021368 -0.00472715 0)
  (-0.0301997 0.00350016 0)
  (-0.032315 0.00703736 0)
  (-0.0313862 0.0081671 0)
  (-0.0296479 0.00739458 0)
  (-0.0292251 0.00495747 0)
  (-0.0308993 0.00223726 0)
  (-0.033994 0.000121371 0)
  (-0.0382052 -0.00114845 0)
  (-0.0426126 -0.00186224 0)
  (-0.0464808 -0.00241834 0)
  (-0.0494271 -0.0030844 0)
  (-0.0513752 -0.00401318 0)
  (-0.0526114 -0.00525181 0)
  (-0.0535825 -0.00665746 0)
  (-0.0546727 -0.00802135 0)
  (-0.0562381 -0.00911676 0)
  (-0.0586882 -0.00964112 0)
  (-0.062483 -0.00905407 0)
  (-0.0679799 -0.00638721 0)
  (-0.075483 -0.000275542 0)
  (-0.0841169 0.00908105 0)
  (-0.096236 0.0218741 0)
  (-0.116402 0.0392331 0)
  (-0.143865 0.0620233 0)
  (-0.178094 0.0876791 0)
  (-0.232133 0.11096 0)
  (-0.455663 0.123045 0)
  (0.241754 -0.0323744 0)
  (0.234406 -0.0196066 0)
  (0.216549 -0.0292686 0)
  (0.187011 -0.0371489 0)
  (0.146227 -0.0394393 0)
  (0.099996 -0.0369272 0)
  (0.0534828 -0.0298739 0)
  (0.0100302 -0.0174477 0)
  (-0.026425 -0.00252375 0)
  (-0.0455287 0.00598947 0)
  (-0.0550576 0.0101058 0)
  (-0.058212 0.0116791 0)
  (-0.0586197 0.0122633 0)
  (-0.0579055 0.0124363 0)
  (-0.0571054 0.012168 0)
  (-0.0571107 0.0114091 0)
  (-0.0582188 0.0105504 0)
  (-0.0601139 0.00994618 0)
  (-0.0623502 0.00965425 0)
  (-0.0645468 0.00947238 0)
  (-0.0666368 0.00924304 0)
  (-0.0686836 0.00879461 0)
  (-0.0708242 0.00828908 0)
  (-0.0732158 0.00807302 0)
  (-0.0759794 0.00842758 0)
  (-0.079144 0.00963747 0)
  (-0.082669 0.011903 0)
  (-0.0865282 0.0151664 0)
  (-0.090813 0.0188521 0)
  (-0.0955362 0.0218195 0)
  (-0.0998317 0.0253259 0)
  (-0.103638 0.0310359 0)
  (-0.10684 0.0403472 0)
  (-0.109148 0.0540637 0)
  (-0.108209 0.0706208 0)
  (-0.0994686 0.078223 0)
  (-0.0861144 0.0423512 0)
  (-0.160777 -0.145964 0)
  (0.0442064 0.0919085 0)
  (-0.00749995 0.0302824 0)
  (-0.0144486 -0.00117216 0)
  (-0.019937 -0.0177576 0)
  (-0.0276738 -0.026906 0)
  (-0.042335 -0.0321065 0)
  (-0.0575261 -0.0351459 0)
  (-0.0695183 -0.0375851 0)
  (-0.076222 -0.0405646 0)
  (-0.0791831 -0.0445489 0)
  (-0.0800984 -0.0477774 0)
  (-0.0796817 -0.0498894 0)
  (-0.0785692 -0.0510119 0)
  (-0.0770675 -0.0517643 0)
  (-0.0755027 -0.0528368 0)
  (-0.0742389 -0.0546253 0)
  (-0.0734693 -0.0570019 0)
  (-0.0731588 -0.0596255 0)
  (-0.0731822 -0.0622601 0)
  (-0.0734488 -0.0648612 0)
  (-0.0739617 -0.0674385 0)
  (-0.0748415 -0.0699679 0)
  (-0.0763046 -0.0726319 0)
  (-0.0785065 -0.0756491 0)
  (-0.0814967 -0.0789991 0)
  (-0.0851988 -0.0824381 0)
  (-0.0893333 -0.085401 0)
  (-0.0933813 -0.0868997 0)
  (-0.0966983 -0.0854324 0)
  (-0.0987768 -0.079064 0)
  (-0.0989214 -0.0679248 0)
  (-0.0957135 -0.0518853 0)
  (-0.0873067 -0.0316472 0)
  (-0.0718924 -0.0088951 0)
  (-0.0491149 0.0120583 0)
  (-0.0202601 0.0189843 0)
  (0.0813088 -0.0564408 0)
  (-0.119463 -0.10565 0)
  (-0.178147 -0.229743 0)
  (-0.270505 -0.0423717 0)
  (-0.215295 0.130048 0)
  (-0.187389 0.118365 0)
  (-0.154345 0.120749 0)
  (-0.140117 0.129248 0)
  (-0.133883 0.138464 0)
  (-0.130197 0.147236 0)
  (-0.126131 0.156434 0)
  (-0.120785 0.166275 0)
  (-0.114425 0.175604 0)
  (-0.108256 0.183394 0)
  (-0.102999 0.188875 0)
  (-0.0986932 0.192385 0)
  (-0.0950488 0.194658 0)
  (-0.0917367 0.196564 0)
  (-0.0886479 0.198727 0)
  (-0.0858864 0.201362 0)
  (-0.0836084 0.204293 0)
  (-0.0819009 0.207226 0)
  (-0.0807806 0.209981 0)
  (-0.0802408 0.212545 0)
  (-0.0802615 0.214994 0)
  (-0.0807725 0.217446 0)
  (-0.081666 0.220238 0)
  (-0.0828274 0.223751 0)
  (-0.0841123 0.228109 0)
  (-0.0853304 0.233173 0)
  (-0.0862549 0.238429 0)
  (-0.086617 0.242911 0)
  (-0.0860136 0.245259 0)
  (-0.0836771 0.24405 0)
  (-0.0784509 0.239935 0)
  (-0.0689267 0.233627 0)
  (-0.0539808 0.226934 0)
  (-0.0339448 0.222486 0)
  (-0.00838471 0.222544 0)
  (0.0207908 0.227131 0)
  (0.113705 0.261597 0)
  (-0.251812 0.260208 0)
)
;

boundaryField
{
  floor
  {
    type noSlip;
  }
  ceiling
  {
    type noSlip;
  }
  sWall
  {
    type noSlip;
  }
  nWall
  {
    type noSlip;
  }
  sideWalls
  {
    type empty;
  }
  glass1
  {
    type noSlip;
  }
  glass2
  {
    type noSlip;
  }
  sun
  {
    type noSlip;
  }
  heatsource1
  {
    type noSlip;
  }
  heatsource2
  {
    type noSlip;
  }
  Table_master
  {
    type noSlip;
  }
  Table_slave
  {
    type noSlip;
  }
  inlet
  {
    type fixedValue;
    value uniform (0.277164 -0.114805 0);
  }
  outlet
  {
    type zeroGradient;
  }
} 	// ************************************************************************* //

