// -*- C++ -*-
// File generated by PyFoam - sorry for the ugliness

FoamFile
{
 version 2.0;
 format ascii;
 class volScalarField;
 location "200";
 object T;
}

dimensions [ 0 0 0 1 0 0 0 ];

internalField nonuniform List<scalar> 459
(
  311.907
  311.824
  311.771
  311.733
  311.703
  311.678
  311.658
  311.638
  311.618
  311.598
  311.577
  311.554
  311.529
  311.499
  311.449
  306.979
  306.984
  307.003
  307.027
  307.049
  307.067
  307.09
  307.11
  307.127
  307.143
  307.16
  307.185
  307.221
  307.266
  307.314
  307.347
  307.341
  307.345
  307.367
  311.916
  311.757
  311.645
  311.568
  311.512
  311.474
  311.453
  311.437
  311.427
  311.421
  311.419
  311.42
  311.424
  311.426
  311.417
  311.371
  311.217
  307.059
  307.084
  307.104
  307.123
  307.15
  307.178
  307.206
  307.234
  307.262
  307.29
  307.322
  307.354
  307.391
  307.436
  307.49
  307.542
  307.536
  307.519
  307.522
  311.917
  311.672
  311.466
  311.319
  311.215
  311.15
  311.12
  311.119
  311.137
  311.17
  311.213
  311.26
  311.307
  311.347
  311.363
  311.304
  311.022
  307.191
  307.221
  307.235
  307.257
  307.279
  307.298
  307.312
  307.352
  307.392
  307.431
  307.47
  307.512
  307.558
  307.614
  307.681
  307.748
  307.751
  307.737
  307.684
  311.918
  311.598
  311.266
  311.023
  310.864
  310.777
  310.74
  310.765
  310.832
  310.925
  311.028
  311.13
  311.221
  311.286
  311.241
  310.736
  309.016
  307.489
  307.419
  307.506
  307.564
  307.625
  307.684
  307.738
  307.78
  307.8
  307.817
  307.834
  307.848
  307.862
  307.875
  307.886
  307.894
  307.895
  307.902
  307.901
  307.881
  311.919
  311.547
  311.066
  310.735
  310.595
  310.548
  310.529
  310.562
  310.657
  310.789
  310.932
  311.068
  311.179
  311.183
  310.936
  310.055
  308.38
  307.656
  307.625
  307.675
  307.72
  307.763
  307.803
  307.836
  307.862
  307.883
  307.9
  307.916
  307.931
  307.946
  307.959
  307.972
  307.983
  307.99
  307.998
  308.002
  308.008
  308.018
  308.029
  308.046
  311.921
  311.526
  310.909
  310.578
  310.546
  310.54
  310.533
  310.555
  310.651
  310.786
  310.927
  311.046
  311.098
  310.977
  310.513
  309.448
  308.124
  307.772
  307.766
  307.803
  307.842
  307.878
  307.909
  307.936
  307.958
  307.976
  307.99
  308.004
  308.016
  308.028
  308.04
  308.052
  308.062
  308.07
  308.075
  308.077
  308.079
  308.082
  308.086
  308.095
  311.923
  311.543
  310.938
  310.597
  310.593
  310.61
  310.632
  310.665
  310.73
  310.827
  310.926
  310.987
  310.949
  310.697
  310.079
  309.009
  308.07
  307.895
  307.91
  307.952
  307.992
  308.027
  308.056
  308.077
  308.09
  308.1
  308.108
  308.115
  308.123
  308.13
  308.137
  308.144
  308.15
  308.154
  308.155
  308.153
  308.149
  308.145
  308.14
  308.132
  311.951
  311.668
  311.173
  310.652
  310.63
  310.653
  310.697
  310.739
  310.78
  310.834
  310.879
  310.875
  310.754
  310.412
  309.735
  308.772
  308.131
  308.046
  308.085
  308.143
  308.197
  308.231
  308.249
  308.257
  308.259
  308.259
  308.258
  308.257
  308.256
  308.255
  308.255
  308.254
  308.253
  308.25
  308.245
  308.237
  308.225
  308.211
  308.192
  308.164
  312.046
  312.042
  312.068
  310.938
  310.63
  310.612
  310.665
  310.716
  310.752
  310.777
  310.78
  310.728
  310.564
  310.2
  309.56
  308.745
  308.293
  308.25
  308.304
  308.385
  308.435
  308.459
  308.466
  308.464
  308.456
  308.447
  308.436
  308.425
  308.414
  308.403
  308.392
  308.381
  308.37
  308.357
  308.342
  308.324
  308.301
  308.272
  308.235
  308.188
  313.776
  311.463
  310.666
  310.533
  310.568
  310.615
  310.651
  310.664
  310.647
  310.58
  310.422
  310.108
  309.553
  308.93
  308.668
  308.605
  308.624
  308.662
  308.688
  308.697
  308.694
  308.683
  308.667
  308.648
  308.628
  308.606
  308.584
  308.562
  308.539
  308.516
  308.492
  308.467
  308.44
  308.41
  308.373
  308.327
  308.267
  308.195
  313.113
  312.092
  310.799
  310.466
  310.469
  310.497
  310.519
  310.526
  310.508
  310.451
  310.334
  310.081
  309.671
  309.34
  309.17
  309.085
  309.039
  309.005
  308.981
  308.958
  308.935
  308.909
  308.88
  308.85
  308.818
  308.785
  308.751
  308.716
  308.68
  308.644
  308.607
  308.569
  308.529
  308.485
  308.436
  308.377
  308.307
  308.228
  313.273
  313.262
  313.177
  312.992
  311.154
  310.387
  310.368
  310.38
  310.391
  310.397
  310.389
  310.359
  310.293
  310.096
  309.898
  309.752
  309.655
  309.583
  309.522
  309.46
  309.398
  309.336
  309.277
  309.219
  309.163
  309.108
  309.054
  309.001
  308.948
  308.895
  308.842
  308.789
  308.735
  308.681
  308.624
  308.564
  308.498
  308.42
  308.316
  308.171
)
;

boundaryField
{
  floor
  {
    type wallHeatTransfer;
    Tinf uniform 305.2;
    alphaWall uniform 0.24;
    value nonuniform List<scalar> 29
(
  310.913
  306.593
  306.581
  306.497
  306.436
  306.433
  306.454
  306.488
  306.518
  306.543
  306.566
  306.587
  306.619
  306.668
  306.734
  306.813
  306.888
  306.927
  306.978
  306.979
  306.979
  307.187
  307.368
  307.547
  310.913
  306.593
  306.724
  306.857
  307.124
)
;
  }
  ceiling
  {
    type wallHeatTransfer;
    Tinf uniform 303.2;
    alphaWall uniform 0.24;
    value nonuniform List<scalar> 43
(
  312.18
  312.211
  312.63
  312.403
  310.58
  309.807
  309.768
  309.76
  309.76
  309.763
  309.75
  309.72
  309.657
  309.471
  309.288
  309.162
  309.088
  309.042
  309.009
  308.979
  308.945
  308.906
  308.861
  308.812
  308.761
  308.708
  308.656
  308.603
  308.551
  308.499
  308.448
  308.397
  308.345
  308.293
  308.239
  308.182
  308.118
  308.041
  307.932
  307.757
  311.794
  311.822
  312.826
)
;
  }
  sWall
  {
    type wallHeatTransfer;
    Tinf uniform 315.2;
    alphaWall uniform 0.36;
    value uniform 313.571;
  }
  nWall
  {
    type wallHeatTransfer;
    Tinf uniform 307.2;
    alphaWall uniform 0.36;
    value nonuniform List<scalar> 6
(
  307.912
  307.975
  308.021
  308.078
  308.125
  308.055
)
;
  }
  sideWalls
  {
    type empty;
  }
  glass1
  {
    type wallHeatTransfer;
    Tinf uniform 315.2;
    alphaWall uniform 4.3;
    value nonuniform List<scalar> 9
(
  313.56
  313.47
  313.406
  313.354
  313.307
  313.26
  313.209
  313.161
  313.135
)
;
  }
  glass2
  {
    type wallHeatTransfer;
    Tinf uniform 307.2;
    alphaWall uniform 4.3;
    value nonuniform List<scalar> 2
(
  307.596
  307.602
)
;
  }
  sun
  {
    type wallHeatTransfer;
    Tinf uniform 305.2;
    alphaWall uniform 0.24;
    value nonuniform List<scalar> 14
(
  311.551
  311.456
  311.39
  311.341
  311.3
  311.266
  311.237
  311.209
  311.18
  311.151
  311.12
  311.085
  311.045
  310.993
)
;
  }
  heatsource1
  {
    type fixedGradient;
    gradient uniform 0;
  }
  heatsource2
  {
    type fixedGradient;
    gradient uniform 0;
  }
  Table_master
  {
    type zeroGradient;
  }
  Table_slave
  {
    type zeroGradient;
  }
  inlet
  {
    type fixedValue;
    value uniform 290.15;
  }
  outlet
  {
    type zeroGradient;
  }
} 	// ************************************************************************* //

