// -*- C++ -*-
// File generated by PyFoam - sorry for the ugliness

FoamFile
{
 version 2.0;
 format ascii;
 class volScalarField;
 location "100";
 object T;
}

dimensions [ 0 0 0 1 0 0 0 ];

internalField nonuniform List<scalar> 459
(
  307.977
  307.851
  307.8
  307.771
  307.751
  307.736
  307.726
  307.717
  307.708
  307.699
  307.691
  307.682
  307.673
  307.662
  307.645
  306.089
  306.108
  306.124
  306.129
  306.128
  306.121
  306.111
  306.106
  306.105
  306.104
  306.104
  306.103
  306.104
  306.108
  306.114
  306.121
  306.123
  306.119
  306.111
  307.915
  307.727
  307.642
  307.596
  307.566
  307.547
  307.536
  307.532
  307.532
  307.535
  307.542
  307.553
  307.569
  307.589
  307.609
  307.598
  307.574
  306.127
  306.135
  306.142
  306.144
  306.142
  306.135
  306.13
  306.13
  306.132
  306.132
  306.131
  306.128
  306.126
  306.128
  306.136
  306.15
  306.151
  306.146
  306.135
  307.864
  307.594
  307.48
  307.417
  307.377
  307.352
  307.338
  307.338
  307.348
  307.367
  307.394
  307.428
  307.468
  307.511
  307.553
  307.565
  307.557
  306.146
  306.149
  306.151
  306.152
  306.15
  306.147
  306.143
  306.145
  306.147
  306.148
  306.147
  306.145
  306.142
  306.14
  306.142
  306.167
  306.165
  306.16
  306.148
  307.816
  307.479
  307.35
  307.279
  307.234
  307.206
  307.19
  307.187
  307.203
  307.235
  307.278
  307.331
  307.39
  307.45
  307.508
  307.538
  307.528
  306.834
  306.194
  306.164
  306.163
  306.165
  306.167
  306.168
  306.17
  306.171
  306.171
  306.171
  306.171
  306.171
  306.171
  306.173
  306.175
  306.176
  306.175
  306.171
  306.162
  307.766
  307.395
  307.271
  307.196
  307.16
  307.14
  307.124
  307.115
  307.128
  307.162
  307.212
  307.275
  307.344
  307.415
  307.481
  307.518
  307.491
  306.733
  306.23
  306.182
  306.181
  306.185
  306.19
  306.193
  306.195
  306.196
  306.195
  306.192
  306.189
  306.186
  306.183
  306.182
  306.183
  306.184
  306.183
  306.18
  306.171
  306.169
  306.168
  306.172
  307.71
  307.349
  307.239
  307.164
  307.152
  307.138
  307.121
  307.106
  307.11
  307.143
  307.195
  307.261
  307.333
  307.406
  307.47
  307.492
  307.384
  306.644
  306.25
  306.203
  306.205
  306.213
  306.221
  306.228
  306.232
  306.232
  306.229
  306.223
  306.214
  306.204
  306.195
  306.19
  306.189
  306.189
  306.189
  306.186
  306.18
  306.176
  306.172
  306.174
  307.645
  307.34
  307.247
  307.18
  307.175
  307.167
  307.155
  307.147
  307.152
  307.178
  307.222
  307.279
  307.343
  307.406
  307.453
  307.438
  307.245
  306.57
  306.27
  306.231
  306.237
  306.251
  306.266
  306.277
  306.284
  306.283
  306.277
  306.266
  306.25
  306.23
  306.212
  306.199
  306.193
  306.193
  306.192
  306.19
  306.187
  306.182
  306.176
  306.176
  307.584
  307.351
  307.289
  307.212
  307.211
  307.211
  307.209
  307.209
  307.215
  307.235
  307.267
  307.31
  307.358
  307.4
  307.417
  307.357
  307.108
  306.524
  306.298
  306.269
  306.28
  306.302
  306.323
  306.34
  306.348
  306.348
  306.34
  306.324
  306.3
  306.269
  306.236
  306.211
  306.198
  306.195
  306.194
  306.193
  306.193
  306.194
  306.196
  306.204
  307.539
  307.395
  307.396
  307.242
  307.235
  307.244
  307.252
  307.259
  307.269
  307.282
  307.303
  307.33
  307.357
  307.375
  307.362
  307.268
  307.005
  306.522
  306.351
  306.329
  306.345
  306.37
  306.395
  306.41
  306.417
  306.416
  306.408
  306.391
  306.364
  306.324
  306.276
  306.234
  306.206
  306.197
  306.198
  306.202
  306.205
  306.207
  306.21
  306.216
  307.593
  307.255
  307.233
  307.248
  307.262
  307.275
  307.287
  307.297
  307.31
  307.323
  307.332
  307.329
  307.297
  307.198
  306.971
  306.574
  306.465
  306.444
  306.45
  306.467
  306.48
  306.487
  306.489
  306.485
  306.475
  306.458
  306.431
  306.391
  306.339
  306.282
  306.232
  306.202
  306.192
  306.191
  306.193
  306.195
  306.188
  306.186
  307.48
  307.259
  307.216
  307.231
  307.245
  307.257
  307.267
  307.275
  307.281
  307.285
  307.283
  307.27
  307.235
  307.158
  306.96
  306.743
  306.658
  306.62
  306.601
  306.589
  306.581
  306.573
  306.564
  306.553
  306.539
  306.518
  306.491
  306.452
  306.401
  306.34
  306.279
  306.229
  306.199
  306.185
  306.18
  306.177
  306.172
  306.175
  309.33
  309.268
  308.072
  307.308
  307.188
  307.194
  307.201
  307.206
  307.211
  307.217
  307.22
  307.22
  307.216
  307.205
  307.183
  307.133
  306.996
  306.909
  306.855
  306.813
  306.779
  306.747
  306.717
  306.689
  306.662
  306.636
  306.611
  306.584
  306.554
  306.517
  306.471
  306.412
  306.342
  306.271
  306.211
  306.173
  306.154
  306.146
  306.143
  306.144
)
;

boundaryField
{
  floor
  {
    type wallHeatTransfer;
    Tinf uniform 305.2;
    alphaWall uniform 0.24;
    value nonuniform List<scalar> 29
(
  307.448
  305.875
  305.89
  305.898
  305.899
  305.889
  305.858
  305.821
  305.794
  305.779
  305.775
  305.781
  305.799
  305.828
  305.861
  305.892
  305.92
  305.936
  305.939
  305.912
  305.912
  305.961
  305.989
  306.015
  307.448
  305.875
  305.944
  305.98
  306.644
)
;
  }
  ceiling
  {
    type wallHeatTransfer;
    Tinf uniform 303.2;
    alphaWall uniform 0.24;
    value nonuniform List<scalar> 43
(
  308.786
  308.715
  307.709
  306.917
  306.8
  306.799
  306.803
  306.808
  306.813
  306.818
  306.822
  306.823
  306.82
  306.811
  306.792
  306.746
  306.619
  306.542
  306.5
  306.474
  306.456
  306.44
  306.423
  306.405
  306.385
  306.363
  306.34
  306.315
  306.286
  306.253
  306.209
  306.154
  306.089
  306.021
  305.964
  305.925
  305.902
  305.888
  305.88
  305.863
  307.386
  307.263
  307.283
)
;
  }
  sWall
  {
    type wallHeatTransfer;
    Tinf uniform 315.2;
    alphaWall uniform 0.36;
    value uniform 310.078;
  }
  nWall
  {
    type wallHeatTransfer;
    Tinf uniform 307.2;
    alphaWall uniform 0.36;
    value nonuniform List<scalar> 6
(
  306.411
  306.389
  306.377
  306.309
  306.286
  306.289
)
;
  }
  sideWalls
  {
    type empty;
  }
  glass1
  {
    type wallHeatTransfer;
    Tinf uniform 315.2;
    alphaWall uniform 4.3;
    value nonuniform List<scalar> 9
(
  311.698
  311.47
  311.33
  311.223
  311.125
  311.025
  310.91
  310.771
  310.585
)
;
  }
  glass2
  {
    type wallHeatTransfer;
    Tinf uniform 307.2;
    alphaWall uniform 4.3;
    value nonuniform List<scalar> 2
(
  306.934
  306.85
)
;
  }
  sun
  {
    type wallHeatTransfer;
    Tinf uniform 305.2;
    alphaWall uniform 0.24;
    value nonuniform List<scalar> 14
(
  307.823
  307.7
  307.646
  307.615
  307.592
  307.575
  307.562
  307.55
  307.539
  307.528
  307.516
  307.504
  307.49
  307.474
)
;
  }
  heatsource1
  {
    type fixedGradient;
    gradient uniform 0;
  }
  heatsource2
  {
    type fixedGradient;
    gradient uniform 0;
  }
  Table_master
  {
    type zeroGradient;
  }
  Table_slave
  {
    type zeroGradient;
  }
  inlet
  {
    type fixedValue;
    value uniform 290.15;
  }
  outlet
  {
    type zeroGradient;
  }
} 	// ************************************************************************* //

