/*--------------------------------*- C++ -*----------------------------------*\
  =========                 |
  \\      /  F ield         | OpenFOAM: The Open Source CFD Toolbox
   \\    /   O peration     | Website:  https://openfoam.org
    \\  /    A nd           | Version:  6
     \\/     M anipulation  |
\*---------------------------------------------------------------------------*/
FoamFile
{
    version     2.0;
    format      ascii;
    class       volScalarField;
    location    "200";
    object      nut;
}
// * * * * * * * * * * * * * * * * * * * * * * * * * * * * * * * * * * * * * //

dimensions      [0 2 -1 0 0 0 0];

internalField   nonuniform List<scalar> 
459
(
0.0025631
0.00243607
0.00232924
0.00224181
0.0021694
0.00210734
0.00205267
0.00200238
0.00195403
0.0019055
0.00185454
0.00179826
0.00173206
0.00164624
0.00153359
0.000298775
0.000291577
0.000200072
0.00014851
0.000139782
0.000145917
0.000156771
0.000167608
0.000177591
0.000187326
0.000196773
0.000205499
0.000217666
0.000234957
0.000259695
0.000294486
0.000333913
0.000418703
0.000401791
0.00290104
0.00307168
0.00304079
0.00294281
0.00289024
0.00287848
0.00289004
0.00288718
0.00285686
0.00279719
0.00270783
0.00258673
0.00242324
0.00217807
0.00184599
0.0014521
0.00125834
0.000407506
0.00106269
0.000538069
0.000363798
0.000365791
0.00039362
0.00040197
0.0004244
0.000467648
0.000522689
0.000585246
0.000639186
0.000681394
0.000742861
0.000858541
0.00115039
0.00124933
0.00159723
0.000547461
0.00313709
0.0033573
0.00305364
0.00276107
0.00266064
0.00267776
0.00275253
0.00283854
0.00290417
0.00293257
0.00291292
0.00283748
0.00269602
0.00245912
0.00214945
0.00186433
0.00126654
0.000459139
0.000964324
0.000628724
0.00048144
0.000404706
0.000322795
0.000221268
0.000237881
0.000258371
0.000281135
0.000307324
0.000339196
0.00038094
0.000440848
0.000534515
0.00159711
0.00175809
0.00218084
0.000662138
0.00333113
0.00359896
0.00279121
0.00228887
0.0023065
0.00253206
0.0027928
0.00296942
0.00305339
0.00306528
0.00303005
0.00295375
0.00282432
0.00260587
0.00232006
0.00207363
0.00157531
0.000608005
0.001038
0.00115074
0.000947997
0.000817452
0.000712168
0.00061188
0.000517804
0.00053083
0.000543944
0.000557379
0.000570899
0.000586513
0.000606795
0.000636132
0.000683758
0.00185711
0.00187798
0.00193905
0.000649569
0.00351449
0.00373891
0.00234618
0.00196912
0.00276717
0.00350921
0.00395758
0.00406765
0.00375745
0.00342028
0.00318176
0.003019
0.00286528
0.00264217
0.00234899
0.0020958
0.00165816
0.00137655
0.0018124
0.00213685
0.00218264
0.0022626
0.00237424
0.00249996
0.00261216
0.00271118
0.00275666
0.00275017
0.00271763
0.00266517
0.00259539
0.00250914
0.00240476
0.00227853
0.00193887
0.00153201
0.00115425
0.000689059
0.000705616
0.0007134
0.00370762
0.00376638
0.00192245
0.00233903
0.00367252
0.0042623
0.00448556
0.00445292
0.00394368
0.00346498
0.00316137
0.00296956
0.00279557
0.00256404
0.0022954
0.00206557
0.00175557
0.00200633
0.00263418
0.00301172
0.00320106
0.00339859
0.00359582
0.00377112
0.0039042
0.00398529
0.0040082
0.00398782
0.00393543
0.00385493
0.00374622
0.00360551
0.00342471
0.00318892
0.00287585
0.00249025
0.00208134
0.00172935
0.00141918
0.000904599
0.00393341
0.00374396
0.00197742
0.00216954
0.00340273
0.00383054
0.00386838
0.00374248
0.00351064
0.00322934
0.00300336
0.00283049
0.00266001
0.00245036
0.0022305
0.00206586
0.00194627
0.00269688
0.00333045
0.003661
0.00392052
0.00416932
0.00439153
0.00456889
0.00468843
0.00475102
0.00476342
0.00473865
0.00468576
0.00461035
0.00451512
0.00440004
0.00426178
0.00409029
0.00386082
0.00352723
0.00304396
0.00247209
0.00197639
0.00107607
0.00424784
0.00416235
0.00280434
0.00167512
0.00272205
0.00314376
0.00318888
0.00312655
0.00305048
0.00293626
0.00280831
0.00268137
0.00254038
0.0023717
0.00220817
0.00212933
0.0022323
0.00331611
0.00390226
0.00429955
0.00464656
0.00493513
0.0051546
0.00529949
0.00537237
0.00539205
0.00537226
0.00532448
0.00525698
0.00517525
0.00508258
0.00498064
0.00486966
0.00474692
0.00460173
0.00440379
0.00408006
0.0035174
0.0028867
0.00122181
0.00475954
0.00548953
0.00573044
0.00249254
0.00250584
0.00294693
0.00295436
0.00290436
0.00282722
0.0027723
0.00270713
0.00262822
0.00252739
0.00239999
0.0022777
0.00226587
0.00255939
0.003697
0.00445439
0.00507303
0.00552215
0.0058446
0.00602349
0.00609211
0.00608865
0.00604154
0.00596946
0.0058841
0.00579202
0.00569612
0.00559682
0.00549317
0.00538348
0.00526511
0.005133
0.0049755
0.00476286
0.00441823
0.0037851
0.00136516
0.00924422
0.00387494
0.00327868
0.00348419
0.00339448
0.00331748
0.00318998
0.00304753
0.00295444
0.00288002
0.00279619
0.00268866
0.00258292
0.00262434
0.00313368
0.00404222
0.00506199
0.00591553
0.00648437
0.00683365
0.00698588
0.006996
0.00692234
0.00680995
0.00668756
0.00657013
0.00646276
0.00636414
0.00626951
0.00617275
0.00606773
0.00594869
0.00580944
0.00564046
0.00541843
0.00507057
0.00429139
0.00155906
0.00408854
0.00310938
0.0043062
0.00425039
0.00409698
0.0038107
0.0034971
0.00317483
0.00297656
0.00287425
0.00281146
0.00274577
0.00267744
0.0026998
0.00314467
0.00397867
0.00503377
0.0061305
0.0069727
0.00744284
0.00759353
0.00754365
0.00740299
0.00724544
0.0071101
0.00701056
0.00694451
0.0069012
0.00686689
0.00682815
0.00677314
0.00669108
0.00657047
0.00639659
0.00614756
0.00577733
0.00516501
0.00183684
0.00116553
0.00116055
0.00211661
0.00172199
0.00136065
0.00129497
0.00126798
0.00125171
0.00124636
0.00125099
0.00125259
0.00125577
0.00126078
0.00126455
0.00126188
0.00124667
0.00124973
0.00128025
0.00133582
0.00141187
0.00151164
0.0016068
0.00167642
0.00171583
0.00173006
0.00172726
0.00171515
0.00169964
0.00168456
0.0016718
0.00166173
0.0016537
0.00164644
0.00163835
0.00162751
0.00161143
0.00158675
0.00154959
0.00150506
0.00132254
)
;

boundaryField
{
    floor
    {
        type            nutkWallFunction;
        Cmu             0.09;
        kappa           0.41;
        E               9.8;
        value           nonuniform List<scalar> 
29
(
0.000182093
3.31383e-05
3.21321e-05
1.92972e-05
1.17324e-05
1.04282e-05
1.1359e-05
1.29859e-05
1.45943e-05
1.60632e-05
1.74848e-05
1.8855e-05
2.01126e-05
2.18544e-05
2.43076e-05
2.77748e-05
3.25759e-05
3.79267e-05
4.91638e-05
4.69435e-05
4.69434e-05
6.57115e-05
8.00444e-05
7.84848e-05
0.000182093
3.31383e-05
4.7677e-05
5.44084e-05
7.33166e-05
)
;
    }
    ceiling
    {
        type            nutkWallFunction;
        Cmu             0.09;
        kappa           0.41;
        E               9.8;
        value           nonuniform List<scalar> 
43
(
0.000140171
0.000139589
0.0002465
0.000203136
0.000162501
0.000155005
0.000151912
0.000150046
0.000149431
0.000149963
0.000150147
0.000150512
0.000151087
0.000151519
0.000151211
0.000149459
0.000149806
0.000153306
0.000159657
0.000168302
0.000179569
0.000190238
0.000197999
0.000202377
0.000203954
0.000203642
0.000202297
0.000200575
0.000198897
0.000197477
0.000196355
0.00019546
0.000194649
0.000193746
0.000192536
0.00019074
0.000187979
0.000183815
0.00017881
0.000158128
0.000520055
0.000592456
0.00045256
)
;
    }
    sWall
    {
        type            nutkWallFunction;
        Cmu             0.09;
        kappa           0.41;
        E               9.8;
        value           uniform 0.000140192;
    }
    nWall
    {
        type            nutkWallFunction;
        Cmu             0.09;
        kappa           0.41;
        E               9.8;
        value           nonuniform List<scalar> 6(8.63566e-05 0.000109458 0.000129692 0.00018489 0.000215745 0.000158136);
    }
    sideWalls
    {
        type            empty;
    }
    glass1
    {
        type            nutkWallFunction;
        Cmu             0.09;
        kappa           0.41;
        E               9.8;
        value           nonuniform List<scalar> 9(0.000294617 0.000330355 0.000355058 0.00037522 0.000394162 0.000414004 0.000437069 0.000468971 0.000520398);
    }
    glass2
    {
        type            nutkWallFunction;
        Cmu             0.09;
        kappa           0.41;
        E               9.8;
        value           nonuniform List<scalar> 2(0.0001466 0.000163005);
    }
    sun
    {
        type            nutkWallFunction;
        Cmu             0.09;
        kappa           0.41;
        E               9.8;
        value           nonuniform List<scalar> 
14
(
0.000294399
0.000280844
0.000269389
0.000259975
0.000252148
0.000245419
0.000239473
0.000233989
0.000228703
0.000223383
0.00021778
0.000211574
0.000204247
0.000194704
)
;
    }
    heatsource1
    {
        type            nutkWallFunction;
        Cmu             0.09;
        kappa           0.41;
        E               9.8;
        value           nonuniform List<scalar> 3(8.33675e-05 8.54022e-05 8.63569e-05);
    }
    heatsource2
    {
        type            nutkWallFunction;
        Cmu             0.09;
        kappa           0.41;
        E               9.8;
        value           nonuniform List<scalar> 4(0.000172915 0.000150837 0.000150837 0.000151778);
    }
    Table_master
    {
        type            nutkWallFunction;
        Cmu             0.09;
        kappa           0.41;
        E               9.8;
        value           nonuniform List<scalar> 9(2.23473e-05 2.46988e-05 2.75686e-05 3.07219e-05 3.43083e-05 3.86195e-05 4.41876e-05 5.20447e-05 6.40693e-05);
    }
    Table_slave
    {
        type            nutkWallFunction;
        Cmu             0.09;
        kappa           0.41;
        E               9.8;
        value           nonuniform List<scalar> 9(6.19392e-05 6.35966e-05 6.52599e-05 6.69589e-05 6.86638e-05 7.06262e-05 7.31659e-05 7.6821e-05 8.27117e-05);
    }
    inlet
    {
        type            calculated;
        value           uniform 0.00924422;
    }
    outlet
    {
        type            calculated;
        value           nonuniform List<scalar> 2(0.00116553 0.00116055);
    }
}


// ************************************************************************* //
