/*--------------------------------*- C++ -*----------------------------------*\
  =========                 |
  \\      /  F ield         | OpenFOAM: The Open Source CFD Toolbox
   \\    /   O peration     | Website:  https://openfoam.org
    \\  /    A nd           | Version:  6
     \\/     M anipulation  |
\*---------------------------------------------------------------------------*/
FoamFile
{
    version     2.0;
    format      ascii;
    class       surfaceScalarField;
    location    "380";
    object      phi;
}
// * * * * * * * * * * * * * * * * * * * * * * * * * * * * * * * * * * * * * //

dimensions      [1 0 -1 0 0 0 0];

internalField   nonuniform List<scalar> 
852
(
-0.0023604
0.00239428
-0.00328212
0.00092171
-0.00397368
0.000691553
-0.00448564
0.000511949
-0.00478786
0.000302218
-0.00484973
6.18605e-05
-0.00463896
-0.000210781
-0.00413927
-0.000499692
-0.00338409
-0.000755191
-0.00246023
-0.000923871
-0.00148854
-0.000971697
-0.000600426
-0.000888121
6.1309e-05
-0.000661745
0.000294019
-0.000232719
0.000291285
3.51107e-05
-3.88843e-05
0.000148322
-0.000113225
0.000453838
-0.00030553
0.000814521
-0.000360696
0.00113523
-0.00032072
0.00138018
-0.000244971
0.00151586
-0.000135689
0.00157064
-5.47944e-05
0.00159426
-2.36431e-05
0.00160468
-1.04315e-05
0.00160514
-4.81296e-07
0.00159579
9.33493e-06
0.00157253
2.32454e-05
0.00152193
5.05792e-05
0.00141162
0.000110298
0.00118538
0.000226217
0.000791164
0.000394201
0.000126455
0.00066469
0.000121069
-0.00173869
0.00422599
-0.00261365
0.00179667
-0.00331968
0.00139757
-0.0038331
0.00102537
-0.00414282
0.000611924
-0.00422218
0.000141221
-0.00403864
-0.000394333
-0.0035842
-0.00095414
-0.00290773
-0.00143166
-0.00210592
-0.00172569
-0.00129406
-0.00178356
-0.000575302
-0.00160689
-1.83257e-05
-0.00121873
0.000410902
-0.000661957
0.000793459
-9.12815e-05
0.000516649
0.00027675
0.000516589
-0.000110706
6.30156e-05
0.000447598
-0.000671541
0.000816391
-0.000674335
0.00110708
-0.000651399
0.00134415
-0.000557806
0.0015163
-0.00041713
0.0015564
-0.000175807
0.00156512
-6.35272e-05
0.00157387
-3.24145e-05
0.00158104
-1.76123e-05
0.00158542
-4.8764e-06
0.00158713
7.60974e-06
0.00158523
2.51233e-05
0.00157535
6.04459e-05
0.00152422
0.000161412
0.00132501
0.000425407
0.000983281
0.000735914
0.000595637
0.00105232
0.000702535
-0.0012557
0.00562604
-0.00199791
0.00253886
-0.00263387
0.00203353
-0.00309155
0.00148303
-0.00338095
0.000901324
-0.00346851
0.000228773
-0.00329651
-0.000566346
-0.00286139
-0.00138927
-0.00223989
-0.00205316
-0.00153868
-0.00242691
-0.000859711
-0.00246253
-0.0002741
-0.00219251
0.000181837
-0.00167468
0.00053426
-0.00101439
0.000775187
-0.000332218
0.000720265
0.000331662
0.00123684
0.000702041
-0.000652354
0.000954953
-0.000924465
0.00122765
-0.000947044
0.0014006
-0.000824359
0.00152736
-0.00068458
0.0016867
-0.000576485
0.00151103
0.00144764
0.00141536
0.00139789
0.00139315
0.0014009
0.00142616
0.00148674
0.00164829
0.00144777
0.000625902
0.00120582
0.000977856
0.000849848
0.00140826
0.00153009
-0.000901083
0.00671641
-0.00147201
0.00310978
-0.00191806
0.00247958
-0.00224446
0.00180942
-0.0024627
0.00111956
-0.00252716
0.000293217
-0.00232863
-0.000764877
-0.00189461
-0.00182329
-0.00134093
-0.00260685
-0.000767582
-0.00300026
-0.000247015
-0.00298311
0.000188116
-0.00262765
0.000542808
-0.00202938
0.000848465
-0.00132006
0.00112169
-0.000605455
0.00143056
2.27799e-05
0.00224999
0.000417409
0.00224362
-6.49215e-06
0.00213265
-0.000541396
0.00190905
-0.000700876
0.00172004
-0.000758045
0.00160602
-0.000710348
0.00153196
-0.000610539
0.0014166
-0.000461137
0.00162909
-0.000212659
0.00175064
-0.000121717
0.00184533
-9.48693e-05
0.00192661
-8.14474e-05
0.00199047
-6.40347e-05
0.0020221
-3.18029e-05
0.00199391
2.80178e-05
0.00186417
0.000129572
0.00156473
0.000299264
0.00152524
0.000665372
0.00140946
0.00109361
0.00122034
0.00159736
0.00272148
-0.000643437
0.00758827
-0.00104923
0.00351557
-0.00118736
0.00261769
-0.00130437
0.00192642
-0.00138425
0.00119943
-0.00136077
0.000269729
-0.00107451
-0.00105115
-0.000653704
-0.0022441
-0.000217443
-0.00304311
0.000168366
-0.00338607
0.000477876
-0.00329262
0.000718459
-0.00286824
0.00092105
-0.00223198
0.00111275
-0.00151177
0.00132955
-0.000822267
0.00161992
-0.000267599
0.00199437
4.29407e-05
0.00209647
-0.000108601
0.00191913
-0.000364069
0.00172669
-0.000508444
0.00153368
-0.000565052
0.00137513
-0.000551812
0.00125433
-0.000489753
0.00117993
-0.000386755
0.00122375
-0.000256496
0.0012838
-0.000181793
0.00134531
-0.000156394
0.0014108
-0.000146965
0.00147803
-0.000131285
0.00153874
-9.25357e-05
0.00157663
-9.89665e-06
0.00157423
0.000131949
0.00153506
0.000338405
0.00156034
0.000640076
0.00168661
0.00096732
0.00214126
0.0011427
0.00330477
0.00155795
0.0021868
0.00111774
0.00133422
0.000852363
0.00137377
-0.00055373
0.00840414
-0.000795133
0.00375697
-0.00049997
0.00232252
-0.000315256
0.0017417
-0.000198322
0.00108249
6.30587e-05
8.33524e-06
0.000466737
-0.00145483
0.000813893
-0.00259126
0.00105615
-0.00328537
0.0011895
-0.00351941
0.00124299
-0.00334612
0.00124427
-0.00286953
0.00122668
-0.00221441
0.00122358
-0.00150868
0.00126618
-0.00086488
0.00137318
-0.000374614
0.00152224
-0.000106135
0.00153052
-0.000116891
0.00140249
-0.000236052
0.00123305
-0.000339015
0.00105869
-0.000390708
0.000903602
-0.000396746
0.000782173
-0.000368343
0.00070971
-0.000314313
0.000703863
-0.00025067
0.000737941
-0.000215894
0.000791769
-0.000210246
0.000858461
-0.000213681
0.000935483
-0.000208332
0.00102156
-0.000178635
0.00111622
-0.000104585
0.00121011
3.80318e-05
0.00129917
0.000249318
0.00142961
0.000509614
0.00162793
0.00076898
0.00184858
0.000922016
0.00214292
0.00126359
0.00189141
0.00136923
0.00115216
0.0015916
0.00256703
-0.000626775
0.00932319
-0.000478143
0.00360833
0.000374033
0.00147033
0.00087419
0.00124153
0.00133446
0.000622201
0.00185374
-0.000510956
0.00222266
-0.00182375
0.00240124
-0.00276984
0.00238522
-0.00326934
0.00221474
-0.00334893
0.00194974
-0.00308113
0.00164656
-0.00256636
0.00135424
-0.0019221
0.00111361
-0.00126807
0.000953568
-0.00070486
0.000884481
-0.000305543
0.000874246
-9.59166e-05
0.000825732
-6.83926e-05
0.000719062
-0.0001294
0.000578174
-0.000198145
0.000429326
-0.000241879
0.000292521
-0.000259962
0.000183624
-0.000259469
0.000116921
-0.000247633
0.000101366
-0.000235138
0.000123808
-0.000238362
0.000167895
-0.000254359
0.000225166
-0.000270978
0.000294241
-0.000277434
0.000380308
-0.00026473
0.000495621
-0.000219925
0.000650243
-0.000116617
0.000828314
7.122e-05
0.00102554
0.000312365
0.00124562
0.000548872
0.00142902
0.00073859
0.00165809
0.0010345
0.00178446
0.00124283
0.00153436
0.00184168
0.00414415
0.00188724
0.00776299
0.00244305
0.00305251
0.00260037
0.001313
0.00295008
0.000891817
0.00352134
5.09233e-05
0.00407563
-0.00106525
0.0042513
-0.00199942
0.00407504
-0.00259357
0.00363655
-0.00283085
0.00303808
-0.00275046
0.00237737
-0.00242043
0.00173025
-0.00191926
0.00115423
-0.0013461
0.000696456
-0.000810313
0.000380471
-0.000388896
0.000205939
-0.000131032
0.000122864
-1.28604e-05
5.42586e-05
1.92594e-07
-3.76414e-05
-3.75202e-05
-0.000152328
-8.34792e-05
-0.000274148
-0.000120082
-0.000386722
-0.000147412
-0.000476346
-0.000169869
-0.000534033
-0.000189972
-0.000557122
-0.000212076
-0.000554936
-0.000240576
-0.000538358
-0.000270964
-0.000514474
-0.000294889
-0.000486397
-0.000305538
-0.000450953
-0.000300201
-0.000392812
-0.000278093
-0.000276803
-0.000232653
-7.78342e-05
-0.000127776
0.000166702
6.78027e-05
0.000409467
0.000306081
0.000603868
0.000544163
0.000822978
0.000815364
0.00101818
0.0010476
0.000604063
0.00225578
0.00492644
0.00810081
0.0111309
0.0096391
0.00280484
0.00895872
0.0015722
0.00838394
0.000625688
0.00761037
-0.000291669
0.00662189
-0.00101093
0.00549887
-0.00147053
0.00432573
-0.00165771
0.00317713
-0.00160186
0.00212249
-0.0013658
0.00120261
-0.0009994
0.000448197
-0.000591716
-9.2484e-05
-0.00026966
-0.000421131
-6.02735e-05
-0.000590994
3.88082e-05
-0.000674331
7.04539e-05
-0.000732976
5.8814e-05
-0.000800231
2.9711e-05
-0.000882718
-1.01691e-06
-0.000972559
-3.02668e-05
-0.0010587
-6.13021e-05
-0.0011322
-9.63881e-05
-0.00119106
-0.000131141
-0.00123685
-0.000166319
-0.00127439
-0.000203064
-0.00130923
-0.00023615
-0.00134762
-0.000256525
-0.00139983
-0.000253354
-0.00148015
-0.000219912
-0.00160523
-0.000153035
-0.00178449
-5.34241e-05
-0.00202134
0.000109048
-0.00231195
0.000358395
-0.00271862
0.00071272
-0.00337231
0.00119783
-0.00440255
0.00184558
-0.00586705
0.00251208
-0.00609771
0.00248641
-0.000979232
0.00600713
0.00311343
0.00523473
0.00234463
0.00506695
0.000793516
0.0047939
-1.85794e-05
0.00421317
-0.00043018
0.0033876
-0.000644952
0.00243022
-0.000700344
0.00144991
-0.000621577
0.000537755
-0.000453681
-0.000232398
-0.000229285
-0.000781375
-4.27694e-05
-0.00110376
5.26977e-05
-0.00126754
0.000103482
-0.00134408
0.000115315
-0.00138217
0.000108526
-0.00141463
9.12461e-05
-0.00145368
6.87273e-05
-0.00149982
4.50972e-05
-0.00155022
2.01044e-05
-0.00160621
-5.34237e-06
-0.00166882
-3.38047e-05
-0.00173996
-6.00236e-05
-0.00182194
-8.43708e-05
-0.00191531
-0.000109722
-0.00201908
-0.000132411
-0.0021303
-0.000145331
-0.00224786
-0.000135812
-0.00237197
-9.58336e-05
-0.00250434
-2.06905e-05
-0.00264442
8.66328e-05
-0.00277773
0.00024233
-0.00289434
0.000474981
-0.00299045
0.000808806
-0.00305218
0.00125954
-0.00303857
0.00183194
-0.00282202
0.00229551
-0.00126167
0.000926036
-0.00219788
0.000444391
0.0026571
0.00136442
0.00142462
0.00147078
0.000687172
0.00127619
0.000176022
0.000909895
-6.39069e-05
0.000404806
-0.000139894
-0.00017276
-0.000122824
-0.000740938
-5.34385e-05
-0.00122317
2.85154e-05
-0.00154937
9.68829e-05
-0.00172365
0.00013147
-0.0018097
0.000138721
-0.00183944
0.000133193
-0.00184285
0.000118703
-0.00183668
0.000102326
-0.00183108
8.56176e-05
-0.00183128
6.88955e-05
-0.00183869
5.24793e-05
-0.00185466
3.60477e-05
-0.00188022
2.01868e-05
-0.00192116
7.10887e-06
-0.001977
-4.21599e-06
-0.0020493
-1.20987e-05
-0.0021435
-1.55423e-05
-0.0022623
-1.36392e-05
-0.00240215
-5.50439e-06
-0.00254859
1.05983e-05
-0.00268145
3.70023e-05
-0.0027764
7.42295e-05
-0.00282599
0.000136201
-0.00280925
0.000225561
-0.00268756
0.000353269
-0.0024154
0.000536616
-0.00192929
0.000773416
-0.00104404
0.000946664
0.000407602
0.000843847
0.00139821
-6.45999e-05
-0.000755651
-0.00577497
-0.00701757
-0.00438159
-0.00298135
-0.00232222
-0.00217807
-0.00227621
-0.00245144
-0.00261076
-0.00270214
-0.00271324
-0.00265766
-0.00256907
-0.00247433
-0.00238575
-0.002312
-0.00225478
-0.00221434
-0.00219066
-0.00218343
-0.00219266
-0.00221779
-0.00225605
-0.00230567
-0.00236326
-0.00242448
-0.00248419
-0.0025364
-0.00257339
-0.00258506
-0.00256076
-0.00247579
-0.00230269
-0.00200295
-0.00152065
-0.000802061
8.93473e-05
0.000877189
0.000756981
)
;

boundaryField
{
    floor
    {
        type            calculated;
        value           nonuniform List<scalar> 
29
(
0
0
0
0
0
0
0
0
0
0
0
0
0
0
0
0
0
0
0
0
5.36349e-06
1.4151e-05
2.22692e-05
2.89325e-05
2.72292e-06
3.75948e-06
8.79344e-06
1.33183e-05
1.2852e-05
)
;
    }
    ceiling
    {
        type            calculated;
        value           nonuniform List<scalar> 
43
(
2.35713e-05
2.19166e-05
2.11056e-05
2.43606e-05
2.79987e-05
3.18334e-05
3.41907e-05
3.52962e-05
3.64537e-05
3.79091e-05
3.95828e-05
4.12729e-05
4.28446e-05
4.39491e-05
4.45886e-05
4.49205e-05
4.50769e-05
4.51485e-05
4.5187e-05
4.52164e-05
4.52491e-05
4.52897e-05
4.5335e-05
4.53817e-05
4.54589e-05
4.56533e-05
4.60411e-05
4.6682e-05
4.75593e-05
4.86448e-05
4.99031e-05
5.12042e-05
5.2444e-05
5.35043e-05
5.42898e-05
5.4799e-05
5.52321e-05
5.59808e-05
5.55839e-05
5.73877e-05
2.73839e-05
2.23644e-05
1.19573e-05
)
;
    }
    sWall
    {
        type            calculated;
        value           uniform -0.000170099;
    }
    nWall
    {
        type            calculated;
        value           nonuniform List<scalar> 6(-3.9775e-05 -4.11264e-05 -4.27813e-05 -4.30407e-05 -4.40438e-05 -5.60828e-05);
    }
    sideWalls
    {
        type            empty;
        value           nonuniform 0();
    }
    glass1
    {
        type            calculated;
        value           nonuniform List<scalar> 9(-3.38906e-05 -9.30315e-05 -0.000144353 -0.000189293 -0.000228435 -0.000262142 -0.000292282 -0.00032705 -0.000365207);
    }
    glass2
    {
        type            calculated;
        value           nonuniform List<scalar> 2(-0.00017825 -0.000192064);
    }
    sun
    {
        type            calculated;
        value           uniform 0;
    }
    heatsource1
    {
        type            calculated;
        value           nonuniform List<scalar> 3(2.02815e-07 2.033e-07 2.03652e-07);
    }
    heatsource2
    {
        type            calculated;
        value           nonuniform List<scalar> 4(5.09996e-08 5.10784e-08 0 0);
    }
    Table_master
    {
        type            calculated;
        value           nonuniform List<scalar> 9(-1.52598e-07 -1.52715e-07 -1.52747e-07 -1.52766e-07 -1.52778e-07 -1.52782e-07 -1.52777e-07 -1.52761e-07 -1.52711e-07);
    }
    Table_slave
    {
        type            calculated;
        value           nonuniform List<scalar> 9(1.5249e-07 1.52508e-07 1.52474e-07 1.52441e-07 1.52415e-07 1.524e-07 1.52399e-07 1.52412e-07 1.52462e-07);
    }
    inlet
    {
        type            calculated;
        value           uniform -0.0063157;
    }
    outlet
    {
        type            calculated;
        value           nonuniform List<scalar> 2(0.00592149 0.00122066);
    }
}


// ************************************************************************* //
