// -*- C++ -*-
// File generated by PyFoam - sorry for the ugliness

FoamFile
{
 version 2.0;
 format ascii;
 class volScalarField;
 location "1000";
 object T;
}

dimensions [ 0 0 0 1 0 0 0 ];

internalField nonuniform List<scalar> 459
(
  303.603
  303.345
  303.332
  303.328
  303.324
  303.32
  303.315
  303.309
  303.301
  303.29
  303.277
  303.266
  303.258
  303.253
  303.255
  303.347
  303.325
  303.317
  303.319
  303.323
  303.327
  303.331
  303.335
  303.339
  303.343
  303.347
  303.351
  303.355
  303.359
  303.363
  303.367
  303.371
  303.377
  303.395
  303.777
  303.388
  303.365
  303.367
  303.37
  303.37
  303.368
  303.361
  303.346
  303.324
  303.298
  303.273
  303.254
  303.243
  303.238
  303.236
  303.238
  303.347
  303.309
  303.302
  303.305
  303.309
  303.313
  303.316
  303.318
  303.32
  303.321
  303.323
  303.325
  303.327
  303.329
  303.331
  303.336
  303.342
  303.351
  303.38
  303.958
  303.439
  303.4
  303.41
  303.424
  303.434
  303.438
  303.433
  303.411
  303.373
  303.328
  303.286
  303.256
  303.238
  303.232
  303.232
  303.235
  303.286
  303.286
  303.292
  303.302
  303.312
  303.319
  303.319
  303.32
  303.321
  303.321
  303.322
  303.323
  303.324
  303.325
  303.326
  303.329
  303.334
  303.342
  303.373
  304.142
  303.501
  303.436
  303.452
  303.479
  303.506
  303.524
  303.523
  303.489
  303.428
  303.358
  303.297
  303.254
  303.232
  303.226
  303.229
  303.236
  303.247
  303.26
  303.278
  303.297
  303.315
  303.33
  303.342
  303.352
  303.36
  303.368
  303.374
  303.38
  303.384
  303.388
  303.391
  303.392
  303.371
  303.354
  303.348
  303.372
  304.32
  303.58
  303.478
  303.489
  303.526
  303.57
  303.609
  303.609
  303.558
  303.47
  303.375
  303.298
  303.247
  303.222
  303.218
  303.227
  303.241
  303.258
  303.279
  303.303
  303.326
  303.348
  303.365
  303.38
  303.393
  303.403
  303.412
  303.418
  303.423
  303.425
  303.424
  303.421
  303.415
  303.398
  303.376
  303.359
  303.369
  303.438
  303.485
  303.49
  304.48
  303.683
  303.551
  303.54
  303.575
  303.63
  303.681
  303.664
  303.587
  303.479
  303.369
  303.281
  303.226
  303.204
  303.208
  303.227
  303.253
  303.281
  303.311
  303.34
  303.367
  303.39
  303.408
  303.422
  303.434
  303.443
  303.451
  303.456
  303.458
  303.457
  303.452
  303.445
  303.435
  303.418
  303.396
  303.374
  303.371
  303.401
  303.418
  303.452
  304.628
  303.846
  303.714
  303.685
  303.7
  303.746
  303.752
  303.686
  303.568
  303.432
  303.312
  303.226
  303.183
  303.178
  303.2
  303.238
  303.28
  303.32
  303.358
  303.39
  303.416
  303.437
  303.453
  303.465
  303.474
  303.481
  303.485
  303.488
  303.488
  303.485
  303.477
  303.466
  303.453
  303.437
  303.416
  303.394
  303.384
  303.392
  303.402
  303.431
  304.841
  304.256
  304.112
  304.025
  303.981
  303.925
  303.802
  303.63
  303.446
  303.288
  303.178
  303.124
  303.121
  303.154
  303.208
  303.272
  303.33
  303.379
  303.418
  303.446
  303.467
  303.482
  303.494
  303.502
  303.508
  303.512
  303.514
  303.514
  303.512
  303.507
  303.5
  303.488
  303.475
  303.46
  303.444
  303.428
  303.423
  303.435
  303.453
  303.575
  305.147
  304.872
  304.615
  304.38
  304.153
  303.862
  303.535
  303.253
  303.06
  302.964
  302.95
  302.995
  303.079
  303.171
  303.262
  303.35
  303.409
  303.448
  303.475
  303.495
  303.509
  303.52
  303.527
  303.532
  303.535
  303.536
  303.536
  303.535
  303.533
  303.531
  303.529
  303.529
  303.531
  303.537
  303.551
  303.573
  303.604
  303.636
  303.657
  303.709
  296.361
  298.261
  299.474
  300.297
  301
  301.6
  302.092
  302.476
  302.769
  303
  303.195
  303.313
  303.391
  303.446
  303.482
  303.506
  303.522
  303.534
  303.543
  303.549
  303.553
  303.556
  303.558
  303.559
  303.559
  303.56
  303.561
  303.562
  303.563
  303.565
  303.57
  303.578
  303.591
  303.609
  303.631
  303.654
  303.673
  303.693
  297.013
  298.866
  300.292
  301.261
  301.872
  302.324
  302.671
  302.931
  303.121
  303.258
  303.361
  303.431
  303.477
  303.508
  303.529
  303.543
  303.553
  303.56
  303.565
  303.569
  303.572
  303.574
  303.575
  303.577
  303.578
  303.579
  303.581
  303.582
  303.583
  303.585
  303.589
  303.595
  303.603
  303.616
  303.631
  303.648
  303.647
  303.675
  299.729
  299.65
  299.645
  301.483
  302.293
  302.684
  302.915
  303.085
  303.216
  303.315
  303.39
  303.445
  303.485
  303.512
  303.53
  303.542
  303.55
  303.556
  303.56
  303.563
  303.565
  303.568
  303.57
  303.572
  303.574
  303.577
  303.579
  303.581
  303.584
  303.586
  303.588
  303.591
  303.594
  303.597
  303.602
  303.612
  303.621
  303.627
  303.628
  303.667
)
;

boundaryField
{
  floor
  {
    type wallHeatTransfer;
    Tinf uniform 305.2;
    alphaWall uniform 0.24;
    value nonuniform List<scalar> 29
(
  303.442
  303.698
  303.635
  303.604
  303.607
  303.618
  303.631
  303.648
  303.666
  303.684
  303.702
  303.719
  303.735
  303.751
  303.766
  303.781
  303.796
  303.813
  303.828
  303.868
  303.868
  303.787
  303.746
  303.723
  303.442
  303.698
  303.68
  303.495
  303.409
)
;
  }
  ceiling
  {
    type wallHeatTransfer;
    Tinf uniform 303.2;
    alphaWall uniform 0.24;
    value nonuniform List<scalar> 43
(
  299.976
  299.891
  299.879
  301.59
  302.351
  302.719
  302.934
  303.093
  303.215
  303.306
  303.374
  303.422
  303.456
  303.477
  303.49
  303.498
  303.502
  303.505
  303.507
  303.509
  303.51
  303.512
  303.513
  303.515
  303.518
  303.52
  303.523
  303.526
  303.53
  303.533
  303.537
  303.541
  303.546
  303.552
  303.558
  303.569
  303.578
  303.582
  303.582
  303.614
  305.057
  304.804
  297.413
)
;
  }
  sWall
  {
    type wallHeatTransfer;
    Tinf uniform 315.2;
    alphaWall uniform 0.36;
    value uniform 301.328;
  }
  nWall
  {
    type wallHeatTransfer;
    Tinf uniform 307.2;
    alphaWall uniform 0.36;
    value nonuniform List<scalar> 6
(
  304.191
  304.14
  304.065
  304.202
  304.179
  304.244
)
;
  }
  sideWalls
  {
    type empty;
  }
  glass1
  {
    type wallHeatTransfer;
    Tinf uniform 315.2;
    alphaWall uniform 4.3;
    value nonuniform List<scalar> 9
(
  311.537
  310.91
  310.514
  310.212
  309.96
  309.731
  309.562
  309.634
  309.858
)
;
  }
  glass2
  {
    type wallHeatTransfer;
    Tinf uniform 307.2;
    alphaWall uniform 4.3;
    value nonuniform List<scalar> 2
(
  305.837
  305.929
)
;
  }
  sun
  {
    type wallHeatTransfer;
    Tinf uniform 305.2;
    alphaWall uniform 0.24;
    value nonuniform List<scalar> 14
(
  303.772
  303.529
  303.514
  303.504
  303.495
  303.486
  303.477
  303.468
  303.457
  303.446
  303.435
  303.428
  303.426
  303.431
)
;
  }
  heatsource1
  {
    type fixedGradient;
    gradient uniform 0;
  }
  heatsource2
  {
    type fixedGradient;
    gradient uniform 0;
  }
  Table_master
  {
    type zeroGradient;
  }
  Table_slave
  {
    type zeroGradient;
  }
  inlet
  {
    type fixedValue;
    value uniform 293.15;
  }
  outlet
  {
    type zeroGradient;
  }
} 	// ************************************************************************* //

