/*--------------------------------*- C++ -*----------------------------------*\
  =========                 |
  \\      /  F ield         | OpenFOAM: The Open Source CFD Toolbox
   \\    /   O peration     | Website:  https://openfoam.org
    \\  /    A nd           | Version:  6
     \\/     M anipulation  |
\*---------------------------------------------------------------------------*/
FoamFile
{
    version     2.0;
    format      ascii;
    class       surfaceScalarField;
    location    "340";
    object      phi;
}
// * * * * * * * * * * * * * * * * * * * * * * * * * * * * * * * * * * * * * //

dimensions      [1 0 -1 0 0 0 0];

internalField   nonuniform List<scalar> 
852
(
-0.00237787
0.00241148
-0.00332663
0.000948756
-0.00402513
0.000698494
-0.00452642
0.000501274
-0.00479889
0.000272462
-0.00481069
1.17922e-05
-0.0045288
-0.0002819
-0.00394657
-0.000582239
-0.00311386
-0.000832711
-0.00213289
-0.000980979
-0.00113521
-0.000997694
-0.000263702
-0.000871516
0.000288841
-0.000552554
0.000423922
-0.000135092
0.000421169
2.18273e-05
-2.56764e-05
0.000104769
-8.2961e-05
0.000400433
-0.000295683
0.000775999
-0.000375585
0.00111577
-0.000339791
0.00137668
-0.000260931
0.00152226
-0.000145599
0.00158231
-6.00744e-05
0.00160941
-2.71226e-05
0.00162246
-1.30713e-05
0.00162494
-2.50115e-06
0.00161716
7.76032e-06
0.00159518
2.19568e-05
0.00154556
4.96037e-05
0.00143569
0.000109843
0.00120895
0.000226716
0.000812705
0.000396221
0.000140842
0.000671838
0.000135358
-0.00175117
0.00425503
-0.0026421
0.00183967
-0.00335111
0.00140749
-0.00385432
0.00100448
-0.00413605
0.000554179
-0.00416635
4.20868e-05
-0.00391476
-0.000533498
-0.00338605
-0.00111096
-0.00264782
-0.00157095
-0.00181037
-0.00181844
-0.000995034
-0.00181303
-0.000305624
-0.00156094
0.000220173
-0.00107836
0.000606215
-0.000521145
0.000979657
4.77158e-05
0.000599269
0.000380325
0.000599207
-0.00011247
7.79567e-05
0.000421497
-0.000616944
0.000798009
-0.000672211
0.00109724
-0.00067483
0.00134303
-0.000585605
0.00152249
-0.00044041
0.00156454
-0.000187663
0.00157352
-6.9077e-05
0.00158255
-3.61759e-05
0.00158996
-2.05006e-05
0.00159459
-7.14506e-06
0.0015965
5.82424e-06
0.0015947
2.3731e-05
0.00158475
5.95338e-05
0.00153328
0.000161291
0.00133275
0.000427224
0.000989735
0.000739211
0.000598274
0.00106327
0.000719224
-0.0012635
0.005662
-0.00201417
0.00259034
-0.00265139
0.0020447
-0.00310142
0.0014545
-0.00336542
0.000818176
-0.0034024
7.9058e-05
-0.00315864
-0.000777271
-0.00265501
-0.00161459
-0.00198716
-0.0022388
-0.00126958
-0.00253603
-0.000601557
-0.00248106
-4.92029e-05
-0.0021133
0.00039091
-0.00151849
0.000713024
-0.00084327
0.000923839
-0.00016311
0.000815725
0.000488428
0.00141492
0.000633177
-0.000568769
0.000941973
-0.000925753
0.00123592
-0.000966179
0.00141481
-0.000853732
0.00154491
-0.000715723
0.00170895
-0.000604467
0.00152142
0.00145247
0.00141643
0.00139606
0.00138905
0.001395
0.00141887
0.00147853
0.00163995
0.00143702
0.000630136
0.00119537
0.000980838
0.000844038
0.00141458
0.00154064
-0.000904016
0.00675432
-0.00147605
0.00316236
-0.00192258
0.00249122
-0.00224535
0.00177726
-0.00244538
0.0010182
-0.00244845
8.21128e-05
-0.00217024
-0.00105549
-0.00168046
-0.00210437
-0.0011017
-0.00281756
-0.000531398
-0.00310633
-3.25011e-05
-0.00297997
0.000373135
-0.00251895
0.000712142
-0.00185751
0.000995709
-0.00112685
0.001247
-0.000414408
0.00153569
0.000199726
0.00237419
0.0005764
0.00227798
8.31931e-05
0.00219908
-0.00048988
0.00196139
-0.000688078
0.00176671
-0.000771515
0.00164753
-0.000734565
0.00156752
-0.000635734
0.00144333
-0.0004803
0.00166093
-0.000217766
0.0017793
-0.000118553
0.00186681
-8.76854e-05
0.00193859
-7.19535e-05
0.00199152
-5.31126e-05
0.00201137
-2.00244e-05
0.00197201
3.91794e-05
0.0018332
0.000138631
0.00152753
0.000305483
0.00148985
0.000667795
0.00137984
0.00109082
0.00120439
0.00159
0.00271565
-0.00064268
0.00762444
-0.00104209
0.00356177
-0.00117692
0.00262604
-0.00128791
0.00188824
-0.00136422
0.0010945
-0.00124932
-3.27947e-05
-0.000890351
-0.00141447
-0.000442427
-0.0025523
-8.13055e-06
-0.00325186
0.000356169
-0.00347064
0.000634202
-0.00325801
0.000853731
-0.00273849
0.00104018
-0.00204397
0.00121614
-0.00130283
0.00142172
-0.00062
0.00170594
-8.45018e-05
0.00208653
0.0001958
0.00218294
-1.32258e-05
0.00200478
-0.000311741
0.00180481
-0.000488117
0.00160033
-0.000567048
0.0014297
-0.000563962
0.00129648
-0.000502531
0.0012097
-0.000393545
0.00124441
-0.000252504
0.00129439
-0.00016855
0.00134429
-0.000137621
0.00139785
-0.000125542
0.00145378
-0.00010907
0.00150438
-7.06553e-05
0.00153363
9.90052e-06
0.00152508
0.000147154
0.0014836
0.000346932
0.00151069
0.000640667
0.00164308
0.000958406
0.00211136
0.00112169
0.00328699
0.00153999
0.00217974
0.00110702
0.00133466
0.000844847
0.0013732
-0.000550325
0.00843594
-0.000778254
0.00378969
-0.00047134
0.00231911
-0.000254306
0.0016712
-6.36016e-05
0.000903786
0.000270349
-0.000366759
0.00067046
-0.00181458
0.000999669
-0.00288151
0.00121019
-0.00346238
0.00130945
-0.00356989
0.00133244
-0.003281
0.00130971
-0.00271577
0.00127626
-0.00201054
0.0012644
-0.00129099
0.00130739
-0.000663003
0.00142613
-0.000203258
0.00159081
3.11099e-05
0.00160344
-2.5876e-05
0.00147524
-0.000183557
0.00130158
-0.000314473
0.00111807
-0.000383556
0.000950681
-0.000396596
0.000815137
-0.000367011
0.000728094
-0.000306528
0.000709056
-0.000233494
0.000731039
-0.000190561
0.000773573
-0.000180186
0.000830181
-0.000182182
0.000898865
-0.000177786
0.000978628
-0.000150452
0.00106781
-7.93163e-05
0.00115756
5.73721e-05
0.00124586
0.000258601
0.00137836
0.00050813
0.00158021
0.000756531
0.00180442
0.000897453
0.0021053
0.00123908
0.00186274
0.00134955
0.00113642
0.00157114
0.00254983
-0.000609072
0.00933646
-0.000445579
0.00362619
0.000432175
0.00144135
0.000972968
0.0011304
0.00149633
0.000380408
0.00204562
-0.000916054
0.00240328
-0.00217225
0.00253655
-0.00301478
0.00246667
-0.0033925
0.0022469
-0.00335012
0.00194356
-0.00297767
0.00161459
-0.00238681
0.00131173
-0.00170771
0.0010731
-0.00105237
0.000928766
-0.000518692
0.000883648
-0.000158159
0.000899201
1.55392e-05
0.000866624
6.68169e-06
0.000767404
-8.43578e-05
0.00062652
-0.000173611
0.000471134
-0.000228193
0.000323143
-0.000248632
0.000200597
-0.000244493
0.000120176
-0.000226137
9.28546e-05
-0.000206203
0.0001058
-0.00020354
0.000142324
-0.000216743
0.000193801
-0.000233693
0.000258958
-0.000242977
0.000343058
-0.000234587
0.000458291
-0.000194584
0.000611917
-9.62895e-05
0.00078848
8.20044e-05
0.000986667
0.000309908
0.00120739
0.000535775
0.00138909
0.000715719
0.00161792
0.00101021
0.00174668
0.00122076
0.00150659
0.00181121
0.00409827
0.00192814
0.0077346
0.0025063
0.00304802
0.00271572
0.00123192
0.00318406
0.000662044
0.00384171
-0.000277265
0.00430824
-0.00138259
0.00438473
-0.00224874
0.00411586
-0.00274589
0.0035982
-0.00287482
0.00294043
-0.00269235
0.00224185
-0.00227911
0.00157452
-0.0017195
0.00100446
-0.00113767
0.000568751
-0.000616686
0.000291931
-0.000241898
0.000155402
-2.16522e-05
0.000105106
6.58127e-05
6.15273e-05
5.02377e-05
-1.66256e-05
-6.22957e-06
-0.00012892
-6.13432e-05
-0.000255619
-0.000101523
-0.000377446
-0.000126836
-0.000478004
-0.000143967
-0.000544877
-0.000159297
-0.000573917
-0.000177198
-0.000575126
-0.000202365
-0.000560344
-0.000231561
-0.000537258
-0.000256815
-0.000508901
-0.000271369
-0.000471765
-0.000271759
-0.000410666
-0.000255719
-0.00029065
-0.00021634
-9.12289e-05
-0.000117452
0.000151795
6.68503e-05
0.000392324
0.000295213
0.000580342
0.000527669
0.000791589
0.000798937
0.000978828
0.00103349
0.000563573
0.00222643
0.00483584
0.00807149
0.011097
0.00969827
0.00263062
0.00904664
0.00131366
0.00843032
0.000339051
0.00757624
-0.000528497
0.00650473
-0.0011772
0.00530863
-0.00154977
0.00407858
-0.00164477
0.00289866
-0.00151244
0.00183558
-0.00121606
0.000918119
-0.000802065
0.000203725
-0.000423314
-0.000274113
-0.000138881
-0.000540273
2.42314e-05
-0.000660284
9.83314e-05
-0.000708068
0.00011357
-0.000749529
9.16704e-05
-0.000810242
5.44537e-05
-0.000890686
1.90692e-05
-0.0009824
-9.84238e-06
-0.00107307
-3.62001e-05
-0.00115191
-6.51591e-05
-0.00121233
-9.89126e-05
-0.00125558
-0.000133989
-0.00128901
-0.000168968
-0.00131946
-0.000201151
-0.00135429
-0.000222021
-0.00140369
-0.000222002
-0.00148061
-0.000194868
-0.00160149
-0.00013487
-0.0017752
-4.26661e-05
-0.00200621
0.000113528
-0.00229376
0.00035436
-0.0026982
0.00069963
-0.00334642
0.00117585
-0.00436399
0.00181648
-0.00581004
0.00247951
-0.00604189
0.00245825
-0.00101904
0.00597345
0.00297972
0.00514368
0.00214347
0.00489511
0.000587699
0.00455351
-0.000186853
0.00389746
-0.000521128
0.00300962
-0.000661929
0.00201766
-0.000652837
0.00104131
-0.000536129
0.000149103
-0.000323887
-0.000557513
-9.54951e-05
-0.00101503
3.41655e-05
-0.0012618
0.000107855
-0.00137583
0.000138226
-0.00141912
0.000141592
-0.00143855
0.000132963
-0.00146082
0.000113913
-0.00149576
8.93601e-05
-0.00154117
6.44391e-05
-0.00159163
4.05864e-05
-0.00164456
1.66944e-05
-0.00170156
-8.20336e-06
-0.00176444
-3.60661e-05
-0.00183531
-6.31576e-05
-0.00191731
-8.69974e-05
-0.00200979
-0.000108706
-0.00211114
-0.00012071
-0.00222083
-0.000112347
-0.00233751
-7.82213e-05
-0.00246299
-9.42201e-06
-0.00259664
9.09513e-05
-0.00272424
0.000241099
-0.002838
0.000468089
-0.00293303
0.000794621
-0.0029945
0.0012373
-0.00298001
0.00180196
-0.00275538
0.00225485
-0.00120655
0.000909394
-0.00218406
0.000425519
0.00254269
0.00126112
0.0013079
0.00127602
0.000572821
0.000982685
0.000106474
0.00054276
-8.12335e-05
7.88023e-07
-0.000120013
-0.000581267
-7.08306e-05
-0.00112567
8.23082e-06
-0.00153724
8.76351e-05
-0.0017739
0.000141119
-0.00189626
0.000156491
-0.00194477
0.000156323
-0.00195086
0.000144286
-0.00193805
0.000128752
-0.00191889
0.00011376
-0.00190321
9.81974e-05
-0.00189574
8.18496e-05
-0.00189683
6.54929e-05
-0.0019058
4.95254e-05
-0.00192297
3.3828e-05
-0.0019506
1.93818e-05
-0.00199492
8.22154e-06
-0.00205764
-4.71768e-07
-0.00213973
-4.94774e-06
-0.00224425
-4.22129e-06
-0.00236749
2.50263e-06
-0.00249726
1.73837e-05
-0.00261774
4.22298e-05
-0.00270478
7.75803e-05
-0.00275225
0.000138387
-0.0027363
0.000225117
-0.00261791
0.000349669
-0.00235147
0.000528148
-0.00187159
0.000757399
-0.00099187
0.000922206
0.000442292
0.000820654
0.00141187
-6.02203e-05
-0.00072979
-0.00573517
-0.00696339
-0.00444229
-0.00315937
-0.00261543
-0.00254164
-0.00265754
-0.00281347
-0.00292166
-0.00295253
-0.00290576
-0.00280737
-0.0026951
-0.00258395
-0.00248538
-0.0024026
-0.00233494
-0.00228289
-0.00224722
-0.00222792
-0.00222459
-0.00223696
-0.0022638
-0.00230184
-0.00234866
-0.00240013
-0.00245124
-0.00249619
-0.00252706
-0.00253411
-0.00250705
-0.00242047
-0.00224845
-0.00195302
-0.00147999
-0.000778338
8.75766e-05
0.000851106
0.000734268
)
;

boundaryField
{
    floor
    {
        type            calculated;
        value           nonuniform List<scalar> 
29
(
0
0
0
0
0
0
0
0
0
0
0
0
0
0
0
0
0
0
0
0
5.45582e-06
1.4382e-05
2.25972e-05
2.93562e-05
2.73981e-06
3.82706e-06
8.81822e-06
1.35346e-05
1.30132e-05
)
;
    }
    ceiling
    {
        type            calculated;
        value           nonuniform List<scalar> 
43
(
2.41248e-05
2.24268e-05
2.15659e-05
2.49397e-05
2.88345e-05
3.26317e-05
3.46111e-05
3.58678e-05
3.73144e-05
3.90607e-05
4.08295e-05
4.26851e-05
4.41817e-05
4.51371e-05
4.56728e-05
4.59408e-05
4.60596e-05
4.61112e-05
4.61371e-05
4.61514e-05
4.61587e-05
4.61653e-05
4.6181e-05
4.62206e-05
4.6314e-05
4.64921e-05
4.68481e-05
4.74235e-05
4.82182e-05
4.9251e-05
5.04794e-05
5.17829e-05
5.30658e-05
5.42022e-05
5.50886e-05
5.57118e-05
5.62606e-05
5.70937e-05
5.65853e-05
5.84134e-05
2.75168e-05
2.25288e-05
1.15262e-05
)
;
    }
    sWall
    {
        type            calculated;
        value           uniform -0.000167772;
    }
    nWall
    {
        type            calculated;
        value           nonuniform List<scalar> 6(-3.87648e-05 -4.02411e-05 -4.18778e-05 -4.15669e-05 -4.2424e-05 -5.39671e-05);
    }
    sideWalls
    {
        type            empty;
        value           nonuniform 0();
    }
    glass1
    {
        type            calculated;
        value           nonuniform List<scalar> 9(-3.36238e-05 -9.23827e-05 -0.000143475 -0.000188313 -0.000227443 -0.00026118 -0.000291452 -0.000326282 -0.000364412);
    }
    glass2
    {
        type            calculated;
        value           nonuniform List<scalar> 2(-0.000174023 -0.000187041);
    }
    sun
    {
        type            calculated;
        value           uniform 0;
    }
    heatsource1
    {
        type            calculated;
        value           nonuniform List<scalar> 3(2.02739e-07 2.03219e-07 2.03567e-07);
    }
    heatsource2
    {
        type            calculated;
        value           nonuniform List<scalar> 4(5.09721e-08 5.106e-08 0 0);
    }
    Table_master
    {
        type            calculated;
        value           nonuniform List<scalar> 9(-1.52543e-07 -1.52664e-07 -1.52698e-07 -1.52717e-07 -1.52729e-07 -1.52733e-07 -1.52728e-07 -1.52711e-07 -1.5266e-07);
    }
    Table_slave
    {
        type            calculated;
        value           nonuniform List<scalar> 9(1.52424e-07 1.52442e-07 1.52409e-07 1.52378e-07 1.52354e-07 1.52342e-07 1.5234e-07 1.52355e-07 1.52407e-07);
    }
    inlet
    {
        type            calculated;
        value           uniform -0.00632253;
    }
    outlet
    {
        type            calculated;
        value           nonuniform List<scalar> 2(0.00587879 0.00120577);
    }
}


// ************************************************************************* //
