/*--------------------------------*- C++ -*----------------------------------*\
  =========                 |
  \\      /  F ield         | OpenFOAM: The Open Source CFD Toolbox
   \\    /   O peration     | Website:  https://openfoam.org
    \\  /    A nd           | Version:  6
     \\/     M anipulation  |
\*---------------------------------------------------------------------------*/
FoamFile
{
    version     2.0;
    format      ascii;
    class       volScalarField;
    location    "300";
    object      alphat;
}
// * * * * * * * * * * * * * * * * * * * * * * * * * * * * * * * * * * * * * //

dimensions      [1 -1 -1 0 0 0 0];

internalField   nonuniform List<scalar> 
459
(
0.000826914
0.000854049
0.000811586
0.000842623
0.000873095
0.000900989
0.000926747
0.000951187
0.000975379
0.000999987
0.00102021
0.00103437
0.00104109
0.00103966
0.00102686
0.000500494
0.000573234
0.000553188
0.000471025
0.000410027
0.000358261
0.000320305
0.000301991
0.000295686
0.000278297
0.000251495
0.000236956
0.00024301
0.000280897
0.000364734
0.00045083
0.000500876
0.000485061
0.000428653
0.00136173
0.00222105
0.00171323
0.00214761
0.00232558
0.00251438
0.00270831
0.00289198
0.00304291
0.00314215
0.00319421
0.00316491
0.00299858
0.00260903
0.0019142
0.00108611
0.000752327
0.000601504
0.00192306
0.00208247
0.00216213
0.00187855
0.00153406
0.00123247
0.00107712
0.00098685
0.0007845
0.000559575
0.000386103
0.000310953
0.000360909
0.00057305
0.0011869
0.00135814
0.00161115
0.000577769
0.00184548
0.00360018
0.00179409
0.00304213
0.00335883
0.00354813
0.00370852
0.00384243
0.00394798
0.00401816
0.00405476
0.00401882
0.00385388
0.0034795
0.00282651
0.00196393
0.00113965
0.000984252
0.00301532
0.0029425
0.00261289
0.00209004
0.00157612
0.000623481
0.000528366
0.000470883
0.000425396
0.000384667
0.000346575
0.000314342
0.000409009
0.000689108
0.00153845
0.00151037
0.00118463
0.000718786
0.00231939
0.0054852
0.00190328
0.0033143
0.00392651
0.00410074
0.00421439
0.0043049
0.00438243
0.00444777
0.00451036
0.00455449
0.00453865
0.00437885
0.00394182
0.00311093
0.0020082
0.00120815
0.0024855
0.00308492
0.00284367
0.002304
0.00176106
0.0012453
0.000853608
0.000883836
0.00092641
0.000976801
0.00104107
0.0010974
0.00114426
0.00116813
0.00115508
0.0014124
0.00178918
0.00223174
0.00111725
0.00277362
0.00769502
0.00250913
0.00306508
0.00413271
0.00434581
0.00443031
0.00448729
0.00453959
0.00459865
0.0046826
0.00481995
0.00500621
0.005212
0.00537374
0.00540317
0.00523238
0.0048381
0.00445428
0.00405947
0.00370666
0.0034161
0.00327979
0.00328306
0.00341085
0.00368306
0.00402932
0.00441394
0.00476682
0.00500763
0.00514398
0.00516041
0.00503946
0.00477259
0.00418716
0.00362508
0.00265844
0.00121279
0.00114739
0.0010471
0.00321135
0.00982643
0.00406794
0.00272456
0.00384844
0.00429082
0.00445124
0.00451867
0.00453666
0.00454023
0.00458153
0.00471424
0.00493546
0.00523789
0.00557631
0.00584248
0.00588872
0.00562822
0.00514457
0.00461277
0.00416515
0.00386485
0.00371307
0.00368903
0.003794
0.00405128
0.00446388
0.00497464
0.00544937
0.00577465
0.00594324
0.00598394
0.00593208
0.00580861
0.00553435
0.00506246
0.00445002
0.00366714
0.00361598
0.00136707
0.00363215
0.0114798
0.0070396
0.00365785
0.00298225
0.00342487
0.00398844
0.00437296
0.00455227
0.00446762
0.00443245
0.00449253
0.00463056
0.0048575
0.00516505
0.00547906
0.00565717
0.00558062
0.00525614
0.00481194
0.0043917
0.00406682
0.00383219
0.00367228
0.0036215
0.00377173
0.00419537
0.00484851
0.00548489
0.00586325
0.00602875
0.00606186
0.00604164
0.00607095
0.0061859
0.00613254
0.00573248
0.00502987
0.00462629
0.00160768
0.00373397
0.0116534
0.00911731
0.00693478
0.00500426
0.00392419
0.00376237
0.00407994
0.00445709
0.0044059
0.00431523
0.00428002
0.00430479
0.0043886
0.00453617
0.00473737
0.00492836
0.00500406
0.00490412
0.0046701
0.00440158
0.00417197
0.00397205
0.00375839
0.0035471
0.00348223
0.00378833
0.00457232
0.00548785
0.00593972
0.00603042
0.00595314
0.00584697
0.00585362
0.00604509
0.00624071
0.00583381
0.00494113
0.00449
0.00167078
0.00363666
0.00438285
0.00487504
0.00503595
0.00484136
0.00443549
0.00408528
0.00389412
0.00383307
0.00381808
0.00383465
0.00386397
0.00389378
0.00392023
0.00394893
0.00399038
0.00404416
0.00408558
0.00408195
0.00402896
0.00396302
0.00392962
0.0039308
0.00389024
0.00369115
0.00334946
0.00326689
0.00401846
0.00541127
0.00609405
0.00609655
0.00577373
0.00525771
0.00463632
0.00404403
0.00352758
0.00310117
0.00270845
0.00238285
0.00165853
0.00284566
0.00449536
0.00471125
0.0045815
0.00436983
0.00417708
0.00402871
0.00391105
0.0038147
0.00372855
0.00364197
0.00354936
0.00345212
0.00335818
0.00327838
0.00322065
0.00318777
0.00318399
0.00322519
0.00333875
0.00353696
0.0037604
0.00383766
0.00350206
0.0027009
0.00287276
0.00471591
0.00608646
0.00644428
0.00654268
0.00661045
0.00658142
0.006277
0.00570555
0.00499395
0.00433673
0.00373982
0.00162574
0.00274042
0.00490724
0.00499925
0.00479166
0.00457139
0.00434042
0.00411628
0.00390575
0.00368905
0.00344769
0.00320199
0.00296471
0.00274484
0.00254996
0.00238788
0.00226721
0.00219703
0.00218701
0.00224855
0.00239468
0.00263005
0.0029128
0.00308956
0.00293433
0.00219042
0.00176037
0.00293871
0.00465774
0.00532595
0.00567541
0.00594177
0.00616104
0.00628279
0.00620104
0.00588446
0.00548232
0.00427159
0.00167156
0.00226563
0.00241887
0.00255177
0.00268857
0.00254115
0.00232477
0.00216275
0.00201299
0.00187457
0.00174623
0.00163028
0.00152804
0.00143377
0.00134454
0.00125906
0.00117717
0.00109959
0.00102764
0.000962938
0.000907089
0.000861494
0.000827473
0.000806309
0.000798476
0.000801558
0.000792248
0.000769134
0.000758186
0.000881993
0.00109553
0.00119165
0.00125714
0.00136088
0.00151072
0.00166953
0.00179345
0.00183392
0.00176323
0.00164123
0.00148569
)
;

boundaryField
{
    floor
    {
        type            compressible::alphatWallFunction;
        Prt             0.85;
        value           nonuniform List<scalar> 
29
(
0.000146044
6.92652e-05
8.03089e-05
7.72868e-05
6.47385e-05
5.52408e-05
4.70343e-05
4.09165e-05
3.7931e-05
3.68975e-05
3.40404e-05
2.95833e-05
2.71377e-05
2.81552e-05
3.44612e-05
4.80389e-05
6.15687e-05
6.92754e-05
6.68507e-05
5.81202e-05
5.81194e-05
8.09475e-05
0.00010186
0.000158625
0.000146042
6.92644e-05
8.4547e-05
0.000140039
0.000171256
)
;
    }
    ceiling
    {
        type            compressible::alphatWallFunction;
        Prt             0.85;
        value           nonuniform List<scalar> 
43
(
0.00031151
0.000331134
0.000348051
0.000365422
0.000346777
0.000319185
0.00029834
0.000278921
0.00026083
0.000243927
0.000228538
0.000214868
0.000202172
0.000190068
0.000178387
0.000167113
0.000156349
0.000146287
0.000137169
0.000129241
0.000122726
0.00011784
0.00011479
0.000113662
0.000114106
0.000112747
0.000109385
0.000107818
0.000125786
0.000155895
0.000169136
0.000178136
0.000192307
0.000212558
0.000233777
0.000250178
0.000255507
0.000246185
0.000230005
0.000209179
0.0004833
0.000573685
0.000371858
)
;
    }
    sWall
    {
        type            compressible::alphatWallFunction;
        Prt             0.85;
        value           uniform 0.000310347;
    }
    nWall
    {
        type            compressible::alphatWallFunction;
        Prt             0.85;
        value           nonuniform List<scalar> 6(0.00014863 0.000192738 0.000225127 0.00022758 0.000233673 0.000208815);
    }
    sideWalls
    {
        type            empty;
    }
    glass1
    {
        type            compressible::alphatWallFunction;
        Prt             0.85;
        value           nonuniform List<scalar> 9(0.000114242 0.000187641 0.000251424 0.000312299 0.000369511 0.000423789 0.00047529 0.000487798 0.000476202);
    }
    glass2
    {
        type            compressible::alphatWallFunction;
        Prt             0.85;
        value           nonuniform List<scalar> 2(0.000231841 0.000230314);
    }
    sun
    {
        type            compressible::alphatWallFunction;
        Prt             0.85;
        value           nonuniform List<scalar> 
14
(
0.000117648
0.000121529
0.00011542
0.000119889
0.000124258
0.000128242
0.000131907
0.000135374
0.000138796
0.000142266
0.00014511
0.000147098
0.000148039
0.000147838
)
;
    }
    heatsource1
    {
        type            compressible::alphatWallFunction;
        Prt             0.85;
        value           nonuniform List<scalar> 3(0.000172032 0.000163003 0.000149035);
    }
    heatsource2
    {
        type            compressible::alphatWallFunction;
        Prt             0.85;
        value           nonuniform List<scalar> 4(0.000154491 0.000106973 0.000106971 0.000161942);
    }
    Table_master
    {
        type            compressible::alphatWallFunction;
        Prt             0.85;
        value           nonuniform List<scalar> 9(8.80119e-05 7.36902e-05 6.48807e-05 5.78132e-05 5.14027e-05 4.53273e-05 4.01165e-05 5.52179e-05 9.76993e-05);
    }
    Table_slave
    {
        type            compressible::alphatWallFunction;
        Prt             0.85;
        value           nonuniform List<scalar> 9(0.000121608 0.000125933 0.000131995 0.000139126 0.000148154 0.000156021 0.000162532 0.000165834 0.000164025);
    }
    inlet
    {
        type            fixedValue;
        value           uniform 1.94e-05;
    }
    outlet
    {
        type            zeroGradient;
    }
}


// ************************************************************************* //
