/*--------------------------------*- C++ -*----------------------------------*\
  =========                 |
  \\      /  F ield         | OpenFOAM: The Open Source CFD Toolbox
   \\    /   O peration     | Website:  https://openfoam.org
    \\  /    A nd           | Version:  6
     \\/     M anipulation  |
\*---------------------------------------------------------------------------*/
FoamFile
{
    version     2.0;
    format      ascii;
    class       volScalarField;
    location    "300";
    object      epsilon;
}
// * * * * * * * * * * * * * * * * * * * * * * * * * * * * * * * * * * * * * //

dimensions      [0 2 -3 0 0 0 0];

internalField   nonuniform List<scalar> 
459
(
0.000127357
0.000139848
0.000120002
0.000134306
0.000149412
0.000164196
0.000178685
0.000193198
0.000208315
0.00022448
0.000238366
0.00024842
0.000253269
0.000252199
0.000242977
2.79685e-05
4.20228e-05
3.77661e-05
2.32968e-05
1.53489e-05
1.0225e-05
7.2989e-06
6.1138e-06
5.7378e-06
4.78501e-06
3.53097e-06
2.95283e-06
3.18443e-06
4.91729e-06
1.07631e-05
2.03311e-05
2.78772e-05
2.53152e-05
1.74734e-05
0.000570112
0.00133058
0.000135749
0.000102834
0.000105441
0.000110465
0.00011677
0.00012527
0.00013703
0.000152754
0.000170495
0.000188781
0.000204978
0.000215661
0.000225181
0.000287421
9.5445e-05
4.8559e-05
0.000130725
6.42566e-05
4.08114e-05
4.00302e-05
3.20394e-05
2.5426e-05
1.88487e-05
1.47042e-05
1.13637e-05
7.78528e-06
4.96734e-06
4.15454e-06
8.1986e-06
2.66327e-05
4.9017e-05
6.40713e-05
8.86695e-05
4.28088e-05
0.0014224
0.0044724
0.000289851
0.000111558
0.000105623
0.000110934
0.000118936
0.00012977
0.000143802
0.000160983
0.000179449
0.000196648
0.000210472
0.000220419
0.000230546
0.000255984
0.000331955
0.000213259
0.000179925
9.45239e-05
8.19925e-05
8.01025e-05
8.53021e-05
5.41719e-05
3.29279e-05
2.32936e-05
1.71663e-05
1.26869e-05
9.27435e-06
6.91473e-06
1.5197e-05
7.27556e-05
0.00011808
0.000122704
0.000110701
8.25431e-05
0.00282975
0.0101473
0.000687497
0.000137455
0.000113494
0.000120438
0.000131534
0.000145594
0.000162858
0.00018339
0.000204829
0.000222084
0.000233227
0.000239894
0.000246592
0.000262379
0.000305758
0.000395279
0.000195622
0.000104979
7.38776e-05
6.66148e-05
7.27737e-05
9.34542e-05
0.000139478
0.000154807
0.000178246
0.000208901
0.000252814
0.000296088
0.000335651
0.000357066
0.00034518
0.000264566
0.000246635
0.000315677
0.000311747
0.00484866
0.0180107
0.00157258
0.000193354
0.000123967
0.000131375
0.000147962
0.000169764
0.000196917
0.000229152
0.000261598
0.000283849
0.000294389
0.000296483
0.000291618
0.000277209
0.000249361
0.000197618
0.000118318
7.69579e-05
5.78422e-05
5.31951e-05
5.6607e-05
6.59821e-05
8.02369e-05
9.74108e-05
0.000120835
0.00015194
0.00019389
0.00024021
0.00028481
0.000315809
0.000319993
0.000287459
0.000245633
0.000234697
0.000247801
0.000399266
0.000338113
0.000257071
0.00753848
0.0255466
0.00344324
0.000381364
0.000162131
0.000153261
0.000171517
0.000202091
0.000244951
0.00030211
0.000352889
0.000378056
0.000383171
0.000378833
0.000369486
0.000348876
0.000304073
0.000232547
0.00015555
9.99327e-05
7.03728e-05
5.90101e-05
5.7686e-05
6.26554e-05
7.35866e-05
9.24759e-05
0.000122515
0.000165389
0.000221183
0.000291518
0.000366949
0.00043341
0.000478341
0.000485042
0.00041724
0.000351443
0.000316411
0.000323934
0.000588315
0.000572354
0.0109218
0.0292455
0.00762806
0.00158227
0.000537838
0.000323221
0.000285967
0.000303747
0.000353728
0.000451561
0.000506248
0.000510818
0.000488799
0.000459382
0.000431544
0.000401393
0.000354854
0.000285245
0.00020636
0.000140423
9.85083e-05
7.69201e-05
6.81157e-05
6.70954e-05
7.32638e-05
9.05701e-05
0.000125764
0.000184109
0.00026447
0.000359599
0.000465418
0.000573789
0.00067796
0.000784798
0.000868534
0.000823073
0.000806693
0.000728771
0.000951125
0.000931239
0.0118933
0.0370615
0.0171974
0.0090986
0.00437973
0.00207525
0.00120042
0.000903161
0.000824677
0.000823048
0.000769882
0.000692663
0.000611651
0.000537489
0.000474505
0.000421257
0.000369065
0.000308204
0.000240351
0.000177645
0.000131673
0.00010337
8.85672e-05
8.23597e-05
8.23152e-05
9.20525e-05
0.000125666
0.000199084
0.000315344
0.000446297
0.000584581
0.000730999
0.000896267
0.00111692
0.00144268
0.00186141
0.00209768
0.00225093
0.00307304
0.00104709
0.0110217
0.0192342
0.0152064
0.0110842
0.00769537
0.0051154
0.00340731
0.00237178
0.00177397
0.00136334
0.00107423
0.000864947
0.000708336
0.00058733
0.000491474
0.000413925
0.000348804
0.000290803
0.000237562
0.000190654
0.000153182
0.000126984
0.000112214
0.000106956
0.000105834
0.000101906
0.000116499
0.000190868
0.000351232
0.000528309
0.000683731
0.000813747
0.000905809
0.000958203
0.00100312
0.00106161
0.00114637
0.00123805
0.00133274
0.00102632
0.00641473
0.00831697
0.00634663
0.00463771
0.00335474
0.0024534
0.00183824
0.00140947
0.00110196
0.000875995
0.000705455
0.000573056
0.000467731
0.000382613
0.000313375
0.000257067
0.00021168
0.000176123
0.000150136
0.0001342
0.000129426
0.000136083
0.000148107
0.000138455
0.000105474
0.000137849
0.000296982
0.000507347
0.000706353
0.00094586
0.00124882
0.0015776
0.00182184
0.00190128
0.00179298
0.00158995
0.00123257
0.000966256
0.00453371
0.0069019
0.00529478
0.00392177
0.00294825
0.00222405
0.00169165
0.00130206
0.0010155
0.000800682
0.000636219
0.000507694
0.000405661
0.000324159
0.000259546
0.000209516
0.000172343
0.000146524
0.000130803
0.000124409
0.000126815
0.000135583
0.000142676
0.000135071
0.000109397
0.000110819
0.000221443
0.000335977
0.000440904
0.000597504
0.000811239
0.00109641
0.00142834
0.00172445
0.00180034
0.0016714
0.00125643
0.00105013
0.0025836
0.00314237
0.00368926
0.00435145
0.00368556
0.00282816
0.00227841
0.00183765
0.00148421
0.00119982
0.000976356
0.000803953
0.000664145
0.000547694
0.00044972
0.000367545
0.000299548
0.000244497
0.000201152
0.000168134
0.000144027
0.000127625
0.000118082
0.000114679
0.000115993
0.000111937
0.000102375
9.81225e-05
0.000154872
0.000296261
0.000380367
0.000446475
0.000566455
0.000774936
0.00104592
0.00129656
0.00138636
0.00123211
0.000993638
0.000737223
)
;

boundaryField
{
    floor
    {
        Cmu             0.09;
        kappa           0.41;
        E               9.8;
        type            epsilonWallFunction;
        value           nonuniform List<scalar> 
29
(
0.000242977
2.79685e-05
4.20228e-05
3.77661e-05
2.32968e-05
1.53489e-05
1.0225e-05
7.2989e-06
6.1138e-06
5.7378e-06
4.78501e-06
3.53097e-06
2.95283e-06
3.18443e-06
4.91729e-06
1.07631e-05
2.03311e-05
2.78772e-05
2.53152e-05
1.74734e-05
1.74734e-05
4.28088e-05
8.25431e-05
0.000311747
0.000242977
2.79685e-05
4.8559e-05
0.000213259
0.000395279
)
;
    }
    ceiling
    {
        Cmu             0.09;
        kappa           0.41;
        E               9.8;
        type            epsilonWallFunction;
        value           nonuniform List<scalar> 
43
(
0.0025836
0.00314237
0.00368926
0.00435145
0.00368556
0.00282816
0.00227841
0.00183765
0.00148421
0.00119982
0.000976356
0.000803953
0.000664145
0.000547694
0.00044972
0.000367545
0.000299548
0.000244497
0.000201152
0.000168134
0.000144027
0.000127625
0.000118082
0.000114679
0.000115993
0.000111937
0.000102375
9.81225e-05
0.000154872
0.000296261
0.000380367
0.000446475
0.000566455
0.000774936
0.00104592
0.00129656
0.00138636
0.00123211
0.000993638
0.000737223
0.0110217
0.0192342
0.00453371
)
;
    }
    sWall
    {
        Cmu             0.09;
        kappa           0.41;
        E               9.8;
        type            epsilonWallFunction;
        value           uniform 0.0025836;
    }
    nWall
    {
        Cmu             0.09;
        kappa           0.41;
        E               9.8;
        type            epsilonWallFunction;
        value           nonuniform List<scalar> 6(0.000257071 0.000572354 0.000931239 0.000966256 0.00105013 0.000737223);
    }
    sideWalls
    {
        type            empty;
    }
    glass1
    {
        Cmu             0.09;
        kappa           0.41;
        E               9.8;
        type            epsilonWallFunction;
        value           nonuniform List<scalar> 9(0.000127357 0.000570112 0.0014224 0.00282975 0.00484866 0.00753848 0.0109218 0.0118933 0.0110217);
    }
    glass2
    {
        Cmu             0.09;
        kappa           0.41;
        E               9.8;
        type            epsilonWallFunction;
        value           nonuniform List<scalar> 2(0.00104709 0.00102632);
    }
    sun
    {
        Cmu             0.09;
        kappa           0.41;
        E               9.8;
        type            epsilonWallFunction;
        value           nonuniform List<scalar> 
14
(
0.000127357
0.000139848
0.000120002
0.000134306
0.000149412
0.000164196
0.000178685
0.000193198
0.000208315
0.00022448
0.000238366
0.00024842
0.000253269
0.000252199
)
;
    }
    heatsource1
    {
        Cmu             0.09;
        kappa           0.41;
        E               9.8;
        type            epsilonWallFunction;
        value           nonuniform List<scalar> 3(0.000399266 0.000338113 0.000257071);
    }
    heatsource2
    {
        Cmu             0.09;
        kappa           0.41;
        E               9.8;
        type            epsilonWallFunction;
        value           nonuniform List<scalar> 4(0.000287421 9.5445e-05 9.5445e-05 0.000331955);
    }
    Table_master
    {
        Cmu             0.09;
        kappa           0.41;
        E               9.8;
        type            epsilonWallFunction;
        value           nonuniform List<scalar> 9(5.41719e-05 3.29279e-05 2.32936e-05 1.71663e-05 1.26869e-05 9.27435e-06 6.91473e-06 1.5197e-05 7.27556e-05);
    }
    Table_slave
    {
        Cmu             0.09;
        kappa           0.41;
        E               9.8;
        type            epsilonWallFunction;
        value           nonuniform List<scalar> 9(0.000139478 0.000154807 0.000178246 0.000208901 0.000252814 0.000296088 0.000335651 0.000357066 0.00034518);
    }
    inlet
    {
        type            turbulentMixingLengthDissipationRateInlet;
        mixingLength    0.01;
        phi             phi;
        k               k;
        value           uniform 0.000101881;
    }
    outlet
    {
        type            zeroGradient;
    }
}


// ************************************************************************* //
