/*--------------------------------*- C++ -*----------------------------------*\
  =========                 |
  \\      /  F ield         | OpenFOAM: The Open Source CFD Toolbox
   \\    /   O peration     | Website:  https://openfoam.org
    \\  /    A nd           | Version:  6
     \\/     M anipulation  |
\*---------------------------------------------------------------------------*/
FoamFile
{
    version     2.0;
    format      ascii;
    class       volScalarField;
    location    "110";
    object      nut;
}
// * * * * * * * * * * * * * * * * * * * * * * * * * * * * * * * * * * * * * //

dimensions      [0 2 -1 0 0 0 0];

internalField   nonuniform List<scalar> 
459
(
0.000860941
0.00114899
0.00124777
0.00123434
0.00119936
0.00116132
0.00112416
0.00108819
0.00105537
0.00102372
0.000991429
0.000956481
0.000916086
0.000865101
0.000802721
0.000636606
0.000798092
0.000897035
0.000953967
0.000950626
0.000921481
0.000865076
0.000806897
0.000755056
0.000710259
0.000671653
0.000638207
0.000608778
0.000582779
0.000558877
0.000535337
0.00050965
0.000471798
0.000431904
0.00082198
0.00225677
0.00276557
0.00298467
0.00299554
0.00295195
0.00291139
0.00288125
0.00281053
0.00269651
0.00252982
0.00229893
0.00199644
0.00162158
0.0012086
0.000805794
0.000723413
0.000781792
0.00287748
0.00311877
0.00361165
0.00393494
0.00377523
0.00263687
0.00215902
0.00185716
0.00164527
0.00148977
0.00137311
0.00128599
0.00120051
0.00110056
0.00100043
0.000924283
0.000765674
0.000484884
0.0010623
0.00254913
0.00291387
0.00326218
0.00339955
0.00349804
0.0036276
0.00377281
0.00384493
0.003798
0.0036127
0.00329051
0.00285079
0.00232842
0.00178097
0.00128079
0.000746885
0.00082808
0.00298392
0.00341241
0.00426705
0.00490359
0.00452046
0.00115713
0.00101119
0.000893204
0.000798463
0.000722206
0.000660593
0.000610811
0.000572737
0.000547606
0.00064364
0.000802795
0.00087195
0.000523423
0.00126213
0.00307627
0.00299718
0.00360975
0.00390532
0.00416206
0.00447278
0.00471644
0.00478949
0.0046921
0.00443937
0.00405187
0.0035571
0.00299101
0.00239615
0.00182318
0.00118816
0.000799328
0.00147728
0.00254235
0.0039944
0.0052958
0.00608268
0.00554449
0.0012961
0.00119248
0.00111062
0.00103942
0.000971919
0.000904104
0.000833275
0.000756862
0.000668552
0.0006375
0.000760233
0.00104822
0.000581021
0.00139032
0.003173
0.00286179
0.00409472
0.00463923
0.005102
0.00554542
0.00568031
0.00564301
0.00548264
0.00520868
0.00483277
0.00437892
0.00387913
0.0033745
0.00293853
0.00264042
0.00299865
0.00411164
0.00543391
0.00662624
0.00750932
0.00799558
0.00789768
0.00656906
0.00582678
0.00514241
0.00447865
0.00382586
0.00318269
0.00255061
0.00193423
0.00133189
0.000907216
0.000846048
0.00112668
0.000848666
0.000626574
0.000572565
0.0005479
0.0014908
0.00291051
0.00265729
0.00447142
0.00529026
0.00587876
0.00637033
0.00649615
0.00645861
0.00633777
0.00614284
0.00587907
0.00558348
0.00529292
0.0050744
0.00505002
0.00535253
0.0063013
0.00745822
0.00841834
0.00910602
0.00949798
0.00960381
0.00940666
0.00881307
0.00801926
0.00709328
0.00611656
0.00513134
0.00416389
0.00323265
0.00234773
0.00158837
0.00112561
0.00100973
0.00117141
0.00104423
0.000883833
0.000968301
0.000629893
0.00159779
0.00277966
0.00232815
0.00468263
0.00575463
0.00624832
0.00671839
0.00693959
0.00700198
0.00700466
0.00696945
0.00691249
0.00686389
0.00687057
0.00701331
0.00738428
0.00804895
0.00898699
0.00979281
0.0103191
0.0105733
0.0105768
0.0103619
0.00994522
0.00929686
0.0084345
0.00743936
0.00637837
0.00530235
0.00425605
0.00328326
0.00243006
0.00176022
0.00136093
0.00121697
0.00120167
0.00111293
0.00110069
0.00142249
0.000782186
0.0015063
0.00287999
0.0017732
0.00464996
0.00620225
0.00652976
0.00678532
0.00694762
0.00707345
0.00720011
0.00733145
0.00748112
0.00767565
0.00795297
0.00835871
0.00893346
0.00962551
0.0103075
0.0107552
0.0109146
0.01082
0.0105049
0.0099903
0.00934293
0.00859499
0.00775043
0.00682639
0.00585689
0.00488598
0.00396194
0.00313252
0.00243984
0.00191813
0.00159157
0.00142851
0.00135273
0.0013193
0.00140158
0.00261258
0.0013453
0.00138115
0.00129993
0.00118949
0.00422112
0.0065345
0.00684177
0.00692055
0.00699962
0.00713721
0.00731205
0.0075181
0.00776255
0.00805893
0.00842196
0.00885928
0.00935454
0.0098296
0.0101662
0.0102566
0.010077
0.00965639
0.00906425
0.00838981
0.00767944
0.00695916
0.00623009
0.00549158
0.00475935
0.004066
0.00345187
0.00295478
0.00260107
0.0023973
0.00231565
0.00227236
0.00218255
0.0020497
0.00230768
0.00422141
0.00166587
0.000910792
0.00359876
0.00662854
0.00709934
0.00726745
0.00741821
0.007569
0.00772235
0.00788512
0.00806445
0.00826421
0.00848168
0.0087023
0.00889234
0.00899466
0.00894873
0.00873011
0.00836585
0.00790804
0.0074098
0.00691182
0.00643507
0.00598627
0.00556587
0.00517921
0.00484119
0.00457309
0.00439587
0.00432345
0.0043544
0.00445815
0.00455819
0.00454327
0.00433642
0.00398032
0.00388454
0.00506516
0.00159066
0.00229645
0.00695268
0.00752948
0.00754731
0.00762731
0.00773849
0.00783319
0.0079048
0.00796229
0.00801436
0.00806519
0.00811339
0.00815121
0.00816398
0.00813177
0.00803666
0.00787331
0.00765399
0.00740117
0.00713687
0.00687633
0.00662844
0.00639999
0.00619854
0.00603383
0.00591751
0.00586206
0.00587888
0.0059747
0.00614354
0.00635129
0.00651809
0.00652515
0.00627474
0.00579072
0.00526957
0.00451428
0.00145699
0.00143209
0.00152759
0.00170564
0.0018118
0.00182635
0.00181729
0.00180753
0.00180124
0.00179831
0.00179821
0.00180059
0.00180506
0.00181103
0.00181753
0.00182308
0.0018257
0.00182337
0.00181488
0.00180078
0.00178302
0.00176387
0.00174517
0.00172818
0.0017137
0.00170226
0.00169432
0.00169041
0.00169111
0.00169694
0.00170799
0.00172344
0.00174064
0.00175421
0.00175625
0.0017409
0.00171371
0.00169203
0.0016768
0.00160352
0.00134676
)
;

boundaryField
{
    floor
    {
        type            nutkWallFunction;
        Cmu             0.09;
        kappa           0.41;
        E               9.8;
        value           nonuniform List<scalar> 
29
(
9.7229e-05
7.69268e-05
9.66799e-05
0.000108548
0.000115308
0.000114915
0.000111461
0.000104738
9.77486e-05
9.14711e-05
8.60057e-05
8.12626e-05
7.71271e-05
7.34667e-05
7.0215e-05
6.72101e-05
6.42352e-05
6.09705e-05
5.61224e-05
5.09585e-05
5.09584e-05
5.77966e-05
6.27108e-05
6.99741e-05
9.7229e-05
7.69268e-05
9.4695e-05
0.000100273
9.68264e-05
)
;
    }
    ceiling
    {
        type            nutkWallFunction;
        Cmu             0.09;
        kappa           0.41;
        E               9.8;
        value           nonuniform List<scalar> 
43
(
0.000170513
0.000181272
0.000201139
0.000212881
0.000214482
0.000213488
0.000212414
0.000211721
0.000211399
0.00021139
0.000211654
0.000212148
0.000212807
0.000213525
0.000214136
0.000214425
0.000214167
0.000213231
0.000211675
0.000209714
0.000207598
0.000205528
0.000203646
0.000202041
0.000200771
0.00019989
0.000199455
0.000199532
0.000200177
0.000201401
0.00020311
0.000205012
0.000206507
0.000206727
0.000205024
0.00020201
0.000199607
0.000197923
0.000189772
0.000160844
0.000164682
0.000155439
0.000265566
)
;
    }
    sWall
    {
        type            nutkWallFunction;
        Cmu             0.09;
        kappa           0.41;
        E               9.8;
        value           uniform 0.000170519;
    }
    nWall
    {
        type            nutkWallFunction;
        Cmu             0.09;
        kappa           0.41;
        E               9.8;
        value           nonuniform List<scalar> 6(6.58099e-05 7.60887e-05 9.47618e-05 0.000188356 0.000173342 0.00016085);
    }
    sideWalls
    {
        type            empty;
    }
    glass1
    {
        type            nutkWallFunction;
        Cmu             0.09;
        kappa           0.41;
        E               9.8;
        value           nonuniform List<scalar> 9(0.000104221 9.95449e-05 0.000128029 0.00015114 0.000165748 0.000177095 0.000189083 0.000178836 0.000164704);
    }
    glass2
    {
        type            nutkWallFunction;
        Cmu             0.09;
        kappa           0.41;
        E               9.8;
        value           nonuniform List<scalar> 2(0.000160672 0.000196717);
    }
    sun
    {
        type            nutkWallFunction;
        Cmu             0.09;
        kappa           0.41;
        E               9.8;
        value           nonuniform List<scalar> 
14
(
0.000104217
0.000138097
0.00014948
0.00014794
0.000143918
0.000139527
0.000135222
0.00013104
0.000127211
0.000123504
0.000119709
0.000115586
0.000110799
0.000104722
)
;
    }
    heatsource1
    {
        type            nutkWallFunction;
        Cmu             0.09;
        kappa           0.41;
        E               9.8;
        value           nonuniform List<scalar> 3(7.56513e-05 6.89024e-05 6.58074e-05);
    }
    heatsource2
    {
        type            nutkWallFunction;
        Cmu             0.09;
        kappa           0.41;
        E               9.8;
        value           nonuniform List<scalar> 4(9.76014e-05 8.76028e-05 8.76028e-05 9.04658e-05);
    }
    Table_master
    {
        type            nutkWallFunction;
        Cmu             0.09;
        kappa           0.41;
        E               9.8;
        value           nonuniform List<scalar> 9(0.000139083 0.000122064 0.0001081 9.67316e-05 8.74659e-05 7.98945e-05 7.3715e-05 6.89477e-05 6.57798e-05);
    }
    Table_slave
    {
        type            nutkWallFunction;
        Cmu             0.09;
        kappa           0.41;
        E               9.8;
        value           nonuniform List<scalar> 9(0.000155069 0.000143173 0.000133694 0.000125384 0.000117445 0.000109405 0.000100932 9.16952e-05 8.08808e-05);
    }
    inlet
    {
        type            calculated;
        value           uniform 0.000100623;
    }
    outlet
    {
        type            calculated;
        value           nonuniform List<scalar> 2(0.00143209 0.00152759);
    }
}


// ************************************************************************* //
