/*--------------------------------*- C++ -*----------------------------------*\
  =========                 |
  \\      /  F ield         | OpenFOAM: The Open Source CFD Toolbox
   \\    /   O peration     | Website:  https://openfoam.org
    \\  /    A nd           | Version:  6
     \\/     M anipulation  |
\*---------------------------------------------------------------------------*/
FoamFile
{
    version     2.0;
    format      ascii;
    class       volScalarField;
    location    "700";
    object      nut;
}
// * * * * * * * * * * * * * * * * * * * * * * * * * * * * * * * * * * * * * //

dimensions      [0 2 -1 0 0 0 0];

internalField   nonuniform List<scalar> 
459
(
0.000678255
0.000701864
0.000649537
0.000672475
0.000697778
0.00072202
0.000745296
0.000768207
0.000791692
0.000815344
0.000835847
0.000852247
0.000863886
0.000870198
0.000867394
0.000265137
0.00029531
0.000260893
0.000228894
0.000209712
0.000202437
0.000203595
0.000218848
0.000236087
0.000251751
0.000262691
0.000264567
0.000258961
0.000256632
0.000259694
0.000270614
0.000263834
0.000244711
0.000225102
0.00113655
0.00210223
0.00163266
0.00215672
0.00237385
0.00257724
0.00277851
0.00296267
0.00310788
0.00320619
0.00325117
0.00320957
0.00302508
0.00260213
0.00183605
0.000940605
0.000585955
0.000413703
0.0010552
0.00103593
0.000834541
0.000633931
0.000515589
0.000479575
0.000577117
0.000695355
0.000795376
0.000860875
0.000880016
0.000871965
0.000879436
0.000961624
0.00121697
0.00110167
0.000796656
0.000350155
0.00155605
0.0035218
0.00175845
0.00302448
0.00358406
0.00385218
0.00406903
0.00424976
0.00438838
0.0044845
0.00453621
0.00450976
0.00434143
0.00392598
0.0031432
0.00203631
0.00098503
0.000597216
0.00160106
0.0013654
0.00101361
0.000727285
0.000497971
0.000292238
0.000311005
0.000334605
0.000359224
0.00038645
0.000419162
0.000461529
0.000521556
0.000614296
0.00197336
0.0020733
0.00180324
0.000515167
0.00196495
0.00538318
0.00213998
0.00304518
0.0041282
0.00447223
0.00467705
0.00484232
0.00498111
0.00509472
0.00521592
0.00532806
0.00537675
0.00525475
0.0047852
0.00376212
0.00219717
0.000940973
0.00221868
0.00258297
0.00214094
0.00166222
0.0012649
0.00090346
0.000619762
0.00061516
0.000614823
0.000618306
0.000626835
0.000642168
0.000667003
0.000706351
0.000772207
0.00245765
0.00260353
0.00243156
0.000746614
0.00235437
0.00747365
0.00328851
0.00280947
0.00405015
0.00456092
0.0047912
0.00494757
0.00507045
0.00518197
0.00537011
0.0056397
0.005968
0.00629944
0.00653564
0.00656286
0.00631063
0.0058024
0.00546689
0.00498292
0.00457998
0.00428395
0.00403085
0.003805
0.00360641
0.00348391
0.00337361
0.00326797
0.00316717
0.00307743
0.00301133
0.0029841
0.00300594
0.00309515
0.00298294
0.00281817
0.00254407
0.000990602
0.000849779
0.000730249
0.00272612
0.00944219
0.00557211
0.00346199
0.00355278
0.00406684
0.00445214
0.00470727
0.00483624
0.00492118
0.00511692
0.00542819
0.00586574
0.00641089
0.00697096
0.00739605
0.00755392
0.00738061
0.00699328
0.00654871
0.00616693
0.00586205
0.00561565
0.0054107
0.00522902
0.00506376
0.00490852
0.00475432
0.00458743
0.00439471
0.0041738
0.00393996
0.00371172
0.0034847
0.00323965
0.00298202
0.00268387
0.00222462
0.00162286
0.000758954
0.00305188
0.0108067
0.00857864
0.00584126
0.00427864
0.00383948
0.0040715
0.00444249
0.00462677
0.00471774
0.00485516
0.00507095
0.00541574
0.00593787
0.00659777
0.00720784
0.00761202
0.00771589
0.00756344
0.00728228
0.0069806
0.00670214
0.00645671
0.00624156
0.00604925
0.00587924
0.00573509
0.00561428
0.00550181
0.0053662
0.00516532
0.00487323
0.00450788
0.00410592
0.0036855
0.00325088
0.00278937
0.00227242
0.00169778
0.000798998
0.00309588
0.01005
0.00897424
0.00813337
0.0065862
0.0054621
0.00497225
0.00485713
0.00483676
0.00480721
0.00481181
0.0048855
0.00506579
0.00539233
0.00587666
0.00644687
0.00696111
0.00728496
0.00738284
0.00731323
0.00715559
0.00696309
0.00676472
0.00657355
0.00639404
0.00623677
0.00611258
0.00603152
0.00599813
0.00600271
0.00600658
0.00593619
0.00572422
0.00535643
0.0048555
0.00426849
0.00366405
0.00308498
0.00260407
0.00141964
0.00297838
0.00346762
0.00629443
0.00694621
0.00666636
0.00611511
0.00561935
0.00526051
0.00501128
0.00484672
0.00477175
0.00478598
0.00489278
0.00509339
0.00538536
0.00575146
0.00614151
0.00647741
0.00669903
0.00679651
0.0067949
0.00672626
0.0066208
0.00650016
0.00637698
0.00626335
0.00617079
0.00611074
0.00609527
0.00613618
0.00623787
0.00637615
0.00651251
0.0066158
0.00667091
0.00668276
0.00650485
0.00596207
0.00537328
0.00154507
0.0131375
0.0132776
0.0088396
0.00721154
0.00631406
0.00574057
0.00535908
0.00511209
0.00498202
0.00496683
0.00504268
0.00517946
0.00535484
0.00555662
0.00577191
0.0059816
0.0061613
0.00629242
0.00636914
0.00639531
0.00638737
0.00635988
0.00632118
0.00628073
0.00624559
0.00622185
0.00621623
0.0062373
0.00629387
0.00638296
0.00650564
0.00663746
0.00671518
0.00666946
0.00643633
0.00593891
0.00494065
0.00159693
0.00511627
0.010639
0.00837487
0.00705349
0.00624426
0.0057213
0.00540487
0.00526399
0.0052771
0.00540502
0.0055998
0.00582394
0.00604269
0.00622847
0.00635582
0.00642914
0.00646352
0.00647593
0.00647966
0.00648246
0.00648787
0.00649614
0.00650567
0.00651436
0.00651996
0.00652074
0.0065159
0.00650634
0.00649555
0.00648846
0.00648529
0.00644453
0.0063429
0.00614744
0.00580519
0.00524576
0.00455967
0.00172287
0.00171381
0.00233704
0.0037212
0.00313375
0.00273533
0.00252608
0.00226476
0.0020382
0.00185498
0.00171115
0.00160378
0.00153239
0.00149349
0.00147862
0.00147961
0.00148921
0.00150267
0.00151412
0.00152096
0.00152303
0.00152145
0.00151779
0.00151324
0.00150873
0.00150478
0.00150147
0.00149866
0.00149607
0.0014933
0.00148991
0.00148537
0.00147909
0.00146975
0.00145924
0.00144538
0.00142546
0.0013942
0.0013421
0.0012991
0.00128591
)
;

boundaryField
{
    floor
    {
        type            nutkWallFunction;
        Cmu             0.09;
        kappa           0.41;
        E               9.8;
        value           nonuniform List<scalar> 
29
(
0.000105005
2.85574e-05
3.27146e-05
2.79701e-05
2.34806e-05
2.07495e-05
1.97041e-05
1.98703e-05
2.20527e-05
2.44944e-05
2.66923e-05
2.82164e-05
2.8477e-05
2.7698e-05
2.73735e-05
2.77994e-05
2.93132e-05
2.83728e-05
2.57049e-05
2.29405e-05
2.29404e-05
4.01177e-05
6.16206e-05
9.04193e-05
0.000105005
2.85573e-05
4.85302e-05
7.19863e-05
0.000113771
)
;
    }
    ceiling
    {
        type            nutkWallFunction;
        Cmu             0.09;
        kappa           0.41;
        E               9.8;
        value           nonuniform List<scalar> 
43
(
0.000202159
0.000270087
0.000414734
0.000354156
0.000312426
0.000290253
0.000262283
0.000237756
0.000217707
0.00020182
0.000189865
0.000181869
0.000177494
0.000175818
0.000175928
0.000177009
0.000178525
0.000179812
0.000180581
0.000180813
0.000180636
0.000180224
0.000179712
0.000179204
0.00017876
0.000178387
0.00017807
0.000177777
0.000177465
0.000177083
0.000176571
0.000175862
0.000174808
0.000173621
0.000172056
0.000169803
0.00016626
0.000160336
0.000155427
0.00015392
0.000338038
0.000388823
0.00055504
)
;
    }
    sWall
    {
        type            nutkWallFunction;
        Cmu             0.09;
        kappa           0.41;
        E               9.8;
        value           uniform 0.000202204;
    }
    nWall
    {
        type            nutkWallFunction;
        Cmu             0.09;
        kappa           0.41;
        E               9.8;
        value           nonuniform List<scalar> 6(8.84236e-05 9.19239e-05 9.67788e-05 0.000189095 0.000203111 0.00015393);
    }
    sideWalls
    {
        type            empty;
    }
    glass1
    {
        type            nutkWallFunction;
        Cmu             0.09;
        kappa           0.41;
        E               9.8;
        value           nonuniform List<scalar> 9(8.20018e-05 0.00013681 0.000184706 0.000230013 0.000272214 0.000311812 0.000346047 0.00035065 0.000338378);
    }
    glass2
    {
        type            nutkWallFunction;
        Cmu             0.09;
        kappa           0.41;
        E               9.8;
        value           nonuniform List<scalar> 2(0.000169174 0.000183313);
    }
    sun
    {
        type            nutkWallFunction;
        Cmu             0.09;
        kappa           0.41;
        E               9.8;
        value           nonuniform List<scalar> 
14
(
8.20414e-05
8.49464e-05
7.84939e-05
8.133e-05
8.4445e-05
8.74168e-05
9.02589e-05
9.30464e-05
9.58933e-05
9.87506e-05
0.00010122
0.000103189
0.000104585
0.00010534
)
;
    }
    heatsource1
    {
        type            nutkWallFunction;
        Cmu             0.09;
        kappa           0.41;
        E               9.8;
        value           nonuniform List<scalar> 3(0.000119645 0.000102896 8.84244e-05);
    }
    heatsource2
    {
        type            nutkWallFunction;
        Cmu             0.09;
        kappa           0.41;
        E               9.8;
        value           nonuniform List<scalar> 4(0.000113728 7.05695e-05 7.05695e-05 0.000118983);
    }
    Table_master
    {
        type            nutkWallFunction;
        Cmu             0.09;
        kappa           0.41;
        E               9.8;
        value           nonuniform List<scalar> 9(3.22848e-05 3.48437e-05 3.80334e-05 4.13298e-05 4.49419e-05 4.92395e-05 5.47436e-05 6.24366e-05 7.41144e-05);
    }
    Table_slave
    {
        type            nutkWallFunction;
        Cmu             0.09;
        kappa           0.41;
        E               9.8;
        value           nonuniform List<scalar> 9(7.47942e-05 7.42205e-05 7.41785e-05 7.46129e-05 7.5675e-05 7.75802e-05 8.06545e-05 8.54976e-05 9.35325e-05);
    }
    inlet
    {
        type            calculated;
        value           uniform 3.3541e-05;
    }
    outlet
    {
        type            calculated;
        value           nonuniform List<scalar> 2(0.00171381 0.00233704);
    }
}


// ************************************************************************* //
