// -*- C++ -*-
// File generated by PyFoam - sorry for the ugliness

FoamFile
{
 version 2.0;
 format ascii;
 class volVectorField;
 location "260";
 object U;
}

dimensions [ 0 1 -1 0 0 0 0 ];

internalField nonuniform List<vector> 459
(
  (0.010637 0.0702344 0)
  (-0.138599 0.0237752 0)
  (-0.16586 0.0138829 0)
  (-0.191124 0.00629949 0)
  (-0.204995 -0.00176153 0)
  (-0.205436 -0.0103972 0)
  (-0.190933 -0.0198307 0)
  (-0.162332 -0.0291775 0)
  (-0.122628 -0.0365684 0)
  (-0.0777168 -0.0403743 0)
  (-0.0346922 -0.0393831 0)
  (0.00958976 -0.0273107 0)
  (0.0304536 -0.0135775 0)
  (0.0364632 0.00216329 0)
  (0.0588575 0.0263217 0)
  (-0.107406 0.00665153 0)
  (0.0265644 0.00249954 0)
  (0.00214033 -0.010059 0)
  (0.020795 -0.0162057 0)
  (0.0377721 -0.0148034 0)
  (0.0528799 -0.0112204 0)
  (0.0632791 -0.00657299 0)
  (0.0689051 -0.00391163 0)
  (0.0712184 -0.0029017 0)
  (0.0721129 -0.0025031 0)
  (0.0725572 -0.00223125 0)
  (0.0726853 -0.00195843 0)
  (0.0723202 -0.0015544 0)
  (0.0710799 -0.000776183 0)
  (0.0680964 0.000918164 0)
  (0.0616216 0.00444136 0)
  (0.0503246 0.00978767 0)
  (0.00605555 0.020375 0)
  (0.0889759 0.00331595 0)
  (0.137095 0.143898 0)
  (-0.12528 0.0638096 0)
  (-0.134237 0.0464077 0)
  (-0.160223 0.0310774 0)
  (-0.17455 0.0134851 0)
  (-0.176003 -0.00671871 0)
  (-0.163016 -0.0288205 0)
  (-0.137261 -0.0492384 0)
  (-0.102351 -0.0635396 0)
  (-0.0641008 -0.0686982 0)
  (-0.0281984 -0.0638469 0)
  (0.00415112 -0.0466677 0)
  (0.0262095 -0.0245133 0)
  (0.0407467 -0.00140252 0)
  (0.0559161 0.0244512 0)
  (0.0552062 0.0295536 0)
  (0.0378962 0.0350709 0)
  (-0.122773 0.00276727 0)
  (0.0287593 -0.0148109 0)
  (0.0280551 -0.023651 0)
  (0.0402442 -0.0271921 0)
  (0.0528114 -0.0241886 0)
  (0.0631112 -0.0179841 0)
  (0.0684065 -0.00777704 0)
  (0.0696926 -0.00162398 0)
  (0.0696403 0.000744592 0)
  (0.0697581 0.00164821 0)
  (0.0700619 0.00218897 0)
  (0.0703033 0.00270382 0)
  (0.0703548 0.00341716 0)
  (0.0701666 0.00484876 0)
  (0.069145 0.00815665 0)
  (0.0645672 0.0165986 0)
  (0.0555738 0.0259321 0)
  (0.00992035 0.0384966 0)
  (0.139814 0.0248664 0)
  (0.254874 0.215186 0)
  (-0.13141 0.0991598 0)
  (-0.102169 0.0738059 0)
  (-0.127249 0.0480337 0)
  (-0.140935 0.0191907 0)
  (-0.142385 -0.0136119 0)
  (-0.129086 -0.0486375 0)
  (-0.104537 -0.0795231 0)
  (-0.0734172 -0.0990357 0)
  (-0.041538 -0.103482 0)
  (-0.0127835 -0.0932654 0)
  (0.0121595 -0.0695375 0)
  (0.0304834 -0.0419982 0)
  (0.0439592 -0.0136717 0)
  (0.0534287 0.0141975 0)
  (0.0541271 0.0341583 0)
  (0.0454669 0.0656616 0)
  (-0.0846317 -0.0146184 0)
  (0.0432104 -0.0362429 0)
  (0.0537 -0.0416365 0)
  (0.0600662 -0.0395277 0)
  (0.0666078 -0.0338977 0)
  (0.0724086 -0.0281352 0)
  (0.0739069 -0.0210138 0)
  (0.0675076 -0.0136031 0)
  (0.0624318 -0.00969512 0)
  (0.0604509 -0.00755646 0)
  (0.0599059 -0.00619617 0)
  (0.0597859 -0.00521479 0)
  (0.060166 -0.00423019 0)
  (0.0617888 -0.00269765 0)
  (0.0664397 0.00185881 0)
  (0.0669108 0.0218004 0)
  (0.0609322 0.0374591 0)
  (0.0124275 0.0551513 0)
  (0.169374 0.0550753 0)
  (0.364691 0.272597 0)
  (-0.151751 0.129032 0)
  (-0.0681727 0.0977838 0)
  (-0.0913265 0.0638952 0)
  (-0.102279 0.0260466 0)
  (-0.100911 -0.0190327 0)
  (-0.0846829 -0.0675168 0)
  (-0.0610532 -0.107576 0)
  (-0.0348668 -0.130172 0)
  (-0.0109579 -0.132538 0)
  (0.0102915 -0.116662 0)
  (0.026865 -0.0895008 0)
  (0.0406999 -0.0574195 0)
  (0.0518826 -0.0248975 0)
  (0.0619246 0.00626911 0)
  (0.0728865 0.033182 0)
  (0.0877873 0.0616746 0)
  (0.11509 0.00210946 0)
  (0.107244 -0.0154817 0)
  (0.0979615 -0.0333715 0)
  (0.0866139 -0.0404987 0)
  (0.0786669 -0.0391615 0)
  (0.0737647 -0.0338237 0)
  (0.0696396 -0.0261424 0)
  (0.0700681 -0.0155473 0)
  (0.0773136 -0.0102298 0)
  (0.0826979 -0.00733964 0)
  (0.0852079 -0.00561443 0)
  (0.0862323 -0.00429184 0)
  (0.08614 -0.00293812 0)
  (0.0842452 -0.0011725 0)
  (0.0792755 0.00149772 0)
  (0.068594 0.00575508 0)
  (0.0601059 0.0271619 0)
  (0.0616343 0.0455378 0)
  (0.020241 0.0667281 0)
  (0.187347 0.0988102 0)
  (0.464165 0.316461 0)
  (-0.181146 0.15155 0)
  (-0.0337316 0.112339 0)
  (-0.0526835 0.0737867 0)
  (-0.0584449 0.0301215 0)
  (-0.0479776 -0.0262595 0)
  (-0.0270251 -0.0868336 0)
  (-0.00625891 -0.131584 0)
  (0.0123136 -0.153057 0)
  (0.0258897 -0.150909 0)
  (0.0364884 -0.131922 0)
  (0.0447227 -0.102024 0)
  (0.0514829 -0.0677069 0)
  (0.0576025 -0.0339305 0)
  (0.0649606 -0.00367027 0)
  (0.0749358 0.0203533 0)
  (0.0898487 0.0323202 0)
  (0.102543 0.00775201 0)
  (0.101401 -0.0105382 0)
  (0.0921608 -0.024027 0)
  (0.0816185 -0.0302622 0)
  (0.0720682 -0.0305369 0)
  (0.0641976 -0.0269614 0)
  (0.0581444 -0.0203734 0)
  (0.0557238 -0.0104766 0)
  (0.0567362 -0.00473401 0)
  (0.0579719 -0.00228059 0)
  (0.0587112 -0.00110753 0)
  (0.0593993 2.0471e-05 0)
  (0.0602434 0.00182561 0)
  (0.0606732 0.00481782 0)
  (0.0601939 0.00958734 0)
  (0.0583451 0.0169306 0)
  (0.0573801 0.0305748 0)
  (0.0657706 0.0453487 0)
  (0.0521256 0.059991 0)
  (0.133037 0.0955589 0)
  (0.123367 0.0767095 0)
  (0.106751 0.0561941 0)
  (-0.124002 0.0581492 0)
  (0.542033 0.351814 0)
  (-0.213868 0.164648 0)
  (-0.00532085 0.110852 0)
  (-0.0120594 0.076071 0)
  (-0.00930995 0.0295563 0)
  (0.0202215 -0.0441545 0)
  (0.0419873 -0.107467 0)
  (0.0561086 -0.147872 0)
  (0.0634231 -0.163875 0)
  (0.065397 -0.158251 0)
  (0.0640597 -0.136406 0)
  (0.0610945 -0.104884 0)
  (0.0580075 -0.0700161 0)
  (0.0561675 -0.0370578 0)
  (0.0570964 -0.00949478 0)
  (0.0618835 0.0100617 0)
  (0.070809 0.0173043 0)
  (0.0767166 0.00654768 0)
  (0.0752094 -0.00659435 0)
  (0.0682926 -0.0161087 0)
  (0.0594608 -0.0210431 0)
  (0.0504803 -0.021848 0)
  (0.0423477 -0.0195416 0)
  (0.0358296 -0.0148882 0)
  (0.0319479 -0.0088397 0)
  (0.0307209 -0.00504709 0)
  (0.0307878 -0.00348911 0)
  (0.0315318 -0.0028942 0)
  (0.0329391 -0.00225632 0)
  (0.035056 -0.000752524 0)
  (0.0381191 0.00244711 0)
  (0.0413362 0.00780426 0)
  (0.0446489 0.0155658 0)
  (0.049004 0.0260397 0)
  (0.0584694 0.0366555 0)
  (0.0584193 0.0412963 0)
  (0.086163 0.0583728 0)
  (0.0847519 0.0476524 0)
  (0.100307 0.0469908 0)
  (-0.133136 0.0846445 0)
  (0.595156 0.382621 0)
  (-0.233137 0.150269 0)
  (0.0218478 0.0707983 0)
  (0.0406606 0.0518645 0)
  (0.0653328 0.00300773 0)
  (0.0998656 -0.0694868 0)
  (0.118023 -0.124389 0)
  (0.122478 -0.15523 0)
  (0.116378 -0.16326 0)
  (0.103301 -0.152261 0)
  (0.086781 -0.127557 0)
  (0.0698864 -0.0955437 0)
  (0.0549637 -0.0619274 0)
  (0.0437898 -0.0317346 0)
  (0.0375137 -0.00820313 0)
  (0.0365713 0.00687014 0)
  (0.0403007 0.0118691 0)
  (0.0427634 0.00613119 0)
  (0.0412862 -0.00247963 0)
  (0.0361372 -0.00924125 0)
  (0.0288747 -0.0129959 0)
  (0.0209654 -0.0138506 0)
  (0.0134922 -0.0124779 0)
  (0.00739932 -0.00964008 0)
  (0.00355978 -0.00635235 0)
  (0.00204836 -0.00443647 0)
  (0.0020636 -0.0040211 0)
  (0.00305294 -0.0043259 0)
  (0.00486868 -0.00459844 0)
  (0.00758693 -0.00414969 0)
  (0.0115566 -0.00209813 0)
  (0.0177935 0.00257249 0)
  (0.0248213 0.00959897 0)
  (0.0328319 0.0180542 0)
  (0.0429221 0.0263091 0)
  (0.0483319 0.0307074 0)
  (0.0613315 0.0428572 0)
  (0.0665319 0.049938 0)
  (0.110504 0.0673955 0)
  (-0.109966 0.134923 0)
  (0.687476 0.380578 0)
  (-0.0519861 0.12216 0)
  (0.0900299 -0.00558298 0)
  (0.143931 -0.0481805 0)
  (0.185095 -0.0791259 0)
  (0.2048 -0.110757 0)
  (0.205405 -0.135863 0)
  (0.189726 -0.147684 0)
  (0.162319 -0.144491 0)
  (0.128844 -0.128127 0)
  (0.0941651 -0.102163 0)
  (0.0622507 -0.0720761 0)
  (0.0358592 -0.0424961 0)
  (0.0170868 -0.0179945 0)
  (0.00605954 -0.000917056 0)
  (0.00281903 0.00819978 0)
  (0.00437265 0.0102585 0)
  (0.00545282 0.00636566 0)
  (0.00383658 0.000801974 0)
  (3.80666e-05 -0.00368996 0)
  (-0.00597664 -0.00612885 0)
  (-0.0125547 -0.00676396 0)
  (-0.0186821 -0.00620785 0)
  (-0.0235291 -0.00511846 0)
  (-0.0265546 -0.00420223 0)
  (-0.0278493 -0.00416964 0)
  (-0.0279676 -0.00500321 0)
  (-0.0273603 -0.00625928 0)
  (-0.0262598 -0.00750241 0)
  (-0.0246726 -0.00836334 0)
  (-0.0222938 -0.00844272 0)
  (-0.0183245 -0.00715912 0)
  (-0.0107684 -0.00373414 0)
  (0.000198174 0.00150098 0)
  (0.0107518 0.00670089 0)
  (0.0173242 0.00931628 0)
  (0.0263666 0.0159599 0)
  (0.0334004 0.021626 0)
  (0.109869 0.0745925 0)
  (-0.359089 0.200013 0)
  (0.813175 0.367899 0)
  (0.389936 0.255519 0)
  (0.400295 0.17691 0)
  (0.418959 0.0997112 0)
  (0.393864 0.0301391 0)
  (0.346387 -0.030767 0)
  (0.292835 -0.0730673 0)
  (0.235324 -0.0932184 0)
  (0.176056 -0.0940147 0)
  (0.119424 -0.0810532 0)
  (0.0685006 -0.0593625 0)
  (0.0264939 -0.0355388 0)
  (-0.00525411 -0.0136073 0)
  (-0.0235445 0.000599834 0)
  (-0.0318781 0.0077794 0)
  (-0.0336377 0.0106177 0)
  (-0.0329126 0.0105712 0)
  (-0.0326135 0.00819592 0)
  (-0.0341929 0.00508963 0)
  (-0.0374181 0.0025413 0)
  (-0.0416806 0.000970589 0)
  (-0.0463085 0.00016882 0)
  (-0.050561 -0.000235673 0)
  (-0.0539689 -0.000595118 0)
  (-0.0563283 -0.00122543 0)
  (-0.0578134 -0.00234209 0)
  (-0.0588132 -0.00387103 0)
  (-0.0597183 -0.00554672 0)
  (-0.0609583 -0.00710174 0)
  (-0.0630114 -0.0082123 0)
  (-0.0664392 -0.00833636 0)
  (-0.0718546 -0.00645136 0)
  (-0.0800294 -0.000869962 0)
  (-0.0902446 0.00877621 0)
  (-0.10391 0.0229382 0)
  (-0.12629 0.0428589 0)
  (-0.156503 0.0696023 0)
  (-0.195221 0.0997021 0)
  (-0.257498 0.125876 0)
  (-0.501365 0.135936 0)
  (0.139462 0.00249939 0)
  (0.201213 -0.003732 0)
  (0.216462 -0.0386289 0)
  (0.192478 -0.0567164 0)
  (0.157841 -0.0599465 0)
  (0.115873 -0.0548753 0)
  (0.0701491 -0.0442781 0)
  (0.0257447 -0.0293865 0)
  (-0.016016 -0.0100729 0)
  (-0.043508 0.00300026 0)
  (-0.0596735 0.0106929 0)
  (-0.0667101 0.014286 0)
  (-0.0688525 0.0158014 0)
  (-0.068697 0.016284 0)
  (-0.0678427 0.0160502 0)
  (-0.0675319 0.0151487 0)
  (-0.0683555 0.0140339 0)
  (-0.0701543 0.0131787 0)
  (-0.0724641 0.0127732 0)
  (-0.0748569 0.0127 0)
  (-0.0770776 0.0127825 0)
  (-0.0790387 0.0129016 0)
  (-0.0808462 0.0130046 0)
  (-0.0827505 0.0130507 0)
  (-0.0850215 0.0131466 0)
  (-0.0877754 0.0140047 0)
  (-0.0910278 0.015988 0)
  (-0.0947656 0.0191789 0)
  (-0.099082 0.0230294 0)
  (-0.103987 0.0268393 0)
  (-0.108699 0.0310868 0)
  (-0.113168 0.0373525 0)
  (-0.117043 0.047484 0)
  (-0.119795 0.0631493 0)
  (-0.119025 0.0836084 0)
  (-0.11135 0.0966195 0)
  (-0.0991915 0.0634411 0)
  (-0.146057 -0.164321 0)
  (0.0289877 0.110887 0)
  (0.0401433 0.0303929 0)
  (0.024024 -0.027478 0)
  (0.0201057 -0.0508004 0)
  (-0.0013293 -0.0531946 0)
  (-0.0276799 -0.0534767 0)
  (-0.0535788 -0.0522208 0)
  (-0.0748983 -0.0511865 0)
  (-0.0886988 -0.0519009 0)
  (-0.0950005 -0.0544195 0)
  (-0.0976654 -0.0573095 0)
  (-0.0978368 -0.0600824 0)
  (-0.0966203 -0.0622081 0)
  (-0.0946937 -0.0638477 0)
  (-0.0925629 -0.0655946 0)
  (-0.0907158 -0.0679432 0)
  (-0.0894471 -0.0708468 0)
  (-0.0887665 -0.0739629 0)
  (-0.0885201 -0.0770081 0)
  (-0.0885456 -0.0799267 0)
  (-0.08876 -0.0828134 0)
  (-0.0891764 -0.0858136 0)
  (-0.0898909 -0.0890618 0)
  (-0.0910847 -0.0925971 0)
  (-0.0930124 -0.0963657 0)
  (-0.0958037 -0.100501 0)
  (-0.0992798 -0.104597 0)
  (-0.103021 -0.107715 0)
  (-0.106465 -0.108155 0)
  (-0.10904 -0.103931 0)
  (-0.109852 -0.0941091 0)
  (-0.107243 -0.0778214 0)
  (-0.0987786 -0.055382 0)
  (-0.0817939 -0.0285237 0)
  (-0.0553087 -0.00237143 0)
  (-0.0209514 0.0071194 0)
  (0.0783364 -0.0904228 0)
  (-0.100788 -0.147307 0)
  (-0.0354695 -0.243653 0)
  (-0.294215 -0.0451642 0)
  (-0.219359 0.17367 0)
  (-0.180584 0.168315 0)
  (-0.152753 0.177041 0)
  (-0.146753 0.186465 0)
  (-0.148635 0.187211 0)
  (-0.152653 0.19159 0)
  (-0.153394 0.197943 0)
  (-0.15081 0.207198 0)
  (-0.145626 0.218206 0)
  (-0.139108 0.228163 0)
  (-0.132591 0.236215 0)
  (-0.126622 0.242292 0)
  (-0.121343 0.24671 0)
  (-0.11659 0.250209 0)
  (-0.112249 0.253561 0)
  (-0.108389 0.25718 0)
  (-0.105146 0.261009 0)
  (-0.102589 0.264772 0)
  (-0.100701 0.268259 0)
  (-0.0994278 0.271453 0)
  (-0.0987168 0.274497 0)
  (-0.0985277 0.277634 0)
  (-0.0988221 0.28113 0)
  (-0.0995239 0.285201 0)
  (-0.100472 0.290017 0)
  (-0.101466 0.295927 0)
  (-0.102273 0.3027 0)
  (-0.102587 0.309545 0)
  (-0.101938 0.314998 0)
  (-0.0995263 0.317533 0)
  (-0.0941608 0.316769 0)
  (-0.0842038 0.312689 0)
  (-0.0681298 0.306813 0)
  (-0.0461224 0.302291 0)
  (-0.0202754 0.303951 0)
  (0.0171499 0.312853 0)
  (0.113354 0.375071 0)
  (-0.260143 0.386192 0)
)
;

boundaryField
{
  floor
  {
    type noSlip;
  }
  ceiling
  {
    type noSlip;
  }
  sWall
  {
    type noSlip;
  }
  nWall
  {
    type noSlip;
  }
  sideWalls
  {
    type empty;
  }
  glass1
  {
    type noSlip;
  }
  glass2
  {
    type noSlip;
  }
  sun
  {
    type noSlip;
  }
  heatsource1
  {
    type noSlip;
  }
  heatsource2
  {
    type noSlip;
  }
  Table_master
  {
    type noSlip;
  }
  Table_slave
  {
    type noSlip;
  }
  inlet
  {
    type fixedValue;
    value uniform (0.277164 -0.114805 0);
  }
  outlet
  {
    type zeroGradient;
  }
} 	// ************************************************************************* //

