/*--------------------------------*- C++ -*----------------------------------*\
  =========                 |
  \\      /  F ield         | OpenFOAM: The Open Source CFD Toolbox
   \\    /   O peration     | Website:  https://openfoam.org
    \\  /    A nd           | Version:  6
     \\/     M anipulation  |
\*---------------------------------------------------------------------------*/
FoamFile
{
    version     2.0;
    format      ascii;
    class       volScalarField;
    location    "1800";
    object      alphat;
}
// * * * * * * * * * * * * * * * * * * * * * * * * * * * * * * * * * * * * * //

dimensions      [1 -1 -1 0 0 0 0];

internalField   nonuniform List<scalar> 
459
(
0.00116889
0.0012676
0.00128183
0.00133928
0.00139179
0.00143992
0.00148573
0.00153182
0.00157031
0.00159276
0.00159315
0.00156669
0.00151269
0.00143869
0.00135877
0.000505654
0.00061933
0.000675446
0.000656635
0.000628076
0.000596425
0.000561825
0.000528704
0.000498607
0.000471618
0.000447442
0.000425916
0.00040655
0.000388868
0.000372321
0.000356106
0.000339004
0.000331026
0.000305941
0.00162314
0.00372906
0.00348469
0.0040417
0.00455854
0.00508643
0.00558133
0.005972
0.00629951
0.0065779
0.00676052
0.00678438
0.00655217
0.00586024
0.004153
0.00137193
0.000915079
0.000591109
0.00107056
0.00139864
0.00162197
0.00172855
0.00172155
0.00146364
0.00129941
0.00117581
0.00107748
0.000996881
0.000926181
0.000862528
0.000803259
0.000747151
0.000699003
0.000652603
0.000790723
0.000422499
0.00200628
0.00511163
0.00422457
0.00544884
0.00599202
0.00638244
0.00667824
0.00690816
0.00713646
0.00738601
0.00762626
0.00780903
0.00786643
0.0077221
0.00722615
0.0058724
0.0013315
0.00114326
0.00152702
0.00183572
0.00209118
0.00225681
0.0021919
0.00078989
0.000706849
0.000639726
0.000585144
0.000540318
0.000503117
0.000471992
0.000445935
0.000424504
0.000457901
0.000524646
0.000888081
0.000498259
0.00237856
0.0066886
0.00417383
0.00578789
0.00633669
0.00649483
0.0065463
0.00661132
0.00675055
0.00697659
0.00725766
0.00755118
0.00778179
0.00789157
0.00782471
0.00735341
0.00571246
0.00151408
0.00190245
0.00237866
0.00275996
0.00302795
0.00318872
0.002998
0.000882688
0.00081746
0.000773892
0.000742493
0.000715578
0.000687308
0.000659688
0.000629594
0.000592989
0.00055901
0.000564088
0.00103501
0.000555572
0.00275819
0.00873813
0.00462317
0.00548157
0.00630433
0.00637979
0.00626447
0.00619696
0.00630423
0.00652797
0.00683275
0.00718473
0.00747973
0.00763341
0.00760088
0.0073358
0.00670013
0.00545675
0.00493479
0.00467894
0.00453636
0.00446665
0.00443727
0.00434073
0.00380086
0.00357924
0.00346628
0.00337367
0.00325707
0.00308244
0.00277373
0.00237194
0.00191131
0.00143586
0.00105708
0.00104022
0.000742752
0.00069528
0.000836041
0.000936191
0.00315813
0.0109567
0.00657552
0.0052386
0.00588252
0.00621543
0.00624054
0.00601631
0.00612674
0.00633372
0.00663716
0.0069945
0.00730766
0.00746706
0.00739991
0.00710194
0.00663643
0.00611335
0.00575694
0.00551778
0.00534134
0.00521816
0.00512224
0.0050098
0.00482728
0.00467154
0.00452949
0.00438153
0.00421686
0.00402791
0.00376211
0.00337819
0.0028758
0.00228271
0.00172646
0.00125457
0.000992542
0.00086799
0.00125516
0.000976938
0.00353217
0.0125739
0.00964713
0.00683222
0.0061437
0.00620698
0.00629708
0.00622114
0.00621529
0.0063545
0.00664764
0.0070214
0.00734677
0.00748901
0.00736299
0.00698231
0.00647826
0.00605887
0.00584034
0.00570692
0.00554814
0.00534372
0.0051127
0.0048945
0.00470979
0.00456211
0.00442726
0.00429199
0.0041547
0.00402052
0.00389103
0.00366158
0.0032725
0.00275959
0.00224598
0.0017586
0.00143453
0.00135248
0.00140983
0.00110698
0.00360905
0.0114885
0.010005
0.00893374
0.00805266
0.00752207
0.00695252
0.00650171
0.00634172
0.00648395
0.00684052
0.00726208
0.007579
0.00764548
0.00738878
0.0068625
0.00626291
0.0058682
0.00573044
0.00549988
0.00514664
0.00476937
0.00445356
0.00422977
0.00408027
0.00397166
0.00387945
0.00379733
0.00373047
0.00369002
0.00368881
0.00370613
0.00350847
0.0031585
0.00284416
0.00269715
0.00285488
0.00337745
0.00421188
0.00173752
0.00351554
0.00419709
0.00472323
0.00495825
0.0050865
0.00510935
0.00521829
0.00552527
0.00603391
0.00667074
0.00730425
0.0077816
0.00797148
0.00778654
0.00722184
0.00644701
0.00582673
0.0054313
0.00507668
0.00461278
0.00413971
0.00377301
0.0035329
0.00338489
0.00328813
0.00321338
0.00314465
0.00307496
0.00300058
0.00291814
0.00282458
0.00271947
0.00263006
0.00256512
0.00255086
0.00257834
0.00257539
0.00247525
0.00231235
0.00162363
0.00206833
0.00391934
0.00510093
0.00594484
0.00674401
0.0074519
0.00804915
0.00848017
0.00867642
0.00855784
0.00810382
0.00731519
0.00627897
0.0053253
0.00471838
0.00424453
0.00373281
0.0032597
0.00292612
0.00272639
0.00261404
0.0025499
0.00251029
0.00248265
0.00246116
0.00244377
0.00243073
0.00242428
0.00242871
0.00245522
0.00248893
0.00252881
0.00256828
0.00257873
0.00251262
0.00235387
0.00211686
0.00133313
0.00246398
0.0052896
0.00697601
0.00762913
0.0082184
0.0086695
0.00873416
0.0085842
0.00815179
0.00727016
0.00614938
0.00502971
0.00412114
0.00346125
0.00295156
0.00250231
0.00217523
0.00198458
0.00187865
0.00183096
0.00181929
0.00183057
0.00185859
0.00190056
0.00195521
0.00202149
0.0020975
0.00217925
0.00226896
0.0023708
0.00248271
0.00259844
0.00270191
0.00277436
0.00276095
0.00278989
0.002735
0.00135399
0.0022925
0.00229955
0.00235069
0.0024704
0.00232435
0.00216172
0.00201196
0.00186765
0.00174362
0.00160399
0.00143944
0.00125803
0.00106351
0.000883499
0.000741906
0.000649284
0.000599274
0.000578937
0.000577056
0.000586163
0.000602247
0.000622346
0.000645561
0.000671653
0.000700588
0.000732463
0.000767506
0.000806138
0.000849104
0.000897742
0.000952767
0.00101328
0.00108003
0.00115382
0.00123477
0.00133372
0.00136447
0.00133075
0.00124666
0.00115622
)
;

boundaryField
{
    floor
    {
        type            compressible::alphatWallFunction;
        Prt             0.85;
        value           nonuniform List<scalar> 
29
(
0.000191898
7.01084e-05
8.72663e-05
9.55896e-05
9.28093e-05
8.85693e-05
8.38428e-05
7.86401e-05
7.36224e-05
6.90289e-05
6.48799e-05
6.11379e-05
5.77844e-05
5.4749e-05
5.19611e-05
4.93374e-05
4.67515e-05
4.40077e-05
4.27214e-05
3.86509e-05
3.86504e-05
5.72493e-05
6.89743e-05
7.76942e-05
0.000191896
7.01076e-05
8.30446e-05
0.000162314
0.000212886
)
;
    }
    ceiling
    {
        type            compressible::alphatWallFunction;
        Prt             0.85;
        value           nonuniform List<scalar> 
43
(
0.000314959
0.000315753
0.000322297
0.000337689
0.000319073
0.000298171
0.000278766
0.000259916
0.000243583
0.000225038
0.000202949
0.000178261
0.000151329
0.000125893
0.000105453
9.18314e-05
8.43792e-05
8.13272e-05
8.10445e-05
8.24137e-05
8.48254e-05
8.7828e-05
9.12812e-05
9.51443e-05
9.94069e-05
0.000104078
0.000109185
0.000114783
0.000120972
0.000127932
0.000135754
0.000144294
0.000153646
0.000163908
0.000175079
0.000188622
0.000192807
0.000188217
0.000176714
0.000164244
0.000468483
0.000551366
0.000336636
)
;
    }
    sWall
    {
        type            compressible::alphatWallFunction;
        Prt             0.85;
        value           uniform 0.000313794;
    }
    nWall
    {
        type            compressible::alphatWallFunction;
        Prt             0.85;
        value           nonuniform List<scalar> 6(0.000133076 0.00013884 0.000157062 0.000188208 0.000191046 0.000163915);
    }
    sideWalls
    {
        type            empty;
    }
    glass1
    {
        type            compressible::alphatWallFunction;
        Prt             0.85;
        value           nonuniform List<scalar> 9(0.000161745 0.00022251 0.000272424 0.000320031 0.000367835 0.000417505 0.000463413 0.000472917 0.000461736);
    }
    glass2
    {
        type            compressible::alphatWallFunction;
        Prt             0.85;
        value           nonuniform List<scalar> 2(0.000240998 0.000226004);
    }
    sun
    {
        type            compressible::alphatWallFunction;
        Prt             0.85;
        value           nonuniform List<scalar> 
14
(
0.000165887
0.000179461
0.00018141
0.000189253
0.000196388
0.000202902
0.00020908
0.000215273
0.000220429
0.00022343
0.000223481
0.000219942
0.0002127
0.000202731
)
;
    }
    heatsource1
    {
        type            compressible::alphatWallFunction;
        Prt             0.85;
        value           nonuniform List<scalar> 3(9.86242e-05 0.000119091 0.000133399);
    }
    heatsource2
    {
        type            compressible::alphatWallFunction;
        Prt             0.85;
        value           nonuniform List<scalar> 4(0.000193813 0.000130397 0.000130396 0.00018831);
    }
    Table_master
    {
        type            compressible::alphatWallFunction;
        Prt             0.85;
        value           nonuniform List<scalar> 9(0.000112427 0.000100322 9.04107e-05 8.22575e-05 7.54913e-05 6.98228e-05 6.50397e-05 6.10046e-05 5.76633e-05);
    }
    Table_slave
    {
        type            compressible::alphatWallFunction;
        Prt             0.85;
        value           nonuniform List<scalar> 9(0.000125779 0.000116414 0.00011011 0.00010554 0.000101604 9.7451e-05 9.33731e-05 8.89062e-05 8.34371e-05);
    }
    inlet
    {
        type            fixedValue;
        value           uniform 1.94e-05;
    }
    outlet
    {
        type            zeroGradient;
    }
}


// ************************************************************************* //
