/*--------------------------------*- C++ -*----------------------------------*\
  =========                 |
  \\      /  F ield         | OpenFOAM: The Open Source CFD Toolbox
   \\    /   O peration     | Website:  https://openfoam.org
    \\  /    A nd           | Version:  6
     \\/     M anipulation  |
\*---------------------------------------------------------------------------*/
FoamFile
{
    version     2.0;
    format      ascii;
    class       surfaceScalarField;
    location    "1800";
    object      phi;
}
// * * * * * * * * * * * * * * * * * * * * * * * * * * * * * * * * * * * * * //

dimensions      [1 0 -1 0 0 0 0];

internalField   nonuniform List<scalar> 
852
(
-0.00289079
0.00294848
-0.00383463
0.000943859
-0.00458879
0.000754178
-0.00520932
0.000620552
-0.00566688
0.000457578
-0.00594177
0.000274908
-0.0060115
6.97536e-05
-0.00585091
-0.000160572
-0.00544501
-0.00040588
-0.00481145
-0.00063355
-0.00400333
-0.000808093
-0.00309492
-0.000908399
-0.00215216
-0.000942733
-0.00117115
-0.000980999
-0.00116958
-0.000574255
0.00057734
-0.000150113
-0.000424123
0.000453827
-0.000603922
0.000865491
-0.000411645
0.00111523
-0.000249717
0.00125789
-0.000142645
0.00132836
-7.04535e-05
0.00136064
-3.22585e-05
0.00137611
-1.54489e-05
0.00138262
-6.49525e-06
0.00138296
-3.17025e-07
0.00137791
5.07326e-06
0.00136525
1.26735e-05
0.00133685
2.84206e-05
0.00127141
6.54656e-05
0.00113407
0.000137356
0.000917125
0.000216964
0.000679161
0.000237984
0.000683355
-0.00206256
0.00516593
-0.0030147
0.00189602
-0.00380298
0.00154248
-0.00441477
0.00123236
-0.00486199
0.000904816
-0.0051379
0.000550835
-0.00521996
0.000151838
-0.00508067
-0.000299847
-0.00471033
-0.000776196
-0.00413788
-0.00120598
-0.00342659
-0.00151937
-0.00265389
-0.00168108
-0.00189957
-0.00169704
-0.00127873
-0.00160182
-0.0010969
-0.00135139
-0.000323144
-0.000773791
-0.000323176
0.000623363
-3.76955e-05
0.00096685
-0.00076759
0.00113662
-0.000773669
0.00130132
-0.000576336
0.0014205
-0.000368871
0.00148128
-0.000203413
0.00148532
-7.44681e-05
0.00148588
-3.28021e-05
0.00148738
-1.69327e-05
0.00148874
-7.83134e-06
0.00148943
-9.91789e-07
0.0014892
5.32095e-06
0.00148716
1.4733e-05
0.00147982
3.57804e-05
0.00143893
0.000106378
0.00126706
0.000309245
0.000972451
0.000511592
0.000610621
0.000599834
0.00130442
-0.00145209
0.0068542
-0.00229417
0.00273812
-0.0029978
0.00224613
-0.00352054
0.00175511
-0.00391066
0.00129496
-0.00416291
0.000803101
-0.00424435
0.000233295
-0.00410876
-0.000435416
-0.00374667
-0.00113826
-0.00320565
-0.00174699
-0.00256066
-0.00216433
-0.00188722
-0.00235451
-0.00125687
-0.00232736
-0.000741228
-0.00211744
-0.000379588
-0.00171301
-1.874e-05
-0.00113462
-0.000341897
0.00132326
-0.00135214
0.00154289
-0.000987208
0.00153771
-0.000768469
0.00155102
-0.000589623
0.00157949
-0.000397328
0.00157588
-0.000199784
0.00150158
0.00146895
0.00145219
0.00144453
0.00144371
0.00144921
0.00146411
0.00150006
0.00160662
0.00132519
0.000590686
0.000981338
0.000855468
0.000545312
0.00103588
0.00186544
-0.00102631
0.00818532
-0.00171763
0.00342945
-0.00218665
0.00271518
-0.00253557
0.00210405
-0.00280652
0.00156593
-0.00298942
0.000986015
-0.00303774
0.000281643
-0.00287283
-0.000600312
-0.00250046
-0.00151062
-0.00199943
-0.002248
-0.00145107
-0.00271268
-0.000916592
-0.00288896
-0.000440257
-0.00280368
-3.96962e-05
-0.00251799
0.000309393
-0.00206208
0.000686128
-0.00151134
0.00131728
-0.000973036
0.00205918
-0.000733474
0.00161478
-0.00090773
0.00153727
-0.000909678
0.00149531
-0.000726491
0.00146361
-0.000557908
0.00146918
-0.000402871
0.00151943
-0.000250019
0.00164567
-0.000126374
0.00175056
-0.000105026
0.00184737
-9.69533e-05
0.00193054
-8.32986e-05
0.00198265
-5.22516e-05
0.00197778
4.73325e-06
0.00188828
8.93669e-05
0.0016821
0.000206041
0.00130627
0.000375692
0.00115798
0.000738996
0.000843473
0.00116999
0.000354001
0.00152537
0.00223993
-0.000728056
0.00927613
-0.00127655
0.00397796
-0.00138747
0.00282612
-0.00148578
0.00220238
-0.001576
0.00165617
-0.00163065
0.00104069
-0.00158082
0.000231824
-0.00132989
-0.000851222
-0.000947773
-0.00189271
-0.000529737
-0.00266601
-0.000137652
-0.00310474
0.000194606
-0.0032212
0.000455825
-0.00306488
0.000654133
-0.00271628
0.000831277
-0.00223921
0.00103096
-0.001711
0.00128805
-0.00123011
0.00148204
-0.000927443
0.00141356
-0.000839237
0.00127533
-0.00077143
0.00118221
-0.000633353
0.0011219
-0.000497578
0.00110146
-0.000382417
0.00113268
-0.000281215
0.00122097
-0.000214652
0.00131205
-0.000196092
0.00140652
-0.000191403
0.00149778
-0.000174547
0.00157224
-0.000126689
0.0016083
-3.13159e-05
0.00158325
0.000114437
0.00148527
0.000304033
0.00131809
0.000542887
0.0011635
0.0008936
0.000990181
0.00134333
0.000612695
0.00190288
0.00045496
0.00239768
-0.00103409
0.00148886
-0.0014892
0.000454925
-0.0014401
-0.000641478
0.0103291
-0.00104112
0.00437762
-0.000656265
0.00244128
-0.000392025
0.00193815
-0.00024321
0.00150737
-0.000110644
0.00090814
0.000149618
-2.84215e-05
0.000527582
-0.00122917
0.000872819
-0.00223793
0.00113153
-0.0029247
0.00128808
-0.00326127
0.00135032
-0.00328343
0.0013436
-0.00305813
0.00129202
-0.00266468
0.0012295
-0.00217667
0.00118602
-0.00166751
0.00116718
-0.00121125
0.00112596
-0.000886199
0.00100196
-0.000715229
0.000838454
-0.000607901
0.000711592
-0.000506474
0.000634177
-0.000420147
0.0006068
-0.000355024
0.000631981
-0.000306379
0.000698851
-0.000281507
0.000783978
-0.000281204
0.00087912
-0.000286531
0.000980162
-0.000275574
0.00108092
-0.000227432
0.00116924
-0.000119622
0.00122321
6.04791e-05
0.0012365
0.000290765
0.00122227
0.000557129
0.0012311
0.000884784
0.00131199
0.00126245
0.00147738
0.0017375
0.0019051
0.00196998
0.00215671
0.00123728
0.00176943
0.000842222
0.00038835
-0.000743631
0.0115278
-0.000670478
0.00430448
0.000377318
0.00139351
0.000977473
0.00133802
0.00135734
0.00112752
0.00179242
0.000473075
0.00227887
-0.000514856
0.00264863
-0.00159891
0.002844
-0.00243328
0.00285487
-0.00293555
0.00270756
-0.00311394
0.00244509
-0.00302093
0.00211632
-0.00272935
0.00176414
-0.00231248
0.0014254
-0.00183791
0.00112692
-0.00136902
0.000874829
-0.000959146
0.000658747
-0.0006701
0.000451895
-0.00050836
0.000270024
-0.000426014
0.000138405
-0.000374838
6.1148e-05
-0.000342874
3.21367e-05
-0.000325997
4.59507e-05
-0.000320177
9.10877e-05
-0.000326628
0.000153436
-0.000343537
0.000226581
-0.000359661
0.000311626
-0.000360604
0.000413715
-0.000329506
0.000537933
-0.000243827
0.000673077
-7.46509e-05
0.00080411
0.000159747
0.000938409
0.000422844
0.00112054
0.000702671
0.00140108
0.000981922
0.00184635
0.00129225
0.00251448
0.00130186
0.00305607
0.000695708
0.00308837
0.000809939
0.00354072
0.00250539
0.00953089
0.00314274
0.00366716
0.00336702
0.00116924
0.00366247
0.00104259
0.00398602
0.00080399
0.00446505
-5.94629e-06
0.00491895
-0.000968738
0.00506672
-0.00174666
0.00489909
-0.00226563
0.00448252
-0.00251897
0.00389782
-0.00252921
0.00322416
-0.00234725
0.00253061
-0.00203579
0.00186633
-0.00164819
0.00126519
-0.00123675
0.000753496
-0.000857305
0.000336039
-0.000541674
2.12121e-05
-0.000355257
-0.000209613
-0.000277518
-0.000373221
-0.000262389
-0.000484408
-0.000263635
-0.000555071
-0.000272195
-0.00059492
-0.000286133
-0.000610771
-0.000304311
-0.000610547
-0.000326837
-0.000602373
-0.000351697
-0.000589518
-0.000372501
-0.000569382
-0.000380727
-0.000532496
-0.000366378
-0.000458434
-0.000317875
-0.000312754
-0.000220316
-0.000112011
-4.09827e-05
0.000118656
0.000192192
0.000399569
0.000421772
0.00074452
0.000636985
0.00119558
0.000841212
0.00167405
0.0008234
0.00185672
0.000513061
0.00108295
0.00158372
0.00488559
0.0100886
0.0137481
0.0123115
0.00260591
0.0111969
0.00215714
0.0104144
0.00158654
0.00972213
0.00068634
0.00884151
-8.80939e-05
0.00777603
-0.000681153
0.00661622
-0.0011058
0.00542931
-0.00133203
0.00426387
-0.00136375
0.00316461
-0.00124798
0.00216998
-0.00104114
0.00129643
-0.000774621
0.00054868
-0.000488991
-4.81699e-05
-0.000260439
-0.000466713
-0.000123114
-0.00072644
-9.55135e-05
-0.000895551
-0.000108391
-0.00102132
-0.000136602
-0.00112008
-0.00016486
-0.00120076
-0.000191506
-0.00127001
-0.000216866
-0.00133337
-0.000240928
-0.00139707
-0.00026313
-0.00146787
-0.000280875
-0.00155189
-0.000288474
-0.00165528
-0.000277315
-0.0017859
-0.000235744
-0.00195443
-0.000149336
-0.00217042
-4.30892e-06
-0.00241764
0.000206256
-0.00271982
0.000494387
-0.00317292
0.000874887
-0.00387794
0.00134202
-0.0048974
0.00186069
-0.00634336
0.00226938
-0.00807836
0.00224808
-0.00755167
0.00105704
-0.00237538
0.00480019
0.00389516
0.00431179
0.00264557
0.00506461
0.000833752
0.00522658
0.000524398
0.00493066
0.000207856
0.00440989
-0.000160366
0.00372552
-0.000421404
0.00293193
-0.000538428
0.00208196
-0.000513756
0.0012373
-0.000403307
0.000443315
-0.000247148
-0.000256655
-7.46368e-05
-0.000793882
4.82507e-05
-0.00113544
8.11376e-05
-0.00132664
6.80966e-05
-0.00145059
2.84532e-05
-0.00154776
-1.12058e-05
-0.00163796
-4.63844e-05
-0.00172717
-7.56388e-05
-0.00181793
-0.000100722
-0.00191266
-0.000122123
-0.00201387
-0.000139705
-0.00212421
-0.000152771
-0.00224583
-0.000159242
-0.00237923
-0.000155057
-0.00252242
-0.000134118
-0.00266967
-8.84773e-05
-0.00281057
-8.41393e-06
-0.00293131
0.00011644
-0.00302839
0.000303355
-0.00311322
0.000579233
-0.00319571
0.000957391
-0.00327635
0.00142268
-0.00330795
0.00189231
-0.00322863
0.00219007
-0.00285675
0.00187621
-0.00158302
-0.000216671
-0.00388204
-0.000586548
0.0045382
0.000618747
0.0014403
0.000793155
0.000659362
0.000906745
0.000410824
0.000903133
0.000211481
0.000705348
3.74297e-05
0.000337558
-5.36061e-05
-0.000156308
-4.45558e-05
-0.000692326
2.22707e-05
-0.00117833
8.27117e-05
-0.00155246
0.00012699
-0.0017803
0.000153224
-0.00188528
0.000153241
-0.00193366
0.000129537
-0.00196154
9.59953e-05
-0.00199292
5.9847e-05
-0.00203262
2.85076e-05
-0.00208282
3.83389e-06
-0.00214319
-1.52602e-05
-0.00221319
-3.07019e-05
-0.00229208
-4.3221e-05
-0.00237872
-5.30438e-05
-0.00247151
-5.99667e-05
-0.00256772
-6.30203e-05
-0.00266257
-6.01861e-05
-0.00274841
-4.82671e-05
-0.00281393
-2.29418e-05
-0.00284443
2.21026e-05
-0.002826
9.80296e-05
-0.00273599
0.000213358
-0.00254064
0.000383902
-0.00221358
0.000630343
-0.00174348
0.000952594
-0.00110975
0.00125859
-0.000130392
0.00121073
0.0011748
0.000571038
0.00157111
-0.000612965
-0.00222708
0.000802887
-0.0103202
-0.00573947
-0.00427625
-0.00360118
-0.00317862
-0.00295843
-0.00291474
-0.00296394
-0.00300556
-0.00298152
-0.00289795
-0.00277087
-0.00261825
-0.0024662
-0.00233832
-0.00224432
-0.00218667
-0.0021605
-0.00215908
-0.0021768
-0.00220999
-0.00225572
-0.00231128
-0.00237376
-0.00243927
-0.00250192
-0.00255262
-0.00257796
-0.00255819
-0.00246244
-0.0022513
-0.00186957
-0.00124136
-0.000290874
0.000965559
0.00217402
0.00274265
0.0021271
)
;

boundaryField
{
    floor
    {
        type            calculated;
        value           nonuniform List<scalar> 
29
(
0
0
0
0
0
0
0
0
0
0
0
0
0
0
0
0
0
0
0
0
-4.1733e-06
-1.04194e-05
-1.56931e-05
-2.04647e-05
-1.54674e-06
-3.06566e-06
-8.30885e-06
-8.7962e-06
-8.40051e-06
)
;
    }
    ceiling
    {
        type            calculated;
        value           nonuniform List<scalar> 
43
(
-2.13836e-05
-4.1156e-05
-4.25233e-05
-2.29167e-05
-1.57009e-05
-1.17233e-05
-8.70012e-06
-6.25339e-06
-4.39439e-06
-2.92129e-06
-1.75584e-06
-8.4983e-07
-7.11503e-08
6.15992e-07
1.20714e-06
1.67408e-06
2.0046e-06
2.21764e-06
2.34824e-06
2.42807e-06
2.47612e-06
2.50628e-06
2.52308e-06
2.52824e-06
2.52281e-06
2.50754e-06
2.48302e-06
2.44957e-06
2.40712e-06
2.35473e-06
2.29494e-06
2.23657e-06
2.18431e-06
2.14448e-06
2.12851e-06
2.1744e-06
2.28358e-06
2.4246e-06
2.59156e-06
3.52202e-06
1.07461e-05
7.66137e-06
-5.64855e-05
)
;
    }
    sWall
    {
        type            calculated;
        value           uniform -0.000227838;
    }
    nWall
    {
        type            calculated;
        value           nonuniform List<scalar> 6(-4.92834e-05 -5.89978e-05 -6.39877e-05 -7.63366e-05 -8.38361e-05 -0.000103485);
    }
    sideWalls
    {
        type            empty;
        value           nonuniform 0();
    }
    glass1
    {
        type            calculated;
        value           nonuniform List<scalar> 9(-5.76756e-05 -0.000154871 -0.000236157 -0.0003048 -0.000362733 -0.000411468 -0.000455068 -0.000508455 -0.00056845);
    }
    glass2
    {
        type            calculated;
        value           nonuniform List<scalar> 2(-0.000261896 -0.000290682);
    }
    sun
    {
        type            calculated;
        value           uniform 0;
    }
    heatsource1
    {
        type            calculated;
        value           nonuniform List<scalar> 3(2.04272e-07 2.04201e-07 2.04214e-07);
    }
    heatsource2
    {
        type            calculated;
        value           nonuniform List<scalar> 4(5.1085e-08 5.12299e-08 0 0);
    }
    Table_master
    {
        type            calculated;
        value           nonuniform List<scalar> 9(-1.53195e-07 -1.53255e-07 -1.53277e-07 -1.53294e-07 -1.53305e-07 -1.53312e-07 -1.53315e-07 -1.5331e-07 -1.53281e-07);
    }
    Table_slave
    {
        type            calculated;
        value           nonuniform List<scalar> 9(1.53089e-07 1.53095e-07 1.53067e-07 1.53042e-07 1.53028e-07 1.53033e-07 1.53043e-07 1.53083e-07 1.53164e-07);
    }
    inlet
    {
        type            calculated;
        value           uniform -0.00608944;
    }
    outlet
    {
        type            calculated;
        value           nonuniform List<scalar> 2(-0.000553654 0.0111643);
    }
}


// ************************************************************************* //
