// -*- C++ -*-
// File generated by PyFoam - sorry for the ugliness

FoamFile
{
 version 2.0;
 format ascii;
 class volScalarField;
 location "200";
 object T;
}

dimensions [ 0 0 0 1 0 0 0 ];

internalField nonuniform List<scalar> 459
(
  303.14
  302.846
  302.837
  302.836
  302.835
  302.834
  302.833
  302.831
  302.829
  302.827
  302.822
  302.816
  302.807
  302.798
  302.788
  302.816
  302.806
  302.802
  302.8
  302.798
  302.796
  302.795
  302.794
  302.792
  302.791
  302.79
  302.789
  302.788
  302.786
  302.785
  302.784
  302.782
  302.779
  302.789
  303.356
  302.879
  302.86
  302.866
  302.871
  302.876
  302.879
  302.882
  302.882
  302.88
  302.871
  302.856
  302.834
  302.808
  302.781
  302.765
  302.757
  302.794
  302.788
  302.785
  302.782
  302.779
  302.776
  302.772
  302.768
  302.764
  302.76
  302.756
  302.753
  302.749
  302.746
  302.744
  302.744
  302.744
  302.745
  302.77
  303.575
  302.924
  302.889
  302.904
  302.92
  302.935
  302.948
  302.958
  302.964
  302.963
  302.951
  302.926
  302.889
  302.843
  302.8
  302.772
  302.762
  302.788
  302.789
  302.789
  302.787
  302.785
  302.781
  302.774
  302.768
  302.761
  302.755
  302.749
  302.743
  302.738
  302.733
  302.73
  302.728
  302.729
  302.73
  302.76
  303.786
  302.982
  302.917
  302.938
  302.966
  302.994
  303.02
  303.041
  303.055
  303.058
  303.044
  303.008
  302.953
  302.886
  302.821
  302.776
  302.763
  302.775
  302.784
  302.795
  302.799
  302.799
  302.797
  302.795
  302.793
  302.791
  302.789
  302.788
  302.785
  302.782
  302.779
  302.775
  302.769
  302.751
  302.736
  302.728
  302.757
  303.984
  303.057
  302.946
  302.963
  302.999
  303.038
  303.076
  303.111
  303.136
  303.146
  303.132
  303.089
  303.018
  302.929
  302.841
  302.778
  302.76
  302.772
  302.791
  302.804
  302.811
  302.812
  302.812
  302.811
  302.81
  302.809
  302.808
  302.806
  302.804
  302.799
  302.793
  302.786
  302.778
  302.763
  302.745
  302.73
  302.748
  302.8
  302.828
  302.839
  304.155
  303.154
  302.994
  302.983
  303.016
  303.058
  303.102
  303.146
  303.185
  303.207
  303.199
  303.151
  303.068
  302.964
  302.857
  302.778
  302.756
  302.773
  302.798
  302.815
  302.823
  302.826
  302.827
  302.827
  302.827
  302.826
  302.825
  302.823
  302.819
  302.813
  302.805
  302.795
  302.784
  302.77
  302.752
  302.736
  302.74
  302.762
  302.771
  302.805
  304.287
  303.315
  303.137
  303.056
  303.049
  303.073
  303.109
  303.15
  303.2
  303.239
  303.233
  303.18
  303.089
  302.977
  302.86
  302.774
  302.753
  302.774
  302.807
  302.827
  302.836
  302.839
  302.841
  302.842
  302.843
  302.843
  302.842
  302.839
  302.834
  302.827
  302.816
  302.803
  302.79
  302.776
  302.76
  302.744
  302.74
  302.747
  302.754
  302.782
  304.508
  303.784
  303.577
  303.391
  303.269
  303.212
  303.198
  303.212
  303.254
  303.274
  303.246
  303.174
  303.073
  302.956
  302.837
  302.756
  302.748
  302.778
  302.818
  302.839
  302.848
  302.852
  302.855
  302.857
  302.859
  302.859
  302.858
  302.855
  302.85
  302.843
  302.833
  302.818
  302.805
  302.792
  302.78
  302.77
  302.77
  302.786
  302.81
  302.961
  304.816
  304.504
  304.235
  303.977
  303.761
  303.604
  303.503
  303.446
  303.404
  303.325
  303.224
  303.112
  302.997
  302.884
  302.777
  302.721
  302.742
  302.787
  302.833
  302.851
  302.86
  302.865
  302.869
  302.872
  302.874
  302.875
  302.876
  302.875
  302.873
  302.871
  302.87
  302.873
  302.878
  302.891
  302.913
  302.945
  302.986
  303.026
  303.05
  303.109
  298.001
  300.867
  302.206
  302.694
  302.887
  302.957
  302.961
  302.949
  302.916
  302.868
  302.811
  302.747
  302.681
  302.68
  302.751
  302.809
  302.848
  302.863
  302.872
  302.877
  302.882
  302.886
  302.89
  302.894
  302.897
  302.9
  302.903
  302.907
  302.911
  302.916
  302.924
  302.937
  302.956
  302.981
  303.008
  303.031
  303.043
  303.055
  298.483
  300.817
  301.747
  302.227
  302.469
  302.579
  302.62
  302.635
  302.639
  302.635
  302.624
  302.606
  302.588
  302.671
  302.802
  302.846
  302.866
  302.877
  302.884
  302.89
  302.895
  302.899
  302.904
  302.908
  302.913
  302.917
  302.921
  302.925
  302.93
  302.935
  302.942
  302.952
  302.966
  302.983
  303.002
  303.019
  303.01
  303.037
  299.904
  299.846
  299.842
  301.273
  301.831
  302.2
  302.351
  302.418
  302.45
  302.464
  302.478
  302.489
  302.5
  302.509
  302.529
  302.74
  302.877
  302.891
  302.898
  302.903
  302.907
  302.911
  302.915
  302.918
  302.922
  302.925
  302.928
  302.931
  302.934
  302.937
  302.94
  302.944
  302.948
  302.954
  302.961
  302.976
  302.986
  302.991
  302.991
  303.026
)
;

boundaryField
{
  floor
  {
    type wallHeatTransfer;
    Tinf uniform 305.2;
    alphaWall uniform 0.24;
    value nonuniform List<scalar> 29
(
  303.08
  303.217
  303.228
  303.242
  303.255
  303.266
  303.277
  303.289
  303.3
  303.312
  303.323
  303.334
  303.345
  303.356
  303.367
  303.379
  303.392
  303.407
  303.416
  303.452
  303.452
  303.331
  303.268
  303.228
  303.08
  303.217
  303.147
  303.115
  303.066
)
;
  }
  ceiling
  {
    type wallHeatTransfer;
    Tinf uniform 303.2;
    alphaWall uniform 0.24;
    value nonuniform List<scalar> 43
(
  300.119
  300.055
  300.045
  301.384
  301.913
  302.264
  302.409
  302.475
  302.508
  302.526
  302.542
  302.556
  302.57
  302.584
  302.608
  302.808
  302.931
  302.942
  302.948
  302.952
  302.956
  302.958
  302.96
  302.962
  302.964
  302.965
  302.967
  302.968
  302.969
  302.971
  302.972
  302.974
  302.977
  302.98
  302.986
  302.997
  303.006
  303.011
  303.012
  303.045
  304.74
  304.452
  298.757
)
;
  }
  sWall
  {
    type wallHeatTransfer;
    Tinf uniform 315.2;
    alphaWall uniform 0.36;
    value uniform 301.357;
  }
  nWall
  {
    type wallHeatTransfer;
    Tinf uniform 307.2;
    alphaWall uniform 0.36;
    value nonuniform List<scalar> 6
(
  303.628
  303.579
  303.508
  303.646
  303.625
  303.671
)
;
  }
  sideWalls
  {
    type empty;
  }
  glass1
  {
    type wallHeatTransfer;
    Tinf uniform 315.2;
    alphaWall uniform 4.3;
    value nonuniform List<scalar> 9
(
  312.1
  311.358
  310.852
  310.436
  310.086
  309.782
  309.51
  309.543
  309.744
)
;
  }
  glass2
  {
    type wallHeatTransfer;
    Tinf uniform 307.2;
    alphaWall uniform 4.3;
    value nonuniform List<scalar> 2
(
  305.553
  305.673
)
;
  }
  sun
  {
    type wallHeatTransfer;
    Tinf uniform 305.2;
    alphaWall uniform 0.24;
    value nonuniform List<scalar> 14
(
  303.42
  303.155
  303.149
  303.141
  303.134
  303.129
  303.124
  303.12
  303.115
  303.111
  303.105
  303.099
  303.093
  303.086
)
;
  }
  heatsource1
  {
    type fixedGradient;
    gradient uniform 0;
  }
  heatsource2
  {
    type fixedGradient;
    gradient uniform 0;
  }
  Table_master
  {
    type zeroGradient;
  }
  Table_slave
  {
    type zeroGradient;
  }
  inlet
  {
    type fixedValue;
    value uniform 293.15;
  }
  outlet
  {
    type zeroGradient;
  }
} 	// ************************************************************************* //

