/*--------------------------------*- C++ -*----------------------------------*\
  =========                 |
  \\      /  F ield         | OpenFOAM: The Open Source CFD Toolbox
   \\    /   O peration     | Website:  https://openfoam.org
    \\  /    A nd           | Version:  6
     \\/     M anipulation  |
\*---------------------------------------------------------------------------*/
FoamFile
{
    version     2.0;
    format      ascii;
    class       volScalarField;
    location    "200";
    object      alphat;
}
// * * * * * * * * * * * * * * * * * * * * * * * * * * * * * * * * * * * * * //

dimensions      [1 -1 -1 0 0 0 0];

internalField   nonuniform List<scalar> 
459
(
0.000873243
0.00089435
0.000806262
0.000835464
0.000868469
0.000899856
0.000929554
0.000958296
0.000987274
0.00101668
0.00104101
0.00105871
0.00106872
0.00107049
0.00105959
0.000462438
0.000508097
0.000518531
0.000414535
0.000316309
0.000280711
0.000276316
0.000270736
0.000278483
0.00030249
0.000335022
0.000369917
0.000403671
0.000434026
0.000481708
0.000543701
0.0005874
0.0005754
0.000510866
0.00151351
0.00266264
0.00185387
0.0024838
0.00269989
0.00291716
0.00314303
0.00335644
0.00352863
0.00363871
0.00368641
0.00363378
0.00341933
0.00294608
0.00212343
0.00114208
0.000790895
0.000606934
0.00140488
0.00162445
0.00161643
0.00136767
0.000796758
0.00040223
0.000355861
0.000438274
0.00061942
0.000858238
0.00111028
0.00136955
0.00159555
0.00180392
0.00202538
0.00196113
0.00194615
0.000646833
0.00206557
0.00442222
0.00196318
0.00349481
0.00401201
0.00424968
0.00445243
0.00462441
0.00475505
0.00483622
0.00486064
0.00478397
0.00453737
0.00402823
0.00319671
0.0021667
0.00122588
0.00107007
0.00295131
0.0027502
0.00240715
0.00190846
0.00138607
0.000486455
0.000355668
0.000404645
0.00045787
0.000513011
0.000573177
0.000642487
0.000728024
0.000841342
0.00198426
0.00186536
0.00148711
0.000844016
0.00257673
0.00654879
0.00223506
0.0036699
0.00470086
0.00495292
0.00511231
0.00525013
0.0053702
0.00546476
0.00555324
0.00560939
0.0055627
0.00528988
0.00463117
0.00351546
0.00221261
0.00136911
0.00329536
0.00355827
0.00325856
0.00267698
0.00205103
0.00141914
0.000914498
0.000919437
0.000928346
0.000938251
0.000949322
0.00096319
0.000983811
0.00101694
0.00107178
0.00267017
0.00361604
0.00379496
0.00129072
0.00304106
0.00876971
0.00291185
0.00334975
0.0048821
0.00518508
0.00529195
0.00537865
0.00547063
0.00557525
0.00574836
0.00601328
0.00634274
0.00667742
0.00692462
0.00698297
0.00680391
0.00644373
0.00632005
0.00598594
0.00559939
0.00524586
0.0049681
0.00475492
0.00460404
0.00456237
0.00451956
0.00446761
0.00441541
0.00438498
0.00440297
0.00448325
0.0046304
0.00485821
0.00498541
0.00488873
0.00410315
0.00174489
0.00156024
0.00136389
0.0034671
0.010675
0.00415128
0.00299495
0.00455867
0.00501848
0.00512192
0.00515229
0.00516422
0.00518974
0.00535205
0.00567046
0.00613656
0.00671769
0.00733011
0.00783993
0.00810075
0.00805073
0.0077869
0.00741868
0.00705633
0.00676298
0.00654585
0.00638267
0.00624016
0.00609473
0.00592782
0.00573679
0.00553849
0.00537066
0.00527349
0.00526062
0.00531057
0.00536969
0.00539879
0.00532808
0.0049111
0.00405164
0.00303536
0.0014492
0.00386413
0.0120012
0.00637812
0.00328167
0.00348304
0.00426358
0.00469518
0.00487267
0.00485406
0.00474159
0.00480441
0.00501503
0.00538992
0.00594253
0.00662864
0.00731751
0.00782455
0.00803233
0.00798914
0.00780911
0.00759908
0.00741963
0.00728507
0.00718271
0.0070856
0.00696909
0.00681124
0.00659329
0.0063167
0.00601599
0.00574325
0.00552115
0.00534528
0.00517695
0.00495311
0.00459266
0.00402008
0.00329424
0.00254966
0.00141072
0.00396052
0.0123812
0.00888756
0.00587506
0.00410591
0.00389148
0.00438445
0.00478576
0.0046676
0.00448517
0.00441677
0.00445993
0.00461817
0.00492174
0.00540613
0.00604729
0.00668184
0.00710059
0.0073134
0.00737965
0.00737847
0.00736907
0.0073795
0.00741588
0.00747211
0.00753454
0.00757316
0.0075399
0.00739361
0.00713363
0.00681805
0.00641517
0.00591913
0.00535647
0.00477125
0.00421297
0.0037407
0.00327414
0.0028173
0.00173198
0.00384016
0.00462692
0.0051995
0.00510456
0.00460148
0.00412032
0.00385197
0.00376825
0.00375762
0.00379123
0.00384664
0.00391361
0.00399616
0.00411634
0.00431535
0.00463469
0.00506015
0.00550207
0.00588313
0.00617581
0.0063996
0.00658846
0.00676886
0.00695907
0.00717845
0.00745052
0.0077799
0.00812853
0.00842798
0.0085807
0.00849428
0.00828673
0.00806218
0.00791301
0.00784477
0.00758096
0.00662539
0.00566436
0.00532495
0.00197505
0.00430096
0.00518605
0.0048892
0.00450467
0.00420049
0.00398809
0.00384053
0.00373854
0.0036671
0.00361323
0.00357011
0.00354014
0.00353702
0.00358546
0.00371154
0.0039242
0.00420888
0.00453669
0.00488111
0.00522471
0.00555691
0.00587383
0.00618468
0.00651851
0.00691787
0.00741612
0.00800253
0.00854663
0.00883099
0.00887734
0.00877743
0.00864292
0.00854188
0.00844205
0.00820826
0.00729978
0.00662892
0.00195347
0.00316273
0.00526548
0.0049664
0.00463831
0.00433361
0.00406952
0.00384368
0.00364742
0.00344022
0.00323482
0.00304133
0.00286765
0.00272146
0.00261211
0.00255161
0.00255378
0.00263148
0.00279217
0.00303297
0.00333719
0.00367614
0.00401894
0.00434671
0.00466434
0.00500647
0.00543474
0.00601033
0.00671157
0.00729167
0.00766634
0.00782581
0.00782052
0.00770714
0.00749663
0.00706084
0.00616565
0.00539831
0.00173796
0.00224819
0.00250283
0.00275052
0.00281924
0.00253304
0.0023375
0.00216819
0.00201926
0.00188689
0.00176803
0.00166445
0.00157106
0.00148491
0.0014045
0.00132922
0.00125913
0.00119472
0.0011368
0.00108635
0.00104435
0.00101178
0.000989321
0.000977206
0.000974932
0.000981415
0.000995583
0.0010174
0.00104892
0.00109424
0.00115654
0.00124978
0.00135828
0.0014589
0.00153325
0.00157261
0.00157377
0.00154048
0.00149821
0.00147735
0.00138007
)
;

boundaryField
{
    floor
    {
        type            compressible::alphatWallFunction;
        Prt             0.85;
        value           nonuniform List<scalar> 
29
(
0.000150585
6.33389e-05
7.0355e-05
7.19481e-05
5.58811e-05
4.02209e-05
3.43943e-05
3.3669e-05
3.27429e-05
3.4023e-05
3.79642e-05
4.32403e-05
4.88258e-05
5.41644e-05
5.89177e-05
6.63007e-05
7.57654e-05
8.2355e-05
8.05504e-05
7.07722e-05
7.07713e-05
9.12209e-05
0.000119989
0.000182527
0.000150583
6.33381e-05
8.52919e-05
0.000152012
0.000193214
)
;
    }
    ceiling
    {
        type            compressible::alphatWallFunction;
        Prt             0.85;
        value           nonuniform List<scalar> 
43
(
0.000309359
0.000341926
0.000373269
0.000381916
0.000345768
0.000320822
0.000299044
0.000279735
0.000262444
0.000246804
0.000233081
0.000220626
0.000209065
0.000198205
0.000187976
0.000178391
0.000169531
0.000161517
0.000154497
0.000148626
0.000144053
0.000140891
0.000139182
0.000138861
0.000139777
0.000141774
0.000144843
0.000149264
0.000155595
0.000164248
0.000177101
0.000191921
0.000205545
0.000215544
0.000220814
0.000220968
0.000216508
0.00021083
0.000208019
0.000194866
0.000508087
0.000602866
0.000424796
)
;
    }
    sWall
    {
        type            compressible::alphatWallFunction;
        Prt             0.85;
        value           uniform 0.000308243;
    }
    nWall
    {
        type            compressible::alphatWallFunction;
        Prt             0.85;
        value           nonuniform List<scalar> 6(0.00019227 0.000203829 0.000198629 0.000270732 0.000242414 0.000194494);
    }
    sideWalls
    {
        type            empty;
    }
    glass1
    {
        type            compressible::alphatWallFunction;
        Prt             0.85;
        value           nonuniform List<scalar> 9(0.000120508 0.000207492 0.000279413 0.000344325 0.000402226 0.000454614 0.000502876 0.000514667 0.000500374);
    }
    glass2
    {
        type            compressible::alphatWallFunction;
        Prt             0.85;
        value           nonuniform List<scalar> 2(0.000239813 0.000271587);
    }
    sun
    {
        type            compressible::alphatWallFunction;
        Prt             0.85;
        value           nonuniform List<scalar> 
14
(
0.000124254
0.000127249
0.000114604
0.000118813
0.000123549
0.000128034
0.00013226
0.000136336
0.00014043
0.00014457
0.000147984
0.000150464
0.000151862
0.000152108
)
;
    }
    heatsource1
    {
        type            compressible::alphatWallFunction;
        Prt             0.85;
        value           nonuniform List<scalar> 3(0.000243777 0.000219209 0.000192725);
    }
    heatsource2
    {
        type            compressible::alphatWallFunction;
        Prt             0.85;
        value           nonuniform List<scalar> 4(0.000162276 0.000112576 0.000112575 0.00017385);
    }
    Table_master
    {
        type            compressible::alphatWallFunction;
        Prt             0.85;
        value           nonuniform List<scalar> 9(6.72663e-05 4.67762e-05 5.45464e-05 6.28546e-05 7.13334e-05 8.04557e-05 9.08188e-05 0.000103422 0.000119849);
    }
    Table_slave
    {
        type            compressible::alphatWallFunction;
        Prt             0.85;
        value           nonuniform List<scalar> 9(0.00013032 0.000131023 0.000132289 0.000133696 0.000135266 0.000137229 0.000140143 0.000144807 0.000152491);
    }
    inlet
    {
        type            fixedValue;
        value           uniform 1.94e-05;
    }
    outlet
    {
        type            zeroGradient;
    }
}


// ************************************************************************* //
