/*--------------------------------*- C++ -*----------------------------------*\
  =========                 |
  \\      /  F ield         | OpenFOAM: The Open Source CFD Toolbox
   \\    /   O peration     | Website:  https://openfoam.org
    \\  /    A nd           | Version:  6
     \\/     M anipulation  |
\*---------------------------------------------------------------------------*/
FoamFile
{
    version     2.0;
    format      ascii;
    class       surfaceScalarField;
    location    "510";
    object      phi;
}
// * * * * * * * * * * * * * * * * * * * * * * * * * * * * * * * * * * * * * //

dimensions      [1 0 -1 0 0 0 0];

internalField   nonuniform List<scalar> 
852
(
-0.00245482
0.00249364
-0.00336223
0.000907389
-0.00409059
0.000728347
-0.00468141
0.000590808
-0.00510863
0.000427202
-0.00534949
0.000240851
-0.00537799
2.8483e-05
-0.00516508
-0.000212925
-0.00469696
-0.00046813
-0.00399863
-0.000698351
-0.00313403
-0.000864615
-0.0021922
-0.000941841
-0.00127777
-0.00091444
-0.000515082
-0.000762702
-0.000518845
0.000155583
-0.000160954
0.00017411
-1.85343e-05
0.000293418
-0.000119321
0.000432383
-0.000138983
0.0005285
-9.6137e-05
0.000584006
-5.5528e-05
0.000624183
-4.01993e-05
0.000659023
-3.48631e-05
0.000687447
-2.84464e-05
0.000708795
-2.13717e-05
0.000723103
-1.43308e-05
0.00072886
-5.78009e-06
0.000721774
7.06355e-06
0.000692817
2.89338e-05
0.000623251
6.95435e-05
0.000488496
0.000134732
0.000293699
0.000194773
-0.000148424
0.000442098
-0.000154821
-0.00180094
0.00440058
-0.00268728
0.00179372
-0.00343851
0.00147956
-0.00402625
0.00117853
-0.00445062
0.000851554
-0.00469861
0.000488834
-0.00474362
7.347e-05
-0.00455678
-0.000399774
-0.00413076
-0.000894167
-0.00350282
-0.0013263
-0.00274777
-0.00161968
-0.00196049
-0.00172913
-0.00124024
-0.00163471
-0.000660627
-0.00134233
-0.000294536
-0.00088495
4.54799e-05
-0.00034008
4.54179e-05
-0.000111499
-6.23873e-05
0.000371665
-0.00050171
0.000602901
-0.00035057
0.000736692
-0.000272788
0.000801972
-0.000161433
0.000820952
-7.45239e-05
0.000829213
-4.84781e-05
0.000839515
-4.51832e-05
0.000847328
-3.62781e-05
0.00085369
-2.77535e-05
0.000859373
-2.00322e-05
0.00086388
-1.03068e-05
0.000865617
5.30657e-06
0.000861177
3.33542e-05
0.00082689
0.00010381
0.00068415
0.00027745
0.000418841
0.00046006
0.000293852
0.000567064
0.000122016
-0.00129705
0.00586132
-0.00206164
0.00255829
-0.00273927
0.00215718
-0.00325589
0.00169514
-0.00363969
0.00123533
-0.00387753
0.000726664
-0.00393337
0.000129295
-0.00375937
-0.000573783
-0.00335165
-0.0013019
-0.00276879
-0.00190917
-0.00209428
-0.00229421
-0.0014119
-0.00241152
-0.000795223
-0.0022514
-0.000301179
-0.00183639
4.87901e-05
-0.00123493
0.000231598
-0.000522904
0.000277002
0.000568942
-0.000650978
0.000804358
-0.00073714
0.00105811
-0.00060434
0.00116637
-0.000381059
0.00117811
-0.000173193
0.00108013
2.34468e-05
0.00103179
0.00098674
0.000950598
0.00092298
0.000903083
0.000892911
0.000898353
0.000931841
0.00103578
0.000899374
0.00041384
0.000758886
0.000600528
0.000628793
0.000697135
0.000724359
-0.000932444
0.00700745
-0.00153747
0.0031633
-0.00201422
0.00263392
-0.00238092
0.00206182
-0.00266833
0.00152272
-0.00285832
0.000916647
-0.00290255
0.000173507
-0.00271512
-0.000761229
-0.00231127
-0.00170576
-0.00178326
-0.00243719
-0.00121252
-0.00286495
-0.000659155
-0.00296489
-0.00016255
-0.00274802
0.000266954
-0.00226591
0.000646083
-0.00161408
0.00104292
-0.000919758
0.00169653
-0.000376622
0.00208103
-0.000403552
0.00206632
-0.000636282
0.00188423
-0.000555062
0.001725
-0.000445133
0.00162731
-0.00028338
0.00158194
-0.000127841
0.00161352
-8.14734e-06
0.00157254
4.08065e-05
0.00152976
4.26087e-05
0.00148015
4.94449e-05
0.00142442
5.55564e-05
0.00136143
6.28164e-05
0.0012865
7.47634e-05
0.0011907
9.56264e-05
0.00105792
0.000132607
0.000857106
0.000200642
0.000886979
0.000383946
0.000913174
0.000574312
0.000964087
0.000646201
0.00165295
-0.000667506
0.00793179
-0.00112055
0.00361633
-0.00127979
0.00279314
-0.0014287
0.00221071
-0.00156119
0.0016552
-0.00164757
0.00100301
-0.00163042
0.000156343
-0.00138341
-0.00100826
-0.00099295
-0.00209623
-0.000564292
-0.00286585
-0.000151368
-0.00327788
0.000215851
-0.00333212
0.000528554
-0.00306073
0.000810926
-0.00254829
0.00109637
-0.00189954
0.0014228
-0.00124621
0.00178983
-0.000743669
0.00196377
-0.000577509
0.00184329
-0.000515813
0.00170645
-0.000418234
0.00156261
-0.000301316
0.00144985
-0.000170635
0.00137047
-4.8474e-05
0.00131559
4.67156e-05
0.00126061
9.57673e-05
0.00119474
0.000108458
0.00113106
0.00011311
0.00106919
0.000117406
0.0010075
0.000124491
0.000944306
0.000137932
0.000878178
0.000161734
0.000810552
0.000200212
0.000755556
0.000255618
0.000792109
0.000347371
0.000952535
0.000413865
0.00138644
0.000212271
0.00224854
0.000790834
0.00108238
0.00116594
-0.000333437
0.00141559
-0.000377165
-0.000577596
0.00880312
-0.000873235
0.00391196
-0.000588264
0.00250816
-0.000448674
0.00207111
-0.000387819
0.00159433
-0.000322831
0.000938006
-0.000118
-4.85071e-05
0.000223048
-0.00134932
0.000549827
-0.00242302
0.000813866
-0.00312989
0.00100207
-0.00346608
0.00112401
-0.00345406
0.00120617
-0.00314291
0.00127317
-0.00261531
0.00134909
-0.00197548
0.00144998
-0.00134712
0.00155505
-0.000848751
0.00154361
-0.000566087
0.00142911
-0.000401333
0.00128923
-0.000278368
0.00115058
-0.000162681
0.00103145
-5.15231e-05
0.000938381
4.45748e-05
0.00087117
0.000113908
0.000816828
0.000150091
0.000763531
0.000161734
0.000712814
0.000163807
0.000665308
0.000164891
0.000620836
0.000168941
0.000580064
0.000178682
0.00054531
0.000196465
0.000521731
0.000223769
0.000517771
0.000259555
0.00056108
0.00030404
0.000648261
0.000326661
0.000626076
0.000234434
0.000672223
0.000744665
0.000264858
0.00157328
-0.000406335
0.00208676
-0.000826395
-0.000689398
0.00981888
-0.000573299
0.00379584
0.000261351
0.00167349
0.000654241
0.0016782
0.000914708
0.00133384
0.00126008
0.000592614
0.00169297
-0.000481419
0.00202493
-0.00168129
0.00220428
-0.00260238
0.00223885
-0.00316445
0.00215354
-0.00338078
0.00198777
-0.0032883
0.00178487
-0.00294002
0.0015816
-0.00241206
0.00140264
-0.00179654
0.00126198
-0.00120649
0.00114894
-0.000735729
0.00101698
-0.000434143
0.000869078
-0.000253453
0.000722385
-0.000131693
0.000590324
-3.06374e-05
0.000484089
5.46925e-05
0.000410187
0.000118457
0.000362947
0.000161126
0.000328725
0.000184291
0.000298016
0.000192421
0.000268587
0.000193213
0.000241202
0.000192253
0.000217655
0.000192465
0.000200937
0.000195376
0.000195378
0.000202001
0.000206057
0.000213067
0.000236173
0.000229416
0.000285847
0.000254342
0.000323039
0.000289445
0.000221719
0.000335731
0.000125826
0.000840535
-0.000103627
0.00180271
-0.000123639
0.00210675
-0.000990915
0.00196629
0.00821695
0.00249601
0.00326611
0.00249765
0.00167184
0.00266025
0.00151558
0.00292612
0.00106795
0.00338447
0.000134244
0.00385721
-0.00095417
0.00403466
-0.00185876
0.00392521
-0.00249292
0.00360303
-0.00284227
0.00314504
-0.00292279
0.00262086
-0.00276413
0.0020909
-0.00241007
0.00160228
-0.00192346
0.00117772
-0.001372
0.000835442
-0.000864237
0.000571686
-0.000471996
0.00036738
-0.000229857
0.000202962
-8.90551e-05
6.77102e-05
3.53876e-06
-3.47278e-05
7.17802e-05
-0.000100888
0.000120831
-0.000139009
0.000156557
-0.000159499
0.000181593
-0.000171387
0.000196157
-0.000180797
0.000201807
-0.000189387
0.000201779
-0.000195759
0.000198601
-0.000196857
0.000193539
-0.000188441
0.000186936
-0.000165262
0.000178796
-0.000121466
0.000169246
-5.15998e-05
0.000159525
4.67492e-05
0.000155968
0.000158504
0.000177666
0.000232316
0.000261895
0.000418043
0.000654785
0.000745998
0.00147473
0.00155728
0.00129544
0.000312434
0.0085832
0.0118164
0.00995334
0.00353488
0.0089799
0.00248901
0.00836746
0.00168037
0.00783413
0.000667554
0.00715403
-0.000274074
0.00634972
-0.00105444
0.00546316
-0.00160634
0.00453467
-0.00191377
0.00359901
-0.00198713
0.00269317
-0.0018583
0.00186178
-0.00157871
0.00115129
-0.001213
0.000568571
-0.000789314
0.000130505
-0.0004262
-0.000170401
-0.000171116
-0.000366395
-3.38851e-05
-0.000497305
4.18326e-05
-0.000581505
8.77163e-05
-0.000629741
0.000119993
-0.000654054
0.00014512
-0.000661955
0.000164433
-0.000658887
0.0001785
-0.000649709
0.000186954
-0.000637764
0.000189836
-0.000623925
0.000187914
-0.000607157
0.000181807
-0.000585222
0.000171577
-0.000555018
0.000156706
-0.000512582
0.000136334
-0.000453013
0.000109651
-0.000370101
7.65875e-05
-0.000252507
3.83477e-05
-8.24756e-05
7.60887e-06
0.000134425
4.4969e-05
0.000504643
0.000284543
0.00112643
0.00085292
0.00175166
0.000670182
0.00178967
0.00645621
0.00335901
0.00598455
0.00296069
0.00606645
0.0015985
0.00602843
0.000705612
0.00571779
3.66103e-05
0.0051875
-0.000524126
0.00445198
-0.000870798
0.00357612
-0.00103791
0.00263413
-0.00104516
0.00169383
-0.000918027
0.000827617
-0.000712541
0.000106127
-0.000491551
-0.000419027
-0.000264197
-0.000744334
-0.000100922
-0.000927523
1.20467e-05
-0.00103052
6.90839e-05
-0.00108496
9.62517e-05
-0.00110983
0.000112558
-0.00111529
0.000125432
-0.00110665
0.00013645
-0.00108778
0.000145538
-0.00106161
0.000152296
-0.00103073
0.00015605
-0.000997215
0.000156296
-0.000962204
0.000152875
-0.000926092
0.000145667
-0.000888854
0.000134311
-0.000850268
0.000118093
-0.000810008
9.6047e-05
-0.000767676
6.72907e-05
-0.000722573
3.14584e-05
-0.000670684
-1.35682e-05
-0.000596747
-6.63545e-05
-0.000493771
-5.80328e-05
-0.00037044
0.000161186
-0.00017209
0.000654545
-8.22989e-05
0.000580365
0.00165719
0.00116679
0.00215517
0.00245231
0.00167519
0.00303726
0.00101358
0.00323536
0.000507548
0.00311445
0.000157554
0.00269739
-0.000107063
0.00214356
-0.000316991
0.0014655
-0.00035989
0.000747104
-0.000326817
8.73271e-05
-0.000258302
-0.000463692
-0.000161574
-0.000893366
-6.19187e-05
-0.00117113
1.35282e-05
-0.00133106
5.89799e-05
-0.00140452
8.54813e-05
-0.00143713
0.000101666
-0.00144772
0.000106817
-0.00144379
0.000108597
-0.00142844
0.000110057
-0.00140374
0.000111724
-0.00137148
0.000113245
-0.0013333
0.000114092
-0.00129096
0.000113676
-0.00124621
0.000111517
-0.00120066
0.000107296
-0.00115578
0.000100766
-0.00111317
9.16696e-05
-0.00107489
7.9789e-05
-0.00104411
6.52397e-05
-0.0010258
4.89544e-05
-0.00102679
3.24177e-05
-0.00105777
1.73808e-05
-0.00113313
8.9841e-06
-0.00120914
1.79529e-05
-0.00115591
0.000107922
-0.00083723
0.000335843
-0.000771064
0.000514173
0.000822002
-0.00431079
-0.00512422
-0.00301636
-0.0013888
-0.000424529
3.21911e-05
0.00013781
-2.25626e-05
-0.000393799
-0.000808335
-0.00118988
-0.00150314
-0.00172037
-0.00183923
-0.00188404
-0.00188446
-0.00185918
-0.00181824
-0.00177249
-0.00172519
-0.0016766
-0.00162645
-0.00157483
-0.0015224
-0.00147035
-0.00142042
-0.00137462
-0.00133523
-0.0013048
-0.00128607
-0.0012817
-0.00129346
-0.00132167
-0.00136506
-0.00141724
-0.00146074
-0.00141345
-0.00113597
-0.000678462
)
;

boundaryField
{
    floor
    {
        type            calculated;
        value           nonuniform List<scalar> 
29
(
0
0
0
0
0
0
0
0
0
0
0
0
0
0
0
0
0
0
0
0
6.37374e-06
1.69914e-05
2.64282e-05
3.54746e-05
3.75375e-06
5.3625e-06
1.29214e-05
1.96348e-05
1.90364e-05
)
;
    }
    ceiling
    {
        type            calculated;
        value           nonuniform List<scalar> 
43
(
5.37271e-05
4.98312e-05
4.73181e-05
4.76386e-05
4.93235e-05
5.08392e-05
5.19083e-05
5.3185e-05
5.41488e-05
5.45694e-05
5.46725e-05
5.49025e-05
5.56191e-05
5.68972e-05
5.83089e-05
5.93746e-05
6.01714e-05
6.06914e-05
6.10374e-05
6.12729e-05
6.14349e-05
6.15422e-05
6.16038e-05
6.16241e-05
6.16062e-05
6.15531e-05
6.1467e-05
6.13498e-05
6.12034e-05
6.10323e-05
6.08477e-05
6.06806e-05
6.06055e-05
6.07445e-05
6.11387e-05
6.14218e-05
6.06026e-05
5.83387e-05
5.66421e-05
6.19035e-05
4.0224e-05
3.2905e-05
3.70628e-05
)
;
    }
    sWall
    {
        type            calculated;
        value           uniform -0.000201158;
    }
    nWall
    {
        type            calculated;
        value           nonuniform List<scalar> 6(4.34985e-05 4.28703e-05 4.08553e-05 5.01555e-05 6.41015e-05 8.16101e-05);
    }
    sideWalls
    {
        type            empty;
        value           nonuniform 0();
    }
    glass1
    {
        type            calculated;
        value           nonuniform List<scalar> 9(-3.88321e-05 -0.000106008 -0.000163703 -0.000213698 -0.000256845 -0.000293749 -0.000326372 -0.000364378 -0.000406483);
    }
    glass2
    {
        type            calculated;
        value           nonuniform List<scalar> 2(0.000253905 0.000274399);
    }
    sun
    {
        type            calculated;
        value           uniform 0;
    }
    heatsource1
    {
        type            calculated;
        value           nonuniform List<scalar> 3(2.03435e-07 2.03672e-07 2.03951e-07);
    }
    heatsource2
    {
        type            calculated;
        value           nonuniform List<scalar> 4(5.10509e-08 5.1138e-08 0 0);
    }
    Table_master
    {
        type            calculated;
        value           nonuniform List<scalar> 9(-1.52967e-07 -1.53023e-07 -1.53047e-07 -1.53064e-07 -1.53076e-07 -1.53084e-07 -1.53086e-07 -1.53076e-07 -1.53044e-07);
    }
    Table_slave
    {
        type            calculated;
        value           nonuniform List<scalar> 9(1.52706e-07 1.52763e-07 1.52781e-07 1.528e-07 1.52819e-07 1.5284e-07 1.52865e-07 1.52897e-07 1.52944e-07);
    }
    inlet
    {
        type            calculated;
        value           uniform -0.00628032;
    }
    outlet
    {
        type            calculated;
        value           nonuniform List<scalar> 2(0.00445823 0.000763608);
    }
}


// ************************************************************************* //
