/*--------------------------------*- C++ -*----------------------------------*\
  =========                 |
  \\      /  F ield         | OpenFOAM: The Open Source CFD Toolbox
   \\    /   O peration     | Website:  https://openfoam.org
    \\  /    A nd           | Version:  6
     \\/     M anipulation  |
\*---------------------------------------------------------------------------*/
FoamFile
{
    version     2.0;
    format      ascii;
    class       surfaceScalarField;
    location    "100";
    object      phi;
}
// * * * * * * * * * * * * * * * * * * * * * * * * * * * * * * * * * * * * * //

dimensions      [1 0 -1 0 0 0 0];

internalField   nonuniform List<scalar> 
852
(
-0.00319766
0.00325323
-0.00451884
0.00132109
-0.00534165
0.000822732
-0.00574602
0.000404294
-0.00568178
-6.43089e-05
-0.00509984
-0.000582014
-0.00403477
-0.00106514
-0.00264028
-0.00139456
-0.00113041
-0.00150993
0.000258496
-0.00138896
0.00126211
-0.00100368
0.00184786
-0.000585808
0.00196817
-0.000120368
0.00150662
0.000461484
0.00150835
-0.00108375
0.00108543
-0.00112544
4.15066e-05
-0.000454206
-0.000671394
0.000398649
-0.000852992
0.00114995
-0.00075143
0.00172195
-0.000572118
0.00205726
-0.000335435
0.00221684
-0.000159699
0.00230808
-9.13604e-05
0.0023702
-6.224e-05
0.00241242
-4.2342e-05
0.00243948
-2.71845e-05
0.00245048
-1.11244e-05
0.0024314
1.89512e-05
0.00234429
8.69706e-05
0.00212223
0.000221914
0.00171163
0.000410437
0.00106486
0.000646587
0.00106664
-0.00228781
0.00569237
-0.00347555
0.00250875
-0.00429612
0.00164322
-0.00470951
0.000817607
-0.00466009
-0.000113812
-0.00411472
-0.00112746
-0.00314882
-0.00203111
-0.00195584
-0.00258761
-0.00074086
-0.00272498
0.000311844
-0.00244172
0.00114463
-0.00183651
0.00169205
-0.00113329
0.00197236
-0.000400729
0.00207388
0.000359906
0.00250399
0.00107817
0.00130454
0.00119933
0.00130441
-9.87525e-05
0.00118967
0.000394403
-0.000451821
0.000943706
-0.00122084
0.00141194
-0.00132135
0.00182278
-0.00116238
0.00213441
-0.00088387
0.00220867
-0.000409813
0.00222457
-0.000175704
0.00224203
-0.000108938
0.00225721
-7.75318e-05
0.00226811
-5.33531e-05
0.00227612
-3.53073e-05
0.00228117
-1.62993e-05
0.00227663
2.33659e-05
0.00221906
0.000144403
0.00197099
0.000469836
0.00152663
0.000854624
0.00089992
0.00127309
0.00197202
-0.00159593
0.00752166
-0.00256748
0.0034802
-0.00328885
0.00236451
-0.00364561
0.00117428
-0.00356194
-0.000197562
-0.00299279
-0.0016967
-0.00208091
-0.00294307
-0.00106074
-0.00360785
-0.000101949
-0.00368383
0.000693942
-0.00323766
0.00132532
-0.00246793
0.00177629
-0.00158429
0.00206349
-0.000687971
0.00223853
0.000184816
0.00230947
0.00100717
0.00179262
0.00171612
0.00309696
0.00134293
-0.000144595
0.00196138
-0.00107039
0.0021732
-0.00143277
0.00231558
-0.00146384
0.00245363
-0.00130055
0.00267775
-0.00110811
0.00226798
0.00209232
0.00198342
0.00190593
0.00185262
0.00181736
0.00180109
0.00182448
0.00196887
0.00165333
0.000785198
0.00127065
0.00123709
0.000736087
0.00180742
0.00271708
-0.00109693
0.00892283
-0.00181796
0.00420115
-0.00229223
0.0028387
-0.00249002
0.00137199
-0.00225154
-0.000436129
-0.00159776
-0.00235056
-0.000762497
-0.00377842
3.77098e-05
-0.00440813
0.000706394
-0.00435257
0.0012404
-0.00377171
0.00165998
-0.00288755
0.00196429
-0.00188863
0.00217982
-0.000903539
0.00235866
5.93749e-06
0.00255955
0.000806229
0.00288036
0.00139525
0.00427203
0.00170524
0.0036631
0.000617161
0.00369685
-0.000178415
0.00343456
-0.000808179
0.00314489
-0.00114319
0.00289572
-0.00121476
0.00269187
-0.00109681
0.00240728
-0.000823639
0.00272854
-0.000321531
0.00282667
-9.84135e-05
0.00283032
-3.92629e-06
0.00277087
5.91777e-05
0.00265471
0.000115888
0.00248128
0.000173158
0.00223954
0.000241485
0.00190059
0.000338691
0.00139814
0.000502192
0.00125857
0.000924608
0.00100397
0.00149147
0.000653448
0.00215768
0.0033828
-0.000749908
0.0100378
-0.00125403
0.00470519
-0.00133238
0.00291696
-0.00119508
0.00123461
-0.000615804
-0.00101549
0.000120949
-0.0030874
0.000767963
-0.00442551
0.00125387
-0.00489411
0.00159545
-0.00469421
0.00183179
-0.00400809
0.00198321
-0.003039
0.00207548
-0.00198092
0.0021514
-0.000979495
0.00227183
-0.000114527
0.00250379
0.000574238
0.00288897
0.00101002
0.00346596
0.00112819
0.00352906
0.000554008
0.00346999
-0.000119412
0.00324404
-0.000582299
0.00293548
-0.000834713
0.00261871
-0.00089809
0.00232936
-0.000807575
0.00209706
-0.000591476
0.00205813
-0.000282742
0.00201335
-5.37718e-05
0.00193026
7.90116e-05
0.00182789
0.000161402
0.0017147
0.000228939
0.00158765
0.000300054
0.00143945
0.00038954
0.0012632
0.000514794
0.00106966
0.000695587
0.000962406
0.00103169
0.000922157
0.0015315
0.000892995
0.00218657
0.001329
0.00294647
-0.000632922
0.00196131
-0.00115483
0.00052131
-0.00111757
-0.000606368
0.0110611
-0.000888662
0.0049874
-0.000365674
0.00239388
0.000447972
0.000420876
0.00137434
-0.00194195
0.00203412
-0.00374726
0.00238887
-0.00478035
0.00251933
-0.00502464
0.0024741
-0.00464904
0.0023245
-0.00385852
0.0021285
-0.00284301
0.00193866
-0.00179111
0.0018074
-0.000848251
0.00178355
-9.07097e-05
0.00190526
0.000452492
0.002163
0.00075223
0.00252032
0.000770826
0.00267284
0.000401434
0.00259419
-4.08327e-05
0.00238337
-0.000371552
0.00210444
-0.000555886
0.00180639
-0.000600149
0.00152517
-0.000526496
0.0012951
-0.000361553
0.00115485
-0.000142657
0.00105873
4.21778e-05
0.000977104
0.000160467
0.000904214
0.000234114
0.000838781
0.000294191
0.000780064
0.000358588
0.000728923
0.000440493
0.000690999
0.00055253
0.000678277
0.000708118
0.000749013
0.000960748
0.000946954
0.00133333
0.00127492
0.00185833
0.00181169
0.00240937
0.00205027
0.00172232
0.00161712
0.000954016
0.000546301
-0.000498214
0.0120246
-0.000154675
0.00464377
0.00143313
0.000805996
0.00278404
-0.000930122
0.00367614
-0.00283413
0.00408995
-0.00416115
0.00405546
-0.00474593
0.00369295
-0.00466218
0.00313331
-0.00408944
0.00250356
-0.0032288
0.00189497
-0.00223444
0.00138679
-0.00128294
0.0010352
-0.000496678
0.00087812
6.63381e-05
0.000922503
0.000408067
0.001111
0.000563681
0.00135084
0.00053093
0.00145874
0.000293466
0.00140187
1.59605e-05
0.00123269
-0.000202467
0.0009991
-0.000322409
0.000740681
-0.000341868
0.000492529
-0.000278502
0.000286586
-0.000155786
0.000146903
-3.16379e-06
6.57031e-05
0.000123178
2.20586e-05
0.000203905
-2.22637e-06
0.000258186
-1.1046e-05
0.000302791
-1.29036e-06
0.000348607
3.47698e-05
0.000404203
0.000109137
0.000477931
0.000236037
0.000580986
0.000451494
0.000745059
0.000786721
0.000997853
0.00126581
0.00137896
0.00197684
0.001698
0.00252037
0.00117837
0.00255074
0.000923177
0.00315305
0.00310456
0.0094421
0.00410569
0.00364256
0.00502345
-0.000111851
0.00615724
-0.00206399
0.00658737
-0.00326434
0.0063137
-0.00388755
0.00552421
-0.0039565
0.00442496
-0.00356297
0.00320797
-0.00287248
0.00204859
-0.00206944
0.00104439
-0.00123025
0.000296006
-0.000534571
-0.000146718
-5.39855e-05
-0.000301906
0.000221477
-0.000252399
0.0003585
-9.94012e-05
0.000410615
6.55545e-05
0.000365897
0.000135464
0.000223467
9.13821e-05
5.99401e-05
-4.28892e-05
-6.83157e-05
-0.00023218
-0.000133259
-0.000438442
-0.000135767
-0.000629759
-8.73664e-05
-0.000780992
-4.74998e-06
-0.000870071
8.57059e-05
-0.000903976
0.000156857
-0.000907181
0.000206873
-0.000891085
0.000241844
-0.000856563
0.000268015
-0.000798401
0.000290185
-0.00070729
0.000312827
-0.00057164
0.000342017
-0.000380921
0.000390007
-0.000116275
0.00048016
0.000250594
0.000630705
0.000781656
0.000847607
0.00150429
0.000975035
0.00190737
0.00077488
0.001109
0.00172108
0.00447384
0.0100181
0.0136544
0.0123655
0.00117703
0.01118
-0.000878553
0.00965354
-0.00173795
0.00782177
-0.00205582
0.00582622
-0.00196098
0.00384244
-0.00157922
0.00201457
-0.00104463
0.000492086
-0.000546965
-0.000601441
-0.000136742
-0.00122285
8.68049e-05
-0.00147618
0.000199291
-0.00151596
0.000261193
-0.00145296
0.000295424
-0.00134415
0.000301716
-0.00124477
0.000266416
-0.00120908
0.000187666
-0.00124661
9.73413e-05
-0.00134301
2.79434e-05
-0.00147361
-2.81823e-06
-0.00161202
2.47396e-06
-0.0017323
3.27217e-05
-0.00181233
7.50689e-05
-0.00184697
0.000120112
-0.00185129
0.000160938
-0.00184062
0.000195941
-0.00182568
0.000226639
-0.00181414
0.000256198
-0.00181448
0.000290237
-0.00184035
0.000338396
-0.00191453
0.000415911
-0.00207047
0.000545658
-0.00235113
0.000760523
-0.00282244
0.00110172
-0.0035691
0.00159394
-0.00473266
0.00213823
-0.00638114
0.00242295
-0.00644585
0.00178538
-0.00175067
0.00511038
0.00240499
0.00381656
0.000415269
0.00320282
-0.00112421
0.0022108
-0.00106379
0.000923532
-0.000673717
-0.000393877
-0.000261804
-0.00148135
4.28326e-05
-0.00219587
0.000167519
-0.00255732
0.000224668
-0.00270048
0.000229909
-0.00272549
0.000224227
-0.0026886
0.000224214
-0.00262186
0.000228591
-0.0025492
0.000228954
-0.00249674
0.000213835
-0.00248842
0.000179217
-0.00252748
0.000136259
-0.00259973
0.000100044
-0.00268245
7.97387e-05
-0.0027561
7.59418e-05
-0.00280746
8.38909e-05
-0.00283194
9.93362e-05
-0.00283147
0.000119412
-0.00281302
0.000142247
-0.0027848
0.00016747
-0.00275455
0.000196119
-0.00272934
0.000230712
-0.00271523
0.00027584
-0.00271639
0.000339254
-0.00273429
0.000433508
-0.0027675
0.00057856
-0.00281099
0.000803705
-0.0028481
0.00113851
-0.00283198
0.00157749
-0.00272484
0.00203073
-0.00239889
0.00209664
-0.00106214
0.000448311
-0.00276085
-0.000185368
0.00265989
-0.000313418
0.000543437
-0.00146129
2.37162e-05
-0.00250617
-1.88911e-05
-0.00327073
9.08425e-05
-0.00372414
0.000191582
-0.00391604
0.000234684
-0.00397468
0.000226112
-0.00395174
0.000201666
-0.00389384
0.000171937
-0.00382043
0.000150738
-0.00373862
0.000142307
-0.00365375
0.000143625
-0.00357336
0.000148455
-0.00350912
0.000149478
-0.00347257
0.000142547
-0.0034662
0.000129757
-0.00348253
0.000116233
-0.00350923
0.000106288
-0.00353519
0.000101753
-0.00355409
0.000102623
-0.00356319
0.000108257
-0.00356149
0.000117513
-0.00354839
0.000128946
-0.00352281
0.000141673
-0.00348289
0.000155959
-0.00342592
0.000173493
-0.0033479
0.000197567
-0.00324214
0.000233212
-0.00309646
0.000287545
-0.00288976
0.000371564
-0.00259069
0.000504335
-0.00216078
0.000708269
-0.00152899
0.000945361
-0.000533771
0.00103517
0.000875431
0.000687095
0.00169091
-0.000367447
-0.00101418
-0.00672793
-0.00939273
-0.00670829
-0.00616154
-0.00614229
-0.00616934
-0.00608923
-0.00591059
-0.00569081
-0.00548124
-0.00529739
-0.00514424
-0.00501307
-0.00489099
-0.00476824
-0.00464135
-0.00451422
-0.0043949
-0.0042893
-0.00419816
-0.00411784
-0.00404287
-0.00396779
-0.00388777
-0.00379919
-0.00369985
-0.0035884
-0.00346323
-0.00332097
-0.00315493
-0.00295336
-0.00269737
-0.00235707
-0.0018835
-0.00120531
-0.00028931
0.000717031
0.00137476
0.000976566
)
;

boundaryField
{
    floor
    {
        type            calculated;
        value           nonuniform List<scalar> 
29
(
0
0
0
0
0
0
0
0
0
0
0
0
0
0
0
0
0
0
0
0
-2.00842e-06
-5.71777e-06
-9.25881e-06
-1.25728e-05
-1.80099e-06
-1.88629e-06
-5.72224e-06
-8.83797e-06
-8.30367e-06
)
;
    }
    ceiling
    {
        type            calculated;
        value           nonuniform List<scalar> 
43
(
-2.62467e-05
-2.55103e-05
-2.45738e-05
-3.32396e-06
4.44651e-06
8.132e-06
1.06991e-05
1.28981e-05
1.48561e-05
1.6481e-05
1.77521e-05
1.87252e-05
1.94915e-05
2.01508e-05
2.07913e-05
2.14807e-05
2.22602e-05
2.31338e-05
2.40641e-05
2.49927e-05
2.58704e-05
2.66767e-05
2.74194e-05
2.81199e-05
2.87967e-05
2.94535e-05
3.00726e-05
3.06193e-05
3.10519e-05
3.13323e-05
3.1432e-05
3.13328e-05
3.10246e-05
3.05081e-05
2.98167e-05
2.90768e-05
2.85431e-05
2.90984e-05
3.05259e-05
3.21953e-05
8.65827e-06
6.08412e-06
-6.93774e-05
)
;
    }
    sWall
    {
        type            calculated;
        value           uniform -0.000241324;
    }
    nWall
    {
        type            calculated;
        value           nonuniform List<scalar> 6(-3.79061e-05 -4.72368e-05 -5.64893e-05 -5.2146e-05 -5.59598e-05 -6.99549e-05);
    }
    sideWalls
    {
        type            empty;
        value           nonuniform 0();
    }
    glass1
    {
        type            calculated;
        value           nonuniform List<scalar> 9(-5.56465e-05 -0.000151409 -0.000233441 -0.000304324 -0.000365167 -0.000416952 -0.000465378 -0.000522168 -0.000584694);
    }
    glass2
    {
        type            calculated;
        value           nonuniform List<scalar> 2(-0.000212276 -0.000221731);
    }
    sun
    {
        type            calculated;
        value           uniform 0;
    }
    heatsource1
    {
        type            calculated;
        value           nonuniform List<scalar> 3(2.02855e-07 2.02675e-07 2.02768e-07);
    }
    heatsource2
    {
        type            calculated;
        value           nonuniform List<scalar> 4(5.0993e-08 5.11637e-08 0 0);
    }
    Table_master
    {
        type            calculated;
        value           nonuniform List<scalar> 9(-1.52387e-07 -1.52599e-07 -1.5266e-07 -1.52695e-07 -1.52715e-07 -1.52724e-07 -1.52724e-07 -1.52706e-07 -1.52637e-07);
    }
    Table_slave
    {
        type            calculated;
        value           nonuniform List<scalar> 9(1.52119e-07 1.52157e-07 1.52139e-07 1.52122e-07 1.52126e-07 1.52151e-07 1.52197e-07 1.52269e-07 1.52377e-07);
    }
    inlet
    {
        type            calculated;
        value           uniform -0.00633834;
    }
    outlet
    {
        type            calculated;
        value           nonuniform List<scalar> 2(0.00699549 0.0026903);
    }
}


// ************************************************************************* //
