/*--------------------------------*- C++ -*----------------------------------*\
  =========                 |
  \\      /  F ield         | OpenFOAM: The Open Source CFD Toolbox
   \\    /   O peration     | Website:  https://openfoam.org
    \\  /    A nd           | Version:  6
     \\/     M anipulation  |
\*---------------------------------------------------------------------------*/
FoamFile
{
    version     2.0;
    format      ascii;
    class       volScalarField;
    location    "500";
    object      alphat;
}
// * * * * * * * * * * * * * * * * * * * * * * * * * * * * * * * * * * * * * //

dimensions      [1 -1 -1 0 0 0 0];

internalField   nonuniform List<scalar> 
459
(
0.00124885
0.0013653
0.00139039
0.00145708
0.00151876
0.00157641
0.00163278
0.00168849
0.00172824
0.00174576
0.00173515
0.00169264
0.00161809
0.00151813
0.00140892
0.000549635
0.000673866
0.000756563
0.000749736
0.000722847
0.000688296
0.000645828
0.000603998
0.000566058
0.00053235
0.000502475
0.000475904
0.000452262
0.000431008
0.000411388
0.000392416
0.00037263
0.000358337
0.00032619
0.00170215
0.00416056
0.00398417
0.00463903
0.00528049
0.00592261
0.00649188
0.00691625
0.0073002
0.00761289
0.00781
0.00784
0.00762446
0.00696889
0.00518426
0.00143428
0.000856084
0.000596849
0.00124585
0.00171327
0.00204417
0.00221653
0.00220682
0.00178324
0.00154213
0.00136896
0.00123561
0.00112928
0.00104254
0.000967326
0.000896988
0.00082861
0.000767824
0.000714757
0.000833751
0.000426128
0.00207884
0.0056825
0.00494501
0.00622113
0.00685644
0.00732546
0.00768718
0.00796921
0.00827439
0.00859384
0.00889024
0.00910776
0.00918468
0.0090344
0.0084256
0.0065135
0.00141759
0.00119655
0.00170789
0.0021761
0.00258783
0.00286262
0.00277928
0.000924292
0.000816598
0.000730113
0.000660328
0.000603464
0.000556633
0.000517762
0.000485529
0.000459382
0.000495348
0.000573252
0.000934709
0.000492368
0.00244002
0.00726567
0.00495652
0.00659501
0.00716732
0.00735941
0.00747471
0.00760871
0.00784434
0.008167
0.00853922
0.00889045
0.00915684
0.00927174
0.00914671
0.0085002
0.00630224
0.00170383
0.00211357
0.00272207
0.00329865
0.0037462
0.00401318
0.00375168
0.00104195
0.000948659
0.00088181
0.000830857
0.000787631
0.000748083
0.000710167
0.000670462
0.000624486
0.000586339
0.000599856
0.00106329
0.000543614
0.00280803
0.00929839
0.00544859
0.00634132
0.00710873
0.00716719
0.00709545
0.00715081
0.00735688
0.00768305
0.00810158
0.00851507
0.00883654
0.0089931
0.00895704
0.00867964
0.00797203
0.00658247
0.00610357
0.00593912
0.00587655
0.00583573
0.00576873
0.00554491
0.00468093
0.00426735
0.00402677
0.00384061
0.00364456
0.00336284
0.00298275
0.00252079
0.00200646
0.00148586
0.00109469
0.00109413
0.000727578
0.000670059
0.000811804
0.000910906
0.00319789
0.0115097
0.00750265
0.00629277
0.00686717
0.00712871
0.00696596
0.00701892
0.00717589
0.0074693
0.00788879
0.0083413
0.00869637
0.00884945
0.0087715
0.00851221
0.00816077
0.00779196
0.00758259
0.00743056
0.00726405
0.00707777
0.00686969
0.00660691
0.00621601
0.00586489
0.00555267
0.00525377
0.00495089
0.00462365
0.00421324
0.00370267
0.00309077
0.00241094
0.00180747
0.00135
0.00101499
0.000861691
0.00122877
0.000950014
0.00355242
0.0130547
0.0105145
0.00810363
0.00765933
0.00758417
0.00733941
0.00717531
0.00721735
0.0075
0.00796387
0.00846888
0.00884482
0.00896767
0.00881768
0.00849995
0.00821144
0.008097
0.00809931
0.0080293
0.00782538
0.00752122
0.00715094
0.00673622
0.0063003
0.00589739
0.00552957
0.00518819
0.00487349
0.00459272
0.00434553
0.00400584
0.00352834
0.00294455
0.00238175
0.00187598
0.00150369
0.00138658
0.00141236
0.00107964
0.00361892
0.0116112
0.0103176
0.00952622
0.0088466
0.00804971
0.00740886
0.00713982
0.00727485
0.00773312
0.0083553
0.00893563
0.00927721
0.0092786
0.00897647
0.00855549
0.00828122
0.00825978
0.00827479
0.00803383
0.00759472
0.00704615
0.00646444
0.00591448
0.00543688
0.00503812
0.00470136
0.00441763
0.00419011
0.00402763
0.00393873
0.00389414
0.00364953
0.00327225
0.00293873
0.00276477
0.00286318
0.00329404
0.00405395
0.00168813
0.00351924
0.00417732
0.0046434
0.00476796
0.00486273
0.00511901
0.00564325
0.00645115
0.00745297
0.0084757
0.00932971
0.00983773
0.00987689
0.00948841
0.00887722
0.00841705
0.00817469
0.00797769
0.00764346
0.00709791
0.00642162
0.0057267
0.00510345
0.00459367
0.00419333
0.00387543
0.00361428
0.0033948
0.00320749
0.00304289
0.00289096
0.0027507
0.00263919
0.00255664
0.00252508
0.0025366
0.00252433
0.00242622
0.00226964
0.00158877
0.00176915
0.00361348
0.00578204
0.00760141
0.00903193
0.0101367
0.0108461
0.0111384
0.0110494
0.0105753
0.00979398
0.00883266
0.00799385
0.00746352
0.0070499
0.00654731
0.00592698
0.00526008
0.00462881
0.00409125
0.00366975
0.00334581
0.00309298
0.00289167
0.00273078
0.00260505
0.00251215
0.0024511
0.00242414
0.00242863
0.00244871
0.00248009
0.00251416
0.0025234
0.00246302
0.00231776
0.00209929
0.00132234
0.00235468
0.00600607
0.00893396
0.0100334
0.0105949
0.0107829
0.0105595
0.00998713
0.0091807
0.00825778
0.00737105
0.0065917
0.00596295
0.00542972
0.00489431
0.00436737
0.0039021
0.00352587
0.00323586
0.0030116
0.00282784
0.00267132
0.00253681
0.00242971
0.00235099
0.00229991
0.00227495
0.00227389
0.00230288
0.0023586
0.00243702
0.00252978
0.00261832
0.00267943
0.00265998
0.00269082
0.00273648
0.00134851
0.00208665
0.00221177
0.00230006
0.00246169
0.00237489
0.00227309
0.00220789
0.00211858
0.0019914
0.00183313
0.00165444
0.00146807
0.00128686
0.00113008
0.00101085
0.000926183
0.00086649
0.000823716
0.000792851
0.000771018
0.000756441
0.000747986
0.000745072
0.000747931
0.000757048
0.000771713
0.000791979
0.000818244
0.000851166
0.000891679
0.000938686
0.000992271
0.00105304
0.00112153
0.00119725
0.00128685
0.001317
0.00128381
0.00120618
0.00112422
)
;

boundaryField
{
    floor
    {
        type            compressible::alphatWallFunction;
        Prt             0.85;
        value           nonuniform List<scalar> 
29
(
0.000198711
7.68071e-05
9.53652e-05
0.000107484
0.00010649
0.000102564
9.74923e-05
9.12165e-05
8.49853e-05
7.92876e-05
7.41858e-05
6.96303e-05
6.55501e-05
6.18954e-05
5.85892e-05
5.55186e-05
5.25316e-05
4.93964e-05
4.71184e-05
4.19506e-05
4.195e-05
5.78274e-05
6.80819e-05
7.58955e-05
0.000198709
7.68062e-05
8.39148e-05
0.000169693
0.000238212
)
;
    }
    ceiling
    {
        type            compressible::alphatWallFunction;
        Prt             0.85;
        value           nonuniform List<scalar> 
43
(
0.000288287
0.000304456
0.000315809
0.000336596
0.000325567
0.000312542
0.000304166
0.000292639
0.000276125
0.000255409
0.000231781
0.000206832
0.000182228
0.000160623
0.000143962
0.000131992
0.000123476
0.000117331
0.000112874
0.000109708
0.000107588
0.000106357
0.000105932
0.000106349
0.000107677
0.00010981
0.000112748
0.000116544
0.000121281
0.00012708
0.00013377
0.000141349
0.000149886
0.00015944
0.000169924
0.000182234
0.000186355
0.000181819
0.000171157
0.000159817
0.000468942
0.000548986
0.000322642
)
;
    }
    sWall
    {
        type            compressible::alphatWallFunction;
        Prt             0.85;
        value           uniform 0.000287078;
    }
    nWall
    {
        type            compressible::alphatWallFunction;
        Prt             0.85;
        value           nonuniform List<scalar> 6(0.000129502 0.000135051 0.00015327 0.000186758 0.000190321 0.000159496);
    }
    sideWalls
    {
        type            empty;
    }
    glass1
    {
        type            compressible::alphatWallFunction;
        Prt             0.85;
        value           nonuniform List<scalar> 9(0.000172623 0.000232915 0.000281789 0.000327844 0.000374093 0.000422445 0.000465932 0.000474169 0.000462239);
    }
    glass2
    {
        type            compressible::alphatWallFunction;
        Prt             0.85;
        value           nonuniform List<scalar> 2(0.000234583 0.000221468);
    }
    sun
    {
        type            compressible::alphatWallFunction;
        Prt             0.85;
        value           nonuniform List<scalar> 
14
(
0.000176911
0.000192799
0.000196204
0.000205224
0.000213526
0.00022125
0.000228775
0.000236181
0.000241449
0.000243767
0.000242362
0.000236729
0.000226812
0.000213437
)
;
    }
    heatsource1
    {
        type            compressible::alphatWallFunction;
        Prt             0.85;
        value           nonuniform List<scalar> 3(9.49059e-05 0.000115597 0.000129804);
    }
    heatsource2
    {
        type            compressible::alphatWallFunction;
        Prt             0.85;
        value           nonuniform List<scalar> 4(0.000202261 0.000121969 0.000121968 0.000200001);
    }
    Table_master
    {
        type            compressible::alphatWallFunction;
        Prt             0.85;
        value           nonuniform List<scalar> 9(0.000131705 0.000116286 0.000103729 9.34648e-05 8.50036e-05 7.79613e-05 7.20601e-05 6.71245e-05 6.30904e-05);
    }
    Table_slave
    {
        type            compressible::alphatWallFunction;
        Prt             0.85;
        value           nonuniform List<scalar> 9(0.000148314 0.000135167 0.000125653 0.000118344 0.000112102 0.000106354 0.00010081 9.49654e-05 8.81446e-05);
    }
    inlet
    {
        type            fixedValue;
        value           uniform 1.94e-05;
    }
    outlet
    {
        type            zeroGradient;
    }
}


// ************************************************************************* //
