/*--------------------------------*- C++ -*----------------------------------*\
  =========                 |
  \\      /  F ield         | OpenFOAM: The Open Source CFD Toolbox
   \\    /   O peration     | Website:  https://openfoam.org
    \\  /    A nd           | Version:  6
     \\/     M anipulation  |
\*---------------------------------------------------------------------------*/
FoamFile
{
    version     2.0;
    format      ascii;
    class       volScalarField;
    location    "460";
    object      nut;
}
// * * * * * * * * * * * * * * * * * * * * * * * * * * * * * * * * * * * * * //

dimensions      [0 2 -1 0 0 0 0];

internalField   nonuniform List<scalar> 
459
(
0.000724815
0.000865196
0.000984785
0.000986308
0.000959449
0.00092596
0.000892422
0.000859975
0.000829996
0.00080148
0.00077284
0.000742437
0.000708086
0.000665629
0.000616592
0.00052119
0.000666418
0.000678498
0.000665095
0.000638815
0.000607498
0.000569953
0.000533703
0.000501358
0.000472976
0.000448058
0.000426019
0.000406264
0.000388445
0.000371622
0.000354655
0.000336958
0.000310854
0.000313582
0.000931683
0.00311771
0.00271095
0.00263466
0.00257032
0.00246931
0.00237599
0.00229869
0.00219989
0.00207077
0.00191133
0.00171662
0.00148193
0.00120203
0.000903243
0.000609355
0.000544854
0.000787483
0.00244603
0.00200405
0.00203809
0.00211696
0.00205832
0.00159412
0.00135148
0.00118554
0.00106243
0.000967465
0.000892746
0.000833021
0.000770395
0.000700498
0.000635034
0.000631495
0.000599635
0.000402241
0.00102945
0.00358678
0.00256047
0.00254682
0.00265499
0.00265514
0.00266097
0.00269767
0.00271485
0.00266821
0.00253586
0.00231367
0.00201276
0.00165393
0.00127615
0.000925508
0.000556193
0.000730432
0.00215066
0.00208345
0.00235818
0.00261192
0.00249277
0.000750948
0.000663736
0.000592258
0.000533858
0.000485906
0.000446269
0.000413462
0.000387523
0.000368899
0.000415899
0.00056127
0.000743688
0.000465394
0.0010918
0.00338039
0.00210383
0.0023539
0.00274003
0.002801
0.00285986
0.00298342
0.00305947
0.0030376
0.00290658
0.00267538
0.00236412
0.00199824
0.00160735
0.0012243
0.000820469
0.000577359
0.00116734
0.0016547
0.00234053
0.00296272
0.00335016
0.00315002
0.00082192
0.000754649
0.000701285
0.000654652
0.000610733
0.000567102
0.000522026
0.000473874
0.000418643
0.000404832
0.000529156
0.000891565
0.000543117
0.00111611
0.00297707
0.00176859
0.00229987
0.00302674
0.00311458
0.00320745
0.00336469
0.00339628
0.00333365
0.003189
0.00296652
0.00268409
0.00236406
0.00203243
0.00172496
0.0014809
0.00161449
0.00223456
0.00303222
0.00372806
0.00421432
0.00447185
0.00444643
0.00380092
0.00341212
0.00302666
0.00265389
0.00228477
0.00191516
0.00154228
0.00116977
0.000798354
0.000564388
0.000573981
0.000881576
0.000768644
0.000595844
0.000636561
0.000903238
0.00113143
0.00273257
0.00152139
0.00229343
0.00334343
0.00349845
0.00364459
0.0037712
0.00373882
0.00365851
0.00353893
0.00336529
0.00316432
0.00295494
0.00277609
0.00269557
0.00280261
0.00338618
0.0041069
0.00470363
0.00511558
0.00533372
0.00538565
0.00528744
0.00499452
0.00457218
0.00407091
0.00353491
0.00298714
0.00243951
0.00189608
0.00138712
0.00100747
0.000827901
0.000815336
0.000910481
0.000892437
0.000946282
0.00138465
0.00120587
0.00115752
0.00284619
0.00125289
0.00227095
0.00360189
0.0038075
0.00389724
0.00398621
0.00396294
0.00392546
0.00388095
0.00382299
0.00376573
0.00373072
0.00377773
0.00397312
0.0043801
0.00501616
0.00552755
0.00583805
0.00596139
0.00592153
0.00576739
0.0055113
0.00513872
0.00468199
0.00416565
0.00361579
0.00306048
0.00253
0.00205962
0.00169534
0.00148138
0.00140817
0.00137926
0.00129246
0.00108732
0.00133956
0.00253021
0.00164186
0.0011481
0.00283532
0.000947987
0.00216501
0.00383617
0.00418808
0.00417803
0.00408032
0.00402912
0.00404055
0.00408016
0.00413743
0.00422301
0.00436082
0.00458606
0.00494252
0.00539996
0.00585635
0.00612032
0.00616459
0.0060272
0.00573205
0.00534427
0.00493564
0.00452435
0.00411057
0.00368918
0.00327244
0.00288917
0.00257576
0.00236553
0.00227614
0.00229085
0.00233739
0.00230202
0.00212294
0.00169636
0.00191216
0.00458343
0.00226261
0.00114798
0.00124336
0.000775763
0.0020063
0.00389614
0.00465326
0.00459398
0.00445927
0.00445761
0.00452242
0.00460849
0.00470916
0.00483385
0.00499688
0.00521049
0.00547388
0.00573842
0.00591153
0.00590496
0.0057134
0.00538293
0.00499294
0.00460589
0.00425715
0.00395827
0.00370685
0.00349952
0.00334371
0.00325429
0.00324507
0.00332019
0.00346559
0.00363897
0.00376415
0.00375095
0.00355359
0.00307927
0.00306943
0.00608018
0.00254235
0.000623638
0.00213621
0.0042264
0.00509095
0.00521385
0.00533091
0.00548347
0.00561974
0.00572668
0.00581093
0.00588276
0.00595002
0.00601476
0.00606885
0.00608894
0.00604464
0.00592231
0.00573921
0.00552685
0.00531379
0.00511841
0.0049503
0.00481391
0.00471344
0.00465493
0.00464686
0.00469771
0.00481196
0.00498485
0.00519576
0.00540122
0.00553325
0.0055059
0.005319
0.00491418
0.00473381
0.00632312
0.00215156
0.00204301
0.00581841
0.00595143
0.00580341
0.00595431
0.00620245
0.0064271
0.00658983
0.00669464
0.00675617
0.00678777
0.00679906
0.00679645
0.00678337
0.0067594
0.00672006
0.00665952
0.00657803
0.00648325
0.00638471
0.00628917
0.0062018
0.00612824
0.00607589
0.00605329
0.00606943
0.00613233
0.00624707
0.00641218
0.00661367
0.006816
0.00695234
0.00692106
0.00669953
0.00624151
0.00574265
0.00507227
0.00180555
0.00129456
0.00137131
0.00152882
0.00161911
0.00163519
0.00163145
0.0016358
0.00164303
0.00164893
0.00165284
0.00165528
0.00165696
0.00165849
0.00166026
0.00166238
0.00166444
0.0016655
0.00166447
0.00166094
0.00165542
0.00164886
0.00164215
0.00163602
0.00163103
0.00162771
0.00162659
0.00162819
0.00163295
0.00164112
0.00165252
0.00166619
0.00167987
0.00168947
0.00168947
0.00167998
0.00166311
0.00166707
0.00170575
0.00172208
0.00152737
)
;

boundaryField
{
    floor
    {
        type            nutkWallFunction;
        Cmu             0.09;
        kappa           0.41;
        E               9.8;
        value           nonuniform List<scalar> 
29
(
7.44415e-05
6.24472e-05
8.06096e-05
8.20973e-05
8.04468e-05
7.71986e-05
7.33065e-05
6.86082e-05
6.4036e-05
5.99244e-05
5.62894e-05
5.30757e-05
5.02147e-05
4.76344e-05
4.52934e-05
4.30705e-05
4.08158e-05
3.84492e-05
3.49287e-05
3.52971e-05
3.5297e-05
4.7104e-05
5.53102e-05
6.52232e-05
7.44415e-05
6.24471e-05
9.53827e-05
8.84576e-05
6.95395e-05
)
;
    }
    ceiling
    {
        type            nutkWallFunction;
        Cmu             0.09;
        kappa           0.41;
        E               9.8;
        value           nonuniform List<scalar> 
43
(
0.000154819
0.000163556
0.000181323
0.000191416
0.000193208
0.000192794
0.000193278
0.000194084
0.00019474
0.000195175
0.000195447
0.000195634
0.000195804
0.000196001
0.000196237
0.000196466
0.000196584
0.00019647
0.000196078
0.000195464
0.000194734
0.000193988
0.000193305
0.000192749
0.00019238
0.000192255
0.000192433
0.000192962
0.000193871
0.000195138
0.000196657
0.000198175
0.000199241
0.00019924
0.000198186
0.000196311
0.000196751
0.000201042
0.000202852
0.000181162
0.000137955
0.000148926
0.000238026
)
;
    }
    sWall
    {
        type            nutkWallFunction;
        Cmu             0.09;
        kappa           0.41;
        E               9.8;
        value           uniform 0.000154822;
    }
    nWall
    {
        type            nutkWallFunction;
        Cmu             0.09;
        kappa           0.41;
        E               9.8;
        value           nonuniform List<scalar> 6(0.000109263 0.000144651 0.000193947 0.000249803 0.000212067 0.000181162);
    }
    sideWalls
    {
        type            empty;
    }
    glass1
    {
        type            nutkWallFunction;
        Cmu             0.09;
        kappa           0.41;
        E               9.8;
        value           nonuniform List<scalar> 9(8.77816e-05 0.00011264 0.000124154 0.000131434 0.00013426 0.000136037 0.000139059 0.000137966 0.000137954);
    }
    glass2
    {
        type            nutkWallFunction;
        Cmu             0.09;
        kappa           0.41;
        E               9.8;
        value           nonuniform List<scalar> 2(0.0002617 0.000291579);
    }
    sun
    {
        type            nutkWallFunction;
        Cmu             0.09;
        kappa           0.41;
        E               9.8;
        value           nonuniform List<scalar> 
14
(
8.77816e-05
0.000104734
0.000118912
0.00011909
0.000115922
0.000111958
0.000107972
0.000104099
0.000100506
9.70739e-05
9.36124e-05
8.99213e-05
8.57294e-05
8.05145e-05
)
;
    }
    heatsource1
    {
        type            nutkWallFunction;
        Cmu             0.09;
        kappa           0.41;
        E               9.8;
        value           nonuniform List<scalar> 3(7.18434e-05 7.69123e-05 0.000109266);
    }
    heatsource2
    {
        type            nutkWallFunction;
        Cmu             0.09;
        kappa           0.41;
        E               9.8;
        value           nonuniform List<scalar> 4(7.35361e-05 6.54436e-05 6.54435e-05 6.68739e-05);
    }
    Table_master
    {
        type            nutkWallFunction;
        Cmu             0.09;
        kappa           0.41;
        E               9.8;
        value           nonuniform List<scalar> 9(9.09554e-05 8.02764e-05 7.13982e-05 6.40478e-05 5.79384e-05 5.28317e-05 4.85619e-05 4.51555e-05 4.26919e-05);
    }
    Table_slave
    {
        type            nutkWallFunction;
        Cmu             0.09;
        kappa           0.41;
        E               9.8;
        value           nonuniform List<scalar> 9(9.95373e-05 9.14051e-05 8.48931e-05 7.91539e-05 7.37036e-05 6.82417e-05 6.25446e-05 5.6391e-05 4.92354e-05);
    }
    inlet
    {
        type            calculated;
        value           uniform 0.000100623;
    }
    outlet
    {
        type            calculated;
        value           nonuniform List<scalar> 2(0.00129456 0.00137131);
    }
}


// ************************************************************************* //
