/*--------------------------------*- C++ -*----------------------------------*\
  =========                 |
  \\      /  F ield         | OpenFOAM: The Open Source CFD Toolbox
   \\    /   O peration     | Website:  https://openfoam.org
    \\  /    A nd           | Version:  6
     \\/     M anipulation  |
\*---------------------------------------------------------------------------*/
FoamFile
{
    version     2.0;
    format      ascii;
    class       volScalarField;
    location    "500";
    object      alphat;
}
// * * * * * * * * * * * * * * * * * * * * * * * * * * * * * * * * * * * * * //

dimensions      [1 -1 -1 0 0 0 0];

internalField   nonuniform List<scalar> 
459
(
0.00123746
0.00135111
0.0013742
0.00143939
0.00149954
0.00155551
0.00160989
0.00166495
0.00170501
0.00172403
0.00171599
0.00167681
0.00160647
0.00151212
0.00141027
0.000541677
0.000665163
0.000743043
0.000732755
0.000704788
0.00067022
0.000629046
0.000588805
0.000552302
0.000519813
0.000490961
0.000465248
0.000442387
0.000421783
0.000402728
0.000384274
0.000365017
0.000352219
0.000321742
0.00169187
0.0040992
0.00390948
0.00454866
0.00517106
0.00579718
0.00636052
0.00677452
0.00715266
0.00746451
0.0076641
0.00769508
0.00747385
0.00679847
0.00498969
0.00143132
0.00087566
0.00059364
0.00121239
0.00165162
0.0019576
0.00211249
0.00210128
0.00171692
0.00149157
0.00132796
0.0012011
0.00109938
0.00101603
0.000942619
0.000874338
0.0008087
0.000750916
0.000699883
0.000825368
0.000426089
0.00207042
0.00560321
0.00483728
0.0061069
0.0067322
0.00719412
0.00755169
0.00782386
0.00812024
0.00843273
0.0087256
0.00894009
0.00901391
0.00886713
0.00827921
0.00646781
0.00139134
0.00119939
0.00168381
0.00211535
0.00248812
0.0027327
0.00264998
0.000899734
0.000796628
0.000713818
0.000646934
0.000592361
0.000547349
0.000509926
0.00047881
0.000453452
0.000488095
0.000562608
0.000925045
0.000495007
0.00243412
0.00719138
0.00484155
0.00647633
0.00705308
0.0072464
0.00735633
0.00747979
0.00770368
0.00801353
0.0083791
0.00872409
0.00898621
0.00910993
0.00899526
0.00839638
0.00642056
0.00168698
0.00209241
0.00267495
0.00320593
0.00360463
0.00383596
0.00358386
0.00101318
0.000924901
0.000862242
0.00081487
0.000774686
0.000737188
0.000701217
0.000663372
0.000619227
0.00058138
0.000592492
0.00105717
0.000547878
0.00280474
0.00923327
0.00533487
0.00621226
0.00699692
0.00706402
0.00699194
0.00702738
0.00722473
0.00753302
0.00794476
0.00835277
0.00867518
0.00883629
0.00880376
0.00853092
0.00784366
0.00643277
0.00592714
0.00572626
0.00562546
0.00555512
0.00547514
0.00526602
0.00447414
0.00410103
0.00388708
0.00372084
0.00354213
0.0032825
0.00292024
0.00247417
0.00197521
0.00146857
0.00108325
0.00108018
0.000732297
0.000677364
0.000818678
0.000918128
0.00319699
0.0114504
0.00738454
0.00614025
0.00671954
0.00699451
0.00684781
0.00689465
0.00704915
0.00732842
0.00773017
0.00817295
0.00853013
0.00869242
0.00861964
0.0083499
0.00796744
0.00754624
0.00728075
0.00707998
0.00687856
0.00667582
0.00647085
0.0062308
0.00588362
0.00557525
0.00530033
0.00503478
0.0047635
0.00447139
0.00409365
0.00361232
0.00302676
0.00236979
0.0017811
0.00132356
0.00100929
0.000864226
0.00123637
0.000957674
0.00355489
0.0130075
0.0104064
0.00793054
0.00745177
0.00743422
0.00723435
0.00708004
0.00710523
0.00735755
0.00779219
0.00828205
0.00866149
0.00879763
0.00865389
0.00831517
0.00796613
0.00776502
0.00769068
0.00757054
0.0073409
0.00703273
0.00667807
0.00629792
0.00591229
0.00556316
0.00524609
0.00495128
0.00467859
0.00443462
0.00421844
0.00390807
0.00345388
0.0028893
0.00234067
0.00184212
0.00148413
0.00137673
0.00141129
0.00108749
0.00362278
0.0116141
0.010292
0.00946633
0.00884333
0.00808471
0.00741681
0.00709199
0.00716323
0.00756381
0.0081452
0.00871199
0.00906714
0.00908887
0.0087898
0.00832666
0.00795888
0.00783239
0.0077807
0.00750611
0.00705605
0.00652175
0.00598038
0.0054915
0.00508323
0.00475043
0.00447225
0.00423916
0.00405392
0.00392494
0.00386094
0.00383454
0.00360481
0.00323768
0.00291099
0.0027448
0.0028585
0.00331233
0.00409062
0.00170129
0.00352337
0.00418541
0.00466264
0.00481205
0.00489028
0.00509834
0.00555322
0.0062842
0.00721992
0.0081996
0.00903881
0.0095698
0.00965952
0.00930096
0.00866751
0.0080896
0.00775965
0.00749932
0.00712883
0.00656923
0.00590355
0.00525093
0.00469498
0.00426186
0.00393377
0.00367819
0.00346912
0.00329211
0.00313818
0.0029989
0.00286571
0.00273743
0.00263396
0.00255748
0.00253073
0.00254578
0.00253508
0.00243616
0.00227841
0.00159802
0.00181839
0.00366929
0.00564548
0.0073307
0.00868165
0.00975998
0.0104864
0.0108185
0.0107774
0.0103793
0.00962757
0.00865185
0.00771816
0.00707707
0.00662082
0.00610883
0.00548885
0.00483075
0.00422596
0.00373844
0.0033751
0.00310867
0.00290946
0.00275599
0.00263615
0.00254408
0.00247716
0.00243467
0.00241914
0.00243188
0.00245714
0.00249169
0.00252753
0.00253717
0.0024756
0.002328
0.00210614
0.00132514
0.00238035
0.00591038
0.0087547
0.00981638
0.0103762
0.010596
0.0104185
0.00988304
0.00908886
0.00815227
0.00720938
0.00637094
0.00568613
0.00512475
0.00457771
0.00403724
0.00356473
0.00319401
0.00292112
0.00271713
0.00255741
0.00242868
0.00233254
0.00226538
0.00222442
0.00220776
0.00221313
0.00223663
0.00228427
0.00235443
0.00244359
0.00254385
0.00263731
0.00270223
0.00268456
0.00271611
0.00273734
0.0013497
0.00209963
0.00222493
0.00231393
0.00247005
0.00237608
0.00226295
0.00218813
0.00209589
0.00196939
0.00181202
0.00163272
0.00144346
0.00125768
0.00109202
0.000962558
0.000870514
0.000807234
0.000764041
0.000735227
0.000717309
0.000708033
0.000705779
0.000709847
0.000720178
0.000735397
0.000755393
0.000780345
0.000810604
0.000846816
0.000890181
0.000939961
0.000995934
0.00105877
0.0011291
0.00120657
0.00129906
0.00132899
0.00129546
0.00121628
0.00113196
)
;

boundaryField
{
    floor
    {
        type            compressible::alphatWallFunction;
        Prt             0.85;
        value           nonuniform List<scalar> 
29
(
0.000198891
7.55993e-05
9.40773e-05
0.000105512
0.00010401
9.99144e-05
9.48246e-05
8.87202e-05
8.27066e-05
7.72078e-05
7.22755e-05
6.7863e-05
6.39033e-05
6.03593e-05
5.71452e-05
5.41549e-05
5.12414e-05
4.81818e-05
4.61371e-05
4.12278e-05
4.12272e-05
5.78185e-05
6.84837e-05
7.65384e-05
0.000198889
7.55984e-05
8.34315e-05
0.000170081
0.000235975
)
;
    }
    ceiling
    {
        type            compressible::alphatWallFunction;
        Prt             0.85;
        value           nonuniform List<scalar> 
43
(
0.000289968
0.00030615
0.000317588
0.000337657
0.000325716
0.000311235
0.000301613
0.000289695
0.00027325
0.000252628
0.000228886
0.000203507
0.000178227
0.000155325
0.000137146
0.000124049
0.00011495
0.00010869
0.000104491
0.00010187
0.00010051
0.000100179
0.000100776
0.000102291
0.000104517
0.000107433
0.000111059
0.000115438
0.000120653
0.000126863
0.000133948
0.000141862
0.000150685
0.000160488
0.000171206
0.000183901
0.000187986
0.00018341
0.000172545
0.000160889
0.000469447
0.00054996
0.000325932
)
;
    }
    sWall
    {
        type            compressible::alphatWallFunction;
        Prt             0.85;
        value           uniform 0.000288757;
    }
    nWall
    {
        type            compressible::alphatWallFunction;
        Prt             0.85;
        value           nonuniform List<scalar> 6(0.000130525 0.000136131 0.00015436 0.000187135 0.000190478 0.000160566);
    }
    sideWalls
    {
        type            empty;
    }
    glass1
    {
        type            compressible::alphatWallFunction;
        Prt             0.85;
        value           nonuniform List<scalar> 9(0.000171072 0.000231558 0.000280696 0.000327086 0.00037367 0.00042232 0.000466217 0.000474622 0.000462727);
    }
    glass2
    {
        type            compressible::alphatWallFunction;
        Prt             0.85;
        value           nonuniform List<scalar> 2(0.000236296 0.000222674);
    }
    sun
    {
        type            compressible::alphatWallFunction;
        Prt             0.85;
        value           nonuniform List<scalar> 
14
(
0.000175344
0.000190868
0.000194005
0.000202834
0.000210942
0.000218452
0.00022572
0.000233052
0.000238371
0.000240889
0.000239824
0.000234626
0.000225261
0.000212628
)
;
    }
    heatsource1
    {
        type            compressible::alphatWallFunction;
        Prt             0.85;
        value           nonuniform List<scalar> 3(9.59844e-05 0.000116589 0.000130832);
    }
    heatsource2
    {
        type            compressible::alphatWallFunction;
        Prt             0.85;
        value           nonuniform List<scalar> 4(0.000201861 0.000124773 0.000124772 0.000196446);
    }
    Table_master
    {
        type            compressible::alphatWallFunction;
        Prt             0.85;
        value           nonuniform List<scalar> 9(0.000128209 0.000113401 0.000101343 9.14801e-05 8.33403e-05 7.65566e-05 7.08638e-05 6.60905e-05 6.21714e-05);
    }
    Table_slave
    {
        type            compressible::alphatWallFunction;
        Prt             0.85;
        value           nonuniform List<scalar> 9(0.000144275 0.000131795 0.000122852 0.00011604 0.000110224 0.000104765 9.94961e-05 9.39174e-05 8.73606e-05);
    }
    inlet
    {
        type            fixedValue;
        value           uniform 1.94e-05;
    }
    outlet
    {
        type            zeroGradient;
    }
}


// ************************************************************************* //
