/*--------------------------------*- C++ -*----------------------------------*\
  =========                 |
  \\      /  F ield         | OpenFOAM: The Open Source CFD Toolbox
   \\    /   O peration     | Website:  https://openfoam.org
    \\  /    A nd           | Version:  6
     \\/     M anipulation  |
\*---------------------------------------------------------------------------*/
FoamFile
{
    version     2.0;
    format      ascii;
    class       volScalarField;
    location    "170";
    object      epsilon;
}
// * * * * * * * * * * * * * * * * * * * * * * * * * * * * * * * * * * * * * //

dimensions      [0 2 -3 0 0 0 0];

internalField   nonuniform List<scalar> 
459
(
0.0029188
0.00420346
0.00395691
0.00324776
0.00257406
0.0020478
0.00165377
0.00134773
0.00110383
0.000905127
0.000739705
0.000598601
0.000474455
0.000359739
0.000257978
0.000112623
0.000226381
0.000182635
0.000141309
0.000109903
8.53555e-05
6.63972e-05
5.25061e-05
4.22188e-05
3.45038e-05
2.8649e-05
2.41477e-05
2.06071e-05
1.77359e-05
1.53053e-05
1.31316e-05
1.17416e-05
1.31723e-05
3.21555e-05
0.00475862
0.0101185
0.00566635
0.00356476
0.00244245
0.00179052
0.00137359
0.00108496
0.00087175
0.000705952
0.000571439
0.000458614
0.00036239
0.000279355
0.000215214
0.000226505
0.000142694
0.000266049
0.000593374
0.000244739
0.000148917
0.000104822
7.81377e-05
6.33763e-05
4.99588e-05
3.91706e-05
3.09357e-05
2.47357e-05
2.00544e-05
1.64829e-05
1.37423e-05
1.18252e-05
1.09863e-05
2.05493e-05
5.97921e-05
7.18746e-05
0.00561813
0.0139507
0.00601611
0.00313527
0.00190973
0.00132344
0.00100262
0.000800348
0.000655112
0.000539773
0.000442078
0.000357108
0.000283996
0.000222514
0.000177043
0.000154771
0.00014622
0.000236123
0.000336386
0.000188663
0.00013516
0.000104447
8.6355e-05
0.000151468
9.7351e-05
6.65931e-05
4.7992e-05
3.61182e-05
2.82024e-05
2.27866e-05
1.9084e-05
1.67477e-05
1.28111e-05
2.25387e-05
0.000111176
0.00011522
0.00551542
0.0128912
0.00447281
0.00181029
0.000970492
0.00069181
0.000580707
0.000507513
0.000442721
0.000380378
0.000320439
0.000264679
0.000215283
0.000174176
0.000144522
0.00012431
0.000128333
0.000159372
0.000221915
0.000175458
0.000143994
0.00011887
9.83568e-05
8.87925e-05
0.00020875
0.000154292
0.000117535
9.07901e-05
7.01786e-05
5.35648e-05
3.9702e-05
2.78882e-05
1.73394e-05
1.14763e-05
2.43457e-05
0.000220142
0.000181459
0.0052181
0.00935034
0.00246868
0.000689917
0.000384524
0.000339686
0.000329384
0.000313187
0.000288819
0.000258803
0.000226373
0.000194247
0.000164539
0.000141988
0.000127595
0.000118626
0.000130023
0.000147547
0.000154675
0.000155338
0.000142531
0.000122158
0.000101898
8.88199e-05
9.11242e-05
8.50849e-05
7.55204e-05
6.46759e-05
5.36612e-05
4.29298e-05
3.26087e-05
2.32619e-05
1.39603e-05
1.30276e-05
2.47038e-05
0.000138775
0.000191451
0.000198308
0.000274958
0.000717405
0.00468191
0.00661697
0.00154172
0.000398964
0.000219413
0.000203288
0.000205592
0.000203687
0.000196101
0.000184518
0.000171126
0.000157972
0.000146923
0.000140711
0.000141448
0.000149159
0.000172475
0.000196451
0.000201921
0.000190914
0.000167955
0.000139153
0.000112884
9.49327e-05
8.49504e-05
7.61266e-05
6.63765e-05
5.61153e-05
4.59801e-05
3.63573e-05
2.74563e-05
2.11828e-05
1.82257e-05
2.40713e-05
3.94773e-05
6.95526e-05
0.000135479
0.000290998
0.00118439
0.00180328
0.00397475
0.00487125
0.00118154
0.000409782
0.000205409
0.000177874
0.000176651
0.000178181
0.000179104
0.000179529
0.000180136
0.000181604
0.000184368
0.000189743
0.00020039
0.000217024
0.000240478
0.000261313
0.000260105
0.000237514
0.000200554
0.000160584
0.000127638
0.000106569
9.25874e-05
8.09449e-05
6.99041e-05
5.96208e-05
5.06635e-05
4.37143e-05
3.98125e-05
4.10388e-05
4.99214e-05
6.88648e-05
9.3642e-05
0.000135352
0.000248257
0.000932726
0.00390073
0.00432526
0.00314687
0.00356601
0.00132122
0.000860696
0.00036893
0.000287939
0.000281087
0.000288274
0.00029958
0.000313805
0.000330492
0.000348919
0.000363464
0.000371307
0.000375083
0.000380005
0.000388884
0.00039279
0.000374179
0.000332167
0.000279362
0.000232408
0.000198783
0.000173091
0.000153651
0.000137916
0.000124944
0.000115072
0.000109297
0.000109102
0.00011664
0.000134923
0.000166955
0.000212281
0.000268103
0.000331398
0.000499074
0.00187844
0.0133002
0.0106133
0.00205427
0.00207961
0.0019978
0.00219587
0.00100337
0.000755924
0.000738479
0.000760698
0.000792628
0.000835704
0.00089022
0.000921579
0.000929949
0.000919631
0.000896783
0.000868811
0.000837449
0.000800898
0.000750888
0.000682501
0.000606288
0.000550027
0.000503481
0.000465421
0.000434418
0.000409623
0.000391334
0.000380975
0.000380908
0.000394384
0.000425463
0.000478286
0.000554718
0.000652303
0.000785999
0.000900727
0.00109758
0.00295522
0.0171721
0.014066
0.00271955
0.00378211
0.00267901
0.00235071
0.00235303
0.0023909
0.00242786
0.00249061
0.00251054
0.00249494
0.00245067
0.00238501
0.00231255
0.00224943
0.00218612
0.00211822
0.00204187
0.00194549
0.00182491
0.00173445
0.00165693
0.00159103
0.00153494
0.00148882
0.00145485
0.00143704
0.00144128
0.00147536
0.00154821
0.0016664
0.0018259
0.00200938
0.00216395
0.00230925
0.00255606
0.00396217
0.0117589
0.00799762
0.00726353
0.00945711
0.00816452
0.00722347
0.00707452
0.00709585
0.00711026
0.00706188
0.0069494
0.00678755
0.00658773
0.00637047
0.0061703
0.00604923
0.00597498
0.00591854
0.00585725
0.0057476
0.00554557
0.00533424
0.00516146
0.00501856
0.00489664
0.004794
0.00471446
0.00466612
0.00466194
0.00472118
0.00486907
0.00512811
0.00548551
0.00582088
0.00591608
0.00595142
0.00598767
0.00614352
0.00652409
0.00455686
0.000709843
0.000405955
0.00144663
0.00377921
0.00439822
0.00431822
0.00415482
0.00405576
0.0039794
0.00389353
0.00378345
0.00365219
0.00351164
0.00338123
0.00328715
0.00326644
0.0032781
0.00328915
0.00328372
0.00325146
0.00321548
0.00317727
0.00313941
0.00310555
0.00307714
0.00305555
0.00304273
0.00304136
0.00305469
0.00308594
0.00313639
0.00320058
0.00325772
0.00327446
0.00328007
0.00327777
0.00331787
0.00354504
0.00361476
0.00260205
)
;

boundaryField
{
    floor
    {
        Cmu             0.09;
        kappa           0.41;
        E               9.8;
        type            epsilonWallFunction;
        value           nonuniform List<scalar> 
29
(
0.000257978
0.000112623
0.000226381
0.000182635
0.000141309
0.000109903
8.53555e-05
6.63972e-05
5.25061e-05
4.22188e-05
3.45038e-05
2.8649e-05
2.41477e-05
2.06071e-05
1.77359e-05
1.53053e-05
1.31316e-05
1.17416e-05
1.31723e-05
3.21555e-05
3.21555e-05
7.18746e-05
0.00011522
0.000181459
0.000257978
0.000112623
0.000266049
0.000236123
0.000159372
)
;
    }
    ceiling
    {
        Cmu             0.09;
        kappa           0.41;
        E               9.8;
        type            epsilonWallFunction;
        value           nonuniform List<scalar> 
43
(
0.000709843
0.000405955
0.00144663
0.00377921
0.00439822
0.00431822
0.00415482
0.00405576
0.0039794
0.00389353
0.00378345
0.00365219
0.00351164
0.00338123
0.00328715
0.00326644
0.0032781
0.00328915
0.00328372
0.00325146
0.00321548
0.00317727
0.00313941
0.00310555
0.00307714
0.00305555
0.00304273
0.00304136
0.00305469
0.00308594
0.00313639
0.00320058
0.00325772
0.00327446
0.00328007
0.00327777
0.00331787
0.00354504
0.00361476
0.00260205
0.00205427
0.00207961
0.00726353
)
;
    }
    sWall
    {
        Cmu             0.09;
        kappa           0.41;
        E               9.8;
        type            epsilonWallFunction;
        value           uniform 0.000709843;
    }
    nWall
    {
        Cmu             0.09;
        kappa           0.41;
        E               9.8;
        type            epsilonWallFunction;
        value           nonuniform List<scalar> 6(0.000717405 0.00180328 0.00432526 0.00799762 0.00455686 0.00260205);
    }
    sideWalls
    {
        type            empty;
    }
    glass1
    {
        Cmu             0.09;
        kappa           0.41;
        E               9.8;
        type            epsilonWallFunction;
        value           nonuniform List<scalar> 9(0.0029188 0.00475862 0.00561813 0.00551542 0.0052181 0.00468191 0.00397475 0.00314687 0.00205427);
    }
    glass2
    {
        Cmu             0.09;
        kappa           0.41;
        E               9.8;
        type            epsilonWallFunction;
        value           nonuniform List<scalar> 2(0.0106133 0.014066);
    }
    sun
    {
        Cmu             0.09;
        kappa           0.41;
        E               9.8;
        type            epsilonWallFunction;
        value           nonuniform List<scalar> 
14
(
0.0029188
0.00420346
0.00395691
0.00324776
0.00257406
0.0020478
0.00165377
0.00134773
0.00110383
0.000905127
0.000739705
0.000598601
0.000474455
0.000359739
)
;
    }
    heatsource1
    {
        Cmu             0.09;
        kappa           0.41;
        E               9.8;
        type            epsilonWallFunction;
        value           nonuniform List<scalar> 3(0.000198308 0.000274958 0.000717405);
    }
    heatsource2
    {
        Cmu             0.09;
        kappa           0.41;
        E               9.8;
        type            epsilonWallFunction;
        value           nonuniform List<scalar> 4(0.000226505 0.000142694 0.000142694 0.00014622);
    }
    Table_master
    {
        Cmu             0.09;
        kappa           0.41;
        E               9.8;
        type            epsilonWallFunction;
        value           nonuniform List<scalar> 9(0.000151468 9.7351e-05 6.65931e-05 4.7992e-05 3.61182e-05 2.82024e-05 2.27866e-05 1.9084e-05 1.67477e-05);
    }
    Table_slave
    {
        Cmu             0.09;
        kappa           0.41;
        E               9.8;
        type            epsilonWallFunction;
        value           nonuniform List<scalar> 9(0.00020875 0.000154292 0.000117535 9.07901e-05 7.01786e-05 5.35648e-05 3.9702e-05 2.78882e-05 1.73394e-05);
    }
    inlet
    {
        type            turbulentMixingLengthDissipationRateInlet;
        mixingLength    0.01;
        phi             phi;
        k               k;
        value           uniform 3.01869e-05;
    }
    outlet
    {
        type            zeroGradient;
    }
}


// ************************************************************************* //
