// -*- C++ -*-
// File generated by PyFoam - sorry for the ugliness

FoamFile
{
 version 2.0;
 format ascii;
 class volScalarField;
 location "800";
 object T;
}

dimensions [ 0 0 0 1 0 0 0 ];

internalField nonuniform List<scalar> 459
(
  319.517
  317.028
  315.968
  316.049
  316.044
  315.96
  315.822
  315.647
  315.453
  315.247
  315.028
  314.798
  314.584
  314.395
  313.958
  312.846
  312.561
  312.134
  312.149
  312.294
  312.383
  312.334
  312.315
  312.279
  312.247
  312.234
  312.253
  312.286
  312.219
  312.204
  312.303
  312.435
  312.754
  313.141
  321.066
  317.73
  317.11
  317.205
  317.314
  317.276
  317.146
  316.972
  316.783
  316.6
  316.426
  316.258
  316.098
  315.979
  315.628
  315.502
  315.267
  314.218
  314.116
  314.075
  313.952
  313.843
  313.901
  314.15
  314.09
  314.018
  313.982
  313.97
  313.971
  314.032
  314.346
  314.645
  315.048
  314.986
  314.965
  315.526
  323.124
  318.932
  318.129
  318.182
  318.332
  318.291
  318.156
  318.006
  317.875
  317.765
  317.7
  317.684
  317.687
  317.704
  317.732
  317.852
  317.834
  316.97
  316.934
  316.845
  316.848
  316.738
  316.428
  315.296
  315.625
  315.999
  316.376
  316.773
  317.204
  317.686
  318.253
  319.125
  320.212
  319.945
  319.498
  319.134
  325.727
  320.704
  319.43
  319.262
  319.315
  319.253
  319.163
  319.121
  319.196
  319.358
  319.569
  319.826
  320.123
  320.418
  320.649
  320.785
  320.848
  320.734
  320.63
  321.453
  322.109
  322.758
  323.337
  323.77
  324.101
  324.217
  324.311
  324.395
  324.47
  324.535
  324.585
  324.609
  324.578
  324.399
  324.513
  324.57
  324.396
  328.734
  323.086
  321.309
  320.639
  320.3
  320.228
  320.279
  320.441
  320.648
  320.915
  321.238
  321.598
  321.976
  322.341
  322.663
  322.919
  323.078
  323.188
  323.331
  323.692
  324.047
  324.382
  324.667
  324.889
  325.058
  325.185
  325.301
  325.415
  325.531
  325.653
  325.784
  325.925
  326.079
  326.245
  326.506
  326.817
  327.192
  327.614
  327.92
  328.254
  331.831
  326.166
  323.988
  322.597
  321.488
  321.325
  321.481
  321.71
  322.003
  322.341
  322.707
  323.086
  323.461
  323.816
  324.132
  324.395
  324.593
  324.732
  324.872
  325.058
  325.252
  325.443
  325.621
  325.776
  325.899
  326.006
  326.108
  326.21
  326.317
  326.432
  326.558
  326.697
  326.85
  327.016
  327.194
  327.379
  327.584
  327.826
  328.126
  328.656
  334.543
  330.474
  327.618
  325.023
  322.657
  322.385
  322.657
  323.018
  323.406
  323.801
  324.193
  324.576
  324.945
  325.289
  325.599
  325.859
  326.058
  326.201
  326.308
  326.41
  326.513
  326.617
  326.714
  326.796
  326.867
  326.931
  326.993
  327.056
  327.125
  327.203
  327.292
  327.394
  327.509
  327.63
  327.751
  327.866
  327.98
  328.113
  328.336
  329.029
  336.006
  334.491
  331.31
  326.547
  323.478
  323.503
  324.028
  324.572
  325.077
  325.538
  325.959
  326.348
  326.709
  327.039
  327.335
  327.594
  327.786
  327.892
  327.946
  327.976
  327.996
  328.012
  328.025
  328.034
  328.04
  328.044
  328.047
  328.053
  328.066
  328.087
  328.121
  328.17
  328.235
  328.313
  328.398
  328.483
  328.556
  328.597
  328.684
  329.5
  336.417
  336.261
  336.595
  327.361
  324.682
  325.155
  325.967
  326.701
  327.335
  327.859
  328.299
  328.687
  329.035
  329.322
  329.553
  329.709
  329.792
  329.815
  329.8
  329.761
  329.707
  329.645
  329.58
  329.512
  329.443
  329.374
  329.307
  329.243
  329.185
  329.137
  329.101
  329.08
  329.077
  329.09
  329.114
  329.136
  329.132
  329.064
  328.964
  329.73
  360.961
  332.061
  327.861
  328.272
  329.115
  329.893
  330.635
  331.146
  331.507
  331.75
  331.892
  331.977
  332.02
  332.025
  331.995
  331.933
  331.844
  331.734
  331.61
  331.474
  331.333
  331.188
  331.041
  330.894
  330.749
  330.607
  330.471
  330.343
  330.226
  330.122
  330.031
  329.953
  329.881
  329.801
  329.679
  329.457
  329.057
  328.825
  354.439
  337.775
  335.242
  334.731
  334.764
  334.867
  334.939
  334.974
  334.974
  334.94
  334.874
  334.782
  334.668
  334.534
  334.382
  334.213
  334.03
  333.833
  333.625
  333.408
  333.186
  332.96
  332.733
  332.505
  332.28
  332.057
  331.84
  331.629
  331.425
  331.231
  331.044
  330.863
  330.682
  330.483
  330.237
  329.889
  329.33
  328.518
  337.447
  338.71
  342.257
  341.901
  341.452
  341.021
  340.621
  340.245
  339.887
  339.545
  339.215
  338.896
  338.584
  338.279
  337.979
  337.681
  337.385
  337.089
  336.792
  336.493
  336.191
  335.885
  335.576
  335.265
  334.95
  334.634
  334.317
  333.999
  333.681
  333.363
  333.047
  332.73
  332.413
  332.092
  331.762
  331.413
  331.022
  330.536
  329.837
  328.946
)
;

boundaryField
{
  floor
  {
    type wallHeatTransfer;
    Tinf uniform 305.2;
    alphaWall uniform 0.24;
    value nonuniform List<scalar> 29
(
  312.571
  311.76
  311.548
  310.936
  310.787
  310.757
  310.717
  310.604
  310.608
  310.644
  310.705
  310.791
  310.905
  311.007
  310.954
  310.967
  311.121
  311.324
  311.775
  312.003
  312.003
  314.474
  318.024
  323.061
  312.571
  311.76
  313.232
  315.919
  319.397
)
;
  }
  ceiling
  {
    type wallHeatTransfer;
    Tinf uniform 303.2;
    alphaWall uniform 0.24;
    value nonuniform List<scalar> 43
(
  335.882
  337.342
  341.299
  340.96
  340.499
  340.045
  339.618
  339.214
  338.826
  338.453
  338.092
  337.741
  337.399
  337.064
  336.734
  336.41
  336.088
  335.77
  335.453
  335.138
  334.824
  334.511
  334.198
  333.886
  333.574
  333.262
  332.951
  332.639
  332.328
  332.017
  331.706
  331.395
  331.081
  330.764
  330.437
  330.094
  329.716
  329.269
  328.559
  327.625
  335.678
  335.715
  353.715
)
;
  }
  sWall
  {
    type wallHeatTransfer;
    Tinf uniform 315.2;
    alphaWall uniform 0.36;
    value uniform 335.955;
  }
  nWall
  {
    type wallHeatTransfer;
    Tinf uniform 307.2;
    alphaWall uniform 0.36;
    value nonuniform List<scalar> 6
(
  326.803
  327.444
  327.97
  327.547
  327.054
  327.316
)
;
  }
  sideWalls
  {
    type empty;
  }
  glass1
  {
    type wallHeatTransfer;
    Tinf uniform 315.2;
    alphaWall uniform 4.3;
    value nonuniform List<scalar> 9
(
  316.738
  317.759
  319.204
  321.12
  323.435
  325.89
  328.033
  329.362
  330.351
)
;
  }
  glass2
  {
    type wallHeatTransfer;
    Tinf uniform 307.2;
    alphaWall uniform 4.3;
    value nonuniform List<scalar> 2
(
  321.921
  321.996
)
;
  }
  sun
  {
    type wallHeatTransfer;
    Tinf uniform 305.2;
    alphaWall uniform 0.24;
    value nonuniform List<scalar> 14
(
  318.2
  315.797
  314.687
  314.659
  314.566
  314.441
  314.283
  314.098
  313.898
  313.685
  313.455
  313.212
  312.985
  312.82
)
;
  }
  heatsource1
  {
    type fixedGradient;
    gradient uniform 0;
  }
  heatsource2
  {
    type fixedGradient;
    gradient uniform 0;
  }
  Table_master
  {
    type zeroGradient;
  }
  Table_slave
  {
    type zeroGradient;
  }
  inlet
  {
    type fixedValue;
    value uniform 290.15;
  }
  outlet
  {
    type zeroGradient;
  }
} 	// ************************************************************************* //

