/*--------------------------------*- C++ -*----------------------------------*\
  =========                 |
  \\      /  F ield         | OpenFOAM: The Open Source CFD Toolbox
   \\    /   O peration     | Website:  https://openfoam.org
    \\  /    A nd           | Version:  6
     \\/     M anipulation  |
\*---------------------------------------------------------------------------*/
FoamFile
{
    version     2.0;
    format      ascii;
    class       volScalarField;
    location    "640";
    object      epsilon;
}
// * * * * * * * * * * * * * * * * * * * * * * * * * * * * * * * * * * * * * //

dimensions      [0 2 -3 0 0 0 0];

internalField   nonuniform List<scalar> 
459
(
2.17091e-05
4.06584e-05
6.03458e-05
8.22696e-05
0.00011123
0.000139415
0.000148797
0.000142806
0.000129972
0.000114625
9.88029e-05
8.5106e-05
7.24844e-05
5.94109e-05
4.72249e-05
4.45994e-05
7.23776e-05
7.15215e-05
6.6357e-05
5.55942e-05
4.57739e-05
3.66912e-05
2.94664e-05
2.40053e-05
1.98727e-05
1.66977e-05
1.42101e-05
1.22213e-05
1.06013e-05
9.21266e-06
7.94294e-06
6.86237e-06
5.97622e-06
1.01917e-05
2.88044e-05
3.74352e-05
5.26462e-05
6.75174e-05
9.08626e-05
0.000109311
0.000116219
0.000107756
9.25074e-05
7.72369e-05
6.47354e-05
5.61322e-05
5.01398e-05
4.49782e-05
3.91697e-05
5.09244e-05
3.60369e-05
0.000139639
0.000317363
0.000130992
8.24415e-05
5.96261e-05
4.57577e-05
3.89833e-05
3.05443e-05
2.36918e-05
1.85222e-05
1.4667e-05
1.17742e-05
9.57321e-06
7.90616e-06
6.69311e-06
6.08283e-06
8.94826e-06
1.62539e-05
2.20926e-05
3.5231e-05
4.15399e-05
6.15353e-05
8.25132e-05
0.000100615
0.000112921
0.000123833
0.000116756
9.80876e-05
7.87315e-05
6.33049e-05
5.21739e-05
4.43381e-05
3.85356e-05
3.37476e-05
3.46408e-05
4.02532e-05
0.000164433
0.000383291
0.000161249
9.37304e-05
6.46314e-05
5.0735e-05
8.60014e-05
5.81844e-05
4.06486e-05
2.93614e-05
2.18897e-05
1.68051e-05
1.32774e-05
1.08734e-05
9.33008e-06
6.98041e-06
9.38004e-06
3.01429e-05
3.45213e-05
4.33439e-05
5.49489e-05
7.89489e-05
0.000106137
0.000112767
0.000125703
0.000142057
0.00013464
0.000109389
8.3122e-05
6.33066e-05
4.98009e-05
4.0681e-05
3.4391e-05
3.00697e-05
2.89588e-05
3.37009e-05
4.7986e-05
0.000131097
9.81405e-05
7.39762e-05
5.99173e-05
5.05993e-05
4.62993e-05
0.000108885
8.36357e-05
6.6847e-05
5.43365e-05
4.41935e-05
3.5506e-05
2.78225e-05
2.09167e-05
1.45001e-05
7.84473e-06
9.41078e-06
6.04347e-05
5.35998e-05
5.54419e-05
8.49259e-05
0.00010302
0.0001347
0.000130731
0.000151406
0.000174741
0.000164698
0.000127433
8.93221e-05
6.25325e-05
4.61569e-05
3.66699e-05
3.11296e-05
2.81615e-05
2.76552e-05
3.25211e-05
3.90155e-05
4.45411e-05
5.20723e-05
5.58009e-05
5.53228e-05
5.15482e-05
4.67579e-05
4.63863e-05
4.41612e-05
4.17738e-05
3.84904e-05
3.42112e-05
2.91454e-05
2.35347e-05
1.76871e-05
1.14426e-05
7.2031e-06
8.46118e-06
4.36362e-05
6.03728e-05
6.31075e-05
7.0568e-05
0.000178312
7.74352e-05
0.000144653
0.00013382
0.000161063
0.000159276
0.000192927
0.000225326
0.000209068
0.000151901
9.56986e-05
5.93958e-05
4.13356e-05
3.3637e-05
3.04786e-05
3.01443e-05
3.30003e-05
4.14477e-05
5.2409e-05
6.33127e-05
7.17162e-05
7.49068e-05
7.20019e-05
6.47298e-05
5.61641e-05
4.92734e-05
4.40779e-05
3.97279e-05
3.5192e-05
3.01686e-05
2.47587e-05
1.91886e-05
1.39103e-05
9.83005e-06
8.49976e-06
1.09645e-05
2.27129e-05
4.49486e-05
8.37772e-05
0.000297493
0.000433508
0.000119154
0.000277497
0.000181318
0.000191965
0.000207073
0.000258972
0.000301765
0.000271701
0.000182352
0.000101764
5.71623e-05
4.31476e-05
3.91073e-05
3.92226e-05
4.27502e-05
5.10212e-05
6.59407e-05
8.4623e-05
9.9864e-05
0.000107305
0.000104844
9.4096e-05
7.93589e-05
6.49193e-05
5.30981e-05
4.52103e-05
3.92441e-05
3.38448e-05
2.87977e-05
2.43165e-05
2.0791e-05
1.87034e-05
1.84486e-05
2.01143e-05
2.3153e-05
2.93987e-05
5.13315e-05
0.000206089
0.000971504
0.00108836
0.000163595
0.00038745
0.000237532
0.000248564
0.000292728
0.000368636
0.000418778
0.000357598
0.00021699
0.000117236
8.34544e-05
7.39273e-05
7.29594e-05
7.64392e-05
8.4445e-05
9.96031e-05
0.000121475
0.000144436
0.00015725
0.00015516
0.000139821
0.00011866
9.83268e-05
8.12996e-05
6.88486e-05
6.02723e-05
5.41161e-05
4.97263e-05
4.71541e-05
4.67456e-05
4.88879e-05
5.37488e-05
6.07964e-05
6.82056e-05
7.38893e-05
8.07628e-05
0.000111045
0.000468256
0.00359822
0.00280366
0.0002088
0.000448661
0.000332207
0.000384482
0.000459768
0.000562055
0.000600367
0.000465473
0.000280444
0.000211563
0.000191675
0.000189713
0.000193624
0.000201079
0.000212692
0.000229379
0.000248964
0.000264189
0.000266075
0.00025337
0.000231597
0.000207659
0.00018639
0.000169393
0.000156749
0.000148208
0.000143529
0.000142948
0.000147068
0.000156554
0.000171784
0.000192247
0.000215577
0.000237272
0.000255083
0.000257773
0.000297839
0.000840971
0.00506321
0.00390857
0.000404178
0.000753206
0.000892837
0.000958585
0.000793568
0.000580541
0.000530923
0.000540411
0.000563635
0.000584084
0.000598744
0.000609447
0.000618705
0.000627814
0.000635624
0.000638794
0.00063457
0.0006233
0.000607516
0.000590114
0.000573061
0.000557536
0.000544613
0.000535841
0.000533121
0.000538625
0.000554596
0.000583007
0.000624822
0.00067838
0.000736819
0.000787461
0.00082212
0.000819438
0.000843315
0.00127174
0.00375833
0.00232507
0.00305501
0.00399035
0.00325261
0.00211798
0.00153972
0.00138798
0.00142712
0.00151177
0.00159149
0.0016489
0.00168325
0.00170259
0.00171699
0.0017348
0.00176003
0.00178973
0.00181392
0.0018249
0.00182176
0.00180854
0.0017894
0.00176748
0.00174613
0.00172999
0.0017244
0.00173526
0.00176883
0.00183128
0.00192738
0.00205638
0.00220293
0.00232377
0.00234241
0.00226061
0.00208579
0.0020685
0.0022406
0.00139748
0.00085873
0.00104459
0.00139469
0.00165356
0.00159846
0.00143862
0.00130861
0.00122535
0.00118826
0.00117827
0.00117926
0.0011842
0.00119126
0.00120044
0.00121174
0.00122415
0.00123519
0.00124174
0.00124207
0.00123681
0.00122804
0.001218
0.00120845
0.00120065
0.00119571
0.0011947
0.00119873
0.0012088
0.00122559
0.00124894
0.00127712
0.00130573
0.00132663
0.00132875
0.00131406
0.00128097
0.00128078
0.00133819
0.0013155
0.000879263
)
;

boundaryField
{
    floor
    {
        Cmu             0.09;
        kappa           0.41;
        E               9.8;
        type            epsilonWallFunction;
        value           nonuniform List<scalar> 
29
(
4.72249e-05
4.45994e-05
7.23776e-05
7.15215e-05
6.6357e-05
5.55942e-05
4.57739e-05
3.66912e-05
2.94664e-05
2.40053e-05
1.98727e-05
1.66977e-05
1.42101e-05
1.22213e-05
1.06013e-05
9.21266e-06
7.94294e-06
6.86237e-06
5.97622e-06
1.01917e-05
1.01917e-05
2.20926e-05
3.45213e-05
5.35998e-05
4.72249e-05
4.45994e-05
0.000139639
0.000164433
4.7986e-05
)
;
    }
    ceiling
    {
        Cmu             0.09;
        kappa           0.41;
        E               9.8;
        type            epsilonWallFunction;
        value           nonuniform List<scalar> 
43
(
0.00085873
0.00104459
0.00139469
0.00165356
0.00159846
0.00143862
0.00130861
0.00122535
0.00118826
0.00117827
0.00117926
0.0011842
0.00119126
0.00120044
0.00121174
0.00122415
0.00123519
0.00124174
0.00124207
0.00123681
0.00122804
0.001218
0.00120845
0.00120065
0.00119571
0.0011947
0.00119873
0.0012088
0.00122559
0.00124894
0.00127712
0.00130573
0.00132663
0.00132875
0.00131406
0.00128097
0.00128078
0.00133819
0.0013155
0.000879263
0.0002088
0.000448661
0.00305501
)
;
    }
    sWall
    {
        Cmu             0.09;
        kappa           0.41;
        E               9.8;
        type            epsilonWallFunction;
        value           uniform 0.00085873;
    }
    nWall
    {
        Cmu             0.09;
        kappa           0.41;
        E               9.8;
        type            epsilonWallFunction;
        value           nonuniform List<scalar> 6(0.000178312 0.000433508 0.00108836 0.00232507 0.00139748 0.000879263);
    }
    sideWalls
    {
        type            empty;
    }
    glass1
    {
        Cmu             0.09;
        kappa           0.41;
        E               9.8;
        type            epsilonWallFunction;
        value           nonuniform List<scalar> 9(2.17091e-05 2.88044e-05 3.5231e-05 4.33439e-05 5.54419e-05 7.74352e-05 0.000119154 0.000163595 0.0002088);
    }
    glass2
    {
        Cmu             0.09;
        kappa           0.41;
        E               9.8;
        type            epsilonWallFunction;
        value           nonuniform List<scalar> 2(0.00280366 0.00390857);
    }
    sun
    {
        Cmu             0.09;
        kappa           0.41;
        E               9.8;
        type            epsilonWallFunction;
        value           nonuniform List<scalar> 
14
(
2.17091e-05
4.06584e-05
6.03458e-05
8.22696e-05
0.00011123
0.000139415
0.000148797
0.000142806
0.000129972
0.000114625
9.88029e-05
8.5106e-05
7.24844e-05
5.94109e-05
)
;
    }
    heatsource1
    {
        Cmu             0.09;
        kappa           0.41;
        E               9.8;
        type            epsilonWallFunction;
        value           nonuniform List<scalar> 3(6.31075e-05 7.0568e-05 0.000178312);
    }
    heatsource2
    {
        Cmu             0.09;
        kappa           0.41;
        E               9.8;
        type            epsilonWallFunction;
        value           nonuniform List<scalar> 4(5.09244e-05 3.60369e-05 3.60369e-05 4.02532e-05);
    }
    Table_master
    {
        Cmu             0.09;
        kappa           0.41;
        E               9.8;
        type            epsilonWallFunction;
        value           nonuniform List<scalar> 9(8.60014e-05 5.81844e-05 4.06486e-05 2.93614e-05 2.18897e-05 1.68051e-05 1.32774e-05 1.08734e-05 9.33008e-06);
    }
    Table_slave
    {
        Cmu             0.09;
        kappa           0.41;
        E               9.8;
        type            epsilonWallFunction;
        value           nonuniform List<scalar> 9(0.000108885 8.36357e-05 6.6847e-05 5.43365e-05 4.41935e-05 3.5506e-05 2.78225e-05 2.09167e-05 1.45001e-05);
    }
    inlet
    {
        type            turbulentMixingLengthDissipationRateInlet;
        mixingLength    0.01;
        phi             phi;
        k               k;
        value           uniform 0.000101881;
    }
    outlet
    {
        type            zeroGradient;
    }
}


// ************************************************************************* //
