/*--------------------------------*- C++ -*----------------------------------*\
  =========                 |
  \\      /  F ield         | OpenFOAM: The Open Source CFD Toolbox
   \\    /   O peration     | Website:  https://openfoam.org
    \\  /    A nd           | Version:  6
     \\/     M anipulation  |
\*---------------------------------------------------------------------------*/
FoamFile
{
    version     2.0;
    format      ascii;
    class       volScalarField;
    location    "500";
    object      alphat;
}
// * * * * * * * * * * * * * * * * * * * * * * * * * * * * * * * * * * * * * //

dimensions      [1 -1 -1 0 0 0 0];

internalField   nonuniform List<scalar> 
459
(
0.00085257
0.000893912
0.000887036
0.000914557
0.000937232
0.000955777
0.0009712
0.000984454
0.00099648
0.00100795
0.0010152
0.00101706
0.00101349
0.00100686
0.000998682
0.000706176
0.000655851
0.000619619
0.000593898
0.00057372
0.00055563
0.000537588
0.000520693
0.000504783
0.000489661
0.000475229
0.000461398
0.000448046
0.000434958
0.000421745
0.000407803
0.000391953
0.000378512
0.000348259
0.00126767
0.0020346
0.00175033
0.00200771
0.00214865
0.00229778
0.00244512
0.00257776
0.00267714
0.00272655
0.00273517
0.00267314
0.00249883
0.00215719
0.00159734
0.00101214
0.000937715
0.00080954
0.00109025
0.0012791
0.00143395
0.00153516
0.00155374
0.00140195
0.001297
0.00120781
0.00112933
0.00105807
0.000991575
0.00092676
0.000858807
0.000783593
0.000715165
0.000658714
0.00077037
0.000432024
0.00164746
0.00296706
0.0019257
0.00276217
0.00296394
0.00310899
0.003218
0.00329947
0.00335999
0.00339511
0.00341274
0.00338512
0.00327828
0.00305549
0.00266986
0.00204983
0.00107892
0.000893485
0.00167989
0.00203292
0.00222731
0.002301
0.00209046
0.000622226
0.000565398
0.000521169
0.000486349
0.000458467
0.000435766
0.000417182
0.000402387
0.000392192
0.000449207
0.000536013
0.000876817
0.000496852
0.00204497
0.00442867
0.00183523
0.00306628
0.0033626
0.00346375
0.00350501
0.00351971
0.00353198
0.0035499
0.00357451
0.00358212
0.00354306
0.00343084
0.00321502
0.00283163
0.00211429
0.00103939
0.00215797
0.0024738
0.00254844
0.00259453
0.00260089
0.0023186
0.000655863
0.000633125
0.000625124
0.000620756
0.000613122
0.000597983
0.000580165
0.000559518
0.000532474
0.000511582
0.000538028
0.00101424
0.000550956
0.0024599
0.00645489
0.002164
0.00291808
0.0035083
0.00360297
0.00359794
0.00356154
0.00353799
0.0035522
0.00359629
0.00364565
0.00365719
0.00359553
0.00343217
0.00317925
0.00295006
0.00284944
0.00273388
0.00269324
0.00260341
0.00257703
0.00260159
0.00260995
0.00243872
0.00244522
0.00247783
0.00249056
0.00246222
0.00237883
0.0021768
0.00188616
0.00154051
0.00116871
0.000881366
0.000978511
0.000684299
0.000722942
0.00086405
0.00095847
0.00289268
0.00869838
0.00369515
0.0025112
0.00330104
0.00357129
0.00362238
0.00358361
0.00351629
0.00349354
0.0035703
0.00366541
0.00372032
0.00369321
0.00353122
0.00320644
0.00282264
0.00269676
0.00276662
0.00268708
0.00253195
0.00246828
0.00251192
0.00261155
0.0027186
0.00283193
0.00292082
0.00297117
0.0029765
0.00293455
0.00280875
0.00256624
0.0022089
0.00175893
0.00134017
0.00104434
0.000855696
0.000797248
0.00120813
0.000995312
0.0033402
0.0105719
0.00692769
0.00347098
0.00265516
0.0027944
0.00314799
0.00342197
0.00355751
0.00346951
0.00357954
0.00368796
0.00375529
0.00374554
0.00359303
0.00322771
0.00271722
0.00254889
0.00275533
0.00266591
0.00247708
0.00240643
0.00245853
0.00257258
0.00270627
0.00283516
0.00293877
0.00300753
0.00304452
0.00305593
0.00304268
0.00288105
0.00255845
0.00212877
0.0017264
0.00136543
0.00114129
0.00110082
0.00119019
0.00107226
0.00346283
0.0106875
0.00866931
0.00669713
0.00488942
0.00375586
0.00333647
0.00337333
0.00356073
0.00362482
0.00368148
0.00374162
0.0037814
0.00375601
0.00358844
0.00318604
0.00259525
0.00241016
0.00274389
0.00265595
0.00244534
0.00237199
0.00241249
0.002501
0.00260108
0.00269497
0.00277451
0.00283972
0.00290036
0.00297128
0.00306763
0.00314671
0.00288447
0.00251583
0.00221833
0.00210995
0.00226966
0.0029031
0.00399371
0.00175399
0.00340666
0.0041683
0.00468894
0.0048651
0.00472013
0.00435882
0.00401943
0.00381905
0.0037284
0.00370436
0.00373021
0.00377003
0.0037824
0.00371816
0.00350004
0.00302594
0.00234837
0.00220994
0.00274251
0.00263839
0.00239705
0.0023035
0.00231025
0.00235324
0.00240179
0.00244174
0.00246607
0.00247204
0.00245935
0.00242811
0.00237867
0.00231292
0.00224745
0.00221454
0.0022483
0.00233749
0.00240387
0.00236647
0.00223157
0.00163169
0.00251036
0.00420683
0.00456375
0.00452775
0.00438695
0.00425384
0.00415836
0.00407488
0.00399368
0.00389581
0.00375795
0.0035504
0.00321013
0.00263765
0.00190859
0.00191191
0.00274304
0.00257966
0.00229532
0.0021729
0.00214338
0.00214759
0.00216205
0.00217625
0.0021848
0.0021861
0.0021822
0.00217873
0.0021845
0.00220934
0.0022462
0.00229802
0.00236157
0.00240704
0.00238193
0.00225915
0.00204475
0.00133571
0.00266449
0.00482832
0.00507249
0.00492202
0.00474189
0.00454851
0.00434765
0.00414056
0.00385545
0.00352517
0.00317265
0.0028038
0.00239442
0.00188214
0.00129749
0.00145292
0.00207871
0.00195249
0.00175017
0.00165936
0.00163585
0.00164793
0.00168493
0.00174211
0.00181591
0.00190242
0.00199648
0.00209065
0.00217452
0.00226921
0.00237378
0.00248546
0.00259317
0.00268183
0.00270366
0.00277984
0.00260878
0.0013513
0.002315
0.00244212
0.00254856
0.00270398
0.00255729
0.00236191
0.00218755
0.00202751
0.00187275
0.00172275
0.00159507
0.00147897
0.00136663
0.00125332
0.00113491
0.00100195
0.000710763
0.000628665
0.000640023
0.0006445
0.000653634
0.00067059
0.000692802
0.000718795
0.00074791
0.000779822
0.000814434
0.000851927
0.000892884
0.000938544
0.000991192
0.0010491
0.00111304
0.00118392
0.00126271
0.00136451
0.00140169
0.00137454
0.00128728
0.00119358
)
;

boundaryField
{
    floor
    {
        type            compressible::alphatWallFunction;
        Prt             0.85;
        value           nonuniform List<scalar> 
29
(
0.000142095
0.000100099
9.26797e-05
8.72957e-05
8.34501e-05
8.04189e-05
7.76902e-05
7.49577e-05
7.23886e-05
6.99596e-05
6.7642e-05
6.54218e-05
6.32862e-05
6.12167e-05
5.91805e-05
5.71171e-05
5.49307e-05
5.24334e-05
5.03056e-05
4.54804e-05
4.54797e-05
5.87213e-05
6.87421e-05
7.69791e-05
0.000142094
0.000100098
0.00011514
0.000127188
0.000147816
)
;
    }
    ceiling
    {
        type            compressible::alphatWallFunction;
        Prt             0.85;
        value           nonuniform List<scalar> 
43
(
0.000317747
0.000333999
0.000347541
0.000367303
0.000348781
0.000323907
0.000301513
0.000280784
0.000260568
0.000240798
0.00022382
0.00020825
0.000193054
0.000177584
0.000161246
0.000142666
0.000100906
8.87545e-05
9.04442e-05
9.11094e-05
9.24633e-05
9.49712e-05
9.82452e-05
0.000102061
0.000106315
0.000110955
0.000115962
0.000121357
0.000127219
0.000133717
0.000141163
0.0001493
0.000158226
0.000168051
0.000178893
0.00019279
0.000197836
0.000194155
0.00018226
0.000169388
0.000455083
0.00054788
0.000362135
)
;
    }
    sWall
    {
        type            compressible::alphatWallFunction;
        Prt             0.85;
        value           uniform 0.00031653;
    }
    nWall
    {
        type            compressible::alphatWallFunction;
        Prt             0.85;
        value           nonuniform List<scalar> 6(0.000136203 0.000141401 0.00015219 0.000188529 0.00019065 0.000169048);
    }
    sideWalls
    {
        type            empty;
    }
    glass1
    {
        type            compressible::alphatWallFunction;
        Prt             0.85;
        value           nonuniform List<scalar> 9(0.000117931 0.000175101 0.000225695 0.000277399 0.000330316 0.000384575 0.000439844 0.000454986 0.000448325);
    }
    glass2
    {
        type            compressible::alphatWallFunction;
        Prt             0.85;
        value           nonuniform List<scalar> 2(0.000243003 0.000226921);
    }
    sun
    {
        type            compressible::alphatWallFunction;
        Prt             0.85;
        value           nonuniform List<scalar> 
14
(
0.00012135
0.000127248
0.000126266
0.000130189
0.000133411
0.000136039
0.00013822
0.000140092
0.000141787
0.000143401
0.000144421
0.000144682
0.000144181
0.000143247
)
;
    }
    heatsource1
    {
        type            compressible::alphatWallFunction;
        Prt             0.85;
        value           nonuniform List<scalar> 3(0.000102683 0.000123112 0.000136557);
    }
    heatsource2
    {
        type            compressible::alphatWallFunction;
        Prt             0.85;
        value           nonuniform List<scalar> 4(0.000144126 0.000133613 0.000133612 0.000153482);
    }
    Table_master
    {
        type            compressible::alphatWallFunction;
        Prt             0.85;
        value           nonuniform List<scalar> 9(8.781e-05 7.92881e-05 7.25822e-05 6.72529e-05 6.29506e-05 5.94232e-05 5.65182e-05 5.41935e-05 5.25852e-05);
    }
    Table_slave
    {
        type            compressible::alphatWallFunction;
        Prt             0.85;
        value           nonuniform List<scalar> 9(9.28084e-05 8.94327e-05 8.82412e-05 8.75902e-05 8.64509e-05 8.41865e-05 8.1512e-05 7.84003e-05 7.43029e-05);
    }
    inlet
    {
        type            fixedValue;
        value           uniform 1.94e-05;
    }
    outlet
    {
        type            zeroGradient;
    }
}


// ************************************************************************* //
