/*--------------------------------*- C++ -*----------------------------------*\
  =========                 |
  \\      /  F ield         | OpenFOAM: The Open Source CFD Toolbox
   \\    /   O peration     | Website:  https://openfoam.org
    \\  /    A nd           | Version:  6
     \\/     M anipulation  |
\*---------------------------------------------------------------------------*/
FoamFile
{
    version     2.0;
    format      ascii;
    class       volScalarField;
    location    "600";
    object      epsilon;
}
// * * * * * * * * * * * * * * * * * * * * * * * * * * * * * * * * * * * * * //

dimensions      [0 2 -3 0 0 0 0];

internalField   nonuniform List<scalar> 
459
(
0.00500385
0.00466054
0.00424236
0.0038766
0.00357979
0.00333275
0.00312141
0.00293318
0.00275719
0.00258477
0.00240808
0.00221855
0.00200413
0.00174192
0.00142897
5.88109e-06
7.32577e-06
7.98951e-06
6.09804e-06
4.69935e-06
4.1422e-06
3.7341e-06
2.71981e-06
1.97078e-06
1.68823e-06
1.92752e-06
2.7251e-06
3.18176e-06
4.61674e-06
7.66633e-06
1.18182e-05
1.503e-05
1.65221e-05
1.21555e-05
0.00713334
0.00558877
0.00450067
0.00354379
0.00291233
0.00249946
0.00221406
0.00200715
0.00185196
0.0017332
0.00164138
0.00156739
0.00149551
0.00138405
0.00121754
0.00124481
0.000854525
1.93105e-05
2.50734e-05
1.96442e-05
1.49623e-05
1.22614e-05
9.96397e-06
6.8885e-06
4.62836e-06
2.98043e-06
2.23965e-06
3.16318e-06
5.64372e-06
7.86413e-06
1.3447e-05
2.42214e-05
3.33728e-05
4.02253e-05
5.63438e-05
2.91644e-05
0.00853086
0.00684359
0.00472303
0.00316889
0.00236139
0.00192738
0.00168103
0.00152904
0.00141952
0.00133569
0.00127073
0.00122143
0.00118163
0.00112263
0.00104893
0.00106397
0.000874313
0.000122796
0.000106925
3.59197e-05
2.31851e-05
1.91397e-05
1.7204e-05
1.7752e-05
9.81841e-06
5.78342e-06
3.60461e-06
6.36978e-06
1.33226e-05
2.1977e-05
3.5298e-05
5.80498e-05
4.62109e-05
5.38383e-05
6.31143e-05
5.63834e-05
0.00959207
0.0083007
0.00444336
0.00227078
0.00144115
0.00110032
0.000961134
0.000922474
0.000927221
0.000939888
0.000948149
0.000951238
0.000950505
0.000930556
0.000909205
0.00093935
0.000860798
0.00039662
0.000236339
4.99891e-05
3.24408e-05
3.2115e-05
3.53489e-05
4.14025e-05
5.35921e-05
6.10371e-05
6.83467e-05
7.44474e-05
8.04108e-05
8.7809e-05
9.90861e-05
0.000118935
0.000161539
0.00011111
0.00013344
0.000171269
0.000213219
0.0105329
0.0097822
0.0037773
0.00135176
0.000776641
0.000626084
0.000605619
0.000625883
0.00066072
0.000696283
0.000728306
0.000755462
0.00077684
0.000778487
0.000783393
0.000824499
0.000817011
0.000376645
8.32957e-05
3.62723e-05
3.26947e-05
3.51407e-05
3.8959e-05
4.36177e-05
4.9212e-05
5.55354e-05
6.25916e-05
7.09427e-05
8.15475e-05
9.58512e-05
0.000115824
0.000143869
0.000182059
0.000227625
0.000296653
0.000384307
0.000437293
0.000651042
0.000448853
0.000296591
0.0115141
0.0111645
0.00354602
0.000744235
0.000562198
0.000479202
0.000477148
0.000495283
0.000518507
0.000550131
0.000583788
0.000616216
0.000643515
0.000656227
0.000677078
0.000720651
0.000732489
0.000346116
8.52287e-05
4.50408e-05
4.29439e-05
4.68852e-05
5.23096e-05
5.8673e-05
6.61087e-05
7.42191e-05
8.36029e-05
9.52439e-05
0.000110793
0.000132754
0.000164529
0.000210294
0.00027444
0.000360629
0.000471347
0.000600008
0.000693193
0.000688315
0.000403518
0.000347459
0.0127402
0.0124378
0.00550056
0.000796843
0.000526449
0.000404715
0.000390469
0.000404051
0.000426241
0.000452837
0.000482497
0.000512719
0.000540165
0.000561582
0.000590744
0.000631912
0.00063512
0.000299712
9.02172e-05
6.24978e-05
6.68204e-05
7.51915e-05
8.35091e-05
9.18577e-05
0.000100183
0.000109302
0.000120353
0.000134635
0.00015419
0.000182034
0.000221892
0.000278228
0.000355413
0.000456346
0.000577873
0.000702816
0.000790663
0.000797906
0.000698293
0.000336987
0.014666
0.0161707
0.0133072
0.00131784
0.000473069
0.000321253
0.000309759
0.000328374
0.000355603
0.000383033
0.00041176
0.000441329
0.000470187
0.000497033
0.000526472
0.000556769
0.000537609
0.000252014
0.000105792
0.000101385
0.000120694
0.000139337
0.000152437
0.000159833
0.000165406
0.000172386
0.000182767
0.000198531
0.000222773
0.000260519
0.000315572
0.000390517
0.000485611
0.000597121
0.000721232
0.00085944
0.00102153
0.00122284
0.00144058
0.000912107
0.0185874
0.0256452
0.0431456
0.00507851
0.000516353
0.000292251
0.000273501
0.000288926
0.000314899
0.00034485
0.000376292
0.000408954
0.000441103
0.000469402
0.000490731
0.00049997
0.000455576
0.00022277
0.000151044
0.000189121
0.000242946
0.000278708
0.000291703
0.00029166
0.000287138
0.000283898
0.000284978
0.000292162
0.000307561
0.00033518
0.000377052
0.000438146
0.000524604
0.000643883
0.000805176
0.000996158
0.00114984
0.00146397
0.00317109
0.00137659
0.0976571
0.0115917
0.000914617
0.000372293
0.000317857
0.000323889
0.000348804
0.000379811
0.00041522
0.000453108
0.000488885
0.000514294
0.000519716
0.000504977
0.000465732
0.000261812
0.00027483
0.000380482
0.000479757
0.000539195
0.000560646
0.000555834
0.000538109
0.00051757
0.000500194
0.00048878
0.000483997
0.000485483
0.00049287
0.000507734
0.000532489
0.000566137
0.000600031
0.000614268
0.000622452
0.00067405
0.00125651
0.00133228
0.00786092
0.00154951
0.00118209
0.000576003
0.000439675
0.000382021
0.000366217
0.000380276
0.000410274
0.000449756
0.00049118
0.000521521
0.000523562
0.000503707
0.000416848
0.000344873
0.000435803
0.000625267
0.000820198
0.000961807
0.00103421
0.00105065
0.00103339
0.00100106
0.000964651
0.000928357
0.000892702
0.000849394
0.000790748
0.000725415
0.000667305
0.00062608
0.00060718
0.00060272
0.000607451
0.000636881
0.00159085
0.0010804
0.00133964
0.00132099
0.00193522
0.000505253
0.00053572
0.000554567
0.000579243
0.000601519
0.000623299
0.000645918
0.000667454
0.000688416
0.000707212
0.000720273
0.000720933
0.000680778
0.000601067
0.000532031
0.000494381
0.000482536
0.000499521
0.000532314
0.000567882
0.0005968
0.000615039
0.00062311
0.000623974
0.000621137
0.000617587
0.000618622
0.00062769
0.000637336
0.000639846
0.000627158
0.000592199
0.00055671
0.000515915
0.000465843
0.000495658
0.000399855
)
;

boundaryField
{
    floor
    {
        Cmu             0.09;
        kappa           0.41;
        E               9.8;
        type            epsilonWallFunction;
        value           nonuniform List<scalar> 
29
(
0.00142897
5.88109e-06
7.32577e-06
7.98951e-06
6.09804e-06
4.69935e-06
4.1422e-06
3.7341e-06
2.71981e-06
1.97078e-06
1.68823e-06
1.92752e-06
2.7251e-06
3.18176e-06
4.61674e-06
7.66633e-06
1.18182e-05
1.503e-05
1.65221e-05
1.21555e-05
1.21555e-05
2.91644e-05
5.63834e-05
0.000213219
0.00142897
5.88109e-06
1.93105e-05
0.000122796
0.00039662
)
;
    }
    ceiling
    {
        Cmu             0.09;
        kappa           0.41;
        E               9.8;
        type            epsilonWallFunction;
        value           nonuniform List<scalar> 
43
(
0.00133964
0.00132099
0.00193522
0.000505253
0.00053572
0.000554567
0.000579243
0.000601519
0.000623299
0.000645918
0.000667454
0.000688416
0.000707212
0.000720273
0.000720933
0.000680778
0.000601067
0.000532031
0.000494381
0.000482536
0.000499521
0.000532314
0.000567882
0.0005968
0.000615039
0.00062311
0.000623974
0.000621137
0.000617587
0.000618622
0.00062769
0.000637336
0.000639846
0.000627158
0.000592199
0.00055671
0.000515915
0.000465843
0.000495658
0.000399855
0.0185874
0.0256452
0.00786092
)
;
    }
    sWall
    {
        Cmu             0.09;
        kappa           0.41;
        E               9.8;
        type            epsilonWallFunction;
        value           uniform 0.00133964;
    }
    nWall
    {
        Cmu             0.09;
        kappa           0.41;
        E               9.8;
        type            epsilonWallFunction;
        value           nonuniform List<scalar> 6(0.000296591 0.000347459 0.000336987 0.00133228 0.0010804 0.000399855);
    }
    sideWalls
    {
        type            empty;
    }
    glass1
    {
        Cmu             0.09;
        kappa           0.41;
        E               9.8;
        type            epsilonWallFunction;
        value           nonuniform List<scalar> 9(0.00500385 0.00713334 0.00853086 0.00959207 0.0105329 0.0115141 0.0127402 0.014666 0.0185874);
    }
    glass2
    {
        Cmu             0.09;
        kappa           0.41;
        E               9.8;
        type            epsilonWallFunction;
        value           nonuniform List<scalar> 2(0.000912107 0.00137659);
    }
    sun
    {
        Cmu             0.09;
        kappa           0.41;
        E               9.8;
        type            epsilonWallFunction;
        value           nonuniform List<scalar> 
14
(
0.00500385
0.00466054
0.00424236
0.0038766
0.00357979
0.00333275
0.00312141
0.00293318
0.00275719
0.00258477
0.00240808
0.00221855
0.00200413
0.00174192
)
;
    }
    heatsource1
    {
        Cmu             0.09;
        kappa           0.41;
        E               9.8;
        type            epsilonWallFunction;
        value           nonuniform List<scalar> 3(0.000651042 0.000448853 0.000296591);
    }
    heatsource2
    {
        Cmu             0.09;
        kappa           0.41;
        E               9.8;
        type            epsilonWallFunction;
        value           nonuniform List<scalar> 4(0.00124481 0.000854525 0.000854525 0.000874313);
    }
    Table_master
    {
        Cmu             0.09;
        kappa           0.41;
        E               9.8;
        type            epsilonWallFunction;
        value           nonuniform List<scalar> 9(1.7752e-05 9.81841e-06 5.78342e-06 3.60461e-06 6.36978e-06 1.33226e-05 2.1977e-05 3.5298e-05 5.80498e-05);
    }
    Table_slave
    {
        Cmu             0.09;
        kappa           0.41;
        E               9.8;
        type            epsilonWallFunction;
        value           nonuniform List<scalar> 9(5.35921e-05 6.10371e-05 6.83467e-05 7.44474e-05 8.04108e-05 8.7809e-05 9.90861e-05 0.000118935 0.000161539);
    }
    inlet
    {
        type            turbulentMixingLengthDissipationRateInlet;
        mixingLength    0.01;
        phi             phi;
        k               k;
        value           uniform 3.77336e-06;
    }
    outlet
    {
        type            zeroGradient;
    }
}


// ************************************************************************* //
