/*--------------------------------*- C++ -*----------------------------------*\
  =========                 |
  \\      /  F ield         | OpenFOAM: The Open Source CFD Toolbox
   \\    /   O peration     | Website:  https://openfoam.org
    \\  /    A nd           | Version:  6
     \\/     M anipulation  |
\*---------------------------------------------------------------------------*/
FoamFile
{
    version     2.0;
    format      ascii;
    class       surfaceScalarField;
    location    "600";
    object      phi;
}
// * * * * * * * * * * * * * * * * * * * * * * * * * * * * * * * * * * * * * //

dimensions      [1 0 -1 0 0 0 0];

internalField   nonuniform List<scalar> 
852
(
0.00466124
-0.00462896
0.00922158
-0.00456026
0.0117043
-0.00248264
0.0129957
-0.00129131
0.013752
-0.000756278
0.0141538
-0.00040162
0.014242
-8.81459e-05
0.0140503
0.000191728
0.0135957
0.000454737
0.0128687
0.000727131
0.0118335
0.00103523
0.0104156
0.001418
0.00845116
0.00196454
0.00548417
0.00296709
0.00548377
-0.000751758
0.000756526
-0.000796289
4.45892e-05
-0.000654702
-0.000141525
-0.00057616
-7.84792e-05
-0.000566354
-9.74475e-06
-0.000568179
1.88585e-06
-0.00047021
-9.79058e-05
-0.000353282
-0.000116864
-0.00022798
-0.000125235
-2.61514e-05
-0.000201758
0.000264362
-0.000290431
0.000437027
-0.000172598
0.000537601
-0.000100504
0.00064017
-0.000102494
0.000726623
-8.63794e-05
0.000778122
-5.14312e-05
0.000815915
-3.77294e-05
0.000720097
9.58902e-05
0.000724175
0.00539044
-0.00992753
0.00814351
-0.00731325
0.00961404
-0.00395309
0.0105129
-0.00219005
0.0110848
-0.00132816
0.0114062
-0.00072293
0.0115069
-0.000188761
0.0113874
0.00031141
0.0110421
0.000800066
0.0104595
0.00130984
0.00962553
0.00186929
0.00853647
0.00250716
0.0072406
0.00326051
0.00606754
0.00414026
0.00648993
0.00506148
0.00256754
0.00392245
0.00256761
0.000933786
-0.000166494
0.000970412
8.04765e-06
0.000663093
0.000165855
0.000436252
0.000148404
0.000264576
0.000161965
7.53477e-05
0.000191156
-6.3506e-05
4.10031e-05
-0.000120304
-6.00088e-05
-0.000110444
-0.000135035
-4.83285e-05
-0.000263812
3.43273e-05
-0.000372995
6.89078e-05
-0.000207092
6.81572e-05
-9.96754e-05
2.25692e-05
-5.68263e-05
-2.78008e-05
-3.59383e-05
1.77813e-05
-9.69467e-05
0.000199094
-0.000218974
0.000239158
5.59064e-05
0.000973295
0.00393577
-0.0137142
0.00561339
-0.00899078
0.00647351
-0.00481312
0.00707125
-0.0027877
0.00749544
-0.00175225
0.00776367
-0.000991065
0.00791152
-0.000336516
0.00793015
0.000292879
0.00779077
0.000939547
0.00746947
0.00163124
0.00695831
0.00238055
0.00627563
0.00318995
0.0054887
0.00404754
0.00470901
0.00492006
0.00394243
0.00582817
0.0023032
0.00556179
0.00487093
-2.77091e-05
-0.000129412
-7.54575e-05
5.58564e-05
1.41595e-05
7.62938e-05
8.64532e-05
7.61597e-05
0.000187895
6.0569e-05
0.000372861
6.23421e-06
0.000414061
0.000354242
0.000219388
-4.42442e-05
-0.00041696
-0.00062377
-0.000723189
-0.00077978
-0.000815503
-0.000874347
-3.80573e-05
-0.00119208
9.88092e-05
-0.0012298
9.36794e-05
-0.000243437
0.00234206
-0.0158505
0.00324472
-0.00989336
0.00378845
-0.00535675
0.00404064
-0.00303979
0.00425975
-0.00197127
0.00444295
-0.00117417
0.00460216
-0.00049563
0.00470387
0.000191276
0.00470303
0.000940484
0.00457036
0.00176402
0.0042929
0.00265811
0.00387495
0.00360801
0.00333332
0.00458928
0.00268188
0.0055716
0.00198564
0.00652452
0.00116965
0.00637789
0.00054281
0.00549788
-0.00111852
0.00166473
-0.00112263
-0.000125223
-0.000996021
-7.0658e-05
-0.000942001
2.23705e-05
-0.000960286
9.45357e-05
-0.00101694
0.000117308
-0.00110115
9.05094e-05
-0.00113426
3.30273e-05
-0.00109789
-3.64604e-05
-0.00101773
-8.02492e-05
-0.000913335
-0.000104482
-0.000799554
-0.000113867
-0.000685302
-0.000114339
-0.000571658
-0.000113734
-0.000451639
-0.000120112
-0.000315597
-0.000136135
-0.000163451
-0.000190133
0.000114361
-0.000178941
0.000316442
-0.000108346
8.27123e-05
0.00104637
-0.0166345
0.00145047
-0.0102974
0.0016963
-0.00560249
0.00145557
-0.00279897
0.00151028
-0.00202587
0.00166895
-0.00133273
0.0018476
-0.000674178
0.00197832
6.06647e-05
0.00202354
0.000895375
0.00197355
0.00181412
0.00181809
0.00281368
0.00155218
0.00387403
0.00117501
0.00496656
0.000707807
0.00603892
0.000262533
0.00696991
-0.000228113
0.00686865
-0.000503422
0.00577329
-0.000847152
0.00200851
-0.00125721
0.000284907
-0.00140587
7.80773e-05
-0.00146795
8.45374e-05
-0.00148241
0.000109073
-0.0014704
0.000105383
-0.00144203
6.22084e-05
-0.00139916
-9.75562e-06
-0.00135018
-8.53578e-05
-0.00128884
-0.000141507
-0.00121815
-0.000175077
-0.00114227
-0.000189647
-0.00106303
-0.000193475
-0.000976919
-0.000199744
-0.000871324
-0.000225596
-0.000717489
-0.000289856
-0.000499867
-0.000407638
-0.000101656
-0.000577031
0.000554631
-0.000764509
0.00152722
-0.000889744
0.00222735
-0.000700191
0.00188201
0.000345286
0.00191612
-9.37097e-06
-0.0163058
3.16944e-05
-0.0103383
-0.000197367
-0.00537332
-0.000782601
-0.00221363
-0.000799837
-0.00200854
-0.000668604
-0.00146386
-0.000529969
-0.000812705
-0.000440791
-2.84037e-05
-0.000406524
0.00086122
-0.000421676
0.00182938
-0.000492885
0.002885
-0.000627366
0.00400862
-0.000824905
0.00516422
-0.00105564
0.00626977
-0.00120558
0.00711996
-0.00131761
0.00698079
-0.00114479
0.00560055
-0.0011316
0.00199537
-0.00138963
0.000543017
-0.00153503
0.000223552
-0.00159119
0.000140774
-0.00158924
0.000107205
-0.0015541
7.03223e-05
-0.00150698
1.51727e-05
-0.00146372
-5.29217e-05
-0.0014317
-0.000117282
-0.00140931
-0.000163796
-0.00139621
-0.00018807
-0.00139367
-0.000192075
-0.0014022
-0.000184829
-0.00141891
-0.000182903
-0.00143516
-0.000209226
-0.00143311
-0.000291775
-0.00138362
-0.000456998
-0.00123613
-0.000724386
-0.00089606
-0.00110445
-0.000215058
-0.00157061
0.00085853
-0.00177364
0.00134096
-0.000136999
0.003297
-0.00105065
-0.0148794
-0.00180759
-0.00958129
-0.00241096
-0.00476985
-0.00306972
-0.00155476
-0.00312979
-0.00194837
-0.00303142
-0.00156211
-0.00291358
-0.000930439
-0.00281319
-0.000128673
-0.00273269
0.000780829
-0.00267065
0.00176746
-0.00261784
0.0028323
-0.00257206
0.00396296
-0.00252652
0.0051188
-0.00245079
0.00619416
-0.00226398
0.00693327
-0.00198865
0.00670557
-0.00150357
0.00511555
-0.00135426
0.00184612
-0.00142589
0.00061473
-0.00147171
0.000269444
-0.00146885
0.000138003
-0.00142864
6.70805e-05
-0.00137068
1.24526e-05
-0.00131607
-3.93458e-05
-0.00128086
-8.80357e-05
-0.00127111
-0.000126941
-0.00128765
-0.000147146
-0.00133341
-0.000142205
-0.0014149
-0.000110468
-0.00153979
-5.9817e-05
-0.00171107
-1.14891e-05
-0.00192386
3.68688e-06
-0.00216541
-5.00896e-05
-0.00241454
-0.000207741
-0.00264278
-0.000496018
-0.00281083
-0.000936268
-0.00285247
-0.00152885
-0.00256638
-0.0020596
-0.00107119
-0.00163206
0.00227313
-0.0038688
-0.0105807
-0.00611223
-0.00733776
-0.00605065
-0.00483133
-0.00610945
-0.00149586
-0.00569584
-0.00236187
-0.00536487
-0.00189298
-0.00514735
-0.00114784
-0.00498144
-0.000294467
-0.00482695
0.000626457
-0.00465387
0.00159449
-0.00443475
0.00261331
-0.00415555
0.00368388
-0.00380621
0.00476958
-0.00337069
0.00575875
-0.00282195
0.00638463
-0.0022129
0.00609662
-0.00155983
0.00446255
-0.00130892
0.00159529
-0.00124298
0.000548865
-0.00118159
0.000208141
-0.0010965
5.30055e-05
-0.000997001
-3.23277e-05
-0.000906148
-7.83061e-05
-0.000841107
-0.000104292
-0.000806424
-0.000122622
-0.000800238
-0.000133026
-0.00081926
-0.000128019
-0.000862691
-9.86636e-05
-0.000935146
-3.7898e-05
-0.00105385
5.90087e-05
-0.00125459
0.000189373
-0.00158015
0.000329368
-0.00205731
0.000427188
-0.00267742
0.000412495
-0.00339561
0.000222298
-0.00419685
-0.000134904
-0.00521569
-0.000509895
-0.00644352
-0.000831649
-0.00611999
-0.00195547
-0.00365075
-0.0101149
-0.0174628
-0.012115
-0.010179
-0.00861544
-0.00499536
-0.00751312
-0.00346409
-0.00705017
-0.00235581
-0.0068479
-0.00135001
-0.00670223
-0.00044002
-0.00651008
0.000434413
-0.00622297
0.0013075
-0.00581567
0.00220612
-0.00527041
0.00313874
-0.00458165
0.00408093
-0.00375955
0.00493676
-0.00284025
0.00546544
-0.00193855
0.00519501
-0.00118055
0.00370464
-0.000836329
0.00125115
-0.000687323
0.000399946
-0.000544159
6.50675e-05
-0.00038937
-0.000101689
-0.000258567
-0.000163038
-0.000166437
-0.000170343
-0.00011067
-0.000159966
-8.55348e-05
-0.000147661
-8.34227e-05
-0.000135039
-9.55288e-05
-0.000115811
-0.000113424
-8.06621e-05
-0.00013079
-2.04229e-05
-0.000144252
7.25837e-05
-0.000156639
0.000201877
-0.000170586
0.000343434
-0.000185587
0.000442311
-0.000203045
0.000430076
-0.000247606
0.000266982
-0.00035093
-3.14601e-05
-0.000500916
-0.000359791
-0.000669307
-0.000663146
-0.000814909
-0.00180976
-0.00425469
-0.0103263
0.00025613
-0.00802874
-0.00729283
-0.0076888
-0.00380393
-0.00777819
-0.00226632
-0.00785485
-0.00127324
-0.00782046
-0.000474303
-0.00763182
0.000245886
-0.00726571
0.000941513
-0.00668957
0.0016301
-0.00588607
0.00233535
-0.00485805
0.00305302
-0.00364506
0.00372388
-0.00234238
0.00416287
-0.0011323
0.00398503
-6.27754e-05
0.0026352
0.000312517
0.000875946
0.000477606
0.000234951
0.000609598
-6.68288e-05
0.000707408
-0.000199406
0.000765607
-0.000221146
0.000795905
-0.000200552
0.000807099
-0.000171068
0.000804115
-0.000144583
0.000791044
-0.000121872
0.000773665
-9.83328e-05
0.000760409
-6.7305e-05
0.000761347
-2.12552e-05
0.00078978
4.42579e-05
0.000854231
0.000137536
0.000959415
0.000238364
0.00109768
0.000304167
0.00124789
0.00027998
0.00138935
0.000125635
0.00148693
-0.000128918
0.00158611
-0.000458857
0.00179709
-0.00087402
0.00168897
-0.00170152
-0.00251905
-0.000678798
0.000917628
-0.00494394
-0.0030276
-0.00681633
-0.00193145
-0.00785601
-0.00122653
-0.00841207
-0.000717081
-0.00858712
-0.000299137
-0.00843238
9.12536e-05
-0.00798815
0.000497392
-0.00724655
0.000888612
-0.00619291
0.00128182
-0.00482646
0.00168668
-0.00320102
0.00209856
-0.00144833
0.00241028
0.000323683
0.00221312
0.00169427
0.00126472
0.00211812
0.0004522
0.00224301
0.000110151
0.00221684
-4.05622e-05
0.00211455
-9.70221e-05
0.00200892
-0.000115439
0.0019207
-0.000112244
0.00185144
-0.000101725
0.00179663
-8.96795e-05
0.00175152
-7.66724e-05
0.00171482
-6.15433e-05
0.00169046
-4.28482e-05
0.0016883
-1.89907e-05
0.00171597
1.66898e-05
0.001789
6.46111e-05
0.00191569
0.000111776
0.0020825
0.000137468
0.00225157
0.000111014
0.00236761
9.71093e-06
0.00237807
-0.000139276
0.00224982
-0.000330493
0.00193786
-0.000561951
0.00115418
-0.000917744
-0.00131054
0.00474238
-0.00210561
-0.00121752
-0.00428584
-0.00625726
-0.00752335
-0.00827951
-0.00861735
-0.00856446
-0.00810509
-0.00725412
-0.00600951
-0.00435954
-0.00229708
7.78798e-05
0.00225821
0.00349156
0.00391262
0.00399177
0.00392058
0.00379378
0.0036496
0.00350963
0.00338106
0.00326525
0.00316307
0.00307655
0.00300924
0.00296633
0.00295972
0.00300178
0.00309177
0.00320813
0.00329848
0.00328767
0.00312794
0.00277695
0.00219428
0.00125649
)
;

boundaryField
{
    floor
    {
        type            calculated;
        value           nonuniform List<scalar> 
29
(
0
0
0
0
0
0
0
0
0
0
0
0
0
0
0
0
0
0
0
0
-3.99878e-06
-9.87609e-06
-1.30372e-05
-9.61048e-06
5.03587e-07
-4.71386e-06
-1.0659e-05
-9.32035e-06
-3.36409e-06
)
;
    }
    ceiling
    {
        type            calculated;
        value           nonuniform List<scalar> 
43
(
6.03946e-05
5.10309e-05
2.96452e-05
4.08073e-05
4.00642e-05
3.96504e-05
3.91808e-05
3.88019e-05
3.84685e-05
3.81232e-05
3.77484e-05
3.73168e-05
3.68125e-05
3.62092e-05
3.54283e-05
3.28929e-05
3.14621e-05
3.12349e-05
3.11048e-05
3.0715e-05
2.98624e-05
2.88161e-05
2.77991e-05
2.69213e-05
2.61977e-05
2.55937e-05
2.50581e-05
2.45431e-05
2.40116e-05
2.33944e-05
2.26491e-05
2.18827e-05
2.12127e-05
2.07582e-05
2.06207e-05
2.05533e-05
2.05997e-05
2.08086e-05
2.01462e-05
2.15174e-05
1.24895e-05
1.01715e-05
1.73972e-05
)
;
    }
    sWall
    {
        type            calculated;
        value           uniform -0.000148652;
    }
    nWall
    {
        type            calculated;
        value           nonuniform List<scalar> 6(-3.41594e-05 -3.97548e-05 -4.71666e-05 -4.65701e-05 -5.4227e-05 -7.54699e-05);
    }
    sideWalls
    {
        type            empty;
        value           nonuniform 0();
    }
    glass1
    {
        type            calculated;
        value           nonuniform List<scalar> 9(-3.22068e-05 -9.17906e-05 -0.000149029 -0.000205625 -0.000262275 -0.00031925 -0.000375689 -0.000429836 -0.00047813);
    }
    glass2
    {
        type            calculated;
        value           nonuniform List<scalar> 2(-0.000195994 -0.000210859);
    }
    sun
    {
        type            calculated;
        value           uniform 0;
    }
    heatsource1
    {
        type            calculated;
        value           nonuniform List<scalar> 3(2.02496e-07 2.02588e-07 2.02806e-07);
    }
    heatsource2
    {
        type            calculated;
        value           nonuniform List<scalar> 4(4.95503e-08 4.99973e-08 0 0);
    }
    Table_master
    {
        type            calculated;
        value           nonuniform List<scalar> 9(-1.53627e-07 -1.53691e-07 -1.53752e-07 -1.53817e-07 -1.53741e-07 -1.53575e-07 -1.53464e-07 -1.53378e-07 -1.53288e-07);
    }
    Table_slave
    {
        type            calculated;
        value           nonuniform List<scalar> 9(1.52549e-07 1.52538e-07 1.52541e-07 1.52561e-07 1.52592e-07 1.52628e-07 1.52667e-07 1.52713e-07 1.52753e-07);
    }
    inlet
    {
        type            calculated;
        value           uniform -0.000108663;
    }
    outlet
    {
        type            calculated;
        value           nonuniform List<scalar> 2(-0.00465393 0.00679715);
    }
}


// ************************************************************************* //
