/*--------------------------------*- C++ -*----------------------------------*\
  =========                 |
  \\      /  F ield         | OpenFOAM: The Open Source CFD Toolbox
   \\    /   O peration     | Website:  https://openfoam.org
    \\  /    A nd           | Version:  6
     \\/     M anipulation  |
\*---------------------------------------------------------------------------*/
FoamFile
{
    version     2.0;
    format      ascii;
    class       volScalarField;
    location    "590";
    object      nut;
}
// * * * * * * * * * * * * * * * * * * * * * * * * * * * * * * * * * * * * * //

dimensions      [0 2 -1 0 0 0 0];

internalField   nonuniform List<scalar> 
459
(
0.000775487
0.000856691
0.000889144
0.000937391
0.000983063
0.00102852
0.00107703
0.00111895
0.0011496
0.00116243
0.00115012
0.00110089
0.000972927
0.000822862
0.000702494
0.000427569
0.000612443
0.000642928
0.000653627
0.000651276
0.000636746
0.000604732
0.000569072
0.000535644
0.000505446
0.00047836
0.000454195
0.000432338
0.000412174
0.000392957
0.000373608
0.000352276
0.000319487
0.000282353
0.00100379
0.00245924
0.00237692
0.0027526
0.00315278
0.00353724
0.00382408
0.00412661
0.00442933
0.00470189
0.00490134
0.00497767
0.00482481
0.00434007
0.00287201
0.000874521
0.000686843
0.000643127
0.00205536
0.00216957
0.00247553
0.00266663
0.00258299
0.00187823
0.00158352
0.00139044
0.00124806
0.00113688
0.00104058
0.000953484
0.000870007
0.00078687
0.000714052
0.000667749
0.000541631
0.000339837
0.00119467
0.00331532
0.00297036
0.00345675
0.00371724
0.00391352
0.00407243
0.00429881
0.00460815
0.0049959
0.00540525
0.00575741
0.00588061
0.0056578
0.00482259
0.00312595
0.00085349
0.000749411
0.00175015
0.00250317
0.00310748
0.00345892
0.00316406
0.000815688
0.000717377
0.000638516
0.00057562
0.000525118
0.000484395
0.000451447
0.000425153
0.000405692
0.00046106
0.000561859
0.000576668
0.000369375
0.00137635
0.00403546
0.00297423
0.00352859
0.00358929
0.00358258
0.00364185
0.00380738
0.00411802
0.00459588
0.00514739
0.00566067
0.00594937
0.00600418
0.00571391
0.00473029
0.00256916
0.000985207
0.00146679
0.00227546
0.00320661
0.00394187
0.00431117
0.00385005
0.000893313
0.000818899
0.000770497
0.000736956
0.000710639
0.00068545
0.000658081
0.000629501
0.000595441
0.000564451
0.000576782
0.000637726
0.000416104
0.00156298
0.00495722
0.00303145
0.003413
0.00341956
0.00329907
0.00331567
0.00344839
0.00376089
0.0043065
0.00492725
0.00544786
0.00577641
0.0059171
0.00587978
0.00552599
0.00472038
0.00432025
0.0045878
0.00498452
0.00531545
0.00548569
0.00546431
0.00516231
0.00422423
0.00383142
0.00364404
0.00353185
0.00343136
0.00330011
0.00306881
0.00269137
0.0022013
0.00167673
0.00125245
0.00104254
0.000705662
0.00048555
0.000494857
0.000519698
0.00176575
0.00605107
0.00379726
0.00331503
0.0034207
0.00331263
0.00325435
0.00334065
0.00365404
0.0042128
0.00486264
0.00539779
0.00570689
0.00582921
0.00588852
0.00595201
0.00598169
0.00622116
0.00646071
0.00657463
0.00652634
0.00633062
0.00602736
0.0056548
0.00524238
0.00496584
0.00479283
0.00466567
0.00454253
0.00439161
0.00418447
0.00385297
0.00338553
0.00280546
0.00221071
0.00176087
0.00133686
0.0010386
0.00113686
0.000702856
0.00196625
0.00691692
0.0053103
0.00388538
0.00370255
0.00358594
0.00339357
0.00338644
0.00370063
0.00430852
0.00500758
0.0055586
0.00584703
0.00595219
0.00608535
0.0063914
0.0067635
0.00708383
0.00719709
0.00708222
0.0067822
0.00636399
0.00590165
0.00546986
0.00513499
0.0049295
0.00480659
0.00471322
0.00461213
0.00447854
0.00430778
0.00411127
0.00383551
0.00342897
0.00293818
0.00246292
0.00199728
0.00162759
0.00151587
0.000839082
0.00202201
0.0065413
0.00556272
0.00480292
0.00438355
0.0038362
0.00344782
0.0034411
0.00387074
0.00460848
0.00537512
0.00592041
0.00617399
0.00628092
0.00645373
0.00673436
0.00697236
0.00709236
0.007
0.00669783
0.00625382
0.00576134
0.00530469
0.00494334
0.00469842
0.0045477
0.00444624
0.00435777
0.00425539
0.00412224
0.00397121
0.0038504
0.00379363
0.00365674
0.00340412
0.00314269
0.00287847
0.00247556
0.00262315
0.00112753
0.00198793
0.00238194
0.00261774
0.00269665
0.00266209
0.00266
0.00284718
0.0033754
0.00424118
0.0052194
0.00599774
0.00642146
0.00655372
0.00658978
0.00650586
0.00642335
0.00639512
0.00633107
0.0061394
0.00581144
0.00542497
0.00506055
0.00476027
0.00453196
0.00435863
0.00421368
0.00407468
0.00392751
0.00375614
0.00353738
0.00326825
0.0029908
0.00274472
0.00254576
0.00236561
0.00219195
0.00202955
0.0018804
0.00177321
0.00115831
0.000808984
0.00133941
0.0018726
0.00255818
0.00352773
0.00461949
0.00568137
0.00644663
0.00675636
0.00672753
0.00644783
0.00612068
0.00589595
0.00578196
0.00570824
0.0056129
0.00547107
0.00528941
0.00509168
0.00491193
0.00475681
0.00461623
0.00447022
0.00429772
0.00408367
0.00382407
0.00352759
0.00321071
0.00288939
0.00258827
0.00236014
0.00220401
0.00209792
0.00201662
0.00192829
0.00180681
0.00167465
0.00117012
0.00115924
0.0028069
0.00413236
0.00542178
0.00622697
0.00674829
0.00721674
0.00730785
0.00700124
0.00649609
0.0060496
0.00576517
0.0056256
0.00556989
0.00555072
0.00554025
0.00552462
0.00549714
0.00545246
0.00538878
0.00533283
0.00528489
0.00523086
0.00514733
0.00500568
0.00478032
0.00446086
0.00406342
0.00364578
0.00323942
0.00288363
0.0025982
0.00238914
0.00223935
0.00211378
0.00200762
0.0024516
0.0012536
0.0013151
0.00137579
0.00143028
0.00165369
0.00166453
0.00161833
0.00158051
0.00158408
0.00156505
0.00151792
0.0014591
0.00139599
0.00134908
0.0013235
0.00131169
0.00130719
0.00130555
0.00130381
0.00130057
0.00129593
0.00129131
0.00128893
0.00128601
0.00128068
0.00127037
0.00125241
0.00122521
0.00118973
0.00115077
0.00111644
0.00108826
0.00106979
0.00106111
0.00106258
0.00107366
0.0010916
0.00110874
0.00109863
0.0010637
0.00102756
)
;

boundaryField
{
    floor
    {
        type            nutkWallFunction;
        Cmu             0.09;
        kappa           0.41;
        E               9.8;
        value           nonuniform List<scalar> 
29
(
8.50377e-05
5.0397e-05
7.39118e-05
7.76992e-05
7.90231e-05
7.87324e-05
7.6933e-05
7.29507e-05
6.84847e-05
6.42672e-05
6.04293e-05
5.6963e-05
5.38498e-05
5.10162e-05
4.8386e-05
4.58642e-05
4.33094e-05
4.04728e-05
3.60692e-05
3.10106e-05
3.10105e-05
3.88083e-05
4.27474e-05
4.88987e-05
8.50377e-05
5.0397e-05
7.77238e-05
9.07646e-05
0.000118967
)
;
    }
    ceiling
    {
        type            nutkWallFunction;
        Cmu             0.09;
        kappa           0.41;
        E               9.8;
        value           nonuniform List<scalar> 
43
(
0.000157157
0.000164057
0.000170225
0.000195261
0.000196474
0.000191339
0.000187123
0.000187524
0.000185398
0.000180118
0.000173503
0.000166371
0.000161048
0.000158137
0.000156791
0.000156277
0.00015609
0.000155892
0.000155522
0.000154992
0.000154464
0.000154192
0.000153859
0.000153249
0.000152069
0.000150012
0.00014689
0.000142804
0.000138303
0.000134322
0.000131044
0.00012889
0.000127877
0.000128048
0.000129341
0.000131432
0.000133426
0.00013225
0.000128179
0.00012395
0.000232082
0.000274608
0.000139257
)
;
    }
    sWall
    {
        type            nutkWallFunction;
        Cmu             0.09;
        kappa           0.41;
        E               9.8;
        value           uniform 0.000157174;
    }
    nWall
    {
        type            nutkWallFunction;
        Cmu             0.09;
        kappa           0.41;
        E               9.8;
        value           nonuniform List<scalar> 6(6.22283e-05 8.50775e-05 0.0001016 0.000140551 0.00015016 0.000123957);
    }
    sideWalls
    {
        type            empty;
    }
    glass1
    {
        type            nutkWallFunction;
        Cmu             0.09;
        kappa           0.41;
        E               9.8;
        value           nonuniform List<scalar> 9(9.39298e-05 0.000121186 0.00014342 0.000164211 0.000185251 0.0002078 0.000229821 0.000235903 0.000232192);
    }
    glass2
    {
        type            nutkWallFunction;
        Cmu             0.09;
        kappa           0.41;
        E               9.8;
        value           nonuniform List<scalar> 2(0.00013564 0.000139208);
    }
    sun
    {
        type            nutkWallFunction;
        Cmu             0.09;
        kappa           0.41;
        E               9.8;
        value           nonuniform List<scalar> 
14
(
9.39305e-05
0.000103708
0.000107585
0.000113319
0.000118715
0.000124058
0.000129729
0.000134608
0.00013816
0.000139644
0.00013822
0.000132507
0.000117519
9.9648e-05
)
;
    }
    heatsource1
    {
        type            nutkWallFunction;
        Cmu             0.09;
        kappa           0.41;
        E               9.8;
        value           nonuniform List<scalar> 3(5.78789e-05 5.90706e-05 6.22374e-05);
    }
    heatsource2
    {
        type            nutkWallFunction;
        Cmu             0.09;
        kappa           0.41;
        E               9.8;
        value           nonuniform List<scalar> 4(0.000105841 8.31162e-05 8.31162e-05 0.000103325);
    }
    Table_master
    {
        type            nutkWallFunction;
        Cmu             0.09;
        kappa           0.41;
        E               9.8;
        value           nonuniform List<scalar> 9(9.87862e-05 8.68584e-05 7.715e-05 6.93035e-05 6.29276e-05 5.77314e-05 5.34875e-05 5.00729e-05 4.75286e-05);
    }
    Table_slave
    {
        type            nutkWallFunction;
        Cmu             0.09;
        kappa           0.41;
        E               9.8;
        value           nonuniform List<scalar> 9(0.000108085 9.9173e-05 9.33256e-05 8.92481e-05 8.60336e-05 8.29434e-05 7.95703e-05 7.603e-05 7.17854e-05);
    }
    inlet
    {
        type            calculated;
        value           uniform 0.000100623;
    }
    outlet
    {
        type            calculated;
        value           nonuniform List<scalar> 2(0.0013151 0.00137579);
    }
}


// ************************************************************************* //
