/*--------------------------------*- C++ -*----------------------------------*\
  =========                 |
  \\      /  F ield         | OpenFOAM: The Open Source CFD Toolbox
   \\    /   O peration     | Website:  https://openfoam.org
    \\  /    A nd           | Version:  6
     \\/     M anipulation  |
\*---------------------------------------------------------------------------*/
FoamFile
{
    version     2.0;
    format      ascii;
    class       surfaceScalarField;
    location    "120";
    object      phi;
}
// * * * * * * * * * * * * * * * * * * * * * * * * * * * * * * * * * * * * * //

dimensions      [1 0 -1 0 0 0 0];

internalField   nonuniform List<scalar> 
852
(
-0.0025184
0.0025493
-0.00364518
0.00112672
-0.00430258
0.00065734
-0.0045469
0.000244265
-0.00432734
-0.000219617
-0.00359445
-0.000732948
-0.00240111
-0.00119339
-0.000946448
-0.00145471
0.000452392
-0.00139888
0.00150155
-0.0010492
0.00217873
-0.000677228
0.00247279
-0.000294106
0.00235591
0.000116834
0.00170049
0.000655362
0.00169772
-0.000382519
0.000377983
-0.000730866
0.00034822
-0.000408892
-0.000322084
0.000236669
-0.000645665
0.00084942
-0.000612853
0.00132424
-0.000474923
0.00160695
-0.000282812
0.00174472
-0.000137875
0.00182562
-8.10055e-05
0.00188172
-5.61961e-05
0.00191986
-3.82529e-05
0.00194217
-2.24133e-05
0.00194487
-2.80906e-06
0.00191302
3.17498e-05
0.00181019
0.000102723
0.00157233
0.00023775
0.00113657
0.000435647
0.000398707
0.000737744
0.000392704
-0.00184094
0.00447606
-0.00281949
0.00210521
-0.00345978
0.00129757
-0.00371427
0.000498692
-0.00351976
-0.000414185
-0.00285221
-0.00140055
-0.00181977
-0.00222588
-0.00065034
-0.00262419
0.000417425
-0.00246669
0.00128271
-0.00191452
0.00187572
-0.00127028
0.00220531
-0.000623741
0.00230236
1.97404e-05
0.00229264
0.000665031
0.00268886
0.00130144
0.00136169
0.00132707
0.00136158
-0.00014574
0.000512451
0.00016556
3.67947e-05
0.000667187
-0.000823814
0.0010695
-0.00104807
0.00141272
-0.000956171
0.00167384
-0.00073614
0.00173916
-0.000348237
0.0017552
-0.000154018
0.00177144
-9.73467e-05
0.00178522
-7.00704e-05
0.00179526
-4.83942e-05
0.00180249
-2.97475e-05
0.00180542
-5.84286e-06
0.00179775
3.9323e-05
0.0017423
0.00015807
0.00152128
0.00045866
0.00114713
0.000809685
0.00064702
0.00123774
0.00102312
-0.00131782
0.00592811
-0.00210293
0.00289025
-0.00266229
0.00185686
-0.00288899
0.000725324
-0.00268854
-0.000614693
-0.00204209
-0.00204706
-0.00112764
-0.00314037
-0.000185699
-0.00356617
0.000631945
-0.00328438
0.00129948
-0.00258209
0.00177764
-0.00174848
0.00206954
-0.000915681
0.00221825
-0.000129013
0.00227616
0.000607078
0.00226256
0.00131499
0.00168932
0.00190025
0.00305084
0.000266663
0.000228716
0.00125096
-0.000947598
0.00164903
-0.00122197
0.00184241
-0.00124155
0.00198486
-0.00109871
0.00216341
-0.000914793
0.00181522
0.00166125
0.00156396
0.00149393
0.00144559
0.00141589
0.0014101
0.00144947
0.00160758
0.00137745
0.000688683
0.00113602
0.00105101
0.000793396
0.00158024
0.00179015
-0.000932371
0.00703761
-0.00150006
0.00345788
-0.00187477
0.0022315
-0.00199937
0.000849853
-0.00170509
-0.000909037
-0.00104841
-0.0027038
-0.000276501
-0.00391234
0.000412381
-0.0042551
0.000989119
-0.00386115
0.00145178
-0.00304479
0.00177727
-0.00207401
0.00197898
-0.00111744
0.00210024
-0.000250314
0.00219084
0.000516432
0.00231871
0.00118707
0.00255201
0.00166689
0.00368807
0.00191473
0.00281898
0.000854171
0.00308983
-4.21968e-05
0.00280827
-0.000666108
0.00261343
-0.00102721
0.00245684
-0.00108505
0.00232411
-0.000966083
0.00212675
-0.000717548
0.00241556
-0.000289072
0.00250575
-9.04646e-05
0.00250226
3.21013e-06
0.00243405
6.79395e-05
0.00231173
0.000122037
0.00214006
0.000171391
0.00191474
0.00022504
0.0016159
0.000298559
0.00119239
0.000423243
0.00114586
0.000735095
0.00108867
0.00110807
0.00104782
0.00162098
0.00280337
-0.0006584
0.00791087
-0.00103224
0.00383165
-0.00110514
0.00230433
-0.000981763
0.000726401
-0.000462861
-0.00142801
0.000167086
-0.0033338
0.00070551
-0.00445081
0.00111195
-0.00466159
0.0014205
-0.00416974
0.00163295
-0.00325728
0.00175375
-0.00219485
0.00181432
-0.00117805
0.00186524
-0.000301281
0.00196429
0.000417329
0.00218086
0.00097044
0.00254333
0.00130436
0.00308917
0.00136883
0.00323595
0.00070733
0.00318105
1.26292e-05
0.00297515
-0.000460283
0.00268716
-0.000739314
0.00240956
-0.000807554
0.00216215
-0.000718796
0.00196273
-0.000518259
0.0019155
-0.000241976
0.00185162
-2.67343e-05
0.00174706
0.000107625
0.00162212
0.000192729
0.0014868
0.000257213
0.00134298
0.000315058
0.00119089
0.000376984
0.00103428
0.000455026
0.00090052
0.000556867
0.000907931
0.000727554
0.00110708
0.000908793
0.00176158
0.000966357
0.00306254
0.00150228
0.00199681
0.00106539
0.00121871
0.000777719
0.00124094
-0.000533127
0.00869175
-0.000708796
0.00400724
-0.000317125
0.00191259
0.000319027
9.01759e-05
0.00103538
-0.00214442
0.00152263
-0.00382111
0.00177889
-0.00470712
0.00187133
-0.00475407
0.00184277
-0.00414122
0.00173636
-0.00315092
0.00159289
-0.00205143
0.00146355
-0.00104876
0.00140036
-0.000238144
0.00145032
0.000367307
0.00163899
0.000781699
0.00194948
0.00099381
0.00236149
0.000956746
0.00254899
0.000519751
0.00250847
5.30532e-05
0.0023406
-0.000292513
0.00208807
-0.000486895
0.00181148
-0.000531095
0.00154642
-0.000453882
0.00131987
-0.000291868
0.00115834
-8.06127e-05
0.00102927
0.000102167
0.000913436
0.000223287
0.000805006
0.000300984
0.000703908
0.000358136
0.00061228
0.000406515
0.000536017
0.000453081
0.000488254
0.00050263
0.000491306
0.000553664
0.000604094
0.000614627
0.000847258
0.000665502
0.00117931
0.000634186
0.00160791
0.00107356
0.00151407
0.00115909
0.000962049
0.00132956
0.00222821
-0.000409361
0.0093799
-8.85829e-05
0.00368639
0.00114105
0.000682881
0.00215075
-0.000919595
0.00275741
-0.00275114
0.00300283
-0.00406657
0.0029093
-0.00461362
0.00257726
-0.00442207
0.0021145
-0.0036785
0.00162046
-0.00265693
0.0011715
-0.00160253
0.000841063
-0.000718388
0.00067
-6.71524e-05
0.000681174
0.000356056
0.000849627
0.000613164
0.0011217
0.000721653
0.00142771
0.000650634
0.00157312
0.000374248
0.0015481
7.7949e-05
0.00140144
-0.000145979
0.00117828
-0.000263883
0.000922561
-0.000275536
0.0006688
-0.0002003
0.000443031
-6.629e-05
0.000272369
8.98518e-05
0.000156488
0.000217844
7.43787e-05
0.000305192
1.03497e-05
0.000364809
-3.93428e-05
0.000407628
-7.16679e-05
0.000438644
-7.83961e-05
0.000459621
-4.54565e-05
0.000469513
4.31777e-05
0.000464867
0.000203743
0.000453913
0.000409139
0.000459978
0.000584421
0.000458794
0.000894377
0.000763492
0.00122386
0.000829464
0.00107161
0.00148162
0.0033274
0.00230318
0.00739039
0.00311206
0.00287745
0.00379613
-1.26686e-06
0.00463158
-0.0017551
0.00491298
-0.00303259
0.0046247
-0.00377832
0.00392023
-0.00390919
0.00298727
-0.00348915
0.00199056
-0.00268186
0.00108638
-0.00175282
0.00036601
-0.000882236
-8.32984e-05
-0.000269162
-0.000264462
0.000113923
-0.000237257
0.000328752
-7.83825e-05
0.000454183
0.000146661
0.000496495
0.000359746
0.000437426
0.000454311
0.000279547
0.000422883
0.000109227
0.00029102
-1.42798e-05
9.3697e-05
-6.67416e-05
-0.00013075
-5.12883e-05
-0.000347088
1.58246e-05
-0.000520867
0.000107263
-0.000630207
0.000198958
-0.000688292
0.000275693
-0.000716914
0.000333579
-0.000727085
0.000374749
-0.000721214
0.000401532
-0.000696671
0.000413884
-0.000646839
0.000409583
-0.000561978
0.00038446
-0.000434235
0.000336947
-0.00026984
0.000289361
-0.000115372
0.000305373
-7.42299e-05
0.000417525
-4.98887e-05
0.000739025
-0.000265442
0.00104485
-0.000706113
0.00192205
0.00272762
0.00771255
0.0105654
0.00952945
0.00103465
0.00858968
-0.000815359
0.00737297
-0.0018159
0.00584794
-0.0022533
0.00416912
-0.0022304
0.00252487
-0.00184495
0.00103452
-0.00119159
-0.000116153
-0.000602237
-0.000835519
-0.000162967
-0.00117389
6.91006e-05
-0.00126358
0.000203501
-0.00121552
0.000280566
-0.00109117
0.000329695
-0.000939404
0.000344581
-0.000815072
0.000312933
-0.000773355
0.000237655
-0.000820404
0.000156088
-0.000934214
9.93308e-05
-0.00108364
8.24653e-05
-0.00123638
0.000101219
-0.00136088
0.000140079
-0.00144107
0.000187193
-0.00147773
0.000235353
-0.00148048
0.000278179
-0.00146001
0.000312846
-0.00142383
0.000338313
-0.00137686
0.000354317
-0.00132466
0.000361447
-0.00127751
0.000362203
-0.00125622
0.000362958
-0.00129776
0.000378274
-0.00144777
0.000439171
-0.00173798
0.000595381
-0.00223069
0.000910024
-0.00295622
0.00146432
-0.00402707
0.00211544
-0.00432876
0.00222348
-0.00150532
0.00623642
0.00120001
0.00518809
0.000232991
0.00410879
-0.000736601
0.00276004
-0.000904595
0.00127427
-0.00074469
-0.000142465
-0.0004283
-0.00123563
-9.85305e-05
-0.00188762
4.96501e-05
-0.00219327
0.000142573
-0.00230198
0.000177671
-0.00229684
0.000198218
-0.00223718
0.000220753
-0.00215104
0.000243389
-0.00206342
0.000256775
-0.00200197
0.000251286
-0.00199001
0.000225476
-0.00202653
0.00019238
-0.00209376
0.000166329
-0.00216721
0.000155663
-0.00222625
0.000159989
-0.00226033
0.000173887
-0.00226651
0.000193098
-0.00224643
0.000214998
-0.00220499
0.000236463
-0.00214741
0.000254988
-0.00207826
0.000268891
-0.00200192
0.000277716
-0.00192372
0.00028299
-0.00185119
0.000289425
-0.00179506
0.000306593
-0.00176781
0.000350781
-0.00177549
0.000446612
-0.00180937
0.00062902
-0.00184657
0.000946974
-0.0018224
0.00143989
-0.00156931
0.00186207
-0.000441422
0.00109528
-0.00193052
0.000259164
0.000929556
0.000123434
0.000368651
-0.000615541
2.31283e-06
-0.00147902
-4.11917e-05
-0.00225826
3.44681e-05
-0.00282038
0.000133723
-0.00311371
0.000194679
-0.00325996
0.000195779
-0.00330173
0.000184207
-0.00328906
0.000164842
-0.0032443
0.000153297
-0.00317736
0.000153636
-0.00309655
0.00016239
-0.00301277
0.000172794
-0.00293973
0.00017803
-0.00288911
0.000174621
-0.00286224
0.000165266
-0.00285114
0.000154983
-0.00284357
0.000147831
-0.00282884
0.000144992
-0.002801
0.000145777
-0.00275773
0.000149549
-0.0026987
0.00015568
-0.00262547
0.000162953
-0.00254097
0.000170208
-0.00244911
0.000176757
-0.00235439
0.000182722
-0.002261
0.000189332
-0.00217112
0.000199277
-0.00208189
0.000217091
-0.00198102
0.000249644
-0.0018419
0.000307234
-0.00161768
0.000404527
-0.00122008
0.000549097
-0.000458335
0.000677854
0.000743673
0.000659763
0.00165703
0.000181608
-0.000257263
-0.00528008
-0.00600048
-0.00510757
-0.00477693
-0.0048165
-0.00490248
-0.00491591
-0.0048332
-0.00469257
-0.00455322
-0.00442693
-0.00432086
-0.00422679
-0.00413259
-0.00402978
-0.00391671
-0.00379864
-0.00368436
-0.00357992
-0.00348628
-0.0034003
-0.00331757
-0.00323439
-0.00314769
-0.00305501
-0.00295519
-0.00284822
-0.00273485
-0.00261576
-0.00249045
-0.00235584
-0.00220437
-0.00202169
-0.00178312
-0.00144924
-0.000972961
-0.000370196
0.000212493
0.000319213
)
;

boundaryField
{
    floor
    {
        type            calculated;
        value           nonuniform List<scalar> 
29
(
0
0
0
0
0
0
0
0
0
0
0
0
0
0
0
0
0
0
0
0
5.86892e-06
1.64682e-05
2.62282e-05
3.44604e-05
2.71955e-06
4.38014e-06
1.1105e-05
1.69137e-05
1.48591e-05
)
;
    }
    ceiling
    {
        type            calculated;
        value           nonuniform List<scalar> 
43
(
4.23368e-05
3.91417e-05
3.65104e-05
3.79102e-05
4.1785e-05
4.4692e-05
4.77871e-05
5.08841e-05
5.39269e-05
5.6286e-05
5.77654e-05
5.86099e-05
5.90475e-05
5.92563e-05
5.93755e-05
5.95133e-05
5.97481e-05
6.01137e-05
6.05853e-05
6.11001e-05
6.15898e-05
6.20074e-05
6.23331e-05
6.2569e-05
6.27326e-05
6.28517e-05
6.29614e-05
6.31057e-05
6.33407e-05
6.37372e-05
6.43764e-05
6.53365e-05
6.66685e-05
6.83655e-05
7.03482e-05
7.25064e-05
7.47772e-05
7.6764e-05
7.45668e-05
7.72965e-05
2.90618e-05
2.44949e-05
1.12365e-05
)
;
    }
    sWall
    {
        type            calculated;
        value           uniform -0.000114189;
    }
    nWall
    {
        type            calculated;
        value           nonuniform List<scalar> 6(-2.27183e-05 -2.55097e-05 -2.78638e-05 -1.65443e-05 -1.65443e-05 -1.56329e-05);
    }
    sideWalls
    {
        type            empty;
        value           nonuniform 0();
    }
    glass1
    {
        type            calculated;
        value           nonuniform List<scalar> 9(-3.0963e-05 -8.58779e-05 -0.000134293 -0.000177194 -0.00021492 -0.000247819 -0.000278857 -0.000313737 -0.000351288);
    }
    glass2
    {
        type            calculated;
        value           nonuniform List<scalar> 2(-0.000106644 -9.60971e-05);
    }
    sun
    {
        type            calculated;
        value           uniform 0;
    }
    heatsource1
    {
        type            calculated;
        value           nonuniform List<scalar> 3(2.01601e-07 2.02033e-07 2.02292e-07);
    }
    heatsource2
    {
        type            calculated;
        value           nonuniform List<scalar> 4(5.06581e-08 5.08324e-08 0 0);
    }
    Table_master
    {
        type            calculated;
        value           nonuniform List<scalar> 9(-1.51636e-07 -1.51818e-07 -1.51869e-07 -1.51896e-07 -1.5191e-07 -1.51915e-07 -1.51911e-07 -1.51887e-07 -1.51821e-07);
    }
    Table_slave
    {
        type            calculated;
        value           nonuniform List<scalar> 9(1.51333e-07 1.51361e-07 1.51342e-07 1.51325e-07 1.5133e-07 1.51354e-07 1.51395e-07 1.51456e-07 1.51545e-07);
    }
    inlet
    {
        type            calculated;
        value           uniform -0.00640175;
    }
    outlet
    {
        type            calculated;
        value           nonuniform List<scalar> 2(0.00535182 0.000681123);
    }
}


// ************************************************************************* //
