/*--------------------------------*- C++ -*----------------------------------*\
  =========                 |
  \\      /  F ield         | OpenFOAM: The Open Source CFD Toolbox
   \\    /   O peration     | Website:  https://openfoam.org
    \\  /    A nd           | Version:  6
     \\/     M anipulation  |
\*---------------------------------------------------------------------------*/
FoamFile
{
    version     2.0;
    format      ascii;
    class       volScalarField;
    location    "500";
    object      epsilon;
}
// * * * * * * * * * * * * * * * * * * * * * * * * * * * * * * * * * * * * * //

dimensions      [0 2 -3 0 0 0 0];

internalField   nonuniform List<scalar> 
459
(
0.000429376
0.000557449
0.000586447
0.000673899
0.000761946
0.000850454
0.000942753
0.00104278
0.0011198
0.00115756
0.0011413
0.00106478
0.000936236
0.000780732
0.000633346
3.5916e-05
6.64914e-05
9.26813e-05
8.88862e-05
7.90944e-05
6.80196e-05
5.62396e-05
4.61233e-05
3.80671e-05
3.17375e-05
2.67413e-05
2.27567e-05
1.95647e-05
1.69569e-05
1.47613e-05
1.2824e-05
1.09914e-05
9.87575e-06
7.5288e-06
0.00109935
0.00159719
0.000528859
0.000511618
0.000535084
0.000572358
0.00062624
0.000700316
0.000773808
0.000825163
0.000834619
0.000792776
0.000704381
0.000591681
0.000519427
0.000662061
0.000151589
4.72786e-05
0.000114877
0.000117208
0.000104044
8.70094e-05
7.17897e-05
6.34141e-05
5.14124e-05
4.0953e-05
3.26487e-05
2.62124e-05
2.12414e-05
1.74164e-05
1.44746e-05
1.2322e-05
1.10324e-05
1.04842e-05
2.53503e-05
1.7485e-05
0.00201847
0.00395411
0.000666356
0.000491167
0.000512071
0.000570999
0.000657751
0.000769834
0.000879628
0.000954766
0.000974862
0.000935278
0.000845525
0.000723734
0.000618433
0.000556722
0.000608154
0.000389745
0.000263931
0.000192487
0.000145118
0.00011236
9.29575e-05
0.000164573
0.00011423
8.21812e-05
6.11766e-05
4.69638e-05
3.70504e-05
2.99583e-05
2.48018e-05
2.10663e-05
1.60587e-05
1.34221e-05
4.5859e-05
2.74156e-05
0.00328621
0.00823587
0.00107914
0.000504495
0.00050385
0.000586921
0.000719364
0.000893
0.00104276
0.00112848
0.00114167
0.00108803
0.000982675
0.00083654
0.000700776
0.000598352
0.000567745
0.00108426
0.000591786
0.000348424
0.000229898
0.000163671
0.00012349
0.000104761
0.000235093
0.000178854
0.000144919
0.000122328
0.000105114
9.05797e-05
7.79587e-05
6.60064e-05
5.36864e-05
3.18878e-05
2.08729e-05
7.23273e-05
3.71742e-05
0.00503667
0.0146716
0.00217113
0.000622388
0.000529176
0.000633986
0.000862201
0.00113669
0.00131031
0.00137812
0.00136039
0.00127446
0.00113321
0.000954068
0.000766948
0.000597475
0.000466335
0.000400448
0.000316622
0.000243502
0.000186709
0.000144827
0.000114992
9.61787e-05
9.30928e-05
8.69695e-05
8.08377e-05
7.47868e-05
6.83453e-05
6.13399e-05
5.44086e-05
4.7877e-05
4.18985e-05
3.35293e-05
2.56564e-05
5.28803e-05
4.15544e-05
7.03017e-05
0.000124173
0.000175157
0.0074715
0.0217371
0.00490115
0.0012531
0.000832841
0.000928035
0.00136661
0.00165555
0.00175663
0.00174711
0.0016692
0.00153339
0.00134114
0.00110625
0.000858277
0.000631548
0.000454984
0.000340003
0.000265098
0.00020887
0.000164027
0.000130136
0.000106363
9.17476e-05
8.54602e-05
8.31423e-05
8.18222e-05
7.99036e-05
7.63342e-05
7.02255e-05
6.14766e-05
5.23553e-05
4.40295e-05
3.65893e-05
3.16519e-05
4.09644e-05
4.27758e-05
5.34223e-05
0.000228827
0.000198717
0.0102878
0.0259472
0.0100463
0.00410361
0.00275986
0.00257889
0.00270376
0.0026338
0.00247515
0.00229581
0.00210467
0.00188106
0.00160723
0.00129167
0.000968335
0.000679233
0.000460638
0.000320423
0.000235988
0.000180939
0.000141575
0.000114446
9.77016e-05
8.95715e-05
8.81567e-05
9.04832e-05
9.39742e-05
9.7325e-05
9.94741e-05
9.877e-05
9.20253e-05
8.10553e-05
7.02154e-05
6.10283e-05
5.72466e-05
6.35909e-05
8.05138e-05
0.000128632
0.00030011
0.000290942
0.0109123
0.0282528
0.0157424
0.0107293
0.00802729
0.00626892
0.00493971
0.00402729
0.0034233
0.00300648
0.0026657
0.00231692
0.00191763
0.00148121
0.00105538
0.000689009
0.000429798
0.000276164
0.000190257
0.000144588
0.000116435
9.97456e-05
9.17216e-05
9.03331e-05
9.38586e-05
0.000100673
0.000109743
0.000120882
0.000134224
0.000149647
0.000166068
0.00017581
0.000183973
0.000202484
0.000241789
0.000361364
0.000666212
0.00126521
0.00375296
0.00111566
0.0100693
0.0168325
0.0134212
0.0101801
0.00783038
0.00625064
0.00522301
0.00456976
0.00412814
0.00374872
0.00332387
0.00280179
0.00218443
0.00155401
0.000998425
0.000552827
0.000309962
0.000198736
0.000142779
0.000112732
9.60003e-05
8.7887e-05
8.59478e-05
8.8628e-05
9.49346e-05
0.000104355
0.000116978
0.000133547
0.000155399
0.000184445
0.000223222
0.000275373
0.000346887
0.000454859
0.000614441
0.000832251
0.00108344
0.0013049
0.00147514
0.000925885
0.00380114
0.00585389
0.00659259
0.00663046
0.00639107
0.00598153
0.00537424
0.00457854
0.00365882
0.00267939
0.00165833
0.000918722
0.000502615
0.000278152
0.000171661
0.000122318
9.77321e-05
8.47259e-05
7.81356e-05
7.5711e-05
7.61967e-05
7.89592e-05
8.38201e-05
9.09039e-05
0.000100702
0.000114109
0.0001325
0.000157909
0.000193363
0.000243382
0.00031299
0.0004091
0.000535373
0.000680969
0.000808658
0.000867547
0.000824948
0.000527888
0.00286792
0.00639784
0.00710345
0.00585104
0.00524866
0.00460343
0.00371651
0.00276741
0.00192005
0.00124955
0.000754091
0.000431715
0.000254592
0.000166263
0.000125908
0.000108069
0.000100081
9.64083e-05
9.47398e-05
9.41846e-05
9.45019e-05
9.58632e-05
9.87454e-05
0.000103495
0.000110614
0.000120888
0.000135531
0.000156391
0.000186196
0.000228427
0.000287671
0.000368572
0.000471736
0.00058927
0.000677481
0.000771707
0.000757641
0.000557729
0.00201989
0.00240167
0.00270142
0.00334519
0.00300156
0.00260306
0.00235878
0.00207642
0.00172491
0.0013449
0.000984602
0.000680725
0.000450437
0.000294944
0.000202023
0.00014945
0.000119179
0.000101058
9.00537e-05
8.36313e-05
8.04307e-05
7.96669e-05
8.10545e-05
8.46472e-05
9.01297e-05
9.76857e-05
0.000107692
0.000120714
0.000137629
0.000159877
0.000188231
0.000223905
0.000269025
0.000326286
0.000398178
0.000497003
0.000532197
0.000492953
0.000407976
0.000328997
)
;

boundaryField
{
    floor
    {
        Cmu             0.09;
        kappa           0.41;
        E               9.8;
        type            epsilonWallFunction;
        value           nonuniform List<scalar> 
29
(
0.000633346
3.5916e-05
6.64914e-05
9.26813e-05
8.88862e-05
7.90944e-05
6.80196e-05
5.62396e-05
4.61233e-05
3.80671e-05
3.17375e-05
2.67413e-05
2.27567e-05
1.95647e-05
1.69569e-05
1.47613e-05
1.2824e-05
1.09914e-05
9.87575e-06
7.5288e-06
7.5288e-06
1.7485e-05
2.74156e-05
3.71742e-05
0.000633346
3.5916e-05
4.72786e-05
0.000389745
0.00108426
)
;
    }
    ceiling
    {
        Cmu             0.09;
        kappa           0.41;
        E               9.8;
        type            epsilonWallFunction;
        value           nonuniform List<scalar> 
43
(
0.00201989
0.00240167
0.00270142
0.00334519
0.00300156
0.00260306
0.00235878
0.00207642
0.00172491
0.0013449
0.000984602
0.000680725
0.000450437
0.000294944
0.000202023
0.00014945
0.000119179
0.000101058
9.00537e-05
8.36313e-05
8.04307e-05
7.96669e-05
8.10545e-05
8.46472e-05
9.01297e-05
9.76857e-05
0.000107692
0.000120714
0.000137629
0.000159877
0.000188231
0.000223905
0.000269025
0.000326286
0.000398178
0.000497003
0.000532197
0.000492953
0.000407976
0.000328997
0.0100693
0.0168325
0.00286792
)
;
    }
    sWall
    {
        Cmu             0.09;
        kappa           0.41;
        E               9.8;
        type            epsilonWallFunction;
        value           uniform 0.00201989;
    }
    nWall
    {
        Cmu             0.09;
        kappa           0.41;
        E               9.8;
        type            epsilonWallFunction;
        value           nonuniform List<scalar> 6(0.000175157 0.000198717 0.000290942 0.000527888 0.000557729 0.000328997);
    }
    sideWalls
    {
        type            empty;
    }
    glass1
    {
        Cmu             0.09;
        kappa           0.41;
        E               9.8;
        type            epsilonWallFunction;
        value           nonuniform List<scalar> 9(0.000429376 0.00109935 0.00201847 0.00328621 0.00503667 0.0074715 0.0102878 0.0109123 0.0100693);
    }
    glass2
    {
        Cmu             0.09;
        kappa           0.41;
        E               9.8;
        type            epsilonWallFunction;
        value           nonuniform List<scalar> 2(0.00111566 0.000925885);
    }
    sun
    {
        Cmu             0.09;
        kappa           0.41;
        E               9.8;
        type            epsilonWallFunction;
        value           nonuniform List<scalar> 
14
(
0.000429376
0.000557449
0.000586447
0.000673899
0.000761946
0.000850454
0.000942753
0.00104278
0.0011198
0.00115756
0.0011413
0.00106478
0.000936236
0.000780732
)
;
    }
    heatsource1
    {
        Cmu             0.09;
        kappa           0.41;
        E               9.8;
        type            epsilonWallFunction;
        value           nonuniform List<scalar> 3(7.03017e-05 0.000124173 0.000175157);
    }
    heatsource2
    {
        Cmu             0.09;
        kappa           0.41;
        E               9.8;
        type            epsilonWallFunction;
        value           nonuniform List<scalar> 4(0.000662061 0.000151589 0.000151589 0.000608154);
    }
    Table_master
    {
        Cmu             0.09;
        kappa           0.41;
        E               9.8;
        type            epsilonWallFunction;
        value           nonuniform List<scalar> 9(0.000164573 0.00011423 8.21812e-05 6.11766e-05 4.69638e-05 3.70504e-05 2.99583e-05 2.48018e-05 2.10663e-05);
    }
    Table_slave
    {
        Cmu             0.09;
        kappa           0.41;
        E               9.8;
        type            epsilonWallFunction;
        value           nonuniform List<scalar> 9(0.000235093 0.000178854 0.000144919 0.000122328 0.000105114 9.05797e-05 7.79587e-05 6.60064e-05 5.36864e-05);
    }
    inlet
    {
        type            turbulentMixingLengthDissipationRateInlet;
        mixingLength    0.01;
        phi             phi;
        k               k;
        value           uniform 0.000101881;
    }
    outlet
    {
        type            zeroGradient;
    }
}


// ************************************************************************* //
