/*--------------------------------*- C++ -*----------------------------------*\
  =========                 |
  \\      /  F ield         | OpenFOAM: The Open Source CFD Toolbox
   \\    /   O peration     | Website:  https://openfoam.org
    \\  /    A nd           | Version:  6
     \\/     M anipulation  |
\*---------------------------------------------------------------------------*/
FoamFile
{
    version     2.0;
    format      ascii;
    class       volScalarField;
    location    "100";
    object      alphat;
}
// * * * * * * * * * * * * * * * * * * * * * * * * * * * * * * * * * * * * * //

dimensions      [1 -1 -1 0 0 0 0];

internalField   nonuniform List<scalar> 
459
(
0.00176829
0.00234289
0.002274
0.00215959
0.00204524
0.00193795
0.00183932
0.00174144
0.00163788
0.001521
0.0013775
0.00117009
0.00065163
0.000527031
0.000467441
0.000432137
0.000409022
0.000358967
0.000331844
0.000293201
0.000240892
0.000197612
0.000178994
0.00017443
0.000180463
0.000199357
0.000234219
0.000284218
0.000344561
0.000410482
0.000483703
0.000552254
0.000613466
0.000530514
0.00248773
0.0033754
0.00362945
0.00359001
0.00346462
0.00333344
0.00317242
0.00299305
0.00279909
0.00257556
0.00227476
0.00183578
0.00135897
0.00153781
0.00128941
0.000474368
0.000382071
0.000581457
0.00152577
0.00141727
0.00124742
0.000963149
0.00066029
0.000477872
0.000418815
0.000392962
0.000381856
0.000387152
0.000426426
0.000531263
0.000731922
0.00105308
0.00148268
0.00182736
0.00229578
0.000688979
0.00301804
0.00425053
0.00417696
0.00388359
0.00368895
0.00356543
0.00345731
0.00334888
0.00321525
0.00301575
0.00268604
0.00219506
0.00185801
0.00210785
0.0014058
0.000860504
0.000547868
0.000686388
0.00203954
0.00186631
0.00147174
0.00101989
0.000603313
0.000237601
0.000191706
0.000181107
0.000179826
0.0001853
0.000201317
0.000236808
0.000306357
0.00044141
0.00150948
0.00209087
0.00246807
0.000774249
0.00322103
0.00519179
0.00445009
0.00368782
0.00341757
0.00337889
0.00339245
0.00339204
0.00333364
0.00316835
0.00283302
0.00237934
0.00238511
0.00250884
0.001714
0.00117828
0.000929988
0.000742001
0.00157661
0.00242781
0.00221647
0.00178785
0.00135554
0.000967046
0.000644176
0.000641734
0.000640258
0.000637296
0.000632627
0.000626929
0.00062291
0.000630423
0.000654422
0.00147443
0.00215196
0.00245552
0.000806908
0.00336659
0.00568252
0.00405014
0.00297313
0.00285019
0.00303428
0.00321753
0.00332006
0.00330953
0.00314174
0.00281527
0.00255098
0.00287006
0.00315125
0.00311011
0.00308669
0.00295903
0.00278843
0.00308401
0.00342953
0.00340148
0.00333356
0.00328226
0.00320664
0.00313337
0.00311087
0.00308746
0.00306027
0.00303016
0.00300125
0.00298224
0.00297454
0.00294418
0.00289237
0.00268307
0.00246507
0.00143889
0.000727185
0.000635704
0.000540169
0.0035046
0.00553251
0.00322292
0.00271156
0.00310163
0.00302647
0.00314292
0.00322338
0.00319568
0.00303555
0.00281229
0.00279037
0.00333096
0.00379833
0.00408942
0.00426761
0.0043748
0.00438513
0.00441262
0.00444281
0.00440888
0.00436944
0.00432183
0.00425376
0.00417314
0.00408559
0.00399433
0.00390201
0.00380898
0.0037172
0.00363449
0.00356428
0.00344981
0.00314186
0.00263404
0.00218865
0.00196655
0.00132998
0.00113843
0.000548851
0.00367116
0.00488674
0.00280188
0.0024392
0.00311955
0.00307011
0.00310145
0.00313051
0.00308893
0.0029769
0.00290203
0.00310868
0.00381114
0.00440137
0.00473424
0.00493913
0.0051192
0.00522204
0.00524673
0.00523578
0.00520631
0.0051593
0.00508427
0.004989
0.0048767
0.00475188
0.00462206
0.0044912
0.00435799
0.00421799
0.00407033
0.00391392
0.00368877
0.00321643
0.00250033
0.00189386
0.00158747
0.00136566
0.00112222
0.000585193
0.00390024
0.00457788
0.00366957
0.00209335
0.00310259
0.00322114
0.00317165
0.00314701
0.00310436
0.00306105
0.0031377
0.00354083
0.00435383
0.00482412
0.00499469
0.00520778
0.00545471
0.00564186
0.00574333
0.00578755
0.00580025
0.00577695
0.00572004
0.00563693
0.00553054
0.00540611
0.00527158
0.00513231
0.0049897
0.00483727
0.00466689
0.00447111
0.00420318
0.00366164
0.00275738
0.00195204
0.00146819
0.00125416
0.00120183
0.00116749
0.00427988
0.00501763
0.00704455
0.00383895
0.00319352
0.00379505
0.00363545
0.00348768
0.0034213
0.00344013
0.00365712
0.00422752
0.00490884
0.00504296
0.00521839
0.00552886
0.00583511
0.0060682
0.00621717
0.00630183
0.00634506
0.00635082
0.00632483
0.00627205
0.00619517
0.00609779
0.00598546
0.00586379
0.00573586
0.00560109
0.00545746
0.00530843
0.00517
0.00503811
0.00475398
0.00430613
0.00370875
0.00297394
0.00230984
0.00149302
0.010712
0.00634909
0.00483198
0.00521007
0.0049343
0.00455173
0.0043732
0.00440201
0.00471611
0.00536426
0.00573106
0.00595255
0.00631451
0.00669191
0.00698414
0.00717094
0.00727292
0.00731577
0.00732164
0.00730187
0.0072627
0.00720643
0.00713357
0.00704476
0.00694227
0.00683024
0.00671386
0.00659902
0.00649434
0.00641514
0.00638088
0.00638525
0.00627946
0.00608123
0.00578028
0.00531593
0.00447232
0.00176611
0.00384812
0.00503807
0.00651822
0.00619971
0.00568162
0.00509049
0.00475833
0.00469269
0.00493739
0.005504
0.00607746
0.00669483
0.00727951
0.00773546
0.00803305
0.00817813
0.00822601
0.0082281
0.00821574
0.00820283
0.00819229
0.00818133
0.00816528
0.00813972
0.00810138
0.00804832
0.00798047
0.00790092
0.00781811
0.00774572
0.00769563
0.00766333
0.00761655
0.00749518
0.00725921
0.00681814
0.00604494
0.00218376
0.00157951
0.00160425
0.00243117
0.00179595
0.00172886
0.00161126
0.00157034
0.00154397
0.00152032
0.00151009
0.00152679
0.00157477
0.00163325
0.00169481
0.00175427
0.00180606
0.00184692
0.00187762
0.00189659
0.00190591
0.00190931
0.00191006
0.00191032
0.00191115
0.00191284
0.00191512
0.00191746
0.00191903
0.00191881
0.00191581
0.00190951
0.00190047
0.00189022
0.00187956
0.00186447
0.00183943
0.00180743
0.00176612
0.00172616
0.00155382
)
;

boundaryField
{
    floor
    {
        type            compressible::alphatWallFunction;
        Prt             0.85;
        value           nonuniform List<scalar> 
29
(
6.44218e-05
5.89414e-05
5.53312e-05
4.74066e-05
4.30536e-05
3.67629e-05
2.80528e-05
2.06409e-05
1.73819e-05
1.65713e-05
1.76255e-05
2.09101e-05
2.68695e-05
3.5218e-05
4.50412e-05
5.55187e-05
6.69047e-05
7.73688e-05
8.65754e-05
7.40827e-05
7.40818e-05
9.77799e-05
0.000110248
0.000114981
6.4421e-05
5.89406e-05
8.18071e-05
9.74288e-05
0.000105587
)
;
    }
    ceiling
    {
        type            compressible::alphatWallFunction;
        Prt             0.85;
        value           nonuniform List<scalar> 
43
(
0.00022217
0.000225466
0.000333117
0.000250782
0.000241916
0.000226287
0.000220823
0.000217291
0.000214117
0.000212741
0.000214988
0.000221418
0.00022922
0.0002374
0.000245269
0.000252096
0.000257467
0.000261494
0.00026398
0.000265201
0.000265647
0.000265746
0.000265779
0.000265888
0.000266108
0.000266406
0.00026671
0.000266912
0.000266881
0.000266483
0.000265653
0.000264468
0.000263125
0.000261729
0.000259744
0.000256447
0.000252232
0.000246787
0.000241506
0.000218557
0.000561523
0.000649573
0.000509297
)
;
    }
    sWall
    {
        type            compressible::alphatWallFunction;
        Prt             0.85;
        value           uniform 0.0002213;
    }
    nWall
    {
        type            compressible::alphatWallFunction;
        Prt             0.85;
        value           nonuniform List<scalar> 6(7.54518e-05 7.67695e-05 8.22446e-05 0.000246533 0.000301038 0.000218306);
    }
    sideWalls
    {
        type            empty;
    }
    glass1
    {
        type            compressible::alphatWallFunction;
        Prt             0.85;
        value           nonuniform List<scalar> 9(0.000243699 0.000336196 0.000402524 0.000427571 0.000445424 0.000462272 0.000482516 0.000510228 0.000555847);
    }
    glass2
    {
        type            compressible::alphatWallFunction;
        Prt             0.85;
        value           nonuniform List<scalar> 2(0.000165649 0.00021003);
    }
    sun
    {
        type            compressible::alphatWallFunction;
        Prt             0.85;
        value           nonuniform List<scalar> 
14
(
0.000247055
0.000321712
0.000312872
0.000298126
0.000283304
0.000269315
0.000256381
0.00024347
0.00022972
0.000214084
0.000194697
0.000166245
9.21248e-05
7.3552e-05
)
;
    }
    heatsource1
    {
        type            compressible::alphatWallFunction;
        Prt             0.85;
        value           nonuniform List<scalar> 3(0.000103306 8.98196e-05 7.5475e-05);
    }
    heatsource2
    {
        type            compressible::alphatWallFunction;
        Prt             0.85;
        value           nonuniform List<scalar> 4(6.5428e-05 5.10058e-05 5.10052e-05 7.66551e-05);
    }
    Table_master
    {
        type            compressible::alphatWallFunction;
        Prt             0.85;
        value           nonuniform List<scalar> 9(2.74273e-05 1.9548e-05 1.76911e-05 1.74629e-05 1.84175e-05 2.11948e-05 2.72495e-05 3.87846e-05 6.02752e-05);
    }
    Table_slave
    {
        type            compressible::alphatWallFunction;
        Prt             0.85;
        value           nonuniform List<scalar> 9(9.10874e-05 9.07171e-05 9.0491e-05 9.00437e-05 8.93423e-05 8.84885e-05 8.78868e-05 8.9007e-05 9.25727e-05);
    }
    inlet
    {
        type            fixedValue;
        value           uniform 1.94e-05;
    }
    outlet
    {
        type            zeroGradient;
    }
}


// ************************************************************************* //
