// -*- C++ -*-
// File generated by PyFoam - sorry for the ugliness

FoamFile
{
 version 2.0;
 format ascii;
 class volScalarField;
 location "900";
 object T;
}

dimensions [ 0 0 0 1 0 0 0 ];

internalField nonuniform List<scalar> 459
(
  302.857
  302.584
  302.555
  302.545
  302.54
  302.547
  302.609
  302.742
  302.83
  302.897
  302.947
  302.989
  303.036
  303.095
  303.187
  304.569
  304.461
  304.386
  304.341
  304.332
  304.348
  304.366
  304.39
  304.417
  304.447
  304.479
  304.513
  304.549
  304.587
  304.627
  304.67
  304.718
  304.781
  304.887
  302.996
  302.598
  302.541
  302.52
  302.504
  302.493
  302.578
  302.767
  302.921
  303.031
  303.102
  303.145
  303.177
  303.205
  303.24
  303.314
  303.446
  304.636
  304.537
  304.313
  304.275
  304.286
  304.312
  304.324
  304.34
  304.361
  304.389
  304.423
  304.464
  304.513
  304.569
  304.628
  304.689
  304.753
  304.823
  304.925
  303.151
  302.646
  302.57
  302.543
  302.507
  302.447
  302.547
  302.794
  303.028
  303.194
  303.291
  303.333
  303.351
  303.354
  303.356
  303.397
  303.483
  304.649
  304.35
  304.223
  304.216
  304.266
  304.325
  304.324
  304.328
  304.341
  304.366
  304.405
  304.46
  304.537
  304.641
  304.759
  304.832
  304.874
  304.908
  304.975
  303.315
  302.726
  302.642
  302.622
  302.54
  302.407
  302.513
  302.819
  303.147
  303.384
  303.512
  303.558
  303.556
  303.53
  303.499
  303.498
  303.53
  303.599
  303.851
  303.922
  304.029
  304.165
  304.3
  304.408
  304.481
  304.522
  304.552
  304.58
  304.61
  304.641
  304.675
  304.711
  304.752
  304.824
  304.901
  304.956
  305.015
  303.482
  302.838
  302.758
  302.757
  302.581
  302.373
  302.477
  302.849
  303.281
  303.599
  303.76
  303.808
  303.778
  303.717
  303.657
  303.629
  303.635
  303.691
  303.799
  303.943
  304.126
  304.315
  304.481
  304.609
  304.7
  304.756
  304.797
  304.83
  304.857
  304.879
  304.897
  304.909
  304.916
  304.926
  304.959
  305.001
  305.047
  305.217
  305.702
  305.655
  303.647
  302.982
  302.915
  302.899
  302.589
  302.327
  302.445
  302.9
  303.448
  303.847
  304.031
  304.067
  303.998
  303.91
  303.836
  303.801
  303.809
  303.892
  304.043
  304.235
  304.437
  304.623
  304.774
  304.884
  304.956
  305.001
  305.032
  305.052
  305.066
  305.077
  305.081
  305.078
  305.064
  305.044
  305.04
  305.057
  305.089
  305.201
  305.379
  305.489
  303.836
  303.184
  303.167
  303.009
  302.528
  302.225
  302.421
  303.002
  303.68
  304.148
  304.325
  304.309
  304.228
  304.145
  304.08
  304.067
  304.119
  304.26
  304.456
  304.654
  304.837
  304.99
  305.104
  305.18
  305.224
  305.249
  305.256
  305.26
  305.261
  305.259
  305.25
  305.233
  305.204
  305.166
  305.138
  305.133
  305.15
  305.227
  305.337
  305.442
  304.073
  303.61
  303.576
  303.015
  302.274
  302.022
  302.439
  303.22
  304.045
  304.519
  304.62
  304.582
  304.522
  304.473
  304.449
  304.477
  304.577
  304.751
  304.944
  305.115
  305.251
  305.356
  305.422
  305.46
  305.474
  305.472
  305.465
  305.456
  305.445
  305.43
  305.409
  305.379
  305.341
  305.297
  305.258
  305.237
  305.247
  305.325
  305.432
  305.559
  304.427
  304.195
  303.928
  302.387
  301.491
  301.698
  302.671
  303.731
  304.639
  304.912
  304.949
  304.932
  304.914
  304.911
  304.935
  305
  305.114
  305.265
  305.415
  305.537
  305.623
  305.676
  305.703
  305.708
  305.701
  305.687
  305.671
  305.654
  305.633
  305.607
  305.575
  305.538
  305.499
  305.467
  305.455
  305.484
  305.564
  305.678
  305.751
  305.842
  293.839
  296.246
  299.215
  301.794
  304.064
  304.895
  305.21
  305.304
  305.334
  305.349
  305.367
  305.397
  305.446
  305.519
  305.613
  305.716
  305.81
  305.879
  305.922
  305.943
  305.947
  305.939
  305.925
  305.907
  305.886
  305.862
  305.833
  305.799
  305.76
  305.719
  305.679
  305.648
  305.634
  305.649
  305.701
  305.784
  305.873
  306.197
  301.135
  302.583
  303.775
  304.722
  305.31
  305.543
  305.651
  305.708
  305.745
  305.778
  305.811
  305.85
  305.896
  305.952
  306.012
  306.07
  306.117
  306.148
  306.163
  306.165
  306.158
  306.143
  306.125
  306.102
  306.077
  306.047
  306.013
  305.976
  305.935
  305.893
  305.853
  305.819
  305.795
  305.788
  305.806
  305.859
  305.973
  306.162
  310.854
  306.863
  304.791
  305.378
  305.707
  305.885
  305.996
  306.069
  306.12
  306.161
  306.194
  306.223
  306.249
  306.274
  306.3
  306.325
  306.348
  306.366
  306.377
  306.38
  306.374
  306.363
  306.346
  306.325
  306.3
  306.273
  306.243
  306.211
  306.177
  306.143
  306.108
  306.074
  306.043
  306.014
  305.992
  305.98
  305.987
  306.041
  306.296
  306.596
)
;

boundaryField
{
  floor
  {
    type wallHeatTransfer;
    Tinf uniform 305.2;
    alphaWall uniform 0.24;
    value nonuniform List<scalar> 29
(
  303.37
  304.672
  304.569
  304.493
  304.446
  304.432
  304.446
  304.467
  304.493
  304.522
  304.553
  304.585
  304.617
  304.651
  304.686
  304.722
  304.759
  304.802
  304.856
  304.946
  304.946
  304.977
  305.017
  305.05
  303.37
  304.672
  304.732
  304.745
  303.766
)
;
  }
  ceiling
  {
    type wallHeatTransfer;
    Tinf uniform 303.2;
    alphaWall uniform 0.24;
    value nonuniform List<scalar> 43
(
  310.233
  306.618
  304.695
  305.25
  305.547
  305.701
  305.793
  305.851
  305.894
  305.93
  305.96
  305.987
  306.013
  306.037
  306.062
  306.085
  306.105
  306.12
  306.127
  306.126
  306.118
  306.104
  306.085
  306.063
  306.039
  306.011
  305.98
  305.946
  305.91
  305.87
  305.83
  305.789
  305.749
  305.713
  305.684
  305.667
  305.672
  305.723
  305.975
  306.249
  304.373
  304.156
  301.242
)
;
  }
  sWall
  {
    type wallHeatTransfer;
    Tinf uniform 315.2;
    alphaWall uniform 0.36;
    value uniform 311.367;
  }
  nWall
  {
    type wallHeatTransfer;
    Tinf uniform 307.2;
    alphaWall uniform 0.36;
    value nonuniform List<scalar> 6
(
  306.025
  305.879
  305.824
  306.353
  306.31
  306.685
)
;
  }
  sideWalls
  {
    type empty;
  }
  glass1
  {
    type wallHeatTransfer;
    Tinf uniform 315.2;
    alphaWall uniform 4.3;
    value nonuniform List<scalar> 9
(
  310.51
  309.967
  309.608
  309.328
  309.103
  308.926
  308.901
  309.044
  309.335
)
;
  }
  glass2
  {
    type wallHeatTransfer;
    Tinf uniform 307.2;
    alphaWall uniform 4.3;
    value nonuniform List<scalar> 2
(
  306.755
  306.808
)
;
  }
  sun
  {
    type wallHeatTransfer;
    Tinf uniform 305.2;
    alphaWall uniform 0.24;
    value nonuniform List<scalar> 14
(
  303.049
  302.778
  302.744
  302.723
  302.709
  302.709
  302.765
  302.894
  302.983
  303.052
  303.107
  303.154
  303.207
  303.272
)
;
  }
  heatsource1
  {
    type fixedGradient;
    gradient uniform 0;
  }
  heatsource2
  {
    type fixedGradient;
    gradient uniform 0;
  }
  Table_master
  {
    type zeroGradient;
  }
  Table_slave
  {
    type zeroGradient;
  }
  inlet
  {
    type fixedValue;
    value uniform 290.15;
  }
  outlet
  {
    type zeroGradient;
  }
} 	// ************************************************************************* //

