// -*- C++ -*-
// File generated by PyFoam - sorry for the ugliness

FoamFile
{
 version 2.0;
 format ascii;
 class volVectorField;
 location "900";
 object U;
}

dimensions [ 0 1 -1 0 0 0 0 ];

internalField nonuniform List<vector> 459
(
  (-0.00706992 0.0917315 0)
  (-0.194367 0.0232917 0)
  (-0.22221 -0.00389311 0)
  (-0.222398 -0.0268664 0)
  (-0.184477 -0.053798 0)
  (-0.114822 -0.0826501 0)
  (-0.0128486 -0.0993531 0)
  (0.0900674 -0.0786805 0)
  (0.160811 -0.0575729 0)
  (0.212643 -0.0389795 0)
  (0.242215 -0.0231971 0)
  (0.249453 -0.00890958 0)
  (0.233149 0.00779885 0)
  (0.188303 0.0350452 0)
  (0.144558 0.101094 0)
  (-0.0479198 0.0190697 0)
  (-0.0638303 -0.00647962 0)
  (-0.0511996 -0.0247088 0)
  (-0.0234669 -0.036768 0)
  (0.0181549 -0.0373107 0)
  (0.0505709 -0.0285755 0)
  (0.0736677 -0.0156829 0)
  (0.0881868 -0.00900329 0)
  (0.0956957 -0.00702868 0)
  (0.0999685 -0.00666471 0)
  (0.103654 -0.00656369 0)
  (0.107438 -0.00646182 0)
  (0.111128 -0.0061661 0)
  (0.114049 -0.00523616 0)
  (0.11456 -0.00306115 0)
  (0.109884 0.00107417 0)
  (0.0972634 0.00729357 0)
  (0.0732481 0.0171309 0)
  (0.0492823 0.0352362 0)
  (0.151801 0.197106 0)
  (-0.165181 0.0862013 0)
  (-0.173145 0.0356281 0)
  (-0.177471 -0.0154336 0)
  (-0.145701 -0.0756848 0)
  (-0.0859661 -0.13196 0)
  (-0.00736904 -0.154586 0)
  (0.0691473 -0.127373 0)
  (0.127989 -0.0901824 0)
  (0.171028 -0.0543875 0)
  (0.195979 -0.0220323 0)
  (0.204716 0.00834595 0)
  (0.199325 0.0390621 0)
  (0.185675 0.0753402 0)
  (0.178712 0.129815 0)
  (0.169104 0.117558 0)
  (0.103762 0.101751 0)
  (-0.0204634 0.0529821 0)
  (-0.0276149 0.0171611 0)
  (0.0243762 -0.0413705 0)
  (0.0400137 -0.054379 0)
  (0.0609286 -0.0537343 0)
  (0.0809854 -0.0439055 0)
  (0.0915275 -0.0199452 0)
  (0.0941159 -0.00515718 0)
  (0.0941118 -0.000354097 0)
  (0.0944479 0.000517287 0)
  (0.0952625 0.000386665 0)
  (0.0961326 -9.68578e-05 0)
  (0.0969824 -0.000376479 0)
  (0.0979221 0.000993802 0)
  (0.0978171 0.0057183 0)
  (0.0927718 0.0155148 0)
  (0.079456 0.0286398 0)
  (0.0550603 0.0463289 0)
  (0.034404 0.070884 0)
  (0.294216 0.292811 0)
  (-0.163198 0.130939 0)
  (-0.131645 0.0544176 0)
  (-0.137117 -0.0278422 0)
  (-0.106886 -0.120292 0)
  (-0.0544138 -0.198699 0)
  (0.00598827 -0.221692 0)
  (0.0601654 -0.187637 0)
  (0.105261 -0.136838 0)
  (0.137709 -0.0856808 0)
  (0.156217 -0.0396792 0)
  (0.163597 0.00207587 0)
  (0.162371 0.0426783 0)
  (0.156892 0.0839399 0)
  (0.152885 0.126167 0)
  (0.135735 0.126607 0)
  (0.101522 0.156025 0)
  (0.0105242 0.0225714 0)
  (0.0575795 -0.0342183 0)
  (0.0806806 -0.0623386 0)
  (0.089866 -0.0716164 0)
  (0.0983272 -0.0696212 0)
  (0.108354 -0.0639343 0)
  (0.112494 -0.0474789 0)
  (0.0974157 -0.030943 0)
  (0.0846194 -0.0222854 0)
  (0.0782842 -0.0176631 0)
  (0.0743669 -0.0147832 0)
  (0.0702821 -0.0129413 0)
  (0.0656443 -0.0115659 0)
  (0.0610829 -0.00912851 0)
  (0.0607491 -0.0014057 0)
  (0.062715 0.0215138 0)
  (0.0567042 0.0441797 0)
  (0.039787 0.071592 0)
  (0.0242508 0.105972 0)
  (0.42042 0.368617 0)
  (-0.177333 0.16965 0)
  (-0.0939615 0.0739362 0)
  (-0.0951491 -0.0364248 0)
  (-0.060276 -0.160944 0)
  (-0.0151383 -0.253861 0)
  (0.026525 -0.272215 0)
  (0.0610475 -0.232392 0)
  (0.0900856 -0.169728 0)
  (0.109175 -0.10512 0)
  (0.118201 -0.0481272 0)
  (0.120151 0.000963279 0)
  (0.118584 0.0448828 0)
  (0.117481 0.0852373 0)
  (0.122899 0.123301 0)
  (0.133975 0.142095 0)
  (0.151819 0.174829 0)
  (0.185518 0.134489 0)
  (0.139894 0.0490478 0)
  (0.140625 -0.0132453 0)
  (0.137622 -0.0528624 0)
  (0.128691 -0.0677155 0)
  (0.117942 -0.0669755 0)
  (0.104893 -0.0580807 0)
  (0.100301 -0.0333715 0)
  (0.112816 -0.0197511 0)
  (0.121051 -0.0124528 0)
  (0.121839 -0.0080058 0)
  (0.118501 -0.0046958 0)
  (0.113113 -0.00193861 0)
  (0.105728 0.000684638 0)
  (0.0953551 0.00376996 0)
  (0.0803397 0.00801632 0)
  (0.063106 0.0275809 0)
  (0.0525426 0.0540964 0)
  (0.0386903 0.0890607 0)
  (0.0239427 0.137925 0)
  (0.529569 0.426171 0)
  (-0.199038 0.199236 0)
  (-0.0591589 0.0845994 0)
  (-0.0423705 -0.0510506 0)
  (-0.00036974 -0.201162 0)
  (0.0331328 -0.292435 0)
  (0.0541526 -0.302548 0)
  (0.0693332 -0.257321 0)
  (0.0790604 -0.185177 0)
  (0.0816367 -0.110664 0)
  (0.0782063 -0.0470759 0)
  (0.0714689 0.00449914 0)
  (0.0687218 0.0465324 0)
  (0.0723023 0.0818564 0)
  (0.0858392 0.112889 0)
  (0.106927 0.128787 0)
  (0.135241 0.132734 0)
  (0.158303 0.0685218 0)
  (0.160617 0.0123447 0)
  (0.158692 -0.0273635 0)
  (0.147391 -0.0494229 0)
  (0.130559 -0.0565059 0)
  (0.112677 -0.0528144 0)
  (0.0962243 -0.040889 0)
  (0.087169 -0.018469 0)
  (0.0855345 -0.00437735 0)
  (0.0835287 0.00238629 0)
  (0.0792721 0.00596601 0)
  (0.0743434 0.00850349 0)
  (0.06938 0.0108616 0)
  (0.0642723 0.0136638 0)
  (0.0586936 0.0177117 0)
  (0.0523335 0.0244065 0)
  (0.0468285 0.0395967 0)
  (0.0460073 0.0626435 0)
  (0.0488229 0.0953855 0)
  (0.0523825 0.142283 0)
  (0.0751796 0.100749 0)
  (-0.0377907 -0.0197694 0)
  (-0.195318 -0.0379025 0)
  (0.617039 0.470099 0)
  (-0.22403 0.213932 0)
  (-0.0235657 0.0747771 0)
  (0.0328949 -0.099985 0)
  (0.0713201 -0.238776 0)
  (0.0885569 -0.312179 0)
  (0.0899767 -0.312947 0)
  (0.0820076 -0.26046 0)
  (0.0684862 -0.18047 0)
  (0.05152 -0.0995374 0)
  (0.0335595 -0.0337617 0)
  (0.0177134 0.014533 0)
  (0.0162264 0.0471746 0)
  (0.0243453 0.0725937 0)
  (0.0421715 0.0932389 0)
  (0.0657016 0.100244 0)
  (0.0957908 0.0912012 0)
  (0.119696 0.0477759 0)
  (0.129022 0.0101097 0)
  (0.125962 -0.0163571 0)
  (0.113583 -0.0319837 0)
  (0.0966982 -0.0374261 0)
  (0.0789164 -0.0345938 0)
  (0.0626783 -0.0254295 0)
  (0.0510719 -0.0113466 0)
  (0.0443922 -0.000749404 0)
  (0.0397211 0.00511622 0)
  (0.0360399 0.00829831 0)
  (0.0328483 0.0105832 0)
  (0.0302274 0.0128693 0)
  (0.0281869 0.015782 0)
  (0.0268001 0.0200836 0)
  (0.0261882 0.0269992 0)
  (0.02771 0.0398284 0)
  (0.0339358 0.0599435 0)
  (0.0451039 0.0870254 0)
  (0.0588014 0.11948 0)
  (0.0818123 0.090981 0)
  (0.0845877 0.0500525 0)
  (-0.0803529 0.0106123 0)
  (0.714719 0.50773 0)
  (-0.228569 0.184532 0)
  (0.0416335 -0.0220803 0)
  (0.129493 -0.167647 0)
  (0.159135 -0.27053 0)
  (0.154935 -0.315984 0)
  (0.130051 -0.298835 0)
  (0.0928198 -0.237215 0)
  (0.0515912 -0.152016 0)
  (0.0133353 -0.0692179 0)
  (-0.0176773 -0.00700051 0)
  (-0.0305687 0.0229787 0)
  (-0.0288368 0.0414884 0)
  (-0.0186867 0.0568126 0)
  (0.000452731 0.069173 0)
  (0.0246633 0.0712043 0)
  (0.0517235 0.0610746 0)
  (0.0707517 0.0349206 0)
  (0.0770349 0.0101768 0)
  (0.0732755 -0.00780497 0)
  (0.0619942 -0.0181882 0)
  (0.0469431 -0.0213175 0)
  (0.0311774 -0.0185842 0)
  (0.0168254 -0.0116933 0)
  (0.00608018 -0.0024402 0)
  (-0.000638649 0.00487819 0)
  (-0.0035131 0.00873282 0)
  (-0.00509766 0.0107341 0)
  (-0.00586453 0.0122058 0)
  (-0.005843 0.0137478 0)
  (-0.00494766 0.0157954 0)
  (-0.00304591 0.0189181 0)
  (-2.39571e-05 0.0241609 0)
  (0.00503204 0.03387 0)
  (0.0141003 0.049823 0)
  (0.0281253 0.0711017 0)
  (0.0484967 0.0933289 0)
  (0.0728225 0.0733738 0)
  (0.105682 0.0453253 0)
  (-0.052131 0.0688817 0)
  (0.836777 0.481608 0)
  (0.023744 0.15076 0)
  (0.178788 -0.0887956 0)
  (0.273639 -0.208427 0)
  (0.273025 -0.271812 0)
  (0.228136 -0.286036 0)
  (0.162791 -0.250311 0)
  (0.0876295 -0.182392 0)
  (0.0151412 -0.0966058 0)
  (-0.0390855 -0.0228778 0)
  (-0.0643929 0.00998719 0)
  (-0.0694214 0.0239826 0)
  (-0.0655388 0.0333591 0)
  (-0.0550752 0.0414101 0)
  (-0.0386602 0.04738 0)
  (-0.018863 0.0478512 0)
  (0.00166832 0.0408747 0)
  (0.0141623 0.0257341 0)
  (0.0168317 0.0108943 0)
  (0.0123645 -0.000102708 0)
  (0.00318966 -0.00619465 0)
  (-0.00930672 -0.00736059 0)
  (-0.0214903 -0.00494001 0)
  (-0.0320261 -0.000476891 0)
  (-0.0390179 0.00434325 0)
  (-0.041897 0.00774012 0)
  (-0.042585 0.00958017 0)
  (-0.0421444 0.0105854 0)
  (-0.0408835 0.0112653 0)
  (-0.038845 0.0119322 0)
  (-0.0360019 0.0129027 0)
  (-0.0323762 0.0146477 0)
  (-0.028098 0.0179833 0)
  (-0.0228617 0.024358 0)
  (-0.0152767 0.034998 0)
  (-0.00280493 0.0492581 0)
  (0.0228061 0.0622056 0)
  (0.0420738 0.0420754 0)
  (0.10944 0.0569423 0)
  (-0.364448 0.141877 0)
  (1.00808 0.406438 0)
  (0.475718 0.254134 0)
  (0.474841 0.104691 0)
  (0.453729 -0.0659499 0)
  (0.374812 -0.167834 0)
  (0.264711 -0.193411 0)
  (0.148016 -0.158013 0)
  (0.0340658 -0.0935741 0)
  (-0.0608249 -0.0186319 0)
  (-0.0968193 0.0107823 0)
  (-0.107212 0.019189 0)
  (-0.107232 0.0228242 0)
  (-0.101876 0.0262368 0)
  (-0.0925898 0.0298233 0)
  (-0.0802126 0.0325134 0)
  (-0.0665171 0.0324869 0)
  (-0.0540509 0.0288486 0)
  (-0.0468799 0.0215969 0)
  (-0.0459372 0.013863 0)
  (-0.0497932 0.00783504 0)
  (-0.0563825 0.00448612 0)
  (-0.0639233 0.00357085 0)
  (-0.0708546 0.00420573 0)
  (-0.0757164 0.00549741 0)
  (-0.0782075 0.00676461 0)
  (-0.0786352 0.00745424 0)
  (-0.077774 0.00750961 0)
  (-0.0761151 0.00712474 0)
  (-0.0739166 0.00653171 0)
  (-0.0713994 0.00606464 0)
  (-0.0688771 0.00627071 0)
  (-0.0668434 0.00798975 0)
  (-0.0659905 0.0123754 0)
  (-0.066995 0.0207164 0)
  (-0.07027 0.0337002 0)
  (-0.0762543 0.0504911 0)
  (-0.0889943 0.067864 0)
  (-0.129627 0.0798505 0)
  (-0.202408 0.0857503 0)
  (-0.415733 0.0656997 0)
  (0.175845 -0.12967 0)
  (0.207815 -0.149502 0)
  (0.162496 -0.144836 0)
  (0.0677313 -0.107023 0)
  (-0.0499575 -0.0279134 0)
  (-0.1197 0.0130478 0)
  (-0.149377 0.0279234 0)
  (-0.154146 0.0284786 0)
  (-0.152451 0.0264731 0)
  (-0.147978 0.0252125 0)
  (-0.141795 0.0253771 0)
  (-0.134148 0.0264978 0)
  (-0.125377 0.0277267 0)
  (-0.116423 0.0280852 0)
  (-0.10874 0.0270325 0)
  (-0.104017 0.0245522 0)
  (-0.102673 0.0217574 0)
  (-0.103965 0.0196423 0)
  (-0.106673 0.0187849 0)
  (-0.109607 0.0191763 0)
  (-0.111906 0.0203944 0)
  (-0.113128 0.0220681 0)
  (-0.113244 0.023978 0)
  (-0.112461 0.0259915 0)
  (-0.111046 0.0281314 0)
  (-0.109151 0.0304599 0)
  (-0.106853 0.0330126 0)
  (-0.104247 0.0357598 0)
  (-0.101535 0.038584 0)
  (-0.0990412 0.0413834 0)
  (-0.097059 0.0444626 0)
  (-0.0953814 0.0491438 0)
  (-0.0926898 0.0579066 0)
  (-0.0864428 0.0729979 0)
  (-0.0757596 0.0928557 0)
  (-0.0697752 0.106453 0)
  (-0.0760425 0.0890674 0)
  (-0.0550789 -0.141291 0)
  (0.0223435 0.0265725 0)
  (-0.0610745 -0.0348934 0)
  (-0.114942 -0.047631 0)
  (-0.174417 -0.0385762 0)
  (-0.207274 -0.027552 0)
  (-0.212657 -0.02687 0)
  (-0.209926 -0.02931 0)
  (-0.203567 -0.0340969 0)
  (-0.197114 -0.0376462 0)
  (-0.190814 -0.038957 0)
  (-0.184325 -0.0384578 0)
  (-0.177279 -0.0370668 0)
  (-0.169597 -0.0357732 0)
  (-0.161642 -0.0355347 0)
  (-0.154141 -0.0370654 0)
  (-0.147936 -0.040679 0)
  (-0.143432 -0.0459483 0)
  (-0.140478 -0.0521358 0)
  (-0.138581 -0.0584854 0)
  (-0.137165 -0.0645284 0)
  (-0.135792 -0.0701716 0)
  (-0.134237 -0.0755452 0)
  (-0.132464 -0.0809439 0)
  (-0.130581 -0.0867578 0)
  (-0.128781 -0.0932564 0)
  (-0.127269 -0.100415 0)
  (-0.126198 -0.107725 0)
  (-0.125564 -0.114001 0)
  (-0.125095 -0.117355 0)
  (-0.124139 -0.115519 0)
  (-0.121563 -0.10653 0)
  (-0.115553 -0.089414 0)
  (-0.10338 -0.0644812 0)
  (-0.0816771 -0.0338481 0)
  (-0.0487918 -0.00381248 0)
  (-0.00737938 0.00832248 0)
  (0.050701 -0.0699647 0)
  (-0.0150766 -0.172812 0)
  (0.650926 0.183692 0)
  (-0.184035 -0.511863 0)
  (-0.397954 0.117732 0)
  (-0.308917 0.123971 0)
  (-0.304678 0.130249 0)
  (-0.302256 0.14052 0)
  (-0.29275 0.15116 0)
  (-0.27892 0.158663 0)
  (-0.265178 0.164315 0)
  (-0.253608 0.168333 0)
  (-0.2446 0.170822 0)
  (-0.237173 0.172259 0)
  (-0.23021 0.1734 0)
  (-0.222853 0.175001 0)
  (-0.214644 0.17768 0)
  (-0.205578 0.181878 0)
  (-0.196053 0.187817 0)
  (-0.186718 0.195436 0)
  (-0.17816 0.204324 0)
  (-0.170707 0.213835 0)
  (-0.16441 0.2233 0)
  (-0.159135 0.232276 0)
  (-0.154676 0.240658 0)
  (-0.150827 0.248651 0)
  (-0.147413 0.256683 0)
  (-0.144325 0.265256 0)
  (-0.141512 0.274753 0)
  (-0.138946 0.285272 0)
  (-0.136573 0.296441 0)
  (-0.134237 0.307248 0)
  (-0.131598 0.316057 0)
  (-0.128009 0.321001 0)
  (-0.122333 0.32078 0)
  (-0.112751 0.315512 0)
  (-0.0970135 0.307197 0)
  (-0.0737344 0.299759 0)
  (-0.0440841 0.298509 0)
  (-0.0100343 0.306257 0)
  (0.0312783 0.368342 0)
  (-0.0945328 0.464233 0)
)
;

boundaryField
{
  floor
  {
    type noSlip;
  }
  ceiling
  {
    type noSlip;
  }
  sWall
  {
    type noSlip;
  }
  nWall
  {
    type noSlip;
  }
  sideWalls
  {
    type empty;
  }
  glass1
  {
    type noSlip;
  }
  glass2
  {
    type noSlip;
  }
  sun
  {
    type noSlip;
  }
  heatsource1
  {
    type noSlip;
  }
  heatsource2
  {
    type noSlip;
  }
  Table_master
  {
    type noSlip;
  }
  Table_slave
  {
    type noSlip;
  }
  inlet
  {
    type fixedValue;
    value uniform (0.0707107 -0.0707107 0);
  }
  outlet
  {
    type zeroGradient;
  }
} 	// ************************************************************************* //

