// -*- C++ -*-
// File generated by PyFoam - sorry for the ugliness

FoamFile
{
 version 2.0;
 format ascii;
 class volVectorField;
 location "1200";
 object U;
}

dimensions [ 0 1 -1 0 0 0 0 ];

internalField nonuniform List<vector> 459
(
  (0.0330724 0.0854251 0)
  (-0.166047 0.025639 0)
  (-0.190588 0.0178449 0)
  (-0.221192 0.0123428 0)
  (-0.243536 0.00632939 0)
  (-0.256787 2.35299e-05 0)
  (-0.259614 -0.00663107 0)
  (-0.250794 -0.0136387 0)
  (-0.230982 -0.0205343 0)
  (-0.201613 -0.0262675 0)
  (-0.165662 -0.0299945 0)
  (-0.126546 -0.0314461 0)
  (-0.0875135 -0.0311498 0)
  (-0.0533313 -0.030763 0)
  (-0.0377015 -0.0320281 0)
  (-0.00253575 0.00739319 0)
  (-0.0222714 -0.0175185 0)
  (0.00147119 -0.0262111 0)
  (0.0223169 -0.0194171 0)
  (0.0379969 -0.0130333 0)
  (0.049566 -0.00831559 0)
  (0.0563899 -0.00498695 0)
  (0.0597928 -0.00325 0)
  (0.0613436 -0.00249818 0)
  (0.0621598 -0.00213443 0)
  (0.0626757 -0.00189966 0)
  (0.0629461 -0.00170818 0)
  (0.0629059 -0.00147165 0)
  (0.0623453 -0.00101768 0)
  (0.0606953 3.64776e-05 0)
  (0.0567525 0.00223251 0)
  (0.0491964 0.00461868 0)
  (0.0413813 0.00668797 0)
  (-0.0104535 0.0203708 0)
  (0.205449 0.17454 0)
  (-0.154295 0.0670919 0)
  (-0.152569 0.0521403 0)
  (-0.183819 0.040687 0)
  (-0.205635 0.0278759 0)
  (-0.218845 0.0136988 0)
  (-0.222105 -0.00210571 0)
  (-0.213992 -0.0191057 0)
  (-0.195686 -0.0351929 0)
  (-0.168999 -0.0478624 0)
  (-0.137132 -0.055324 0)
  (-0.103501 -0.0571061 0)
  (-0.0713299 -0.0538886 0)
  (-0.0443784 -0.0472614 0)
  (-0.0272629 -0.0384012 0)
  (-0.0136877 -0.018833 0)
  (-0.00718484 0.0132118 0)
  (0.0601845 0.0312379 0)
  (0.0315973 -0.019864 0)
  (0.0385976 -0.0305447 0)
  (0.0493523 -0.0258577 0)
  (0.0577625 -0.0177671 0)
  (0.0633072 -0.0103869 0)
  (0.0654832 -0.00428028 0)
  (0.0657894 -0.000901327 0)
  (0.0657019 0.000547167 0)
  (0.0657828 0.00122272 0)
  (0.0659452 0.00164916 0)
  (0.0660614 0.00202038 0)
  (0.0660894 0.00250471 0)
  (0.0659757 0.00344013 0)
  (0.0651877 0.00573282 0)
  (0.0613022 0.0120542 0)
  (0.0515351 0.0174451 0)
  (0.0452053 0.0212933 0)
  (-0.0439417 0.0440064 0)
  (0.363383 0.260808 0)
  (-0.170064 0.1064 0)
  (-0.11396 0.0839027 0)
  (-0.143765 0.0635304 0)
  (-0.162737 0.042512 0)
  (-0.174572 0.0195799 0)
  (-0.177109 -0.00604667 0)
  (-0.168094 -0.0331956 0)
  (-0.149776 -0.058111 0)
  (-0.124725 -0.0767345 0)
  (-0.0964267 -0.0866659 0)
  (-0.0678494 -0.0877835 0)
  (-0.041288 -0.0812437 0)
  (-0.0189534 -0.0686139 0)
  (-0.00268114 -0.0509383 0)
  (0.00977722 -0.0253087 0)
  (0.0165174 0.00902968 0)
  (0.105553 -0.0393341 0)
  (0.0728994 -0.0431973 0)
  (0.0689676 -0.0394169 0)
  (0.0711551 -0.0315476 0)
  (0.0726971 -0.0223856 0)
  (0.0735089 -0.0147036 0)
  (0.0717671 -0.0119909 0)
  (0.0677809 -0.00859023 0)
  (0.0650345 -0.00674795 0)
  (0.0637908 -0.00569908 0)
  (0.0632451 -0.00503528 0)
  (0.0629795 -0.00457239 0)
  (0.0630289 -0.00412003 0)
  (0.063865 -0.0033166 0)
  (0.0666985 -0.000186778 0)
  (0.0646559 0.0170314 0)
  (0.0513872 0.0292398 0)
  (0.0508441 0.0378928 0)
  (-0.0734375 0.0690998 0)
  (0.505465 0.329993 0)
  (-0.203469 0.141049 0)
  (-0.0737276 0.110459 0)
  (-0.10129 0.0824299 0)
  (-0.114421 0.0554788 0)
  (-0.122288 0.0254998 0)
  (-0.121147 -0.00960024 0)
  (-0.10881 -0.0472718 0)
  (-0.0896771 -0.0802337 0)
  (-0.0670171 -0.103246 0)
  (-0.0440494 -0.114106 0)
  (-0.0225726 -0.113817 0)
  (-0.00336637 -0.104179 0)
  (0.0130209 -0.0869365 0)
  (0.0264384 -0.0649983 0)
  (0.0407834 -0.039001 0)
  (0.0628825 -0.0123886 0)
  (0.0934164 1.52465e-05 0)
  (0.101075 -0.0330051 0)
  (0.0875241 -0.0382875 0)
  (0.0789809 -0.0340628 0)
  (0.074838 -0.0277715 0)
  (0.0721436 -0.0203702 0)
  (0.0708847 -0.011792 0)
  (0.0726509 -0.00692382 0)
  (0.0767625 -0.00547566 0)
  (0.0801573 -0.00466144 0)
  (0.0824521 -0.00402386 0)
  (0.0838404 -0.00319844 0)
  (0.0837561 -0.00193291 0)
  (0.0811542 -1.26e-05 0)
  (0.0748027 0.00284832 0)
  (0.061912 0.00718219 0)
  (0.0509913 0.027433 0)
  (0.0403503 0.0442232 0)
  (0.0537356 0.0577539 0)
  (-0.103935 0.0919001 0)
  (0.627477 0.383492 0)
  (-0.244262 0.169275 0)
  (-0.0346694 0.125116 0)
  (-0.0572011 0.0926135 0)
  (-0.0619543 0.0623538 0)
  (-0.0627103 0.0274898 0)
  (-0.0518063 -0.0162461 0)
  (-0.033901 -0.0631869 0)
  (-0.0149799 -0.100736 0)
  (0.00271997 -0.124526 0)
  (0.0172114 -0.133242 0)
  (0.0285784 -0.129938 0)
  (0.037345 -0.117654 0)
  (0.0442262 -0.0989283 0)
  (0.0503579 -0.0764327 0)
  (0.0577118 -0.0528216 0)
  (0.0688787 -0.0335439 0)
  (0.0793368 -0.0289118 0)
  (0.0809167 -0.0347301 0)
  (0.0743876 -0.0335053 0)
  (0.0663931 -0.0285444 0)
  (0.0603014 -0.0229727 0)
  (0.0560215 -0.0172285 0)
  (0.053765 -0.0113426 0)
  (0.0538907 -0.00622079 0)
  (0.0560386 -0.00387263 0)
  (0.0584253 -0.00302169 0)
  (0.0607396 -0.0022995 0)
  (0.0628793 -0.000775414 0)
  (0.0644604 0.00209007 0)
  (0.0643222 0.00641154 0)
  (0.061889 0.0123531 0)
  (0.0564737 0.0205704 0)
  (0.0499241 0.0359682 0)
  (0.040931 0.0544668 0)
  (0.0619816 0.0749401 0)
  (-0.0171899 0.104116 0)
  (0.0455606 0.034077 0)
  (-0.0610998 -0.0342695 0)
  (-0.268956 -0.0565659 0)
  (0.715173 0.428032 0)
  (-0.283577 0.18809 0)
  (-0.00559604 0.119945 0)
  (-0.0117756 0.0917136 0)
  (-0.00494795 0.0623595 0)
  (0.00526799 0.0207895 0)
  (0.0339433 -0.0335442 0)
  (0.0550232 -0.0817739 0)
  (0.0698589 -0.116173 0)
  (0.0784074 -0.135353 0)
  (0.0814412 -0.140506 0)
  (0.08045 -0.134354 0)
  (0.0768049 -0.119928 0)
  (0.0719134 -0.100216 0)
  (0.067253 -0.0781224 0)
  (0.0641852 -0.0563403 0)
  (0.0635984 -0.0385941 0)
  (0.0631281 -0.02946 0)
  (0.0590991 -0.0271162 0)
  (0.0514985 -0.0249481 0)
  (0.0432806 -0.0213249 0)
  (0.0367094 -0.0173389 0)
  (0.0322087 -0.0134652 0)
  (0.0299461 -0.00977802 0)
  (0.0298934 -0.00693908 0)
  (0.0315735 -0.00600049 0)
  (0.0340624 -0.00597589 0)
  (0.0370215 -0.00567672 0)
  (0.0402876 -0.00414302 0)
  (0.0436498 -0.000528447 0)
  (0.0465898 0.00542393 0)
  (0.0481203 0.0134049 0)
  (0.0484565 0.0236379 0)
  (0.0490096 0.0379057 0)
  (0.0483354 0.0558103 0)
  (0.0703649 0.0786253 0)
  (0.0522709 0.0971051 0)
  (0.0915655 0.0681975 0)
  (0.11453 0.0445917 0)
  (-0.12795 -0.0071451 0)
  (0.768004 0.468646 0)
  (-0.302149 0.173463 0)
  (0.0220855 0.06775 0)
  (0.0494946 0.063004 0)
  (0.0701795 0.0440498 0)
  (0.103043 -0.00353424 0)
  (0.134822 -0.0572151 0)
  (0.153172 -0.0982805 0)
  (0.159221 -0.124078 0)
  (0.155045 -0.135579 0)
  (0.143272 -0.134928 0)
  (0.126763 -0.12497 0)
  (0.108061 -0.108605 0)
  (0.0893204 -0.0887559 0)
  (0.0722959 -0.0680136 0)
  (0.0580946 -0.0484483 0)
  (0.0472285 -0.0327138 0)
  (0.0385853 -0.0231835 0)
  (0.0301772 -0.0188901 0)
  (0.0216426 -0.0165196 0)
  (0.0139864 -0.014227 0)
  (0.00817849 -0.0120755 0)
  (0.00441525 -0.0102339 0)
  (0.00269056 -0.00872702 0)
  (0.00283492 -0.00792078 0)
  (0.00434318 -0.00819096 0)
  (0.00660346 -0.00889875 0)
  (0.00940141 -0.00918979 0)
  (0.0127881 -0.00821367 0)
  (0.0168945 -0.00497382 0)
  (0.0226634 0.00148666 0)
  (0.0283403 0.0102203 0)
  (0.0337641 0.0205368 0)
  (0.0407556 0.0331191 0)
  (0.0485791 0.0477217 0)
  (0.0703833 0.0660782 0)
  (0.0840357 0.0743443 0)
  (0.11596 0.0523246 0)
  (0.155442 0.0439886 0)
  (-0.0359151 0.0926275 0)
  (0.872772 0.469997 0)
  (-0.0644182 0.152128 0)
  (0.109975 -0.013859 0)
  (0.181723 -0.04103 0)
  (0.212276 -0.0527012 0)
  (0.243773 -0.0752376 0)
  (0.261585 -0.0975431 0)
  (0.262403 -0.113431 0)
  (0.247811 -0.120931 0)
  (0.221885 -0.120091 0)
  (0.189121 -0.11214 0)
  (0.153558 -0.0988891 0)
  (0.118342 -0.0820967 0)
  (0.0858699 -0.0639526 0)
  (0.0577553 -0.0463817 0)
  (0.0346202 -0.0305926 0)
  (0.0172594 -0.0187336 0)
  (0.00474689 -0.0121082 0)
  (-0.00484419 -0.00953084 0)
  (-0.0121716 -0.00876676 0)
  (-0.0179815 -0.0083552 0)
  (-0.0222061 -0.00813051 0)
  (-0.0249553 -0.00811555 0)
  (-0.0263797 -0.00834849 0)
  (-0.0267138 -0.00897991 0)
  (-0.0263669 -0.0100712 0)
  (-0.0257233 -0.0113085 0)
  (-0.0248886 -0.0122418 0)
  (-0.0237027 -0.012376 0)
  (-0.021768 -0.0111258 0)
  (-0.0181048 -0.00775339 0)
  (-0.00944841 -0.00158856 0)
  (-0.00124997 0.00635098 0)
  (0.00925148 0.0144482 0)
  (0.0208984 0.0214496 0)
  (0.0406132 0.0287172 0)
  (0.0595577 0.0221979 0)
  (0.0794821 -0.00483341 0)
  (0.138021 0.0392339 0)
  (-0.404961 0.202637 0)
  (1.01966 0.423073 0)
  (0.485092 0.279601 0)
  (0.499949 0.183087 0)
  (0.526359 0.111806 0)
  (0.507377 0.0604917 0)
  (0.46549 0.0133185 0)
  (0.41675 -0.0260069 0)
  (0.363198 -0.052939 0)
  (0.305126 -0.0666909 0)
  (0.24544 -0.0692713 0)
  (0.187606 -0.0640556 0)
  (0.13422 -0.0542082 0)
  (0.0868534 -0.0416098 0)
  (0.0470707 -0.0284795 0)
  (0.0149579 -0.0166299 0)
  (-0.0105131 -0.00713939 0)
  (-0.0254814 -0.0029043 0)
  (-0.0347119 -0.00187723 0)
  (-0.0409182 -0.00239133 0)
  (-0.0457255 -0.00339445 0)
  (-0.0496519 -0.00441165 0)
  (-0.0528363 -0.00540819 0)
  (-0.0553934 -0.00640654 0)
  (-0.057488 -0.00744168 0)
  (-0.0593652 -0.00856404 0)
  (-0.0613755 -0.00975608 0)
  (-0.0638667 -0.0108105 0)
  (-0.0671326 -0.0113608 0)
  (-0.0714853 -0.0108798 0)
  (-0.0773474 -0.00866755 0)
  (-0.0852607 -0.00390887 0)
  (-0.0951603 0.00393568 0)
  (-0.105261 0.0143593 0)
  (-0.120062 0.0276063 0)
  (-0.143275 0.0438153 0)
  (-0.177411 0.0619237 0)
  (-0.225816 0.0780771 0)
  (-0.281475 0.0897238 0)
  (-0.349452 0.0968085 0)
  (-0.609107 0.0999003 0)
  (-0.150874 0.00203074 0)
  (0.12142 0.00180615 0)
  (0.200597 -0.0315436 0)
  (0.187583 -0.0416982 0)
  (0.171509 -0.0398662 0)
  (0.149434 -0.0350894 0)
  (0.119987 -0.0289617 0)
  (0.0862419 -0.0216317 0)
  (0.0517126 -0.0135688 0)
  (0.0168589 -0.00538773 0)
  (-0.0166512 0.0022268 0)
  (-0.0390651 0.00654968 0)
  (-0.0545305 0.00889713 0)
  (-0.0637762 0.00939731 0)
  (-0.0688884 0.00856235 0)
  (-0.0724379 0.00762563 0)
  (-0.0752407 0.00685838 0)
  (-0.0777233 0.00626684 0)
  (-0.0802104 0.00576361 0)
  (-0.0828261 0.00510111 0)
  (-0.0855512 0.00434378 0)
  (-0.0884678 0.00350601 0)
  (-0.0917006 0.00264058 0)
  (-0.0953899 0.00186815 0)
  (-0.0996098 0.00143283 0)
  (-0.104357 0.00164693 0)
  (-0.109559 0.00283986 0)
  (-0.11504 0.00531465 0)
  (-0.120184 0.00960049 0)
  (-0.124287 0.0165958 0)
  (-0.127694 0.027407 0)
  (-0.130623 0.0424189 0)
  (-0.133735 0.0608302 0)
  (-0.137463 0.0792341 0)
  (-0.138764 0.0881255 0)
  (-0.121356 0.0670436 0)
  (-0.0784841 -0.0230869 0)
  (-0.274001 -0.198298 0)
  (0.0154214 0.194645 0)
  (0.0413259 0.070397 0)
  (0.000414786 0.00594811 0)
  (-0.0125629 -0.00216304 0)
  (-0.0258876 -0.000204864 0)
  (-0.0407967 7.79699e-05 0)
  (-0.0570743 0.00116454 0)
  (-0.0725853 0.00341674 0)
  (-0.0848311 0.00554741 0)
  (-0.0915817 0.00591413 0)
  (-0.0959005 0.00401518 0)
  (-0.0976866 2.6836e-05 0)
  (-0.0979782 -0.00449888 0)
  (-0.0974225 -0.00936727 0)
  (-0.0969271 -0.0145756 0)
  (-0.0970296 -0.0196575 0)
  (-0.0977604 -0.0243296 0)
  (-0.0990261 -0.028332 0)
  (-0.100701 -0.031466 0)
  (-0.102709 -0.0336297 0)
  (-0.105098 -0.0349607 0)
  (-0.10777 -0.0354151 0)
  (-0.110621 -0.0349417 0)
  (-0.113571 -0.0337463 0)
  (-0.116502 -0.0318545 0)
  (-0.119181 -0.0290455 0)
  (-0.121238 -0.0249059 0)
  (-0.122205 -0.0188384 0)
  (-0.121657 -0.0109276 0)
  (-0.118712 -0.000856953 0)
  (-0.112009 0.0121018 0)
  (-0.100272 0.0285997 0)
  (-0.0830602 0.0481557 0)
  (-0.0611256 0.0668539 0)
  (-0.0373311 0.0777699 0)
  (0.00249039 0.0619021 0)
  (0.142729 -0.00824588 0)
  (-0.204914 -0.108487 0)
  (-0.0434569 -0.319836 0)
  (-0.413185 -0.123202 0)
  (-0.301228 0.0643438 0)
  (-0.249777 -0.017303 0)
  (-0.20996 -0.022718 0)
  (-0.19869 -0.0117285 0)
  (-0.194228 -0.00206645 0)
  (-0.190764 0.00593551 0)
  (-0.186253 0.0134443 0)
  (-0.179791 0.0209109 0)
  (-0.171201 0.028418 0)
  (-0.160798 0.0358693 0)
  (-0.149722 0.0430988 0)
  (-0.139131 0.0500916 0)
  (-0.12982 0.0571227 0)
  (-0.122064 0.0641439 0)
  (-0.115909 0.0711059 0)
  (-0.111184 0.0777891 0)
  (-0.107651 0.0837887 0)
  (-0.105106 0.0887225 0)
  (-0.103367 0.0923323 0)
  (-0.102277 0.0944966 0)
  (-0.101748 0.0952689 0)
  (-0.101738 0.0945956 0)
  (-0.102201 0.0924466 0)
  (-0.103052 0.0892435 0)
  (-0.104164 0.0852685 0)
  (-0.105319 0.0806269 0)
  (-0.106135 0.0753721 0)
  (-0.105937 0.0696189 0)
  (-0.103468 0.0646234 0)
  (-0.0969049 0.0612826 0)
  (-0.0838871 0.0604739 0)
  (-0.062623 0.0631572 0)
  (-0.0335667 0.0698625 0)
  (0.0121162 0.0796653 0)
  (0.0550901 0.0806248 0)
  (0.0958604 0.0679028 0)
  (0.160924 0.042241 0)
  (-0.231946 -0.00783368 0)
)
;

boundaryField
{
  floor
  {
    type noSlip;
  }
  ceiling
  {
    type noSlip;
  }
  sWall
  {
    type noSlip;
  }
  nWall
  {
    type noSlip;
  }
  sideWalls
  {
    type empty;
  }
  glass1
  {
    type noSlip;
  }
  glass2
  {
    type noSlip;
  }
  sun
  {
    type noSlip;
  }
  heatsource1
  {
    type noSlip;
  }
  heatsource2
  {
    type noSlip;
  }
  Table_master
  {
    type noSlip;
  }
  Table_slave
  {
    type noSlip;
  }
  inlet
  {
    type fixedValue;
    value uniform (0.277164 -0.114805 0);
  }
  outlet
  {
    type zeroGradient;
  }
} 	// ************************************************************************* //

