/*--------------------------------*- C++ -*----------------------------------*\
  =========                 |
  \\      /  F ield         | OpenFOAM: The Open Source CFD Toolbox
   \\    /   O peration     | Website:  https://openfoam.org
    \\  /    A nd           | Version:  6
     \\/     M anipulation  |
\*---------------------------------------------------------------------------*/
FoamFile
{
    version     2.0;
    format      ascii;
    class       volScalarField;
    location    "300";
    object      nut;
}
// * * * * * * * * * * * * * * * * * * * * * * * * * * * * * * * * * * * * * //

dimensions      [0 2 -1 0 0 0 0];

internalField   nonuniform List<scalar> 
459
(
0.000673768
0.000694339
0.000614748
0.000624076
0.000637138
0.000649553
0.000661854
0.000674722
0.000685944
0.000695745
0.000704103
0.000710729
0.000715291
0.000717273
0.000713421
0.00023776
0.000245107
0.000237973
0.000217861
0.000196921
0.000191113
0.000185732
0.000194437
0.0002063
0.000217956
0.00022641
0.000228014
0.000224512
0.00022376
0.000229048
0.000246033
0.000249846
0.000242451
0.000194006
0.0011771
0.00239059
0.00186792
0.00264507
0.00293872
0.00309234
0.0031805
0.00321669
0.00322244
0.00319674
0.00312917
0.00299572
0.00275
0.00230926
0.00158359
0.000777802
0.000465473
0.000335885
0.00106352
0.00104295
0.000875036
0.000685284
0.000504223
0.000383531
0.000445946
0.000550045
0.000645059
0.00070924
0.000728096
0.000713307
0.000721113
0.000820339
0.0011352
0.00114456
0.00107329
0.000337378
0.00165225
0.00438915
0.00242141
0.00341934
0.00420849
0.00451699
0.00465524
0.00469299
0.00468687
0.0046437
0.00455629
0.00440033
0.00412363
0.00363405
0.00282748
0.0017662
0.000818613
0.000532136
0.00158935
0.00144413
0.00112664
0.000833657
0.000550442
0.000241498
0.000251143
0.000271308
0.000292285
0.000315414
0.000343632
0.000381534
0.000438229
0.000532669
0.00185578
0.00203155
0.001881
0.000515742
0.00211428
0.00700572
0.00403612
0.00390234
0.00462959
0.00505181
0.00527431
0.00535699
0.00539085
0.00540032
0.00539478
0.00536421
0.00526473
0.0050014
0.00441781
0.00335295
0.00187793
0.000784191
0.00190765
0.00244194
0.0020973
0.00166184
0.00124466
0.00084869
0.000545997
0.000540543
0.000539742
0.000542312
0.000549012
0.000561272
0.000581323
0.000613285
0.000669823
0.00228164
0.00247831
0.00236326
0.000709239
0.00254047
0.00977877
0.00687251
0.0055318
0.00539392
0.0054995
0.00562576
0.0056826
0.00570818
0.00573224
0.00578634
0.00588949
0.00602705
0.00614698
0.00615571
0.0059627
0.00553787
0.00496197
0.00465155
0.00424502
0.00387998
0.00359994
0.00337675
0.0031952
0.00304751
0.00297851
0.00292651
0.00288148
0.00283872
0.00279847
0.00276897
0.0027643
0.00279549
0.00289243
0.0027964
0.00266636
0.00210946
0.000905267
0.000787011
0.000679369
0.00291811
0.0120177
0.0100616
0.00795264
0.00697341
0.00645744
0.0061848
0.00602942
0.00591535
0.00584097
0.00583536
0.00594321
0.00617412
0.00649875
0.00680939
0.00696891
0.0068685
0.00650607
0.00601123
0.00550216
0.00508056
0.0047602
0.00452674
0.00435748
0.00422865
0.00413058
0.00405635
0.00399625
0.00393259
0.00384228
0.00371162
0.00355243
0.0033839
0.00319678
0.00297519
0.00274681
0.00252174
0.00209456
0.00156503
0.000724003
0.00319959
0.0125588
0.0110512
0.00940341
0.00838497
0.00753382
0.0069037
0.00644489
0.00610097
0.00586082
0.005728
0.00571638
0.00587517
0.00622598
0.0066933
0.00709686
0.00721298
0.00703786
0.00665939
0.00620914
0.00578974
0.00544041
0.00516801
0.00496179
0.00480467
0.00468817
0.00461168
0.00457349
0.00456091
0.00453699
0.00444159
0.00423999
0.00395997
0.00363043
0.00325981
0.00286314
0.00244862
0.00199243
0.00149504
0.000749979
0.00317131
0.0099074
0.00917236
0.00922627
0.00875338
0.00801954
0.00730669
0.00669419
0.00619705
0.00581723
0.00555581
0.00542917
0.00547559
0.00572768
0.0061544
0.00661459
0.00690771
0.0069364
0.00673819
0.00641991
0.006079
0.00576821
0.00550957
0.00530507
0.00514605
0.00502879
0.00495322
0.00492608
0.00495714
0.00504338
0.00513298
0.00512456
0.00497268
0.00467863
0.00425542
0.0037286
0.00317047
0.00270677
0.00231851
0.00133129
0.00300832
0.00338723
0.00998194
0.0104893
0.00936522
0.00823327
0.00730687
0.00659943
0.00608032
0.00571446
0.00547931
0.00536633
0.00537657
0.00551152
0.00575717
0.00605457
0.00629491
0.00638869
0.00633597
0.0061877
0.00600168
0.00581465
0.00564839
0.00551188
0.00540424
0.00532222
0.00526461
0.0052353
0.00524604
0.00531665
0.00545543
0.00562591
0.00581652
0.00598953
0.00613948
0.00628795
0.00632552
0.00583085
0.00513756
0.00150821
0.0195805
0.0177945
0.0106512
0.00847937
0.00743302
0.00678063
0.0063514
0.00607709
0.0059185
0.00584169
0.00581412
0.00581258
0.00582925
0.00586423
0.00591252
0.00596019
0.00599101
0.00599885
0.00598751
0.00595992
0.00592559
0.00589293
0.00586478
0.00584122
0.005822
0.00580837
0.00580491
0.00582083
0.0058583
0.00592693
0.00606097
0.00626705
0.00650122
0.00666273
0.00657216
0.00610072
0.00500441
0.00160789
0.00648398
0.010751
0.0081553
0.00709709
0.00663436
0.00640378
0.00626399
0.00617077
0.00611677
0.00609391
0.00609323
0.00610926
0.00614054
0.00618624
0.00624242
0.00630197
0.00635787
0.00640624
0.00644652
0.0064796
0.00650718
0.00653032
0.00654873
0.00656123
0.0065657
0.00655922
0.00653851
0.00650144
0.00644792
0.00638782
0.00634832
0.00636019
0.00640211
0.00631447
0.00605666
0.00554965
0.00484484
0.00177328
0.00186596
0.00277749
0.00453182
0.00330291
0.00224399
0.00194873
0.00185344
0.00176048
0.00168158
0.00162247
0.00157699
0.00154461
0.00152335
0.00151077
0.00150464
0.0015031
0.00150462
0.00150779
0.00151147
0.00151481
0.00151746
0.00151947
0.00152092
0.00152193
0.0015226
0.00152294
0.00152283
0.00152203
0.00152023
0.00151697
0.001512
0.00150456
0.00149415
0.0014805
0.00146339
0.00144843
0.00142467
0.00138149
0.00134595
0.00130131
)
;

boundaryField
{
    floor
    {
        type            nutkWallFunction;
        Cmu             0.09;
        kappa           0.41;
        E               9.8;
        value           nonuniform List<scalar> 
29
(
8.63647e-05
2.47163e-05
2.57495e-05
2.47477e-05
2.19014e-05
1.88979e-05
1.80558e-05
1.72735e-05
1.85365e-05
2.02462e-05
2.1913e-05
2.31146e-05
2.33421e-05
2.28461e-05
2.27393e-05
2.34879e-05
2.58775e-05
2.641e-05
2.53712e-05
1.84572e-05
1.84571e-05
3.83835e-05
6.16863e-05
8.58465e-05
8.63646e-05
2.47162e-05
3.8202e-05
6.37826e-05
9.49894e-05
)
;
    }
    ceiling
    {
        type            nutkWallFunction;
        Cmu             0.09;
        kappa           0.41;
        E               9.8;
        value           nonuniform List<scalar> 
43
(
0.000218926
0.000316855
0.000496689
0.000371654
0.000260017
0.000227983
0.000217534
0.000207283
0.000198535
0.000191952
0.000186869
0.000183241
0.000180854
0.00017944
0.00017875
0.000178577
0.000178747
0.000179104
0.000179517
0.000179892
0.00018019
0.000180416
0.000180579
0.000180692
0.000180767
0.000180804
0.00018079
0.000180701
0.000180497
0.000180131
0.000179571
0.000178734
0.000177562
0.000176024
0.000174093
0.000172405
0.000169718
0.000164822
0.000160781
0.000155687
0.000341197
0.000380563
0.000688802
)
;
    }
    sWall
    {
        type            nutkWallFunction;
        Cmu             0.09;
        kappa           0.41;
        E               9.8;
        value           uniform 0.000218976;
    }
    nWall
    {
        type            nutkWallFunction;
        Cmu             0.09;
        kappa           0.41;
        E               9.8;
        value           nonuniform List<scalar> 6(8.21769e-05 8.76583e-05 9.08283e-05 0.000190326 0.000208699 0.000155696);
    }
    sideWalls
    {
        type            empty;
    }
    glass1
    {
        type            nutkWallFunction;
        Cmu             0.09;
        kappa           0.41;
        E               9.8;
        value           nonuniform List<scalar> 9(8.14449e-05 0.000141517 0.000195472 0.000246295 0.000292117 0.000332044 0.000361455 0.000358524 0.000341527);
    }
    glass2
    {
        type            nutkWallFunction;
        Cmu             0.09;
        kappa           0.41;
        E               9.8;
        value           nonuniform List<scalar> 2(0.000159131 0.000179172);
    }
    sun
    {
        type            nutkWallFunction;
        Cmu             0.09;
        kappa           0.41;
        E               9.8;
        value           nonuniform List<scalar> 
14
(
8.14852e-05
8.40192e-05
7.4166e-05
7.53288e-05
7.69533e-05
7.84937e-05
8.00164e-05
8.16057e-05
8.2989e-05
8.41947e-05
8.52214e-05
8.60342e-05
8.65934e-05
8.68363e-05
)
;
    }
    heatsource1
    {
        type            nutkWallFunction;
        Cmu             0.09;
        kappa           0.41;
        E               9.8;
        value           nonuniform List<scalar> 3(0.000109528 9.53263e-05 8.21782e-05);
    }
    heatsource2
    {
        type            nutkWallFunction;
        Cmu             0.09;
        kappa           0.41;
        E               9.8;
        value           nonuniform List<scalar> 4(9.42123e-05 5.52444e-05 5.52443e-05 9.91475e-05);
    }
    Table_master
    {
        type            nutkWallFunction;
        Cmu             0.09;
        kappa           0.41;
        E               9.8;
        value           nonuniform List<scalar> 9(2.52353e-05 2.65863e-05 2.93897e-05 3.22767e-05 3.54284e-05 3.92331e-05 4.42808e-05 5.17149e-05 6.38403e-05);
    }
    Table_slave
    {
        type            nutkWallFunction;
        Cmu             0.09;
        kappa           0.41;
        E               9.8;
        value           nonuniform List<scalar> 9(6.55326e-05 6.48409e-05 6.47388e-05 6.50638e-05 6.59112e-05 6.74591e-05 6.99821e-05 7.39827e-05 8.09989e-05);
    }
    inlet
    {
        type            calculated;
        value           uniform 3.3541e-05;
    }
    outlet
    {
        type            calculated;
        value           nonuniform List<scalar> 2(0.00186596 0.00277749);
    }
}


// ************************************************************************* //
