/*--------------------------------*- C++ -*----------------------------------*\
  =========                 |
  \\      /  F ield         | OpenFOAM: The Open Source CFD Toolbox
   \\    /   O peration     | Website:  https://openfoam.org
    \\  /    A nd           | Version:  6
     \\/     M anipulation  |
\*---------------------------------------------------------------------------*/
FoamFile
{
    version     2.0;
    format      ascii;
    class       volScalarField;
    location    "50";
    object      alphat;
}
// * * * * * * * * * * * * * * * * * * * * * * * * * * * * * * * * * * * * * //

dimensions      [1 -1 -1 0 0 0 0];

internalField   nonuniform List<scalar> 
459
(
0.00160265
0.00206724
0.00229494
0.00215947
0.00204529
0.00194884
0.00186613
0.00179188
0.00172539
0.00166432
0.00160432
0.00154105
0.00146928
0.00138047
0.00127147
0.000871512
0.00111948
0.0011335
0.00108005
0.00100404
0.000899509
0.000789654
0.000689369
0.000596718
0.000515378
0.000449463
0.000401121
0.000369457
0.000351446
0.000345517
0.000359337
0.000423242
0.0005768
0.000708204
0.00191286
0.00628509
0.00592527
0.00588818
0.00577019
0.00560856
0.00550409
0.00543748
0.00530919
0.00506536
0.00469856
0.00419623
0.00355576
0.00279551
0.00200837
0.00127858
0.00113121
0.00113164
0.00370646
0.00303855
0.00313004
0.00315461
0.00290174
0.00235338
0.00190263
0.00155652
0.001294
0.00109519
0.000950426
0.000851797
0.000788588
0.000763661
0.000802585
0.00102696
0.00134569
0.000879857
0.00210966
0.00760464
0.00568288
0.00605701
0.00644991
0.00667879
0.00697986
0.00728047
0.00739446
0.00723159
0.00678644
0.00608195
0.0051656
0.00411388
0.00305062
0.00210737
0.00116792
0.00113128
0.00321723
0.00305805
0.00341677
0.00370614
0.00346913
0.00105307
0.000848187
0.000704668
0.000593954
0.000505097
0.000437557
0.000392736
0.000370296
0.000375336
0.000638341
0.00122571
0.00181341
0.000986729
0.00229393
0.0080907
0.00495468
0.00611684
0.00711037
0.00768387
0.00835504
0.00891123
0.0090519
0.00881665
0.00826581
0.00745043
0.00642946
0.00528166
0.00409814
0.00298296
0.00183822
0.00119553
0.00169779
0.00234816
0.00322073
0.00393524
0.00425013
0.00388118
0.0012367
0.00110999
0.000978569
0.000842607
0.000738752
0.000700125
0.00070202
0.000714496
0.000734972
0.00162992
0.00199757
0.002574
0.00111886
0.00245477
0.00780237
0.00425812
0.00635905
0.00797809
0.00885083
0.00979713
0.0103672
0.0103462
0.00998975
0.00938065
0.00855563
0.00755996
0.00646687
0.00535152
0.00432438
0.00343145
0.00324459
0.00378572
0.00456598
0.00526459
0.00563432
0.00556918
0.00508902
0.00381387
0.00297599
0.00251947
0.00248215
0.00288025
0.00343796
0.00390313
0.00419118
0.00420321
0.00394167
0.00348034
0.0032824
0.00190736
0.00112527
0.000990569
0.00107334
0.00253271
0.00711249
0.003643
0.00636564
0.0085563
0.00953384
0.0105754
0.0111401
0.0111354
0.0108025
0.0102627
0.00954494
0.00868628
0.00778275
0.00690734
0.00619731
0.00574989
0.00601317
0.00668734
0.00725191
0.00755382
0.00749897
0.0070912
0.00642019
0.00529806
0.00439077
0.00407537
0.00440089
0.00504408
0.00557851
0.00589867
0.00602795
0.00594425
0.00561097
0.00502945
0.00415304
0.00257917
0.00179663
0.00208175
0.00139859
0.00242106
0.00641072
0.00296111
0.00613283
0.00885888
0.00964704
0.01054
0.0110854
0.0112114
0.0110339
0.0106777
0.0101955
0.0096293
0.00901813
0.00846513
0.00812424
0.00809771
0.00854434
0.00900202
0.00921508
0.00912612
0.00871106
0.00804422
0.00706307
0.00611241
0.00559512
0.0056131
0.00597979
0.00634515
0.00655227
0.00663306
0.00662146
0.0065108
0.00627114
0.00580748
0.00489507
0.00335069
0.0026197
0.0036881
0.00183239
0.00231912
0.00518334
0.00229458
0.0055379
0.00900698
0.00950004
0.0099274
0.0101784
0.0102896
0.0102853
0.0101683
0.00997629
0.00974741
0.00952647
0.0093741
0.0093563
0.00955273
0.00989488
0.0100425
0.0099227
0.00948846
0.00874344
0.00789534
0.00716628
0.00665374
0.00642925
0.00644276
0.00653689
0.00659497
0.00661584
0.00662204
0.00660492
0.00654032
0.00640071
0.00612653
0.00557726
0.00455705
0.00371622
0.00604704
0.00246287
0.00210636
0.00200118
0.00158848
0.00473465
0.00891724
0.00926064
0.0091847
0.00906876
0.00901611
0.00901201
0.00902104
0.0090174
0.00902162
0.00906169
0.00916079
0.00932246
0.00950435
0.00958164
0.00941219
0.00895839
0.00829906
0.00762706
0.00708182
0.00671701
0.00651102
0.0064222
0.00641211
0.00644963
0.00652308
0.00662594
0.00673551
0.00681939
0.00685033
0.0068142
0.00670486
0.00649216
0.0060755
0.00553155
0.00771146
0.00272705
0.00109756
0.00462555
0.00854027
0.00898247
0.00899395
0.00900337
0.00901177
0.00902403
0.00903708
0.00904473
0.00904359
0.00903523
0.00902118
0.0089801
0.00887188
0.00865265
0.00832215
0.00793244
0.00755558
0.00725308
0.00705173
0.00694899
0.00692903
0.00697675
0.00708438
0.00724496
0.00744437
0.00765865
0.00785885
0.00801849
0.00811876
0.00815258
0.00812563
0.00804817
0.00792194
0.00779001
0.00834984
0.00232925
0.00283242
0.00876789
0.00968007
0.00958674
0.00958429
0.0096503
0.00969405
0.00969422
0.00965854
0.00959885
0.00952318
0.00943382
0.00933049
0.0092073
0.00905549
0.00886708
0.00864198
0.00839403
0.00814851
0.00793348
0.0077744
0.00769609
0.00771994
0.00785438
0.00808925
0.00839464
0.00872857
0.0090507
0.00933011
0.00954489
0.00967982
0.00972549
0.00967651
0.00953122
0.00930354
0.00897331
0.00765046
0.00209138
0.00169964
0.00184425
0.00210051
0.00225327
0.00225852
0.00224696
0.00222909
0.0022147
0.0022054
0.00220008
0.00219773
0.00219738
0.00219808
0.00219855
0.00219719
0.00219269
0.00218399
0.00217119
0.00215631
0.00214268
0.0021337
0.00213204
0.00213933
0.00215607
0.00218143
0.0022132
0.00224804
0.00228235
0.00231313
0.0023385
0.00235759
0.00237009
0.00237597
0.00237528
0.00236914
0.00236291
0.00236555
0.00236568
0.00225419
0.00185429
)
;

boundaryField
{
    floor
    {
        type            compressible::alphatWallFunction;
        Prt             0.85;
        value           nonuniform List<scalar> 
29
(
0.000180375
0.000124492
0.000159605
0.000161381
0.000153909
0.000143206
0.000128348
0.000112558
9.79105e-05
8.4153e-05
7.18679e-05
6.17457e-05
5.42139e-05
4.92272e-05
4.63744e-05
4.54468e-05
4.77006e-05
5.78753e-05
8.14988e-05
0.000100945
0.000100944
0.00012588
0.000141107
0.000159611
0.000180373
0.000124491
0.000161233
0.000161135
0.000169952
)
;
    }
    ceiling
    {
        type            compressible::alphatWallFunction;
        Prt             0.85;
        value           nonuniform List<scalar> 
43
(
0.000238155
0.00025725
0.000290699
0.000310424
0.0003111
0.000309606
0.000307298
0.000305439
0.000304236
0.000303548
0.000303244
0.000303199
0.000303292
0.000303353
0.000303182
0.000302604
0.000301487
0.000299843
0.00029793
0.00029618
0.000295031
0.000294828
0.000295784
0.00029796
0.000301245
0.000305347
0.000309835
0.000314242
0.000318187
0.000321435
0.000323876
0.000325472
0.000326223
0.000326135
0.00032535
0.000324554
0.000324891
0.000324906
0.000310594
0.000258611
0.000291256
0.000277602
0.000383965
)
;
    }
    sWall
    {
        type            compressible::alphatWallFunction;
        Prt             0.85;
        value           uniform 0.000237809;
    }
    nWall
    {
        type            compressible::alphatWallFunction;
        Prt             0.85;
        value           nonuniform List<scalar> 6(0.000152919 0.000197673 0.000255564 0.000319966 0.000289321 0.000258369);
    }
    sideWalls
    {
        type            empty;
    }
    glass1
    {
        type            compressible::alphatWallFunction;
        Prt             0.85;
        value           nonuniform List<scalar> 9(0.000223852 0.000264787 0.000290389 0.00031411 0.000334621 0.000344464 0.000330281 0.000317335 0.00029002);
    }
    glass2
    {
        type            compressible::alphatWallFunction;
        Prt             0.85;
        value           nonuniform List<scalar> 2(0.00033799 0.000371495);
    }
    sun
    {
        type            compressible::alphatWallFunction;
        Prt             0.85;
        value           nonuniform List<scalar> 
14
(
0.000225094
0.000286204
0.00031565
0.000298211
0.000283419
0.000270851
0.000260019
0.00025025
0.000241464
0.000233362
0.000225369
0.000216903
0.000207255
0.000195241
)
;
    }
    heatsource1
    {
        type            compressible::alphatWallFunction;
        Prt             0.85;
        value           nonuniform List<scalar> 3(0.000159991 0.00014112 0.000152765);
    }
    heatsource2
    {
        type            compressible::alphatWallFunction;
        Prt             0.85;
        value           nonuniform List<scalar> 4(0.000181114 0.000160794 0.000160792 0.000165882);
    }
    Table_master
    {
        type            compressible::alphatWallFunction;
        Prt             0.85;
        value           nonuniform List<scalar> 9(0.000149745 0.000120715 9.98806e-05 8.34481e-05 6.99925e-05 5.95855e-05 5.25888e-05 4.90691e-05 4.99174e-05);
    }
    Table_slave
    {
        type            compressible::alphatWallFunction;
        Prt             0.85;
        value           nonuniform List<scalar> 9(0.000175262 0.000157727 0.000139282 0.000119921 0.000104958 9.9378e-05 9.9676e-05 0.000101509 0.000104516);
    }
    inlet
    {
        type            fixedValue;
        value           uniform 1.94e-05;
    }
    outlet
    {
        type            zeroGradient;
    }
}


// ************************************************************************* //
