/*--------------------------------*- C++ -*----------------------------------*\
  =========                 |
  \\      /  F ield         | OpenFOAM: The Open Source CFD Toolbox
   \\    /   O peration     | Website:  https://openfoam.org
    \\  /    A nd           | Version:  6
     \\/     M anipulation  |
\*---------------------------------------------------------------------------*/
FoamFile
{
    version     2.0;
    format      ascii;
    class       volScalarField;
    location    "50";
    object      epsilon;
}
// * * * * * * * * * * * * * * * * * * * * * * * * * * * * * * * * * * * * * //

dimensions      [0 2 -3 0 0 0 0];

internalField   nonuniform List<scalar> 
459
(
0.000935629
0.00200569
0.0027439
0.00229031
0.00194821
0.0016867
0.00148169
0.00131225
0.00117188
0.00105212
0.000942655
0.000835689
0.000724487
0.00060106
0.00046976
0.000154343
0.000327628
0.000337864
0.000292262
0.000234826
0.000168841
0.000114306
7.60578e-05
4.93232e-05
3.17842e-05
2.11002e-05
1.50214e-05
1.17601e-05
1.01414e-05
9.65385e-06
1.08865e-05
1.78463e-05
4.52392e-05
8.33476e-05
0.00159224
0.00294193
0.00214387
0.00155183
0.00118804
0.000964215
0.000838836
0.000769821
0.000729374
0.000697633
0.000660279
0.000610134
0.000546148
0.000471623
0.000398013
0.00047845
0.000331541
0.000338226
0.000828817
0.000367979
0.000267623
0.000210004
0.000152777
0.000110265
7.54833e-05
4.96227e-05
3.20896e-05
2.0934e-05
1.42394e-05
1.05122e-05
8.76372e-06
9.01558e-06
1.30199e-05
3.54124e-05
9.0736e-05
0.000160248
0.00213729
0.00497756
0.00212811
0.00132559
0.000937312
0.000718955
0.000621903
0.000588973
0.000577574
0.00056506
0.000539335
0.000498021
0.000445914
0.000389967
0.000339837
0.000332071
0.0003651
0.000336527
0.000741603
0.000395387
0.00029167
0.000250225
0.000209259
0.000271248
0.000142102
8.15546e-05
4.88156e-05
3.00025e-05
1.95105e-05
1.41307e-05
1.18723e-05
1.24022e-05
1.50769e-05
4.12582e-05
0.00012677
0.000226307
0.00274831
0.00674247
0.00192469
0.00116675
0.000788409
0.000549579
0.000458271
0.000442591
0.000450181
0.0004522
0.000438398
0.000409694
0.000372222
0.000333345
0.000300729
0.000282486
0.000296357
0.000391969
0.00040649
0.000331663
0.000285301
0.000255942
0.000232248
0.000211797
0.000437844
0.000317238
0.000217812
0.000139419
9.43751e-05
8.06242e-05
8.13516e-05
8.57719e-05
9.33823e-05
3.8668e-05
6.20005e-05
0.000229601
0.000329803
0.00336712
0.00751105
0.00176271
0.00117773
0.000775995
0.000458297
0.000347944
0.000332683
0.000347559
0.000357794
0.000355209
0.000341105
0.000320528
0.000300437
0.000287378
0.000282056
0.000311464
0.000340799
0.000324621
0.000315547
0.000301171
0.000273887
0.000233088
0.000193155
0.000199965
0.000196844
0.000166392
0.000122357
9.21185e-05
7.98988e-05
7.67892e-05
7.7013e-05
7.88334e-05
7.59697e-05
9.06112e-05
0.000212976
0.000293863
0.000334534
0.000228148
0.00029051
0.00369587
0.00758371
0.00167121
0.00132406
0.000874378
0.000451661
0.000309503
0.000279666
0.000285466
0.000295288
0.00029959
0.000297683
0.000292651
0.000290688
0.000298421
0.000318919
0.000366141
0.000399498
0.000412547
0.000408434
0.000383972
0.000336509
0.000275051
0.000216332
0.000189945
0.000174107
0.000145644
0.000116811
0.000100929
9.55638e-05
9.51771e-05
9.6024e-05
9.62248e-05
9.7749e-05
0.000108717
0.000157669
0.000215231
0.000273799
0.00048855
0.000642921
0.00322927
0.00780472
0.00168693
0.00151113
0.00106254
0.000514702
0.000329052
0.000279876
0.000272593
0.000276895
0.000282111
0.00028667
0.000292664
0.000305012
0.000329699
0.000368283
0.00042394
0.000471396
0.000495382
0.000486319
0.000441816
0.00036588
0.000265552
0.000191655
0.000170491
0.00015825
0.000142973
0.000131837
0.000128526
0.000130714
0.000135274
0.000139071
0.000139875
0.000138704
0.000141449
0.000158967
0.000200272
0.00038349
0.00130723
0.00144565
0.00284169
0.00780725
0.00183947
0.00165276
0.00128589
0.000632241
0.000417024
0.000355339
0.000338229
0.000334324
0.000335958
0.00034103
0.000350897
0.000369021
0.000400215
0.000448329
0.000507407
0.000555999
0.000564679
0.0005205
0.000418109
0.00031101
0.000234308
0.000197026
0.000187114
0.000185167
0.000186034
0.000192046
0.000203732
0.000219117
0.000234925
0.000247121
0.000252329
0.000250512
0.000247733
0.000257014
0.000309326
0.000715616
0.00403994
0.00350856
0.0021314
0.00182657
0.00156025
0.00175518
0.0014667
0.000854508
0.000667174
0.000619022
0.000605685
0.000596478
0.000588114
0.000586214
0.000591441
0.000604885
0.000628317
0.00066078
0.000690664
0.000691929
0.000643825
0.00055634
0.000457212
0.000380359
0.000336039
0.000319666
0.000323529
0.000339803
0.000365848
0.000401342
0.000444309
0.000490476
0.000533943
0.000568155
0.000587483
0.00059035
0.000583093
0.00058348
0.00064973
0.00125227
0.00550294
0.00476161
0.00163353
0.00213228
0.00168758
0.0014508
0.00143971
0.00147162
0.00150105
0.00151002
0.00150117
0.00148091
0.00145861
0.00143736
0.00141039
0.00137274
0.00131717
0.00123825
0.00114215
0.0010447
0.000962813
0.000907457
0.000882975
0.000890152
0.000927934
0.00099366
0.00108393
0.00119353
0.00131435
0.00143612
0.00154747
0.00163691
0.00169439
0.00171463
0.00170179
0.00167809
0.00171918
0.00213496
0.00456567
0.00296586
0.00526597
0.00543786
0.00443601
0.0038263
0.0037878
0.00386655
0.00390675
0.00389984
0.00386102
0.00380254
0.00373021
0.00364744
0.0035599
0.00346783
0.0033682
0.00325297
0.00311242
0.00294937
0.00278291
0.00263913
0.00254378
0.00252279
0.00259822
0.00277949
0.00305955
0.00341272
0.00379926
0.00417787
0.00451344
0.00477655
0.00494221
0.00499216
0.0049189
0.00474227
0.00456989
0.00461124
0.00414552
0.00214743
0.00114614
0.00146377
0.00216189
0.0026696
0.00268943
0.00264851
0.00258578
0.0025361
0.00250454
0.00248694
0.00247967
0.00247934
0.00248274
0.00248537
0.0024819
0.00246777
0.0024396
0.00239799
0.00234998
0.00230657
0.00227848
0.00227386
0.0022979
0.00235281
0.00243722
0.00254546
0.0026676
0.00279142
0.0029056
0.003002
0.00307587
0.0031249
0.00314813
0.00314544
0.00312119
0.00309675
0.00310722
0.00310782
0.0026887
0.00149646
)
;

boundaryField
{
    floor
    {
        Cmu             0.09;
        kappa           0.41;
        E               9.8;
        type            epsilonWallFunction;
        value           nonuniform List<scalar> 
29
(
0.00046976
0.000154343
0.000327628
0.000337864
0.000292262
0.000234826
0.000168841
0.000114306
7.60578e-05
4.93232e-05
3.17842e-05
2.11002e-05
1.50214e-05
1.17601e-05
1.01414e-05
9.65385e-06
1.08865e-05
1.78463e-05
4.52392e-05
8.33476e-05
8.33476e-05
0.000160248
0.000226307
0.000329803
0.00046976
0.000154343
0.000338226
0.000336527
0.000391969
)
;
    }
    ceiling
    {
        Cmu             0.09;
        kappa           0.41;
        E               9.8;
        type            epsilonWallFunction;
        value           nonuniform List<scalar> 
43
(
0.00114614
0.00146377
0.00216189
0.0026696
0.00268943
0.00264851
0.00258578
0.0025361
0.00250454
0.00248694
0.00247967
0.00247934
0.00248274
0.00248537
0.0024819
0.00246777
0.0024396
0.00239799
0.00234998
0.00230657
0.00227848
0.00227386
0.0022979
0.00235281
0.00243722
0.00254546
0.0026676
0.00279142
0.0029056
0.003002
0.00307587
0.0031249
0.00314813
0.00314544
0.00312119
0.00309675
0.00310722
0.00310782
0.0026887
0.00149646
0.0021314
0.00182657
0.00526597
)
;
    }
    sWall
    {
        Cmu             0.09;
        kappa           0.41;
        E               9.8;
        type            epsilonWallFunction;
        value           uniform 0.00114614;
    }
    nWall
    {
        Cmu             0.09;
        kappa           0.41;
        E               9.8;
        type            epsilonWallFunction;
        value           nonuniform List<scalar> 6(0.00029051 0.000642921 0.00144565 0.00296586 0.00214743 0.00149646);
    }
    sideWalls
    {
        type            empty;
    }
    glass1
    {
        Cmu             0.09;
        kappa           0.41;
        E               9.8;
        type            epsilonWallFunction;
        value           nonuniform List<scalar> 9(0.000935629 0.00159224 0.00213729 0.00274831 0.00336712 0.00369587 0.00322927 0.00284169 0.0021314);
    }
    glass2
    {
        Cmu             0.09;
        kappa           0.41;
        E               9.8;
        type            epsilonWallFunction;
        value           nonuniform List<scalar> 2(0.00350856 0.00476161);
    }
    sun
    {
        Cmu             0.09;
        kappa           0.41;
        E               9.8;
        type            epsilonWallFunction;
        value           nonuniform List<scalar> 
14
(
0.000935629
0.00200569
0.0027439
0.00229031
0.00194821
0.0016867
0.00148169
0.00131225
0.00117188
0.00105212
0.000942655
0.000835689
0.000724487
0.00060106
)
;
    }
    heatsource1
    {
        Cmu             0.09;
        kappa           0.41;
        E               9.8;
        type            epsilonWallFunction;
        value           nonuniform List<scalar> 3(0.000334534 0.000228148 0.00029051);
    }
    heatsource2
    {
        Cmu             0.09;
        kappa           0.41;
        E               9.8;
        type            epsilonWallFunction;
        value           nonuniform List<scalar> 4(0.00047845 0.000331541 0.000331541 0.0003651);
    }
    Table_master
    {
        Cmu             0.09;
        kappa           0.41;
        E               9.8;
        type            epsilonWallFunction;
        value           nonuniform List<scalar> 9(0.000271248 0.000142102 8.15546e-05 4.88156e-05 3.00025e-05 1.95105e-05 1.41307e-05 1.18723e-05 1.24022e-05);
    }
    Table_slave
    {
        Cmu             0.09;
        kappa           0.41;
        E               9.8;
        type            epsilonWallFunction;
        value           nonuniform List<scalar> 9(0.000437844 0.000317238 0.000217812 0.000139419 9.43751e-05 8.06242e-05 8.13516e-05 8.57719e-05 9.33823e-05);
    }
    inlet
    {
        type            turbulentMixingLengthDissipationRateInlet;
        mixingLength    0.01;
        phi             phi;
        k               k;
        value           uniform 0.000101881;
    }
    outlet
    {
        type            zeroGradient;
    }
}


// ************************************************************************* //
