// -*- C++ -*-
// File generated by PyFoam - sorry for the ugliness

FoamFile
{
 version 2.0;
 format ascii;
 class volVectorField;
 location "50";
 object U;
}

dimensions [ 0 1 -1 0 0 0 0 ];

internalField nonuniform List<vector> 459
(
  (-0.0115612 0.0197723 0)
  (-0.0603813 -0.0431209 0)
  (0.0510721 -0.124086 0)
  (0.142445 -0.0891433 0)
  (0.215178 -0.0597046 0)
  (0.261402 -0.0394692 0)
  (0.28428 -0.0259813 0)
  (0.291994 -0.0166628 0)
  (0.289905 -0.00948578 0)
  (0.280834 -0.0032874 0)
  (0.265603 0.00268528 0)
  (0.243382 0.00945586 0)
  (0.211623 0.0190267 0)
  (0.162107 0.0377423 0)
  (0.13124 0.0879722 0)
  (-0.121903 0.0126865 0)
  (0.000644054 -0.00554567 0)
  (0.00322998 -0.0359197 0)
  (0.0430742 -0.0355354 0)
  (0.0783507 -0.0242325 0)
  (0.102037 -0.0117838 0)
  (0.109379 -0.00268041 0)
  (0.104706 0.00213735 0)
  (0.0972527 0.00348102 0)
  (0.0914254 0.00289508 0)
  (0.0874593 0.00178943 0)
  (0.084751 0.00103573 0)
  (0.0825788 0.000951705 0)
  (0.0798469 0.00173711 0)
  (0.0749817 0.00407798 0)
  (0.0653206 0.00943092 0)
  (0.0466337 0.0152357 0)
  (-0.0271842 0.0187931 0)
  (0.138162 -0.00732292 0)
  (0.0728009 0.0711458 0)
  (-0.0328066 -0.0490078 0)
  (0.0562721 -0.17059 0)
  (0.119729 -0.126583 0)
  (0.171542 -0.0754927 0)
  (0.20293 -0.0392138 0)
  (0.217052 -0.0155366 0)
  (0.220419 0.00043105 0)
  (0.216517 0.0118385 0)
  (0.208323 0.0207933 0)
  (0.196831 0.0291001 0)
  (0.182302 0.0386839 0)
  (0.165407 0.0519745 0)
  (0.147374 0.0728048 0)
  (0.145034 0.1118 0)
  (0.13509 0.0988966 0)
  (0.0830384 0.0837682 0)
  (-0.163797 0.0226583 0)
  (0.0403121 -0.0232933 0)
  (0.0342456 -0.0581771 0)
  (0.052013 -0.0585465 0)
  (0.0715465 -0.0392604 0)
  (0.0835307 -0.0145146 0)
  (0.0870062 -0.00108861 0)
  (0.0859255 0.00516922 0)
  (0.0853279 0.00699085 0)
  (0.0853123 0.00638553 0)
  (0.0850978 0.00500033 0)
  (0.0847807 0.00408559 0)
  (0.0844959 0.00426324 0)
  (0.0840344 0.00609608 0)
  (0.0823243 0.01139 0)
  (0.0743488 0.0268287 0)
  (0.0578134 0.0359826 0)
  (-0.00809595 0.0381842 0)
  (0.178678 0.0146992 0)
  (0.150385 0.0989905 0)
  (-0.0364047 -0.0850342 0)
  (0.044505 -0.233157 0)
  (0.0880146 -0.178909 0)
  (0.120514 -0.108527 0)
  (0.136704 -0.0585029 0)
  (0.141886 -0.0262963 0)
  (0.141464 -0.00474394 0)
  (0.138094 0.0111089 0)
  (0.133911 0.0235965 0)
  (0.12916 0.0349037 0)
  (0.124063 0.0471964 0)
  (0.119308 0.0624971 0)
  (0.115027 0.0823069 0)
  (0.116413 0.107637 0)
  (0.105844 0.102413 0)
  (0.0814705 0.125369 0)
  (-0.198772 0.000899012 0)
  (0.0877304 -0.0651871 0)
  (0.0800114 -0.0808482 0)
  (0.0805931 -0.0732357 0)
  (0.0830304 -0.0462571 0)
  (0.075241 -0.00502059 0)
  (0.0560967 0.00502197 0)
  (0.0573771 0.00694917 0)
  (0.067007 0.00492863 0)
  (0.074484 0.00223525 0)
  (0.0787851 -0.00015151 0)
  (0.081513 -0.00168646 0)
  (0.0839503 -0.00213054 0)
  (0.0876847 -0.00114043 0)
  (0.0964615 0.00413492 0)
  (0.0889797 0.0389405 0)
  (0.0658927 0.0539803 0)
  (0.00512725 0.0570569 0)
  (0.199995 0.0478723 0)
  (0.21089 0.114542 0)
  (-0.0567719 -0.104245 0)
  (0.0225851 -0.277213 0)
  (0.0492206 -0.209133 0)
  (0.0658648 -0.120375 0)
  (0.0695731 -0.0604488 0)
  (0.0682834 -0.0238968 0)
  (0.0665438 -0.00084496 0)
  (0.0667424 0.0146693 0)
  (0.0679221 0.0263539 0)
  (0.0697979 0.036981 0)
  (0.0724315 0.0484945 0)
  (0.0762754 0.0622528 0)
  (0.081646 0.0790156 0)
  (0.093253 0.0995581 0)
  (0.10914 0.109889 0)
  (0.129837 0.135346 0)
  (0.168739 0.0482038 0)
  (0.14651 0.00431029 0)
  (0.151125 -0.0494464 0)
  (0.136174 -0.0732336 0)
  (0.122099 -0.0691005 0)
  (0.115644 -0.0450906 0)
  (0.118177 -0.00571517 0)
  (0.12847 0.00782598 0)
  (0.120645 0.0148381 0)
  (0.096005 0.0194103 0)
  (0.0646028 0.0204282 0)
  (0.0371065 0.0159818 0)
  (0.0186522 0.00874223 0)
  (0.00841998 0.00278258 0)
  (0.00203292 -0.00122448 0)
  (-0.0139175 -0.0016239 0)
  (0.0335321 0.0566503 0)
  (0.0374992 0.0632473 0)
  (0.00216594 0.0656318 0)
  (0.214534 0.0851124 0)
  (0.248153 0.129016 0)
  (-0.0816622 -0.116104 0)
  (-0.00580607 -0.302248 0)
  (0.0091451 -0.224936 0)
  (0.0149113 -0.120188 0)
  (0.0127987 -0.0566047 0)
  (0.00996814 -0.0212338 0)
  (0.00960319 -0.00075567 0)
  (0.0130333 0.0124539 0)
  (0.0176503 0.0226707 0)
  (0.0235731 0.0322069 0)
  (0.0309507 0.0423745 0)
  (0.0403182 0.0539812 0)
  (0.052491 0.0674246 0)
  (0.071119 0.0827191 0)
  (0.095503 0.0909225 0)
  (0.125801 0.0911081 0)
  (0.153253 0.0299013 0)
  (0.16127 -0.0134644 0)
  (0.156536 -0.0485262 0)
  (0.142374 -0.0625183 0)
  (0.125 -0.0569871 0)
  (0.110407 -0.0368544 0)
  (0.101007 -0.00806382 0)
  (0.0908248 0.0119795 0)
  (0.0740368 0.0256713 0)
  (0.051631 0.0354618 0)
  (0.0310373 0.0375457 0)
  (0.0169109 0.0305917 0)
  (0.00797339 0.0200098 0)
  (0.00208291 0.0107842 0)
  (-0.0026655 0.00470944 0)
  (-0.00801117 0.00389152 0)
  (0.00318404 0.0290801 0)
  (0.0206684 0.0457134 0)
  (0.0111662 0.0501763 0)
  (0.112959 0.082559 0)
  (0.073032 0.0689228 0)
  (-0.0519701 0.0450528 0)
  (0.203367 -0.0183707 0)
  (0.277919 0.147 0)
  (-0.102218 -0.122055 0)
  (-0.02977 -0.317096 0)
  (-0.0199212 -0.236482 0)
  (-0.0225135 -0.118039 0)
  (-0.0249594 -0.0544851 0)
  (-0.0271791 -0.0217616 0)
  (-0.026665 -0.0040119 0)
  (-0.0229172 0.00717496 0)
  (-0.0174507 0.0158484 0)
  (-0.010193 0.0237887 0)
  (-0.000856643 0.0320326 0)
  (0.0111227 0.0410537 0)
  (0.0260737 0.0504324 0)
  (0.0461555 0.0590864 0)
  (0.0705488 0.0604918 0)
  (0.0998047 0.0503161 0)
  (0.122307 0.014064 0)
  (0.129475 -0.0174096 0)
  (0.124171 -0.0383871 0)
  (0.109879 -0.0456955 0)
  (0.0907266 -0.0387831 0)
  (0.0709025 -0.0194382 0)
  (0.0505402 0.00869761 0)
  (0.0358854 0.0311252 0)
  (0.0219119 0.0451694 0)
  (0.0096888 0.0516861 0)
  (0.00218508 0.0484029 0)
  (-0.00144126 0.0373729 0)
  (-0.00396208 0.0246497 0)
  (-0.00649053 0.0141721 0)
  (-0.00952784 0.00709025 0)
  (-0.0129363 0.00528299 0)
  (-0.00952597 0.0148998 0)
  (0.00239154 0.0251446 0)
  (0.000118655 0.0268111 0)
  (0.0378083 0.0564818 0)
  (0.0278259 0.0641852 0)
  (-0.0762449 0.0562936 0)
  (0.215611 -0.0257406 0)
  (0.357204 0.17883 0)
  (-0.0927603 -0.118296 0)
  (-0.0379719 -0.327314 0)
  (-0.025255 -0.245124 0)
  (-0.0398886 -0.114259 0)
  (-0.0443946 -0.0512409 0)
  (-0.0482835 -0.0212473 0)
  (-0.0488933 -0.00634118 0)
  (-0.0462464 0.00247193 0)
  (-0.0412542 0.00909836 0)
  (-0.0341883 0.0149727 0)
  (-0.0250008 0.0207082 0)
  (-0.0133967 0.0265168 0)
  (0.00148292 0.0321663 0)
  (0.0203359 0.0360857 0)
  (0.0417675 0.034154 0)
  (0.0646925 0.0240208 0)
  (0.0794014 0.00286136 0)
  (0.0816019 -0.0160936 0)
  (0.0733638 -0.0274614 0)
  (0.0567595 -0.0282938 0)
  (0.0354487 -0.0177844 0)
  (0.0104126 0.00375248 0)
  (-0.00570226 0.0275869 0)
  (-0.0142579 0.0441951 0)
  (-0.0194455 0.0538622 0)
  (-0.0208352 0.0557232 0)
  (-0.0191073 0.0492999 0)
  (-0.0166195 0.0377754 0)
  (-0.0152639 0.0257064 0)
  (-0.0153262 0.0157909 0)
  (-0.0165943 0.00906068 0)
  (-0.0183153 0.00672633 0)
  (-0.0171794 0.0106624 0)
  (-0.01221 0.0165121 0)
  (-0.0124641 0.0222854 0)
  (0.00238337 0.0487643 0)
  (0.00775682 0.0753813 0)
  (-0.0996333 0.0666103 0)
  (0.266329 -0.0308857 0)
  (0.429235 0.150514 0)
  (0.0184044 -0.0536841 0)
  (-0.0246089 -0.302721 0)
  (-0.00348637 -0.240729 0)
  (-0.0387538 -0.0998501 0)
  (-0.0522476 -0.0415687 0)
  (-0.0610922 -0.0171716 0)
  (-0.0643357 -0.00660162 0)
  (-0.063448 -0.000963059 0)
  (-0.0595457 0.00323186 0)
  (-0.0535369 0.00698744 0)
  (-0.0456044 0.0105368 0)
  (-0.0357481 0.0137893 0)
  (-0.0237773 0.016422 0)
  (-0.00958723 0.0176964 0)
  (0.00631278 0.0154921 0)
  (0.0199619 0.00891264 0)
  (0.0253463 -0.00169749 0)
  (0.0221677 -0.0102926 0)
  (0.0105788 -0.0131567 0)
  (-0.0090096 -0.00684181 0)
  (-0.0289479 0.00597875 0)
  (-0.0423034 0.020615 0)
  (-0.0487566 0.0351528 0)
  (-0.0500098 0.0465136 0)
  (-0.0474229 0.0525366 0)
  (-0.0418682 0.0517936 0)
  (-0.0351419 0.0448389 0)
  (-0.0293809 0.0346444 0)
  (-0.025668 0.0244676 0)
  (-0.0239025 0.0161226 0)
  (-0.0235559 0.0103808 0)
  (-0.0237303 0.00796382 0)
  (-0.0227163 0.00956182 0)
  (-0.0198409 0.0138677 0)
  (-0.0168836 0.0214471 0)
  (-0.00512888 0.0423086 0)
  (0.015986 0.0711935 0)
  (-0.0759534 0.0552819 0)
  (0.459082 0.00109508 0)
  (0.516276 0.208295 0)
  (0.110782 0.157023 0)
  (-0.00446734 -0.216787 0)
  (0.0242836 -0.2019 0)
  (-0.0322262 -0.0663812 0)
  (-0.0599148 -0.0215901 0)
  (-0.0743096 -0.00700639 0)
  (-0.0799093 -0.00251526 0)
  (-0.0807538 -0.000680101 0)
  (-0.0786425 0.000874989 0)
  (-0.0745858 0.00264558 0)
  (-0.0692036 0.00451997 0)
  (-0.0627345 0.0062487 0)
  (-0.0553912 0.00759827 0)
  (-0.0476297 0.00825844 0)
  (-0.040582 0.00779611 0)
  (-0.0364638 0.00614398 0)
  (-0.0380514 0.00364605 0)
  (-0.0447031 0.00261662 0)
  (-0.0554219 0.00499403 0)
  (-0.0666218 0.0106648 0)
  (-0.0748587 0.0182284 0)
  (-0.0790345 0.0272878 0)
  (-0.0785672 0.0366739 0)
  (-0.0739142 0.0439241 0)
  (-0.0661352 0.0470231 0)
  (-0.0566768 0.0450982 0)
  (-0.0474356 0.0390562 0)
  (-0.0400001 0.0311613 0)
  (-0.0349146 0.0234773 0)
  (-0.0318892 0.0171 0)
  (-0.0302984 0.0125429 0)
  (-0.0292927 0.0102201 0)
  (-0.0277709 0.0104207 0)
  (-0.0249043 0.0128609 0)
  (-0.0197546 0.0182294 0)
  (-0.00785124 0.0306452 0)
  (0.0153779 0.0484608 0)
  (-0.0543054 0.0334147 0)
  (0.452128 0.0325845 0)
  (-0.0295527 -0.16158 0)
  (0.0148552 -0.126267 0)
  (-0.0484098 -0.0143417 0)
  (-0.0836104 0.0103384 0)
  (-0.0961167 0.0134301 0)
  (-0.100389 0.0122096 0)
  (-0.101965 0.0108559 0)
  (-0.102125 0.0106418 0)
  (-0.101294 0.0114457 0)
  (-0.0996744 0.0127721 0)
  (-0.0976101 0.0141966 0)
  (-0.0954845 0.0155395 0)
  (-0.0936168 0.0169587 0)
  (-0.0925142 0.0183687 0)
  (-0.0928228 0.0196083 0)
  (-0.0951012 0.0205494 0)
  (-0.0988234 0.0217455 0)
  (-0.10276 0.0238213 0)
  (-0.105443 0.0268412 0)
  (-0.105854 0.0305678 0)
  (-0.103358 0.0348449 0)
  (-0.0975699 0.0389833 0)
  (-0.0887619 0.0415145 0)
  (-0.0779197 0.0411639 0)
  (-0.066532 0.0376001 0)
  (-0.0561991 0.0316866 0)
  (-0.0479942 0.0249236 0)
  (-0.0421702 0.0185392 0)
  (-0.0384213 0.013198 0)
  (-0.0361978 0.00922945 0)
  (-0.0348192 0.00683601 0)
  (-0.0335308 0.00606583 0)
  (-0.0315605 0.00678237 0)
  (-0.0276274 0.00950512 0)
  (-0.0200315 0.016057 0)
  (-0.0134833 0.0249462 0)
  (-0.0768389 0.0182446 0)
  (0.250799 0.0622519 0)
  (-0.208438 -0.12553 0)
  (-0.0888651 -0.103248 0)
  (-0.11669 -0.0914349 0)
  (-0.121147 -0.0888782 0)
  (-0.121176 -0.0941978 0)
  (-0.121749 -0.0999897 0)
  (-0.123458 -0.103518 0)
  (-0.125728 -0.105331 0)
  (-0.127959 -0.105983 0)
  (-0.129825 -0.105703 0)
  (-0.131215 -0.104565 0)
  (-0.13215 -0.102744 0)
  (-0.132719 -0.100709 0)
  (-0.132971 -0.0987877 0)
  (-0.133065 -0.0972962 0)
  (-0.133178 -0.096282 0)
  (-0.133181 -0.0951305 0)
  (-0.132579 -0.0930145 0)
  (-0.130698 -0.0894819 0)
  (-0.126904 -0.0845835 0)
  (-0.120688 -0.0788204 0)
  (-0.111832 -0.0732793 0)
  (-0.100689 -0.069404 0)
  (-0.0882424 -0.0681916 0)
  (-0.0758439 -0.0696759 0)
  (-0.0647609 -0.0730177 0)
  (-0.0557687 -0.077114 0)
  (-0.0490732 -0.0811761 0)
  (-0.0444984 -0.0848007 0)
  (-0.0416718 -0.0877605 0)
  (-0.0401206 -0.0898583 0)
  (-0.0392813 -0.0909338 0)
  (-0.0382599 -0.0907855 0)
  (-0.0354699 -0.0886363 0)
  (-0.030678 -0.0834104 0)
  (-0.0319389 -0.0783588 0)
  (-0.0597408 -0.091012 0)
  (0.196181 -0.105339 0)
  (-0.187673 -0.168066 0)
  (-0.160438 0.0437441 0)
  (-0.143096 0.376094 0)
  (-0.145766 0.319273 0)
  (-0.153644 0.312546 0)
  (-0.152371 0.312839 0)
  (-0.150768 0.317796 0)
  (-0.151125 0.322083 0)
  (-0.153161 0.324486 0)
  (-0.156053 0.325809 0)
  (-0.159167 0.326575 0)
  (-0.162034 0.326993 0)
  (-0.164266 0.327179 0)
  (-0.165519 0.327431 0)
  (-0.165549 0.328159 0)
  (-0.164264 0.329612 0)
  (-0.161752 0.331868 0)
  (-0.158253 0.334663 0)
  (-0.153948 0.337349 0)
  (-0.148789 0.339273 0)
  (-0.142528 0.340129 0)
  (-0.13482 0.340051 0)
  (-0.125368 0.339552 0)
  (-0.114131 0.339386 0)
  (-0.101556 0.340212 0)
  (-0.088592 0.342207 0)
  (-0.0764089 0.345008 0)
  (-0.0659917 0.347981 0)
  (-0.0578576 0.350595 0)
  (-0.0520642 0.352637 0)
  (-0.0483827 0.35415 0)
  (-0.0464549 0.355274 0)
  (-0.0458734 0.356163 0)
  (-0.0460398 0.356965 0)
  (-0.0456866 0.357641 0)
  (-0.0433851 0.357671 0)
  (-0.0426368 0.357397 0)
  (-0.0578791 0.363855 0)
  (-0.0829935 0.40234 0)
  (0.253475 0.495533 0)
)
;

boundaryField
{
  floor
  {
    type noSlip;
  }
  ceiling
  {
    type noSlip;
  }
  sWall
  {
    type noSlip;
  }
  nWall
  {
    type noSlip;
  }
  sideWalls
  {
    type empty;
  }
  glass1
  {
    type noSlip;
  }
  glass2
  {
    type noSlip;
  }
  sun
  {
    type noSlip;
  }
  heatsource1
  {
    type noSlip;
  }
  heatsource2
  {
    type noSlip;
  }
  Table_master
  {
    type noSlip;
  }
  Table_slave
  {
    type noSlip;
  }
  inlet
  {
    type fixedValue;
    value uniform (0.277164 -0.114805 0);
  }
  outlet
  {
    type zeroGradient;
  }
} 	// ************************************************************************* //

