// -*- C++ -*-
// File generated by PyFoam - sorry for the ugliness

FoamFile
{
 version 2.0;
 format ascii;
 class volVectorField;
 location "900";
 object U;
}

dimensions [ 0 1 -1 0 0 0 0 ];

internalField nonuniform List<vector> 459
(
  (0.0265637 0.0398975 0)
  (-0.106249 -0.000581564 0)
  (-0.0962976 -0.0113398 0)
  (-0.0844757 -0.0155282 0)
  (-0.0687038 -0.0162893 0)
  (-0.0521858 -0.013783 0)
  (-0.0378795 -0.0114798 0)
  (-0.0258652 -0.0100729 0)
  (-0.0156865 -0.00919318 0)
  (-0.0071167 -0.00844403 0)
  (0.000814532 -0.00749146 0)
  (0.00688827 -0.0060282 0)
  (0.0103455 -0.00396273 0)
  (-0.0047522 -0.000371381 0)
  (0.0960475 0.00710754 0)
  (-0.0861927 -0.00439306 0)
  (0.0284017 0.00277626 0)
  (0.000430656 0.00162898 0)
  (-0.00549634 -0.00113079 0)
  (-0.00211975 -0.00377978 0)
  (0.00153621 -0.00241148 0)
  (0.00872116 -0.00565398 0)
  (0.0156663 -0.00577017 0)
  (0.0221919 -0.00473155 0)
  (0.0268491 -0.00367 0)
  (0.0304298 -0.00282497 0)
  (0.0334064 -0.00236651 0)
  (0.0358935 -0.00250848 0)
  (0.0384393 -0.00226486 0)
  (0.0388328 -0.00127012 0)
  (0.034053 0.00377337 0)
  (0.024618 0.00863694 0)
  (-0.0188534 0.0147059 0)
  (0.07907 -0.00299488 0)
  (0.28013 0.092756 0)
  (-0.0477778 0.0481615 0)
  (-0.0623751 -0.00651423 0)
  (-0.0629832 -0.0224049 0)
  (-0.0542132 -0.0262632 0)
  (-0.0430794 -0.0227773 0)
  (-0.033445 -0.0189328 0)
  (-0.0257012 -0.0160435 0)
  (-0.0196857 -0.013816 0)
  (-0.0152496 -0.0118332 0)
  (-0.012131 -0.00982467 0)
  (-0.00995891 -0.00761542 0)
  (-0.00878158 -0.00549317 0)
  (-0.0116322 -0.00588512 0)
  (0.0207163 0.00195196 0)
  (0.0127439 0.0101494 0)
  (0.00925576 0.0228035 0)
  (-0.132648 0.00019289 0)
  (0.0321749 0.00186916 0)
  (0.00796844 0.00390222 0)
  (-0.000185335 0.0020106 0)
  (-0.00616218 -0.00158617 0)
  (-0.0155474 -0.00378853 0)
  (-0.0121812 -0.0176962 0)
  (-0.00603982 -0.0126289 0)
  (0.00184805 -0.00853154 0)
  (0.00398626 -0.00618972 0)
  (0.00468265 -0.00456401 0)
  (0.00451158 -0.00322662 0)
  (0.00346491 -0.00161498 0)
  (-0.00113058 0.00326872 0)
  (-0.00399581 0.00814031 0)
  (-0.00322106 0.0152563 0)
  (-0.00394598 0.0169082 0)
  (-0.0426921 0.0178838 0)
  (0.143803 -0.00183929 0)
  (0.251075 0.0338957 0)
  (0.11678 0.0792252 0)
  (0.0398557 0.0676494 0)
  (-0.0245177 0.00292536 0)
  (-0.0376533 -0.0256923 0)
  (-0.0368671 -0.0277555 0)
  (-0.0337336 -0.0241564 0)
  (-0.0313047 -0.0198887 0)
  (-0.0305351 -0.0159049 0)
  (-0.031654 -0.0121096 0)
  (-0.0345539 -0.00843159 0)
  (-0.0388807 -0.00511611 0)
  (-0.0442861 -0.00265742 0)
  (-0.0498042 -0.00144033 0)
  (-0.0508333 -3.02275e-05 0)
  (-0.051248 0.000916665 0)
  (-0.0559218 -0.00368073 0)
  (-0.143367 0.0151489 0)
  (-0.00927408 0.00135628 0)
  (-0.0207871 0.00231939 0)
  (-0.0193646 0.00264824 0)
  (-0.0149741 0.00240536 0)
  (-0.0142338 0.00122754 0)
  (-0.0108928 -0.0138509 0)
  (-0.0350076 -0.010088 0)
  (-0.0444505 -0.00690281 0)
  (-0.0506877 -0.00513175 0)
  (-0.055104 -0.00397735 0)
  (-0.0584978 -0.00314477 0)
  (-0.0607983 -0.00258986 0)
  (-0.0596751 -0.00234133 0)
  (-0.052753 -0.00344134 0)
  (-0.0388287 -0.00238406 0)
  (-0.0209289 0.00344039 0)
  (-0.0462412 0.00710763 0)
  (0.186406 -0.000289743 0)
  (-0.302983 -0.0616294 0)
  (0.115748 0.109444 0)
  (0.0201925 0.0989844 0)
  (-0.0256033 0.0298717 0)
  (-0.0374447 -0.01594 0)
  (-0.0414715 -0.0282695 0)
  (-0.0418406 -0.0251488 0)
  (-0.0442478 -0.01873 0)
  (-0.0491022 -0.0123162 0)
  (-0.0561433 -0.00634279 0)
  (-0.0648879 -0.00121832 0)
  (-0.0740848 0.00210198 0)
  (-0.0828725 0.00267318 0)
  (-0.0905536 -0.000236198 0)
  (-0.0965268 -0.00722343 0)
  (-0.102938 -0.0206065 0)
  (-0.11177 -0.0437468 0)
  (-0.1133 -0.0716194 0)
  (-0.106593 0.00732659 0)
  (-0.0930507 0.00241183 0)
  (-0.10027 0.0036108 0)
  (-0.105199 0.00358883 0)
  (-0.110746 0.00213667 0)
  (-0.116959 -0.000728986 0)
  (-0.121641 -0.00118528 0)
  (-0.121447 -0.00240611 0)
  (-0.119809 -0.00383338 0)
  (-0.116653 -0.00509969 0)
  (-0.112217 -0.00641163 0)
  (-0.106516 -0.00793398 0)
  (-0.0991173 -0.00984295 0)
  (-0.0889671 -0.0124356 0)
  (-0.0754435 -0.0161908 0)
  (-0.0626978 -0.021195 0)
  (-0.0547555 -0.0244821 0)
  (-0.0693516 -0.0250985 0)
  (0.228334 0.00921819 0)
  (-0.438086 -0.0545157 0)
  (0.155735 0.095884 0)
  (0.0534441 0.120524 0)
  (0.00449317 0.0731616 0)
  (-0.034921 -0.00078302 0)
  (-0.0488333 -0.0260598 0)
  (-0.0528784 -0.0214643 0)
  (-0.0602001 -0.0122462 0)
  (-0.0692414 -0.00387235 0)
  (-0.0785795 0.00306342 0)
  (-0.0865557 0.00796346 0)
  (-0.0932849 0.0109602 0)
  (-0.0990455 0.0120655 0)
  (-0.103999 0.0112597 0)
  (-0.108764 0.00862446 0)
  (-0.115499 0.00415626 0)
  (-0.125524 -0.000362235 0)
  (-0.130818 -0.000460647 0)
  (-0.129712 0.00375633 0)
  (-0.127667 0.00423221 0)
  (-0.127311 0.00596127 0)
  (-0.126414 0.00649694 0)
  (-0.125543 0.00568563 0)
  (-0.12476 0.00371715 0)
  (-0.123456 0.00167546 0)
  (-0.121402 -0.000978064 0)
  (-0.119055 -0.00310983 0)
  (-0.116254 -0.00485167 0)
  (-0.112996 -0.00643952 0)
  (-0.109356 -0.0080994 0)
  (-0.105382 -0.0100869 0)
  (-0.101131 -0.0128426 0)
  (-0.0973064 -0.0171272 0)
  (-0.096135 -0.0231944 0)
  (-0.101362 -0.0276854 0)
  (-0.112315 -0.0284909 0)
  (-0.115129 -0.0147696 0)
  (-0.146623 -0.0174294 0)
  (-0.125096 -0.0361161 0)
  (0.19545 -0.0987168 0)
  (-0.476583 -0.10978 0)
  (0.18107 0.0598521 0)
  (0.123858 0.137164 0)
  (0.0695124 0.134434 0)
  (0.00292883 0.0557026 0)
  (-0.0473615 -0.0128191 0)
  (-0.060471 -0.010802 0)
  (-0.0745404 -0.00106966 0)
  (-0.086167 0.00635951 0)
  (-0.094553 0.0110768 0)
  (-0.100405 0.0139811 0)
  (-0.104368 0.0153658 0)
  (-0.107074 0.0151431 0)
  (-0.109128 0.0130759 0)
  (-0.111361 0.00897821 0)
  (-0.115061 0.00330823 0)
  (-0.120536 -0.00130292 0)
  (-0.124741 -0.00111917 0)
  (-0.125481 0.00105759 0)
  (-0.123975 0.00230909 0)
  (-0.121593 0.00338506 0)
  (-0.118506 0.00350358 0)
  (-0.115276 0.00249655 0)
  (-0.112164 0.000586856 0)
  (-0.109213 -0.0016611 0)
  (-0.10651 -0.00411208 0)
  (-0.103919 -0.00636833 0)
  (-0.101269 -0.00837214 0)
  (-0.0984573 -0.0101985 0)
  (-0.095473 -0.0119324 0)
  (-0.0923613 -0.0136542 0)
  (-0.0892795 -0.0154971 0)
  (-0.0867429 -0.0176473 0)
  (-0.0856784 -0.0198573 0)
  (-0.0862612 -0.0206019 0)
  (-0.0854691 -0.0186049 0)
  (-0.0816237 -0.0123626 0)
  (-0.0954458 -0.0151418 0)
  (-0.145093 -0.0245042 0)
  (0.299695 -0.1267 0)
  (-0.467781 -0.181525 0)
  (0.189873 -0.0663475 0)
  (0.192202 0.114994 0)
  (0.127187 0.195337 0)
  (0.0391784 0.136848 0)
  (-0.0399369 0.0323269 0)
  (-0.0649868 0.0147638 0)
  (-0.0847785 0.0146795 0)
  (-0.0964286 0.0161548 0)
  (-0.102363 0.0169412 0)
  (-0.104525 0.0171231 0)
  (-0.104205 0.0167107 0)
  (-0.102396 0.0155874 0)
  (-0.100012 0.0134852 0)
  (-0.0979786 0.0101149 0)
  (-0.0971692 0.00568464 0)
  (-0.0976905 0.00162407 0)
  (-0.0983189 -0.000234821 0)
  (-0.0975647 -0.000493957 0)
  (-0.0954785 -0.000406993 0)
  (-0.092548 -0.000241387 0)
  (-0.0890375 -0.000511701 0)
  (-0.0853889 -0.00144771 0)
  (-0.0820117 -0.00299714 0)
  (-0.0790785 -0.00492711 0)
  (-0.0765397 -0.00707551 0)
  (-0.0742985 -0.00922396 0)
  (-0.0721856 -0.0112956 0)
  (-0.0700507 -0.0133041 0)
  (-0.0677787 -0.0152912 0)
  (-0.0652723 -0.0173103 0)
  (-0.0624648 -0.0194388 0)
  (-0.0593812 -0.0217224 0)
  (-0.0560469 -0.0238912 0)
  (-0.0516984 -0.0250921 0)
  (-0.0429589 -0.0245957 0)
  (-0.0261252 -0.0238076 0)
  (-0.0205907 -0.0286116 0)
  (-0.165072 -0.0382989 0)
  (0.459031 -0.137847 0)
  (-0.433433 -0.179649 0)
  (0.0850303 -0.160625 0)
  (0.158525 0.0404819 0)
  (0.120431 0.269755 0)
  (-0.0168042 0.195382 0)
  (-0.0661602 0.0754914 0)
  (-0.0802757 0.0406301 0)
  (-0.0932609 0.0284795 0)
  (-0.0978829 0.0222301 0)
  (-0.0967359 0.018115 0)
  (-0.0920982 0.0152162 0)
  (-0.0854923 0.0129153 0)
  (-0.077898 0.0109105 0)
  (-0.0701807 0.00884853 0)
  (-0.063138 0.00631189 0)
  (-0.0575098 0.00324321 0)
  (-0.0532563 0.000330491 0)
  (-0.0502196 -0.00161419 0)
  (-0.0476607 -0.0025928 0)
  (-0.044986 -0.003095 0)
  (-0.0421727 -0.00339444 0)
  (-0.0392764 -0.003813 0)
  (-0.0364862 -0.00454614 0)
  (-0.0339964 -0.00565863 0)
  (-0.0319205 -0.00710593 0)
  (-0.0302784 -0.0087975 0)
  (-0.0290145 -0.0106151 0)
  (-0.0280061 -0.0125037 0)
  (-0.0271163 -0.0144631 0)
  (-0.0262055 -0.0165259 0)
  (-0.0251176 -0.0187556 0)
  (-0.0236657 -0.021261 0)
  (-0.0216144 -0.024185 0)
  (-0.0185684 -0.0275986 0)
  (-0.0134452 -0.0314352 0)
  (-0.0026755 -0.0360308 0)
  (0.0206412 -0.0433656 0)
  (0.0480505 -0.0544069 0)
  (-0.0875495 -0.0647349 0)
  (0.767372 -0.0956386 0)
  (-0.404824 -0.0731261 0)
  (-0.277445 -0.104311 0)
  (-0.544216 0.0316135 0)
  (0.0290409 0.344519 0)
  (-0.139327 0.212127 0)
  (-0.11971 0.0947539 0)
  (-0.0979456 0.05306 0)
  (-0.0852205 0.035261 0)
  (-0.0724873 0.0246233 0)
  (-0.0589046 0.0172618 0)
  (-0.0442678 0.0123216 0)
  (-0.0304171 0.00928505 0)
  (-0.0177554 0.00744086 0)
  (-0.00641968 0.00619136 0)
  (0.00352867 0.00499413 0)
  (0.0112528 0.00364755 0)
  (0.0166993 0.00230797 0)
  (0.0205032 0.00126514 0)
  (0.0232564 0.000547192 0)
  (0.0253922 3.73071e-05 0)
  (0.0271393 -0.00036642 0)
  (0.0286176 -0.000808488 0)
  (0.0298299 -0.00140263 0)
  (0.0307235 -0.00221157 0)
  (0.0312442 -0.00324549 0)
  (0.0313667 -0.00448015 0)
  (0.0311073 -0.00587646 0)
  (0.0305239 -0.00742104 0)
  (0.0296953 -0.00913582 0)
  (0.028715 -0.01108 0)
  (0.027698 -0.0133613 0)
  (0.0267929 -0.0161634 0)
  (0.0261995 -0.0197837 0)
  (0.02621 -0.0246804 0)
  (0.0274235 -0.0315979 0)
  (0.0319025 -0.0419754 0)
  (0.0434748 -0.0583893 0)
  (0.0581979 -0.0818756 0)
  (-0.0781024 -0.0925202 0)
  (0.82636 -0.0409235 0)
  (-2.62014 0.06552 0)
  (-0.0551861 0.213517 0)
  (-0.205233 0.137988 0)
  (-0.11477 0.0535099 0)
  (-0.0411047 0.015863 0)
  (0.00230363 0.00463945 0)
  (0.0307914 -0.000430077 0)
  (0.0514416 -0.00272949 0)
  (0.0665161 -0.00279602 0)
  (0.078213 -0.00133474 0)
  (0.0876009 0.000974212 0)
  (0.0951233 0.00360786 0)
  (0.101024 0.00619764 0)
  (0.105421 0.00844814 0)
  (0.10842 0.0101227 0)
  (0.110191 0.011189 0)
  (0.110988 0.0116962 0)
  (0.11108 0.0117192 0)
  (0.110687 0.0113457 0)
  (0.109964 0.0106348 0)
  (0.10898 0.00962421 0)
  (0.107743 0.0083393 0)
  (0.10622 0.00679882 0)
  (0.104372 0.00501269 0)
  (0.102172 0.00297456 0)
  (0.0996093 0.000645319 0)
  (0.0966881 -0.00205661 0)
  (0.0934208 -0.00526298 0)
  (0.0898223 -0.00916898 0)
  (0.0858999 -0.0140557 0)
  (0.0816297 -0.0203223 0)
  (0.0769007 -0.0285273 0)
  (0.0714416 -0.0394562 0)
  (0.0651313 -0.0542589 0)
  (0.0573023 -0.0745554 0)
  (0.0393303 -0.100015 0)
  (-0.10477 -0.101159 0)
  (0.3777 0.0294657 0)
  (-1.19009 0.0715548 0)
  (0.485712 -0.0755635 0)
  (0.21055 -0.103485 0)
  (0.185431 -0.136046 0)
  (0.202948 -0.146157 0)
  (0.218117 -0.146514 0)
  (0.226291 -0.145721 0)
  (0.230457 -0.146407 0)
  (0.232176 -0.148662 0)
  (0.232103 -0.151853 0)
  (0.230598 -0.155251 0)
  (0.227946 -0.158177 0)
  (0.224436 -0.160077 0)
  (0.220375 -0.160627 0)
  (0.216036 -0.159797 0)
  (0.211633 -0.157784 0)
  (0.207334 -0.154947 0)
  (0.20324 -0.151701 0)
  (0.19938 -0.148419 0)
  (0.195709 -0.145384 0)
  (0.192131 -0.142771 0)
  (0.188517 -0.140655 0)
  (0.184729 -0.139038 0)
  (0.180643 -0.13788 0)
  (0.176157 -0.13712 0)
  (0.171187 -0.136694 0)
  (0.165657 -0.136549 0)
  (0.159485 -0.136644 0)
  (0.152558 -0.136943 0)
  (0.144707 -0.137416 0)
  (0.135656 -0.138015 0)
  (0.124953 -0.138661 0)
  (0.111847 -0.139211 0)
  (0.0955032 -0.139437 0)
  (0.0752427 -0.139079 0)
  (0.0509674 -0.140419 0)
  (-0.103997 -0.150302 0)
  (0.442974 -0.274347 0)
  (-0.835933 0.00573842 0)
  (0.732502 0.501401 0)
  (0.392222 0.403549 0)
  (0.654504 0.312643 0)
  (0.667583 0.294038 0)
  (0.618624 0.291272 0)
  (0.579745 0.291462 0)
  (0.550153 0.298102 0)
  (0.522549 0.310903 0)
  (0.495887 0.327755 0)
  (0.471118 0.346868 0)
  (0.448717 0.366768 0)
  (0.428698 0.385971 0)
  (0.410987 0.403003 0)
  (0.395493 0.416622 0)
  (0.382065 0.426063 0)
  (0.370444 0.431184 0)
  (0.360287 0.43246 0)
  (0.351222 0.430798 0)
  (0.342893 0.427265 0)
  (0.334998 0.422857 0)
  (0.327297 0.418353 0)
  (0.319606 0.414271 0)
  (0.311785 0.410891 0)
  (0.303726 0.408312 0)
  (0.295333 0.40651 0)
  (0.286512 0.405396 0)
  (0.277155 0.404851 0)
  (0.267125 0.404757 0)
  (0.25624 0.405007 0)
  (0.24426 0.405512 0)
  (0.230873 0.406182 0)
  (0.215681 0.40691 0)
  (0.198177 0.40752 0)
  (0.177709 0.407703 0)
  (0.153598 0.406892 0)
  (0.125877 0.403424 0)
  (0.100538 0.393042 0)
  (-0.126429 0.444798 0)
  (0.571005 0.722741 0)
)
;

boundaryField
{
  floor
  {
    type noSlip;
  }
  ceiling
  {
    type noSlip;
  }
  sWall
  {
    type noSlip;
  }
  nWall
  {
    type noSlip;
  }
  sideWalls
  {
    type empty;
  }
  glass1
  {
    type noSlip;
  }
  glass2
  {
    type noSlip;
  }
  sun
  {
    type noSlip;
  }
  heatsource1
  {
    type noSlip;
  }
  heatsource2
  {
    type noSlip;
  }
  Table_master
  {
    type noSlip;
  }
  Table_slave
  {
    type noSlip;
  }
  inlet
  {
    type fixedValue;
    value uniform (0.277164 -0.114805 0);
  }
  outlet
  {
    type zeroGradient;
  }
} 	// ************************************************************************* //

