/*--------------------------------*- C++ -*----------------------------------*\
  =========                 |
  \\      /  F ield         | OpenFOAM: The Open Source CFD Toolbox
   \\    /   O peration     | Website:  https://openfoam.org
    \\  /    A nd           | Version:  6
     \\/     M anipulation  |
\*---------------------------------------------------------------------------*/
FoamFile
{
    version     2.0;
    format      ascii;
    class       surfaceScalarField;
    location    "240";
    object      phi;
}
// * * * * * * * * * * * * * * * * * * * * * * * * * * * * * * * * * * * * * //

dimensions      [1 0 -1 0 0 0 0];

internalField   nonuniform List<scalar> 
852
(
0.0019526
-0.00196146
0.00279861
-0.000846143
0.00397151
-0.00117302
0.00479739
-0.000826015
0.00521924
-0.000421975
0.0053852
-0.000166089
0.0053927
-7.6265e-06
0.00528642
0.000106146
0.00508839
0.000197907
0.00480824
0.000280016
0.00443836
0.000369754
0.00394677
0.000491457
0.0032571
0.000689544
0.00215886
0.00109811
0.00215459
-0.000115495
0.000109256
-0.000434283
0.000318639
-1.8252e-05
-0.000416177
0.000651431
-0.000669829
0.00117781
-0.000526527
0.00153275
-0.000355089
0.00173611
-0.0002035
0.00184347
-0.000107515
0.00191181
-6.84852e-05
0.00196109
-4.94272e-05
0.00199588
-3.49446e-05
0.00201625
-2.0521e-05
0.00201571
3.93473e-07
0.00197654
3.9017e-05
0.00185964
0.000116749
0.00159792
0.000261566
0.00112968
0.000468089
0.000290659
0.000838866
0.000281858
0.000974042
-0.0029607
0.00213502
-0.00200725
0.00321144
-0.00224958
0.00382305
-0.00143776
0.00413246
-0.000731521
0.00424808
-0.000281841
0.0042306
9.71596e-06
0.00411917
0.000217446
0.00394409
0.000372854
0.0037203
0.00050367
0.00345117
0.000638746
0.00313494
0.000807556
0.00278252
0.00104183
0.00251887
0.00136162
0.00289607
0.00177725
0.00138519
0.00151069
0.00138501
-8.07081e-05
0.000176266
0.000397844
-0.000160061
0.0009183
-0.000936778
0.00128841
-0.00104008
0.00158922
-0.000827484
0.00178482
-0.000550834
0.00182723
-0.000246057
0.00184066
-0.00012109
0.00185368
-8.16629e-05
0.00186481
-6.07015e-05
0.00187336
-4.36427e-05
0.00187965
-2.69615e-05
0.00188098
-1.08544e-06
0.00186945
5.03942e-05
0.00180557
0.000180473
0.001554
0.00051298
0.00115329
0.000868647
0.000690569
0.00130143
0.000949572
0.000443835
-0.00344569
0.00141811
-0.00298165
0.00226472
-0.00309633
0.00265392
-0.00182711
0.00281071
-0.000888445
0.00283041
-0.000301682
0.00276883
7.11507e-05
0.00267456
0.000311585
0.00257103
0.000476244
0.00246352
0.000611043
0.00235228
0.000749844
0.00224199
0.000917712
0.00215015
0.00113354
0.00210151
0.00141013
0.00206721
0.00181142
0.0014995
0.00207827
0.00288438
0.000142601
1.21688e-05
0.0013394
-0.00135701
0.00175477
-0.00135229
0.00191158
-0.00119703
0.00201641
-0.000932457
0.00210133
-0.000635906
0.00185528
0.0017342
0.00165254
0.00159184
0.0015482
0.00152124
0.00152016
0.00157055
0.00175102
0.00144072
0.000823125
0.0011625
0.00114671
0.000861715
0.00160206
0.00177642
5.13278e-05
-0.00355409
0.000561699
-0.00349216
0.00113567
-0.00367045
0.00137628
-0.00206787
0.00139241
-0.000904725
0.00132275
-0.000232176
0.00126143
0.00013233
0.00124343
0.000329445
0.00125668
0.000462845
0.00128623
0.000581355
0.00132705
0.000708885
0.00138311
0.000861506
0.00146454
0.00105197
0.00158279
0.00129174
0.00178528
0.0016088
0.00208888
0.00177453
0.00315617
0.00181695
0.00253461
0.000593289
0.00302337
-0.000476734
0.00263263
-0.000966399
0.00244792
-0.00116772
0.00231056
-0.00105981
0.00220222
-0.000824269
0.00208952
-0.000523357
0.00225163
-0.000162417
0.0022619
-1.05739e-05
0.00219778
6.38155e-05
0.00208542
0.000112051
0.00193369
0.000151412
0.00174448
0.0001889
0.00151235
0.000231818
0.00121996
0.000292076
0.000819038
0.000400614
0.000909417
0.000732587
0.00094805
0.00110792
0.00103756
0.0015124
0.00276982
-0.000386808
-0.00323949
-0.000424902
-0.0034542
1.01959e-05
-0.00410571
0.000225858
-0.0022837
0.000160102
-0.000839127
9.07302e-05
-0.000162958
9.51055e-05
0.000127805
0.000155973
0.000268429
0.000249615
0.000369056
0.00036491
0.000465914
0.000500712
0.000572939
0.000663138
0.000698937
0.000865987
0.000848982
0.00113727
0.00102032
0.00154003
0.00120591
0.00205116
0.00126326
0.00269763
0.00117035
0.00295402
0.000336764
0.00285621
-0.000379064
0.00263141
-0.000741744
0.0023397
-0.000876161
0.00207682
-0.00079708
0.0018532
-0.000600795
0.00167875
-0.000349064
0.0016002
-8.40228e-05
0.00149293
9.65296e-05
0.00136154
0.00019505
0.00121932
0.000254107
0.0010696
0.000300965
0.000910931
0.000347409
0.000741857
0.000400728
0.000566499
0.000467271
0.000429598
0.000537352
0.000498709
0.000663312
0.000795158
0.000811315
0.00155506
0.000752335
0.00274695
0.00157778
0.0012599
0.00148669
-0.000103949
0.00136348
-0.000150607
-0.000846881
-0.00247885
-0.00119513
-0.00310609
-0.000895397
-0.00440559
-0.000662924
-0.00251634
-0.000643419
-0.000858794
-0.000635282
-0.000171253
-0.000592968
8.53355e-05
-0.000517671
0.000192978
-0.00041064
0.000261872
-0.000273338
0.000328461
-0.000102803
0.000402255
0.000108024
0.000487962
0.000367593
0.000589268
0.000692102
0.00069567
0.00110956
0.000788313
0.00158645
0.000786221
0.00212182
0.000634845
0.0023158
0.000142641
0.00221539
-0.000278804
0.00199265
-0.000519151
0.00169846
-0.000582128
0.0014041
-0.000502868
0.00114196
-0.000338819
0.000926048
-0.000133315
0.000765956
7.59054e-05
0.000639216
0.000223104
0.000525239
0.000308861
0.000413262
0.000365916
0.000300336
0.000413724
0.000187639
0.000459937
8.25997e-05
0.0005056
4.85257e-06
0.000544851
-1.04813e-05
0.000552519
0.000127187
0.000525479
0.000410382
0.000527957
0.000697413
0.000465143
0.000927218
0.00134781
0.000472594
0.00194115
-0.000333275
0.00216918
-0.000529275
-0.00120077
-0.00137583
-0.00180113
-0.00250584
-0.00148289
-0.00472399
-0.00116849
-0.00283091
-0.00105336
-0.000974098
-0.00100161
-0.000223162
-0.000956745
4.03041e-05
-0.000891395
0.000127468
-0.00079698
0.000167298
-0.000670961
0.000202284
-0.0005112
0.000242337
-0.000312121
0.000288729
-6.26994e-05
0.000339693
0.000240963
0.000391857
0.000596429
0.000432698
0.000970192
0.00041231
0.00130992
0.000294972
0.00140362
4.87855e-05
0.00129547
-0.000170813
0.00107171
-0.000295545
0.000792971
-0.000303553
0.000510489
-0.000220551
0.000254947
-8.34445e-05
4.99653e-05
7.14969e-05
-8.53527e-05
0.000211053
-0.000171445
0.000309024
-0.00024133
0.000378574
-0.000307677
0.000432092
-0.000370244
0.000476119
-0.000421795
0.000511317
-0.000449419
0.000533053
-0.000435124
0.000530387
-0.000366595
0.000483821
-0.000242583
0.0004013
-8.34051e-05
0.000368616
2.32263e-05
0.000358352
0.000215831
0.00115505
4.94089e-05
0.00210741
-0.000178733
0.00239716
-0.00075011
-0.00121086
-0.000270793
-0.00195892
-0.0017579
-0.00172387
-0.00495917
-0.00125323
-0.00330173
-0.00116567
-0.00106184
-0.00117081
-0.000218195
-0.00116832
3.76468e-05
-0.0011331
9.20841e-05
-0.00106598
0.00010001
-0.000969001
0.000105134
-0.000843107
0.000116277
-0.000687837
0.000133296
-0.000502326
0.00015402
-0.000286448
0.000175818
-4.52634e-05
0.000191355
0.000184353
0.000182535
0.000345389
0.000133776
0.000357012
3.69995e-05
0.000237551
-5.15178e-05
3.00626e-05
-8.82241e-05
-0.000212625
-6.10367e-05
-0.000444809
1.14604e-05
-0.000631475
0.000103047
-0.000753626
0.000193473
-0.000819623
0.000276873
-0.000856981
0.000346206
-0.000880742
0.00040216
-0.000895073
0.000446247
-0.000896416
0.000477287
-0.000876421
0.000491148
-0.000824527
0.000480985
-0.000732281
0.000437968
-0.000604776
0.000356146
-0.000459024
0.000255381
-0.000286071
0.000195498
-0.000147068
0.000219185
0.000254432
0.000753386
0.000637184
0.0017245
0.00150459
0.00152959
0.000504722
-0.000426454
-0.00222783
-0.00104125
-0.00614586
-0.000717691
-0.00362546
-0.00109908
-0.000680625
-0.00131308
-4.38139e-06
-0.00138766
0.000112058
-0.00139427
9.8513e-05
-0.00136407
6.96335e-05
-0.00130951
5.04003e-05
-0.0012362
4.2796e-05
-0.0011474
4.43207e-05
-0.00104626
5.27043e-05
-0.000937011
6.64021e-05
-0.000828422
8.25954e-05
-0.000740532
9.4474e-05
-0.000700265
9.33377e-05
-0.000736791
7.33523e-05
-0.000843849
5.53657e-05
-0.000992578
6.03283e-05
-0.00114376
8.99714e-05
-0.00126561
0.000133128
-0.00134502
0.000182271
-0.00138584
0.000234122
-0.00139469
0.000285538
-0.00138135
0.00033269
-0.00135194
0.000372571
-0.00130768
0.000401807
-0.00124658
0.000416002
-0.0011652
0.000409589
-0.00106051
0.000376129
-0.000932652
0.000309931
-0.000788043
0.000211364
-0.000629729
9.68965e-05
-0.000431223
-3.17695e-06
-0.00021062
-1.58427e-06
0.000247905
0.000294698
0.000941759
0.00103048
0.00163401
0.000837174
0.00187075
0.00220998
-0.00198024
-0.000505889
-0.00090975
-0.00138425
0.000197559
-0.00164178
0.000252966
-0.00171046
0.000180552
-0.00172311
0.000110986
-0.00171688
6.32158e-05
-0.00170251
3.58586e-05
-0.00168322
2.33257e-05
-0.00166055
2.14723e-05
-0.0016362
2.81687e-05
-0.00161237
4.24e-05
-0.00159255
6.25879e-05
-0.00158292
8.46713e-05
-0.00159182
0.000102053
-0.00162833
0.00010968
-0.00168656
0.000113422
-0.00174852
0.000122104
-0.0017968
0.000138066
-0.00182284
0.000158983
-0.00182427
0.000183524
-0.00180172
0.000211381
-0.00175733
0.000240964
-0.00169426
0.000269439
-0.00161527
0.000293401
-0.00152262
0.000308975
-0.00141868
0.00031188
-0.00130674
0.000297477
-0.00119201
0.00026122
-0.00108243
0.000200166
-0.000987395
0.000116158
-0.000910727
2.00545e-05
-0.0008348
-7.92757e-05
-0.000749616
-8.69402e-05
-0.000629937
0.000174852
-0.000338401
0.000738775
-0.0001017
0.000600301
0.00172004
-0.00191489
-0.000114983
-0.00252685
-0.000297972
-0.00231965
-9.83152e-06
-0.00216938
0.000102508
-0.00209133
0.000102324
-0.00205782
7.72917e-05
-0.00205094
5.61521e-05
-0.00205875
4.3484e-05
-0.00207371
3.80998e-05
-0.00209097
3.85508e-05
-0.00210702
4.40373e-05
-0.002119
5.41929e-05
-0.00212498
6.83818e-05
-0.00212523
8.47406e-05
-0.00212321
9.98444e-05
-0.00212423
0.000110519
-0.00212871
0.000117712
-0.00213121
0.000124425
-0.0021254
0.00013207
-0.00210729
0.000140684
-0.00207446
0.000150507
-0.00202498
0.000161716
-0.00195777
0.000173569
-0.00187298
0.000184469
-0.0017721
0.000192334
-0.00165813
0.000194825
-0.00153598
0.000189545
-0.001413
0.000174315
-0.00129983
0.000147879
-0.00121109
0.000111239
-0.00116392
6.88128e-05
-0.00117062
2.65792e-05
-0.00125287
2.80111e-06
-0.0013519
1.19168e-05
-0.00129255
0.000115325
-0.000909977
0.000356028
-0.00080173
0.000491877
0.000855615
-0.00309607
-0.00181381
-0.00200722
-0.00237785
-0.00246004
-0.00242945
-0.00239884
-0.00239313
-0.00240851
-0.00243658
-0.00247011
-0.00250327
-0.00253106
-0.00254878
-0.00255239
-0.0025397
-0.00251197
-0.0024737
-0.00242843
-0.00237666
-0.00231749
-0.00224992
-0.0021727
-0.00208439
-0.00198427
-0.00187319
-0.00175407
-0.00163216
-0.00151508
-0.00141265
-0.00133595
-0.00129516
-0.00129618
-0.00133918
-0.00140615
-0.00146428
-0.00141831
-0.00112954
-0.000703632
)
;

boundaryField
{
    floor
    {
        type            calculated;
        value           nonuniform List<scalar> 
29
(
0
0
0
0
0
0
0
0
0
0
0
0
0
0
0
0
0
0
0
0
8.6438e-06
2.26978e-05
3.47052e-05
4.40053e-05
4.14421e-06
6.08547e-06
1.3544e-05
2.13447e-05
2.81438e-05
)
;
    }
    ceiling
    {
        type            calculated;
        value           nonuniform List<scalar> 
43
(
9.68388e-05
9.22807e-05
7.82487e-05
7.24706e-05
7.21791e-05
7.17299e-05
7.1524e-05
7.13973e-05
7.1348e-05
7.13675e-05
7.14361e-05
7.15325e-05
7.16361e-05
7.17285e-05
7.18002e-05
7.18593e-05
7.19349e-05
7.20605e-05
7.2246e-05
7.24722e-05
7.27082e-05
7.29258e-05
7.31023e-05
7.32192e-05
7.32589e-05
7.32034e-05
7.30335e-05
7.27312e-05
7.2285e-05
7.16975e-05
7.09991e-05
7.0268e-05
6.96583e-05
6.93994e-05
6.95886e-05
6.98694e-05
6.91745e-05
6.70793e-05
6.57871e-05
7.18789e-05
4.34988e-05
4.3385e-05
4.94652e-05
)
;
    }
    sWall
    {
        type            calculated;
        value           uniform 8.42087e-05;
    }
    nWall
    {
        type            calculated;
        value           nonuniform List<scalar> 6(4.62658e-05 4.52107e-05 4.19229e-05 4.88382e-05 6.25135e-05 7.99216e-05);
    }
    sideWalls
    {
        type            empty;
        value           nonuniform 0();
    }
    glass1
    {
        type            calculated;
        value           nonuniform List<scalar> 9(8.74095e-06 2.5068e-05 4.1038e-05 5.6944e-05 7.20877e-05 8.61124e-05 9.7637e-05 0.000105709 0.000112062);
    }
    glass2
    {
        type            calculated;
        value           nonuniform List<scalar> 2(0.000249575 0.000267795);
    }
    sun
    {
        type            calculated;
        value           uniform 0;
    }
    heatsource1
    {
        type            calculated;
        value           nonuniform List<scalar> 3(2.0363e-07 2.04068e-07 2.04083e-07);
    }
    heatsource2
    {
        type            calculated;
        value           nonuniform List<scalar> 4(5.12092e-08 5.13795e-08 0 0);
    }
    Table_master
    {
        type            calculated;
        value           nonuniform List<scalar> 9(-1.5322e-07 -1.53331e-07 -1.53358e-07 -1.53369e-07 -1.5337e-07 -1.53363e-07 -1.53349e-07 -1.5331e-07 -1.5323e-07);
    }
    Table_slave
    {
        type            calculated;
        value           nonuniform List<scalar> 9(1.52965e-07 1.52984e-07 1.52957e-07 1.52951e-07 1.52962e-07 1.52986e-07 1.53023e-07 1.53072e-07 1.53143e-07);
    }
    inlet
    {
        type            calculated;
        value           uniform -0.00637565;
    }
    outlet
    {
        type            calculated;
        value           nonuniform List<scalar> 2(0.00291484 -0.00137474);
    }
}


// ************************************************************************* //
