/*--------------------------------*- C++ -*----------------------------------*\
  =========                 |
  \\      /  F ield         | OpenFOAM: The Open Source CFD Toolbox
   \\    /   O peration     | Website:  https://openfoam.org
    \\  /    A nd           | Version:  6
     \\/     M anipulation  |
\*---------------------------------------------------------------------------*/
FoamFile
{
    version     2.0;
    format      ascii;
    class       volScalarField;
    location    "230";
    object      alphat;
}
// * * * * * * * * * * * * * * * * * * * * * * * * * * * * * * * * * * * * * //

dimensions      [1 -1 -1 0 0 0 0];

internalField   nonuniform List<scalar> 
459
(
0.00228781
0.00257265
0.0025189
0.00235537
0.00217679
0.00201466
0.00187395
0.00174831
0.00163379
0.00152735
0.00142623
0.00132746
0.001227
0.00111746
0.000999463
0.000764898
0.00100616
0.000933047
0.000859438
0.000794874
0.000736156
0.000682618
0.000635885
0.000595202
0.000559712
0.000528589
0.000500991
0.000476392
0.000453797
0.000432055
0.000409748
0.000388854
0.000375699
0.000484972
0.00269773
0.00814914
0.00719148
0.00634404
0.00570905
0.00521999
0.00478497
0.00439114
0.00402073
0.00365787
0.00328491
0.00288337
0.00243905
0.00194224
0.00144709
0.000955669
0.00081923
0.000994858
0.00314019
0.00260818
0.00255351
0.00248859
0.00232182
0.00191884
0.00164857
0.00145267
0.00130263
0.00118395
0.00108909
0.00100091
0.000908953
0.000810122
0.000722663
0.000762584
0.000816937
0.000613447
0.00285675
0.01025
0.0079396
0.00656262
0.00586706
0.00553163
0.00531051
0.00509855
0.00484666
0.00453281
0.00414489
0.00367745
0.00313586
0.00254018
0.00194873
0.00139684
0.000826485
0.000970418
0.00258201
0.00295006
0.00321689
0.0032671
0.00290733
0.00085883
0.000746131
0.000659391
0.000591136
0.000536316
0.000491586
0.000455729
0.000428537
0.000410723
0.000477058
0.000699208
0.00104878
0.000718451
0.00284328
0.0101472
0.00725078
0.00559882
0.00517578
0.00526899
0.00534976
0.0053171
0.00516713
0.00490372
0.00453285
0.00406487
0.00351731
0.00292762
0.00233718
0.00177415
0.00124885
0.000869956
0.0019478
0.00277027
0.00348908
0.00389381
0.00398862
0.00351997
0.000939956
0.000842023
0.000762628
0.000694705
0.000633842
0.000576849
0.00052108
0.000463908
0.000398475
0.000479656
0.000651183
0.00128801
0.000842421
0.0027935
0.00860314
0.00604388
0.00487502
0.00511771
0.00537361
0.00545763
0.00544251
0.00532255
0.00509888
0.00477992
0.00437541
0.00388938
0.0033967
0.00292141
0.00253348
0.00233597
0.00293613
0.00383031
0.00454464
0.00491568
0.00501591
0.00494765
0.00467561
0.00372911
0.00317067
0.00273348
0.00235238
0.00199845
0.00165266
0.00131558
0.00100409
0.000732297
0.000811175
0.00082237
0.00126517
0.001187
0.00090086
0.000993251
0.00139104
0.0026935
0.0068752
0.00487683
0.00472319
0.00546027
0.0056916
0.0057042
0.0056587
0.00555583
0.00539271
0.00517565
0.00491712
0.00463542
0.00437009
0.00414501
0.00412509
0.00441568
0.00525608
0.00573041
0.00591767
0.00589284
0.00574107
0.00554027
0.00526453
0.00473267
0.00417478
0.0036388
0.00312606
0.00263059
0.00214212
0.00175676
0.00153393
0.00151662
0.00172923
0.00178642
0.00179376
0.00147932
0.00148976
0.00216016
0.00188986
0.00254698
0.00545192
0.00418654
0.0047853
0.00566646
0.00593768
0.00593649
0.00588711
0.00581274
0.00571554
0.00560513
0.00549879
0.00541916
0.00539467
0.00545956
0.00566726
0.00604471
0.00642779
0.00650455
0.00637552
0.00612271
0.00582435
0.00551211
0.00513196
0.00469285
0.0042281
0.00375982
0.0033083
0.00289913
0.00257122
0.00239512
0.00241511
0.00262671
0.00291981
0.0030174
0.00277466
0.00196974
0.00229559
0.00412425
0.0025456
0.00234509
0.00409966
0.0037096
0.00514489
0.00570199
0.00589154
0.00588084
0.00586361
0.00584837
0.00582853
0.00580896
0.00580427
0.00583062
0.00589836
0.00602537
0.00620457
0.00639549
0.00648547
0.00641226
0.00619553
0.00588388
0.00552972
0.0051534
0.00476625
0.00440575
0.00407186
0.00377152
0.00352517
0.00336184
0.00331448
0.00341372
0.00366433
0.00402152
0.00435128
0.00448359
0.00432071
0.00340989
0.00341153
0.00730003
0.0034621
0.0020035
0.00198311
0.00294658
0.00636406
0.00667722
0.00659074
0.00658693
0.00664895
0.00671007
0.00674529
0.00675041
0.00673911
0.00672804
0.00671989
0.00673128
0.00676432
0.00680063
0.00679705
0.00672546
0.00657677
0.00636426
0.00611144
0.00582218
0.00551838
0.00524831
0.00502352
0.00485424
0.00475618
0.00474873
0.00485041
0.00507114
0.00539805
0.00577657
0.00609041
0.00623484
0.00618763
0.00556904
0.00521445
0.0092678
0.00383231
0.00164447
0.0070651
0.00825345
0.00838362
0.00853983
0.00867113
0.00872949
0.00872604
0.00865854
0.0085462
0.00842148
0.0083031
0.00820857
0.00814998
0.00813281
0.00814156
0.00814598
0.00812292
0.00805607
0.00793335
0.00774441
0.00752636
0.00732873
0.00716698
0.0070527
0.00699971
0.00702363
0.00713793
0.007346
0.0076282
0.00792572
0.00812243
0.00817119
0.00813816
0.0079573
0.00766684
0.00946625
0.00319331
0.00310485
0.00971962
0.0104785
0.0105132
0.0106094
0.0107115
0.0106984
0.0106251
0.0105215
0.0103882
0.0102396
0.0100901
0.0099559
0.00985611
0.00981988
0.00986724
0.00993627
0.00998878
0.00999649
0.00992019
0.00975505
0.00957769
0.00941901
0.00928867
0.00919423
0.00914573
0.00915555
0.00923604
0.00939344
0.00961581
0.0098533
0.00999321
0.00996809
0.00984839
0.00955154
0.00889311
0.00750639
0.00265171
0.00148884
0.00123405
0.00190344
0.00253846
0.00265109
0.00263024
0.00259859
0.00257787
0.00256571
0.00255149
0.00253331
0.00251129
0.00248637
0.00245962
0.00243267
0.00240853
0.00239132
0.00238822
0.00238924
0.00238883
0.00238411
0.00237569
0.0023673
0.00235815
0.00234976
0.002343
0.00233854
0.00233715
0.00233967
0.00234669
0.00235796
0.00237117
0.00238061
0.00238254
0.00237982
0.00237352
0.00238125
0.0024382
0.00245826
0.0022032
)
;

boundaryField
{
    floor
    {
        type            compressible::alphatWallFunction;
        Prt             0.85;
        value           nonuniform List<scalar> 
29
(
0.000142653
0.000109112
0.000143612
0.000133275
0.00012277
0.000113467
0.000104928
9.70685e-05
9.01467e-05
8.407e-05
7.87266e-05
7.40058e-05
6.97902e-05
6.60078e-05
6.25116e-05
5.91262e-05
5.56297e-05
5.23323e-05
5.02454e-05
6.73364e-05
6.73356e-05
8.68117e-05
0.000102349
0.000120342
0.000142651
0.000109111
0.000142021
0.000138565
0.000124264
)
;
    }
    ceiling
    {
        type            compressible::alphatWallFunction;
        Prt             0.85;
        value           nonuniform List<scalar> 
43
(
0.000210486
0.000175806
0.000265389
0.000347158
0.000361375
0.0003587
0.000354666
0.000352018
0.000350457
0.000348638
0.000346315
0.000343502
0.00034032
0.000336901
0.000333454
0.000330363
0.000328158
0.000327759
0.000327888
0.000327836
0.000327231
0.000326154
0.000325079
0.000323907
0.000322834
0.000321967
0.000321395
0.000321217
0.000321538
0.000322437
0.000323879
0.000325569
0.000326776
0.000327022
0.000326673
0.000325868
0.000326856
0.000334129
0.000336688
0.000303995
0.000277997
0.000275325
0.000418142
)
;
    }
    sWall
    {
        type            compressible::alphatWallFunction;
        Prt             0.85;
        value           uniform 0.000210825;
    }
    nWall
    {
        type            compressible::alphatWallFunction;
        Prt             0.85;
        value           nonuniform List<scalar> 6(0.00019683 0.0002633 0.000347847 0.000429091 0.000361297 0.000304045);
    }
    sideWalls
    {
        type            empty;
    }
    glass1
    {
        type            compressible::alphatWallFunction;
        Prt             0.85;
        value           nonuniform List<scalar> 9(0.000317001 0.000369405 0.000389488 0.000387781 0.000381482 0.000368803 0.000350125 0.000324195 0.000279787);
    }
    glass2
    {
        type            compressible::alphatWallFunction;
        Prt             0.85;
        value           nonuniform List<scalar> 2(0.000465047 0.000510491);
    }
    sun
    {
        type            compressible::alphatWallFunction;
        Prt             0.85;
        value           nonuniform List<scalar> 
14
(
0.000314807
0.000351158
0.000344335
0.000323475
0.000300516
0.000279497
0.000261104
0.000244555
0.000229355
0.000215121
0.000201497
0.000188082
0.000174323
0.00015917
)
;
    }
    heatsource1
    {
        type            compressible::alphatWallFunction;
        Prt             0.85;
        value           nonuniform List<scalar> 3(0.000128373 0.000141472 0.000196412);
    }
    heatsource2
    {
        type            compressible::alphatWallFunction;
        Prt             0.85;
        value           nonuniform List<scalar> 4(0.000136163 0.000116671 0.00011667 0.000117715);
    }
    Table_master
    {
        type            compressible::alphatWallFunction;
        Prt             0.85;
        value           nonuniform List<scalar> 9(0.000122361 0.000106068 9.33266e-05 8.31567e-05 7.48833e-05 6.80544e-05 6.25235e-05 5.82924e-05 5.55021e-05);
    }
    Table_slave
    {
        type            compressible::alphatWallFunction;
        Prt             0.85;
        value           nonuniform List<scalar> 9(0.000133934 0.000119952 0.000108474 9.85415e-05 8.95406e-05 8.10154e-05 7.25714e-05 6.37962e-05 5.35809e-05);
    }
    inlet
    {
        type            fixedValue;
        value           uniform 1.94e-05;
    }
    outlet
    {
        type            zeroGradient;
    }
}


// ************************************************************************* //
