/*--------------------------------*- C++ -*----------------------------------*\
  =========                 |
  \\      /  F ield         | OpenFOAM: The Open Source CFD Toolbox
   \\    /   O peration     | Website:  https://openfoam.org
    \\  /    A nd           | Version:  6
     \\/     M anipulation  |
\*---------------------------------------------------------------------------*/
FoamFile
{
    version     2.0;
    format      ascii;
    class       volScalarField;
    location    "230";
    object      epsilon;
}
// * * * * * * * * * * * * * * * * * * * * * * * * * * * * * * * * * * * * * //

dimensions      [0 2 -3 0 0 0 0];

internalField   nonuniform List<scalar> 
459
(
0.00269303
0.00383032
0.00359621
0.00294087
0.00232161
0.00184069
0.00148141
0.00120306
0.000981843
0.000802214
0.000653235
0.000526719
0.000415976
0.000314225
0.000224806
0.000101047
0.000230084
0.000183553
0.000143485
0.000113536
9.01992e-05
7.19222e-05
5.81434e-05
4.76861e-05
3.96574e-05
3.34053e-05
2.84433e-05
2.44574e-05
2.11413e-05
1.8247e-05
1.55649e-05
1.33041e-05
1.20005e-05
2.58119e-05
0.00441732
0.00929243
0.0051781
0.00324101
0.00220979
0.001612
0.00123068
0.000967493
0.000773834
0.000623992
0.000503143
0.000402401
0.000316968
0.000243525
0.000187235
0.00019664
0.000123893
0.000222422
0.000509356
0.000220766
0.000138363
9.90853e-05
7.51639e-05
6.23779e-05
5.01658e-05
4.00562e-05
3.21235e-05
2.59946e-05
2.12355e-05
1.75304e-05
1.46002e-05
1.24225e-05
1.14019e-05
1.82937e-05
3.94883e-05
5.22978e-05
0.00524586
0.0129069
0.00552816
0.00286167
0.00173146
0.00119165
0.000896816
0.000711578
0.000579422
0.000475391
0.000388075
0.000312683
0.000248079
0.000193804
0.000153861
0.00013415
0.000127238
0.000206313
0.000241968
0.00015591
0.000118027
9.29844e-05
7.78803e-05
0.000143441
9.40709e-05
6.49379e-05
4.67945e-05
3.49508e-05
2.6919e-05
2.14508e-05
1.78379e-05
1.57056e-05
1.20437e-05
1.92208e-05
7.8932e-05
8.40455e-05
0.00517144
0.0120261
0.00412526
0.00165617
0.00087902
0.000620472
0.000516565
0.000448786
0.000389863
0.000334034
0.000280915
0.000231775
0.000188257
0.000151982
0.000126057
0.000108615
0.000113908
0.000148458
0.000185409
0.000156798
0.00013404
0.000111468
9.12508e-05
8.13458e-05
0.000188293
0.000135405
0.000100634
7.60928e-05
5.78121e-05
4.35906e-05
3.21405e-05
2.26871e-05
1.43817e-05
1.02473e-05
1.93144e-05
0.000167551
0.000135537
0.00490312
0.00878601
0.00227799
0.000630631
0.000344768
0.000301919
0.000291458
0.000276316
0.000254337
0.000227705
0.000199194
0.000171172
0.000145105
0.000125479
0.000113901
0.000108336
0.000123937
0.000150787
0.000163477
0.000162755
0.000145518
0.000120371
9.67725e-05
8.17344e-05
8.14603e-05
7.40161e-05
6.39944e-05
5.3544e-05
4.35979e-05
3.44179e-05
2.59237e-05
1.84608e-05
1.09661e-05
1.17009e-05
1.98873e-05
0.000118895
0.000158023
0.000165838
0.000222518
0.000612834
0.00439282
0.00626577
0.00141757
0.000364177
0.000196366
0.000180887
0.000182659
0.000180832
0.000174066
0.000163933
0.000152439
0.00014146
0.000132757
0.000129001
0.000133579
0.000147266
0.000177361
0.000210364
0.000214754
0.00019764
0.000166907
0.000131391
0.000101413
8.19677e-05
7.14603e-05
6.26262e-05
5.33744e-05
4.41454e-05
3.54611e-05
2.73943e-05
2.13985e-05
1.79144e-05
1.72006e-05
2.34247e-05
3.50535e-05
6.4599e-05
0.000120281
0.000243788
0.000981422
0.00153697
0.00371068
0.00461773
0.00107571
0.000375513
0.000185824
0.000160441
0.000159214
0.000160305
0.000160737
0.000160884
0.000161737
0.000164337
0.0001698
0.000179568
0.000195587
0.000218669
0.000249311
0.000271561
0.000266221
0.000236217
0.000191169
0.000144384
0.000110721
9.04352e-05
7.71304e-05
6.64062e-05
5.67355e-05
4.83404e-05
4.17926e-05
3.77583e-05
3.74297e-05
4.18561e-05
5.19954e-05
6.75603e-05
8.46184e-05
0.000113026
0.000186684
0.000737402
0.00329565
0.00375717
0.00289212
0.00332662
0.00117103
0.000775724
0.000335567
0.000263642
0.000258082
0.000263755
0.000271438
0.000280746
0.000292666
0.000307524
0.000325096
0.000344893
0.000362797
0.000379788
0.000395642
0.000397518
0.000376918
0.000333846
0.000279438
0.000227161
0.000188303
0.000162371
0.000143206
0.000128314
0.000116913
0.000109372
0.000106619
0.000109934
0.00012095
0.000141252
0.000171612
0.000209533
0.000250341
0.00028818
0.00041336
0.00159619
0.0119034
0.00945591
0.00179968
0.00174055
0.00171239
0.00191525
0.000904386
0.000696701
0.000690302
0.000713862
0.000735733
0.000757852
0.000788125
0.000827947
0.000855379
0.000867055
0.000865756
0.000853949
0.000836084
0.000811061
0.000770214
0.000712175
0.00064308
0.000572162
0.000514619
0.000472204
0.000438381
0.000411961
0.00039325
0.000383587
0.000385112
0.00040056
0.000432854
0.000484096
0.00055448
0.00064681
0.000745506
0.000817923
0.000954642
0.00266106
0.0160145
0.0128298
0.00230795
0.00323898
0.00242053
0.00217888
0.00222533
0.00229853
0.0023278
0.00234031
0.00237363
0.00237374
0.0023552
0.0023204
0.00226938
0.00220655
0.00214487
0.00209284
0.00203404
0.00196514
0.00188404
0.00178481
0.00168396
0.001603
0.0015357
0.00148146
0.00144189
0.00142065
0.00142317
0.00145625
0.00152636
0.00163532
0.00177348
0.0019267
0.00204481
0.00213894
0.00232142
0.00369283
0.0112241
0.0074221
0.00691819
0.00892191
0.00762137
0.00679687
0.00673038
0.00687518
0.00689157
0.00683613
0.00673692
0.00661589
0.00647872
0.00632348
0.00615085
0.00597564
0.00582045
0.00573394
0.00567009
0.0056034
0.00551583
0.00537245
0.00517115
0.00498613
0.00483218
0.0047056
0.0046078
0.00454599
0.00453289
0.00458657
0.0047274
0.00496547
0.00526744
0.00549783
0.00555726
0.00552124
0.00542687
0.00552303
0.00613734
0.0042506
0.000815277
0.000463007
0.00166606
0.00389162
0.00439281
0.00426426
0.00409446
0.00398387
0.00391673
0.00384269
0.00375302
0.00364875
0.00353463
0.00341569
0.00329911
0.00319713
0.00312551
0.00311196
0.00311536
0.00311342
0.00309469
0.00306176
0.00302914
0.00299391
0.00296188
0.00293616
0.00291919
0.00291377
0.00292294
0.00294904
0.00299138
0.00304152
0.00307751
0.00308443
0.00307334
0.0030486
0.0030782
0.00330429
0.00338681
0.00243864
)
;

boundaryField
{
    floor
    {
        Cmu             0.09;
        kappa           0.41;
        E               9.8;
        type            epsilonWallFunction;
        value           nonuniform List<scalar> 
29
(
0.000224806
0.000101047
0.000230084
0.000183553
0.000143485
0.000113536
9.01992e-05
7.19222e-05
5.81434e-05
4.76861e-05
3.96574e-05
3.34053e-05
2.84433e-05
2.44574e-05
2.11413e-05
1.8247e-05
1.55649e-05
1.33041e-05
1.20005e-05
2.58119e-05
2.58119e-05
5.22978e-05
8.40455e-05
0.000135537
0.000224806
0.000101047
0.000222422
0.000206313
0.000148458
)
;
    }
    ceiling
    {
        Cmu             0.09;
        kappa           0.41;
        E               9.8;
        type            epsilonWallFunction;
        value           nonuniform List<scalar> 
43
(
0.000815277
0.000463007
0.00166606
0.00389162
0.00439281
0.00426426
0.00409446
0.00398387
0.00391673
0.00384269
0.00375302
0.00364875
0.00353463
0.00341569
0.00329911
0.00319713
0.00312551
0.00311196
0.00311536
0.00311342
0.00309469
0.00306176
0.00302914
0.00299391
0.00296188
0.00293616
0.00291919
0.00291377
0.00292294
0.00294904
0.00299138
0.00304152
0.00307751
0.00308443
0.00307334
0.0030486
0.0030782
0.00330429
0.00338681
0.00243864
0.00179968
0.00174055
0.00691819
)
;
    }
    sWall
    {
        Cmu             0.09;
        kappa           0.41;
        E               9.8;
        type            epsilonWallFunction;
        value           uniform 0.000815277;
    }
    nWall
    {
        Cmu             0.09;
        kappa           0.41;
        E               9.8;
        type            epsilonWallFunction;
        value           nonuniform List<scalar> 6(0.000612834 0.00153697 0.00375717 0.0074221 0.0042506 0.00243864);
    }
    sideWalls
    {
        type            empty;
    }
    glass1
    {
        Cmu             0.09;
        kappa           0.41;
        E               9.8;
        type            epsilonWallFunction;
        value           nonuniform List<scalar> 9(0.00269303 0.00441732 0.00524586 0.00517144 0.00490312 0.00439282 0.00371068 0.00289212 0.00179968);
    }
    glass2
    {
        Cmu             0.09;
        kappa           0.41;
        E               9.8;
        type            epsilonWallFunction;
        value           nonuniform List<scalar> 2(0.00945591 0.0128298);
    }
    sun
    {
        Cmu             0.09;
        kappa           0.41;
        E               9.8;
        type            epsilonWallFunction;
        value           nonuniform List<scalar> 
14
(
0.00269303
0.00383032
0.00359621
0.00294087
0.00232161
0.00184069
0.00148141
0.00120306
0.000981843
0.000802214
0.000653235
0.000526719
0.000415976
0.000314225
)
;
    }
    heatsource1
    {
        Cmu             0.09;
        kappa           0.41;
        E               9.8;
        type            epsilonWallFunction;
        value           nonuniform List<scalar> 3(0.000165838 0.000222518 0.000612834);
    }
    heatsource2
    {
        Cmu             0.09;
        kappa           0.41;
        E               9.8;
        type            epsilonWallFunction;
        value           nonuniform List<scalar> 4(0.00019664 0.000123893 0.000123893 0.000127238);
    }
    Table_master
    {
        Cmu             0.09;
        kappa           0.41;
        E               9.8;
        type            epsilonWallFunction;
        value           nonuniform List<scalar> 9(0.000143441 9.40709e-05 6.49379e-05 4.67945e-05 3.49508e-05 2.6919e-05 2.14508e-05 1.78379e-05 1.57056e-05);
    }
    Table_slave
    {
        Cmu             0.09;
        kappa           0.41;
        E               9.8;
        type            epsilonWallFunction;
        value           nonuniform List<scalar> 9(0.000188293 0.000135405 0.000100634 7.60928e-05 5.78121e-05 4.35906e-05 3.21405e-05 2.26871e-05 1.43817e-05);
    }
    inlet
    {
        type            turbulentMixingLengthDissipationRateInlet;
        mixingLength    0.01;
        phi             phi;
        k               k;
        value           uniform 3.01869e-05;
    }
    outlet
    {
        type            zeroGradient;
    }
}


// ************************************************************************* //
