/*--------------------------------*- C++ -*----------------------------------*\
  =========                 |
  \\      /  F ield         | OpenFOAM: The Open Source CFD Toolbox
   \\    /   O peration     | Website:  https://openfoam.org
    \\  /    A nd           | Version:  6
     \\/     M anipulation  |
\*---------------------------------------------------------------------------*/
FoamFile
{
    version     2.0;
    format      ascii;
    class       surfaceScalarField;
    location    "700";
    object      phi;
}
// * * * * * * * * * * * * * * * * * * * * * * * * * * * * * * * * * * * * * //

dimensions      [1 0 -1 0 0 0 0];

internalField   nonuniform List<scalar> 
852
(
-0.0031121
0.00316972
-0.0043183
0.00120625
-0.00512394
0.000805688
-0.0056073
0.0004834
-0.00572042
0.000113174
-0.00542167
-0.000298707
-0.00470435
-0.000717269
-0.00364591
-0.0010584
-0.00239191
-0.00125395
-0.00110699
-0.00128489
3.9725e-05
-0.00114668
0.000788724
-0.000748971
0.00112729
-0.000338542
0.000961707
0.000165606
0.000963933
-0.000963733
0.000966574
-0.000869063
-9.4714e-05
-0.000257901
-0.000611201
0.000411903
-0.00066984
0.000952792
-0.000540927
0.0013407
-0.000387949
0.00156363
-0.000222977
0.00167063
-0.000107046
0.00173202
-6.14298e-05
0.0017735
-4.15283e-05
0.00180142
-2.79788e-05
0.00181848
-1.71134e-05
0.00182303
-4.59802e-06
0.00180483
1.8144e-05
0.0017371
6.7665e-05
0.00157351
0.000163529
0.00128809
0.000285362
0.000871339
0.000416684
0.00087471
-0.00223743
0.00556296
-0.00337306
0.00234193
-0.00420213
0.00163481
-0.00470003
0.000981347
-0.00483197
0.000245165
-0.00456095
-0.000569678
-0.00390468
-0.00137348
-0.00297093
-0.00199209
-0.00191787
-0.00230695
-0.000895271
-0.00230745
-2.5775e-05
-0.00201614
0.000650038
-0.00142476
0.00107052
-0.000759007
0.00129617
-6.00143e-05
0.00167886
0.000581258
0.000901915
0.000776912
0.000901876
-7.87596e-05
0.00105404
0.000346117
-0.000519632
0.000780471
-0.00104559
0.00112924
-0.00101864
0.00141939
-0.000831119
0.00162602
-0.000594614
0.00167337
-0.000270369
0.00168401
-0.000117724
0.0016954
-7.28658e-05
0.00170487
-5.10491e-05
0.00171131
-3.44656e-05
0.00171546
-2.13198e-05
0.00171666
-5.849e-06
0.00171032
2.44226e-05
0.0016647
0.000113226
0.00146881
0.000359359
0.00113719
0.000616915
0.000711311
0.000842493
0.00159537
-0.00157311
0.00737539
-0.00253379
0.00330265
-0.00328085
0.00238192
-0.00372298
0.00142353
-0.00382894
0.000351189
-0.00353529
-0.000863272
-0.00289123
-0.00201747
-0.00204919
-0.00283406
-0.00116976
-0.00318632
-0.000364979
-0.00311218
0.000290976
-0.00267207
0.000822753
-0.00195651
0.00121002
-0.00114626
0.00148091
-0.000330891
0.00163065
0.000431535
0.00132265
0.00108493
0.00222454
0.00140003
-0.000333944
0.00173902
-0.000858651
0.00176641
-0.001073
0.00181155
-0.0010638
0.00188384
-0.000903438
0.00200381
-0.000714623
0.00173356
0.00161595
0.00154319
0.00149225
0.00145788
0.00143666
0.00143091
0.00145543
0.00156875
0.00126504
0.000662995
0.000930676
0.000951215
0.000537901
0.0012352
0.00214797
-0.00109288
0.00877948
-0.00183231
0.00404213
-0.00234521
0.00289487
-0.00263755
0.00171592
-0.0026177
0.000331392
-0.00221324
-0.00126767
-0.00156302
-0.00266762
-0.000844399
-0.00355259
-0.000179956
-0.00385068
0.000375419
-0.00366749
0.000813715
-0.00311033
0.00117304
-0.00231583
0.00145734
-0.00143055
0.00169113
-0.000564668
0.00191345
0.000209222
0.00220453
0.00079386
0.00330618
0.0011229
0.00293735
0.000378931
0.00279687
-0.000193452
0.00259097
-0.000652742
0.0023662
-0.000848245
0.00216932
-0.000866937
0.00202148
-0.000755624
0.0018507
-0.000543883
0.0020577
-0.000207196
0.00212705
-6.9554e-05
0.00214033
-1.34861e-05
0.00211394
2.61775e-05
0.00204541
6.83061e-05
0.00192605
0.000119147
0.00173866
0.000187163
0.00145274
0.000285694
0.00100871
0.0004438
0.000885723
0.000785908
0.000637577
0.00119929
0.000301271
0.00157143
0.00246887
-0.000753159
0.00990553
-0.00128699
0.004576
-0.00141058
0.0030185
-0.00144716
0.00175254
-0.00111352
-2.21221e-06
-0.000510312
-0.00187081
0.000101247
-0.00327909
0.000605557
-0.0040568
0.000975596
-0.00422063
0.00123122
-0.00392306
0.00140906
-0.00328815
0.00153887
-0.00244563
0.00164462
-0.0015363
0.00176385
-0.000683894
0.00194906
2.40066e-05
0.00223364
0.000509288
0.00265471
0.000701847
0.00267752
0.000356127
0.00259514
-0.000111073
0.00237976
-0.000437359
0.00212499
-0.000593494
0.00187547
-0.000617444
0.00165927
-0.000539468
0.00149725
-0.000381911
0.00146897
-0.000178977
0.00144555
-4.62019e-05
0.00140986
2.214e-05
0.00136998
6.59811e-05
0.00132551
0.000112704
0.00126596
0.000178614
0.00117711
0.000275936
0.00104528
0.000417439
0.000878022
0.000610972
0.000756153
0.000907697
0.000660279
0.00129509
0.000414343
0.00181729
0.000471448
0.00241168
-0.000988342
0.00145948
-0.00143687
0.000448207
-0.00138994
-0.00062565
0.0109565
-0.000937226
0.00488763
-0.000449969
0.00253128
0.000142821
0.00115978
0.000899608
-0.000758963
0.00155729
-0.00252842
0.00198596
-0.00370765
0.00218254
-0.00425327
0.00220698
-0.00424498
0.00210739
-0.00382341
0.00194512
-0.00312586
0.00177007
-0.00227059
0.00162261
-0.00138886
0.00154156
-0.00060287
0.00155911
6.44516e-06
0.00168304
0.000385355
0.00188872
0.000496168
0.00195832
0.00028653
0.00185823
-1.10027e-05
0.00165798
-0.000237128
0.00142132
-0.000356872
0.00118422
-0.000380392
0.000972893
-0.000328199
0.000812676
-0.000221762
0.000726547
-9.29231e-05
0.000683931
-3.66545e-06
0.000665664
4.03238e-05
0.000666658
6.49015e-05
0.000681287
9.79861e-05
0.000702427
0.000157384
0.000723816
0.000254455
0.000742397
0.000398766
0.000758984
0.000594294
0.000816549
0.000850045
0.000967102
0.00114445
0.00121427
0.00157004
0.00175661
0.00186927
0.00207872
0.00113728
0.00173379
0.000793033
0.000400625
-0.000582698
0.012013
-0.000327371
0.00463234
0.00106077
0.00114317
0.0022965
-7.5928e-05
0.00330087
-0.00176328
0.0038599
-0.00308736
0.00399357
-0.00384121
0.00378842
-0.004048
0.00335422
-0.00381069
0.00279768
-0.00326682
0.00221722
-0.00254541
0.0016793
-0.00173272
0.00123971
-0.000949315
0.000935117
-0.000298326
0.000798954
0.000142578
0.000821765
0.000362526
0.000921671
0.000396246
0.000950777
0.000257402
0.000870742
6.8997e-05
0.00071501
-8.14441e-05
0.000520043
-0.000161966
0.000317863
-0.000178283
0.000135799
-0.000146216
-1.25792e-06
-8.47907e-05
-7.56833e-05
-1.8589e-05
-9.62799e-05
1.6836e-05
-7.81643e-05
2.2112e-05
-3.08364e-05
1.74758e-05
4.32246e-05
2.38257e-05
0.000142042
5.84662e-05
0.000265449
0.000130947
0.00041695
0.000247163
0.000597506
0.000413639
0.000830432
0.000617024
0.00115531
0.000819483
0.00163429
0.00109098
0.00236537
0.00113811
0.00294832
0.000554229
0.00301462
0.000726638
0.00347607
0.00297099
0.0095731
0.00387738
0.00372599
0.00472421
0.000296371
0.00595499
-0.00130665
0.00656357
-0.00237177
0.00652945
-0.00305311
0.00599299
-0.0033046
0.00511624
-0.00317113
0.00405107
-0.00274546
0.00294105
-0.0021568
0.00191271
-0.00151711
0.00102566
-0.000845751
0.000351363
-0.000275105
-5.09855e-05
0.000103946
-0.000198307
0.000289854
-0.000188353
0.000352534
-0.000129494
0.000337346
-0.000118539
0.000246397
-0.000180844
0.000131239
-0.000300404
3.80391e-05
-0.000450304
-1.21513e-05
-0.000604377
-2.4305e-05
-0.000739068
-1.16251e-05
-0.000835076
1.11122e-05
-0.000880258
2.6486e-05
-0.000884202
2.06718e-05
-0.000860848
-1.35052e-06
-0.000813595
-2.98863e-05
-0.000735845
-5.40331e-05
-0.000619125
-5.83653e-05
-0.000461832
-2.64568e-05
-0.000263181
4.84019e-05
-8.91379e-06
0.000159264
0.000301205
0.000306802
0.000644801
0.000475789
0.00106783
0.000667858
0.00152074
0.000685103
0.00165397
0.000420907
0.000882898
0.00149762
0.00460944
0.0101603
0.0138815
0.0126484
0.00152954
0.01169
-0.000348175
0.010419
-0.00110054
0.00883564
-0.00146958
0.00705056
-0.0015194
0.0052279
-0.0013484
0.00347644
-0.000994013
0.00189318
-0.000573604
0.000554113
-0.000178146
-0.000427471
0.000135686
-0.000975118
0.00027244
-0.00118365
0.000312401
-0.00122248
0.000328613
-0.00119558
0.000325575
-0.00115738
0.000299071
-0.00115556
0.000244496
-0.00120402
0.000179609
-0.00129099
0.000124907
-0.00139457
9.13181e-05
-0.00149666
7.76714e-05
-0.00158444
7.60334e-05
-0.00165065
7.72024e-05
-0.00169799
7.37067e-05
-0.00173922
6.17842e-05
-0.00178614
4.54451e-05
-0.00185012
3.39634e-05
-0.0019426
3.83251e-05
-0.00207183
7.07415e-05
-0.00224301
0.000144611
-0.00247068
0.000275957
-0.00279458
0.000483049
-0.00326979
0.000781905
-0.00396987
0.00117576
-0.00494542
0.00164331
-0.00630781
0.00204739
-0.00797228
0.00208527
-0.00742996
0.000955183
-0.00254911
0.00486974
0.00294435
0.00361187
0.000909787
0.00333691
-0.00082558
0.00271019
-0.000842932
0.00172806
-0.000537388
0.000582132
-0.000202634
-0.000530931
0.000118842
-0.00139511
0.00029042
-0.00191493
0.000341548
-0.00213742
0.000358056
-0.0022061
0.000341018
-0.00220576
0.000311963
-0.00216804
0.000290807
-0.00211929
0.000276727
-0.00208102
0.000260695
-0.00207205
0.000235426
-0.00209661
0.000204043
-0.00214574
0.000173922
-0.00220507
0.000150517
-0.00226239
0.000134861
-0.00231126
0.000124766
-0.00235104
0.000116851
-0.00238568
0.000108209
-0.00242191
9.78764e-05
-0.00246508
8.84814e-05
-0.00251724
8.5995e-05
-0.002578
9.89554e-05
-0.00264544
0.000138059
-0.00271741
0.000216449
-0.0027924
0.000350835
-0.00287107
0.000561596
-0.00295406
0.000864775
-0.00302686
0.00124845
-0.00302098
0.00163731
-0.00284804
0.00187434
-0.00224966
0.00148677
-0.000973372
-0.000321228
-0.00345505
-0.000485212
0.00349669
-0.000291479
0.000715854
-0.00124617
0.000128931
-0.00212179
3.25095e-05
-0.00278102
0.000121669
-0.00320478
0.000220947
-0.00338058
0.000294482
-0.00340895
0.000318656
-0.00336615
0.000298611
-0.00327238
0.000264168
-0.003161
0.00022952
-0.00305228
0.000203127
-0.00295033
0.000188739
-0.00285732
0.000183593
-0.00277828
0.000181523
-0.0027199
0.000176914
-0.00268434
0.000168352
-0.00266776
0.000157195
-0.00266281
0.00014543
-0.00266243
0.000134335
-0.00266212
0.000124306
-0.00266044
0.00011503
-0.00265816
0.000105785
-0.00265663
9.6197e-05
-0.00265557
8.72826e-05
-0.00265157
8.18543e-05
-0.00263743
8.46777e-05
-0.00260213
0.000102627
-0.00253054
0.000144723
-0.00240245
0.000222616
-0.00219341
0.000352427
-0.0018807
0.00055194
-0.00144219
0.000809821
-0.000826664
0.00102167
0.00010309
0.000944465
0.00124929
0.000340441
0.00159812
-0.000670184
-0.00178308
-0.00728193
-0.0101651
-0.00663406
-0.00590668
-0.00577419
-0.00574159
-0.00562194
-0.00540472
-0.00511545
-0.00480336
-0.00451248
-0.00425702
-0.004037
-0.00384405
-0.00366609
-0.00349384
-0.00332424
-0.00315982
-0.00300452
-0.00286087
-0.0027294
-0.00260931
-0.00249943
-0.0023989
-0.0023076
-0.00222578
-0.00215268
-0.00208472
-0.00201354
-0.0019239
-0.00179156
-0.00158064
-0.00123919
-0.000697513
0.0001027
0.0011153
0.00205065
0.00238137
0.00170065
)
;

boundaryField
{
    floor
    {
        type            calculated;
        value           nonuniform List<scalar> 
29
(
0
0
0
0
0
0
0
0
0
0
0
0
0
0
0
0
0
0
0
0
-3.44324e-06
-9.42409e-06
-1.47761e-05
-1.97012e-05
-2.20466e-06
-2.89071e-06
-8.75739e-06
-1.20972e-05
-1.0086e-05
)
;
    }
    ceiling
    {
        type            calculated;
        value           nonuniform List<scalar> 
43
(
-3.66097e-05
-3.56351e-05
-3.45825e-05
-1.172e-05
-3.73338e-06
-2.52998e-07
1.86116e-06
3.56734e-06
5.06664e-06
6.41534e-06
7.59347e-06
8.56728e-06
9.36329e-06
1.00342e-05
1.06314e-05
1.11998e-05
1.17685e-05
1.23422e-05
1.28977e-05
1.33965e-05
1.38022e-05
1.40943e-05
1.42714e-05
1.43443e-05
1.43266e-05
1.42248e-05
1.40356e-05
1.37479e-05
1.33506e-05
1.28417e-05
1.22346e-05
1.15558e-05
1.08405e-05
1.01307e-05
9.47606e-06
8.93567e-06
8.99512e-06
9.58539e-06
1.03956e-05
1.22824e-05
7.33184e-06
4.82364e-06
-6.71523e-05
)
;
    }
    sWall
    {
        type            calculated;
        value           uniform -0.000256761;
    }
    nWall
    {
        type            calculated;
        value           nonuniform List<scalar> 6(-4.72549e-05 -5.6882e-05 -6.09182e-05 -6.75782e-05 -7.39935e-05 -9.48602e-05);
    }
    sideWalls
    {
        type            empty;
        value           nonuniform 0();
    }
    glass1
    {
        type            calculated;
        value           nonuniform List<scalar> 9(-5.75766e-05 -0.000155757 -0.000239264 -0.000311154 -0.000372832 -0.000425308 -0.000473706 -0.000531048 -0.000594503);
    }
    glass2
    {
        type            calculated;
        value           nonuniform List<scalar> 2(-0.000250568 -0.000271518);
    }
    sun
    {
        type            calculated;
        value           uniform 0;
    }
    heatsource1
    {
        type            calculated;
        value           nonuniform List<scalar> 3(2.04021e-07 2.03896e-07 2.03937e-07);
    }
    heatsource2
    {
        type            calculated;
        value           nonuniform List<scalar> 4(5.11818e-08 5.13152e-08 0 0);
    }
    Table_master
    {
        type            calculated;
        value           nonuniform List<scalar> 9(-1.53141e-07 -1.53296e-07 -1.53343e-07 -1.5337e-07 -1.53387e-07 -1.53395e-07 -1.53397e-07 -1.53384e-07 -1.53338e-07);
    }
    Table_slave
    {
        type            calculated;
        value           nonuniform List<scalar> 9(1.52913e-07 1.52949e-07 1.52932e-07 1.5292e-07 1.52917e-07 1.5293e-07 1.52963e-07 1.53019e-07 1.53112e-07);
    }
    inlet
    {
        type            calculated;
        value           uniform -0.00628442;
    }
    outlet
    {
        type            calculated;
        value           nonuniform List<scalar> 2(0.00757509 0.00291863);
    }
}


// ************************************************************************* //
