/*--------------------------------*- C++ -*----------------------------------*\
  =========                 |
  \\      /  F ield         | OpenFOAM: The Open Source CFD Toolbox
   \\    /   O peration     | Website:  https://openfoam.org
    \\  /    A nd           | Version:  6
     \\/     M anipulation  |
\*---------------------------------------------------------------------------*/
FoamFile
{
    version     2.0;
    format      ascii;
    class       volScalarField;
    location    "1800";
    object      epsilon;
}
// * * * * * * * * * * * * * * * * * * * * * * * * * * * * * * * * * * * * * //

dimensions      [0 2 -3 0 0 0 0];

internalField   nonuniform List<scalar> 
459
(
0.00516344
0.00466752
0.00416798
0.00375538
0.00342652
0.00315593
0.00292661
0.00272436
0.0025377
0.00235776
0.00217683
0.00198683
0.00177686
0.00152663
0.00123428
3.5901e-06
4.17351e-06
4.55167e-06
3.68571e-06
2.89394e-06
2.26149e-06
1.61335e-06
1.20448e-06
1.11149e-06
1.18673e-06
1.42336e-06
1.87054e-06
2.64734e-06
3.77172e-06
4.572e-06
5.89552e-06
6.94808e-06
8.71479e-06
5.90538e-06
0.00756084
0.00562063
0.00437868
0.00339125
0.00275355
0.00233811
0.0020517
0.00184442
0.00168864
0.0015689
0.00147542
0.0013988
0.00132371
0.00121049
0.00105063
0.0010608
0.000700164
1.32847e-05
1.32878e-05
1.06986e-05
8.35208e-06
6.45608e-06
4.10392e-06
2.56816e-06
1.73568e-06
1.92542e-06
2.73979e-06
4.07397e-06
6.04269e-06
8.69266e-06
1.19138e-05
1.55846e-05
1.78156e-05
2.04635e-05
3.70871e-05
1.17255e-05
0.00933103
0.00688128
0.00457591
0.00301601
0.00220938
0.00177329
0.00152373
0.00136905
0.00125973
0.00117901
0.00111921
0.00107549
0.00103968
0.000982262
0.000909723
0.000918661
0.000716109
4.91085e-05
3.33163e-05
2.05882e-05
1.77605e-05
1.57478e-05
1.48073e-05
5.75766e-06
2.92996e-06
4.15573e-06
5.93434e-06
8.41881e-06
1.20394e-05
1.75235e-05
2.63018e-05
4.18958e-05
3.14403e-05
3.22866e-05
3.75451e-05
4.083e-05
0.010824
0.00837957
0.00432926
0.00215977
0.00132401
0.000976334
0.000828763
0.000784802
0.000786796
0.000800956
0.000814596
0.000825047
0.00083105
0.000814931
0.000793999
0.000825178
0.000750137
0.000148991
6.90264e-05
3.06953e-05
2.75825e-05
2.9218e-05
3.27997e-05
3.93656e-05
5.19308e-05
5.75957e-05
6.44234e-05
7.11109e-05
7.83262e-05
8.72996e-05
9.98857e-05
0.000119524
0.000155078
8.78282e-05
9.8125e-05
0.000111915
0.000147952
0.0122755
0.0100922
0.00380123
0.00127554
0.000673239
0.000511531
0.000477734
0.000490458
0.000527815
0.000570614
0.000611942
0.000648385
0.000677387
0.000682763
0.00068699
0.000725431
0.000686301
0.00020358
5.32149e-05
3.27876e-05
3.1622e-05
3.35857e-05
3.64887e-05
4.00792e-05
4.41969e-05
4.8422e-05
5.34413e-05
5.91968e-05
6.62884e-05
7.56067e-05
8.82685e-05
0.000105479
0.000127918
0.000153042
0.000191165
0.000237675
0.000287709
0.000412685
0.000263519
0.00016973
0.01389
0.0120585
0.00374972
0.000697881
0.000471154
0.000375774
0.000362469
0.000375805
0.000403898
0.000444209
0.000487253
0.00052789
0.000560886
0.000575565
0.000593417
0.000628646
0.000599887
0.000218229
6.47026e-05
4.65975e-05
4.76472e-05
5.14384e-05
5.56587e-05
6.01156e-05
6.49035e-05
7.02233e-05
7.56081e-05
8.1798e-05
8.97565e-05
0.000100874
0.000117043
0.000140599
0.000174031
0.000219538
0.000278509
0.000346236
0.00040573
0.000421574
0.000268904
0.000196129
0.0159617
0.014532
0.00618593
0.000813806
0.000467063
0.00032505
0.000301564
0.000312744
0.000336533
0.000368363
0.000404217
0.000439858
0.000470455
0.000491453
0.000515799
0.000546139
0.000512604
0.000207042
8.64823e-05
7.98684e-05
8.92889e-05
9.86328e-05
0.000105462
0.000110608
0.000115109
0.00011855
0.000122351
0.00012741
0.000134852
0.00014647
0.00016494
0.000193605
0.000235319
0.000292057
0.000363534
0.000443461
0.00051346
0.000544272
0.000504148
0.00021457
0.0192191
0.0208194
0.0160922
0.0015993
0.000501559
0.000285225
0.000252394
0.000263434
0.000288718
0.000317378
0.000348615
0.000380425
0.000409716
0.000433903
0.000457473
0.000477594
0.000432143
0.000196023
0.000131636
0.000155138
0.00018877
0.000214233
0.000225456
0.00022579
0.000221279
0.000216873
0.00021441
0.000214671
0.000218569
0.000228069
0.000247122
0.00028248
0.000338308
0.000417881
0.000520238
0.000638847
0.00077309
0.000933615
0.00114046
0.00100614
0.0256935
0.0377884
0.0569211
0.00742243
0.000750014
0.00032697
0.000253453
0.000247404
0.000265529
0.000293152
0.000323834
0.000355821
0.000386048
0.00041032
0.000426347
0.000430637
0.000377822
0.000211162
0.000227236
0.000319263
0.000418942
0.000470098
0.000478245
0.000462327
0.0004392
0.000417436
0.000400284
0.000388392
0.000381588
0.000380178
0.000386333
0.000406388
0.000443957
0.000505446
0.000602377
0.000744977
0.000898365
0.00101322
0.00182133
0.0013208
0.131115
0.0179783
0.00153741
0.00055222
0.000381137
0.00033619
0.000337367
0.000355899
0.000383739
0.000415981
0.000446546
0.000467459
0.000472712
0.00047004
0.000430219
0.000336988
0.000464108
0.000692615
0.000883304
0.000984913
0.0010047
0.000974738
0.000925094
0.000874527
0.000831671
0.00079877
0.000774822
0.000757652
0.000745149
0.000736722
0.000736572
0.000744675
0.000766633
0.000799385
0.000822626
0.000822789
0.000953117
0.00137552
0.0120024
0.0024665
0.00226074
0.00106061
0.000706446
0.00051884
0.000422756
0.000386956
0.000387869
0.0004078
0.000434693
0.000455456
0.000460104
0.000438996
0.000411052
0.000516182
0.000855801
0.00134422
0.00177329
0.00202098
0.00209124
0.00205079
0.00196525
0.00187592
0.00180127
0.00174482
0.00170174
0.00166347
0.00162154
0.00156919
0.0015045
0.00143732
0.00138058
0.00133448
0.00128365
0.00118199
0.0013565
0.00157124
0.000880481
0.000921452
0.00301737
0.000672305
0.000608234
0.000575728
0.000574672
0.000581236
0.000593926
0.000611272
0.000626581
0.000643455
0.000661196
0.000675957
0.000680846
0.000655214
0.000626301
0.000626143
0.00066049
0.000731186
0.000848699
0.000974314
0.00107451
0.0011345
0.00115696
0.00115325
0.00113572
0.00111387
0.00109325
0.0010759
0.00106128
0.00104705
0.00102987
0.0010064
0.000973604
0.000926841
0.000856495
0.000747081
0.000665209
0.000719188
)
;

boundaryField
{
    floor
    {
        Cmu             0.09;
        kappa           0.41;
        E               9.8;
        type            epsilonWallFunction;
        value           nonuniform List<scalar> 
29
(
0.00123428
3.5901e-06
4.17351e-06
4.55167e-06
3.68571e-06
2.89394e-06
2.26149e-06
1.61335e-06
1.20448e-06
1.11149e-06
1.18673e-06
1.42336e-06
1.87054e-06
2.64734e-06
3.77172e-06
4.572e-06
5.89552e-06
6.94808e-06
8.71479e-06
5.90538e-06
5.90538e-06
1.17255e-05
4.083e-05
0.000147952
0.00123428
3.5901e-06
1.32847e-05
4.91085e-05
0.000148991
)
;
    }
    ceiling
    {
        Cmu             0.09;
        kappa           0.41;
        E               9.8;
        type            epsilonWallFunction;
        value           nonuniform List<scalar> 
43
(
0.000880481
0.000921452
0.00301737
0.000672305
0.000608234
0.000575728
0.000574672
0.000581236
0.000593926
0.000611272
0.000626581
0.000643455
0.000661196
0.000675957
0.000680846
0.000655214
0.000626301
0.000626143
0.00066049
0.000731186
0.000848699
0.000974314
0.00107451
0.0011345
0.00115696
0.00115325
0.00113572
0.00111387
0.00109325
0.0010759
0.00106128
0.00104705
0.00102987
0.0010064
0.000973604
0.000926841
0.000856495
0.000747081
0.000665209
0.000719188
0.0256935
0.0377884
0.0120024
)
;
    }
    sWall
    {
        Cmu             0.09;
        kappa           0.41;
        E               9.8;
        type            epsilonWallFunction;
        value           uniform 0.000880481;
    }
    nWall
    {
        Cmu             0.09;
        kappa           0.41;
        E               9.8;
        type            epsilonWallFunction;
        value           nonuniform List<scalar> 6(0.00016973 0.000196129 0.00021457 0.00137552 0.00157124 0.000719188);
    }
    sideWalls
    {
        type            empty;
    }
    glass1
    {
        Cmu             0.09;
        kappa           0.41;
        E               9.8;
        type            epsilonWallFunction;
        value           nonuniform List<scalar> 9(0.00516344 0.00756084 0.00933103 0.010824 0.0122755 0.01389 0.0159617 0.0192191 0.0256935);
    }
    glass2
    {
        Cmu             0.09;
        kappa           0.41;
        E               9.8;
        type            epsilonWallFunction;
        value           nonuniform List<scalar> 2(0.00100614 0.0013208);
    }
    sun
    {
        Cmu             0.09;
        kappa           0.41;
        E               9.8;
        type            epsilonWallFunction;
        value           nonuniform List<scalar> 
14
(
0.00516344
0.00466752
0.00416798
0.00375538
0.00342652
0.00315593
0.00292661
0.00272436
0.0025377
0.00235776
0.00217683
0.00198683
0.00177686
0.00152663
)
;
    }
    heatsource1
    {
        Cmu             0.09;
        kappa           0.41;
        E               9.8;
        type            epsilonWallFunction;
        value           nonuniform List<scalar> 3(0.000412685 0.000263519 0.00016973);
    }
    heatsource2
    {
        Cmu             0.09;
        kappa           0.41;
        E               9.8;
        type            epsilonWallFunction;
        value           nonuniform List<scalar> 4(0.0010608 0.000700164 0.000700164 0.000716109);
    }
    Table_master
    {
        Cmu             0.09;
        kappa           0.41;
        E               9.8;
        type            epsilonWallFunction;
        value           nonuniform List<scalar> 9(5.75766e-06 2.92996e-06 4.15573e-06 5.93434e-06 8.41881e-06 1.20394e-05 1.75235e-05 2.63018e-05 4.18958e-05);
    }
    Table_slave
    {
        Cmu             0.09;
        kappa           0.41;
        E               9.8;
        type            epsilonWallFunction;
        value           nonuniform List<scalar> 9(5.19308e-05 5.75957e-05 6.44234e-05 7.11109e-05 7.83262e-05 8.72996e-05 9.98857e-05 0.000119524 0.000155078);
    }
    inlet
    {
        type            turbulentMixingLengthDissipationRateInlet;
        mixingLength    0.01;
        phi             phi;
        k               k;
        value           uniform 0.131115;
    }
    outlet
    {
        type            zeroGradient;
    }
}


// ************************************************************************* //
