/*--------------------------------*- C++ -*----------------------------------*\
  =========                 |
  \\      /  F ield         | OpenFOAM: The Open Source CFD Toolbox
   \\    /   O peration     | Website:  https://openfoam.org
    \\  /    A nd           | Version:  6
     \\/     M anipulation  |
\*---------------------------------------------------------------------------*/
FoamFile
{
    version     2.0;
    format      ascii;
    class       volScalarField;
    location    "1400";
    object      nut;
}
// * * * * * * * * * * * * * * * * * * * * * * * * * * * * * * * * * * * * * //

dimensions      [0 2 -1 0 0 0 0];

internalField   nonuniform List<scalar> 
459
(
0.000730524
0.000765715
0.000753901
0.000780528
0.000803998
0.000824287
0.000842152
0.000858411
0.000873938
0.000889317
0.000900769
0.000907161
0.000908235
0.000905662
0.000900262
0.000369805
0.000476376
0.000504441
0.000515798
0.000519541
0.000512499
0.000490025
0.000464577
0.000440595
0.000418865
0.000398954
0.000380549
0.000363372
0.000347124
0.000331401
0.000315638
0.000298859
0.000285733
0.000259964
0.00111099
0.00188731
0.00161454
0.00189444
0.00204842
0.00220789
0.00236494
0.00250742
0.00261704
0.0026781
0.00269626
0.00264144
0.00246947
0.0021193
0.0015377
0.000930792
0.000850976
0.000611661
0.00123687
0.00178422
0.00213769
0.00221489
0.00204487
0.00149055
0.00128327
0.0011529
0.00104433
0.000949363
0.000864914
0.000788161
0.000714808
0.000640737
0.000575614
0.000522814
0.000615367
0.000327638
0.00145866
0.00282483
0.00179202
0.00268788
0.00293364
0.00310128
0.00323024
0.00332797
0.00339998
0.00344281
0.00346473
0.00343737
0.00332152
0.0030625
0.00259234
0.0018947
0.00103558
0.000789425
0.00254282
0.002994
0.00294623
0.00274782
0.00224803
0.000592185
0.00051249
0.000450812
0.000404854
0.00037055
0.000344359
0.000323899
0.000308088
0.00029767
0.000355798
0.000426805
0.000710226
0.000381283
0.0018164
0.00422101
0.00178274
0.00298609
0.00339965
0.00354326
0.00361687
0.00365627
0.00368351
0.00370765
0.00373653
0.00375586
0.00374133
0.00365759
0.00343002
0.0029109
0.00196958
0.00105163
0.00302808
0.00331809
0.00323061
0.0029551
0.00265574
0.00218267
0.000551469
0.000527325
0.000524747
0.00052785
0.000529286
0.000524077
0.000508653
0.00049071
0.000468553
0.000451377
0.000456004
0.000825096
0.00043351
0.00218351
0.00606861
0.00226368
0.00279936
0.00356719
0.00374503
0.00378853
0.00378196
0.00376533
0.00376758
0.00379921
0.0038535
0.00390548
0.00394323
0.00396145
0.00395378
0.00389061
0.00366835
0.0035766
0.00333767
0.00304807
0.00275011
0.0025043
0.00231526
0.0020634
0.0020654
0.00210443
0.0021312
0.00212631
0.00207895
0.00197905
0.00174615
0.00143676
0.001114
0.000851366
0.000843172
0.000606762
0.000560051
0.000677292
0.000759024
0.00256195
0.00806815
0.00397217
0.00259103
0.00322553
0.00362742
0.00379563
0.0038399
0.00380541
0.00374577
0.00377895
0.00385284
0.00392021
0.00396733
0.00399233
0.00399676
0.00394968
0.00377068
0.00348539
0.00317837
0.00289022
0.00263283
0.00243989
0.00233238
0.0023107
0.00236428
0.00242493
0.00246223
0.00246572
0.00243533
0.00237166
0.00223224
0.00198419
0.00164353
0.00129545
0.000998966
0.000803431
0.000694441
0.000999319
0.000788475
0.00293186
0.00970957
0.00704603
0.00408137
0.00307205
0.00295702
0.0032442
0.00357346
0.00381153
0.00372824
0.00377956
0.0038471
0.00389902
0.00392393
0.00391534
0.00387315
0.00378543
0.00361517
0.00336978
0.00311151
0.0028622
0.00262637
0.00245223
0.00236218
0.00234837
0.00238341
0.00242594
0.00245287
0.00245872
0.00245138
0.00244028
0.00242194
0.0022745
0.00198784
0.00166425
0.00135429
0.00112876
0.00106154
0.00110583
0.000880837
0.00302063
0.00949473
0.00811912
0.00691623
0.00542652
0.00430774
0.0037938
0.0037123
0.00383417
0.00384704
0.00384469
0.00385321
0.0038599
0.00384455
0.00379243
0.00370299
0.00358658
0.00344637
0.0032821
0.0031055
0.00289905
0.00267262
0.00250689
0.0024164
0.00238137
0.00237537
0.00237324
0.00236515
0.00235751
0.00236617
0.00240948
0.00250104
0.00259583
0.00239051
0.00218981
0.00210975
0.00224426
0.00262136
0.00327347
0.00139326
0.00295454
0.00355245
0.00415749
0.00443791
0.00450774
0.0043254
0.00408574
0.00391185
0.00382257
0.00378138
0.00378017
0.00378729
0.00377449
0.00372166
0.00362226
0.00349092
0.00336363
0.00326595
0.00318085
0.00308331
0.00292201
0.00272179
0.00257546
0.00248229
0.00242
0.00236946
0.00231599
0.00225337
0.00218657
0.00212763
0.00208454
0.00205485
0.00203102
0.00201284
0.00202086
0.00205436
0.00206095
0.00199122
0.00187019
0.00132567
0.00250694
0.00499491
0.00480131
0.00463965
0.00447018
0.00432317
0.00420964
0.00410618
0.00399767
0.00387718
0.00373551
0.00356706
0.00337785
0.00319759
0.00308266
0.00305962
0.00306577
0.0030478
0.00294204
0.00280861
0.00270371
0.00261479
0.00252763
0.00243596
0.0023393
0.00224038
0.00214437
0.0020612
0.00200533
0.00198887
0.00200666
0.002036
0.00206997
0.00208949
0.00205933
0.00196733
0.00181367
0.0011388
0.00238794
0.0054538
0.00518716
0.00492797
0.00470465
0.00451084
0.00431566
0.00412428
0.00388395
0.00361147
0.00333569
0.00307331
0.00284508
0.00270024
0.00273097
0.00294848
0.0031235
0.00322164
0.00323395
0.00320721
0.0031666
0.00311015
0.00303253
0.00292933
0.00280154
0.00265787
0.00251256
0.00238059
0.00227263
0.00218868
0.00215432
0.00216761
0.0022029
0.00223501
0.00220999
0.002254
0.00238736
0.00116817
0.00193166
0.002078
0.00221927
0.00237692
0.0022507
0.00213851
0.00195686
0.00180034
0.00164783
0.00149801
0.00136945
0.00125781
0.00115319
0.00105048
0.000948037
0.000851623
0.000784867
0.000781751
0.000797969
0.000802091
0.000800095
0.000796342
0.000790989
0.000783233
0.000773092
0.000761722
0.000751699
0.000746519
0.000749555
0.000763336
0.000789859
0.000832125
0.000883916
0.000941603
0.00100365
0.00107571
0.0010962
0.00106718
0.00101083
0.000949568
)
;

boundaryField
{
    floor
    {
        type            nutkWallFunction;
        Cmu             0.09;
        kappa           0.41;
        E               9.8;
        value           nonuniform List<scalar> 
29
(
0.000108921
4.27596e-05
5.66747e-05
6.0274e-05
6.17226e-05
6.21991e-05
6.13022e-05
5.84295e-05
5.51568e-05
5.20522e-05
4.92208e-05
4.661e-05
4.41821e-05
4.19024e-05
3.97334e-05
3.76217e-05
3.54917e-05
3.32091e-05
3.14119e-05
2.78506e-05
2.78505e-05
3.71144e-05
4.42789e-05
5.11307e-05
0.000108921
4.27596e-05
7.37869e-05
9.56148e-05
0.000126792
)
;
    }
    ceiling
    {
        type            nutkWallFunction;
        Cmu             0.09;
        kappa           0.41;
        E               9.8;
        value           nonuniform List<scalar> 
43
(
0.000225949
0.000241817
0.00025706
0.000274081
0.00026057
0.000248482
0.000228746
0.000211576
0.000194687
0.000177928
0.0001634
0.00015066
0.000138607
0.000126652
0.000114596
0.000103109
9.5066e-05
9.46841e-05
9.66452e-05
9.71429e-05
9.69027e-05
9.64499e-05
9.58033e-05
9.48649e-05
9.36363e-05
9.22565e-05
9.10383e-05
9.04081e-05
9.0778e-05
9.24538e-05
9.56688e-05
0.000100766
0.000106971
0.000113833
0.000121159
0.000129603
0.000131992
0.000128607
0.000122003
0.000114777
0.000335423
0.000397393
0.000275027
)
;
    }
    sWall
    {
        type            nutkWallFunction;
        Cmu             0.09;
        kappa           0.41;
        E               9.8;
        value           uniform 0.000226007;
    }
    nWall
    {
        type            nutkWallFunction;
        Cmu             0.09;
        kappa           0.41;
        E               9.8;
        value           nonuniform List<scalar> 6(9.19315e-05 9.55036e-05 0.000106608 0.000136951 0.000140351 0.000114781);
    }
    sideWalls
    {
        type            empty;
    }
    glass1
    {
        type            nutkWallFunction;
        Cmu             0.09;
        kappa           0.41;
        E               9.8;
        value           nonuniform List<scalar> 9(8.84344e-05 0.000133824 0.000173715 0.000213658 0.00025376 0.000294349 0.000333415 0.000342719 0.000335815);
    }
    glass2
    {
        type            nutkWallFunction;
        Cmu             0.09;
        kappa           0.41;
        E               9.8;
        value           nonuniform List<scalar> 2(0.000166165 0.000158477);
    }
    sun
    {
        type            nutkWallFunction;
        Cmu             0.09;
        kappa           0.41;
        E               9.8;
        value           nonuniform List<scalar> 
14
(
8.8458e-05
9.27431e-05
9.13071e-05
9.45394e-05
9.73777e-05
9.98234e-05
0.000101971
0.000103921
0.000105779
0.000107616
0.000108981
0.000109743
0.000109871
0.000109564
)
;
    }
    heatsource1
    {
        type            nutkWallFunction;
        Cmu             0.09;
        kappa           0.41;
        E               9.8;
        value           nonuniform List<scalar> 3(6.73297e-05 8.1933e-05 9.19322e-05);
    }
    heatsource2
    {
        type            nutkWallFunction;
        Cmu             0.09;
        kappa           0.41;
        E               9.8;
        value           nonuniform List<scalar> 4(0.00011255 0.000103029 0.000103029 0.000124909);
    }
    Table_master
    {
        type            nutkWallFunction;
        Cmu             0.09;
        kappa           0.41;
        E               9.8;
        value           nonuniform List<scalar> 9(7.13653e-05 6.13005e-05 5.33788e-05 4.73884e-05 4.28611e-05 3.93688e-05 3.66168e-05 3.44748e-05 3.30556e-05);
    }
    Table_slave
    {
        type            nutkWallFunction;
        Cmu             0.09;
        kappa           0.41;
        E               9.8;
        value           nonuniform List<scalar> 9(6.62442e-05 6.31876e-05 6.28608e-05 6.32554e-05 6.34379e-05 6.27767e-05 6.08132e-05 5.85196e-05 5.56728e-05);
    }
    inlet
    {
        type            calculated;
        value           uniform 0.000100623;
    }
    outlet
    {
        type            calculated;
        value           nonuniform List<scalar> 2(0.00193166 0.002078);
    }
}


// ************************************************************************* //
