// -*- C++ -*-
// File generated by PyFoam - sorry for the ugliness

FoamFile
{
 version 2.0;
 format ascii;
 class volVectorField;
 location "1400";
 object U;
}

dimensions [ 0 1 -1 0 0 0 0 ];

internalField nonuniform List<vector> 459
(
  (0.0692889 0.0729188 0)
  (-0.14364 0.011896 0)
  (-0.147001 0.0123512 0)
  (-0.170938 0.010554 0)
  (-0.191966 0.00776957 0)
  (-0.209508 0.00458117 0)
  (-0.22288 0.00100654 0)
  (-0.231359 -0.0030629 0)
  (-0.234009 -0.00778234 0)
  (-0.229557 -0.013401 0)
  (-0.216568 -0.0203597 0)
  (-0.192695 -0.0289858 0)
  (-0.156721 -0.0407342 0)
  (-0.116698 -0.0588271 0)
  (-0.102663 -0.0839961 0)
  (0.0487948 0.0037048 0)
  (-0.00358778 -0.00899741 0)
  (0.0149293 -0.0112669 0)
  (0.029266 -0.0113293 0)
  (0.0423754 -0.0111061 0)
  (0.0544444 -0.00947665 0)
  (0.0632284 -0.0054598 0)
  (0.0669954 -0.00304791 0)
  (0.0673249 -0.00215799 0)
  (0.0664589 -0.00179654 0)
  (0.0654509 -0.00152987 0)
  (0.0643446 -0.0012817 0)
  (0.0629886 -0.00100574 0)
  (0.0611965 -0.000561626 0)
  (0.0585019 0.000371231 0)
  (0.0538966 0.00221604 0)
  (0.0463053 0.00429185 0)
  (0.0388828 0.00608806 0)
  (-0.00861214 0.0191601 0)
  (0.260513 0.155153 0)
  (-0.154244 0.0384092 0)
  (-0.125719 0.0386484 0)
  (-0.153557 0.0351774 0)
  (-0.175105 0.03052 0)
  (-0.193026 0.0251488 0)
  (-0.206957 0.0188636 0)
  (-0.216345 0.0113363 0)
  (-0.220342 0.00221363 0)
  (-0.217649 -0.00879607 0)
  (-0.207956 -0.0212195 0)
  (-0.190452 -0.0346901 0)
  (-0.166265 -0.0500224 0)
  (-0.140871 -0.0690969 0)
  (-0.119779 -0.0860739 0)
  (-0.0878358 -0.0718336 0)
  (-0.0530555 -0.0525508 0)
  (0.0772496 -0.0109773 0)
  (0.0275731 -0.00854895 0)
  (0.0228844 -0.011117 0)
  (0.0298568 -0.014864 0)
  (0.0391304 -0.0173741 0)
  (0.048553 -0.0160504 0)
  (0.056081 -0.0056002 0)
  (0.0573431 0.000635062 0)
  (0.0564278 0.00292118 0)
  (0.0558589 0.00368975 0)
  (0.0557534 0.00406615 0)
  (0.0556827 0.00429658 0)
  (0.0555095 0.00454807 0)
  (0.055241 0.00514892 0)
  (0.0544598 0.0068266 0)
  (0.0512268 0.0115457 0)
  (0.0431511 0.0156115 0)
  (0.0398095 0.018261 0)
  (-0.0445817 0.0404987 0)
  (0.429335 0.235626 0)
  (-0.192495 0.0695809 0)
  (-0.0979044 0.0654382 0)
  (-0.129593 0.0563357 0)
  (-0.148895 0.0476092 0)
  (-0.165424 0.0380888 0)
  (-0.178748 0.0271034 0)
  (-0.188346 0.0141835 0)
  (-0.19329 -0.000944084 0)
  (-0.192109 -0.0181265 0)
  (-0.184646 -0.0370355 0)
  (-0.171314 -0.0564935 0)
  (-0.154081 -0.0756636 0)
  (-0.136093 -0.0934033 0)
  (-0.117232 -0.104339 0)
  (-0.0948647 -0.101815 0)
  (-0.0921398 -0.105475 0)
  (0.0385061 -0.0161945 0)
  (-0.00756363 -0.014445 0)
  (0.00453943 -0.0182885 0)
  (0.0163501 -0.0240103 0)
  (0.0268737 -0.0278759 0)
  (0.0353615 -0.0300363 0)
  (0.0468629 -0.0192811 0)
  (0.0426824 -0.0112843 0)
  (0.0381098 -0.00764132 0)
  (0.0376413 -0.00585367 0)
  (0.0390267 -0.00474596 0)
  (0.0406355 -0.00400353 0)
  (0.042267 -0.0034164 0)
  (0.0444086 -0.00259265 0)
  (0.0480521 0.000386176 0)
  (0.0481705 0.0158539 0)
  (0.0386384 0.0255169 0)
  (0.0445782 0.0311954 0)
  (-0.0780019 0.0618819 0)
  (0.572665 0.302174 0)
  (-0.24082 0.102249 0)
  (-0.0648452 0.0890935 0)
  (-0.101525 0.0751461 0)
  (-0.116234 0.0642289 0)
  (-0.129615 0.052586 0)
  (-0.141108 0.0389559 0)
  (-0.150131 0.0225504 0)
  (-0.15556 0.00283457 0)
  (-0.155392 -0.0200619 0)
  (-0.149499 -0.0446796 0)
  (-0.139471 -0.0685958 0)
  (-0.127688 -0.0896524 0)
  (-0.116727 -0.105785 0)
  (-0.107851 -0.113971 0)
  (-0.104524 -0.112422 0)
  (-0.112992 -0.0955505 0)
  (-0.0988172 -0.0343699 0)
  (-0.0491593 -0.0313627 0)
  (-0.0273078 -0.0302901 0)
  (-0.00876003 -0.0330877 0)
  (0.00477281 -0.0355416 0)
  (0.0122606 -0.0360591 0)
  (0.0136919 -0.0351658 0)
  (0.0188628 -0.0207911 0)
  (0.0350737 -0.0155412 0)
  (0.0492257 -0.013003 0)
  (0.0610382 -0.0113105 0)
  (0.0710884 -0.00958108 0)
  (0.0787943 -0.00731926 0)
  (0.0827942 -0.00425378 0)
  (0.0806569 -3.48182e-05 0)
  (0.0710469 0.00579704 0)
  (0.0560629 0.023309 0)
  (0.041267 0.038134 0)
  (0.0529649 0.0492208 0)
  (-0.105682 0.0809249 0)
  (0.688897 0.356198 0)
  (-0.287114 0.133781 0)
  (-0.0300792 0.103723 0)
  (-0.0701595 0.0878587 0)
  (-0.0792564 0.0760619 0)
  (-0.087969 0.0633131 0)
  (-0.0959993 0.0479712 0)
  (-0.102821 0.0289791 0)
  (-0.107308 0.00554302 0)
  (-0.106534 -0.0221897 0)
  (-0.100723 -0.0514715 0)
  (-0.0926258 -0.0780208 0)
  (-0.0844293 -0.0990231 0)
  (-0.0778909 -0.113045 0)
  (-0.0738498 -0.119258 0)
  (-0.0730327 -0.117542 0)
  (-0.0723976 -0.104207 0)
  (-0.0617819 -0.0717749 0)
  (-0.0417802 -0.0566119 0)
  (-0.0239692 -0.0498834 0)
  (-0.0101217 -0.0474751 0)
  (-0.000704705 -0.0449606 0)
  (0.00479991 -0.0410836 0)
  (0.00761465 -0.0355516 0)
  (0.0144665 -0.0245557 0)
  (0.025099 -0.0195305 0)
  (0.0356412 -0.0173517 0)
  (0.0455145 -0.0156187 0)
  (0.0546649 -0.0129916 0)
  (0.0625379 -0.0084103 0)
  (0.068114 -0.000999177 0)
  (0.0696315 0.00858932 0)
  (0.0660609 0.0199041 0)
  (0.0587758 0.035399 0)
  (0.0471834 0.0515016 0)
  (0.0628572 0.0685725 0)
  (-0.0151707 0.0933458 0)
  (0.0420559 0.0296642 0)
  (-0.0599559 -0.0336602 0)
  (-0.262304 -0.05547 0)
  (0.765426 0.403655 0)
  (-0.324568 0.159633 0)
  (-0.00413041 0.102137 0)
  (-0.0343186 0.0943654 0)
  (-0.0383336 0.0836505 0)
  (-0.0425054 0.0698639 0)
  (-0.0462163 0.0534742 0)
  (-0.0492645 0.0332332 0)
  (-0.0510242 0.00745063 0)
  (-0.0462485 -0.024725 0)
  (-0.0394971 -0.0579091 0)
  (-0.0335532 -0.085409 0)
  (-0.0294633 -0.105022 0)
  (-0.0278873 -0.116583 0)
  (-0.0288608 -0.120405 0)
  (-0.0317983 -0.116557 0)
  (-0.0337853 -0.103645 0)
  (-0.030302 -0.0836588 0)
  (-0.0219114 -0.0696053 0)
  (-0.0132452 -0.0611938 0)
  (-0.00681848 -0.0556758 0)
  (-0.00310463 -0.0500435 0)
  (-0.00126315 -0.0441607 0)
  (8.28166e-05 -0.0383205 0)
  (0.0039693 -0.0318226 0)
  (0.0104102 -0.0284772 0)
  (0.0176556 -0.0268582 0)
  (0.0251912 -0.0253016 0)
  (0.0329112 -0.0224861 0)
  (0.0405836 -0.0169893 0)
  (0.047832 -0.00723988 0)
  (0.0541632 0.00670337 0)
  (0.05622 0.0221351 0)
  (0.0564121 0.0388342 0)
  (0.054215 0.0557571 0)
  (0.0719639 0.0753168 0)
  (0.053858 0.0902189 0)
  (0.0886543 0.0648883 0)
  (0.1114 0.0429053 0)
  (-0.125961 -0.00777943 0)
  (0.790186 0.446409 0)
  (-0.339506 0.151852 0)
  (0.0133059 0.0572358 0)
  (0.0182803 0.0894966 0)
  (0.0155941 0.0934717 0)
  (0.0116692 0.0764249 0)
  (0.0109766 0.0558311 0)
  (0.0120683 0.0335826 0)
  (0.0140647 0.00453799 0)
  (0.0268752 -0.0322317 0)
  (0.0332736 -0.0647743 0)
  (0.0350643 -0.0893563 0)
  (0.0332162 -0.10561 0)
  (0.0282946 -0.11425 0)
  (0.0210659 -0.116053 0)
  (0.0126202 -0.111467 0)
  (0.00487369 -0.100522 0)
  (0.000324358 -0.0856519 0)
  (-0.000993013 -0.0727943 0)
  (-0.00137798 -0.0637641 0)
  (-0.00279783 -0.0566988 0)
  (-0.00519278 -0.0496948 0)
  (-0.00777964 -0.0435828 0)
  (-0.00963932 -0.0389388 0)
  (-0.00953764 -0.0354885 0)
  (-0.00751105 -0.0337263 0)
  (-0.00437762 -0.0329322 0)
  (-0.000469667 -0.0320966 0)
  (0.00422544 -0.0300512 0)
  (0.00973336 -0.0253954 0)
  (0.0164633 -0.0160768 0)
  (0.0269505 -9.24899e-05 0)
  (0.0364647 0.0178971 0)
  (0.0440285 0.0345674 0)
  (0.0513795 0.0494589 0)
  (0.0713483 0.0655237 0)
  (0.0840219 0.0714942 0)
  (0.113054 0.051312 0)
  (0.151315 0.0430646 0)
  (-0.037974 0.0900094 0)
  (0.885832 0.460459 0)
  (-0.114534 0.13285 0)
  (0.0864786 -0.0223709 0)
  (0.137511 0.0212032 0)
  (0.120606 0.0565724 0)
  (0.103143 0.0527735 0)
  (0.0985828 0.0345443 0)
  (0.0999899 0.0117497 0)
  (0.107325 -0.0171855 0)
  (0.11621 -0.0446114 0)
  (0.116535 -0.0682611 0)
  (0.110027 -0.0862713 0)
  (0.0990204 -0.0980842 0)
  (0.0851599 -0.103896 0)
  (0.0698105 -0.104143 0)
  (0.054181 -0.0992773 0)
  (0.0394754 -0.08997 0)
  (0.0269208 -0.0781085 0)
  (0.0167657 -0.0668631 0)
  (0.00820759 -0.0580412 0)
  (-0.000555071 -0.0505544 0)
  (-0.00868975 -0.0435874 0)
  (-0.0155945 -0.0385253 0)
  (-0.02116 -0.0355297 0)
  (-0.02505 -0.0341064 0)
  (-0.0275557 -0.033822 0)
  (-0.0292019 -0.0340238 0)
  (-0.0303081 -0.0340421 0)
  (-0.0308949 -0.0331601 0)
  (-0.0306714 -0.0305367 0)
  (-0.0288911 -0.0251536 0)
  (-0.0234272 -0.0159647 0)
  (-0.00540113 -0.00184323 0)
  (0.00861462 0.0142723 0)
  (0.0213411 0.022788 0)
  (0.0414996 0.0288628 0)
  (0.0601215 0.0213335 0)
  (0.0791903 -0.00452144 0)
  (0.137112 0.037605 0)
  (-0.392277 0.196302 0)
  (1.01532 0.429155 0)
  (0.482256 0.284397 0)
  (0.49464 0.198027 0)
  (0.4879 0.173391 0)
  (0.410164 0.154292 0)
  (0.338466 0.122095 0)
  (0.296295 0.085117 0)
  (0.272249 0.0487652 0)
  (0.255718 0.0140858 0)
  (0.233327 -0.0186317 0)
  (0.208609 -0.0453748 0)
  (0.183157 -0.0646457 0)
  (0.15757 -0.0768407 0)
  (0.132357 -0.0829544 0)
  (0.108054 -0.0838529 0)
  (0.0850999 -0.080149 0)
  (0.0638187 -0.072586 0)
  (0.0445789 -0.0628314 0)
  (0.0275639 -0.0533399 0)
  (0.0126725 -0.0455985 0)
  (-0.00203936 -0.0386551 0)
  (-0.014355 -0.0326762 0)
  (-0.0245903 -0.0289456 0)
  (-0.0334123 -0.0272624 0)
  (-0.0410713 -0.026978 0)
  (-0.0480257 -0.0274174 0)
  (-0.0547558 -0.0279612 0)
  (-0.0617012 -0.0280373 0)
  (-0.0692748 -0.0270058 0)
  (-0.0779157 -0.0240147 0)
  (-0.0881131 -0.0179149 0)
  (-0.100018 -0.00756294 0)
  (-0.112505 0.00728265 0)
  (-0.12246 0.0239202 0)
  (-0.141909 0.0413482 0)
  (-0.173193 0.0593503 0)
  (-0.219184 0.0753411 0)
  (-0.272355 0.0872342 0)
  (-0.338115 0.0948023 0)
  (-0.591077 0.0984077 0)
  (-0.491703 -0.00147669 0)
  (0.177114 0.1269 0)
  (0.253261 0.141051 0)
  (0.248389 0.12378 0)
  (0.249499 0.0930666 0)
  (0.250224 0.0574061 0)
  (0.245575 0.0242272 0)
  (0.235306 -0.00291081 0)
  (0.21823 -0.0240041 0)
  (0.196513 -0.0396946 0)
  (0.171763 -0.0506431 0)
  (0.1456 -0.0572872 0)
  (0.119411 -0.0598736 0)
  (0.094099 -0.0584898 0)
  (0.0700531 -0.0534923 0)
  (0.0475415 -0.046438 0)
  (0.02713 -0.0396112 0)
  (0.00938179 -0.0339821 0)
  (-0.00776727 -0.0284725 0)
  (-0.0208151 -0.0238991 0)
  (-0.0322911 -0.0206485 0)
  (-0.0428286 -0.0188111 0)
  (-0.0529462 -0.0179324 0)
  (-0.0629978 -0.0173606 0)
  (-0.0731318 -0.0164752 0)
  (-0.0833378 -0.014723 0)
  (-0.0934737 -0.0116278 0)
  (-0.103287 -0.00683419 0)
  (-0.112462 -9.71683e-05 0)
  (-0.120413 0.00876935 0)
  (-0.125756 0.020723 0)
  (-0.128821 0.0373585 0)
  (-0.131154 0.0568175 0)
  (-0.133669 0.0753667 0)
  (-0.133782 0.0846085 0)
  (-0.115464 0.0654738 0)
  (-0.0711959 -0.0201787 0)
  (-0.265971 -0.191581 0)
  (-0.221333 0.176292 0)
  (0.11792 0.115808 0)
  (0.0941395 0.095226 0)
  (0.117291 0.0930736 0)
  (0.148408 0.0743259 0)
  (0.171514 0.0455613 0)
  (0.183907 0.0187691 0)
  (0.185615 -0.00225558 0)
  (0.179106 -0.0173475 0)
  (0.16498 -0.0279383 0)
  (0.145572 -0.0351722 0)
  (0.12305 -0.0395882 0)
  (0.0992476 -0.0414445 0)
  (0.0756111 -0.0409475 0)
  (0.0530966 -0.039019 0)
  (0.0321443 -0.0375505 0)
  (0.0134297 -0.0358556 0)
  (-0.00170707 -0.0356364 0)
  (-0.0134176 -0.0373622 0)
  (-0.0234299 -0.0395014 0)
  (-0.0331648 -0.0415071 0)
  (-0.0427497 -0.0435577 0)
  (-0.0526043 -0.0456398 0)
  (-0.0629709 -0.0475563 0)
  (-0.0737607 -0.0489585 0)
  (-0.0845631 -0.0493573 0)
  (-0.0946817 -0.0481043 0)
  (-0.103126 -0.0443199 0)
  (-0.108589 -0.0367219 0)
  (-0.109724 -0.0233277 0)
  (-0.105948 -0.00546613 0)
  (-0.0963466 0.0154231 0)
  (-0.0805014 0.037949 0)
  (-0.0592463 0.0577472 0)
  (-0.0360188 0.0685697 0)
  (0.00439896 0.0514879 0)
  (0.141225 -0.0159796 0)
  (-0.199255 -0.101748 0)
  (0.891549 0.0853497 0)
  (-0.30053 -0.427145 0)
  (-0.334891 0.0843855 0)
  (-0.137738 0.0356742 0)
  (-0.0963529 0.0453228 0)
  (-0.0283234 0.0637287 0)
  (0.0451978 0.0580634 0)
  (0.086069 0.0438444 0)
  (0.114303 0.0337335 0)
  (0.126519 0.0289484 0)
  (0.125947 0.0272471 0)
  (0.115816 0.0273717 0)
  (0.0991747 0.0295062 0)
  (0.0784721 0.034346 0)
  (0.0555019 0.0432239 0)
  (0.0320295 0.0583777 0)
  (0.0109179 0.0810169 0)
  (-0.00496353 0.102597 0)
  (-0.0140686 0.108584 0)
  (-0.0223853 0.112758 0)
  (-0.0298788 0.117362 0)
  (-0.0361853 0.121342 0)
  (-0.0416695 0.124578 0)
  (-0.0466702 0.127146 0)
  (-0.051509 0.129162 0)
  (-0.0563711 0.130564 0)
  (-0.0613288 0.131051 0)
  (-0.0663509 0.130208 0)
  (-0.0712586 0.12765 0)
  (-0.0755755 0.123012 0)
  (-0.0782243 0.115799 0)
  (-0.0773252 0.105308 0)
  (-0.0696858 0.096442 0)
  (-0.0532168 0.0927614 0)
  (-0.028616 0.0947357 0)
  (0.013057 0.0998433 0)
  (0.0514926 0.099737 0)
  (0.0888407 0.0903757 0)
  (0.157101 0.0696341 0)
  (-0.249781 0.0268354 0)
)
;

boundaryField
{
  floor
  {
    type noSlip;
  }
  ceiling
  {
    type noSlip;
  }
  sWall
  {
    type noSlip;
  }
  nWall
  {
    type noSlip;
  }
  sideWalls
  {
    type empty;
  }
  glass1
  {
    type noSlip;
  }
  glass2
  {
    type noSlip;
  }
  sun
  {
    type noSlip;
  }
  heatsource1
  {
    type noSlip;
  }
  heatsource2
  {
    type noSlip;
  }
  Table_master
  {
    type noSlip;
  }
  Table_slave
  {
    type noSlip;
  }
  inlet
  {
    type fixedValue;
    value uniform (0.277164 -0.114805 0);
  }
  outlet
  {
    type zeroGradient;
  }
} 	// ************************************************************************* //

