// -*- C++ -*-
// File generated by PyFoam - sorry for the ugliness

FoamFile
{
 version 2.0;
 format ascii;
 class volScalarField;
 location "200";
 object T;
}

dimensions [ 0 0 0 1 0 0 0 ];

internalField nonuniform List<scalar> 459
(
  302.685
  302.35
  302.341
  302.342
  302.342
  302.343
  302.343
  302.343
  302.342
  302.342
  302.34
  302.336
  302.331
  302.325
  302.318
  302.204
  302.182
  302.173
  302.168
  302.163
  302.158
  302.154
  302.15
  302.145
  302.141
  302.136
  302.131
  302.126
  302.121
  302.116
  302.111
  302.106
  302.1
  302.112
  302.924
  302.379
  302.353
  302.358
  302.363
  302.368
  302.372
  302.375
  302.377
  302.378
  302.375
  302.367
  302.354
  302.335
  302.311
  302.29
  302.256
  302.204
  302.187
  302.177
  302.17
  302.162
  302.154
  302.144
  302.134
  302.123
  302.112
  302.102
  302.092
  302.083
  302.074
  302.066
  302.061
  302.057
  302.055
  302.089
  303.155
  302.427
  302.377
  302.387
  302.4
  302.413
  302.424
  302.433
  302.439
  302.442
  302.438
  302.426
  302.403
  302.372
  302.336
  302.302
  302.277
  302.206
  302.194
  302.19
  302.181
  302.171
  302.163
  302.149
  302.132
  302.115
  302.099
  302.084
  302.071
  302.058
  302.047
  302.037
  302.034
  302.032
  302.033
  302.077
  303.371
  302.492
  302.403
  302.417
  302.439
  302.461
  302.482
  302.5
  302.513
  302.52
  302.518
  302.502
  302.471
  302.427
  302.377
  302.326
  302.28
  302.251
  302.229
  302.218
  302.208
  302.195
  302.181
  302.171
  302.159
  302.152
  302.147
  302.143
  302.138
  302.133
  302.127
  302.12
  302.112
  302.084
  302.056
  302.038
  302.075
  303.57
  302.573
  302.434
  302.441
  302.47
  302.501
  302.532
  302.561
  302.586
  302.601
  302.603
  302.588
  302.552
  302.501
  302.442
  302.382
  302.329
  302.288
  302.259
  302.238
  302.222
  302.206
  302.191
  302.181
  302.174
  302.17
  302.166
  302.163
  302.159
  302.153
  302.145
  302.134
  302.122
  302.102
  302.074
  302.048
  302.064
  302.118
  302.15
  302.164
  303.74
  302.675
  302.486
  302.462
  302.489
  302.524
  302.561
  302.599
  302.635
  302.663
  302.676
  302.665
  302.628
  302.572
  302.505
  302.438
  302.377
  302.326
  302.284
  302.254
  302.233
  302.215
  302.201
  302.193
  302.188
  302.185
  302.183
  302.181
  302.177
  302.17
  302.159
  302.146
  302.13
  302.111
  302.086
  302.06
  302.058
  302.079
  302.088
  302.125
  303.87
  302.844
  302.64
  302.541
  302.523
  302.544
  302.576
  302.612
  302.651
  302.696
  302.725
  302.718
  302.681
  302.623
  302.554
  302.484
  302.418
  302.358
  302.306
  302.266
  302.241
  302.223
  302.209
  302.203
  302.201
  302.201
  302.2
  302.198
  302.194
  302.187
  302.175
  302.157
  302.138
  302.118
  302.096
  302.073
  302.064
  302.068
  302.075
  302.107
  304.099
  303.325
  303.102
  302.894
  302.751
  302.681
  302.661
  302.669
  302.693
  302.736
  302.754
  302.74
  302.699
  302.641
  302.575
  302.507
  302.441
  302.38
  302.322
  302.274
  302.246
  302.23
  302.217
  302.214
  302.214
  302.215
  302.216
  302.215
  302.212
  302.206
  302.196
  302.18
  302.155
  302.136
  302.12
  302.106
  302.105
  302.125
  302.153
  302.325
  304.417
  304.09
  303.816
  303.542
  303.304
  303.125
  303.005
  302.931
  302.892
  302.855
  302.802
  302.741
  302.676
  302.611
  302.548
  302.487
  302.43
  302.377
  302.327
  302.279
  302.25
  302.237
  302.226
  302.224
  302.227
  302.23
  302.233
  302.234
  302.235
  302.233
  302.232
  302.233
  302.24
  302.25
  302.274
  302.31
  302.357
  302.402
  302.43
  302.498
  297.943
  300.681
  301.935
  302.376
  302.543
  302.606
  302.622
  302.617
  302.598
  302.569
  302.534
  302.496
  302.456
  302.418
  302.381
  302.345
  302.311
  302.274
  302.252
  302.245
  302.235
  302.236
  302.24
  302.246
  302.251
  302.256
  302.261
  302.267
  302.273
  302.28
  302.287
  302.3
  302.321
  302.349
  302.38
  302.405
  302.416
  302.428
  298.433
  300.634
  301.534
  301.974
  302.19
  302.292
  302.336
  302.349
  302.354
  302.352
  302.346
  302.337
  302.326
  302.314
  302.301
  302.289
  302.275
  302.259
  302.254
  302.255
  302.248
  302.251
  302.256
  302.261
  302.266
  302.271
  302.276
  302.282
  302.289
  302.295
  302.303
  302.314
  302.33
  302.35
  302.371
  302.39
  302.38
  302.409
  299.754
  299.7
  299.697
  301.037
  301.574
  301.945
  302.068
  302.129
  302.162
  302.178
  302.188
  302.197
  302.204
  302.211
  302.217
  302.223
  302.228
  302.233
  302.238
  302.242
  302.257
  302.277
  302.28
  302.284
  302.288
  302.291
  302.295
  302.298
  302.3
  302.303
  302.305
  302.309
  302.313
  302.318
  302.326
  302.344
  302.355
  302.361
  302.361
  302.397
)
;

boundaryField
{
  floor
  {
    type wallHeatTransfer;
    Tinf uniform 305.2;
    alphaWall uniform 0.24;
    value nonuniform List<scalar> 29
(
  302.672
  302.751
  302.652
  302.63
  302.632
  302.636
  302.642
  302.657
  302.675
  302.693
  302.71
  302.727
  302.744
  302.76
  302.777
  302.794
  302.812
  302.833
  302.842
  302.887
  302.887
  302.743
  302.661
  302.613
  302.672
  302.751
  302.668
  302.571
  302.546
)
;
  }
  ceiling
  {
    type wallHeatTransfer;
    Tinf uniform 303.2;
    alphaWall uniform 0.24;
    value nonuniform List<scalar> 43
(
  299.974
  299.914
  299.904
  301.159
  301.671
  302.025
  302.145
  302.206
  302.24
  302.26
  302.273
  302.285
  302.297
  302.308
  302.318
  302.328
  302.338
  302.348
  302.357
  302.366
  302.384
  302.398
  302.398
  302.4
  302.404
  302.406
  302.408
  302.408
  302.409
  302.408
  302.407
  302.406
  302.405
  302.406
  302.409
  302.42
  302.429
  302.436
  302.441
  302.477
  304.361
  304.055
  298.705
)
;
  }
  sWall
  {
    type wallHeatTransfer;
    Tinf uniform 315.2;
    alphaWall uniform 0.36;
    value uniform 301.188;
  }
  nWall
  {
    type wallHeatTransfer;
    Tinf uniform 307.2;
    alphaWall uniform 0.36;
    value nonuniform List<scalar> 6
(
  303.027
  302.965
  302.869
  303.08
  303.057
  303.087
)
;
  }
  sideWalls
  {
    type empty;
  }
  glass1
  {
    type wallHeatTransfer;
    Tinf uniform 315.2;
    alphaWall uniform 4.3;
    value nonuniform List<scalar> 9
(
  312.133
  311.227
  310.612
  310.128
  309.748
  309.439
  309.171
  309.214
  309.435
)
;
  }
  glass2
  {
    type wallHeatTransfer;
    Tinf uniform 307.2;
    alphaWall uniform 4.3;
    value nonuniform List<scalar> 2
(
  305.23
  305.385
)
;
  }
  sun
  {
    type wallHeatTransfer;
    Tinf uniform 305.2;
    alphaWall uniform 0.24;
    value nonuniform List<scalar> 14
(
  303.046
  302.749
  302.75
  302.74
  302.732
  302.725
  302.719
  302.713
  302.708
  302.702
  302.696
  302.69
  302.684
  302.678
)
;
  }
  heatsource1
  {
    type fixedGradient;
    gradient uniform 0;
  }
  heatsource2
  {
    type fixedGradient;
    gradient uniform 0;
  }
  Table_master
  {
    type zeroGradient;
  }
  Table_slave
  {
    type zeroGradient;
  }
  inlet
  {
    type fixedValue;
    value uniform 293.15;
  }
  outlet
  {
    type zeroGradient;
  }
} 	// ************************************************************************* //

