// -*- C++ -*-
// File generated by PyFoam - sorry for the ugliness

FoamFile
{
 version 2.0;
 format ascii;
 class volVectorField;
 location "400";
 object U;
}

dimensions [ 0 1 -1 0 0 0 0 ];

internalField nonuniform List<vector> 459
(
  (0.0342183 0.0849984 0)
  (-0.165133 0.0252674 0)
  (-0.189041 0.0178426 0)
  (-0.219613 0.0126026 0)
  (-0.242357 0.00685963 0)
  (-0.256556 0.000844723 0)
  (-0.261019 -0.00552256 0)
  (-0.254246 -0.0122626 0)
  (-0.23671 -0.0191284 0)
  (-0.209375 -0.0251511 0)
  (-0.174791 -0.0294891 0)
  (-0.136053 -0.0318192 0)
  (-0.096217 -0.0327373 0)
  (-0.0602919 -0.034079 0)
  (-0.0431597 -0.0375153 0)
  (-0.00010001 0.00672559 0)
  (-0.0197427 -0.0180523 0)
  (0.00489063 -0.0260022 0)
  (0.0246864 -0.0188769 0)
  (0.0401156 -0.0124799 0)
  (0.0510558 -0.00788094 0)
  (0.0572641 -0.00477599 0)
  (0.0602557 -0.00316745 0)
  (0.0616051 -0.00244744 0)
  (0.0623205 -0.0020823 0)
  (0.0627583 -0.00184374 0)
  (0.062952 -0.00164999 0)
  (0.0628395 -0.00140723 0)
  (0.0622064 -0.000945786 0)
  (0.0604796 0.000119041 0)
  (0.0564531 0.00233144 0)
  (0.0488035 0.00471465 0)
  (0.0410671 0.00666125 0)
  (-0.0113065 0.0201708 0)
  (0.207257 0.173718 0)
  (-0.15391 0.0660539 0)
  (-0.151287 0.0517843 0)
  (-0.182479 0.0409248 0)
  (-0.204604 0.0288165 0)
  (-0.218671 0.0154765 0)
  (-0.223531 0.000564234 0)
  (-0.217398 -0.0157779 0)
  (-0.201225 -0.0317912 0)
  (-0.176346 -0.0450645 0)
  (-0.145615 -0.0536879 0)
  (-0.112358 -0.0568745 0)
  (-0.0798698 -0.0552318 0)
  (-0.0522455 -0.0503783 0)
  (-0.0347192 -0.0430534 0)
  (-0.0203151 -0.0224106 0)
  (-0.00885352 0.00873616 0)
  (0.0629378 0.029168 0)
  (0.0341955 -0.0201796 0)
  (0.0404301 -0.0299253 0)
  (0.0509523 -0.0247272 0)
  (0.0590544 -0.0165368 0)
  (0.0641205 -0.00927382 0)
  (0.0659765 -0.00369121 0)
  (0.0661572 -0.000667412 0)
  (0.066048 0.000652397 0)
  (0.0661148 0.00129135 0)
  (0.0662556 0.0017051 0)
  (0.0663538 0.0020746 0)
  (0.0663656 0.00255796 0)
  (0.0662398 0.00350218 0)
  (0.0654359 0.0058173 0)
  (0.0615152 0.0121959 0)
  (0.0516671 0.0176036 0)
  (0.0453653 0.02129 0)
  (-0.0444265 0.0436946 0)
  (0.365705 0.259614 0)
  (-0.170441 0.104917 0)
  (-0.112938 0.0833576 0)
  (-0.142708 0.0638881 0)
  (-0.161836 0.0440019 0)
  (-0.174426 0.0224371 0)
  (-0.1787 -0.00176297 0)
  (-0.171763 -0.027916 0)
  (-0.155441 -0.0529202 0)
  (-0.131853 -0.0727093 0)
  (-0.104207 -0.0845864 0)
  (-0.0756788 -0.0877766 0)
  (-0.0487506 -0.0833042 0)
  (-0.0257596 -0.072531 0)
  (-0.0090902 -0.0564744 0)
  (0.00438746 -0.0310006 0)
  (0.0120216 0.0029374 0)
  (0.104818 -0.0445411 0)
  (0.0719975 -0.0451494 0)
  (0.0683222 -0.039471 0)
  (0.0707685 -0.0306512 0)
  (0.0724071 -0.0210783 0)
  (0.0730383 -0.0131488 0)
  (0.0711257 -0.010834 0)
  (0.0675043 -0.00786407 0)
  (0.0651021 -0.00626263 0)
  (0.0640379 -0.0053529 0)
  (0.0635899 -0.00478137 0)
  (0.0634056 -0.00438087 0)
  (0.0635401 -0.00396188 0)
  (0.0644644 -0.00317877 0)
  (0.0674019 -7.01911e-05 0)
  (0.0654071 0.0172033 0)
  (0.0520763 0.0294904 0)
  (0.0513586 0.0380838 0)
  (-0.0732585 0.0688818 0)
  (0.507978 0.328514 0)
  (-0.204549 0.139293 0)
  (-0.0729659 0.109689 0)
  (-0.100619 0.0827882 0)
  (-0.113749 0.0574103 0)
  (-0.122348 0.0294861 0)
  (-0.123478 -0.00341087 0)
  (-0.113378 -0.0397826 0)
  (-0.0958151 -0.0733078 0)
  (-0.0740252 -0.0982266 0)
  (-0.0509743 -0.111847 0)
  (-0.0291679 -0.11409 0)
  (-0.00961413 -0.106967 0)
  (0.00758817 -0.0915055 0)
  (0.0213271 -0.0707574 0)
  (0.0357766 -0.0453019 0)
  (0.0583891 -0.0203466 0)
  (0.0886664 -0.00541926 0)
  (0.0975322 -0.0364558 0)
  (0.0841972 -0.039711 0)
  (0.0761222 -0.0341249 0)
  (0.0726633 -0.0270889 0)
  (0.0706803 -0.0193022 0)
  (0.0701885 -0.0105013 0)
  (0.0724497 -0.00619989 0)
  (0.0765662 -0.00511325 0)
  (0.0799987 -0.00449488 0)
  (0.0824657 -0.00395811 0)
  (0.0840547 -0.00318365 0)
  (0.084156 -0.00194576 0)
  (0.0816786 -3.90777e-05 0)
  (0.075415 0.00280569 0)
  (0.0626039 0.00710988 0)
  (0.0517911 0.0275277 0)
  (0.0411959 0.0445272 0)
  (0.0542978 0.0582084 0)
  (-0.103002 0.09203 0)
  (0.629839 0.381864 0)
  (-0.245743 0.167457 0)
  (-0.0341686 0.124145 0)
  (-0.0570217 0.0928918 0)
  (-0.0616495 0.0645658 0)
  (-0.0632868 0.032693 0)
  (-0.056032 -0.00760467 0)
  (-0.0399522 -0.0535375 0)
  (-0.0215527 -0.0927516 0)
  (-0.00387256 -0.119296 0)
  (0.0116693 -0.13163 0)
  (0.0236854 -0.130941 0)
  (0.0330959 -0.120893 0)
  (0.0404361 -0.103847 0)
  (0.0467487 -0.0823989 0)
  (0.0540194 -0.0591611 0)
  (0.0647721 -0.0393047 0)
  (0.0753614 -0.0325181 0)
  (0.0774317 -0.0373798 0)
  (0.0711712 -0.0351529 0)
  (0.0635679 -0.0292705 0)
  (0.0580748 -0.0230569 0)
  (0.0544891 -0.0169658 0)
  (0.0529655 -0.011027 0)
  (0.0536778 -0.00631971 0)
  (0.0562018 -0.00422594 0)
  (0.0588982 -0.00344234 0)
  (0.0615029 -0.00269362 0)
  (0.0638751 -0.00110521 0)
  (0.065614 0.00185586 0)
  (0.065523 0.00626771 0)
  (0.0630491 0.0122652 0)
  (0.0575329 0.0205089 0)
  (0.0508694 0.0360485 0)
  (0.0417944 0.054837 0)
  (0.0625166 0.0756151 0)
  (-0.0164185 0.104782 0)
  (0.045006 0.0339894 0)
  (-0.0619348 -0.0349133 0)
  (-0.269096 -0.0571277 0)
  (0.717013 0.426409 0)
  (-0.285108 0.18643 0)
  (-0.00551385 0.11894 0)
  (-0.012385 0.0919144 0)
  (-0.00554075 0.0648364 0)
  (0.00269957 0.0281636 0)
  (0.0266739 -0.0217183 0)
  (0.0477752 -0.0712224 0)
  (0.0635033 -0.108677 0)
  (0.0733152 -0.131294 0)
  (0.0776559 -0.139696 0)
  (0.0776989 -0.136151 0)
  (0.0748603 -0.123766 0)
  (0.0704434 -0.105449 0)
  (0.0658932 -0.0841122 0)
  (0.0626128 -0.0625022 0)
  (0.0615719 -0.0442237 0)
  (0.0608591 -0.033703 0)
  (0.056843 -0.0302043 0)
  (0.0493134 -0.0270155 0)
  (0.0412998 -0.0225405 0)
  (0.0351337 -0.0179886 0)
  (0.0311876 -0.013837 0)
  (0.0295521 -0.0101165 0)
  (0.0300635 -0.00746694 0)
  (0.032161 -0.00666236 0)
  (0.0349603 -0.00664241 0)
  (0.0381546 -0.00625847 0)
  (0.041582 -0.00458906 0)
  (0.044998 -0.000805474 0)
  (0.0479496 0.0053262 0)
  (0.0493705 0.0134318 0)
  (0.0495258 0.0237366 0)
  (0.0498843 0.0381335 0)
  (0.0490404 0.0563229 0)
  (0.0708791 0.0794802 0)
  (0.0526609 0.0982249 0)
  (0.0914621 0.0689309 0)
  (0.11463 0.0447758 0)
  (-0.129104 -0.00796276 0)
  (0.768473 0.46706 0)
  (-0.303638 0.172153 0)
  (0.0211569 0.0673965 0)
  (0.047364 0.0646113 0)
  (0.0663849 0.0492243 0)
  (0.091543 0.00881958 0)
  (0.12492 -0.044976 0)
  (0.145414 -0.0888559 0)
  (0.153843 -0.118242 0)
  (0.151972 -0.133238 0)
  (0.142151 -0.135578 0)
  (0.127076 -0.1279 0)
  (0.109299 -0.113179 0)
  (0.090982 -0.094292 0)
  (0.0739118 -0.0739112 0)
  (0.0592911 -0.0542546 0)
  (0.0477471 -0.037872 0)
  (0.0384568 -0.0271803 0)
  (0.0295516 -0.0217627 0)
  (0.0207059 -0.0185142 0)
  (0.0129954 -0.0156029 0)
  (0.00739862 -0.0130901 0)
  (0.0040242 -0.0110991 0)
  (0.00275283 -0.00959095 0)
  (0.00329366 -0.00887378 0)
  (0.00507697 -0.00917683 0)
  (0.00751424 -0.0098108 0)
  (0.0104256 -0.00994721 0)
  (0.0138806 -0.00876283 0)
  (0.0180096 -0.00527447 0)
  (0.0237853 0.00146294 0)
  (0.0293667 0.0103991 0)
  (0.0346055 0.0208398 0)
  (0.0414043 0.0335618 0)
  (0.0490568 0.0484266 0)
  (0.0707936 0.0671291 0)
  (0.0842484 0.0757552 0)
  (0.115959 0.0535637 0)
  (0.15559 0.0443558 0)
  (-0.0370635 0.0926498 0)
  (0.872704 0.469099 0)
  (-0.0669404 0.151231 0)
  (0.107917 -0.0125852 0)
  (0.178067 -0.0342959 0)
  (0.19922 -0.0430168 0)
  (0.23134 -0.0656675 0)
  (0.252484 -0.0896787 0)
  (0.25711 -0.10813 0)
  (0.246033 -0.118545 0)
  (0.223039 -0.12046 0)
  (0.19245 -0.114703 0)
  (0.158279 -0.10302 0)
  (0.123747 -0.0873082 0)
  (0.0913267 -0.0696176 0)
  (0.062758 -0.0519649 0)
  (0.0387949 -0.0357872 0)
  (0.0201797 -0.0230185 0)
  (0.00642077 -0.0152277 0)
  (-0.00420567 -0.0117145 0)
  (-0.012113 -0.010418 0)
  (-0.0181176 -0.00972729 0)
  (-0.0222944 -0.0093728 0)
  (-0.0248792 -0.00931838 0)
  (-0.0261227 -0.00955226 0)
  (-0.0263294 -0.0101832 0)
  (-0.0259244 -0.0112125 0)
  (-0.0252641 -0.0123149 0)
  (-0.0244253 -0.0130605 0)
  (-0.0232318 -0.0129719 0)
  (-0.0212841 -0.0114742 0)
  (-0.0175873 -0.00783297 0)
  (-0.00864904 -0.00134803 0)
  (-0.000562854 0.00687811 0)
  (0.00985942 0.0150704 0)
  (0.0215346 0.0222685 0)
  (0.0414938 0.029797 0)
  (0.0608109 0.0234676 0)
  (0.0811833 -0.00418482 0)
  (0.140349 0.0386711 0)
  (-0.404561 0.202265 0)
  (1.01876 0.423126 0)
  (0.484794 0.279834 0)
  (0.499283 0.18475 0)
  (0.522732 0.11616 0)
  (0.504003 0.0682784 0)
  (0.465262 0.0224473 0)
  (0.419269 -0.018199 0)
  (0.368324 -0.0480038 0)
  (0.312442 -0.0650784 0)
  (0.254377 -0.0705631 0)
  (0.197485 -0.0673365 0)
  (0.144499 -0.0586561 0)
  (0.0969002 -0.0468129 0)
  (0.0561079 -0.0337793 0)
  (0.0227379 -0.021426 0)
  (-0.00413476 -0.0110619 0)
  (-0.021623 -0.00541124 0)
  (-0.0323755 -0.00358072 0)
  (-0.0396336 -0.00371913 0)
  (-0.0449891 -0.00460449 0)
  (-0.0492197 -0.00559318 0)
  (-0.0525516 -0.00657709 0)
  (-0.0551972 -0.00756082 0)
  (-0.0573763 -0.00856503 0)
  (-0.0593567 -0.00964176 0)
  (-0.061467 -0.010753 0)
  (-0.0640337 -0.0116866 0)
  (-0.0673394 -0.0120835 0)
  (-0.0716924 -0.0114215 0)
  (-0.0775212 -0.00900122 0)
  (-0.0853687 -0.00401663 0)
  (-0.0951831 0.00406202 0)
  (-0.104982 0.014638 0)
  (-0.119623 0.027986 0)
  (-0.142664 0.0443099 0)
  (-0.176621 0.0625793 0)
  (-0.224938 0.0789341 0)
  (-0.280782 0.0908634 0)
  (-0.34919 0.0982691 0)
  (-0.609917 0.10153 0)
  (-0.160554 0.00591286 0)
  (0.125612 0.0119945 0)
  (0.210957 -0.0190849 0)
  (0.1971 -0.0339102 0)
  (0.182227 -0.0361067 0)
  (0.161473 -0.0345189 0)
  (0.132966 -0.0308807 0)
  (0.0996332 -0.0253747 0)
  (0.0648487 -0.0184569 0)
  (0.030792 -0.0106867 0)
  (-0.00335364 -0.00244143 0)
  (-0.0301592 0.00361667 0)
  (-0.0482534 0.00704608 0)
  (-0.0598556 0.00841477 0)
  (-0.0664897 0.00813531 0)
  (-0.0706346 0.0073199 0)
  (-0.0737574 0.00649704 0)
  (-0.0765528 0.00573703 0)
  (-0.0793785 0.00490714 0)
  (-0.0822612 0.00402208 0)
  (-0.0852548 0.00311347 0)
  (-0.0884568 0.00220966 0)
  (-0.0919847 0.00135001 0)
  (-0.0959381 0.00067572 0)
  (-0.100384 0.000417407 0)
  (-0.105321 0.00085773 0)
  (-0.110671 0.00230232 0)
  (-0.116259 0.00504053 0)
  (-0.121489 0.00952802 0)
  (-0.125555 0.0166926 0)
  (-0.128882 0.027656 0)
  (-0.131715 0.0427935 0)
  (-0.134719 0.061343 0)
  (-0.138349 0.0799263 0)
  (-0.139606 0.0889332 0)
  (-0.122502 0.0676816 0)
  (-0.0813803 -0.0228769 0)
  (-0.274435 -0.198158 0)
  (0.00508409 0.197085 0)
  (0.0445389 0.0747698 0)
  (0.00350799 0.00913064 0)
  (-0.00670213 0.000525046 0)
  (-0.0155476 0.00111606 0)
  (-0.0277247 -0.000280046 0)
  (-0.0431283 -0.000530387 0)
  (-0.0594002 0.000954484 0)
  (-0.0738371 0.00292878 0)
  (-0.0841033 0.00394616 0)
  (-0.0899449 0.00287381 0)
  (-0.0932592 -0.000465806 0)
  (-0.0945372 -0.00510586 0)
  (-0.0947273 -0.0102824 0)
  (-0.0947074 -0.0158275 0)
  (-0.0951414 -0.0212152 0)
  (-0.0961669 -0.0259684 0)
  (-0.0976921 -0.0298014 0)
  (-0.0996158 -0.0325414 0)
  (-0.101977 -0.034336 0)
  (-0.104708 -0.0352369 0)
  (-0.107702 -0.0352205 0)
  (-0.110889 -0.0345993 0)
  (-0.114198 -0.0334401 0)
  (-0.117484 -0.0316313 0)
  (-0.120488 -0.0289262 0)
  (-0.12282 -0.0248984 0)
  (-0.123977 -0.018868 0)
  (-0.123524 -0.0108952 0)
  (-0.120626 -0.000760976 0)
  (-0.11391 0.0122677 0)
  (-0.102083 0.0288448 0)
  (-0.0846922 0.0485431 0)
  (-0.062526 0.0675689 0)
  (-0.0383638 0.0788556 0)
  (0.00103227 0.0633589 0)
  (0.143459 -0.00745364 0)
  (-0.205222 -0.108588 0)
  (-0.0437884 -0.319972 0)
  (-0.412829 -0.122388 0)
  (-0.300797 0.0664465 0)
  (-0.244088 -0.0180281 0)
  (-0.203268 -0.0253221 0)
  (-0.189773 -0.0144773 0)
  (-0.184442 -0.0047236 0)
  (-0.181205 0.00345291 0)
  (-0.177657 0.011198 0)
  (-0.172572 0.0188944 0)
  (-0.165531 0.0266585 0)
  (-0.156627 0.0345289 0)
  (-0.146523 0.042363 0)
  (-0.136398 0.0500466 0)
  (-0.127176 0.0576675 0)
  (-0.119418 0.0652054 0)
  (-0.113312 0.0725138 0)
  (-0.108772 0.079287 0)
  (-0.105563 0.0850609 0)
  (-0.103437 0.0894672 0)
  (-0.102159 0.0923366 0)
  (-0.101566 0.0937521 0)
  (-0.101559 0.0937422 0)
  (-0.102059 0.0922939 0)
  (-0.102985 0.0899058 0)
  (-0.104253 0.0867816 0)
  (-0.105732 0.0830129 0)
  (-0.107192 0.0786707 0)
  (-0.108243 0.0737791 0)
  (-0.10822 0.0683201 0)
  (-0.105858 0.0635528 0)
  (-0.0993266 0.0604577 0)
  (-0.0862666 0.0598891 0)
  (-0.064829 0.0627861 0)
  (-0.0353309 0.0696963 0)
  (0.0101595 0.0798237 0)
  (0.0541704 0.0811616 0)
  (0.0953739 0.0681938 0)
  (0.161211 0.0421776 0)
  (-0.232651 -0.00832574 0)
)
;

boundaryField
{
  floor
  {
    type noSlip;
  }
  ceiling
  {
    type noSlip;
  }
  sWall
  {
    type noSlip;
  }
  nWall
  {
    type noSlip;
  }
  sideWalls
  {
    type empty;
  }
  glass1
  {
    type noSlip;
  }
  glass2
  {
    type noSlip;
  }
  sun
  {
    type noSlip;
  }
  heatsource1
  {
    type noSlip;
  }
  heatsource2
  {
    type noSlip;
  }
  Table_master
  {
    type noSlip;
  }
  Table_slave
  {
    type noSlip;
  }
  inlet
  {
    type fixedValue;
    value uniform (0.277164 -0.114805 0);
  }
  outlet
  {
    type zeroGradient;
  }
} 	// ************************************************************************* //

