/*--------------------------------*- C++ -*----------------------------------*\
  =========                 |
  \\      /  F ield         | OpenFOAM: The Open Source CFD Toolbox
   \\    /   O peration     | Website:  https://openfoam.org
    \\  /    A nd           | Version:  6
     \\/     M anipulation  |
\*---------------------------------------------------------------------------*/
FoamFile
{
    version     2.0;
    format      ascii;
    class       volScalarField;
    location    "390";
    object      epsilon;
}
// * * * * * * * * * * * * * * * * * * * * * * * * * * * * * * * * * * * * * //

dimensions      [0 2 -3 0 0 0 0];

internalField   nonuniform List<scalar> 
459
(
0.000214345
0.000296122
0.000339548
0.000403219
0.000473748
0.000558356
0.000643353
0.000714244
0.000753221
0.000741989
0.000598258
0.000470119
0.000340746
0.000239571
0.000160594
3.37186e-05
7.78697e-05
0.000124534
0.000136792
0.000135993
0.000126106
0.00010649
8.75859e-05
7.22367e-05
6.0143e-05
5.05822e-05
4.29865e-05
3.68801e-05
3.18377e-05
2.75174e-05
2.36121e-05
1.97883e-05
1.48993e-05
1.04244e-05
0.000432692
0.0005283
0.000269238
0.000276112
0.000305623
0.000359105
0.000426159
0.0004859
0.00051605
0.000504897
0.000426435
0.000340164
0.000265354
0.000209689
0.000159904
0.000254562
0.000144939
0.00010789
0.000226361
0.000135502
0.000114296
0.00010297
9.51338e-05
9.77673e-05
8.16761e-05
6.59028e-05
5.29945e-05
4.28125e-05
3.48792e-05
2.87165e-05
2.38823e-05
2.02774e-05
1.83644e-05
1.92285e-05
1.55769e-05
1.67217e-05
0.000698127
0.00101913
0.000280789
0.00025474
0.000290089
0.000356107
0.000433597
0.000496363
0.000530247
0.000523138
0.000460561
0.000378079
0.000299939
0.000234488
0.00018059
0.000174683
0.00022234
0.000138818
0.000171759
0.00013889
0.000122292
0.000110131
0.000108736
0.000257567
0.000172075
0.000119199
8.58684e-05
6.41711e-05
4.95889e-05
3.96054e-05
3.27357e-05
2.82691e-05
2.1784e-05
2.04538e-05
1.80045e-05
2.1135e-05
0.0010333
0.00189501
0.000358563
0.000254771
0.00029555
0.000386649
0.000474336
0.000535432
0.000573272
0.000568857
0.000509413
0.00041917
0.000329996
0.000258467
0.000203036
0.000175376
0.000179357
0.000306442
0.000222899
0.000175327
0.000151934
0.00013662
0.000123842
0.000124038
0.000344924
0.000260918
0.000210694
0.000177275
0.000152089
0.000130905
0.00011248
9.49079e-05
7.68067e-05
4.42128e-05
2.95527e-05
2.82867e-05
2.89493e-05
0.00147332
0.00326859
0.000586927
0.00028869
0.000333343
0.000485643
0.000570604
0.000622846
0.000659787
0.000650218
0.000576937
0.00046214
0.00034915
0.000263218
0.000205666
0.000175483
0.000176965
0.000197298
0.000190402
0.000184019
0.000175344
0.000162004
0.000145192
0.000129943
0.000131211
0.000124197
0.000116894
0.000109219
0.000100556
9.0709e-05
7.99795e-05
6.88963e-05
5.80556e-05
4.47532e-05
3.3441e-05
3.47283e-05
3.22831e-05
4.29387e-05
4.40466e-05
4.6084e-05
0.00207331
0.00494458
0.00122343
0.000473889
0.000537052
0.000704125
0.000741431
0.000770301
0.000797964
0.000774095
0.000670226
0.00051407
0.000364692
0.000257649
0.00019718
0.000175025
0.000184394
0.000206059
0.000218923
0.000220362
0.000210598
0.000191737
0.000167993
0.000144922
0.00012962
0.000121368
0.000116319
0.000111054
0.000104221
9.53848e-05
8.42125e-05
7.19557e-05
6.02419e-05
4.96482e-05
4.01625e-05
3.80855e-05
3.81248e-05
4.22264e-05
0.00016155
0.000109648
0.00275607
0.00610737
0.00262318
0.00133441
0.00120464
0.00109006
0.00100803
0.000993302
0.00100131
0.000946643
0.000791822
0.000575041
0.000379961
0.000252841
0.000195724
0.000187123
0.000208331
0.000237768
0.000254988
0.000254247
0.000238552
0.000213283
0.000184782
0.000159418
0.00014272
0.000134848
0.000130671
0.000126543
0.000121501
0.000115562
0.000108667
9.83278e-05
8.78535e-05
7.90661e-05
7.26641e-05
7.04452e-05
7.19754e-05
8.18218e-05
0.00024861
0.00018903
0.0029372
0.00710765
0.0040286
0.00279158
0.00205257
0.00157559
0.00135
0.00129796
0.00128253
0.00116995
0.000931274
0.000628203
0.000388294
0.00025677
0.000220378
0.000225852
0.00025286
0.000280708
0.000291571
0.000282364
0.000259686
0.000231769
0.000205478
0.000185492
0.000173375
0.000167
0.000162516
0.000157947
0.000153789
0.000152076
0.000155191
0.000164319
0.000174189
0.000189501
0.000220829
0.00026923
0.000349511
0.00044307
0.00165842
0.000427232
0.00276976
0.00457593
0.0034349
0.00258325
0.00197953
0.00167038
0.00161869
0.00167691
0.0016477
0.00140723
0.00102798
0.000614443
0.000399906
0.000320369
0.000302158
0.000311451
0.000331375
0.00034714
0.000348574
0.000335238
0.000315104
0.000295017
0.000278904
0.000268253
0.0002613
0.000254463
0.000244567
0.000230696
0.000215076
0.000202855
0.000200483
0.000213029
0.000243454
0.00029143
0.000361866
0.000459423
0.000585011
0.000733533
0.000893166
0.000486419
0.000607689
0.000904694
0.00136974
0.001947
0.00233528
0.00236781
0.00199732
0.0013123
0.00084098
0.000622913
0.00054401
0.00052219
0.000524969
0.000537289
0.00055115
0.000560402
0.000562961
0.000561044
0.000557948
0.000556541
0.000557885
0.00056135
0.000561268
0.000550713
0.000524816
0.000481242
0.000422507
0.000358045
0.000304159
0.000273183
0.000265429
0.000285686
0.000335737
0.000415233
0.000514077
0.000605479
0.00067241
0.000591579
0.000850351
0.0053927
0.00606148
0.00529371
0.004343
0.00334416
0.00243572
0.00173641
0.00134547
0.00117572
0.00111981
0.00111242
0.00112767
0.00115761
0.00120002
0.00125052
0.00130198
0.00134966
0.0013932
0.00143462
0.00147439
0.00150951
0.00153584
0.0015456
0.00152707
0.0014688
0.00136458
0.00121827
0.00104371
0.000864082
0.000708665
0.000593798
0.000528419
0.000507531
0.000514342
0.000534557
0.00104744
0.000767449
0.00128613
0.00154706
0.00183332
0.00290409
0.0027041
0.00226383
0.00197926
0.00173171
0.00148082
0.00125718
0.00110212
0.00101542
0.00097442
0.000959903
0.000959374
0.000964346
0.000968698
0.00096871
0.000963876
0.000955949
0.000946887
0.000937481
0.000927102
0.000914257
0.000896227
0.00086998
0.000833402
0.000786141
0.000730419
0.000670968
0.000614266
0.00056603
0.000528895
0.000504868
0.000494023
0.000493201
0.000491958
0.000467212
0.000450597
0.000418634
)
;

boundaryField
{
    floor
    {
        Cmu             0.09;
        kappa           0.41;
        E               9.8;
        type            epsilonWallFunction;
        value           nonuniform List<scalar> 
29
(
0.000160594
3.37186e-05
7.78697e-05
0.000124534
0.000136792
0.000135993
0.000126106
0.00010649
8.75859e-05
7.22367e-05
6.0143e-05
5.05822e-05
4.29865e-05
3.68801e-05
3.18377e-05
2.75174e-05
2.36121e-05
1.97883e-05
1.48993e-05
1.04244e-05
1.04244e-05
1.67217e-05
2.1135e-05
2.89493e-05
0.000160594
3.37186e-05
0.00010789
0.000138818
0.000306442
)
;
    }
    ceiling
    {
        Cmu             0.09;
        kappa           0.41;
        E               9.8;
        type            epsilonWallFunction;
        value           nonuniform List<scalar> 
43
(
0.00128613
0.00154706
0.00183332
0.00290409
0.0027041
0.00226383
0.00197926
0.00173171
0.00148082
0.00125718
0.00110212
0.00101542
0.00097442
0.000959903
0.000959374
0.000964346
0.000968698
0.00096871
0.000963876
0.000955949
0.000946887
0.000937481
0.000927102
0.000914257
0.000896227
0.00086998
0.000833402
0.000786141
0.000730419
0.000670968
0.000614266
0.00056603
0.000528895
0.000504868
0.000494023
0.000493201
0.000491958
0.000467212
0.000450597
0.000418634
0.00276976
0.00457593
0.000850351
)
;
    }
    sWall
    {
        Cmu             0.09;
        kappa           0.41;
        E               9.8;
        type            epsilonWallFunction;
        value           uniform 0.00128613;
    }
    nWall
    {
        Cmu             0.09;
        kappa           0.41;
        E               9.8;
        type            epsilonWallFunction;
        value           nonuniform List<scalar> 6(4.6084e-05 0.000109648 0.00018903 0.000591579 0.000767449 0.000418634);
    }
    sideWalls
    {
        type            empty;
    }
    glass1
    {
        Cmu             0.09;
        kappa           0.41;
        E               9.8;
        type            epsilonWallFunction;
        value           nonuniform List<scalar> 9(0.000214345 0.000432692 0.000698127 0.0010333 0.00147332 0.00207331 0.00275607 0.0029372 0.00276976);
    }
    glass2
    {
        Cmu             0.09;
        kappa           0.41;
        E               9.8;
        type            epsilonWallFunction;
        value           nonuniform List<scalar> 2(0.000427232 0.000486419);
    }
    sun
    {
        Cmu             0.09;
        kappa           0.41;
        E               9.8;
        type            epsilonWallFunction;
        value           nonuniform List<scalar> 
14
(
0.000214345
0.000296122
0.000339548
0.000403219
0.000473748
0.000558356
0.000643353
0.000714244
0.000753221
0.000741989
0.000598258
0.000470119
0.000340746
0.000239571
)
;
    }
    heatsource1
    {
        Cmu             0.09;
        kappa           0.41;
        E               9.8;
        type            epsilonWallFunction;
        value           nonuniform List<scalar> 3(4.29387e-05 4.40466e-05 4.6084e-05);
    }
    heatsource2
    {
        Cmu             0.09;
        kappa           0.41;
        E               9.8;
        type            epsilonWallFunction;
        value           nonuniform List<scalar> 4(0.000254562 0.000144939 0.000144939 0.00022234);
    }
    Table_master
    {
        Cmu             0.09;
        kappa           0.41;
        E               9.8;
        type            epsilonWallFunction;
        value           nonuniform List<scalar> 9(0.000257567 0.000172075 0.000119199 8.58684e-05 6.41711e-05 4.95889e-05 3.96054e-05 3.27357e-05 2.82691e-05);
    }
    Table_slave
    {
        Cmu             0.09;
        kappa           0.41;
        E               9.8;
        type            epsilonWallFunction;
        value           nonuniform List<scalar> 9(0.000344924 0.000260918 0.000210694 0.000177275 0.000152089 0.000130905 0.00011248 9.49079e-05 7.68067e-05);
    }
    inlet
    {
        type            turbulentMixingLengthDissipationRateInlet;
        mixingLength    0.01;
        phi             phi;
        k               k;
        value           uniform 0.000101881;
    }
    outlet
    {
        type            zeroGradient;
    }
}


// ************************************************************************* //
