/*--------------------------------*- C++ -*----------------------------------*\
  =========                 |
  \\      /  F ield         | OpenFOAM: The Open Source CFD Toolbox
   \\    /   O peration     | Website:  https://openfoam.org
    \\  /    A nd           | Version:  6
     \\/     M anipulation  |
\*---------------------------------------------------------------------------*/
FoamFile
{
    version     2.0;
    format      ascii;
    class       volScalarField;
    location    "390";
    object      nut;
}
// * * * * * * * * * * * * * * * * * * * * * * * * * * * * * * * * * * * * * //

dimensions      [0 2 -1 0 0 0 0];

internalField   nonuniform List<scalar> 
459
(
0.000846066
0.0009423
0.000986275
0.00104443
0.00110208
0.00116412
0.00122042
0.0012637
0.00128629
0.00127989
0.00119126
0.00109929
0.000987458
0.00087804
0.000768438
0.000456728
0.000603718
0.000705987
0.000728424
0.000727004
0.000708942
0.000670093
0.000627833
0.000588779
0.000553896
0.000522837
0.000495235
0.000470578
0.000448073
0.000426813
0.000405583
0.000382388
0.000347875
0.000308828
0.00106929
0.00274899
0.00276259
0.00322681
0.00369938
0.0040624
0.00440724
0.00474477
0.00505255
0.00528941
0.00532356
0.00505055
0.00457783
0.00359859
0.00232857
0.000895997
0.000742617
0.000673027
0.00237706
0.00249243
0.00285819
0.00308073
0.00295406
0.00209233
0.00174211
0.00151673
0.00135298
0.00122758
0.00112539
0.00103273
0.000942867
0.000851006
0.000767927
0.000712297
0.000577461
0.000361518
0.00125415
0.00374779
0.00348003
0.00393086
0.00418999
0.00438344
0.00461096
0.00492673
0.00535782
0.00584364
0.00616123
0.00616712
0.00592107
0.00529609
0.00418609
0.00258842
0.000856484
0.000732032
0.00209782
0.00284767
0.0035495
0.0039714
0.00360119
0.00089949
0.000786333
0.000695758
0.000623704
0.000565998
0.000519394
0.000481897
0.000452248
0.000430666
0.00048891
0.000597477
0.000617827
0.000390875
0.00142927
0.00452435
0.0035948
0.00400208
0.00402493
0.00406428
0.00418215
0.00447573
0.00500509
0.00565563
0.00611971
0.00631992
0.00627988
0.00598666
0.00528877
0.00407731
0.00211753
0.000953168
0.00141602
0.00231452
0.00346279
0.00441447
0.00491693
0.00439293
0.000991455
0.000903372
0.000841235
0.000794177
0.000754633
0.000717832
0.000682441
0.000644875
0.000600958
0.000560785
0.000586025
0.000685125
0.000434095
0.00160869
0.00546216
0.00378816
0.00403837
0.00396008
0.00388329
0.00390031
0.00418603
0.0047913
0.00548562
0.00602429
0.00629306
0.00632813
0.00619288
0.00584166
0.00519044
0.00420007
0.00384642
0.00440592
0.00513066
0.00576785
0.00617789
0.00630826
0.00603274
0.00488126
0.00435093
0.00406025
0.00385929
0.00367038
0.00342248
0.00305822
0.00259092
0.00204853
0.00151249
0.00112267
0.000994317
0.000695177
0.00049506
0.000499284
0.000506872
0.00180272
0.00656242
0.00470873
0.00431023
0.00421507
0.00394228
0.00384497
0.00411581
0.00475329
0.00550961
0.0060907
0.00636748
0.00640785
0.00636326
0.00630873
0.00620255
0.00607436
0.00636882
0.00688308
0.00725835
0.00743594
0.00741176
0.00721377
0.00686131
0.00634836
0.00592817
0.00560281
0.00532196
0.00504487
0.00473533
0.00433723
0.00383522
0.0032364
0.00258596
0.00199256
0.0016081
0.00124369
0.000994298
0.00113549
0.000676683
0.00198217
0.00736971
0.00624029
0.00518428
0.00466571
0.00408314
0.00386955
0.00417856
0.00490987
0.00574906
0.00636214
0.00663249
0.00669193
0.006796
0.00702134
0.00725062
0.00751117
0.00790636
0.00821197
0.00827
0.00811292
0.00778778
0.0073534
0.0068697
0.00639455
0.00600089
0.00567707
0.00538558
0.00509786
0.00479578
0.00447688
0.00415127
0.00373811
0.00325111
0.00273613
0.00229529
0.00187862
0.00154367
0.00147896
0.000811389
0.00202467
0.00658915
0.00589603
0.00524833
0.00441612
0.00382619
0.00378619
0.00434637
0.00528864
0.00622863
0.0068359
0.00708751
0.00720709
0.00745895
0.00763266
0.00782861
0.00808206
0.00831985
0.00838552
0.00818826
0.00778776
0.00725619
0.00667362
0.00611739
0.00564934
0.00528635
0.00499377
0.00473302
0.00447915
0.0042206
0.00397015
0.00377018
0.00364396
0.00345277
0.00319163
0.00295455
0.00271213
0.00231625
0.00253098
0.00106483
0.00198545
0.00234715
0.00252269
0.00251932
0.00252863
0.00283337
0.00362523
0.00481425
0.00605507
0.00698801
0.00742198
0.00761611
0.00758351
0.00745629
0.00741358
0.00748912
0.00760352
0.0076287
0.00747498
0.00714274
0.00666575
0.00612539
0.00560843
0.00516612
0.00481353
0.00453001
0.0042807
0.00403938
0.00378628
0.00350077
0.00317575
0.00284805
0.00257137
0.00236729
0.00220121
0.00204957
0.00190927
0.00177988
0.0016863
0.00111188
0.000619776
0.00121324
0.00231339
0.0038817
0.0054743
0.00675569
0.00750847
0.00781448
0.00763412
0.00726698
0.00693434
0.00674146
0.00667105
0.00665417
0.00661209
0.00648408
0.00626172
0.00598321
0.00569706
0.00543452
0.00520423
0.00499553
0.00479383
0.0045799
0.00433596
0.00405419
0.00373785
0.00339862
0.00304896
0.00271209
0.00242727
0.00221303
0.00207089
0.00197852
0.00189713
0.0017932
0.00168082
0.00118681
0.00133922
0.00515538
0.00713827
0.00788543
0.00817229
0.00816524
0.00786951
0.0073568
0.00681596
0.00640321
0.00616725
0.00605909
0.00601681
0.00599668
0.00597357
0.00593479
0.0058801
0.0058187
0.00576082
0.00571203
0.00567016
0.00562537
0.00556482
0.00547366
0.00533547
0.00513558
0.00486539
0.00452655
0.00413053
0.0037023
0.00328505
0.00291062
0.00260429
0.00236846
0.00218067
0.00203257
0.00254326
0.00129436
0.00153739
0.00163501
0.00173019
0.00201693
0.00196955
0.0018563
0.00177503
0.00169773
0.00161144
0.00152585
0.00146034
0.00142098
0.00140159
0.00139459
0.00139433
0.00139673
0.00139883
0.00139883
0.00139651
0.00139267
0.00138825
0.00138364
0.00137852
0.00137212
0.00136304
0.0013496
0.00133041
0.00130476
0.00127317
0.00123765
0.00120175
0.00116944
0.00114329
0.00112571
0.0011176
0.00111699
0.00111606
0.00109702
0.00108385
0.00105759
)
;

boundaryField
{
    floor
    {
        type            nutkWallFunction;
        Cmu             0.09;
        kappa           0.41;
        E               9.8;
        value           nonuniform List<scalar> 
29
(
9.30774e-05
5.41756e-05
7.28223e-05
8.5466e-05
8.82097e-05
8.80363e-05
8.58281e-05
8.10557e-05
7.58263e-05
7.09559e-05
6.65724e-05
6.26411e-05
5.91232e-05
5.59601e-05
5.3055e-05
5.02939e-05
4.75194e-05
4.4467e-05
3.98808e-05
3.46207e-05
3.46207e-05
4.16996e-05
4.55852e-05
5.12397e-05
9.30774e-05
5.41755e-05
8.14164e-05
8.86474e-05
0.000115185
)
;
    }
    ceiling
    {
        type            nutkWallFunction;
        Cmu             0.09;
        kappa           0.41;
        E               9.8;
        value           nonuniform List<scalar> 
43
(
0.000182289
0.000193193
0.000203756
0.000235226
0.000230073
0.000217681
0.000208737
0.000200188
0.000190593
0.000181021
0.000173655
0.000169213
0.000167019
0.000166227
0.000166198
0.00016647
0.000166708
0.000166709
0.000166445
0.00016601
0.000165509
0.000164986
0.000164405
0.000163678
0.000162647
0.00016112
0.000158936
0.000156012
0.000152401
0.000148328
0.000144199
0.00014047
0.000137444
0.000135405
0.000134463
0.000134391
0.000134282
0.000132069
0.000130535
0.000127471
0.000231814
0.000270887
0.000159906
)
;
    }
    sWall
    {
        type            nutkWallFunction;
        Cmu             0.09;
        kappa           0.41;
        E               9.8;
        value           uniform 0.00018231;
    }
    nWall
    {
        type            nutkWallFunction;
        Cmu             0.09;
        kappa           0.41;
        E               9.8;
        value           nonuniform List<scalar> 6(6.05911e-05 8.18593e-05 9.82677e-05 0.000142484 0.000154835 0.000127479);
    }
    sideWalls
    {
        type            empty;
    }
    glass1
    {
        type            nutkWallFunction;
        Cmu             0.09;
        kappa           0.41;
        E               9.8;
        value           nonuniform List<scalar> 9(0.000102447 0.000128868 0.000150265 0.000170209 0.000190363 0.000211883 0.000231561 0.000236195 0.000231923);
    }
    glass2
    {
        type            nutkWallFunction;
        Cmu             0.09;
        kappa           0.41;
        E               9.8;
        value           nonuniform List<scalar> 2(0.000128335 0.000133822);
    }
    sun
    {
        type            nutkWallFunction;
        Cmu             0.09;
        kappa           0.41;
        E               9.8;
        value           nonuniform List<scalar> 
14
(
0.000102437
0.000113903
0.000119096
0.000125924
0.00013265
0.000139844
0.000146335
0.000151301
0.000153885
0.000153151
0.000142974
0.000132323
0.000119234
0.000106262
)
;
    }
    heatsource1
    {
        type            nutkWallFunction;
        Cmu             0.09;
        kappa           0.41;
        E               9.8;
        value           nonuniform List<scalar> 3(5.90926e-05 5.96323e-05 6.05998e-05);
    }
    heatsource2
    {
        type            nutkWallFunction;
        Cmu             0.09;
        kappa           0.41;
        E               9.8;
        value           nonuniform List<scalar> 4(0.000108404 8.99389e-05 8.99389e-05 0.000103684);
    }
    Table_master
    {
        type            nutkWallFunction;
        Cmu             0.09;
        kappa           0.41;
        E               9.8;
        value           nonuniform List<scalar> 9(0.000108823 9.52446e-05 8.42103e-05 7.531e-05 6.80923e-05 6.21977e-05 5.74077e-05 5.35874e-05 5.07869e-05);
    }
    Table_slave
    {
        type            nutkWallFunction;
        Cmu             0.09;
        kappa           0.41;
        E               9.8;
        value           nonuniform List<scalar> 9(0.000119712 0.000109286 0.00010186 9.61928e-05 9.14002e-05 8.69133e-05 8.25723e-05 7.79349e-05 7.2472e-05);
    }
    inlet
    {
        type            calculated;
        value           uniform 0.000100623;
    }
    outlet
    {
        type            calculated;
        value           nonuniform List<scalar> 2(0.00153739 0.00163501);
    }
}


// ************************************************************************* //
