// -*- C++ -*-
// File generated by PyFoam - sorry for the ugliness

FoamFile
{
 version 2.0;
 format ascii;
 class volScalarField;
 location "700";
 object T;
}

dimensions [ 0 0 0 1 0 0 0 ];

internalField nonuniform List<scalar> 459
(
  306.846
  306.023
  305.952
  305.919
  305.899
  305.885
  305.876
  305.869
  305.863
  305.857
  305.85
  305.844
  305.837
  305.83
  305.82
  303.766
  303.765
  303.766
  303.758
  303.746
  303.726
  303.684
  303.619
  303.559
  303.517
  303.495
  303.486
  303.481
  303.478
  303.477
  303.497
  303.505
  303.498
  303.5
  306.175
  305.963
  305.847
  305.787
  305.754
  305.734
  305.725
  305.722
  305.722
  305.725
  305.731
  305.741
  305.754
  305.771
  305.788
  305.78
  305.764
  303.799
  303.791
  303.786
  303.785
  303.782
  303.756
  303.707
  303.658
  303.616
  303.582
  303.555
  303.531
  303.513
  303.5
  303.497
  303.559
  303.563
  303.533
  303.509
  306.071
  305.753
  305.628
  305.572
  305.544
  305.53
  305.525
  305.53
  305.546
  305.57
  305.6
  305.634
  305.671
  305.708
  305.744
  305.755
  305.751
  303.848
  303.835
  303.837
  303.847
  303.854
  303.846
  303.723
  303.685
  303.658
  303.634
  303.612
  303.591
  303.569
  303.546
  303.53
  303.699
  303.629
  303.573
  303.526
  305.998
  305.572
  305.47
  305.444
  305.435
  305.43
  305.427
  305.432
  305.449
  305.478
  305.517
  305.563
  305.613
  305.664
  305.711
  305.736
  305.713
  304.665
  303.954
  303.897
  303.903
  303.917
  303.929
  303.939
  303.946
  303.949
  303.951
  303.953
  303.955
  303.956
  303.954
  303.951
  303.943
  303.913
  303.851
  303.765
  303.684
  305.924
  305.443
  305.4
  305.414
  305.421
  305.42
  305.415
  305.41
  305.419
  305.442
  305.481
  305.53
  305.586
  305.643
  305.695
  305.719
  305.599
  304.499
  303.994
  303.944
  303.947
  303.958
  303.966
  303.972
  303.975
  303.976
  303.978
  303.979
  303.98
  303.98
  303.979
  303.976
  303.969
  303.954
  303.921
  303.863
  303.802
  303.795
  303.801
  303.905
  305.84
  305.373
  305.389
  305.429
  305.437
  305.435
  305.427
  305.418
  305.422
  305.444
  305.481
  305.53
  305.585
  305.64
  305.681
  305.657
  305.388
  304.382
  304.017
  303.978
  303.983
  303.992
  303.999
  304.002
  304.003
  304.002
  304
  304
  304
  304.001
  304.001
  304
  303.997
  303.992
  303.985
  303.974
  303.954
  303.907
  303.857
  303.865
  305.739
  305.356
  305.391
  305.442
  305.453
  305.456
  305.454
  305.452
  305.458
  305.476
  305.507
  305.549
  305.594
  305.632
  305.638
  305.536
  305.151
  304.297
  304.043
  304.019
  304.028
  304.039
  304.045
  304.045
  304.04
  304.033
  304.026
  304.021
  304.019
  304.02
  304.023
  304.026
  304.029
  304.032
  304.035
  304.038
  304.038
  304.028
  303.91
  303.892
  305.634
  305.336
  305.372
  305.448
  305.466
  305.479
  305.487
  305.493
  305.5
  305.514
  305.536
  305.563
  305.588
  305.597
  305.553
  305.377
  304.938
  304.255
  304.085
  304.078
  304.095
  304.112
  304.119
  304.113
  304.1
  304.082
  304.064
  304.049
  304.04
  304.038
  304.043
  304.05
  304.058
  304.066
  304.073
  304.079
  304.083
  304.085
  304.085
  304.084
  305.534
  305.294
  305.289
  305.413
  305.452
  305.477
  305.496
  305.509
  305.519
  305.528
  305.539
  305.549
  305.55
  305.526
  305.44
  305.222
  304.792
  304.268
  304.156
  304.162
  304.191
  304.218
  304.225
  304.215
  304.194
  304.165
  304.133
  304.101
  304.076
  304.059
  304.052
  304.053
  304.059
  304.069
  304.082
  304.094
  304.106
  304.117
  304.131
  304.183
  305.146
  305.36
  305.409
  305.44
  305.463
  305.48
  305.491
  305.497
  305.499
  305.495
  305.476
  305.43
  305.327
  305.116
  304.755
  304.352
  304.281
  304.289
  304.319
  304.339
  304.344
  304.336
  304.316
  304.284
  304.244
  304.198
  304.153
  304.114
  304.087
  304.071
  304.063
  304.063
  304.066
  304.07
  304.07
  304.067
  304.063
  304.077
  305.225
  305.322
  305.356
  305.379
  305.397
  305.409
  305.417
  305.42
  305.417
  305.405
  305.38
  305.333
  305.246
  305.091
  304.766
  304.581
  304.516
  304.494
  304.487
  304.483
  304.475
  304.462
  304.441
  304.411
  304.371
  304.323
  304.27
  304.216
  304.168
  304.128
  304.101
  304.083
  304.073
  304.066
  304.061
  304.055
  304.05
  304.07
  307.02
  306.413
  305.309
  305.282
  305.291
  305.296
  305.301
  305.304
  305.307
  305.309
  305.306
  305.296
  305.279
  305.25
  305.201
  305.069
  304.915
  304.838
  304.792
  304.76
  304.728
  304.696
  304.665
  304.634
  304.601
  304.566
  304.528
  304.483
  304.433
  304.378
  304.318
  304.258
  304.203
  304.158
  304.123
  304.097
  304.076
  304.059
  304.045
  304.069
)
;

boundaryField
{
  floor
  {
    type wallHeatTransfer;
    Tinf uniform 305.2;
    alphaWall uniform 0.24;
    value nonuniform List<scalar> 29
(
  305.77
  304.111
  304.082
  304.078
  304.09
  304.105
  304.117
  304.133
  304.149
  304.158
  304.152
  304.128
  304.101
  304.094
  304.099
  304.098
  304.031
  303.949
  303.89
  303.937
  303.937
  303.852
  303.83
  303.891
  305.77
  304.111
  304.07
  304.057
  304.723
)
;
  }
  ceiling
  {
    type wallHeatTransfer;
    Tinf uniform 303.2;
    alphaWall uniform 0.24;
    value nonuniform List<scalar> 43
(
  306.718
  306.155
  305.151
  305.067
  305.078
  305.085
  305.091
  305.096
  305.101
  305.104
  305.103
  305.096
  305.081
  305.056
  305.01
  304.889
  304.745
  304.669
  304.624
  304.593
  304.565
  304.539
  304.513
  304.486
  304.458
  304.428
  304.393
  304.353
  304.307
  304.257
  304.203
  304.149
  304.1
  304.06
  304.028
  304.002
  303.981
  303.962
  303.951
  303.969
  305.442
  305.218
  305.122
)
;
  }
  sWall
  {
    type wallHeatTransfer;
    Tinf uniform 315.2;
    alphaWall uniform 0.36;
    value uniform 307.955;
  }
  nWall
  {
    type wallHeatTransfer;
    Tinf uniform 307.2;
    alphaWall uniform 0.36;
    value nonuniform List<scalar> 6
(
  304.461
  304.367
  304.372
  304.453
  304.471
  304.579
)
;
  }
  sideWalls
  {
    type empty;
  }
  glass1
  {
    type wallHeatTransfer;
    Tinf uniform 315.2;
    alphaWall uniform 4.3;
    value nonuniform List<scalar> 9
(
  311.817
  310.674
  310.482
  310.364
  310.264
  310.161
  310.04
  309.889
  309.673
)
;
  }
  glass2
  {
    type wallHeatTransfer;
    Tinf uniform 307.2;
    alphaWall uniform 4.3;
    value nonuniform List<scalar> 2
(
  306.12
  306.066
)
;
  }
  sun
  {
    type wallHeatTransfer;
    Tinf uniform 305.2;
    alphaWall uniform 0.24;
    value nonuniform List<scalar> 14
(
  306.723
  305.975
  305.907
  305.875
  305.855
  305.842
  305.832
  305.825
  305.819
  305.812
  305.805
  305.798
  305.791
  305.783
)
;
  }
  heatsource1
  {
    type fixedGradient;
    gradient uniform 0;
  }
  heatsource2
  {
    type fixedGradient;
    gradient uniform 0;
  }
  Table_master
  {
    type zeroGradient;
  }
  Table_slave
  {
    type zeroGradient;
  }
  inlet
  {
    type fixedValue;
    value uniform 290.15;
  }
  outlet
  {
    type zeroGradient;
  }
} 	// ************************************************************************* //

