// -*- C++ -*-
// File generated by PyFoam - sorry for the ugliness

FoamFile
{
 version 2.0;
 format ascii;
 class volVectorField;
 location "700";
 object U;
}

dimensions [ 0 1 -1 0 0 0 0 ];

internalField nonuniform List<vector> 459
(
  (0.0203862 0.316582 0)
  (0.242671 -0.242017 0)
  (0.369354 -0.169839 0)
  (0.492778 -0.110936 0)
  (0.56713 -0.0763977 0)
  (0.601131 -0.0552319 0)
  (0.613694 -0.0401021 0)
  (0.613037 -0.0278266 0)
  (0.60029 -0.0166454 0)
  (0.575315 -0.00568381 0)
  (0.537215 0.00595105 0)
  (0.484252 0.0195629 0)
  (0.412674 0.0381523 0)
  (0.30985 0.0722912 0)
  (0.227833 0.162801 0)
  (0.0293241 0.008627 0)
  (-0.0176302 -0.00703162 0)
  (-0.00596105 -0.00901326 0)
  (0.00201809 -0.00590856 0)
  (0.00586532 -0.00226433 0)
  (0.00474486 0.00308031 0)
  (-0.0045299 0.007166 0)
  (-0.0170827 0.0055522 0)
  (-0.0241045 0.00221272 0)
  (-0.0274471 -0.000856448 0)
  (-0.0279962 -0.00339333 0)
  (-0.0254498 -0.00489208 0)
  (-0.0212432 -0.00620685 0)
  (-0.0142798 -0.00839117 0)
  (-0.00527803 -0.0118277 0)
  (0.0043464 -0.00847418 0)
  (0.012431 -0.0103197 0)
  (0.0288049 -0.00740794 0)
  (-0.0255268 0.0106686 0)
  (0.564932 -0.3038 0)
  (0.337388 -0.308784 0)
  (0.401369 -0.193413 0)
  (0.471958 -0.100003 0)
  (0.506018 -0.0485717 0)
  (0.520389 -0.0183722 0)
  (0.526531 0.00453703 0)
  (0.524618 0.0241946 0)
  (0.512744 0.0415643 0)
  (0.4904 0.0582302 0)
  (0.456907 0.0756818 0)
  (0.411981 0.0955888 0)
  (0.35722 0.120595 0)
  (0.296981 0.156099 0)
  (0.261018 0.219992 0)
  (0.231023 0.191363 0)
  (0.116041 0.13653 0)
  (0.0844807 0.000817636 0)
  (0.0298835 -0.000878439 0)
  (0.0103858 -0.00234141 0)
  (0.00422789 -0.0020364 0)
  (0.0035702 0.000859689 0)
  (0.00563809 0.00796511 0)
  (0.00594231 0.0117423 0)
  (0.00308892 0.00923411 0)
  (0.00328115 0.00599594 0)
  (0.00383049 0.00366028 0)
  (0.00370765 0.00175193 0)
  (0.00173373 -0.00039705 0)
  (0.000437102 -0.00310052 0)
  (0.00110131 -0.00723885 0)
  (0.000931979 -0.0135723 0)
  (0.0034001 -0.0103676 0)
  (0.00949257 -0.0142952 0)
  (0.0264469 -0.00765649 0)
  (-0.0714353 0.0259331 0)
  (0.588314 -0.502645 0)
  (0.142026 -0.386016 0)
  (0.263728 -0.224446 0)
  (0.321929 -0.126509 0)
  (0.334293 -0.0768064 0)
  (0.341934 -0.0455338 0)
  (0.349413 -0.0196276 0)
  (0.35524 0.00619545 0)
  (0.354586 0.033721 0)
  (0.346149 0.0631938 0)
  (0.328941 0.0947416 0)
  (0.302764 0.128482 0)
  (0.269187 0.164618 0)
  (0.229823 0.202984 0)
  (0.197422 0.243096 0)
  (0.154624 0.206193 0)
  (0.0898727 0.170064 0)
  (0.0475558 -0.0078952 0)
  (-0.0279004 0.00161409 0)
  (-0.0254639 0.00391705 0)
  (-0.0243485 0.000548132 0)
  (-0.0220809 -0.00246352 0)
  (-0.0190231 -0.00336385 0)
  (0.0139341 0.00908521 0)
  (0.0171144 0.00531023 0)
  (0.0219496 0.00225518 0)
  (0.0256258 -8.25697e-05 0)
  (0.0273656 -0.00198473 0)
  (0.0272562 -0.00376779 0)
  (0.0249401 -0.00571394 0)
  (0.0198343 -0.00841292 0)
  (0.00492377 -0.0122279 0)
  (0.00607295 -0.00887576 0)
  (0.00366085 -0.00247962 0)
  (-0.0171129 0.00897112 0)
  (-0.129837 0.023193 0)
  (0.604629 -0.648583 0)
  (-0.0449908 -0.426115 0)
  (0.160827 -0.235856 0)
  (0.192822 -0.137647 0)
  (0.181793 -0.0875867 0)
  (0.186278 -0.0516309 0)
  (0.194677 -0.0211447 0)
  (0.204106 0.00905644 0)
  (0.209241 0.041091 0)
  (0.208866 0.0759976 0)
  (0.202077 0.113795 0)
  (0.188333 0.153765 0)
  (0.168041 0.194552 0)
  (0.140457 0.233995 0)
  (0.115094 0.269631 0)
  (0.0829156 0.25469 0)
  (0.0558441 0.227326 0)
  (-0.0273944 0.105572 0)
  (-0.0572915 0.00942909 0)
  (-0.0568197 0.0052575 0)
  (-0.055108 0.00295438 0)
  (-0.0564611 -0.00102188 0)
  (-0.0586681 -0.00566182 0)
  (-0.0610779 -0.0095567 0)
  (-0.0587701 -0.00882981 0)
  (-0.0501072 -0.00935024 0)
  (-0.0403301 -0.0107197 0)
  (-0.0292879 -0.0121949 0)
  (-0.0172894 -0.0136092 0)
  (-0.00314849 -0.0144878 0)
  (0.0106091 -0.0140609 0)
  (0.0230183 -0.0127956 0)
  (0.0345874 -0.0113352 0)
  (0.0382941 -0.00811057 0)
  (0.0386276 0.00440306 0)
  (0.0438579 0.0134283 0)
  (-0.0681343 0.020107 0)
  (0.596118 -0.721126 0)
  (-0.169014 -0.451704 0)
  (0.102538 -0.248135 0)
  (0.0896697 -0.135219 0)
  (0.0547506 -0.0913312 0)
  (0.0642427 -0.0584969 0)
  (0.0736508 -0.0298276 0)
  (0.0821343 0.00125954 0)
  (0.0882414 0.0372541 0)
  (0.0900185 0.0775981 0)
  (0.0876008 0.121424 0)
  (0.0803997 0.16718 0)
  (0.06842 0.212927 0)
  (0.0501939 0.256359 0)
  (0.0350826 0.29502 0)
  (0.0123994 0.292338 0)
  (0.00279389 0.25704 0)
  (-0.0472238 0.0981537 0)
  (-0.0487207 0.0182806 0)
  (-0.0585494 0.00890613 0)
  (-0.0628071 0.00530465 0)
  (-0.0647654 0.00121006 0)
  (-0.0654294 -0.00352116 0)
  (-0.0649332 -0.00756689 0)
  (-0.062058 -0.00973147 0)
  (-0.0567079 -0.0122529 0)
  (-0.0499618 -0.0146941 0)
  (-0.0422731 -0.0169526 0)
  (-0.0339768 -0.0188369 0)
  (-0.0252286 -0.0198838 0)
  (-0.0162664 -0.0197053 0)
  (-0.00703524 -0.0183868 0)
  (0.0029218 -0.0157226 0)
  (0.0125059 -0.0118957 0)
  (0.0279278 -0.00215365 0)
  (0.0561224 0.0122201 0)
  (0.0547395 0.0248298 0)
  (0.0844236 0.0301427 0)
  (0.118356 0.0547561 0)
  (-0.343973 -0.0219271 0)
  (0.543392 -0.734544 0)
  (-0.219016 -0.461035 0)
  (0.0413024 -0.240928 0)
  (-0.00271162 -0.102246 0)
  (-0.0480277 -0.089855 0)
  (-0.0342891 -0.0656752 0)
  (-0.028615 -0.038839 0)
  (-0.0240712 -0.00631401 0)
  (-0.0194755 0.0331408 0)
  (-0.0181399 0.0772517 0)
  (-0.018033 0.125023 0)
  (-0.0202186 0.174789 0)
  (-0.0249366 0.224523 0)
  (-0.0333735 0.27131 0)
  (-0.0375459 0.30918 0)
  (-0.0470468 0.307657 0)
  (-0.041581 0.26082 0)
  (-0.0592909 0.107137 0)
  (-0.0509364 0.03309 0)
  (-0.0592006 0.015583 0)
  (-0.0632578 0.00802186 0)
  (-0.0649178 0.00182665 0)
  (-0.06512 -0.00423521 0)
  (-0.064372 -0.00954116 0)
  (-0.0625477 -0.0136653 0)
  (-0.0597692 -0.017252 0)
  (-0.0564969 -0.0203668 0)
  (-0.0531041 -0.0229609 0)
  (-0.0498653 -0.0249065 0)
  (-0.0468674 -0.0259686 0)
  (-0.0439964 -0.0260019 0)
  (-0.0410161 -0.0251839 0)
  (-0.0374986 -0.0238849 0)
  (-0.0321575 -0.0226802 0)
  (-0.0212388 -0.0217805 0)
  (0.0014511 -0.0222238 0)
  (0.0284257 -0.0227422 0)
  (0.0738586 0.00568298 0)
  (0.117995 0.057798 0)
  (-0.0320209 0.0713416 0)
  (0.425731 -0.672865 0)
  (-0.21892 -0.422618 0)
  (-0.0807935 -0.210466 0)
  (-0.0869706 -0.0707962 0)
  (-0.147272 -0.0860645 0)
  (-0.13547 -0.0691857 0)
  (-0.131635 -0.0422136 0)
  (-0.127692 -0.00763787 0)
  (-0.123236 0.0324417 0)
  (-0.119968 0.076912 0)
  (-0.115995 0.125043 0)
  (-0.111761 0.175567 0)
  (-0.107488 0.226361 0)
  (-0.103505 0.273432 0)
  (-0.0951763 0.307844 0)
  (-0.0882931 0.304164 0)
  (-0.0697715 0.248168 0)
  (-0.065194 0.106515 0)
  (-0.0543925 0.0397301 0)
  (-0.0574518 0.0194486 0)
  (-0.0584488 0.0096383 0)
  (-0.0584423 0.00204543 0)
  (-0.057744 -0.00480355 0)
  (-0.0570523 -0.0105977 0)
  (-0.0565168 -0.0152023 0)
  (-0.0563358 -0.0188474 0)
  (-0.0568773 -0.0216125 0)
  (-0.0585698 -0.0235307 0)
  (-0.0617959 -0.0246595 0)
  (-0.0666721 -0.0250816 0)
  (-0.0728779 -0.0249647 0)
  (-0.0797776 -0.024688 0)
  (-0.0867646 -0.0249598 0)
  (-0.092834 -0.0270147 0)
  (-0.0963818 -0.0327527 0)
  (-0.0958027 -0.0443305 0)
  (-0.0924027 -0.0602991 0)
  (-0.0878693 -0.066343 0)
  (0.0798741 0.0186625 0)
  (-0.0858362 0.145512 0)
  (0.248188 -0.526801 0)
  (-0.328831 -0.334277 0)
  (-0.310698 -0.198115 0)
  (-0.1934 -0.0492154 0)
  (-0.26792 -0.0957334 0)
  (-0.240285 -0.0795459 0)
  (-0.231216 -0.049358 0)
  (-0.224704 -0.0123497 0)
  (-0.217588 0.0286751 0)
  (-0.210655 0.0724737 0)
  (-0.201256 0.119072 0)
  (-0.188901 0.167835 0)
  (-0.173505 0.216768 0)
  (-0.155179 0.261326 0)
  (-0.13242 0.291414 0)
  (-0.109259 0.284775 0)
  (-0.0801925 0.22357 0)
  (-0.0616316 0.0959204 0)
  (-0.0493074 0.0383138 0)
  (-0.0473645 0.0187881 0)
  (-0.0445367 0.00867644 0)
  (-0.0415215 0.000977728 0)
  (-0.0391514 -0.00544587 0)
  (-0.0382437 -0.0104006 0)
  (-0.038674 -0.0140398 0)
  (-0.0404347 -0.0164523 0)
  (-0.0437267 -0.017501 0)
  (-0.0491185 -0.0170373 0)
  (-0.0575847 -0.0151806 0)
  (-0.0701889 -0.0124554 0)
  (-0.0872117 -0.00962146 0)
  (-0.107602 -0.00723927 0)
  (-0.131352 -0.00643259 0)
  (-0.157477 -0.00823658 0)
  (-0.184514 -0.0130421 0)
  (-0.209816 -0.0200984 0)
  (-0.232868 -0.0270477 0)
  (-0.253844 -0.0237669 0)
  (-0.302536 0.00598834 0)
  (-0.489425 0.0693753 0)
  (-0.0123036 -0.383174 0)
  (-0.659061 -0.334744 0)
  (-0.86041 -0.326537 0)
  (-0.247136 -0.168783 0)
  (-0.369278 -0.135532 0)
  (-0.317749 -0.0976132 0)
  (-0.306137 -0.0589603 0)
  (-0.300669 -0.0204962 0)
  (-0.293832 0.0196404 0)
  (-0.283663 0.0615646 0)
  (-0.268306 0.104783 0)
  (-0.246793 0.149287 0)
  (-0.218922 0.193611 0)
  (-0.185231 0.233541 0)
  (-0.146864 0.259395 0)
  (-0.108554 0.25162 0)
  (-0.0705306 0.191351 0)
  (-0.0415837 0.0799338 0)
  (-0.0275244 0.0320542 0)
  (-0.0225098 0.0151366 0)
  (-0.0165031 0.00638407 0)
  (-0.00979657 0.00013064 0)
  (-0.00660545 -0.00430333 0)
  (-0.00568449 -0.00742199 0)
  (-0.00672858 -0.00964668 0)
  (-0.00916962 -0.0109493 0)
  (-0.0124183 -0.0108965 0)
  (-0.0160069 -0.00898579 0)
  (-0.0197106 -0.00508974 0)
  (-0.0235739 0.000317505 0)
  (-0.0272065 0.00640937 0)
  (-0.0328275 0.0121896 0)
  (-0.0407072 0.0166187 0)
  (-0.0511893 0.0174777 0)
  (-0.0656774 0.0117253 0)
  (-0.0876809 -0.00366526 0)
  (-0.105537 -0.0298084 0)
  (-0.104653 -0.069328 0)
  (-0.131512 -0.127974 0)
  (-0.471579 -0.19663 0)
  (-1.82993 -0.352719 0)
  (-0.128275 -0.285485 0)
  (-0.360678 -0.16625 0)
  (-0.343553 -0.100784 0)
  (-0.346997 -0.0506681 0)
  (-0.349034 -0.00955258 0)
  (-0.345008 0.0251838 0)
  (-0.333462 0.0566667 0)
  (-0.313211 0.0893748 0)
  (-0.283051 0.123546 0)
  (-0.242864 0.15823 0)
  (-0.193902 0.190265 0)
  (-0.139496 0.21171 0)
  (-0.0863717 0.206361 0)
  (-0.0372992 0.155984 0)
  (0.00834523 0.0574124 0)
  (0.0212183 0.022714 0)
  (0.0259442 0.00981742 0)
  (0.0329273 0.00141743 0)
  (0.0366032 -0.00336013 0)
  (0.037791 -0.00552402 0)
  (0.0371258 -0.00658316 0)
  (0.0349399 -0.00732594 0)
  (0.0316207 -0.00787891 0)
  (0.0276915 -0.00782646 0)
  (0.0238718 -0.00645842 0)
  (0.0209882 -0.00324777 0)
  (0.0197067 0.0016521 0)
  (0.0200768 0.00718772 0)
  (0.0215734 0.0131053 0)
  (0.0238821 0.0185405 0)
  (0.0267511 0.0221444 0)
  (0.0300716 0.0225563 0)
  (0.0340729 0.0188389 0)
  (0.045049 0.0116994 0)
  (0.0631776 -0.00234131 0)
  (0.12399 -0.0613865 0)
  (-0.131365 -0.161158 0)
  (-0.223538 0.0844689 0)
  (-0.0815715 -0.254804 0)
  (-0.276076 -0.16078 0)
  (-0.330396 -0.121907 0)
  (-0.36409 -0.0948243 0)
  (-0.380184 -0.0691442 0)
  (-0.381308 -0.0402567 0)
  (-0.368778 -0.00766496 0)
  (-0.343701 0.0226634 0)
  (-0.305062 0.052386 0)
  (-0.252736 0.0822272 0)
  (-0.188499 0.111306 0)
  (-0.117326 0.134348 0)
  (-0.0479647 0.136064 0)
  (0.0325565 0.0783681 0)
  (0.0806984 0.00790487 0)
  (0.0966237 -0.0310946 0)
  (0.0995295 -0.0549197 0)
  (0.0978764 -0.0651593 0)
  (0.0940585 -0.0678778 0)
  (0.089522 -0.0672119 0)
  (0.0849054 -0.0653585 0)
  (0.0803402 -0.0632862 0)
  (0.0757603 -0.0612799 0)
  (0.0711643 -0.0592549 0)
  (0.0668214 -0.0569282 0)
  (0.0633696 -0.0539613 0)
  (0.0618016 -0.0500523 0)
  (0.062492 -0.0437865 0)
  (0.06576 -0.0355649 0)
  (0.0715685 -0.0279237 0)
  (0.0793093 -0.0233168 0)
  (0.0877465 -0.0243741 0)
  (0.0957099 -0.0329137 0)
  (0.100479 -0.0434215 0)
  (0.0965306 -0.0551783 0)
  (0.135748 -0.0783177 0)
  (-0.194247 -0.103053 0)
  (0.707652 0.199087 0)
  (0.105336 -0.293797 0)
  (-0.226138 0.156546 0)
  (-0.11291 0.0491321 0)
  (-0.251176 0.0894556 0)
  (-0.315185 0.11172 0)
  (-0.357694 0.123171 0)
  (-0.381275 0.128278 0)
  (-0.387749 0.128847 0)
  (-0.377056 0.127426 0)
  (-0.349144 0.130252 0)
  (-0.303669 0.136631 0)
  (-0.2406 0.14643 0)
  (-0.163171 0.159587 0)
  (-0.0802856 0.174311 0)
  (0.0318483 0.177979 0)
  (0.108344 0.16084 0)
  (0.153938 0.157069 0)
  (0.171059 0.163516 0)
  (0.172565 0.173216 0)
  (0.1675 0.177275 0)
  (0.161386 0.177061 0)
  (0.155455 0.174774 0)
  (0.149713 0.171832 0)
  (0.144171 0.168951 0)
  (0.138924 0.166367 0)
  (0.134084 0.163966 0)
  (0.129811 0.161394 0)
  (0.126356 0.158166 0)
  (0.124132 0.153827 0)
  (0.123471 0.146798 0)
  (0.124941 0.136977 0)
  (0.128917 0.126734 0)
  (0.134602 0.118043 0)
  (0.140044 0.112143 0)
  (0.142089 0.109235 0)
  (0.136044 0.103885 0)
  (0.11819 0.0956493 0)
  (0.152599 0.0771478 0)
  (-0.271743 0.0637227 0)
)
;

boundaryField
{
  floor
  {
    type noSlip;
  }
  ceiling
  {
    type noSlip;
  }
  sWall
  {
    type noSlip;
  }
  nWall
  {
    type noSlip;
  }
  sideWalls
  {
    type empty;
  }
  glass1
  {
    type noSlip;
  }
  glass2
  {
    type noSlip;
  }
  sun
  {
    type noSlip;
  }
  heatsource1
  {
    type noSlip;
  }
  heatsource2
  {
    type noSlip;
  }
  Table_master
  {
    type noSlip;
  }
  Table_slave
  {
    type noSlip;
  }
  inlet
  {
    type fixedValue;
    value uniform (0.1 0 0);
  }
  outlet
  {
    type zeroGradient;
  }
} 	// ************************************************************************* //

