/*--------------------------------*- C++ -*----------------------------------*\
  =========                 |
  \\      /  F ield         | OpenFOAM: The Open Source CFD Toolbox
   \\    /   O peration     | Website:  https://openfoam.org
    \\  /    A nd           | Version:  6
     \\/     M anipulation  |
\*---------------------------------------------------------------------------*/
FoamFile
{
    version     2.0;
    format      ascii;
    class       volScalarField;
    location    "200";
    object      nut;
}
// * * * * * * * * * * * * * * * * * * * * * * * * * * * * * * * * * * * * * //

dimensions      [0 2 -1 0 0 0 0];

internalField   nonuniform List<scalar> 
459
(
0.000691472
0.000728421
0.000691084
0.000692433
0.000697169
0.000692105
0.00067522
0.000656063
0.000641322
0.000633939
0.000633802
0.000638916
0.000645818
0.000648888
0.000642387
0.0004233
0.000428768
0.000375908
0.000327795
0.000296807
0.000285954
0.000281478
0.000292137
0.000308709
0.000326207
0.000341301
0.000349448
0.000346409
0.000344562
0.000348019
0.000366657
0.000392756
0.000472786
0.000418938
0.00109672
0.00247905
0.00245335
0.00274152
0.00288796
0.00306927
0.00326772
0.00323111
0.00304484
0.00283962
0.00266109
0.00249201
0.00228701
0.00198719
0.00151829
0.000762194
0.000519947
0.000589814
0.00178945
0.00149901
0.0011539
0.000905165
0.000780124
0.000708665
0.000830726
0.000984001
0.00111369
0.00120156
0.00123334
0.00120149
0.00115992
0.0012037
0.00151845
0.00154407
0.00186494
0.000660018
0.00124
0.00402997
0.0037014
0.00390726
0.0036437
0.00358712
0.00411196
0.00443601
0.00434763
0.00409179
0.00382073
0.00355281
0.0032441
0.00283158
0.00226296
0.0015573
0.000856899
0.000772495
0.00208278
0.00166352
0.00119292
0.00085916
0.000605717
0.00037875
0.000404942
0.000436844
0.000470542
0.000508169
0.00055349
0.000612352
0.000695094
0.000821555
0.00225916
0.00245381
0.00298166
0.000912069
0.00170751
0.00263189
0.00291265
0.00337273
0.00392433
0.00409749
0.00426061
0.00494888
0.00517992
0.00508163
0.00490455
0.00471532
0.00448172
0.00413005
0.003571
0.00273187
0.00169577
0.000926917
0.0022138
0.00264538
0.00218784
0.00173383
0.00135718
0.0010467
0.000792877
0.000798894
0.000807612
0.00081953
0.000836765
0.000861943
0.000898924
0.000954553
0.0010429
0.00275603
0.00283757
0.00294085
0.00106598
0.00266929
0.00250481
0.00257211
0.00295973
0.00367774
0.00415443
0.0043283
0.00503738
0.00560697
0.00576675
0.00581417
0.005867
0.00593669
0.00599814
0.00601386
0.00593609
0.00572369
0.00542189
0.0053337
0.00515553
0.00497992
0.0048616
0.004764
0.0046343
0.00450168
0.00441077
0.00431175
0.00420148
0.00408206
0.00395686
0.00383006
0.00370638
0.00358698
0.00346006
0.00308556
0.00262948
0.00214767
0.0015008
0.00158593
0.00156874
0.00326255
0.00319811
0.00270794
0.00274355
0.00343716
0.00416619
0.00433699
0.00487861
0.00556633
0.00590907
0.00614638
0.00638571
0.0066439
0.00690732
0.00715424
0.00735034
0.00744356
0.00739619
0.00726314
0.00711814
0.00699811
0.00691019
0.00682811
0.0067361
0.00662831
0.00650435
0.00636564
0.00621404
0.00605095
0.00587713
0.00569239
0.00549627
0.00528956
0.00507519
0.00486445
0.0047208
0.00471352
0.00490115
0.00517529
0.00198728
0.00389521
0.00412009
0.00320156
0.00267708
0.00326775
0.00426822
0.00450904
0.00468079
0.00508796
0.00541694
0.00576717
0.0061732
0.00660848
0.00704875
0.00746808
0.00785519
0.00815504
0.00831425
0.0083459
0.00830933
0.00824647
0.00817161
0.0080867
0.00798839
0.00787108
0.00773277
0.00757615
0.00740429
0.0072205
0.00702873
0.00683377
0.0066421
0.0064625
0.00630355
0.0061675
0.00605608
0.00601861
0.00635086
0.00746625
0.0023545
0.0046194
0.00537844
0.00461247
0.00283086
0.00352205
0.00472098
0.00477147
0.00435422
0.00420788
0.00444139
0.00489526
0.00543478
0.00600156
0.00658874
0.0071839
0.00775323
0.00824475
0.00860138
0.00881104
0.0089073
0.00892936
0.00890332
0.00884536
0.00876255
0.00865509
0.00852248
0.00836608
0.00818778
0.00798989
0.00777556
0.00754938
0.00731853
0.00709461
0.00689467
0.00674193
0.00666578
0.006668
0.00681827
0.00834948
0.00273828
0.00563217
0.00726912
0.0119453
0.00366436
0.0035287
0.00486229
0.00448332
0.00384233
0.00380869
0.00413215
0.00457347
0.00507775
0.00563247
0.00622947
0.00685267
0.00747258
0.00804513
0.00851645
0.0088573
0.00907441
0.00919261
0.00923787
0.00923148
0.00918714
0.00911112
0.00900635
0.00887483
0.00871795
0.00853678
0.00833249
0.00810676
0.00786275
0.00760632
0.00734788
0.00710727
0.00692679
0.00687983
0.00704466
0.00803593
0.00271765
0.0198639
0.010514
0.00351791
0.00457276
0.00452581
0.00456996
0.0047597
0.00503081
0.00539235
0.00584231
0.00636461
0.00692911
0.00749799
0.00803376
0.00850463
0.00889235
0.00918974
0.00940037
0.0095357
0.00960963
0.00963422
0.00961878
0.00957034
0.00949391
0.00939284
0.00926897
0.00912303
0.00895491
0.00876409
0.00855027
0.00831435
0.00805998
0.00779637
0.00754262
0.00732911
0.00716223
0.00660685
0.00185353
0.00856783
0.0116275
0.00797206
0.00644806
0.005649
0.00524354
0.00511145
0.00519449
0.00548224
0.00597038
0.00662386
0.00736514
0.00809524
0.00872675
0.00919158
0.00950108
0.00969327
0.00980754
0.00987427
0.00991225
0.00992473
0.0099119
0.00987872
0.00982909
0.00976548
0.009689
0.00959965
0.00949661
0.00937854
0.00924405
0.00909201
0.00892192
0.00873383
0.0085279
0.00829654
0.00799127
0.00680579
0.00200951
0.00121275
0.00159271
0.00475248
0.00451344
0.00412206
0.00371631
0.00336894
0.00307149
0.00281857
0.00260792
0.00243881
0.00231186
0.00222803
0.00218588
0.00217889
0.00219552
0.00222502
0.0022535
0.00227383
0.00228432
0.00228624
0.00228188
0.00227415
0.00226477
0.00225418
0.00224271
0.00223062
0.00221808
0.00220517
0.00219188
0.00217815
0.0021639
0.00214911
0.00213381
0.00211813
0.00210243
0.00208791
0.00207646
0.00196974
0.00174003
)
;

boundaryField
{
    floor
    {
        type            nutkWallFunction;
        Cmu             0.09;
        kappa           0.41;
        E               9.8;
        value           nonuniform List<scalar> 
29
(
7.75998e-05
4.97485e-05
5.04606e-05
4.35113e-05
3.70781e-05
3.28704e-05
3.13833e-05
3.07688e-05
3.22335e-05
3.44966e-05
3.68687e-05
3.89014e-05
3.99935e-05
3.95866e-05
3.93396e-05
3.98039e-05
4.22921e-05
4.57488e-05
5.61755e-05
4.91823e-05
4.91823e-05
7.97792e-05
0.000110343
0.000128521
7.75998e-05
4.97485e-05
7.10286e-05
9.35536e-05
0.000112111
)
;
    }
    ceiling
    {
        type            nutkWallFunction;
        Cmu             0.09;
        kappa           0.41;
        E               9.8;
        value           nonuniform List<scalar> 
43
(
0.000145645
0.000188835
0.000520098
0.000496091
0.000456515
0.0004151
0.000379286
0.000348322
0.000321754
0.000299438
0.000281386
0.00026775
0.0002587
0.000254134
0.000253372
0.000255167
0.000258352
0.000261423
0.000263609
0.000264734
0.000264934
0.000264458
0.000263618
0.000262601
0.000261453
0.000260209
0.000258898
0.000257537
0.000256136
0.000254692
0.0002532
0.000251652
0.000250044
0.000248378
0.00024667
0.000244959
0.000243374
0.000242119
0.000230462
0.00020515
0.000607405
0.000766526
0.00089097
)
;
    }
    sWall
    {
        type            nutkWallFunction;
        Cmu             0.09;
        kappa           0.41;
        E               9.8;
        value           uniform 0.000145667;
    }
    nWall
    {
        type            nutkWallFunction;
        Cmu             0.09;
        kappa           0.41;
        E               9.8;
        value           nonuniform List<scalar> 6(0.000186043 0.000232355 0.000272123 0.000217676 0.000234809 0.000205157);
    }
    sideWalls
    {
        type            empty;
    }
    glass1
    {
        type            nutkWallFunction;
        Cmu             0.09;
        kappa           0.41;
        E               9.8;
        value           nonuniform List<scalar> 9(8.36333e-05 0.000132187 0.000148819 0.000201665 0.000306074 0.000368377 0.000433539 0.000506838 0.000607491);
    }
    glass2
    {
        type            nutkWallFunction;
        Cmu             0.09;
        kappa           0.41;
        E               9.8;
        value           nonuniform List<scalar> 2(0.000312894 0.000310715);
    }
    sun
    {
        type            nutkWallFunction;
        Cmu             0.09;
        kappa           0.41;
        E               9.8;
        value           nonuniform List<scalar> 
14
(
8.36617e-05
8.81959e-05
8.36138e-05
8.378e-05
8.43627e-05
8.37404e-05
8.16598e-05
7.92921e-05
7.7465e-05
7.65485e-05
7.65322e-05
7.71684e-05
7.80256e-05
7.84065e-05
)
;
    }
    heatsource1
    {
        type            nutkWallFunction;
        Cmu             0.09;
        kappa           0.41;
        E               9.8;
        value           nonuniform List<scalar> 3(0.000178426 0.000187986 0.000186053);
    }
    heatsource2
    {
        type            nutkWallFunction;
        Cmu             0.09;
        kappa           0.41;
        E               9.8;
        value           nonuniform List<scalar> 4(9.2316e-05 6.21973e-05 6.21973e-05 0.000103755);
    }
    Table_master
    {
        type            nutkWallFunction;
        Cmu             0.09;
        kappa           0.41;
        E               9.8;
        value           nonuniform List<scalar> 9(4.38768e-05 4.7333e-05 5.15044e-05 5.58698e-05 6.0699e-05 6.64578e-05 7.38529e-05 8.41059e-05 9.9503e-05);
    }
    Table_slave
    {
        type            nutkWallFunction;
        Cmu             0.09;
        kappa           0.41;
        E               9.8;
        value           nonuniform List<scalar> 9(9.60315e-05 9.67604e-05 9.78153e-05 9.92553e-05 0.000101333 0.000104359 0.000108785 0.000115403 0.000125822);
    }
    inlet
    {
        type            calculated;
        value           uniform 0.0198639;
    }
    outlet
    {
        type            calculated;
        value           nonuniform List<scalar> 2(0.00121275 0.00159271);
    }
}


// ************************************************************************* //
