/*--------------------------------*- C++ -*----------------------------------*\
  =========                 |
  \\      /  F ield         | OpenFOAM: The Open Source CFD Toolbox
   \\    /   O peration     | Website:  https://openfoam.org
    \\  /    A nd           | Version:  6
     \\/     M anipulation  |
\*---------------------------------------------------------------------------*/
FoamFile
{
    version     2.0;
    format      ascii;
    class       volScalarField;
    location    "600";
    object      epsilon;
}
// * * * * * * * * * * * * * * * * * * * * * * * * * * * * * * * * * * * * * //

dimensions      [0 2 -3 0 0 0 0];

internalField   nonuniform List<scalar> 
459
(
0.000218405
0.000264638
0.000268489
0.00030013
0.000329476
0.000356645
0.000382463
0.000408098
0.000434747
0.000453803
0.000460068
0.00044839
0.000417973
0.000376042
0.000334024
2.26572e-05
3.91196e-05
4.0361e-05
3.5931e-05
3.14123e-05
2.73509e-05
2.37797e-05
2.08013e-05
1.83468e-05
1.63172e-05
1.46259e-05
1.32082e-05
1.19994e-05
1.09447e-05
9.9906e-06
9.07617e-06
8.12009e-06
7.55038e-06
6.08256e-06
0.000631344
0.00113393
0.000248235
0.000229997
0.000230217
0.000235215
0.000245686
0.000264056
0.000291929
0.000321412
0.000343544
0.000347632
0.000328085
0.000292145
0.000272299
0.00032979
0.000122542
5.83839e-05
6.08728e-05
5.10713e-05
4.13944e-05
3.28904e-05
2.62776e-05
2.2114e-05
1.8365e-05
1.5298e-05
1.28365e-05
1.0863e-05
9.29662e-06
8.04379e-06
7.05234e-06
6.36972e-06
6.20845e-06
6.55671e-06
2.11682e-05
1.37358e-05
0.00126586
0.00324046
0.000330661
0.000219625
0.000216488
0.000227583
0.000247524
0.000277773
0.000318211
0.000361656
0.000393618
0.000400251
0.000378924
0.000339662
0.000304271
0.000289643
0.000300856
0.000170079
0.00010465
7.02212e-05
4.97979e-05
3.72192e-05
2.97997e-05
4.75065e-05
3.70995e-05
2.95971e-05
2.41193e-05
2.00493e-05
1.69696e-05
1.46062e-05
1.27823e-05
1.1391e-05
9.12161e-06
8.21398e-06
4.05461e-05
2.19768e-05
0.00224431
0.00732615
0.000591657
0.000220699
0.000206828
0.000223121
0.000250371
0.000291855
0.00035064
0.000413307
0.000452967
0.000453735
0.000420773
0.000369293
0.000315799
0.000273
0.000252154
0.000337396
0.000193201
0.000106125
6.55957e-05
4.51026e-05
3.41939e-05
2.97158e-05
6.59067e-05
5.90102e-05
5.53264e-05
5.2763e-05
4.98436e-05
4.61309e-05
4.22955e-05
3.79524e-05
3.26231e-05
2.02998e-05
1.37836e-05
6.97573e-05
3.05457e-05
0.00370196
0.013767
0.00132116
0.000252647
0.00019564
0.000210475
0.000244255
0.00030592
0.000408207
0.000504317
0.000550048
0.000536612
0.0004825
0.000409148
0.000328948
0.00025305
0.000181972
0.000134232
9.17531e-05
6.26831e-05
4.45216e-05
3.46883e-05
3.03454e-05
2.98527e-05
3.32757e-05
3.62539e-05
3.84771e-05
3.93917e-05
3.84953e-05
3.57996e-05
3.27882e-05
2.98633e-05
2.71753e-05
2.25248e-05
1.76347e-05
5.00496e-05
3.52675e-05
7.51096e-05
0.000130177
0.000177847
0.0058281
0.0209459
0.00337066
0.000480339
0.00023816
0.000218431
0.000243482
0.000335051
0.000535322
0.00066253
0.000695075
0.000651758
0.000565992
0.000464774
0.000363392
0.000264904
0.000173371
0.000105631
6.75577e-05
4.7102e-05
3.62184e-05
3.24112e-05
3.31666e-05
3.68377e-05
4.25393e-05
4.8617e-05
5.3647e-05
5.65979e-05
5.63915e-05
5.21319e-05
4.46822e-05
3.71959e-05
3.06488e-05
2.52037e-05
2.20803e-05
3.55982e-05
3.64252e-05
5.13939e-05
0.000243016
0.000197528
0.00869242
0.0251979
0.00819076
0.00208254
0.00090731
0.000552719
0.000470944
0.000640403
0.000856213
0.000933719
0.000904224
0.000804298
0.000670179
0.000531787
0.000404114
0.000285111
0.000175613
9.48826e-05
5.35855e-05
3.80636e-05
3.39234e-05
3.5809e-05
4.07011e-05
4.76525e-05
5.65049e-05
6.58801e-05
7.46381e-05
8.18859e-05
8.61844e-05
8.53605e-05
7.52585e-05
6.31584e-05
5.19687e-05
4.30163e-05
3.95421e-05
4.63873e-05
5.92275e-05
0.00010223
0.000270253
0.000245465
0.00957035
0.0304435
0.0157332
0.00933038
0.00533005
0.00309242
0.00208766
0.00176184
0.00157553
0.001401
0.001204
0.000986076
0.000773099
0.000587285
0.000433537
0.000295387
0.000166291
7.51562e-05
4.01864e-05
3.50886e-05
3.69867e-05
4.21049e-05
4.9353e-05
5.84432e-05
6.92665e-05
8.14793e-05
9.47836e-05
0.000109029
0.000123979
0.00013897
0.000152006
0.000152141
0.000153564
0.000164146
0.000190018
0.000286941
0.000554182
0.0011833
0.0039192
0.00109436
0.00907895
0.0162136
0.0133065
0.010034
0.00738157
0.0053439
0.00398323
0.00306314
0.0024123
0.00192036
0.0014934
0.00111901
0.000817984
0.000593699
0.000427277
0.000272419
0.000119205
4.83402e-05
3.45871e-05
3.50211e-05
3.92463e-05
4.55007e-05
5.34365e-05
6.30653e-05
7.45065e-05
8.79351e-05
0.0001037
0.000122459
0.000145297
0.000173877
0.000210599
0.000258883
0.000326262
0.000433539
0.000595752
0.000821556
0.00108502
0.00131612
0.00147852
0.000904478
0.00529446
0.00751599
0.00623267
0.00498049
0.00398869
0.00321664
0.00256965
0.00199375
0.00144267
0.00100545
0.000699398
0.000495557
0.000351329
0.000156215
5.69852e-05
3.24198e-05
2.98076e-05
3.23841e-05
3.67925e-05
4.24328e-05
4.92155e-05
5.72131e-05
6.65931e-05
7.76379e-05
9.08225e-05
0.000106927
0.000127191
0.00015354
0.000188964
0.000238248
0.000306908
0.000403149
0.000531479
0.000680684
0.000810949
0.000866264
0.000808039
0.000513174
0.00376163
0.00676
0.0056495
0.00440176
0.00338475
0.00259378
0.00196879
0.00144499
0.000956171
0.000629165
0.000433225
0.000254265
0.000105712
4.12237e-05
2.46136e-05
2.27704e-05
2.49557e-05
2.85546e-05
3.3036e-05
3.83283e-05
4.45059e-05
5.17305e-05
6.02518e-05
7.04387e-05
8.28403e-05
9.82826e-05
0.000118008
0.000143876
0.000178504
0.000225142
0.000288625
0.000374187
0.000483248
0.000608102
0.000705216
0.000814093
0.000726545
0.000534842
0.00247234
0.0029212
0.00331902
0.0040028
0.00342214
0.00285627
0.00207611
0.00149647
0.000994923
0.000712002
0.000460058
0.000129328
6.69237e-05
4.60955e-05
3.48301e-05
2.89077e-05
2.78961e-05
3.01441e-05
3.4032e-05
3.88978e-05
4.46651e-05
5.1363e-05
5.90748e-05
6.79281e-05
7.80986e-05
8.98232e-05
0.000103431
0.0001194
0.000138478
0.000161907
0.000191122
0.000226918
0.000271374
0.000327425
0.000398646
0.000501167
0.000543149
0.000510804
0.000422237
0.000339731
)
;

boundaryField
{
    floor
    {
        Cmu             0.09;
        kappa           0.41;
        E               9.8;
        type            epsilonWallFunction;
        value           nonuniform List<scalar> 
29
(
0.000334024
2.26572e-05
3.91196e-05
4.0361e-05
3.5931e-05
3.14123e-05
2.73509e-05
2.37797e-05
2.08013e-05
1.83468e-05
1.63172e-05
1.46259e-05
1.32082e-05
1.19994e-05
1.09447e-05
9.9906e-06
9.07617e-06
8.12009e-06
7.55038e-06
6.08256e-06
6.08256e-06
1.37358e-05
2.19768e-05
3.05457e-05
0.000334024
2.26572e-05
5.83839e-05
0.000170079
0.000337396
)
;
    }
    ceiling
    {
        Cmu             0.09;
        kappa           0.41;
        E               9.8;
        type            epsilonWallFunction;
        value           nonuniform List<scalar> 
43
(
0.00247234
0.0029212
0.00331902
0.0040028
0.00342214
0.00285627
0.00207611
0.00149647
0.000994923
0.000712002
0.000460058
0.000129328
6.69237e-05
4.60955e-05
3.48301e-05
2.89077e-05
2.78961e-05
3.01441e-05
3.4032e-05
3.88978e-05
4.46651e-05
5.1363e-05
5.90748e-05
6.79281e-05
7.80986e-05
8.98232e-05
0.000103431
0.0001194
0.000138478
0.000161907
0.000191122
0.000226918
0.000271374
0.000327425
0.000398646
0.000501167
0.000543149
0.000510804
0.000422237
0.000339731
0.00907895
0.0162136
0.00376163
)
;
    }
    sWall
    {
        Cmu             0.09;
        kappa           0.41;
        E               9.8;
        type            epsilonWallFunction;
        value           uniform 0.00247234;
    }
    nWall
    {
        Cmu             0.09;
        kappa           0.41;
        E               9.8;
        type            epsilonWallFunction;
        value           nonuniform List<scalar> 6(0.000177847 0.000197528 0.000245465 0.000513174 0.000534842 0.000339731);
    }
    sideWalls
    {
        type            empty;
    }
    glass1
    {
        Cmu             0.09;
        kappa           0.41;
        E               9.8;
        type            epsilonWallFunction;
        value           nonuniform List<scalar> 9(0.000218405 0.000631344 0.00126586 0.00224431 0.00370196 0.0058281 0.00869242 0.00957035 0.00907895);
    }
    glass2
    {
        Cmu             0.09;
        kappa           0.41;
        E               9.8;
        type            epsilonWallFunction;
        value           nonuniform List<scalar> 2(0.00109436 0.000904478);
    }
    sun
    {
        Cmu             0.09;
        kappa           0.41;
        E               9.8;
        type            epsilonWallFunction;
        value           nonuniform List<scalar> 
14
(
0.000218405
0.000264638
0.000268489
0.00030013
0.000329476
0.000356645
0.000382463
0.000408098
0.000434747
0.000453803
0.000460068
0.00044839
0.000417973
0.000376042
)
;
    }
    heatsource1
    {
        Cmu             0.09;
        kappa           0.41;
        E               9.8;
        type            epsilonWallFunction;
        value           nonuniform List<scalar> 3(7.51096e-05 0.000130177 0.000177847);
    }
    heatsource2
    {
        Cmu             0.09;
        kappa           0.41;
        E               9.8;
        type            epsilonWallFunction;
        value           nonuniform List<scalar> 4(0.00032979 0.000122542 0.000122542 0.000300856);
    }
    Table_master
    {
        Cmu             0.09;
        kappa           0.41;
        E               9.8;
        type            epsilonWallFunction;
        value           nonuniform List<scalar> 9(4.75065e-05 3.70995e-05 2.95971e-05 2.41193e-05 2.00493e-05 1.69696e-05 1.46062e-05 1.27823e-05 1.1391e-05);
    }
    Table_slave
    {
        Cmu             0.09;
        kappa           0.41;
        E               9.8;
        type            epsilonWallFunction;
        value           nonuniform List<scalar> 9(6.59067e-05 5.90102e-05 5.53264e-05 5.2763e-05 4.98436e-05 4.61309e-05 4.22955e-05 3.79524e-05 3.26231e-05);
    }
    inlet
    {
        type            turbulentMixingLengthDissipationRateInlet;
        mixingLength    0.01;
        phi             phi;
        k               k;
        value           uniform 0.000101881;
    }
    outlet
    {
        type            zeroGradient;
    }
}


// ************************************************************************* //
