// -*- C++ -*-
// File generated by PyFoam - sorry for the ugliness

FoamFile
{
 version 2.0;
 format ascii;
 class volScalarField;
 location "400";
 object T;
}

dimensions [ 0 0 0 1 0 0 0 ];

internalField nonuniform List<scalar> 459
(
  303.604
  303.346
  303.333
  303.329
  303.325
  303.321
  303.316
  303.311
  303.303
  303.293
  303.28
  303.268
  303.259
  303.253
  303.252
  303.332
  303.311
  303.303
  303.305
  303.308
  303.311
  303.314
  303.318
  303.321
  303.324
  303.327
  303.33
  303.333
  303.336
  303.339
  303.342
  303.346
  303.35
  303.367
  303.78
  303.389
  303.365
  303.368
  303.371
  303.372
  303.37
  303.365
  303.352
  303.331
  303.305
  303.279
  303.258
  303.244
  303.237
  303.233
  303.232
  303.332
  303.297
  303.29
  303.292
  303.295
  303.298
  303.299
  303.301
  303.302
  303.303
  303.303
  303.304
  303.305
  303.306
  303.308
  303.311
  303.316
  303.324
  303.351
  303.962
  303.439
  303.4
  303.411
  303.425
  303.436
  303.441
  303.439
  303.42
  303.384
  303.34
  303.297
  303.263
  303.242
  303.233
  303.231
  303.232
  303.274
  303.275
  303.281
  303.289
  303.297
  303.303
  303.303
  303.303
  303.303
  303.303
  303.302
  303.302
  303.302
  303.302
  303.302
  303.304
  303.308
  303.314
  303.344
  304.146
  303.502
  303.436
  303.451
  303.478
  303.505
  303.525
  303.528
  303.501
  303.446
  303.376
  303.313
  303.265
  303.237
  303.227
  303.228
  303.233
  303.243
  303.254
  303.27
  303.287
  303.302
  303.315
  303.324
  303.332
  303.339
  303.345
  303.351
  303.355
  303.358
  303.361
  303.363
  303.363
  303.343
  303.327
  303.319
  303.342
  304.325
  303.581
  303.477
  303.486
  303.523
  303.566
  303.607
  303.615
  303.575
  303.495
  303.398
  303.317
  303.26
  303.229
  303.219
  303.224
  303.236
  303.251
  303.27
  303.291
  303.312
  303.331
  303.346
  303.358
  303.369
  303.377
  303.385
  303.39
  303.394
  303.394
  303.393
  303.389
  303.383
  303.367
  303.346
  303.329
  303.339
  303.404
  303.449
  303.455
  304.485
  303.683
  303.549
  303.535
  303.568
  303.62
  303.677
  303.674
  303.61
  303.508
  303.397
  303.304
  303.241
  303.211
  303.207
  303.222
  303.244
  303.27
  303.297
  303.324
  303.348
  303.368
  303.384
  303.396
  303.406
  303.414
  303.419
  303.423
  303.425
  303.423
  303.418
  303.411
  303.401
  303.385
  303.364
  303.343
  303.34
  303.368
  303.384
  303.417
  304.632
  303.845
  303.711
  303.678
  303.689
  303.728
  303.752
  303.705
  303.6
  303.469
  303.344
  303.25
  303.196
  303.181
  303.195
  303.226
  303.264
  303.302
  303.337
  303.368
  303.392
  303.41
  303.424
  303.434
  303.441
  303.447
  303.451
  303.452
  303.452
  303.448
  303.44
  303.43
  303.417
  303.401
  303.381
  303.361
  303.351
  303.359
  303.368
  303.396
  304.845
  304.257
  304.11
  304.018
  303.966
  303.928
  303.83
  303.675
  303.497
  303.334
  303.213
  303.144
  303.127
  303.148
  303.193
  303.25
  303.306
  303.353
  303.391
  303.418
  303.437
  303.45
  303.46
  303.467
  303.472
  303.475
  303.476
  303.476
  303.474
  303.469
  303.462
  303.45
  303.438
  303.424
  303.408
  303.394
  303.388
  303.4
  303.419
  303.543
  305.15
  304.874
  304.615
  304.381
  304.168
  303.931
  303.627
  303.341
  303.129
  303.008
  302.971
  302.996
  303.064
  303.148
  303.233
  303.315
  303.376
  303.416
  303.443
  303.461
  303.474
  303.484
  303.49
  303.494
  303.497
  303.498
  303.498
  303.497
  303.495
  303.492
  303.491
  303.492
  303.494
  303.501
  303.515
  303.538
  303.57
  303.602
  303.623
  303.676
  296.459
  298.505
  299.758
  300.45
  301.064
  301.608
  302.069
  302.44
  302.727
  302.95
  303.139
  303.27
  303.353
  303.409
  303.446
  303.469
  303.485
  303.496
  303.504
  303.51
  303.513
  303.516
  303.518
  303.519
  303.52
  303.521
  303.522
  303.524
  303.526
  303.528
  303.533
  303.542
  303.555
  303.573
  303.596
  303.619
  303.636
  303.655
  297.118
  299.009
  300.362
  301.261
  301.837
  302.27
  302.612
  302.875
  303.071
  303.213
  303.316
  303.389
  303.438
  303.469
  303.49
  303.504
  303.513
  303.52
  303.524
  303.528
  303.531
  303.533
  303.535
  303.537
  303.539
  303.54
  303.542
  303.543
  303.545
  303.548
  303.552
  303.558
  303.567
  303.58
  303.595
  303.612
  303.609
  303.638
  299.709
  299.632
  299.627
  301.426
  302.228
  302.623
  302.861
  303.035
  303.169
  303.27
  303.346
  303.402
  303.442
  303.47
  303.489
  303.5
  303.508
  303.513
  303.517
  303.52
  303.523
  303.526
  303.529
  303.532
  303.534
  303.537
  303.54
  303.542
  303.545
  303.547
  303.55
  303.552
  303.556
  303.56
  303.565
  303.575
  303.584
  303.59
  303.591
  303.629
)
;

boundaryField
{
  floor
  {
    type wallHeatTransfer;
    Tinf uniform 305.2;
    alphaWall uniform 0.24;
    value nonuniform List<scalar> 29
(
  303.439
  303.69
  303.625
  303.596
  303.6
  303.611
  303.625
  303.641
  303.659
  303.676
  303.693
  303.71
  303.725
  303.74
  303.755
  303.769
  303.784
  303.8
  303.814
  303.851
  303.851
  303.766
  303.723
  303.698
  303.439
  303.69
  303.668
  303.483
  303.407
)
;
  }
  ceiling
  {
    type wallHeatTransfer;
    Tinf uniform 303.2;
    alphaWall uniform 0.24;
    value nonuniform List<scalar> 43
(
  299.957
  299.873
  299.861
  301.537
  302.29
  302.661
  302.884
  303.047
  303.171
  303.264
  303.334
  303.383
  303.417
  303.439
  303.452
  303.46
  303.464
  303.467
  303.469
  303.471
  303.473
  303.475
  303.477
  303.48
  303.483
  303.486
  303.489
  303.493
  303.496
  303.5
  303.504
  303.508
  303.513
  303.518
  303.525
  303.536
  303.545
  303.549
  303.548
  303.58
  305.06
  304.807
  297.508
)
;
  }
  sWall
  {
    type wallHeatTransfer;
    Tinf uniform 315.2;
    alphaWall uniform 0.36;
    value uniform 301.306;
  }
  nWall
  {
    type wallHeatTransfer;
    Tinf uniform 307.2;
    alphaWall uniform 0.36;
    value nonuniform List<scalar> 6
(
  304.161
  304.11
  304.037
  304.17
  304.147
  304.211
)
;
  }
  sideWalls
  {
    type empty;
  }
  glass1
  {
    type wallHeatTransfer;
    Tinf uniform 315.2;
    alphaWall uniform 4.3;
    value nonuniform List<scalar> 9
(
  311.564
  310.931
  310.531
  310.225
  309.969
  309.738
  309.566
  309.636
  309.86
)
;
  }
  glass2
  {
    type wallHeatTransfer;
    Tinf uniform 307.2;
    alphaWall uniform 4.3;
    value nonuniform List<scalar> 2
(
  305.823
  305.915
)
;
  }
  sun
  {
    type wallHeatTransfer;
    Tinf uniform 305.2;
    alphaWall uniform 0.24;
    value nonuniform List<scalar> 14
(
  303.775
  303.531
  303.517
  303.507
  303.498
  303.49
  303.481
  303.472
  303.461
  303.45
  303.439
  303.431
  303.428
  303.43
)
;
  }
  heatsource1
  {
    type fixedGradient;
    gradient uniform 0;
  }
  heatsource2
  {
    type fixedGradient;
    gradient uniform 0;
  }
  Table_master
  {
    type zeroGradient;
  }
  Table_slave
  {
    type zeroGradient;
  }
  inlet
  {
    type fixedValue;
    value uniform 293.15;
  }
  outlet
  {
    type zeroGradient;
  }
} 	// ************************************************************************* //

