/*--------------------------------*- C++ -*----------------------------------*\
  =========                 |
  \\      /  F ield         | OpenFOAM: The Open Source CFD Toolbox
   \\    /   O peration     | Website:  https://openfoam.org
    \\  /    A nd           | Version:  6
     \\/     M anipulation  |
\*---------------------------------------------------------------------------*/
FoamFile
{
    version     2.0;
    format      ascii;
    class       volScalarField;
    location    "500";
    object      epsilon;
}
// * * * * * * * * * * * * * * * * * * * * * * * * * * * * * * * * * * * * * //

dimensions      [0 2 -3 0 0 0 0];

internalField   nonuniform List<scalar> 
459
(
0.000123385
0.000138131
0.000130302
0.00014355
0.000155631
0.000166276
0.000175687
0.000184191
0.000192207
0.000200326
0.000206633
0.000210178
0.000210672
0.000208955
0.00020514
8.25177e-05
7.20403e-05
6.38924e-05
5.89314e-05
5.52983e-05
5.11119e-05
4.53395e-05
3.98721e-05
3.50268e-05
3.07575e-05
2.70331e-05
2.38026e-05
2.09992e-05
1.85456e-05
1.63543e-05
1.43291e-05
1.23523e-05
1.1263e-05
8.84749e-06
0.000458714
0.00104594
0.000128027
0.000109186
0.000107467
0.00010762
0.000109178
0.000113003
0.000120025
0.000131069
0.000143624
0.000155726
0.000165312
0.00017155
0.000180973
0.000219727
0.000173763
0.000137066
7.57689e-05
5.84559e-05
5.04386e-05
4.44442e-05
3.95467e-05
3.72001e-05
3.25011e-05
2.81039e-05
2.4091e-05
2.05433e-05
1.74915e-05
1.49053e-05
1.2738e-05
1.10333e-05
1.01243e-05
1.00327e-05
3.19438e-05
2.06765e-05
0.00107817
0.0034566
0.000219695
0.000112127
0.000106574
0.000109118
0.000114387
0.000122649
0.000134117
0.000148488
0.000163504
0.000175365
0.00018127
0.000182012
0.000184931
0.000205644
0.000286792
0.000205685
7.75191e-05
6.54026e-05
5.35251e-05
4.55366e-05
4.27698e-05
9.18189e-05
6.29083e-05
4.58267e-05
3.51116e-05
2.79923e-05
2.30212e-05
1.94266e-05
1.68073e-05
1.50309e-05
1.2123e-05
1.14193e-05
6.5828e-05
3.39184e-05
0.00214103
0.00822169
0.000493905
0.000127558
0.00011333
0.000120149
0.000130257
0.000143328
0.000159791
0.000179789
0.000200666
0.000214744
0.0002174
0.000209698
0.000198017
0.000194944
0.000224792
0.000302302
0.000146346
8.59281e-05
6.73728e-05
4.99555e-05
4.13707e-05
3.97352e-05
8.91934e-05
7.6341e-05
7.27279e-05
7.15669e-05
6.97889e-05
6.56117e-05
5.92968e-05
5.29011e-05
4.55438e-05
2.9227e-05
2.08312e-05
0.00012611
4.77018e-05
0.00377338
0.0155145
0.00121405
0.000165275
0.000119132
0.000127933
0.00014354
0.000164344
0.000191609
0.000226299
0.000262688
0.000284833
0.000286729
0.000271046
0.000243249
0.000210305
0.000180267
0.000148159
9.89203e-05
7.91853e-05
6.62192e-05
4.97318e-05
4.17106e-05
3.96918e-05
4.37643e-05
4.71929e-05
5.08043e-05
5.35359e-05
5.40661e-05
5.13608e-05
4.59044e-05
4.12594e-05
3.76877e-05
3.20719e-05
2.62455e-05
8.47925e-05
5.75664e-05
9.81284e-05
0.00016451
0.000227861
0.00611227
0.0231952
0.00308996
0.000331589
0.000147745
0.000140869
0.000155619
0.000181485
0.000221973
0.000287797
0.000351204
0.000381001
0.00037827
0.000352363
0.000310593
0.000257498
0.000196556
0.000135381
9.31837e-05
7.77327e-05
7.15552e-05
5.48009e-05
4.69483e-05
4.59381e-05
4.99757e-05
5.67294e-05
6.45191e-05
7.15561e-05
7.572e-05
7.45539e-05
6.59398e-05
5.39337e-05
4.39156e-05
3.60455e-05
3.17738e-05
5.60972e-05
5.8069e-05
7.21484e-05
0.000308077
0.000260292
0.00929977
0.0274037
0.00772627
0.00157015
0.000516736
0.000299557
0.000253583
0.000258544
0.000294228
0.000421331
0.00049952
0.000514959
0.000490815
0.000444768
0.000385406
0.000315899
0.00023871
0.000158868
0.00010123
8.1426e-05
8.3093e-05
6.57271e-05
5.73515e-05
5.69988e-05
6.22925e-05
7.16069e-05
8.3699e-05
9.66846e-05
0.000108231
0.000115293
0.000112892
9.32922e-05
7.46764e-05
6.0838e-05
5.59066e-05
6.90134e-05
9.22786e-05
0.00016348
0.000409445
0.000372397
0.0103288
0.0348069
0.0168034
0.00916226
0.00453997
0.00220811
0.00125216
0.000889732
0.000781964
0.000797342
0.000767614
0.000703803
0.000624534
0.000540925
0.000457228
0.000373143
0.000287063
0.000195082
0.000116879
8.80932e-05
0.0001001
8.39438e-05
7.42797e-05
7.38307e-05
8.00378e-05
9.12215e-05
0.000106453
0.000125242
0.000147282
0.00017192
0.000196924
0.000214302
0.00020841
0.000220583
0.000266022
0.000423676
0.000855804
0.00182908
0.00562829
0.00145015
0.00978477
0.0176573
0.0142928
0.0106294
0.00753822
0.00510469
0.00345073
0.00242847
0.00183529
0.00142184
0.00112953
0.000916193
0.000753424
0.000622511
0.000511482
0.000412863
0.000321859
0.000225936
0.00013625
9.73306e-05
0.000123205
0.000113192
0.000101051
9.82211e-05
0.000102759
0.000112868
0.00012811
0.000149124
0.000177591
0.000216273
0.00026902
0.000340826
0.000437875
0.000580956
0.000802209
0.00110445
0.00144325
0.00172079
0.00191353
0.0011322
0.00592964
0.00790389
0.00625995
0.0046935
0.00346924
0.00258502
0.00197052
0.00153383
0.00121422
0.000975002
0.000790066
0.000641774
0.000519039
0.000415449
0.000326303
0.000233674
0.000143305
0.000106776
0.000155082
0.000163007
0.000147667
0.000139883
0.000139704
0.000144657
0.000154247
0.000169008
0.000190329
0.00022087
0.000265182
0.000330338
0.000423622
0.000552969
0.00072296
0.000912539
0.0010614
0.00109131
0.000944413
0.000604242
0.00426132
0.00708603
0.00563675
0.00422425
0.00321275
0.00245217
0.00187972
0.00145132
0.00112857
0.000881477
0.000689826
0.000539109
0.00041934
0.000324004
0.00024864
0.000189219
0.000138791
0.000115809
0.000174263
0.000187097
0.000181146
0.000171988
0.00016637
0.000165314
0.000169945
0.000181627
0.00020193
0.000232971
0.000277897
0.00034169
0.00043016
0.000548602
0.000697036
0.000866416
0.000996152
0.00111122
0.000818865
0.000626559
0.00285077
0.00332686
0.00377096
0.00453124
0.00384915
0.00300624
0.00240844
0.00194116
0.00156113
0.00125183
0.00101167
0.000826746
0.000675542
0.000547938
0.000439068
0.000346749
0.000270032
0.000207703
0.000153459
0.00011171
0.000125593
0.000130964
0.000132611
0.00013627
0.000143028
0.000153039
0.000166655
0.000184419
0.000207243
0.000236838
0.000276649
0.000327113
0.000390971
0.000470839
0.000569685
0.000721156
0.000772615
0.000721657
0.000588198
0.000463672
)
;

boundaryField
{
    floor
    {
        Cmu             0.09;
        kappa           0.41;
        E               9.8;
        type            epsilonWallFunction;
        value           nonuniform List<scalar> 
29
(
0.00020514
8.25177e-05
7.20403e-05
6.38924e-05
5.89314e-05
5.52983e-05
5.11119e-05
4.53395e-05
3.98721e-05
3.50268e-05
3.07575e-05
2.70331e-05
2.38026e-05
2.09992e-05
1.85456e-05
1.63543e-05
1.43291e-05
1.23523e-05
1.1263e-05
8.84749e-06
8.84749e-06
2.06765e-05
3.39184e-05
4.77018e-05
0.00020514
8.25177e-05
0.000137066
0.000205685
0.000302302
)
;
    }
    ceiling
    {
        Cmu             0.09;
        kappa           0.41;
        E               9.8;
        type            epsilonWallFunction;
        value           nonuniform List<scalar> 
43
(
0.00285077
0.00332686
0.00377096
0.00453124
0.00384915
0.00300624
0.00240844
0.00194116
0.00156113
0.00125183
0.00101167
0.000826746
0.000675542
0.000547938
0.000439068
0.000346749
0.000270032
0.000207703
0.000153459
0.00011171
0.000125593
0.000130964
0.000132611
0.00013627
0.000143028
0.000153039
0.000166655
0.000184419
0.000207243
0.000236838
0.000276649
0.000327113
0.000390971
0.000470839
0.000569685
0.000721156
0.000772615
0.000721657
0.000588198
0.000463672
0.00978477
0.0176573
0.00426132
)
;
    }
    sWall
    {
        Cmu             0.09;
        kappa           0.41;
        E               9.8;
        type            epsilonWallFunction;
        value           uniform 0.00285077;
    }
    nWall
    {
        Cmu             0.09;
        kappa           0.41;
        E               9.8;
        type            epsilonWallFunction;
        value           nonuniform List<scalar> 6(0.000227861 0.000260292 0.000372397 0.000604242 0.000626559 0.000463672);
    }
    sideWalls
    {
        type            empty;
    }
    glass1
    {
        Cmu             0.09;
        kappa           0.41;
        E               9.8;
        type            epsilonWallFunction;
        value           nonuniform List<scalar> 9(0.000123385 0.000458714 0.00107817 0.00214103 0.00377338 0.00611227 0.00929977 0.0103288 0.00978477);
    }
    glass2
    {
        Cmu             0.09;
        kappa           0.41;
        E               9.8;
        type            epsilonWallFunction;
        value           nonuniform List<scalar> 2(0.00145015 0.0011322);
    }
    sun
    {
        Cmu             0.09;
        kappa           0.41;
        E               9.8;
        type            epsilonWallFunction;
        value           nonuniform List<scalar> 
14
(
0.000123385
0.000138131
0.000130302
0.00014355
0.000155631
0.000166276
0.000175687
0.000184191
0.000192207
0.000200326
0.000206633
0.000210178
0.000210672
0.000208955
)
;
    }
    heatsource1
    {
        Cmu             0.09;
        kappa           0.41;
        E               9.8;
        type            epsilonWallFunction;
        value           nonuniform List<scalar> 3(9.81284e-05 0.00016451 0.000227861);
    }
    heatsource2
    {
        Cmu             0.09;
        kappa           0.41;
        E               9.8;
        type            epsilonWallFunction;
        value           nonuniform List<scalar> 4(0.000219727 0.000173763 0.000173763 0.000286792);
    }
    Table_master
    {
        Cmu             0.09;
        kappa           0.41;
        E               9.8;
        type            epsilonWallFunction;
        value           nonuniform List<scalar> 9(9.18189e-05 6.29083e-05 4.58267e-05 3.51116e-05 2.79923e-05 2.30212e-05 1.94266e-05 1.68073e-05 1.50309e-05);
    }
    Table_slave
    {
        Cmu             0.09;
        kappa           0.41;
        E               9.8;
        type            epsilonWallFunction;
        value           nonuniform List<scalar> 9(8.91934e-05 7.6341e-05 7.27279e-05 7.15669e-05 6.97889e-05 6.56117e-05 5.92968e-05 5.29011e-05 4.55438e-05);
    }
    inlet
    {
        type            turbulentMixingLengthDissipationRateInlet;
        mixingLength    0.01;
        phi             phi;
        k               k;
        value           uniform 0.000101881;
    }
    outlet
    {
        type            zeroGradient;
    }
}


// ************************************************************************* //
