// -*- C++ -*-
// File generated by PyFoam - sorry for the ugliness

FoamFile
{
 version 2.0;
 format ascii;
 class volScalarField;
 location "350";
 object T;
}

dimensions [ 0 0 0 1 0 0 0 ];

internalField nonuniform List<scalar> 459
(
  303.743
  303.601
  303.598
  303.6
  303.601
  303.601
  303.601
  303.598
  303.593
  303.587
  303.582
  303.58
  303.58
  303.571
  303.537
  303.548
  303.637
  303.666
  303.684
  303.695
  303.701
  303.704
  303.705
  303.705
  303.706
  303.706
  303.707
  303.707
  303.708
  303.709
  303.71
  303.711
  303.708
  303.67
  303.847
  303.642
  303.637
  303.643
  303.647
  303.649
  303.646
  303.637
  303.621
  303.604
  303.593
  303.59
  303.594
  303.595
  303.585
  303.593
  303.601
  303.642
  303.664
  303.684
  303.699
  303.714
  303.727
  303.735
  303.743
  303.751
  303.758
  303.766
  303.774
  303.782
  303.788
  303.791
  303.788
  303.778
  303.759
  303.777
  303.952
  303.676
  303.666
  303.677
  303.688
  303.694
  303.693
  303.677
  303.645
  303.612
  303.591
  303.587
  303.594
  303.602
  303.605
  303.607
  303.608
  303.649
  303.665
  303.68
  303.698
  303.718
  303.736
  303.743
  303.751
  303.76
  303.77
  303.781
  303.792
  303.804
  303.815
  303.822
  303.824
  303.815
  303.798
  303.806
  304.058
  303.713
  303.691
  303.71
  303.733
  303.75
  303.754
  303.726
  303.671
  303.617
  303.585
  303.58
  303.591
  303.605
  303.615
  303.618
  303.618
  303.621
  303.636
  303.655
  303.681
  303.708
  303.736
  303.76
  303.781
  303.799
  303.817
  303.833
  303.85
  303.867
  303.883
  303.899
  303.914
  303.894
  303.867
  303.84
  303.833
  304.164
  303.756
  303.716
  303.737
  303.772
  303.807
  303.816
  303.772
  303.69
  303.616
  303.576
  303.571
  303.588
  303.61
  303.628
  303.636
  303.642
  303.652
  303.668
  303.691
  303.72
  303.75
  303.781
  303.809
  303.835
  303.858
  303.88
  303.899
  303.916
  303.931
  303.944
  303.955
  303.96
  303.947
  303.92
  303.889
  303.862
  303.871
  303.959
  304.186
  304.263
  303.811
  303.75
  303.76
  303.799
  303.855
  303.856
  303.79
  303.691
  303.605
  303.561
  303.56
  303.588
  303.623
  303.652
  303.671
  303.684
  303.701
  303.724
  303.751
  303.782
  303.815
  303.846
  303.875
  303.901
  303.924
  303.944
  303.962
  303.977
  303.989
  303.999
  304.006
  304.006
  303.995
  303.973
  303.954
  303.909
  303.902
  304.008
  304.194
  304.354
  303.899
  303.828
  303.825
  303.856
  303.904
  303.876
  303.778
  303.657
  303.566
  303.53
  303.548
  303.597
  303.652
  303.697
  303.728
  303.751
  303.774
  303.802
  303.832
  303.864
  303.896
  303.926
  303.954
  303.977
  303.996
  304.012
  304.025
  304.037
  304.047
  304.054
  304.057
  304.055
  304.044
  304.027
  304.008
  303.948
  303.935
  304.037
  304.217
  304.483
  304.132
  304.044
  304.006
  304.019
  303.986
  303.868
  303.705
  303.562
  303.486
  303.487
  303.547
  303.63
  303.71
  303.771
  303.813
  303.842
  303.868
  303.898
  303.931
  303.962
  303.992
  304.019
  304.039
  304.055
  304.069
  304.08
  304.09
  304.098
  304.105
  304.109
  304.109
  304.106
  304.097
  304.081
  304.057
  303.995
  303.974
  304.054
  304.26
  304.664
  304.495
  304.377
  304.283
  304.194
  303.959
  303.682
  303.462
  303.357
  303.368
  303.461
  303.592
  303.716
  303.814
  303.884
  303.923
  303.949
  303.975
  304.005
  304.035
  304.062
  304.086
  304.104
  304.119
  304.13
  304.138
  304.146
  304.152
  304.157
  304.16
  304.161
  304.159
  304.155
  304.146
  304.132
  304.108
  304.058
  304.032
  304.089
  304.27
  301.463
  301.943
  302.079
  302.255
  302.48
  302.748
  303.043
  303.322
  303.56
  303.757
  303.883
  303.957
  304.002
  304.031
  304.055
  304.079
  304.104
  304.127
  304.147
  304.162
  304.174
  304.183
  304.189
  304.194
  304.197
  304.199
  304.2
  304.2
  304.198
  304.194
  304.188
  304.18
  304.168
  304.15
  304.124
  304.108
  304.147
  304.244
  301.536
  301.884
  302.129
  302.434
  302.78
  303.117
  303.438
  303.666
  303.83
  303.946
  304.019
  304.063
  304.093
  304.116
  304.137
  304.156
  304.174
  304.189
  304.201
  304.211
  304.217
  304.222
  304.225
  304.226
  304.226
  304.226
  304.224
  304.221
  304.218
  304.213
  304.206
  304.199
  304.19
  304.18
  304.171
  304.17
  304.198
  304.243
  302.357
  302.286
  302.28
  302.65
  303.055
  303.36
  303.566
  303.737
  303.873
  303.969
  304.036
  304.084
  304.118
  304.142
  304.161
  304.177
  304.191
  304.203
  304.214
  304.222
  304.228
  304.232
  304.235
  304.236
  304.236
  304.235
  304.233
  304.23
  304.227
  304.222
  304.217
  304.212
  304.206
  304.201
  304.198
  304.197
  304.198
  304.205
  304.224
  304.251
)
;

boundaryField
{
  floor
  {
    type wallHeatTransfer;
    Tinf uniform 298.85;
    alphaWall uniform 0.24;
    value nonuniform List<scalar> 29
(
  302.964
  302.769
  302.946
  302.959
  303.009
  303.003
  302.982
  302.938
  302.886
  302.834
  302.786
  302.739
  302.696
  302.654
  302.615
  302.577
  302.537
  302.504
  302.515
  302.681
  302.681
  302.912
  303.014
  303.098
  302.964
  302.769
  303.064
  303.123
  303.177
)
;
  }
  ceiling
  {
    type wallHeatTransfer;
    Tinf uniform 298.85;
    alphaWall uniform 0.24;
    value nonuniform List<scalar> 43
(
  302.043
  301.996
  302.005
  302.377
  302.767
  303.06
  303.263
  303.43
  303.559
  303.646
  303.702
  303.738
  303.762
  303.779
  303.794
  303.807
  303.82
  303.831
  303.84
  303.848
  303.853
  303.857
  303.859
  303.859
  303.859
  303.858
  303.857
  303.855
  303.853
  303.85
  303.847
  303.843
  303.839
  303.834
  303.829
  303.827
  303.834
  303.854
  303.884
  303.882
  304.349
  304.232
  301.304
)
;
  }
  sWall
  {
    type wallHeatTransfer;
    Tinf uniform 311.144;
    alphaWall uniform 0.36;
    value uniform 303.49;
  }
  nWall
  {
    type wallHeatTransfer;
    Tinf uniform 299.15;
    alphaWall uniform 0.36;
    value nonuniform List<scalar> 6
(
  303.485
  303.629
  303.764
  303.868
  303.808
  303.746
)
;
  }
  sideWalls
  {
    type empty;
  }
  glass1
  {
    type wallHeatTransfer;
    Tinf uniform 311.144;
    alphaWall uniform 4.3;
    value nonuniform List<scalar> 9
(
  308.911
  308.588
  308.375
  308.209
  308.066
  307.929
  307.819
  307.847
  307.965
)
;
  }
  glass2
  {
    type wallHeatTransfer;
    Tinf uniform 299.15;
    alphaWall uniform 4.3;
    value nonuniform List<scalar> 2
(
  301.846
  301.969
)
;
  }
  sun
  {
    type wallHeatTransfer;
    Tinf uniform 298.85;
    alphaWall uniform 0.24;
    value nonuniform List<scalar> 14
(
  303.191
  303.103
  303.114
  303.134
  303.151
  303.166
  303.18
  303.189
  303.192
  303.188
  303.179
  303.165
  303.134
  303.067
)
;
  }
  heatsource1
  {
    type fixedGradient;
    gradient uniform 0;
  }
  heatsource2
  {
    type fixedGradient;
    gradient uniform 0;
  }
  Table_master
  {
    type zeroGradient;
  }
  Table_slave
  {
    type zeroGradient;
  }
  inlet
  {
    type fixedValue;
    value uniform 300.15;
  }
  outlet
  {
    type zeroGradient;
  }
} 	// ************************************************************************* //

