/*--------------------------------*- C++ -*----------------------------------*\
  =========                 |
  \\      /  F ield         | OpenFOAM: The Open Source CFD Toolbox
   \\    /   O peration     | Website:  https://openfoam.org
    \\  /    A nd           | Version:  6
     \\/     M anipulation  |
\*---------------------------------------------------------------------------*/
FoamFile
{
    version     2.0;
    format      ascii;
    class       volScalarField;
    location    "900";
    object      alphat;
}
// * * * * * * * * * * * * * * * * * * * * * * * * * * * * * * * * * * * * * //

dimensions      [1 -1 -1 0 0 0 0];

internalField   nonuniform List<scalar> 
459
(
0.00124731
0.00136336
0.00138805
0.00145452
0.00151598
0.00157338
0.00162946
0.00168503
0.00172475
0.00174238
0.00173198
0.00168974
0.00161555
0.00151616
0.00140789
0.000547582
0.000671081
0.000752923
0.000745666
0.000718618
0.000684058
0.000641767
0.00060016
0.000562435
0.000528925
0.000499232
0.000472827
0.000449345
0.000428231
0.000408737
0.000389882
0.000370218
0.00035632
0.000324736
0.00170127
0.00415466
0.0039738
0.00462571
0.00526398
0.00590338
0.00647123
0.00689383
0.00727693
0.00758962
0.0077873
0.0078176
0.00760148
0.00694394
0.00515796
0.00143171
0.000857935
0.000595238
0.0012385
0.00170168
0.00202919
0.00219899
0.00218866
0.00177094
0.00153168
0.00135922
0.00122608
0.00111975
0.00103299
0.00095772
0.000887676
0.00082003
0.00076019
0.000707719
0.000827912
0.000425776
0.00207856
0.00567516
0.00492913
0.0062025
0.00683492
0.00730197
0.00766244
0.00794303
0.00824751
0.00856684
0.00886365
0.00908118
0.00915751
0.00900746
0.00840363
0.00649942
0.0014124
0.00119436
0.00170088
0.00216253
0.00256766
0.00283703
0.00275342
0.000918816
0.000812048
0.000726314
0.00065713
0.000600748
0.000554306
0.000515749
0.000483755
0.000457759
0.000492943
0.000568655
0.000927538
0.000492755
0.00244032
0.00725971
0.00493915
0.00657429
0.00714422
0.00733524
0.00744937
0.00758254
0.00781802
0.00814053
0.00851356
0.00886471
0.00913026
0.00924529
0.00912031
0.00847837
0.0063117
0.00169907
0.0021072
0.00271013
0.00327808
0.003716
0.00397443
0.00371364
0.00103569
0.000943534
0.000877629
0.000827467
0.000784893
0.000745773
0.000708295
0.000669044
0.000623546
0.000584766
0.0005961
0.0010569
0.000544443
0.0028088
0.00929344
0.00543048
0.00631895
0.00708393
0.00714057
0.00706837
0.00712325
0.00733057
0.00765645
0.00807633
0.00849021
0.00881178
0.00896769
0.00893033
0.00865185
0.00794606
0.00655355
0.00607015
0.00589915
0.00582801
0.00577731
0.00570086
0.00547313
0.00462352
0.00421621
0.00397896
0.00379518
0.00360153
0.00332415
0.00294859
0.00249239
0.00198519
0.00147225
0.00108493
0.00108352
0.000726459
0.000672838
0.000814244
0.000913152
0.00319904
0.0115045
0.00748195
0.0062643
0.0068362
0.0070952
0.00693491
0.00699053
0.00714987
0.00744373
0.00786258
0.00831495
0.00867029
0.00882344
0.00874427
0.00848168
0.0081248
0.00774799
0.00752938
0.00736674
0.0071879
0.0069885
0.00676879
0.00649979
0.00611217
0.00576736
0.0054622
0.00517039
0.0048746
0.00455547
0.00415288
0.00365065
0.00304848
0.00237965
0.00178495
0.00133095
0.00100627
0.000858318
0.00122595
0.000951933
0.00355419
0.0130506
0.0104947
0.00806848
0.00761639
0.00754861
0.00731306
0.00715276
0.00719445
0.00747446
0.00793532
0.00843864
0.00881459
0.00893764
0.00878618
0.00846341
0.00816525
0.00803797
0.00802654
0.00794184
0.00772211
0.00740347
0.00702356
0.00660715
0.00617791
0.00578573
0.00542941
0.00509895
0.00479427
0.00452247
0.00428313
0.00395038
0.0034799
0.0029041
0.00234851
0.00184728
0.00148158
0.00136751
0.00139743
0.00107927
0.00362089
0.0116156
0.0103145
0.0095143
0.0088427
0.00805129
0.00740615
0.00712903
0.00725498
0.00770486
0.00832071
0.0088982
0.00924002
0.00924177
0.0089372
0.00850821
0.0082197
0.00818265
0.00818257
0.00792547
0.00747245
0.00691544
0.00633328
0.0057909
0.00532577
0.00494065
0.00461665
0.00434438
0.00412699
0.00397339
0.00389181
0.00385296
0.00361216
0.0032388
0.00290668
0.00273194
0.00283028
0.00326773
0.00404118
0.00168992
0.00352118
0.00418025
0.00464849
0.00477761
0.00486945
0.00511741
0.00563042
0.006426
0.00741669
0.00843111
0.00928086
0.00979016
0.00983401
0.00944602
0.00882809
0.00835129
0.00809559
0.00788826
0.007544
0.00698854
0.00630556
0.00561051
0.00499402
0.00449555
0.00410776
0.00380161
0.00355115
0.00334128
0.00316249
0.00300555
0.00286043
0.00272558
0.00261824
0.00253862
0.00250894
0.00252189
0.0025115
0.00241603
0.00226198
0.00158966
0.00178061
0.00362999
0.00576552
0.00756269
0.00897963
0.0100782
0.0107872
0.0110826
0.0109982
0.0105334
0.00975437
0.00878488
0.00793024
0.00739003
0.00697839
0.00647927
0.00585698
0.00518447
0.00454892
0.00401135
0.00359318
0.00327465
0.00302881
0.00283565
0.00268333
0.00256595
0.0024806
0.00242585
0.00240354
0.0024117
0.00243429
0.0024673
0.00250249
0.00251293
0.00245453
0.00231247
0.00209702
0.00132241
0.00236293
0.00600419
0.00893588
0.0100104
0.0105648
0.010753
0.0105315
0.00995883
0.00914828
0.00821828
0.00732217
0.00653562
0.00590711
0.00538295
0.00485455
0.00432585
0.00385357
0.00347011
0.00317468
0.00294645
0.00276021
0.00260308
0.00247132
0.00237071
0.0022998
0.00225708
0.00224043
0.00224585
0.00228058
0.002341
0.00242306
0.00251837
0.00260865
0.00267169
0.00265402
0.00268835
0.00272659
0.00134773
0.00209146
0.00221678
0.00230543
0.0024661
0.00237718
0.00227127
0.0022037
0.00211319
0.00198529
0.00182636
0.0016468
0.00145921
0.0012765
0.00111769
0.000996504
0.000910451
0.000849986
0.000806975
0.00077637
0.000755262
0.000741816
0.000734821
0.000733656
0.000738495
0.00074953
0.000765779
0.000787452
0.000814913
0.000848793
0.000890262
0.000938096
0.000992368
0.0010537
0.00112268
0.00119885
0.00128951
0.00131926
0.001286
0.00120833
0.00112603
)
;

boundaryField
{
    floor
    {
        type            compressible::alphatWallFunction;
        Prt             0.85;
        value           nonuniform List<scalar> 
29
(
0.00019857
7.64954e-05
9.4953e-05
0.000106953
0.000105896
0.000101943
9.68672e-05
9.06126e-05
8.44099e-05
7.874e-05
7.36641e-05
6.91328e-05
6.50747e-05
6.14418e-05
5.81546e-05
5.51012e-05
5.21302e-05
4.90117e-05
4.67949e-05
4.17142e-05
4.17136e-05
5.77712e-05
6.81401e-05
7.60199e-05
0.000198568
7.64944e-05
8.36723e-05
0.000169389
0.000237579
)
;
    }
    ceiling
    {
        type            compressible::alphatWallFunction;
        Prt             0.85;
        value           nonuniform List<scalar> 
43
(
0.00028891
0.000305101
0.000316498
0.000337157
0.000325859
0.000312307
0.000303624
0.000291939
0.000275328
0.000254517
0.000230763
0.000205635
0.000180809
0.000158901
0.000141941
0.000129753
0.000121108
0.000114915
0.000110484
0.000107416
0.000105456
0.000104434
0.000104264
0.000104971
0.000106581
0.000108946
0.000112092
0.000116062
0.000120939
0.000126877
0.000133685
0.000141361
0.000149978
0.000159598
0.000170144
0.000182596
0.000186661
0.000182118
0.000171453
0.000160068
0.000469179
0.000549339
0.000323699
)
;
    }
    sWall
    {
        type            compressible::alphatWallFunction;
        Prt             0.85;
        value           uniform 0.0002877;
    }
    nWall
    {
        type            compressible::alphatWallFunction;
        Prt             0.85;
        value           nonuniform List<scalar> 6(0.00012982 0.000135321 0.000153217 0.000186765 0.000190213 0.000159746);
    }
    sideWalls
    {
        type            empty;
    }
    glass1
    {
        type            compressible::alphatWallFunction;
        Prt             0.85;
        value           nonuniform List<scalar> 9(0.000172409 0.000232793 0.000281746 0.000327873 0.00037418 0.000422578 0.000466138 0.000474399 0.000462466);
    }
    glass2
    {
        type            compressible::alphatWallFunction;
        Prt             0.85;
        value           nonuniform List<scalar> 2(0.000234811 0.000221578);
    }
    sun
    {
        type            compressible::alphatWallFunction;
        Prt             0.85;
        value           nonuniform List<scalar> 
14
(
0.000176698
0.000192534
0.000195885
0.000204878
0.000213152
0.000220845
0.000228331
0.000235721
0.000240987
0.000243319
0.000241942
0.000236344
0.000226473
0.000213172
)
;
    }
    heatsource1
    {
        type            compressible::alphatWallFunction;
        Prt             0.85;
        value           nonuniform List<scalar> 3(9.53163e-05 0.000115949 0.000130124);
    }
    heatsource2
    {
        type            compressible::alphatWallFunction;
        Prt             0.85;
        value           nonuniform List<scalar> 4(0.000201913 0.000122234 0.000122233 0.0001993);
    }
    Table_master
    {
        type            compressible::alphatWallFunction;
        Prt             0.85;
        value           nonuniform List<scalar> 9(0.000130927 0.00011563 0.000103173 9.29913e-05 8.45971e-05 7.76095e-05 7.1753e-05 6.68517e-05 6.28389e-05);
    }
    Table_slave
    {
        type            compressible::alphatWallFunction;
        Prt             0.85;
        value           nonuniform List<scalar> 9(0.000147436 0.00013444 0.000125055 0.000117856 0.000111705 0.000106018 0.000100535 9.47559e-05 8.80046e-05);
    }
    inlet
    {
        type            fixedValue;
        value           uniform 1.94e-05;
    }
    outlet
    {
        type            zeroGradient;
    }
}


// ************************************************************************* //
