/*--------------------------------*- C++ -*----------------------------------*\
  =========                 |
  \\      /  F ield         | OpenFOAM: The Open Source CFD Toolbox
   \\    /   O peration     | Website:  https://openfoam.org
    \\  /    A nd           | Version:  6
     \\/     M anipulation  |
\*---------------------------------------------------------------------------*/
FoamFile
{
    version     2.0;
    format      ascii;
    class       surfaceScalarField;
    location    "800";
    object      phi;
}
// * * * * * * * * * * * * * * * * * * * * * * * * * * * * * * * * * * * * * //

dimensions      [1 0 -1 0 0 0 0];

internalField   nonuniform List<scalar> 
852
(
-0.00228597
0.00233852
-0.00262086
0.000334997
-0.00292314
0.000302388
-0.00321738
0.000294336
-0.00343349
0.000216207
-0.00354813
0.000114728
-0.0035573
9.25367e-06
-0.00346232
-9.4907e-05
-0.00326397
-0.000198291
-0.00296139
-0.000302522
-0.00255072
-0.000410621
-0.00202702
-0.000523662
-0.00138819
-0.000638792
-0.000654039
-0.000734127
-0.00065354
-0.000852471
0.000854239
-0.00130605
0.00045355
-0.00157036
0.000264356
-0.00172892
0.000158654
-0.00182611
9.73217e-05
-0.00188415
5.81982e-05
-0.00192371
3.97389e-05
-0.00195831
3.47935e-05
-0.00199032
3.21952e-05
-0.00200812
1.79841e-05
-0.00199308
-1.48614e-05
-0.00192952
-6.33814e-05
-0.00181204
-0.000117292
-0.00161371
-0.000198107
-0.00123461
-0.000378805
-0.000657029
-0.0005772
-7.10124e-05
-0.000585589
0.000295738
-0.000366443
0.000297212
-0.00174562
0.00422027
-0.00246036
0.00104986
-0.00292158
0.000763736
-0.00325747
0.000630352
-0.00348886
0.000447712
-0.00361264
0.000238628
-0.00363343
3.016e-05
-0.0035635
-0.000164723
-0.0034147
-0.000346991
-0.00319084
-0.00052627
-0.00288828
-0.00071309
-0.00249991
-0.000911936
-0.00202285
-0.00111576
-0.00146542
-0.0012915
-0.000757389
-0.00136153
0.00035186
-0.00110929
0.000351796
-0.000676252
0.00153543
-0.00110199
0.000879225
-0.00137039
0.000532749
-0.00154123
0.000329544
-0.00164499
0.000201168
-0.0016904
0.000103747
-0.00170206
5.15622e-05
-0.00170364
3.65618e-05
-0.0017109
3.96477e-05
-0.00171981
2.70857e-05
-0.00171848
-1.60064e-05
-0.00169944
-8.22128e-05
-0.00167041
-0.000146067
-0.00163921
-0.000228949
-0.00152421
-0.000493276
-0.00109802
-0.0010027
-0.000593611
-0.00108925
-0.00012674
-0.000832674
0.000173181
-0.00143279
0.0058574
-0.0023053
0.0019225
-0.00274083
0.00119941
-0.00307597
0.00096564
-0.00331566
0.000687542
-0.00344466
0.000367768
-0.00347197
5.76126e-05
-0.00342495
-0.000211604
-0.00333233
-0.000439461
-0.00320663
-0.000651832
-0.00304823
-0.000871337
-0.00285369
-0.00110633
-0.00261919
-0.00135012
-0.0023391
-0.00157146
-0.00200178
-0.00169875
-0.00151055
-0.00160049
-0.00115878
-0.000901927
0.00244442
-0.00115437
0.00113159
-0.00127163
0.000649966
-0.0013298
0.000387715
-0.00133862
0.000210008
-0.00130797
7.31474e-05
-0.00125619
-0.00121935
-0.00117939
-0.00115195
-0.00116757
-0.00124934
-0.00139488
-0.00162312
-0.00211542
-0.00161945
-0.00149764
-0.00123762
-0.00147002
-0.000647575
-0.00142174
-0.000471905
-0.00130649
0.00742566
-0.00205257
0.00266874
-0.00215204
0.00129906
-0.00246203
0.0012758
-0.00277343
0.000999092
-0.00295748
0.00055198
-0.00300952
0.000109816
-0.00298393
-0.000237024
-0.00294606
-0.000477162
-0.00292164
-0.000676077
-0.00291539
-0.00087741
-0.00293427
-0.00108725
-0.00298822
-0.00129598
-0.00308943
-0.00147005
-0.00324161
-0.0015464
-0.00341188
-0.00143009
-0.00363684
-0.000933773
-0.00357567
-5.5987e-05
-0.00225079
0.00111947
-0.0021242
0.00100501
-0.00223544
0.000761271
-0.00241732
0.000569721
-0.0026113
0.000404131
-0.00278221
0.000244207
-0.00290786
0.000125639
-0.00295246
4.46317e-05
-0.0029375
-1.48808e-05
-0.00288156
-5.57538e-05
-0.0027932
-8.8065e-05
-0.00267357
-0.000119169
-0.00251353
-0.000159402
-0.00226266
-0.000250041
-0.00174107
-0.000520606
-0.00209971
-0.00113778
-0.00211816
-0.00145031
-0.00180997
-0.00172867
-0.00228026
0.000302511
0.00744184
3.15596e-05
0.00294001
2.47369e-05
0.00130617
-0.000524969
0.00182574
-0.00121823
0.00169256
-0.00173111
0.00106505
-0.00199882
0.000377717
-0.002091
-0.000144654
-0.00214703
-0.000420943
-0.00221886
-0.00060406
-0.0023142
-0.000781883
-0.00245416
-0.000947093
-0.00265109
-0.00109883
-0.00290473
-0.00121619
-0.00319581
-0.00125511
-0.00348067
-0.00114502
-0.00363013
-0.000784133
-0.00352729
-0.0001587
-0.00292072
0.000512982
-0.00257585
0.000660224
-0.0024509
0.000636444
-0.00244092
0.000559894
-0.00248542
0.000448805
-0.00256258
0.000321556
-0.0026397
0.000202982
-0.00269746
0.000102674
-0.00273052
1.85434e-05
-0.00273735
-4.84357e-05
-0.00272318
-0.000101607
-0.00268984
-0.00015171
-0.00263066
-0.000217618
-0.00253385
-0.000345737
-0.00244887
-0.000604376
-0.00261442
-0.000970952
-0.00277658
-0.00128685
-0.00294
-0.00156388
-0.00369143
-0.00152725
-0.00271894
-0.000970717
-0.00155172
-0.00116498
-0.00153168
0.00884461
-0.0010632
0.00950335
0.00228174
0.007475
0.00333495
0.00537824
0.00392286
0.00343843
0.00363267
0.00179843
0.00270531
0.000493935
0.00168247
-0.00041532
0.000764856
-0.000912079
7.60329e-05
-0.00115109
-0.00036485
-0.00133119
-0.000601595
-0.00152748
-0.000750609
-0.0017643
-0.000861828
-0.00204401
-0.000936285
-0.0023496
-0.000949308
-0.00263879
-0.000855617
-0.00281761
-0.000605111
-0.00276899
-0.000207126
-0.00245167
0.000195826
-0.00218427
0.000392966
-0.00200859
0.000460915
-0.00190891
0.000460369
-0.00187114
0.000411207
-0.0018832
0.000333805
-0.00192697
0.000246975
-0.00198553
0.000161517
-0.00204627
7.96649e-05
-0.00209494
7.24362e-07
-0.00212373
-7.21697e-05
-0.00213312
-0.000141521
-0.00212278
-0.000227009
-0.0021049
-0.000362546
-0.0021261
-0.000582025
-0.00222567
-0.000870171
-0.00233917
-0.00117212
-0.00246916
-0.00143263
-0.00250565
-0.00148945
-0.00197586
-0.00149911
-0.00112542
-0.00201394
-0.00264184
0.00518514
-0.00604708
0.00782164
-0.000354473
0.00751078
0.00364612
0.0061976
0.00523634
0.00479902
0.00503153
0.00354229
0.00396231
0.00246834
0.00275669
0.00156181
0.00167167
0.000813129
0.000824999
0.000261719
0.000186806
-9.48459e-05
-0.000244824
-0.000358157
-0.000487118
-0.000611703
-0.000608111
-0.000883313
-0.000664504
-0.00116509
-0.000667357
-0.00142212
-0.000598408
-0.00159346
-0.000433596
-0.00161084
-0.000189569
-0.00147002
5.51689e-05
-0.00129377
0.00021686
-0.00113815
0.000305426
-0.00101855
0.00034089
-0.000941506
0.000334291
-0.000907062
0.000299493
-0.000908813
0.000248884
-0.00093749
0.0001904
-0.000984368
0.000126825
-0.0010407
5.74463e-05
-0.00109126
-2.10739e-05
-0.00112502
-0.000107078
-0.00114427
-0.000206923
-0.00116228
-0.000343586
-0.00120609
-0.000537163
-0.0012891
-0.000786069
-0.00139445
-0.00106565
-0.00149416
-0.0013318
-0.00147896
-0.00150355
-0.00133123
-0.00164575
-0.0011201
-0.00222399
-0.00374816
-0.000519715
-0.00531977
0.00206455
-0.0029386
0.00385071
0.00186018
0.0036248
0.00546248
0.00339404
0.00526254
0.0031046
0.00425201
0.00277633
0.00308524
0.0024157
0.0020326
0.00204455
0.00119645
0.00165435
0.00057729
0.00127818
0.000131582
0.000958255
-0.000166986
0.000682215
-0.0003319
0.000422029
-0.000404164
0.000170436
-0.000415618
-5.40004e-05
-0.000373831
-0.000211833
-0.000275632
-0.000266847
-0.000134433
-0.000222064
1.05048e-05
-0.000126301
0.000121202
-1.61277e-05
0.00019534
8.73301e-05
0.000237503
0.000170434
0.000251245
0.00022711
0.000242873
0.00025696
0.000219102
0.000262761
0.000184694
0.000248177
0.000141556
0.00021687
8.89789e-05
0.000173289
2.28306e-05
0.00012792
-6.12292e-05
8.70029e-05
-0.000165376
4.32809e-05
-0.000299097
-1.89154e-05
-0.000474091
-0.000109417
-0.000694608
-0.000221906
-0.000952161
-0.000328311
-0.00122437
-0.000365149
-0.00146569
-0.000333747
-0.00167615
-0.000364331
-0.00219244
-0.00404446
-0.00513198
-0.0080897
-0.00351725
-0.00271212
-0.000548433
0.00249386
0.00103715
0.00367721
0.00188916
0.00340025
0.00239745
0.00257723
0.00263501
0.00179532
0.00268263
0.00114913
0.00260676
0.000653443
0.00244022
0.000298379
0.00221556
5.78814e-05
0.00197668
-9.28273e-05
0.00175315
-0.000180484
0.00154977
-0.000212091
0.00137311
-0.000197055
0.00124053
-0.000142958
0.00117004
-6.38695e-05
0.00116146
1.91508e-05
0.00119401
8.87052e-05
0.00125015
0.00013924
0.0013162
0.000171461
0.0013808
0.000186641
0.00143613
0.000187534
0.00147791
0.000177307
0.00150439
0.000158211
0.00151507
0.000130908
0.00150972
9.44049e-05
0.00148706
4.56441e-05
0.00144778
-2.1695e-05
0.00139741
-0.000114629
0.00133327
-0.000234459
0.00124786
-0.000388061
0.00113476
-0.000580787
0.000995934
-0.000812534
0.000848669
-0.00107626
0.000738243
-0.00135439
0.000715221
-0.00165224
0.000660884
-0.00213722
-0.00331239
-0.0061966
0.0015472
-0.00407082
0.000368263
-0.000967166
0.000573797
0.00101496
0.00141841
0.00213486
0.0014576
0.00277262
0.00115784
0.00311715
0.00080485
0.00327386
0.000496978
0.00330991
0.00026256
0.00326442
0.000103562
0.0031717
5.32328e-08
0.0030539
-6.25442e-05
0.00292348
-8.15499e-05
0.00279443
-6.79168e-05
0.0026837
-3.2167e-05
0.00260491
1.49458e-05
0.00256125
6.28193e-05
0.00254841
0.000101545
0.00255987
0.00012776
0.00258896
0.00014234
0.00262808
0.000147462
0.00267029
0.000145256
0.00271007
0.000137444
0.00274331
0.000124889
0.00276683
0.000107323
0.00277793
8.32718e-05
0.00277374
4.9836e-05
0.00275077
1.33702e-06
0.00270658
-7.02888e-05
0.00263411
-0.000161733
0.00252603
-0.000279637
0.00237475
-0.000429056
0.00217555
-0.000612791
0.00193146
-0.000831555
0.00166184
-0.00108409
0.00139029
-0.00137998
0.00102465
-0.00177083
-0.00227356
-0.000608598
0.00212806
0.000235646
-0.000475786
0.000824326
-1.45664e-05
0.00180726
0.000435742
0.00276381
0.000501286
0.00346405
0.0004578
0.00391019
0.000358881
0.00416263
0.000244678
0.00427652
0.00014878
0.00429555
8.46159e-05
0.00424725
4.84168e-05
0.00414478
3.99449e-05
0.00402008
4.31411e-05
0.0038989
5.32317e-05
0.00380052
6.61533e-05
0.00373454
8.08636e-05
0.00370198
9.53154e-05
0.00369943
0.000104019
0.00372006
0.000107035
0.00375643
0.000105872
0.00380162
0.000102158
0.00384974
9.70041e-05
0.00389608
9.09567e-05
0.00393688
8.39441e-05
0.00396884
7.52117e-05
0.00398876
6.32244e-05
0.0039931
4.5384e-05
0.00397685
1.752e-05
0.00392516
-1.8617e-05
0.00382971
-6.62445e-05
0.00368039
-0.000130197
0.00346438
-0.000212854
0.00316893
-0.000317058
0.00278364
-0.000445895
0.00230323
-0.000603235
0.00171575
-0.000791974
0.000962803
-0.00101728
-0.00129686
0.00506476
0.00177276
0.00385688
0.00333316
0.00326442
0.00364203
0.00408257
0.00447785
0.00477287
0.00495263
0.00503575
0.00505442
0.00503712
0.00501221
0.0049919
0.00498342
0.00498974
0.00501262
0.00505163
0.00510074
0.00515401
0.00520701
0.005257
0.00530239
0.00534219
0.00537537
0.00540018
0.00541332
0.00540892
0.0053769
0.00530896
0.00519368
0.00501472
0.00475337
0.004388
0.00389387
0.00324228
0.00240157
0.00133503
)
;

boundaryField
{
    floor
    {
        type            calculated;
        value           nonuniform List<scalar> 
29
(
0
0
0
0
0
0
0
0
0
0
0
0
0
0
0
0
0
0
0
0
-1.31296e-06
-2.71955e-06
-2.00746e-06
-3.03926e-07
-4.83039e-07
-1.87642e-06
-5.06161e-06
-7.19892e-06
-5.21543e-06
)
;
    }
    ceiling
    {
        type            calculated;
        value           nonuniform List<scalar> 
43
(
9.33904e-05
8.37965e-05
4.40846e-05
4.80426e-05
5.42829e-05
5.82636e-05
6.08335e-05
6.25605e-05
6.38481e-05
6.48514e-05
6.55418e-05
6.58073e-05
6.55388e-05
6.46544e-05
6.32399e-05
6.14774e-05
5.95867e-05
5.77438e-05
5.60771e-05
5.46692e-05
5.35334e-05
5.26387e-05
5.1936e-05
5.13752e-05
5.0913e-05
5.05164e-05
5.01635e-05
4.98446e-05
4.95634e-05
4.93382e-05
4.91336e-05
4.88876e-05
4.86413e-05
4.84362e-05
4.83151e-05
4.83258e-05
4.85299e-05
4.90159e-05
4.96742e-05
5.38089e-05
2.51746e-05
1.9275e-05
2.78818e-05
)
;
    }
    sWall
    {
        type            calculated;
        value           uniform -0.000119309;
    }
    nWall
    {
        type            calculated;
        value           nonuniform List<scalar> 6(-1.75186e-05 -1.37155e-05 -1.27247e-05 -1.33543e-05 -1.31759e-05 -1.50393e-05);
    }
    sideWalls
    {
        type            empty;
        value           nonuniform 0();
    }
    glass1
    {
        type            calculated;
        value           nonuniform List<scalar> 9(-5.24594e-05 -0.000136041 -0.000204269 -0.000261658 -0.000318557 -0.00033902 -0.000201171 -0.000207516 -0.000212866);
    }
    glass2
    {
        type            calculated;
        value           nonuniform List<scalar> 2(-6.7088e-05 -7.02998e-05);
    }
    sun
    {
        type            calculated;
        value           uniform 0;
    }
    heatsource1
    {
        type            calculated;
        value           nonuniform List<scalar> 3(2.00333e-07 2.00738e-07 2.01223e-07);
    }
    heatsource2
    {
        type            calculated;
        value           nonuniform List<scalar> 4(5.06057e-08 5.07216e-08 0 0);
    }
    Table_master
    {
        type            calculated;
        value           nonuniform List<scalar> 9(-1.52225e-07 -1.52221e-07 -1.52199e-07 -1.52166e-07 -1.52112e-07 -1.52015e-07 -1.51886e-07 -1.51714e-07 -1.51406e-07);
    }
    Table_slave
    {
        type            calculated;
        value           nonuniform List<scalar> 9(1.51206e-07 1.51187e-07 1.5118e-07 1.51173e-07 1.51172e-07 1.5117e-07 1.5116e-07 1.51141e-07 1.51099e-07);
    }
    inlet
    {
        type            calculated;
        value           uniform 0.00193745;
    }
    outlet
    {
        type            calculated;
        value           nonuniform List<scalar> 2(-0.00503838 0.00320865);
    }
}


// ************************************************************************* //
