// -*- C++ -*-
// File generated by PyFoam - sorry for the ugliness

FoamFile
{
 version 2.0;
 format ascii;
 class volScalarField;
 location "130";
 object T;
}

dimensions [ 0 0 0 1 0 0 0 ];

internalField nonuniform List<scalar> 459
(
  304.425
  304.295
  304.286
  304.284
  304.283
  304.286
  304.303
  304.378
  304.438
  304.48
  304.509
  304.527
  304.542
  304.555
  304.56
  305.183
  305.165
  305.141
  305.143
  305.172
  305.198
  305.217
  305.234
  305.25
  305.265
  305.279
  305.294
  305.308
  305.323
  305.338
  305.354
  305.372
  305.4
  305.467
  304.498
  304.309
  304.285
  304.274
  304.264
  304.256
  304.271
  304.361
  304.457
  304.531
  304.582
  304.611
  304.624
  304.624
  304.61
  304.628
  304.657
  305.199
  305.15
  305.094
  305.113
  305.156
  305.199
  305.229
  305.257
  305.283
  305.308
  305.332
  305.356
  305.379
  305.401
  305.419
  305.433
  305.443
  305.451
  305.51
  304.573
  304.329
  304.291
  304.274
  304.257
  304.226
  304.23
  304.337
  304.468
  304.578
  304.653
  304.693
  304.706
  304.7
  304.68
  304.675
  304.681
  305.129
  305.002
  305.017
  305.073
  305.145
  305.211
  305.235
  305.264
  305.294
  305.324
  305.354
  305.384
  305.414
  305.442
  305.466
  305.483
  305.491
  305.493
  305.537
  304.652
  304.361
  304.316
  304.3
  304.276
  304.205
  304.195
  304.312
  304.481
  304.634
  304.739
  304.791
  304.803
  304.789
  304.759
  304.732
  304.715
  304.733
  304.823
  304.879
  304.967
  305.075
  305.184
  305.276
  305.352
  305.411
  305.461
  305.509
  305.556
  305.601
  305.646
  305.692
  305.735
  305.657
  305.596
  305.557
  305.569
  304.734
  304.408
  304.363
  304.362
  304.312
  304.188
  304.164
  304.291
  304.502
  304.704
  304.844
  304.91
  304.919
  304.893
  304.85
  304.811
  304.784
  304.794
  304.84
  304.924
  305.044
  305.179
  305.308
  305.417
  305.508
  305.579
  305.64
  305.69
  305.731
  305.767
  305.796
  305.821
  305.834
  305.781
  305.701
  305.64
  305.61
  305.635
  305.814
  306.397
  304.814
  304.471
  304.431
  304.44
  304.329
  304.169
  304.133
  304.283
  304.544
  304.8
  304.974
  305.051
  305.055
  305.014
  304.959
  304.914
  304.891
  304.918
  304.994
  305.107
  305.245
  305.384
  305.51
  305.614
  305.696
  305.763
  305.812
  305.85
  305.88
  305.903
  305.921
  305.931
  305.927
  305.88
  305.81
  305.761
  305.689
  305.696
  305.926
  306.333
  304.906
  304.563
  304.533
  304.508
  304.315
  304.112
  304.09
  304.296
  304.624
  304.938
  305.141
  305.22
  305.208
  305.152
  305.096
  305.06
  305.062
  305.126
  305.238
  305.372
  305.513
  305.643
  305.753
  305.837
  305.903
  305.946
  305.975
  305.997
  306.015
  306.027
  306.034
  306.033
  306.02
  305.984
  305.933
  305.892
  305.77
  305.765
  305.989
  306.333
  305.023
  304.771
  304.747
  304.551
  304.206
  303.979
  304.037
  304.358
  304.778
  305.147
  305.357
  305.412
  305.379
  305.33
  305.291
  305.283
  305.324
  305.424
  305.559
  305.694
  305.816
  305.92
  306.007
  306.064
  306.095
  306.113
  306.125
  306.135
  306.143
  306.148
  306.148
  306.144
  306.133
  306.112
  306.082
  306.035
  305.887
  305.853
  306.018
  306.377
  305.196
  305.066
  304.953
  304.315
  303.8
  303.712
  304.024
  304.562
  305.078
  305.471
  305.605
  305.622
  305.601
  305.579
  305.575
  305.603
  305.674
  305.787
  305.916
  306.032
  306.122
  306.187
  306.229
  306.253
  306.264
  306.269
  306.272
  306.274
  306.277
  306.278
  306.278
  306.275
  306.269
  306.257
  306.234
  306.187
  306.061
  305.994
  306.097
  306.404
  300.603
  301.275
  302.336
  303.417
  304.376
  305.213
  305.627
  305.806
  305.861
  305.875
  305.88
  305.891
  305.919
  305.969
  306.044
  306.136
  306.226
  306.3
  306.351
  306.384
  306.401
  306.408
  306.41
  306.409
  306.407
  306.405
  306.402
  306.4
  306.396
  306.391
  306.382
  306.367
  306.341
  306.298
  306.226
  306.17
  306.227
  306.385
  304.262
  304.421
  304.76
  305.16
  305.542
  305.838
  305.994
  306.068
  306.105
  306.129
  306.153
  306.182
  306.22
  306.269
  306.326
  306.385
  306.436
  306.475
  306.499
  306.512
  306.517
  306.517
  306.514
  306.509
  306.504
  306.498
  306.492
  306.485
  306.476
  306.465
  306.45
  306.43
  306.402
  306.368
  306.333
  306.309
  306.344
  306.406
  305.685
  305.618
  305.573
  305.708
  305.873
  306.029
  306.149
  306.227
  306.281
  306.32
  306.351
  306.38
  306.409
  306.44
  306.471
  306.504
  306.535
  306.562
  306.583
  306.596
  306.602
  306.603
  306.6
  306.595
  306.588
  306.581
  306.573
  306.564
  306.554
  306.543
  306.529
  306.513
  306.494
  306.472
  306.45
  306.429
  306.414
  306.408
  306.428
  306.463
)
;

boundaryField
{
  floor
  {
    type wallHeatTransfer;
    Tinf uniform 298.85;
    alphaWall uniform 0.24;
    value nonuniform List<scalar> 29
(
  303.956
  304.188
  304.315
  304.347
  304.387
  304.41
  304.414
  304.391
  304.357
  304.323
  304.29
  304.258
  304.228
  304.2
  304.173
  304.148
  304.12
  304.091
  304.045
  304.09
  304.09
  304.331
  304.468
  304.604
  303.956
  304.188
  304.452
  304.445
  304.111
)
;
  }
  ceiling
  {
    type wallHeatTransfer;
    Tinf uniform 298.85;
    alphaWall uniform 0.24;
    value nonuniform List<scalar> 43
(
  305.152
  305.135
  305.143
  305.309
  305.476
  305.618
  305.717
  305.777
  305.816
  305.844
  305.87
  305.896
  305.923
  305.953
  305.986
  306.019
  306.05
  306.077
  306.096
  306.107
  306.111
  306.109
  306.105
  306.098
  306.091
  306.083
  306.075
  306.068
  306.06
  306.052
  306.042
  306.031
  306.016
  305.997
  305.975
  305.954
  305.947
  305.96
  305.993
  305.994
  304.854
  304.766
  303.952
)
;
  }
  sWall
  {
    type wallHeatTransfer;
    Tinf uniform 311.144;
    alphaWall uniform 0.36;
    value uniform 306.303;
  }
  nWall
  {
    type wallHeatTransfer;
    Tinf uniform 299.15;
    alphaWall uniform 0.36;
    value nonuniform List<scalar> 6
(
  305.456
  305.584
  305.742
  305.906
  305.85
  305.808
)
;
  }
  sideWalls
  {
    type empty;
  }
  glass1
  {
    type wallHeatTransfer;
    Tinf uniform 311.144;
    alphaWall uniform 4.3;
    value nonuniform List<scalar> 9
(
  308.887
  308.622
  308.442
  308.298
  308.174
  308.069
  308.032
  308.086
  308.214
)
;
  }
  glass2
  {
    type wallHeatTransfer;
    Tinf uniform 299.15;
    alphaWall uniform 4.3;
    value nonuniform List<scalar> 2
(
  303.153
  303.346
)
;
  }
  sun
  {
    type wallHeatTransfer;
    Tinf uniform 298.85;
    alphaWall uniform 0.24;
    value nonuniform List<scalar> 14
(
  303.878
  303.808
  303.82
  303.842
  303.866
  303.886
  303.913
  303.983
  304.024
  304.044
  304.048
  304.036
  304.02
  303.997
)
;
  }
  heatsource1
  {
    type fixedGradient;
    gradient uniform 0;
  }
  heatsource2
  {
    type fixedGradient;
    gradient uniform 0;
  }
  Table_master
  {
    type zeroGradient;
  }
  Table_slave
  {
    type zeroGradient;
  }
  inlet
  {
    type fixedValue;
    value uniform 300.15;
  }
  outlet
  {
    type zeroGradient;
  }
} 	// ************************************************************************* //

