// -*- C++ -*-
// File generated by PyFoam - sorry for the ugliness

FoamFile
{
 version 2.0;
 format ascii;
 class volVectorField;
 location "130";
 object U;
}

dimensions [ 0 1 -1 0 0 0 0 ];

internalField nonuniform List<vector> 459
(
  (-0.00973582 0.0737306 0)
  (-0.153725 0.0228253 0)
  (-0.182452 0.00300656 0)
  (-0.192656 -0.013448 0)
  (-0.174343 -0.0313081 0)
  (-0.131088 -0.05181 0)
  (-0.0708618 -0.0688102 0)
  (0.0156514 -0.0657602 0)
  (0.0759939 -0.0494655 0)
  (0.12136 -0.0344533 0)
  (0.151349 -0.0211431 0)
  (0.164195 -0.00908047 0)
  (0.157845 0.00418498 0)
  (0.128241 0.0247166 0)
  (0.116805 0.0712969 0)
  (-0.111586 0.0072821 0)
  (-0.000539605 0.00802858 0)
  (-0.0239531 -0.0139188 0)
  (0.00158654 -0.0275169 0)
  (0.0281436 -0.0239009 0)
  (0.049801 -0.017545 0)
  (0.065375 -0.010262 0)
  (0.0747105 -0.00621698 0)
  (0.0792768 -0.00461692 0)
  (0.0815619 -0.0039161 0)
  (0.0830456 -0.00343272 0)
  (0.084051 -0.00299047 0)
  (0.0844283 -0.00245089 0)
  (0.083666 -0.00148006 0)
  (0.0807594 0.000509786 0)
  (0.0737174 0.0044957 0)
  (0.0616226 0.0105717 0)
  (0.00172592 0.0245442 0)
  (0.12762 0.00508718 0)
  (0.109821 0.15556 0)
  (-0.131176 0.0733071 0)
  (-0.143955 0.037783 0)
  (-0.155897 0.00285558 0)
  (-0.14131 -0.038481 0)
  (-0.103476 -0.0809918 0)
  (-0.0517496 -0.110043 0)
  (0.0103182 -0.106105 0)
  (0.0604063 -0.0811334 0)
  (0.099258 -0.0540519 0)
  (0.125389 -0.0280668 0)
  (0.138363 -0.00310445 0)
  (0.140074 0.0216418 0)
  (0.132986 0.0492305 0)
  (0.133867 0.0884018 0)
  (0.12433 0.0822097 0)
  (0.0783247 0.0749458 0)
  (-0.167811 0.0168198 0)
  (0.0258605 0.0149822 0)
  (0.0205438 -0.0278116 0)
  (0.0363476 -0.0397003 0)
  (0.0529354 -0.0360721 0)
  (0.0671028 -0.0268301 0)
  (0.0740077 -0.0125675 0)
  (0.0760724 -0.00392705 0)
  (0.0763844 -0.000605314 0)
  (0.0767275 0.000654366 0)
  (0.0771979 0.00136034 0)
  (0.0775537 0.0019638 0)
  (0.0777477 0.0028985 0)
  (0.0775768 0.0047139 0)
  (0.0763775 0.00869572 0)
  (0.0710261 0.0183798 0)
  (0.0619289 0.0289792 0)
  (-0.00206849 0.0452692 0)
  (0.197837 0.0289085 0)
  (0.218672 0.2315 0)
  (-0.128461 0.11106 0)
  (-0.110152 0.0575039 0)
  (-0.122086 0.000665945 0)
  (-0.10799 -0.0637388 0)
  (-0.0724423 -0.126344 0)
  (-0.0289738 -0.162021 0)
  (0.0174604 -0.154016 0)
  (0.0554814 -0.121764 0)
  (0.0863466 -0.0838761 0)
  (0.107257 -0.046778 0)
  (0.118443 -0.0122511 0)
  (0.122237 0.0205147 0)
  (0.120404 0.0524892 0)
  (0.118662 0.0844786 0)
  (0.105462 0.0918667 0)
  (0.0803726 0.121327 0)
  (-0.222485 0.0091829 0)
  (0.0778706 -0.03543 0)
  (0.0653777 -0.0516907 0)
  (0.0710121 -0.0546367 0)
  (0.0793299 -0.0483215 0)
  (0.0868675 -0.0395422 0)
  (0.0858531 -0.0298752 0)
  (0.0755188 -0.0192492 0)
  (0.0675806 -0.0134248 0)
  (0.0639565 -0.0101356 0)
  (0.0622834 -0.00803012 0)
  (0.0611994 -0.00655723 0)
  (0.0606434 -0.00524881 0)
  (0.0617572 -0.003229 0)
  (0.0667012 0.00221962 0)
  (0.0663206 0.0242456 0)
  (0.0612916 0.0408031 0)
  (-0.00843374 0.0606449 0)
  (0.238943 0.0604462 0)
  (0.317525 0.29221 0)
  (-0.138566 0.142972 0)
  (-0.0783094 0.0764585 0)
  (-0.0872489 0.000893216 0)
  (-0.0677771 -0.0870968 0)
  (-0.0328961 -0.16704 0)
  (0.00146391 -0.203843 0)
  (0.0322217 -0.191802 0)
  (0.0586461 -0.153385 0)
  (0.0796079 -0.106262 0)
  (0.0931244 -0.0598927 0)
  (0.100015 -0.0181397 0)
  (0.102575 0.0189904 0)
  (0.103059 0.0522584 0)
  (0.106547 0.0829454 0)
  (0.113891 0.103914 0)
  (0.125748 0.134355 0)
  (0.15675 0.0381274 0)
  (0.10451 0.00733442 0)
  (0.116749 -0.0330887 0)
  (0.109601 -0.0526602 0)
  (0.102792 -0.0555645 0)
  (0.0983679 -0.0491524 0)
  (0.0936964 -0.0374202 0)
  (0.0950769 -0.022119 0)
  (0.103838 -0.0132013 0)
  (0.108211 -0.00792287 0)
  (0.106464 -0.00430271 0)
  (0.10105 -0.00150904 0)
  (0.0933811 0.000834422 0)
  (0.0836393 0.00305361 0)
  (0.0711677 0.00564545 0)
  (0.0519264 0.00952038 0)
  (0.0427511 0.0325978 0)
  (0.0506616 0.0482948 0)
  (-0.0120651 0.0665918 0)
  (0.263376 0.101614 0)
  (0.405237 0.338359 0)
  (-0.155962 0.166813 0)
  (-0.0483993 0.0879684 0)
  (-0.044929 -0.002226 0)
  (-0.0148291 -0.112522 0)
  (0.0169322 -0.201033 0)
  (0.0379216 -0.231053 0)
  (0.0541792 -0.215404 0)
  (0.0669447 -0.171984 0)
  (0.0753893 -0.118103 0)
  (0.0790304 -0.0656187 0)
  (0.0794121 -0.0201249 0)
  (0.0788885 0.0180263 0)
  (0.0805518 0.0496356 0)
  (0.0880468 0.0760589 0)
  (0.102097 0.0936754 0)
  (0.12279 0.10172 0)
  (0.144518 0.0470126 0)
  (0.14787 0.0109682 0)
  (0.140809 -0.0234189 0)
  (0.126954 -0.04173 0)
  (0.112392 -0.0455817 0)
  (0.0998875 -0.0402548 0)
  (0.0896561 -0.0291316 0)
  (0.0840121 -0.0131712 0)
  (0.0816779 -0.00231874 0)
  (0.0775525 0.00413941 0)
  (0.0716409 0.00823706 0)
  (0.0646988 0.0112843 0)
  (0.0572565 0.0139192 0)
  (0.0493725 0.0166503 0)
  (0.0411359 0.0200566 0)
  (0.0317696 0.0247923 0)
  (0.0269009 0.0359206 0)
  (0.0424172 0.0448622 0)
  (0.00894703 0.0520722 0)
  (0.145046 0.0972619 0)
  (0.116541 0.0857946 0)
  (-0.134363 0.0782725 0)
  (0.45022 -0.0142953 0)
  (0.477397 0.373484 0)
  (-0.176484 0.178287 0)
  (-0.0191416 0.081294 0)
  (0.0149183 -0.0329854 0)
  (0.0511896 -0.146794 0)
  (0.072266 -0.220996 0)
  (0.0805508 -0.244706 0)
  (0.0809651 -0.223794 0)
  (0.0767766 -0.175511 0)
  (0.0697341 -0.11705 0)
  (0.0611234 -0.0616707 0)
  (0.0531771 -0.0160656 0)
  (0.0482778 0.0191725 0)
  (0.0501892 0.0452172 0)
  (0.0593415 0.0641919 0)
  (0.0748343 0.0739575 0)
  (0.0969457 0.0707034 0)
  (0.114984 0.0377006 0)
  (0.120367 0.00612261 0)
  (0.115921 -0.0171979 0)
  (0.104898 -0.0295417 0)
  (0.0910103 -0.032009 0)
  (0.077137 -0.0274348 0)
  (0.064789 -0.0183292 0)
  (0.0551949 -0.00657009 0)
  (0.0475445 0.00301179 0)
  (0.0414863 0.00925407 0)
  (0.0356992 0.0133707 0)
  (0.0299984 0.0165488 0)
  (0.0244534 0.0194286 0)
  (0.0191723 0.0224517 0)
  (0.0145806 0.0259293 0)
  (0.0106965 0.0296424 0)
  (0.00985772 0.0332335 0)
  (0.0232998 0.0334803 0)
  (0.00353163 0.0233539 0)
  (0.0566626 0.0607236 0)
  (0.0639823 0.0725338 0)
  (-0.161207 0.0841948 0)
  (0.427286 -0.0410086 0)
  (0.554294 0.402487 0)
  (-0.182058 0.157283 0)
  (0.0267331 0.0155943 0)
  (0.0960048 -0.0934009 0)
  (0.128777 -0.180467 0)
  (0.136452 -0.23368 0)
  (0.127339 -0.243076 0)
  (0.107305 -0.213431 0)
  (0.0822145 -0.160736 0)
  (0.0569511 -0.100576 0)
  (0.0348481 -0.046332 0)
  (0.0186064 -0.00521494 0)
  (0.0116487 0.0220828 0)
  (0.0151312 0.0394505 0)
  (0.0257173 0.050776 0)
  (0.0416385 0.0547345 0)
  (0.0615308 0.0483301 0)
  (0.0759184 0.0267656 0)
  (0.0802642 0.00535418 0)
  (0.0765506 -0.00980802 0)
  (0.0666673 -0.0176426 0)
  (0.0537441 -0.0186553 0)
  (0.0402295 -0.0143764 0)
  (0.0279073 -0.00675204 0)
  (0.017236 0.00242044 0)
  (0.0101521 0.00978242 0)
  (0.0053095 0.0147062 0)
  (0.0013294 0.0181717 0)
  (-0.00219808 0.0209985 0)
  (-0.00520457 0.0235036 0)
  (-0.0075033 0.0259107 0)
  (-0.00854203 0.0280926 0)
  (-0.00803331 0.0292422 0)
  (-0.00540344 0.0280324 0)
  (0.00432925 0.0242062 0)
  (-0.00865805 0.0156911 0)
  (0.0163969 0.0502937 0)
  (0.0526351 0.0905895 0)
  (-0.217348 0.109693 0)
  (0.520521 -0.0511014 0)
  (0.654821 0.380242 0)
  (0.0098158 0.118647 0)
  (0.133542 -0.0673719 0)
  (0.218046 -0.148287 0)
  (0.231046 -0.197892 0)
  (0.209126 -0.222594 0)
  (0.17028 -0.215332 0)
  (0.1223 -0.17786 0)
  (0.0725828 -0.124137 0)
  (0.0283096 -0.0670719 0)
  (-0.00469389 -0.0194519 0)
  (-0.0227395 0.00853393 0)
  (-0.025402 0.0226002 0)
  (-0.0203249 0.0314494 0)
  (-0.00973848 0.0371389 0)
  (0.00513425 0.0382014 0)
  (0.0207109 0.032453 0)
  (0.0305876 0.0191927 0)
  (0.0325166 0.00624075 0)
  (0.028344 -0.00272031 0)
  (0.0194605 -0.00673491 0)
  (0.00805054 -0.00605429 0)
  (-0.00429855 -0.00159851 0)
  (-0.0146548 0.00435709 0)
  (-0.0213636 0.0100333 0)
  (-0.0253723 0.0146208 0)
  (-0.0277734 0.0181125 0)
  (-0.0293063 0.0208811 0)
  (-0.0302054 0.0231627 0)
  (-0.0303789 0.0249886 0)
  (-0.0295062 0.0262621 0)
  (-0.0270565 0.0266236 0)
  (-0.022697 0.0254193 0)
  (-0.0163503 0.0222747 0)
  (-0.00727771 0.0189294 0)
  (-0.00598441 0.0165524 0)
  (0.0143608 0.0422993 0)
  (0.0712297 0.0928275 0)
  (-0.180227 0.0981079 0)
  (0.8887 0.0167395 0)
  (0.79631 0.371492 0)
  (0.37298 0.25923 0)
  (0.384535 0.128614 0)
  (0.387569 -0.0138312 0)
  (0.340285 -0.108828 0)
  (0.26309 -0.149731 0)
  (0.179777 -0.14662 0)
  (0.0995987 -0.111836 0)
  (0.0287004 -0.0648579 0)
  (-0.0279125 -0.0171272 0)
  (-0.053934 0.00685999 0)
  (-0.0626999 0.0168616 0)
  (-0.0619749 0.0217287 0)
  (-0.0562746 0.0251161 0)
  (-0.0472863 0.0272697 0)
  (-0.0365099 0.0272487 0)
  (-0.0264517 0.0240563 0)
  (-0.0208744 0.0175534 0)
  (-0.0210953 0.011141 0)
  (-0.025871 0.00697652 0)
  (-0.0330467 0.00571144 0)
  (-0.0410361 0.00701428 0)
  (-0.0478062 0.00968822 0)
  (-0.0526116 0.0127519 0)
  (-0.0553065 0.0158117 0)
  (-0.0563024 0.0186462 0)
  (-0.0560881 0.021131 0)
  (-0.0550016 0.023232 0)
  (-0.0531442 0.0248607 0)
  (-0.0504395 0.0258404 0)
  (-0.0466808 0.0259186 0)
  (-0.0416031 0.0247449 0)
  (-0.035077 0.0220028 0)
  (-0.027156 0.0178699 0)
  (-0.0178655 0.0136447 0)
  (-0.00891883 0.0107164 0)
  (0.0140047 0.0235186 0)
  (0.0657208 0.0640767 0)
  (-0.140249 0.0580361 0)
  (0.871861 0.0612946 0)
  (0.215182 -0.108812 0)
  (0.252614 -0.120777 0)
  (0.214771 -0.121047 0)
  (0.135977 -0.104327 0)
  (0.054666 -0.0733847 0)
  (-0.0226353 -0.0258518 0)
  (-0.0717928 0.00583066 0)
  (-0.0968257 0.0210285 0)
  (-0.10361 0.0254589 0)
  (-0.103435 0.0264045 0)
  (-0.0998588 0.026455 0)
  (-0.094431 0.0266409 0)
  (-0.0878689 0.0268057 0)
  (-0.0810405 0.0264502 0)
  (-0.075312 0.0251388 0)
  (-0.072313 0.0228622 0)
  (-0.0724086 0.0206848 0)
  (-0.0747129 0.0194026 0)
  (-0.0778979 0.0193523 0)
  (-0.0808028 0.0203798 0)
  (-0.0826064 0.0219609 0)
  (-0.0830605 0.0236407 0)
  (-0.0822035 0.0252108 0)
  (-0.0802083 0.026562 0)
  (-0.077264 0.0275629 0)
  (-0.0735234 0.0280761 0)
  (-0.0690934 0.0279448 0)
  (-0.0640634 0.0269913 0)
  (-0.0585315 0.025023 0)
  (-0.0526559 0.021832 0)
  (-0.046754 0.0172448 0)
  (-0.0413527 0.0112175 0)
  (-0.0369958 0.00391866 0)
  (-0.0327449 -0.00116493 0)
  (-0.0212865 0.00905855 0)
  (-0.010448 0.036844 0)
  (-0.197762 0.0313403 0)
  (0.53056 0.0929805 0)
  (-0.223725 -0.0708769 0)
  (0.00719821 -0.0713696 0)
  (-0.030741 -0.0836646 0)
  (-0.0723791 -0.0877178 0)
  (-0.109159 -0.0867041 0)
  (-0.13412 -0.0810113 0)
  (-0.143698 -0.0801304 0)
  (-0.145513 -0.0817008 0)
  (-0.14373 -0.0850627 0)
  (-0.140521 -0.0872774 0)
  (-0.136503 -0.0876738 0)
  (-0.131822 -0.0865848 0)
  (-0.126543 -0.0848999 0)
  (-0.120966 -0.0836154 0)
  (-0.115708 -0.0835814 0)
  (-0.111514 -0.0851841 0)
  (-0.108695 -0.0879661 0)
  (-0.107032 -0.0911933 0)
  (-0.106005 -0.0941544 0)
  (-0.105039 -0.0964221 0)
  (-0.103681 -0.0979168 0)
  (-0.101688 -0.0986913 0)
  (-0.0989471 -0.0988206 0)
  (-0.0954253 -0.0984234 0)
  (-0.0911365 -0.0976818 0)
  (-0.0861413 -0.0968131 0)
  (-0.0805539 -0.096079 0)
  (-0.0745629 -0.0958121 0)
  (-0.0684669 -0.0964353 0)
  (-0.0627659 -0.0984416 0)
  (-0.0583207 -0.102254 0)
  (-0.056334 -0.107765 0)
  (-0.0574286 -0.112921 0)
  (-0.0595497 -0.111935 0)
  (-0.0602688 -0.0952101 0)
  (-0.0749699 -0.0596015 0)
  (-0.156865 -0.0413823 0)
  (0.410079 0.0047633 0)
  (0.0469177 -0.161946 0)
  (-0.179825 0.02206 0)
  (-0.154165 0.347474 0)
  (-0.152553 0.285948 0)
  (-0.179341 0.265027 0)
  (-0.198096 0.275161 0)
  (-0.206957 0.290784 0)
  (-0.205778 0.300599 0)
  (-0.199568 0.310693 0)
  (-0.191539 0.319246 0)
  (-0.183973 0.325769 0)
  (-0.17766 0.329572 0)
  (-0.172229 0.331199 0)
  (-0.167062 0.331599 0)
  (-0.161655 0.331813 0)
  (-0.1558 0.332757 0)
  (-0.149627 0.335081 0)
  (-0.143508 0.338982 0)
  (-0.137768 0.344097 0)
  (-0.132521 0.349818 0)
  (-0.127678 0.355529 0)
  (-0.123026 0.360811 0)
  (-0.118343 0.365476 0)
  (-0.113464 0.369459 0)
  (-0.108274 0.372757 0)
  (-0.102712 0.375404 0)
  (-0.0967878 0.377444 0)
  (-0.0906035 0.378907 0)
  (-0.0843582 0.379821 0)
  (-0.078347 0.380269 0)
  (-0.0729603 0.380462 0)
  (-0.0687261 0.380824 0)
  (-0.0663349 0.382005 0)
  (-0.0661335 0.384398 0)
  (-0.066578 0.386067 0)
  (-0.0650338 0.381071 0)
  (-0.0689704 0.363747 0)
  (-0.107176 0.33797 0)
  (-0.178926 0.332232 0)
  (0.513342 0.368403 0)
)
;

boundaryField
{
  floor
  {
    type noSlip;
  }
  ceiling
  {
    type noSlip;
  }
  sWall
  {
    type noSlip;
  }
  nWall
  {
    type noSlip;
  }
  sideWalls
  {
    type empty;
  }
  glass1
  {
    type noSlip;
  }
  glass2
  {
    type noSlip;
  }
  sun
  {
    type noSlip;
  }
  heatsource1
  {
    type noSlip;
  }
  heatsource2
  {
    type noSlip;
  }
  Table_master
  {
    type noSlip;
  }
  Table_slave
  {
    type noSlip;
  }
  inlet
  {
    type fixedValue;
    value uniform (0.277164 -0.114805 0);
  }
  outlet
  {
    type zeroGradient;
  }
} 	// ************************************************************************* //

