/*--------------------------------*- C++ -*----------------------------------*\
  =========                 |
  \\      /  F ield         | OpenFOAM: The Open Source CFD Toolbox
   \\    /   O peration     | Website:  https://openfoam.org
    \\  /    A nd           | Version:  6
     \\/     M anipulation  |
\*---------------------------------------------------------------------------*/
FoamFile
{
    version     2.0;
    format      ascii;
    class       volScalarField;
    location    "100";
    object      epsilon;
}
// * * * * * * * * * * * * * * * * * * * * * * * * * * * * * * * * * * * * * //

dimensions      [0 2 -3 0 0 0 0];

internalField   nonuniform List<scalar> 
459
(
0.000343443
0.000436657
0.000453779
0.000519465
0.000584941
0.000649962
0.000716576
0.000788475
0.00085327
0.000894746
0.000899843
0.000859725
0.000776702
0.000669704
0.000565249
3.77314e-05
7.10595e-05
9.52506e-05
9.07236e-05
8.24194e-05
7.32248e-05
6.31037e-05
5.40203e-05
4.65519e-05
4.05144e-05
3.56123e-05
3.15868e-05
2.8219e-05
2.536e-05
2.28531e-05
2.05152e-05
1.81342e-05
1.59232e-05
1.20666e-05
0.000924188
0.00144586
0.000413569
0.000395688
0.000410986
0.000435466
0.000471156
0.000522879
0.000583407
0.000635754
0.000661347
0.000646508
0.000589303
0.000508104
0.00046069
0.000587604
0.000163716
5.12707e-05
0.000116528
0.000114687
0.000100318
8.36696e-05
6.97615e-05
6.31839e-05
5.26953e-05
4.33415e-05
3.57131e-05
2.96147e-05
2.47549e-05
2.08398e-05
1.77167e-05
1.53558e-05
1.41833e-05
1.42889e-05
2.61681e-05
2.03471e-05
0.0017578
0.00380514
0.000536291
0.000376475
0.000386853
0.000424438
0.000481185
0.000559643
0.000650473
0.00072778
0.000767819
0.000758925
0.00070302
0.000617617
0.000538627
0.000499248
0.00053392
0.000389092
0.000251669
0.000178119
0.000131776
0.000101315
8.46162e-05
0.000159522
0.000115508
8.57246e-05
6.51764e-05
5.06479e-05
4.0148e-05
3.24534e-05
2.68928e-05
2.31156e-05
1.76814e-05
1.53616e-05
4.046e-05
2.80601e-05
0.00295855
0.00818072
0.000910625
0.000381194
0.000370673
0.000420685
0.000501752
0.00062124
0.000753746
0.000851044
0.000891859
0.000873424
0.000804759
0.000702723
0.000593562
0.000511858
0.000484591
0.000885011
0.000491441
0.000288566
0.000190023
0.000135814
0.000103678
8.9704e-05
0.000211007
0.000163048
0.00013413
0.000114585
9.91124e-05
8.61099e-05
7.43694e-05
6.28901e-05
5.07734e-05
2.96875e-05
1.98919e-05
5.86939e-05
3.56935e-05
0.00466475
0.0148104
0.00191582
0.000460954
0.000369048
0.00042012
0.000538191
0.000754539
0.000942827
0.00104447
0.00106742
0.00102173
0.00092403
0.000789413
0.000639532
0.000498086
0.000383388
0.000321188
0.000251225
0.000192203
0.000147853
0.000116344
9.46094e-05
8.12397e-05
8.13024e-05
7.87166e-05
7.56734e-05
7.17693e-05
6.66068e-05
6.04436e-05
5.37974e-05
4.70573e-05
4.04513e-05
3.13693e-05
2.37029e-05
4.68534e-05
3.63089e-05
6.97668e-05
0.000126635
0.000175802
0.00707787
0.0220467
0.00449122
0.000937921
0.000547285
0.00054068
0.000722215
0.00111124
0.0012972
0.00134961
0.00132061
0.00123228
0.00109337
0.000913289
0.000713495
0.000522844
0.000369108
0.000267957
0.000205851
0.000162325
0.000129179
0.000105344
8.94532e-05
8.03395e-05
7.79757e-05
7.89269e-05
7.99288e-05
7.91434e-05
7.57239e-05
6.91362e-05
6.03214e-05
5.10528e-05
4.23393e-05
3.44952e-05
2.96995e-05
3.84694e-05
3.8208e-05
5.14808e-05
0.000230537
0.000196713
0.0100052
0.026331
0.00961077
0.00337674
0.00197991
0.00158668
0.00179802
0.00193565
0.0019188
0.00182232
0.00168802
0.00152052
0.00131259
0.00106656
0.000805231
0.000562655
0.000372602
0.000250618
0.000181579
0.000140826
0.000113686
9.62987e-05
8.66871e-05
8.34831e-05
8.53734e-05
9.00694e-05
9.49015e-05
9.82566e-05
9.92288e-05
9.65542e-05
8.74979e-05
7.65638e-05
6.551e-05
5.55807e-05
5.16535e-05
5.74599e-05
7.177e-05
0.00012001
0.000287959
0.000278176
0.0107252
0.0295486
0.0160373
0.0105185
0.00724907
0.00535987
0.00421159
0.00340675
0.00285597
0.0024691
0.00216408
0.00187551
0.00156397
0.00122227
0.000879667
0.000575051
0.000348359
0.000215455
0.000147045
0.000115927
9.8466e-05
8.94899e-05
8.67991e-05
8.89438e-05
9.47274e-05
0.000102857
0.000112263
0.000122577
0.00013383
0.000145805
0.000157191
0.000161554
0.000166309
0.000176704
0.00020463
0.000306216
0.000582131
0.00120516
0.00376629
0.00111884
0.00996187
0.0169607
0.0136193
0.0102965
0.00782735
0.00608538
0.00487177
0.00405021
0.00348284
0.00304777
0.00265042
0.00223287
0.00177566
0.0012926
0.000847817
0.000481514
0.000250021
0.000155625
0.00011407
9.47773e-05
8.56781e-05
8.28822e-05
8.45345e-05
8.9546e-05
9.72676e-05
0.000107343
0.000119812
0.000135269
0.000154873
0.000180366
0.000214201
0.000260458
0.000325984
0.000428527
0.00058498
0.000807794
0.00107584
0.00131778
0.00148861
0.000928787
0.00435151
0.00654644
0.00640773
0.00591428
0.00539955
0.00482622
0.00421957
0.0035843
0.00292299
0.00224865
0.00158408
0.00092537
0.0004758
0.000247301
0.000142631
9.99463e-05
8.1437e-05
7.33562e-05
7.05381e-05
7.09722e-05
7.36875e-05
7.8212e-05
8.4411e-05
9.24297e-05
0.000102729
0.000116146
0.000133988
0.000158199
0.000191825
0.000239153
0.00030581
0.000399471
0.000524894
0.000672697
0.000805637
0.000867347
0.000821182
0.000525691
0.00309523
0.00634126
0.00643822
0.00536485
0.00470793
0.00421672
0.00357633
0.00277632
0.00196938
0.00127854
0.00075558
0.000407216
0.00022093
0.000135714
9.85804e-05
8.30889e-05
7.65365e-05
7.38569e-05
7.32483e-05
7.41537e-05
7.64364e-05
8.00544e-05
8.51385e-05
9.19869e-05
0.0001011
0.000113266
0.000129699
0.000152216
0.000183236
0.000226169
0.000285798
0.000367279
0.000471974
0.000591434
0.00068563
0.000786593
0.00074176
0.000552728
0.00203924
0.00241421
0.00271175
0.00318832
0.00268639
0.00219005
0.00180929
0.00148927
0.00123889
0.000983616
0.00073856
0.000519301
0.0003407
0.00021933
0.000148675
0.000111047
9.1012e-05
8.03304e-05
7.50804e-05
7.32524e-05
7.39517e-05
7.67069e-05
8.09629e-05
8.67224e-05
9.41191e-05
0.000103399
0.000114934
0.000129272
0.000147248
0.000170064
0.000198295
0.000233403
0.000277546
0.000333605
0.000404623
0.000501509
0.00054392
0.000508221
0.00041896
0.000337395
)
;

boundaryField
{
    floor
    {
        Cmu             0.09;
        kappa           0.41;
        E               9.8;
        type            epsilonWallFunction;
        value           nonuniform List<scalar> 
29
(
0.000565249
3.77314e-05
7.10595e-05
9.52506e-05
9.07236e-05
8.24194e-05
7.32248e-05
6.31037e-05
5.40203e-05
4.65519e-05
4.05144e-05
3.56123e-05
3.15868e-05
2.8219e-05
2.536e-05
2.28531e-05
2.05152e-05
1.81342e-05
1.59232e-05
1.20666e-05
1.20666e-05
2.03471e-05
2.80601e-05
3.56935e-05
0.000565249
3.77314e-05
5.12707e-05
0.000389092
0.000885011
)
;
    }
    ceiling
    {
        Cmu             0.09;
        kappa           0.41;
        E               9.8;
        type            epsilonWallFunction;
        value           nonuniform List<scalar> 
43
(
0.00203924
0.00241421
0.00271175
0.00318832
0.00268639
0.00219005
0.00180929
0.00148927
0.00123889
0.000983616
0.00073856
0.000519301
0.0003407
0.00021933
0.000148675
0.000111047
9.1012e-05
8.03304e-05
7.50804e-05
7.32524e-05
7.39517e-05
7.67069e-05
8.09629e-05
8.67224e-05
9.41191e-05
0.000103399
0.000114934
0.000129272
0.000147248
0.000170064
0.000198295
0.000233403
0.000277546
0.000333605
0.000404623
0.000501509
0.00054392
0.000508221
0.00041896
0.000337395
0.00996187
0.0169607
0.00309523
)
;
    }
    sWall
    {
        Cmu             0.09;
        kappa           0.41;
        E               9.8;
        type            epsilonWallFunction;
        value           uniform 0.00203924;
    }
    nWall
    {
        Cmu             0.09;
        kappa           0.41;
        E               9.8;
        type            epsilonWallFunction;
        value           nonuniform List<scalar> 6(0.000175802 0.000196713 0.000278176 0.000525691 0.000552728 0.000337395);
    }
    sideWalls
    {
        type            empty;
    }
    glass1
    {
        Cmu             0.09;
        kappa           0.41;
        E               9.8;
        type            epsilonWallFunction;
        value           nonuniform List<scalar> 9(0.000343443 0.000924188 0.0017578 0.00295855 0.00466475 0.00707787 0.0100052 0.0107252 0.00996187);
    }
    glass2
    {
        Cmu             0.09;
        kappa           0.41;
        E               9.8;
        type            epsilonWallFunction;
        value           nonuniform List<scalar> 2(0.00111884 0.000928787);
    }
    sun
    {
        Cmu             0.09;
        kappa           0.41;
        E               9.8;
        type            epsilonWallFunction;
        value           nonuniform List<scalar> 
14
(
0.000343443
0.000436657
0.000453779
0.000519465
0.000584941
0.000649962
0.000716576
0.000788475
0.00085327
0.000894746
0.000899843
0.000859725
0.000776702
0.000669704
)
;
    }
    heatsource1
    {
        Cmu             0.09;
        kappa           0.41;
        E               9.8;
        type            epsilonWallFunction;
        value           nonuniform List<scalar> 3(6.97668e-05 0.000126635 0.000175802);
    }
    heatsource2
    {
        Cmu             0.09;
        kappa           0.41;
        E               9.8;
        type            epsilonWallFunction;
        value           nonuniform List<scalar> 4(0.000587604 0.000163716 0.000163716 0.00053392);
    }
    Table_master
    {
        Cmu             0.09;
        kappa           0.41;
        E               9.8;
        type            epsilonWallFunction;
        value           nonuniform List<scalar> 9(0.000159522 0.000115508 8.57246e-05 6.51764e-05 5.06479e-05 4.0148e-05 3.24534e-05 2.68928e-05 2.31156e-05);
    }
    Table_slave
    {
        Cmu             0.09;
        kappa           0.41;
        E               9.8;
        type            epsilonWallFunction;
        value           nonuniform List<scalar> 9(0.000211007 0.000163048 0.00013413 0.000114585 9.91124e-05 8.61099e-05 7.43694e-05 6.28901e-05 5.07734e-05);
    }
    inlet
    {
        type            turbulentMixingLengthDissipationRateInlet;
        mixingLength    0.01;
        phi             phi;
        k               k;
        value           uniform 0.000101881;
    }
    outlet
    {
        type            zeroGradient;
    }
}


// ************************************************************************* //
