// -*- C++ -*-
// File generated by PyFoam - sorry for the ugliness

FoamFile
{
 version 2.0;
 format ascii;
 class volVectorField;
 location "350";
 object U;
}

dimensions [ 0 1 -1 0 0 0 0 ];

internalField nonuniform List<vector> 459
(
  (0.0162068 0.0691346 0)
  (-0.135443 0.02287 0)
  (-0.160699 0.0147363 0)
  (-0.186843 0.00854249 0)
  (-0.203911 0.00188061 0)
  (-0.210432 -0.00528443 0)
  (-0.204279 -0.013039 0)
  (-0.185367 -0.0213313 0)
  (-0.154768 -0.0287902 0)
  (-0.116029 -0.0338529 0)
  (-0.0744751 -0.0352926 0)
  (-0.0358548 -0.0321685 0)
  (-0.0020554 -0.0214623 0)
  (0.0137641 -0.00458225 0)
  (0.0503943 0.0150549 0)
  (-0.108332 0.00711797 0)
  (0.0327871 -0.00314031 0)
  (0.012482 -0.00912466 0)
  (0.0255954 -0.0123159 0)
  (0.0409901 -0.0115604 0)
  (0.0541796 -0.00897127 0)
  (0.0629696 -0.0052249 0)
  (0.0675107 -0.00304238 0)
  (0.0692083 -0.00224648 0)
  (0.069728 -0.00196197 0)
  (0.0698782 -0.00176669 0)
  (0.0697373 -0.00153514 0)
  (0.0691321 -0.001165 0)
  (0.0676894 -0.000424085 0)
  (0.064568 0.00122509 0)
  (0.058076 0.00469133 0)
  (0.0472824 0.00990914 0)
  (0.000276669 0.0200749 0)
  (0.09226 -0.000372578 0)
  (0.145569 0.14145 0)
  (-0.124609 0.0604486 0)
  (-0.130965 0.0461247 0)
  (-0.15792 0.0337257 0)
  (-0.175237 0.0195321 0)
  (-0.182508 0.00319037 0)
  (-0.177483 -0.0154648 0)
  (-0.160369 -0.0346181 0)
  (-0.132871 -0.0506953 0)
  (-0.0988599 -0.0603646 0)
  (-0.0633471 -0.061733 0)
  (-0.0308913 -0.054451 0)
  (-0.00361159 -0.0380269 0)
  (0.0156977 -0.0163117 0)
  (0.0341412 0.00782398 0)
  (0.0364933 0.016923 0)
  (0.026621 0.025857 0)
  (-0.120702 0.00196938 0)
  (0.029545 -0.0220182 0)
  (0.0294805 -0.0238147 0)
  (0.0407926 -0.0240047 0)
  (0.0527063 -0.0208704 0)
  (0.0622268 -0.0155075 0)
  (0.0671146 -0.00649724 0)
  (0.0682323 -0.00106073 0)
  (0.0681406 0.00104397 0)
  (0.0682355 0.00185776 0)
  (0.0685122 0.00236935 0)
  (0.0687113 0.0028509 0)
  (0.0687371 0.00353598 0)
  (0.0685445 0.00491812 0)
  (0.067546 0.00814254 0)
  (0.0630618 0.0164574 0)
  (0.0545523 0.0255526 0)
  (0.0083661 0.0371926 0)
  (0.138859 0.0229379 0)
  (0.265875 0.211876 0)
  (-0.133497 0.0948261 0)
  (-0.100066 0.0740058 0)
  (-0.126183 0.052741 0)
  (-0.14242 0.0294028 0)
  (-0.149854 0.00277714 0)
  (-0.144837 -0.0271619 0)
  (-0.128011 -0.0572538 0)
  (-0.102401 -0.0810754 0)
  (-0.0723921 -0.0937405 0)
  (-0.0426804 -0.0933827 0)
  (-0.0162795 -0.0808809 0)
  (0.00586767 -0.0578433 0)
  (0.0220784 -0.0310136 0)
  (0.0342319 -0.00399995 0)
  (0.0390512 0.0187342 0)
  (0.0348166 0.0502405 0)
  (-0.0509065 -0.0200976 0)
  (0.0387195 -0.0364877 0)
  (0.0514085 -0.0388223 0)
  (0.0573352 -0.035291 0)
  (0.0635425 -0.0298515 0)
  (0.0691353 -0.0249474 0)
  (0.0711343 -0.0185983 0)
  (0.0658087 -0.0120973 0)
  (0.0615345 -0.00869298 0)
  (0.0600022 -0.00684227 0)
  (0.0597591 -0.00565937 0)
  (0.0599387 -0.00476631 0)
  (0.0605898 -0.00385598 0)
  (0.0624328 -0.00242379 0)
  (0.067183 0.00196355 0)
  (0.0678533 0.0216795 0)
  (0.0621188 0.0371152 0)
  (0.0145077 0.0538461 0)
  (0.165715 0.0531766 0)
  (0.377514 0.26881 0)
  (-0.156536 0.124342 0)
  (-0.0668466 0.0983447 0)
  (-0.091332 0.0700869 0)
  (-0.104321 0.0399184 0)
  (-0.110253 0.00409181 0)
  (-0.102577 -0.0376822 0)
  (-0.0846725 -0.0787045 0)
  (-0.0613488 -0.108899 0)
  (-0.0365802 -0.123026 0)
  (-0.0141378 -0.120247 0)
  (0.00565663 -0.102658 0)
  (0.021475 -0.0759246 0)
  (0.0348226 -0.0454343 0)
  (0.0470933 -0.0148122 0)
  (0.0598469 0.0135913 0)
  (0.076092 0.0409152 0)
  (0.103768 -0.0152506 0)
  (0.100053 -0.0254081 0)
  (0.0901909 -0.0355035 0)
  (0.0794824 -0.038436 0)
  (0.0722453 -0.0354755 0)
  (0.0680446 -0.0301538 0)
  (0.0646383 -0.0233911 0)
  (0.0653095 -0.0140961 0)
  (0.0725804 -0.00967885 0)
  (0.0785617 -0.00733294 0)
  (0.0822955 -0.00596137 0)
  (0.0848858 -0.00489323 0)
  (0.0866118 -0.00371985 0)
  (0.0866068 -0.00202672 0)
  (0.0832221 0.000748459 0)
  (0.0740814 0.00522197 0)
  (0.065525 0.026482 0)
  (0.0660164 0.0453032 0)
  (0.0258668 0.0664307 0)
  (0.181783 0.098365 0)
  (0.478183 0.312613 0)
  (-0.188055 0.147142 0)
  (-0.0326046 0.113262 0)
  (-0.0536711 0.0810018 0)
  (-0.0612129 0.0468949 0)
  (-0.0628941 0.00383564 0)
  (-0.0473223 -0.0496775 0)
  (-0.0285517 -0.0989552 0)
  (-0.00984416 -0.131687 0)
  (0.00713961 -0.14426 0)
  (0.0200843 -0.137555 0)
  (0.030417 -0.117242 0)
  (0.0389229 -0.0884791 0)
  (0.046641 -0.0566969 0)
  (0.054969 -0.0262847 0)
  (0.0658431 -0.000964229 0)
  (0.0807716 0.0131997 0)
  (0.0925567 -0.002374 0)
  (0.0914126 -0.0154371 0)
  (0.0821948 -0.0245461 0)
  (0.0723779 -0.0282509 0)
  (0.0641024 -0.0276094 0)
  (0.0576661 -0.024308 0)
  (0.0530445 -0.0187866 0)
  (0.051894 -0.0104945 0)
  (0.0541473 -0.0059626 0)
  (0.0568416 -0.0042557 0)
  (0.0592683 -0.00354302 0)
  (0.0617023 -0.00273321 0)
  (0.0640923 -0.00106813 0)
  (0.0661961 0.00219592 0)
  (0.0669491 0.00756919 0)
  (0.0659268 0.0157796 0)
  (0.0650748 0.0302366 0)
  (0.0722298 0.0460121 0)
  (0.0597263 0.0614392 0)
  (0.133689 0.0962022 0)
  (0.125419 0.077062 0)
  (0.110665 0.0563665 0)
  (-0.136864 0.0580949 0)
  (0.556203 0.348398 0)
  (-0.222145 0.161109 0)
  (-0.00412324 0.112305 0)
  (-0.0142487 0.0842109 0)
  (-0.0138639 0.051091 0)
  (-0.00229876 -0.000294162 0)
  (0.0216551 -0.0669405 0)
  (0.0378477 -0.116847 0)
  (0.0486243 -0.145906 0)
  (0.05442 -0.154235 0)
  (0.0562634 -0.144717 0)
  (0.0557284 -0.122236 0)
  (0.0542341 -0.0924721 0)
  (0.0531582 -0.0609241 0)
  (0.053903 -0.0322636 0)
  (0.0577561 -0.0103941 0)
  (0.0651372 0.000822432 0)
  (0.0691836 -0.00332315 0)
  (0.0667008 -0.0115956 0)
  (0.0596009 -0.0175947 0)
  (0.0514045 -0.0204017 0)
  (0.0437032 -0.0204831 0)
  (0.0371929 -0.0185495 0)
  (0.0324373 -0.0149771 0)
  (0.0303055 -0.0103806 0)
  (0.0307562 -0.00780351 0)
  (0.0324591 -0.00702075 0)
  (0.0347628 -0.00683425 0)
  (0.0375502 -0.00635654 0)
  (0.0407743 -0.00484583 0)
  (0.0444028 -0.00136641 0)
  (0.0486873 0.00492974 0)
  (0.0524966 0.014027 0)
  (0.056851 0.0260057 0)
  (0.0655604 0.0382176 0)
  (0.0661359 0.0447359 0)
  (0.0911459 0.0612359 0)
  (0.0893575 0.0499785 0)
  (0.105732 0.0494158 0)
  (-0.139305 0.0863897 0)
  (0.604987 0.379742 0)
  (-0.242624 0.147975 0)
  (0.0202444 0.0750525 0)
  (0.0340859 0.0671673 0)
  (0.0451323 0.0378768 0)
  (0.0750401 -0.023695 0)
  (0.0986528 -0.0853258 0)
  (0.109463 -0.128225 0)
  (0.109813 -0.150069 0)
  (0.102469 -0.152609 0)
  (0.0903332 -0.139356 0)
  (0.0761306 -0.115098 0)
  (0.0622116 -0.0854224 0)
  (0.0504134 -0.0554747 0)
  (0.0422225 -0.029668 0)
  (0.0384145 -0.0111553 0)
  (0.0383693 -0.00175127 0)
  (0.038284 -0.00210402 0)
  (0.0353516 -0.00668901 0)
  (0.0298225 -0.0108449 0)
  (0.023179 -0.013237 0)
  (0.0165298 -0.0138879 0)
  (0.0106754 -0.0131911 0)
  (0.00633549 -0.0115673 0)
  (0.0041906 -0.00969044 0)
  (0.00417711 -0.0089269 0)
  (0.00546055 -0.00916886 0)
  (0.00746929 -0.00966517 0)
  (0.0100132 -0.00977776 0)
  (0.0131465 -0.00894098 0)
  (0.0171402 -0.00637803 0)
  (0.0229144 -0.000939187 0)
  (0.0305992 0.00783463 0)
  (0.0386412 0.0182478 0)
  (0.0484162 0.0283102 0)
  (0.0543758 0.0344746 0)
  (0.0670239 0.046614 0)
  (0.0721389 0.0531338 0)
  (0.116273 0.0714625 0)
  (-0.111116 0.140195 0)
  (0.696326 0.38096 0)
  (-0.0644825 0.120594 0)
  (0.083415 0.00399014 0)
  (0.131772 -0.0173381 0)
  (0.148584 -0.0442014 0)
  (0.178471 -0.0781416 0)
  (0.19146 -0.109478 0)
  (0.186897 -0.131076 0)
  (0.168894 -0.139368 0)
  (0.14242 -0.13417 0)
  (0.11238 -0.117636 0)
  (0.0824509 -0.0932118 0)
  (0.0555057 -0.0657184 0)
  (0.0334972 -0.0396215 0)
  (0.0180995 -0.0188524 0)
  (0.00935921 -0.00542391 0)
  (0.00555075 0.000701033 0)
  (0.00378316 0.000505588 0)
  (0.00121089 -0.00243346 0)
  (-0.00319448 -0.00531673 0)
  (-0.00852312 -0.00720748 0)
  (-0.0139722 -0.00817453 0)
  (-0.0187878 -0.00856404 0)
  (-0.0223412 -0.00872559 0)
  (-0.0242625 -0.00902507 0)
  (-0.0247464 -0.00985263 0)
  (-0.0243436 -0.01105 0)
  (-0.0234747 -0.0122057 0)
  (-0.022363 -0.0129647 0)
  (-0.0210313 -0.0130909 0)
  (-0.0191899 -0.0123189 0)
  (-0.0160471 -0.0101401 0)
  (-0.0094784 -0.00553691 0)
  (0.0023217 0.00182362 0)
  (0.0127338 0.00873538 0)
  (0.0202114 0.0123418 0)
  (0.030166 0.0182065 0)
  (0.0385049 0.0221832 0)
  (0.114932 0.0756337 0)
  (-0.3601 0.206555 0)
  (0.819431 0.370471 0)
  (0.39368 0.257828 0)
  (0.401179 0.18794 0)
  (0.406543 0.116294 0)
  (0.388548 0.0583855 0)
  (0.350858 0.000591229 0)
  (0.305822 -0.0483352 0)
  (0.256992 -0.0800039 0)
  (0.204821 -0.0929148 0)
  (0.152296 -0.0902388 0)
  (0.103431 -0.0766612 0)
  (0.0602609 -0.0563325 0)
  (0.024942 -0.0345037 0)
  (-0.00181377 -0.0152398 0)
  (-0.0176384 -0.00278372 0)
  (-0.0258865 0.0033715 0)
  (-0.0291781 0.00519202 0)
  (-0.0310137 0.00432157 0)
  (-0.0333186 0.00244874 0)
  (-0.0364143 0.000625446 0)
  (-0.0402612 -0.000823633 0)
  (-0.044297 -0.00200546 0)
  (-0.0479728 -0.00312898 0)
  (-0.050938 -0.00431202 0)
  (-0.0531213 -0.0056269 0)
  (-0.054747 -0.00714106 0)
  (-0.0561209 -0.00873376 0)
  (-0.0575159 -0.010167 0)
  (-0.0592828 -0.0112165 0)
  (-0.0619237 -0.0116864 0)
  (-0.0660651 -0.0111186 0)
  (-0.0723639 -0.00848367 0)
  (-0.0814256 -0.00191659 0)
  (-0.0922775 0.00914219 0)
  (-0.105996 0.0245146 0)
  (-0.128888 0.0454937 0)
  (-0.160288 0.0735711 0)
  (-0.200322 0.105841 0)
  (-0.265326 0.1355 0)
  (-0.523344 0.151952 0)
  (0.128885 0.0274474 0)
  (0.206524 0.0355733 0)
  (0.227004 0.000427667 0)
  (0.211211 -0.0300972 0)
  (0.186277 -0.0472013 0)
  (0.153857 -0.0543495 0)
  (0.113477 -0.053071 0)
  (0.0701909 -0.0452172 0)
  (0.0293952 -0.032388 0)
  (-0.00777864 -0.0152896 0)
  (-0.0332174 -0.00140359 0)
  (-0.0487324 0.0066666 0)
  (-0.0565917 0.0106814 0)
  (-0.0596629 0.0121817 0)
  (-0.0609119 0.0123942 0)
  (-0.061825 0.0118632 0)
  (-0.0631558 0.0111024 0)
  (-0.0649775 0.0104344 0)
  (-0.0670746 0.00987744 0)
  (-0.0693167 0.00928594 0)
  (-0.0717416 0.00843777 0)
  (-0.0743937 0.00749376 0)
  (-0.0773668 0.00681593 0)
  (-0.0807902 0.00657692 0)
  (-0.0847 0.00704381 0)
  (-0.0890236 0.0086452 0)
  (-0.0936809 0.0117686 0)
  (-0.0986321 0.016315 0)
  (-0.103996 0.0216643 0)
  (-0.110015 0.0260452 0)
  (-0.115767 0.0306314 0)
  (-0.120804 0.0373947 0)
  (-0.124969 0.0484353 0)
  (-0.1279 0.065107 0)
  (-0.127067 0.0861478 0)
  (-0.118525 0.0984867 0)
  (-0.105668 0.0613543 0)
  (-0.169593 -0.166383 0)
  (0.0202413 0.13458 0)
  (0.0549678 0.0608257 0)
  (0.0519714 -0.00709759 0)
  (0.0466629 -0.0444285 0)
  (0.0382202 -0.0556898 0)
  (0.0182194 -0.0572788 0)
  (-0.00819858 -0.0567815 0)
  (-0.0330351 -0.0565488 0)
  (-0.0547451 -0.0552137 0)
  (-0.0700163 -0.0556449 0)
  (-0.0781949 -0.0578745 0)
  (-0.0817638 -0.0601439 0)
  (-0.0829691 -0.0625991 0)
  (-0.082809 -0.0649655 0)
  (-0.0821393 -0.0672199 0)
  (-0.0814591 -0.0696529 0)
  (-0.0810614 -0.0723054 0)
  (-0.0810211 -0.075065 0)
  (-0.0813197 -0.0778426 0)
  (-0.0819582 -0.0805859 0)
  (-0.0830302 -0.0831909 0)
  (-0.0847129 -0.0858025 0)
  (-0.0871302 -0.0886109 0)
  (-0.0903942 -0.0920298 0)
  (-0.0946466 -0.0963586 0)
  (-0.0998598 -0.101176 0)
  (-0.105661 -0.10531 0)
  (-0.111356 -0.108001 0)
  (-0.116127 -0.107531 0)
  (-0.119346 -0.101296 0)
  (-0.120335 -0.0890056 0)
  (-0.117445 -0.0704006 0)
  (-0.10832 -0.0459712 0)
  (-0.0904793 -0.0174929 0)
  (-0.0631391 0.0100154 0)
  (-0.0292929 0.0214666 0)
  (0.0826179 -0.0779752 0)
  (-0.124926 -0.136769 0)
  (-0.0300448 -0.249036 0)
  (-0.302886 -0.0476568 0)
  (-0.218128 0.175669 0)
  (-0.164811 0.163299 0)
  (-0.123952 0.172493 0)
  (-0.10927 0.190193 0)
  (-0.108216 0.193414 0)
  (-0.113924 0.193551 0)
  (-0.120512 0.197596 0)
  (-0.124397 0.204355 0)
  (-0.124291 0.211372 0)
  (-0.121582 0.220869 0)
  (-0.117301 0.230196 0)
  (-0.112554 0.237309 0)
  (-0.108084 0.242724 0)
  (-0.104225 0.246852 0)
  (-0.101058 0.250193 0)
  (-0.0985905 0.253239 0)
  (-0.096845 0.256162 0)
  (-0.0958176 0.258949 0)
  (-0.0954979 0.261565 0)
  (-0.0958771 0.263994 0)
  (-0.0969016 0.266209 0)
  (-0.0984775 0.268474 0)
  (-0.100476 0.271116 0)
  (-0.102745 0.274938 0)
  (-0.105115 0.280608 0)
  (-0.107365 0.287726 0)
  (-0.10918 0.294887 0)
  (-0.110239 0.301568 0)
  (-0.110114 0.306136 0)
  (-0.107965 0.306526 0)
  (-0.102478 0.303065 0)
  (-0.0918849 0.296502 0)
  (-0.0745132 0.288758 0)
  (-0.0505597 0.28315 0)
  (-0.022489 0.284022 0)
  (0.0169915 0.292268 0)
  (0.12404 0.351381 0)
  (-0.279133 0.355485 0)
)
;

boundaryField
{
  floor
  {
    type noSlip;
  }
  ceiling
  {
    type noSlip;
  }
  sWall
  {
    type noSlip;
  }
  nWall
  {
    type noSlip;
  }
  sideWalls
  {
    type empty;
  }
  glass1
  {
    type noSlip;
  }
  glass2
  {
    type noSlip;
  }
  sun
  {
    type noSlip;
  }
  heatsource1
  {
    type noSlip;
  }
  heatsource2
  {
    type noSlip;
  }
  Table_master
  {
    type noSlip;
  }
  Table_slave
  {
    type noSlip;
  }
  inlet
  {
    type fixedValue;
    value uniform (0.277164 -0.114805 0);
  }
  outlet
  {
    type zeroGradient;
  }
} 	// ************************************************************************* //

