/*--------------------------------*- C++ -*----------------------------------*\
  =========                 |
  \\      /  F ield         | OpenFOAM: The Open Source CFD Toolbox
   \\    /   O peration     | Website:  https://openfoam.org
    \\  /    A nd           | Version:  6
     \\/     M anipulation  |
\*---------------------------------------------------------------------------*/
FoamFile
{
    version     2.0;
    format      ascii;
    class       volScalarField;
    location    "800";
    object      alphat;
}
// * * * * * * * * * * * * * * * * * * * * * * * * * * * * * * * * * * * * * //

dimensions      [1 -1 -1 0 0 0 0];

internalField   nonuniform List<scalar> 
459
(
0.00284815
0.00275679
0.00266557
0.00258539
0.00251768
0.00245899
0.00240681
0.00235844
0.00231137
0.00226332
0.00221185
0.00215371
0.00208366
0.00199052
0.00186604
0.000349213
0.000397342
0.00036176
0.000276806
0.000242231
0.000220678
0.000209471
0.000209096
0.000190219
0.000187358
0.000191314
0.000196323
0.000209079
0.000236207
0.000278411
0.000325912
0.0003481
0.000348178
0.000313431
0.00319085
0.00348047
0.00350423
0.00340628
0.00335377
0.00334999
0.00337361
0.00338526
0.00336717
0.00331531
0.00322688
0.00309712
0.00291214
0.00262986
0.00223916
0.00178068
0.00157636
0.000410873
0.000965616
0.00101396
0.00108379
0.00102548
0.000872787
0.000677158
0.000440779
0.000272976
0.000234163
0.000257663
0.000309081
0.00042374
0.000634253
0.000928701
0.00146654
0.00144138
0.00128084
0.000417134
0.00339275
0.00381821
0.00350772
0.00318239
0.00309569
0.00315167
0.00327191
0.00339941
0.00350153
0.00355371
0.0035395
0.00344818
0.00326977
0.00297913
0.00260387
0.00225245
0.00158662
0.000725699
0.00138552
0.00143297
0.00157359
0.00144137
0.00107845
0.000404846
0.000336266
0.000283859
0.000250906
0.00029235
0.000342209
0.000399651
0.000471635
0.00056711
0.00157261
0.0013948
0.00103243
0.000498358
0.00353841
0.00407281
0.00311488
0.0026149
0.00275697
0.00313766
0.00354552
0.00381207
0.0039283
0.00392133
0.00383319
0.00368504
0.00347483
0.00317457
0.00280983
0.00247046
0.00192669
0.00123157
0.00221271
0.00203
0.0019715
0.00166404
0.00125913
0.000881075
0.000615913
0.000634497
0.000650753
0.000665811
0.000682607
0.000704482
0.00073529
0.000780538
0.000855724
0.00260068
0.00280736
0.00252098
0.000876421
0.0036632
0.00413935
0.00244569
0.00234674
0.00360941
0.00469209
0.00534794
0.00548692
0.00506924
0.00456627
0.00415524
0.00383913
0.00355643
0.00323029
0.00286831
0.00254264
0.00211619
0.00177593
0.00252564
0.00317795
0.00328068
0.00323569
0.00321708
0.00323394
0.00326601
0.00329546
0.00329749
0.00327729
0.00324969
0.00323631
0.00325788
0.00332647
0.00344734
0.00364306
0.00370016
0.00358727
0.00304704
0.00131449
0.0011605
0.00101043
0.00378775
0.00400954
0.00186018
0.00319642
0.00523382
0.00584054
0.00605887
0.00598904
0.00533047
0.00465758
0.00415062
0.00378644
0.00347921
0.00315038
0.00281676
0.00253053
0.00227239
0.00228377
0.00325229
0.00406897
0.00428112
0.00436994
0.00446724
0.00455885
0.00461458
0.00463251
0.00460197
0.0045169
0.00438607
0.00423949
0.00411792
0.00404612
0.0040184
0.0040059
0.00397159
0.00387862
0.00360209
0.00296182
0.00225823
0.00108214
0.00393301
0.00374406
0.00181543
0.00295316
0.00496105
0.0052463
0.00519114
0.00502528
0.00469855
0.00427759
0.0038975
0.0035848
0.00330352
0.00301476
0.00274087
0.00253766
0.00245959
0.00281628
0.00391244
0.00463123
0.00485785
0.00502039
0.00517022
0.00529615
0.00539964
0.00548055
0.00552444
0.00550324
0.00538692
0.00517208
0.00490397
0.00464258
0.00441478
0.00420873
0.00398676
0.00369445
0.00326492
0.00269723
0.00208044
0.00107483
0.00414215
0.00388879
0.00228466
0.0019659
0.00382168
0.0041855
0.00413557
0.0040712
0.00397136
0.00378382
0.0035641
0.00334624
0.00313046
0.00291037
0.00271318
0.00260945
0.00269847
0.00338001
0.00447835
0.00502797
0.005284
0.0054862
0.00564614
0.00577482
0.00589408
0.00602481
0.0061767
0.00633543
0.00645008
0.00644389
0.00628034
0.00599108
0.00560877
0.00516463
0.00467668
0.00416791
0.00365174
0.00315557
0.00276035
0.00155434
0.00450751
0.00503878
0.00402609
0.00198629
0.00278838
0.00349691
0.00353675
0.00352658
0.00349856
0.0034357
0.00333509
0.00321355
0.00307782
0.00293211
0.00280304
0.00277286
0.00298409
0.00392251
0.00491796
0.00545336
0.0057684
0.00597341
0.00609613
0.00616386
0.00621293
0.00628164
0.00640681
0.00661729
0.00691695
0.00725246
0.0074753
0.00757229
0.00755804
0.00751681
0.0075215
0.0074095
0.00679359
0.00567652
0.00547972
0.00181458
0.00630659
0.00274086
0.0030037
0.00336155
0.00344151
0.00348097
0.00348628
0.00346081
0.00342376
0.00337368
0.00330608
0.00321763
0.00312533
0.00311906
0.00339475
0.00440981
0.0052667
0.00592056
0.00627282
0.00648504
0.0065817
0.0065944
0.00656511
0.00653632
0.00654735
0.0066338
0.00682267
0.00711191
0.00742077
0.00771003
0.00794022
0.00808799
0.00813667
0.00796152
0.00739359
0.00646434
0.00542412
0.00183271
0.00337057
0.0027811
0.00356415
0.00336051
0.0033195
0.00330852
0.00329902
0.00325972
0.00326546
0.00329143
0.00331515
0.0033129
0.00327124
0.00325999
0.00339665
0.00384117
0.00461389
0.00544633
0.00609351
0.00649425
0.00667598
0.00670743
0.0066609
0.00659399
0.00654525
0.00653673
0.00657798
0.00666568
0.00675925
0.00682498
0.00688008
0.00693406
0.00693875
0.00671878
0.00626529
0.00552255
0.00510748
0.00178505
0.00170456
0.00172122
0.00209864
0.00133185
0.00135695
0.00136692
0.00138386
0.00139922
0.00141416
0.00143006
0.00144474
0.0014593
0.00147313
0.00148424
0.00148847
0.00147357
0.001426
0.00137998
0.00135951
0.00136096
0.00139285
0.00143724
0.00147817
0.00150711
0.00152255
0.00152701
0.00152442
0.00151847
0.00151185
0.00150607
0.00150471
0.00150646
0.00150411
0.00149209
0.00146814
0.00144472
0.00141434
0.00137094
0.00138569
0.00127683
)
;

boundaryField
{
    floor
    {
        type            compressible::alphatWallFunction;
        Prt             0.85;
        value           nonuniform List<scalar> 
29
(
0.000259817
4.56859e-05
5.33493e-05
4.76972e-05
3.39025e-05
2.81282e-05
2.44732e-05
2.25529e-05
2.24903e-05
1.92233e-05
1.8725e-05
1.94175e-05
2.02877e-05
2.24883e-05
2.71086e-05
3.41569e-05
4.19214e-05
4.54958e-05
4.55108e-05
3.9901e-05
3.99004e-05
5.64449e-05
6.90147e-05
0.000124826
0.000259814
4.56853e-05
5.54603e-05
0.000103022
0.000174638
)
;
    }
    ceiling
    {
        type            compressible::alphatWallFunction;
        Prt             0.85;
        value           nonuniform List<scalar> 
43
(
0.00023875
0.000240926
0.000290248
0.000188523
0.000191941
0.000193297
0.000195598
0.00019768
0.000199705
0.000201857
0.000203839
0.000205805
0.000207669
0.000209163
0.00020973
0.000207714
0.000201281
0.00019504
0.000192255
0.00019245
0.000196776
0.000202782
0.000208302
0.000212194
0.000214265
0.000214861
0.000214511
0.000213711
0.00021282
0.000212041
0.000211857
0.00021209
0.000211772
0.000210153
0.000206925
0.000203763
0.000199654
0.000193766
0.000195767
0.000180932
0.000588752
0.000651983
0.00045071
)
;
    }
    sWall
    {
        type            compressible::alphatWallFunction;
        Prt             0.85;
        value           uniform 0.000237839;
    }
    nWall
    {
        type            compressible::alphatWallFunction;
        Prt             0.85;
        value           nonuniform List<scalar> 6(0.000143679 0.000153728 0.000152707 0.000255129 0.000248853 0.000180635);
    }
    sideWalls
    {
        type            empty;
    }
    glass1
    {
        type            compressible::alphatWallFunction;
        Prt             0.85;
        value           nonuniform List<scalar> 9(0.000380651 0.000423078 0.000447847 0.000465614 0.000480771 0.00049584 0.000513353 0.000538481 0.000582136);
    }
    glass2
    {
        type            compressible::alphatWallFunction;
        Prt             0.85;
        value           nonuniform List<scalar> 2(0.000217377 0.000251855);
    }
    sun
    {
        type            compressible::alphatWallFunction;
        Prt             0.85;
        value           nonuniform List<scalar> 
14
(
0.000385676
0.000374185
0.000362676
0.000352527
0.000343931
0.000336461
0.000329803
0.000323617
0.000317585
0.000311415
0.000304788
0.000297284
0.000288213
0.000276101
)
;
    }
    heatsource1
    {
        type            compressible::alphatWallFunction;
        Prt             0.85;
        value           nonuniform List<scalar> 3(0.000185989 0.000164827 0.000143889);
    }
    heatsource2
    {
        type            compressible::alphatWallFunction;
        Prt             0.85;
        value           nonuniform List<scalar> 4(0.000248497 0.000221359 0.000221356 0.000222728);
    }
    Table_master
    {
        type            compressible::alphatWallFunction;
        Prt             0.85;
        value           nonuniform List<scalar> 9(5.45912e-05 4.36721e-05 3.51297e-05 2.96415e-05 3.65127e-05 4.46147e-05 5.37578e-05 6.49801e-05 7.95381e-05);
    }
    Table_slave
    {
        type            compressible::alphatWallFunction;
        Prt             0.85;
        value           nonuniform List<scalar> 9(8.68702e-05 8.96378e-05 9.20506e-05 9.4279e-05 9.67574e-05 9.99745e-05 0.000104485 0.000111069 0.000121911);
    }
    inlet
    {
        type            fixedValue;
        value           uniform 1.94e-05;
    }
    outlet
    {
        type            zeroGradient;
    }
}


// ************************************************************************* //
