/*--------------------------------*- C++ -*----------------------------------*\
  =========                 |
  \\      /  F ield         | OpenFOAM: The Open Source CFD Toolbox
   \\    /   O peration     | Website:  https://openfoam.org
    \\  /    A nd           | Version:  6
     \\/     M anipulation  |
\*---------------------------------------------------------------------------*/
FoamFile
{
    version     2.0;
    format      ascii;
    class       volScalarField;
    location    "200";
    object      nut;
}
// * * * * * * * * * * * * * * * * * * * * * * * * * * * * * * * * * * * * * //

dimensions      [0 2 -1 0 0 0 0];

internalField   nonuniform List<scalar> 
459
(
0.00111065
0.00121664
0.00124267
0.00130393
0.00136117
0.00141558
0.0014702
0.00151886
0.00155026
0.00155847
0.00153879
0.00148835
0.0014056
0.0012931
0.00116275
0.000487989
0.000589911
0.000672769
0.000682893
0.000665893
0.00063868
0.000599185
0.000558743
0.000521888
0.000489214
0.000460342
0.000434746
0.000411926
0.00039151
0.000372736
0.000354665
0.000335931
0.000320982
0.000290708
0.00150211
0.00373504
0.0036026
0.00419666
0.00478839
0.00536934
0.00585206
0.00623942
0.00658116
0.00684855
0.00700959
0.00703366
0.00687573
0.00641771
0.00516377
0.00119777
0.00074533
0.000511337
0.00113789
0.00162506
0.00199485
0.0022092
0.0022068
0.00170774
0.00145179
0.00127372
0.00113926
0.00103369
0.000948593
0.000877626
0.00081106
0.000745394
0.000686034
0.000634966
0.000729481
0.000370726
0.00182564
0.00509308
0.00448953
0.00555238
0.00608965
0.00649124
0.00680354
0.00708205
0.0073817
0.00768643
0.00795902
0.00815852
0.00823839
0.00809943
0.00750745
0.00568788
0.00125379
0.000979372
0.0014877
0.00199721
0.00248141
0.00282639
0.00275347
0.00085507
0.0007505
0.000666468
0.000598814
0.000543867
0.000498774
0.000461473
0.000430745
0.000406143
0.000439871
0.000510682
0.000823507
0.000425234
0.00213419
0.00645296
0.00452448
0.00585148
0.0062709
0.00642194
0.00654951
0.00672878
0.00699186
0.00732297
0.00767333
0.00799161
0.00822342
0.00828159
0.00812806
0.00743336
0.0049108
0.00147132
0.00181901
0.00239855
0.00302468
0.00356605
0.00391576
0.00366619
0.000969278
0.000878602
0.000812969
0.000762322
0.000719114
0.000680448
0.00064325
0.000604439
0.000559912
0.000521275
0.000531995
0.000940394
0.000468533
0.00244819
0.00819133
0.004958
0.00569011
0.00621261
0.0062337
0.00621897
0.00635398
0.00659119
0.00693773
0.00732716
0.00768725
0.00793602
0.00803018
0.00796831
0.00770687
0.00704137
0.00594038
0.00560766
0.00557441
0.00563754
0.00569464
0.00567783
0.00544334
0.0045174
0.00406066
0.00378732
0.00357705
0.00336478
0.00307156
0.00269895
0.00225971
0.00177981
0.0013068
0.000961003
0.000970788
0.000629811
0.000576838
0.00069983
0.000786689
0.00278146
0.0100949
0.00674967
0.00576751
0.0061954
0.00624658
0.00620235
0.00627209
0.00645037
0.00676887
0.00717964
0.00757221
0.00783156
0.00789728
0.00779266
0.00760357
0.00741385
0.00726715
0.00724785
0.00724094
0.00717407
0.00703718
0.00683039
0.00652945
0.0060739
0.00566299
0.00530429
0.00496949
0.00463694
0.00427765
0.00385106
0.00334479
0.00276007
0.00213236
0.00159279
0.00120162
0.000895925
0.000758919
0.0010793
0.000821886
0.00308218
0.0114125
0.00934253
0.00739558
0.0070832
0.0068037
0.00649914
0.00637287
0.00648997
0.00683185
0.00729658
0.00772901
0.00798653
0.00800564
0.00783924
0.00765348
0.00763919
0.00782056
0.00800737
0.0080287
0.0078689
0.00758023
0.00720461
0.00676207
0.0062709
0.00579884
0.00536261
0.00495906
0.00459024
0.00426433
0.00398212
0.0036287
0.00317099
0.00262951
0.00212037
0.00167568
0.00134591
0.00124953
0.00127381
0.000947604
0.00313868
0.0100577
0.00899699
0.00831526
0.00758327
0.00683857
0.00637902
0.00630835
0.00659711
0.00712898
0.00772405
0.0081846
0.0083737
0.00827359
0.00800986
0.00783729
0.00795586
0.00822649
0.00831775
0.00813343
0.0077514
0.00724323
0.00666287
0.00606002
0.00548598
0.00497729
0.00453867
0.00416945
0.00387506
0.00366285
0.00353661
0.00346446
0.00324578
0.00290754
0.00262068
0.00247867
0.00257974
0.00296776
0.003609
0.00146451
0.00305464
0.00361427
0.00398592
0.00404455
0.00417907
0.00454261
0.00518448
0.0060684
0.0070654
0.00799587
0.00866948
0.00894031
0.00879464
0.00838405
0.00803437
0.00798872
0.00803477
0.00798942
0.00774156
0.00729432
0.00670038
0.0060292
0.00534973
0.00472375
0.0041903
0.00375457
0.00340296
0.00312131
0.00289701
0.00271599
0.00256368
0.00243523
0.00233775
0.00226672
0.00223777
0.00224191
0.00222145
0.0021254
0.00198243
0.00137637
0.00140028
0.00300771
0.0054341
0.00728774
0.00863416
0.00955883
0.0100504
0.0101391
0.0098402
0.00927664
0.00851778
0.00783081
0.00742391
0.00723733
0.0070053
0.006622
0.00609872
0.00549198
0.00487161
0.00428904
0.00377827
0.00335369
0.0030157
0.00274936
0.00254135
0.00238356
0.0022708
0.00219871
0.00216588
0.00216411
0.00217939
0.00220578
0.00223399
0.00223944
0.00218408
0.00205808
0.00186517
0.00114892
0.00195679
0.00545395
0.0080864
0.00913087
0.00955642
0.00956518
0.00920021
0.00857547
0.00782026
0.00709328
0.006451
0.00595084
0.0055747
0.00521971
0.0048229
0.00439783
0.00397678
0.00359107
0.00326198
0.00299402
0.00277969
0.00260589
0.00245899
0.00233327
0.00222843
0.00214752
0.00209452
0.00207231
0.00207979
0.0021151
0.00217434
0.00224883
0.00232076
0.00237045
0.00234617
0.00236898
0.0024161
0.00117309
0.00177159
0.00187784
0.00195261
0.00211471
0.00205038
0.0019807
0.00192635
0.00183989
0.00171784
0.00157139
0.00141291
0.00125387
0.0011126
0.00100298
0.000923546
0.000865692
0.000821421
0.000785747
0.000756283
0.000732191
0.000713142
0.000698823
0.000688995
0.0006837
0.000683233
0.000688363
0.00069987
0.00071825
0.000743627
0.000775911
0.000814763
0.000860182
0.000912475
0.000971867
0.00103746
0.00111564
0.00113817
0.00110677
0.00104125
0.000970643
)
;

boundaryField
{
    floor
    {
        type            nutkWallFunction;
        Cmu             0.09;
        kappa           0.41;
        E               9.8;
        value           nonuniform List<scalar> 
29
(
0.000139706
5.81705e-05
7.10812e-05
8.13756e-05
8.26231e-05
8.05282e-05
7.71609e-05
7.22426e-05
6.71652e-05
6.24987e-05
5.83277e-05
5.46129e-05
5.12952e-05
4.83165e-05
4.56339e-05
4.31512e-05
4.07462e-05
3.82363e-05
3.62204e-05
3.20993e-05
3.20992e-05
4.2884e-05
5.00554e-05
5.56689e-05
0.000139706
5.81704e-05
6.11546e-05
0.000118292
0.000174913
)
;
    }
    ceiling
    {
        type            nutkWallFunction;
        Cmu             0.09;
        kappa           0.41;
        E               9.8;
        value           nonuniform List<scalar> 
43
(
0.000208254
0.000219931
0.000228107
0.000245821
0.000238885
0.000231317
0.00022539
0.000215914
0.000202448
0.00018615
0.000168321
0.000150205
0.000133896
0.000121078
0.000111691
0.000104794
9.94811e-05
9.5175e-05
9.16011e-05
8.86663e-05
8.63378e-05
8.45824e-05
8.33751e-05
8.27236e-05
8.26658e-05
8.32965e-05
8.47095e-05
8.6961e-05
9.00585e-05
9.39813e-05
9.86768e-05
0.000104133
0.000110374
0.000117411
0.000125127
0.00013425
0.000136866
0.000133219
0.00012557
0.000117267
0.00034583
0.00040367
0.000228426
)
;
    }
    sWall
    {
        type            nutkWallFunction;
        Cmu             0.09;
        kappa           0.41;
        E               9.8;
        value           uniform 0.000208312;
    }
    nWall
    {
        type            nutkWallFunction;
        Cmu             0.09;
        kappa           0.41;
        E               9.8;
        value           nonuniform List<scalar> 6(9.52866e-05 9.95359e-05 0.000114547 0.000138122 0.000140919 0.000117272);
    }
    sideWalls
    {
        type            empty;
    }
    glass1
    {
        type            nutkWallFunction;
        Cmu             0.09;
        kappa           0.41;
        E               9.8;
        value           nonuniform List<scalar> 9(0.000133781 0.000178608 0.00021466 0.000248394 0.000282191 0.000317563 0.000349105 0.000355003 0.000346256);
    }
    glass2
    {
        type            nutkWallFunction;
        Cmu             0.09;
        kappa           0.41;
        E               9.8;
        value           nonuniform List<scalar> 2(0.000174222 0.000164246);
    }
    sun
    {
        type            nutkWallFunction;
        Cmu             0.09;
        kappa           0.41;
        E               9.8;
        value           nonuniform List<scalar> 
14
(
0.000133671
0.000145927
0.000148919
0.000155932
0.000162453
0.000168622
0.00017479
0.000180263
0.000183784
0.000184703
0.000182497
0.000176832
0.00016749
0.000154692
)
;
    }
    heatsource1
    {
        type            nutkWallFunction;
        Cmu             0.09;
        kappa           0.41;
        E               9.8;
        value           nonuniform List<scalar> 3(6.94434e-05 8.47042e-05 9.52864e-05);
    }
    heatsource2
    {
        type            nutkWallFunction;
        Cmu             0.09;
        kappa           0.41;
        E               9.8;
        value           nonuniform List<scalar> 4(0.000143746 9.0269e-05 9.0269e-05 0.000150188);
    }
    Table_master
    {
        type            nutkWallFunction;
        Cmu             0.09;
        kappa           0.41;
        E               9.8;
        value           nonuniform List<scalar> 9(0.00010352 9.08956e-05 8.06002e-05 7.21983e-05 6.52895e-05 5.95559e-05 5.47645e-05 5.0781e-05 4.75659e-05);
    }
    Table_slave
    {
        type            nutkWallFunction;
        Cmu             0.09;
        kappa           0.41;
        E               9.8;
        value           nonuniform List<scalar> 9(0.000117103 0.000106335 9.84606e-05 9.23332e-05 8.70675e-05 8.23234e-05 7.77289e-05 7.29009e-05 6.73151e-05);
    }
    inlet
    {
        type            calculated;
        value           uniform 0.000100623;
    }
    outlet
    {
        type            calculated;
        value           nonuniform List<scalar> 2(0.00177159 0.00187784);
    }
}


// ************************************************************************* //
