/*--------------------------------*- C++ -*----------------------------------*\
  =========                 |
  \\      /  F ield         | OpenFOAM: The Open Source CFD Toolbox
   \\    /   O peration     | Website:  https://openfoam.org
    \\  /    A nd           | Version:  6
     \\/     M anipulation  |
\*---------------------------------------------------------------------------*/
FoamFile
{
    version     2.0;
    format      ascii;
    class       volScalarField;
    location    "150";
    object      epsilon;
}
// * * * * * * * * * * * * * * * * * * * * * * * * * * * * * * * * * * * * * //

dimensions      [0 2 -3 0 0 0 0];

internalField   nonuniform List<scalar> 
459
(
0.000388306
0.000522827
0.000576135
0.00067526
0.000781424
0.000900224
0.00102406
0.00111915
0.0011609
0.00113264
0.00103023
0.000852865
0.000586857
0.000362651
0.000229688
6.88235e-05
0.000141571
0.000156093
0.000173261
0.000169155
0.000153926
0.000126279
0.000100804
8.0987e-05
6.59909e-05
5.45561e-05
4.5722e-05
3.88444e-05
3.33234e-05
2.87071e-05
2.462e-05
2.09145e-05
1.63021e-05
1.60008e-05
0.00088313
0.00116727
0.000484421
0.000485851
0.000528745
0.00060334
0.000703002
0.00079304
0.000839784
0.00082565
0.000752428
0.000631899
0.00049013
0.000381564
0.000276367
0.00046383
0.000217226
0.000256288
0.000474861
0.000235866
0.0001782
0.00015043
0.000133074
0.000130651
0.000105259
8.21117e-05
6.41265e-05
5.05773e-05
4.04061e-05
3.27768e-05
2.70011e-05
2.283e-05
2.05501e-05
2.437e-05
2.77538e-05
3.52746e-05
0.00151734
0.00257061
0.000555736
0.000465303
0.000521418
0.000631669
0.000770357
0.000881922
0.000932752
0.000917218
0.000840678
0.000715573
0.000586473
0.000472033
0.000367614
0.000344673
0.000444575
0.00031015
0.000391663
0.000261165
0.000204886
0.000171006
0.000158697
0.000338591
0.000218546
0.000147432
0.000104047
7.65242e-05
5.83852e-05
4.61385e-05
3.77902e-05
3.2368e-05
2.5093e-05
2.63536e-05
4.02861e-05
4.98114e-05
0.00234975
0.00508995
0.000801791
0.000482643
0.000549119
0.000721025
0.000912419
0.00102962
0.00106778
0.00103984
0.000947343
0.000817583
0.000678071
0.000551897
0.00045037
0.00038499
0.000367646
0.000674092
0.000501443
0.000353169
0.000271242
0.00022143
0.000188264
0.000179843
0.000465975
0.000345966
0.00027364
0.000225226
0.000189389
0.000161039
0.000137295
0.00011558
9.40378e-05
5.53141e-05
3.95934e-05
6.85919e-05
7.27081e-05
0.00346778
0.00893141
0.00146313
0.000582124
0.000643034
0.000966602
0.00118832
0.00127094
0.00127313
0.00121462
0.00109674
0.000934433
0.000757028
0.000596586
0.00047194
0.000387363
0.000346677
0.000345682
0.000317901
0.000291897
0.000264073
0.000235101
0.000206809
0.000183626
0.000182225
0.000168023
0.00015306
0.000138745
0.000124852
0.000111203
9.75877e-05
8.39473e-05
7.06535e-05
5.56243e-05
4.39455e-05
6.64192e-05
7.61276e-05
9.91352e-05
8.91192e-05
7.26736e-05
0.00500417
0.013315
0.00317973
0.00106316
0.00106756
0.0015613
0.00166051
0.00164217
0.0015796
0.00147026
0.00130039
0.00108006
0.000844696
0.000635729
0.000478931
0.000381308
0.000338788
0.000330689
0.000326042
0.000314703
0.000294536
0.000267204
0.000236246
0.000206208
0.000183668
0.000167283
0.00015456
0.000142816
0.000130725
0.000117701
0.000103504
8.88434e-05
7.48929e-05
6.26917e-05
5.27707e-05
5.7188e-05
7.03858e-05
7.6802e-05
0.000152568
0.000119247
0.00674142
0.0160769
0.00670643
0.00323334
0.00291874
0.00265706
0.00239748
0.00218651
0.00201027
0.00181599
0.0015642
0.00126123
0.000950749
0.000686702
0.000501181
0.000399007
0.000365155
0.000367478
0.000370926
0.00036203
0.000340102
0.000308817
0.000273626
0.000240074
0.000213634
0.000195571
0.000182358
0.000170409
0.000158131
0.000145216
0.000131677
0.000117379
0.000104432
9.41454e-05
8.69715e-05
8.38712e-05
8.80295e-05
9.55168e-05
0.00024252
0.000185938
0.00715466
0.0180345
0.0101793
0.00704692
0.00524853
0.00404763
0.00330879
0.00286605
0.00255938
0.00225326
0.00188266
0.00146529
0.00106111
0.000743568
0.000545896
0.000456086
0.000436086
0.000444081
0.000447093
0.00043374
0.000406582
0.000371992
0.00033697
0.000306211
0.00028271
0.000265852
0.000251882
0.000237457
0.000221567
0.000205417
0.000191911
0.00018437
0.000183654
0.000191214
0.000213307
0.000242308
0.000286524
0.000351527
0.00138847
0.000324995
0.00665959
0.0111169
0.00925429
0.00713211
0.00556053
0.00454657
0.00392926
0.00354158
0.0031934
0.00274144
0.0021811
0.00161455
0.00112251
0.000808405
0.000670532
0.000616547
0.000608125
0.000614154
0.000613395
0.000598527
0.000573496
0.000546224
0.000521936
0.00050161
0.000485156
0.000470081
0.000451857
0.000425526
0.000389242
0.000345557
0.000302422
0.000270757
0.000264612
0.000283789
0.000329454
0.000404638
0.000511706
0.000652524
0.000811311
0.000449779
0.00389081
0.00555081
0.0050556
0.00474843
0.00456731
0.00426228
0.00368449
0.00286248
0.00202441
0.00155634
0.00130001
0.00117698
0.00113183
0.00112702
0.00114062
0.00115796
0.00117067
0.00117696
0.00117894
0.00117937
0.00117938
0.00117919
0.00117595
0.00116547
0.00114149
0.00109106
0.00100656
0.000888418
0.000753967
0.000616723
0.000496771
0.000421722
0.000405173
0.000448769
0.000542233
0.000665451
0.000830265
0.00090784
0.00223527
0.00382803
0.00538388
0.00621515
0.00649966
0.00607941
0.00517917
0.00415753
0.00336803
0.00290642
0.00268047
0.00259703
0.00259535
0.00264034
0.00271566
0.00280884
0.00290417
0.00298936
0.00306079
0.00312201
0.00317801
0.00323178
0.00328327
0.00332649
0.00334786
0.00332963
0.00324613
0.00307237
0.00279077
0.00241629
0.00199152
0.00157183
0.00122016
0.000975408
0.00083844
0.000800461
0.00194341
0.00141092
0.00100459
0.00126886
0.00161892
0.00198962
0.0024203
0.00289222
0.00316001
0.00314639
0.00295943
0.00273044
0.00247696
0.002284
0.00216199
0.00209522
0.0020659
0.00205875
0.00206127
0.00206411
0.00206251
0.002056
0.00204627
0.00203504
0.00202296
0.00200927
0.0019914
0.00196524
0.00192566
0.00186613
0.00178183
0.00167152
0.0015411
0.00139984
0.00125965
0.00113232
0.00102559
0.000941109
0.0008715
0.000811292
0.000924851
0.000838939
)
;

boundaryField
{
    floor
    {
        Cmu             0.09;
        kappa           0.41;
        E               9.8;
        type            epsilonWallFunction;
        value           nonuniform List<scalar> 
29
(
0.000229688
6.88235e-05
0.000141571
0.000156093
0.000173261
0.000169155
0.000153926
0.000126279
0.000100804
8.0987e-05
6.59909e-05
5.45561e-05
4.5722e-05
3.88444e-05
3.33234e-05
2.87071e-05
2.462e-05
2.09145e-05
1.63021e-05
1.60008e-05
1.60008e-05
3.52746e-05
4.98114e-05
7.27081e-05
0.000229688
6.88235e-05
0.000256288
0.00031015
0.000674092
)
;
    }
    ceiling
    {
        Cmu             0.09;
        kappa           0.41;
        E               9.8;
        type            epsilonWallFunction;
        value           nonuniform List<scalar> 
43
(
0.00100459
0.00126886
0.00161892
0.00198962
0.0024203
0.00289222
0.00316001
0.00314639
0.00295943
0.00273044
0.00247696
0.002284
0.00216199
0.00209522
0.0020659
0.00205875
0.00206127
0.00206411
0.00206251
0.002056
0.00204627
0.00203504
0.00202296
0.00200927
0.0019914
0.00196524
0.00192566
0.00186613
0.00178183
0.00167152
0.0015411
0.00139984
0.00125965
0.00113232
0.00102559
0.000941109
0.0008715
0.000811292
0.000924851
0.000838939
0.00665959
0.0111169
0.00223527
)
;
    }
    sWall
    {
        Cmu             0.09;
        kappa           0.41;
        E               9.8;
        type            epsilonWallFunction;
        value           uniform 0.00100459;
    }
    nWall
    {
        Cmu             0.09;
        kappa           0.41;
        E               9.8;
        type            epsilonWallFunction;
        value           nonuniform List<scalar> 6(7.26736e-05 0.000119247 0.000185938 0.00090784 0.00141092 0.000838939);
    }
    sideWalls
    {
        type            empty;
    }
    glass1
    {
        Cmu             0.09;
        kappa           0.41;
        E               9.8;
        type            epsilonWallFunction;
        value           nonuniform List<scalar> 9(0.000388306 0.00088313 0.00151734 0.00234975 0.00346778 0.00500417 0.00674142 0.00715466 0.00665959);
    }
    glass2
    {
        Cmu             0.09;
        kappa           0.41;
        E               9.8;
        type            epsilonWallFunction;
        value           nonuniform List<scalar> 2(0.000324995 0.000449779);
    }
    sun
    {
        Cmu             0.09;
        kappa           0.41;
        E               9.8;
        type            epsilonWallFunction;
        value           nonuniform List<scalar> 
14
(
0.000388306
0.000522827
0.000576135
0.00067526
0.000781424
0.000900224
0.00102406
0.00111915
0.0011609
0.00113264
0.00103023
0.000852865
0.000586857
0.000362651
)
;
    }
    heatsource1
    {
        Cmu             0.09;
        kappa           0.41;
        E               9.8;
        type            epsilonWallFunction;
        value           nonuniform List<scalar> 3(9.91352e-05 8.91192e-05 7.26736e-05);
    }
    heatsource2
    {
        Cmu             0.09;
        kappa           0.41;
        E               9.8;
        type            epsilonWallFunction;
        value           nonuniform List<scalar> 4(0.00046383 0.000217226 0.000217226 0.000444575);
    }
    Table_master
    {
        Cmu             0.09;
        kappa           0.41;
        E               9.8;
        type            epsilonWallFunction;
        value           nonuniform List<scalar> 9(0.000338591 0.000218546 0.000147432 0.000104047 7.65242e-05 5.83852e-05 4.61385e-05 3.77902e-05 3.2368e-05);
    }
    Table_slave
    {
        Cmu             0.09;
        kappa           0.41;
        E               9.8;
        type            epsilonWallFunction;
        value           nonuniform List<scalar> 9(0.000465975 0.000345966 0.00027364 0.000225226 0.000189389 0.000161039 0.000137295 0.00011558 9.40378e-05);
    }
    inlet
    {
        type            turbulentMixingLengthDissipationRateInlet;
        mixingLength    0.01;
        phi             phi;
        k               k;
        value           uniform 3.01869e-05;
    }
    outlet
    {
        type            zeroGradient;
    }
}


// ************************************************************************* //
