/*--------------------------------*- C++ -*----------------------------------*\
  =========                 |
  \\      /  F ield         | OpenFOAM: The Open Source CFD Toolbox
   \\    /   O peration     | Website:  https://openfoam.org
    \\  /    A nd           | Version:  6
     \\/     M anipulation  |
\*---------------------------------------------------------------------------*/
FoamFile
{
    version     2.0;
    format      ascii;
    class       volVectorField;
    location    "150";
    object      U;
}
// * * * * * * * * * * * * * * * * * * * * * * * * * * * * * * * * * * * * * //

dimensions      [0 1 -1 0 0 0 0];

internalField   nonuniform List<vector> 
459
(
(0.0170699 0.0763644 0)
(-0.150413 0.0245837 0)
(-0.177078 0.0144141 0)
(-0.202958 0.00669265 0)
(-0.216838 -0.00159874 0)
(-0.216728 -0.0103549 0)
(-0.20161 -0.0195688 0)
(-0.17306 -0.0280654 0)
(-0.134588 -0.0340577 0)
(-0.0916124 -0.0365318 0)
(-0.0498637 -0.0351422 0)
(-0.0133245 -0.0292885 0)
(0.0154499 -0.0152537 0)
(0.0220931 -0.00033139 0)
(0.0632982 0.0203671 0)
(-0.134938 0.00726901 0)
(0.0426086 0.00206669 0)
(0.0014953 -0.00734074 0)
(0.019244 -0.0141815 0)
(0.0353515 -0.013501 0)
(0.049576 -0.0104391 0)
(0.0593675 -0.00610607 0)
(0.0647629 -0.00358815 0)
(0.067043 -0.00265201 0)
(0.0679428 -0.00230518 0)
(0.0683868 -0.00207395 0)
(0.0685187 -0.00183581 0)
(0.0681829 -0.00146779 0)
(0.0670134 -0.000733712 0)
(0.0641751 0.000910302 0)
(0.0579858 0.00438285 0)
(0.0480929 0.00977385 0)
(-0.00883223 0.0213456 0)
(0.117561 -0.00128491 0)
(0.159902 0.156496 0)
(-0.136557 0.0662092 0)
(-0.142321 0.0476713 0)
(-0.169016 0.031553 0)
(-0.183176 0.0129981 0)
(-0.183684 -0.00794906 0)
(-0.169525 -0.0299388 0)
(-0.143173 -0.0489364 0)
(-0.108864 -0.0609308 0)
(-0.071847 -0.0645135 0)
(-0.036944 -0.0600231 0)
(-0.00685489 -0.0478538 0)
(0.0165643 -0.0285994 0)
(0.0307575 -0.00856779 0)
(0.0476958 0.015021 0)
(0.0466044 0.0231021 0)
(0.0317577 0.0306763 0)
(-0.144899 0.000850815 0)
(0.0336491 -0.0152221 0)
(0.0277411 -0.0210376 0)
(0.0394756 -0.0248715 0)
(0.0517133 -0.0224941 0)
(0.0615735 -0.016983 0)
(0.0664556 -0.00746942 0)
(0.0677012 -0.00162031 0)
(0.0677304 0.000658655 0)
(0.0678997 0.00153786 0)
(0.0682204 0.00206906 0)
(0.0684705 0.00257532 0)
(0.0685429 0.00326916 0)
(0.0683899 0.00464698 0)
(0.0674307 0.00784418 0)
(0.0630613 0.0160413 0)
(0.0555709 0.0254171 0)
(-0.000232432 0.0382788 0)
(0.171309 0.0223605 0)
(0.292014 0.233773 0)
(-0.145207 0.103282 0)
(-0.107647 0.076037 0)
(-0.133499 0.0487194 0)
(-0.146561 0.0181778 0)
(-0.146036 -0.015983 0)
(-0.130559 -0.050925 0)
(-0.104643 -0.0794968 0)
(-0.0737608 -0.0954581 0)
(-0.0425716 -0.0980171 0)
(-0.0146739 -0.0888211 0)
(0.0090598 -0.0695388 0)
(0.0265821 -0.0453211 0)
(0.0391014 -0.0196709 0)
(0.0477698 0.00643563 0)
(0.049193 0.027865 0)
(0.0412222 0.0600465 0)
(-0.104903 -0.0111106 0)
(0.0447477 -0.0349719 0)
(0.0542525 -0.039492 0)
(0.0605937 -0.0371651 0)
(0.0672104 -0.0318607 0)
(0.0729082 -0.0266943 0)
(0.0738115 -0.0203654 0)
(0.0676269 -0.0132684 0)
(0.0627928 -0.00950039 0)
(0.0608666 -0.0074295 0)
(0.0602918 -0.00611038 0)
(0.0601386 -0.00515871 0)
(0.060466 -0.00422021 0)
(0.0619836 -0.00276701 0)
(0.0663842 0.00171627 0)
(0.0672 0.0209696 0)
(0.063173 0.0364952 0)
(0.00630198 0.0541047 0)
(0.201812 0.0538299 0)
(0.413386 0.29586 0)
(-0.169533 0.135115 0)
(-0.0715634 0.100723 0)
(-0.0957027 0.0642491 0)
(-0.105188 0.0234508 0)
(-0.0995659 -0.0240754 0)
(-0.0801067 -0.072299 0)
(-0.0545895 -0.108663 0)
(-0.028794 -0.126038 0)
(-0.00508321 -0.125979 0)
(0.0149351 -0.111419 0)
(0.0303644 -0.0880287 0)
(0.0427995 -0.0597311 0)
(0.0527785 -0.0302001 0)
(0.0618544 -0.0010662 0)
(0.0720802 0.0257781 0)
(0.0864715 0.0531422 0)
(0.114221 -0.0173685 0)
(0.108064 -0.0233777 0)
(0.10045 -0.0360387 0)
(0.0888983 -0.0401228 0)
(0.0810074 -0.0375282 0)
(0.0764609 -0.0320481 0)
(0.0727314 -0.0246868 0)
(0.0733854 -0.0148234 0)
(0.08046 -0.0098297 0)
(0.0857774 -0.00706814 0)
(0.0882802 -0.00539403 0)
(0.0892673 -0.00411103 0)
(0.0891487 -0.00282781 0)
(0.0873959 -0.00119677 0)
(0.0828557 0.00127588 0)
(0.0733413 0.00520078 0)
(0.0650932 0.0252005 0)
(0.0674433 0.0437091 0)
(0.019317 0.0650544 0)
(0.218402 0.101328 0)
(0.520793 0.343547 0)
(-0.202516 0.159943 0)
(-0.0360073 0.11555 0)
(-0.0560291 0.0734894 0)
(-0.0589606 0.0247253 0)
(-0.0400712 -0.0366132 0)
(-0.0160911 -0.095078 0)
(0.00646493 -0.134018 0)
(0.0239135 -0.148006 0)
(0.0371632 -0.143433 0)
(0.0468048 -0.125462 0)
(0.0536898 -0.0990272 0)
(0.0589483 -0.0687089 0)
(0.063729 -0.0382204 0)
(0.0698696 -0.0100511 0)
(0.0790366 0.013339 0)
(0.093268 0.0255085 0)
(0.105807 0.00432691 0)
(0.104654 -0.01084 0)
(0.0951228 -0.0232344 0)
(0.0846427 -0.0288611 0)
(0.0755939 -0.028907 0)
(0.0684067 -0.0255309 0)
(0.0629796 -0.0194541 0)
(0.0609799 -0.010322 0)
(0.0621453 -0.00487676 0)
(0.0634573 -0.00238769 0)
(0.0641731 -0.00108455 0)
(0.0646951 0.000106452 0)
(0.06523 0.00178448 0)
(0.065427 0.00443573 0)
(0.0649595 0.00871384 0)
(0.0635769 0.0155626 0)
(0.0633206 0.0284182 0)
(0.0727082 0.0429871 0)
(0.0568353 0.0571774 0)
(0.147881 0.0971081 0)
(0.13592 0.07973 0)
(0.110664 0.0606387 0)
(-0.0983033 0.064158 0)
(0.602131 0.382471 0)
(-0.237172 0.175321 0)
(-0.00749466 0.113271 0)
(-0.0137829 0.073996 0)
(-0.00278237 0.0157473 0)
(0.0356473 -0.0619715 0)
(0.0583857 -0.117767 0)
(0.0725573 -0.149397 0)
(0.0792675 -0.158505 0)
(0.0805375 -0.149812 0)
(0.078121 -0.128644 0)
(0.0738088 -0.100388 0)
(0.0693269 -0.0696657 0)
(0.0661734 -0.0401907 0)
(0.0658357 -0.0147616 0)
(0.0695404 0.00405325 0)
(0.0771216 0.0119771 0)
(0.08195 0.00338002 0)
(0.0796752 -0.00804525 0)
(0.0724353 -0.016366 0)
(0.063796 -0.0205487 0)
(0.0553631 -0.0210685 0)
(0.0479253 -0.018886 0)
(0.0420547 -0.0146107 0)
(0.0386099 -0.00900763 0)
(0.0375556 -0.00530204 0)
(0.0376062 -0.00353194 0)
(0.0381525 -0.0026341 0)
(0.039182 -0.0017791 0)
(0.0408223 -0.0003274 0)
(0.0432031 0.00236982 0)
(0.0459836 0.006879 0)
(0.0492368 0.0137121 0)
(0.0538768 0.023371 0)
(0.0636143 0.0336 0)
(0.0627905 0.0375742 0)
(0.0913005 0.0573085 0)
(0.0897226 0.0496098 0)
(0.0987795 0.0512033 0)
(-0.116172 0.0919608 0)
(0.657284 0.417041 0)
(-0.255338 0.160342 0)
(0.0221684 0.0667927 0)
(0.0473253 0.0393481 0)
(0.0905848 -0.0246939 0)
(0.122604 -0.0902954 0)
(0.1387 -0.13486 0)
(0.14136 -0.155926 0)
(0.133637 -0.156823 0)
(0.119237 -0.142598 0)
(0.101594 -0.118533 0)
(0.0836456 -0.0897921 0)
(0.0677525 -0.0604585 0)
(0.0555086 -0.033782 0)
(0.0479685 -0.0122782 0)
(0.0453551 0.00229844 0)
(0.0472144 0.0080325 0)
(0.0483085 0.00380109 0)
(0.0461072 -0.00354257 0)
(0.0407277 -0.00946613 0)
(0.033728 -0.0128299 0)
(0.0263826 -0.0136564 0)
(0.0195796 -0.0124862 0)
(0.0140729 -0.00993034 0)
(0.0105787 -0.00682984 0)
(0.00913482 -0.00476372 0)
(0.00901911 -0.00392137 0)
(0.00972072 -0.00371948 0)
(0.0111104 -0.00359231 0)
(0.0132967 -0.00304068 0)
(0.0166815 -0.00141215 0)
(0.021933 0.00214076 0)
(0.0282646 0.00786454 0)
(0.035905 0.0153807 0)
(0.0455496 0.023373 0)
(0.0499217 0.0280761 0)
(0.0617423 0.0425368 0)
(0.0664477 0.0529736 0)
(0.106084 0.0724837 0)
(-0.105106 0.14261 0)
(0.755382 0.413698 0)
(-0.0492972 0.131018 0)
(0.100342 -0.0225574 0)
(0.17952 -0.0693351 0)
(0.218688 -0.096891 0)
(0.23081 -0.123576 0)
(0.225303 -0.141223 0)
(0.205539 -0.145124 0)
(0.175549 -0.136061 0)
(0.140701 -0.117142 0)
(0.105532 -0.0922158 0)
(0.0735262 -0.0656048 0)
(0.0472232 -0.0404127 0)
(0.027908 -0.0191322 0)
(0.0158774 -0.00354751 0)
(0.010252 0.00561648 0)
(0.00998605 0.00820347 0)
(0.00995712 0.00511128 0)
(0.00801019 0.000188003 0)
(0.00415506 -0.00390271 0)
(-0.00151395 -0.00632543 0)
(-0.00762101 -0.00711741 0)
(-0.0132692 -0.00675234 0)
(-0.0177744 -0.00576115 0)
(-0.0206559 -0.0047379 0)
(-0.0219747 -0.00433488 0)
(-0.022209 -0.00460997 0)
(-0.0217608 -0.00526862 0)
(-0.0208378 -0.0060286 0)
(-0.0194502 -0.00667124 0)
(-0.017334 -0.00693348 0)
(-0.0138932 -0.00630553 0)
(-0.00765906 -0.0040315 0)
(0.00205276 0.000166691 0)
(0.0112564 0.00517987 0)
(0.0163625 0.00873496 0)
(0.023961 0.0179075 0)
(0.0302955 0.0271531 0)
(0.104085 0.0811151 0)
(-0.359192 0.20582 0)
(0.890965 0.402717 0)
(0.423546 0.278368 0)
(0.430585 0.166037 0)
(0.449335 0.0802588 0)
(0.413766 0.0118814 0)
(0.355184 -0.0433215 0)
(0.295377 -0.0770288 0)
(0.235439 -0.0890039 0)
(0.175891 -0.0845091 0)
(0.12047 -0.069656 0)
(0.0717589 -0.0496241 0)
(0.0320082 -0.0295599 0)
(0.00242305 -0.0119683 0)
(-0.0166992 0.000794266 0)
(-0.0262686 0.00760647 0)
(-0.0293258 0.0103369 0)
(-0.0296164 0.0102423 0)
(-0.0299071 0.0079416 0)
(-0.0316324 0.00493668 0)
(-0.0346603 0.00243489 0)
(-0.038645 0.000828145 0)
(-0.0430115 -3.62086e-05 0)
(-0.0471201 -0.000457922 0)
(-0.0504642 -0.000737435 0)
(-0.0528477 -0.00112938 0)
(-0.0543934 -0.0018482 0)
(-0.0554102 -0.00289358 0)
(-0.0562209 -0.00411686 0)
(-0.0571926 -0.00535797 0)
(-0.0587731 -0.00639495 0)
(-0.0615405 -0.00679156 0)
(-0.0663007 -0.00557977 0)
(-0.0743176 -0.0010392 0)
(-0.0853149 0.00782859 0)
(-0.0998707 0.0220172 0)
(-0.122765 0.0429263 0)
(-0.153119 0.0717484 0)
(-0.192584 0.104583 0)
(-0.257366 0.132909 0)
(-0.502228 0.143122 0)
(-0.193728 0.0299099 0)
(0.0837071 -0.024022 0)
(0.157865 -0.0686863 0)
(0.141934 -0.0751009 0)
(0.118275 -0.0657334 0)
(0.0874303 -0.0523857 0)
(0.0506307 -0.0377817 0)
(0.0138495 -0.0217556 0)
(-0.0198561 -0.00516223 0)
(-0.0430156 0.00504806 0)
(-0.0574739 0.01141 0)
(-0.0644394 0.0147495 0)
(-0.0669851 0.0161491 0)
(-0.0673128 0.0164731 0)
(-0.0668724 0.01603 0)
(-0.0668336 0.0149469 0)
(-0.0677882 0.0136985 0)
(-0.069634 0.0127608 0)
(-0.0719978 0.012311 0)
(-0.0744873 0.0122401 0)
(-0.0768492 0.0123967 0)
(-0.0790485 0.0127228 0)
(-0.0811271 0.013186 0)
(-0.0832451 0.0137595 0)
(-0.0855985 0.0145381 0)
(-0.0882811 0.0160164 0)
(-0.0913312 0.0184786 0)
(-0.0947976 0.0219699 0)
(-0.0988591 0.025851 0)
(-0.103529 0.0301574 0)
(-0.108247 0.0347727 0)
(-0.113083 0.0410463 0)
(-0.117514 0.0510259 0)
(-0.120705 0.0670967 0)
(-0.120269 0.0893343 0)
(-0.114188 0.105826 0)
(-0.105383 0.076145 0)
(-0.131086 -0.165279 0)
(-0.117114 0.0833275 0)
(0.0840026 -0.0240099 0)
(0.0640031 -0.0770328 0)
(0.0229711 -0.080074 0)
(-0.0103541 -0.0716802 0)
(-0.0365303 -0.0676999 0)
(-0.0603373 -0.0651893 0)
(-0.0790722 -0.0622191 0)
(-0.0904627 -0.0619717 0)
(-0.0956581 -0.0636649 0)
(-0.0980815 -0.0662637 0)
(-0.098294 -0.0690097 0)
(-0.0972077 -0.071464 0)
(-0.0954753 -0.0735938 0)
(-0.0936011 -0.0757865 0)
(-0.0920572 -0.0784249 0)
(-0.0911284 -0.0814619 0)
(-0.0908264 -0.0846087 0)
(-0.0910048 -0.0876525 0)
(-0.0915011 -0.0905696 0)
(-0.0922193 -0.0934436 0)
(-0.0931319 -0.0964045 0)
(-0.0942696 -0.0996143 0)
(-0.0957456 -0.103186 0)
(-0.0977407 -0.107169 0)
(-0.100367 -0.111679 0)
(-0.10352 -0.116397 0)
(-0.106915 -0.120457 0)
(-0.110193 -0.122107 0)
(-0.112868 -0.119724 0)
(-0.114004 -0.111612 0)
(-0.111945 -0.0962919 0)
(-0.103998 -0.0735178 0)
(-0.0868939 -0.0447131 0)
(-0.059022 -0.0152276 0)
(-0.0230718 -0.0021058 0)
(0.0711167 -0.106702 0)
(-0.0824003 -0.176717 0)
(0.300111 -0.144384 0)
(-0.243633 -0.0552381 0)
(-0.153828 0.201753 0)
(-0.0952257 0.232293 0)
(-0.110464 0.228601 0)
(-0.127037 0.224956 0)
(-0.14113 0.226289 0)
(-0.149885 0.230535 0)
(-0.153655 0.237302 0)
(-0.152358 0.244228 0)
(-0.14817 0.253736 0)
(-0.14236 0.262784 0)
(-0.136287 0.270705 0)
(-0.130546 0.27707 0)
(-0.125421 0.281936 0)
(-0.120908 0.285788 0)
(-0.116977 0.289259 0)
(-0.113697 0.292769 0)
(-0.111155 0.296354 0)
(-0.109359 0.299852 0)
(-0.108243 0.303144 0)
(-0.10772 0.306247 0)
(-0.107709 0.30929 0)
(-0.108134 0.312488 0)
(-0.108921 0.316129 0)
(-0.109975 0.320495 0)
(-0.111148 0.32585 0)
(-0.112266 0.332528 0)
(-0.113123 0.340407 0)
(-0.113439 0.348818 0)
(-0.112746 0.356301 0)
(-0.110325 0.361652 0)
(-0.105077 0.363729 0)
(-0.0953202 0.361922 0)
(-0.0792791 0.35727 0)
(-0.0567228 0.35294 0)
(-0.0298984 0.354973 0)
(0.00916438 0.366111 0)
(0.106579 0.440723 0)
(-0.253985 0.474043 0)
)
;

boundaryField
{
    floor
    {
        type            noSlip;
    }
    ceiling
    {
        type            noSlip;
    }
    sWall
    {
        type            noSlip;
    }
    nWall
    {
        type            noSlip;
    }
    sideWalls
    {
        type            empty;
    }
    glass1
    {
        type            noSlip;
    }
    glass2
    {
        type            noSlip;
    }
    sun
    {
        type            noSlip;
    }
    heatsource1
    {
        type            noSlip;
    }
    heatsource2
    {
        type            noSlip;
    }
    Table_master
    {
        type            noSlip;
    }
    Table_slave
    {
        type            noSlip;
    }
    inlet
    {
        type            fixedValue;
        value           uniform (0.2 0 0);
    }
    outlet
    {
        type            zeroGradient;
    }
}


// ************************************************************************* //
