/*--------------------------------*- C++ -*----------------------------------*\
  =========                 |
  \\      /  F ield         | OpenFOAM: The Open Source CFD Toolbox
   \\    /   O peration     | Website:  https://openfoam.org
    \\  /    A nd           | Version:  6
     \\/     M anipulation  |
\*---------------------------------------------------------------------------*/
FoamFile
{
    version     2.0;
    format      ascii;
    class       volScalarField;
    location    "1000";
    object      nut;
}
// * * * * * * * * * * * * * * * * * * * * * * * * * * * * * * * * * * * * * //

dimensions      [0 2 -1 0 0 0 0];

internalField   nonuniform List<scalar> 
459
(
0.00107985
0.00118002
0.00120223
0.00126009
0.00131363
0.00136373
0.00141283
0.00146095
0.00149503
0.00150962
0.00149967
0.00146205
0.00139658
0.00130883
0.00121245
0.000475508
0.000582542
0.000655109
0.000650298
0.000627445
0.000597679
0.000560726
0.000524241
0.000491146
0.000461757
0.000435725
0.000412586
0.000391991
0.000373494
0.000356432
0.000339944
0.000322753
0.000310026
0.000281934
0.0014708
0.00359922
0.0034497
0.0040171
0.00457452
0.00513171
0.0056235
0.00599209
0.00632477
0.00659477
0.00676434
0.00679044
0.00660692
0.00604793
0.00451663
0.00123668
0.000730234
0.000514818
0.0010824
0.00149236
0.00178339
0.00193563
0.0019268
0.00155174
0.00133974
0.00118784
0.00107108
0.000978086
0.000902312
0.000837016
0.000775947
0.000716499
0.000663557
0.000617537
0.000718292
0.000366638
0.0017961
0.00491612
0.00428635
0.0053825
0.00593148
0.00633771
0.00665139
0.00689849
0.00716538
0.00744378
0.00770095
0.00788996
0.00795806
0.00782795
0.00729414
0.00562943
0.00122814
0.00102944
0.00147739
0.00189033
0.00225431
0.00249725
0.00242424
0.000802895
0.00070894
0.000633485
0.000572608
0.000523011
0.000482173
0.00044828
0.000420181
0.000397393
0.000428329
0.000495572
0.000805214
0.000422879
0.0021083
0.00628007
0.00429993
0.00570462
0.00619361
0.0063596
0.00646271
0.00658433
0.00679313
0.00707629
0.00739944
0.00770425
0.00793581
0.00803315
0.00792295
0.00735409
0.00539932
0.00147213
0.00182631
0.00235689
0.00286411
0.00325973
0.00349562
0.00326752
0.000905654
0.000824076
0.000765378
0.000720464
0.000682317
0.000647655
0.000614431
0.000579701
0.0005396
0.00050641
0.000517901
0.000914185
0.000466566
0.00242678
0.00803139
0.00472526
0.00549193
0.00614296
0.00619158
0.00613332
0.00619102
0.00637357
0.00666086
0.00702339
0.00738116
0.00765833
0.00779312
0.00776246
0.0075234
0.00690802
0.00571473
0.0053075
0.00517222
0.00512343
0.00508984
0.0050295
0.00483004
0.0040723
0.00370666
0.00349276
0.00332759
0.00315483
0.00290689
0.00257615
0.00217594
0.00173097
0.00128082
0.000943483
0.000943202
0.000624469
0.000574771
0.000697048
0.000782219
0.00276447
0.00993944
0.00649894
0.00546247
0.00595187
0.0061736
0.00603247
0.00608177
0.00621909
0.00647607
0.00684197
0.00723414
0.00753974
0.00767034
0.00760379
0.00738543
0.00709207
0.00678664
0.00661619
0.00649026
0.00634654
0.00618114
0.00599438
0.00576018
0.00541561
0.00510659
0.00483238
0.00457024
0.00430433
0.00401475
0.00365332
0.00320617
0.00267248
0.00208172
0.00155912
0.00116643
0.000873623
0.000739871
0.00105403
0.00081553
0.00307157
0.0112747
0.00909754
0.00703581
0.00666102
0.00657993
0.00635665
0.0062128
0.00625337
0.00650445
0.00691116
0.00734976
0.00767307
0.00777693
0.00764874
0.00738382
0.00715322
0.00707453
0.00708692
0.00702666
0.00684533
0.00657605
0.00625092
0.00588874
0.0055077
0.00515407
0.00483017
0.00452868
0.00424989
0.00400024
0.00377964
0.00347695
0.00305703
0.00254778
0.00205883
0.00162136
0.00129729
0.00119319
0.00121235
0.000926018
0.00313099
0.0100293
0.00891592
0.00824019
0.00763545
0.00693679
0.00639016
0.00617178
0.00630383
0.0067128
0.00725865
0.00776187
0.00805371
0.00805222
0.00779507
0.00744792
0.0072373
0.00723778
0.00725068
0.00703754
0.00665399
0.006177
0.0056709
0.0051897
0.00476821
0.00441344
0.00411194
0.00385647
0.00365028
0.00350157
0.00341814
0.00337407
0.00315416
0.0028248
0.0025345
0.00238107
0.00245917
0.00282066
0.00346963
0.00144943
0.00304778
0.00361353
0.00401033
0.00410735
0.00419146
0.00442414
0.0048931
0.00560809
0.00648691
0.0073779
0.00811702
0.00854979
0.00857399
0.00823674
0.00772241
0.00736289
0.00716772
0.00699753
0.00670299
0.00622813
0.00564259
0.00503912
0.00449331
0.00404162
0.00368257
0.00339462
0.00315643
0.0029555
0.002784
0.00263388
0.00249638
0.0023711
0.00227183
0.00219833
0.00216952
0.00217861
0.00216828
0.00208506
0.0019513
0.00136621
0.00147446
0.00304395
0.00496544
0.0065722
0.0078329
0.00880083
0.00941755
0.00966872
0.00958864
0.00917059
0.00850701
0.00768584
0.0069856
0.00654625
0.00618601
0.0057423
0.00520163
0.00462569
0.00408048
0.00361157
0.00323935
0.00294911
0.00271893
0.00253264
0.00238175
0.00226261
0.00217376
0.00211464
0.00208716
0.00208779
0.00210297
0.00212879
0.00215765
0.00216588
0.00211492
0.00199121
0.00180486
0.00113912
0.00197697
0.00511723
0.00764496
0.00864411
0.009151
0.0093207
0.00912941
0.00863765
0.00794883
0.00716517
0.00642139
0.00576168
0.00522516
0.00476182
0.00429576
0.00384267
0.00344559
0.00312417
0.00287429
0.00267899
0.0025164
0.00237514
0.00225093
0.00214674
0.00206679
0.00201125
0.00197926
0.00197053
0.00198876
0.00203132
0.00209473
0.00217173
0.0022462
0.00229761
0.00228083
0.00230789
0.00235621
0.00116223
0.00177139
0.00187728
0.00195209
0.00210417
0.00203794
0.00195834
0.00190647
0.00183144
0.00172263
0.00158671
0.00143337
0.00127383
0.001119
0.000986156
0.000885791
0.000814495
0.000763943
0.00072736
0.000700532
0.000681024
0.000667345
0.000658596
0.000654302
0.000654742
0.00066044
0.000671365
0.000687299
0.000708611
0.00073588
0.000769639
0.000809101
0.000854346
0.000905872
0.00096413
0.00102867
0.00110477
0.00113101
0.00110267
0.00103631
0.000966737
)
;

boundaryField
{
    floor
    {
        type            nutkWallFunction;
        Cmu             0.09;
        kappa           0.41;
        E               9.8;
        value           nonuniform List<scalar> 
29
(
0.000145444
5.65672e-05
7.01577e-05
7.9195e-05
7.85995e-05
7.57645e-05
7.20531e-05
6.74142e-05
6.2797e-05
5.85746e-05
5.47952e-05
5.14223e-05
4.84028e-05
4.56973e-05
4.32519e-05
4.09822e-05
3.87757e-05
3.64602e-05
3.47356e-05
3.08949e-05
3.08948e-05
4.2341e-05
4.9748e-05
5.54149e-05
0.000145444
5.65672e-05
6.15984e-05
0.000124184
0.000175007
)
;
    }
    ceiling
    {
        type            nutkWallFunction;
        Cmu             0.09;
        kappa           0.41;
        E               9.8;
        value           nonuniform List<scalar> 
43
(
0.00020823
0.000219867
0.000228048
0.000244674
0.000237527
0.000228872
0.000223209
0.000214981
0.000202977
0.000187862
0.000170635
0.000152491
0.000134638
0.000119095
0.000107193
9.86435e-05
9.25285e-05
8.80734e-05
8.47896e-05
8.23922e-05
8.07064e-05
7.9626e-05
7.90951e-05
7.91496e-05
7.9854e-05
8.12026e-05
8.31645e-05
8.57803e-05
8.91137e-05
9.32202e-05
9.79936e-05
0.000103433
0.000109587
0.000116496
0.000124095
0.000132985
0.000136035
0.000132741
0.000124991
0.000116805
0.000345122
0.000403604
0.000230635
)
;
    }
    sWall
    {
        type            nutkWallFunction;
        Cmu             0.09;
        kappa           0.41;
        E               9.8;
        value           uniform 0.000208288;
    }
    nWall
    {
        type            nutkWallFunction;
        Cmu             0.09;
        kappa           0.41;
        E               9.8;
        value           nonuniform List<scalar> 6(9.47449e-05 9.87695e-05 0.000111985 0.000136985 0.000139662 0.00011681);
    }
    sideWalls
    {
        type            empty;
    }
    glass1
    {
        type            nutkWallFunction;
        Cmu             0.09;
        kappa           0.41;
        E               9.8;
        value           nonuniform List<scalar> 9(0.000130184 0.000175077 0.0002114 0.000245586 0.000279904 0.000315775 0.000348002 0.000354207 0.000345544);
    }
    glass2
    {
        type            nutkWallFunction;
        Cmu             0.09;
        kappa           0.41;
        E               9.8;
        value           nonuniform List<scalar> 2(0.000172519 0.00016309);
    }
    sun
    {
        type            nutkWallFunction;
        Cmu             0.09;
        kappa           0.41;
        E               9.8;
        value           nonuniform List<scalar> 
14
(
0.000130083
0.000141705
0.000144267
0.000150916
0.00015704
0.000162744
0.000168312
0.000173747
0.000177585
0.000179225
0.000178107
0.00017387
0.00016647
0.000156491
)
;
    }
    heatsource1
    {
        type            nutkWallFunction;
        Cmu             0.09;
        kappa           0.41;
        E               9.8;
        value           nonuniform List<scalar> 3(6.91837e-05 8.43627e-05 9.47449e-05);
    }
    heatsource2
    {
        type            nutkWallFunction;
        Cmu             0.09;
        kappa           0.41;
        E               9.8;
        value           nonuniform List<scalar> 4(0.000148226 8.84267e-05 8.84267e-05 0.000147245);
    }
    Table_master
    {
        type            nutkWallFunction;
        Cmu             0.09;
        kappa           0.41;
        E               9.8;
        value           nonuniform List<scalar> 9(9.7244e-05 8.58212e-05 7.6517e-05 6.89129e-05 6.2645e-05 5.74289e-05 5.30582e-05 4.94033e-05 4.64165e-05);
    }
    Table_slave
    {
        type            nutkWallFunction;
        Cmu             0.09;
        kappa           0.41;
        E               9.8;
        value           nonuniform List<scalar> 9(0.000109559 9.97969e-05 9.27028e-05 8.72313e-05 8.25522e-05 7.82735e-05 7.41463e-05 6.98031e-05 6.47483e-05);
    }
    inlet
    {
        type            calculated;
        value           uniform 0.000100623;
    }
    outlet
    {
        type            calculated;
        value           nonuniform List<scalar> 2(0.00177139 0.00187728);
    }
}


// ************************************************************************* //
