// -*- C++ -*-
// File generated by PyFoam - sorry for the ugliness

FoamFile
{
 version 2.0;
 format ascii;
 class volScalarField;
 location "710";
 object T;
}

dimensions [ 0 0 0 1 0 0 0 ];

internalField nonuniform List<scalar> 459
(
  302.018
  301.941
  301.94
  301.941
  301.942
  301.942
  301.943
  301.942
  301.942
  301.941
  301.943
  301.947
  301.954
  301.951
  301.938
  301.933
  302.004
  302.028
  302.041
  302.05
  302.057
  302.059
  302.059
  302.059
  302.058
  302.057
  302.056
  302.055
  302.054
  302.053
  302.051
  302.049
  302.043
  302.017
  302.067
  301.956
  301.952
  301.954
  301.955
  301.956
  301.955
  301.952
  301.947
  301.942
  301.943
  301.95
  301.961
  301.965
  301.959
  301.963
  301.964
  301.996
  302.028
  302.045
  302.061
  302.075
  302.085
  302.088
  302.089
  302.09
  302.09
  302.091
  302.091
  302.09
  302.09
  302.087
  302.083
  302.076
  302.064
  302.049
  302.118
  301.969
  301.961
  301.965
  301.968
  301.97
  301.97
  301.964
  301.951
  301.939
  301.937
  301.946
  301.963
  301.973
  301.975
  301.975
  301.972
  302.009
  302.03
  302.053
  302.075
  302.095
  302.11
  302.11
  302.11
  302.11
  302.11
  302.11
  302.11
  302.11
  302.109
  302.107
  302.104
  302.096
  302.081
  302.065
  302.17
  301.985
  301.97
  301.977
  301.985
  301.992
  301.994
  301.984
  301.96
  301.936
  301.929
  301.941
  301.964
  301.981
  301.99
  301.99
  301.986
  301.991
  302.011
  302.038
  302.068
  302.097
  302.122
  302.142
  302.159
  302.172
  302.183
  302.192
  302.2
  302.206
  302.211
  302.215
  302.217
  302.186
  302.151
  302.116
  302.086
  302.222
  302.004
  301.98
  301.987
  302.001
  302.016
  302.024
  302.008
  301.97
  301.934
  301.921
  301.936
  301.965
  301.992
  302.008
  302.014
  302.017
  302.031
  302.053
  302.08
  302.109
  302.137
  302.162
  302.183
  302.201
  302.215
  302.226
  302.234
  302.24
  302.244
  302.246
  302.245
  302.241
  302.224
  302.194
  302.156
  302.117
  302.118
  302.12
  302.177
  302.271
  302.029
  301.993
  301.996
  302.012
  302.033
  302.05
  302.024
  301.973
  301.929
  301.913
  301.932
  301.969
  302.007
  302.035
  302.051
  302.062
  302.079
  302.102
  302.128
  302.156
  302.182
  302.205
  302.224
  302.239
  302.25
  302.257
  302.263
  302.266
  302.268
  302.267
  302.264
  302.258
  302.246
  302.224
  302.194
  302.159
  302.145
  302.139
  302.173
  302.316
  302.071
  302.028
  302.021
  302.031
  302.056
  302.063
  302.026
  301.965
  301.915
  301.902
  301.93
  301.98
  302.033
  302.072
  302.096
  302.114
  302.133
  302.155
  302.18
  302.204
  302.227
  302.245
  302.26
  302.269
  302.276
  302.279
  302.281
  302.282
  302.281
  302.279
  302.275
  302.269
  302.258
  302.242
  302.22
  302.193
  302.173
  302.16
  302.179
  302.382
  302.187
  302.134
  302.105
  302.098
  302.107
  302.077
  302.006
  301.928
  301.881
  301.885
  301.935
  302.005
  302.072
  302.12
  302.148
  302.168
  302.187
  302.208
  302.229
  302.248
  302.264
  302.275
  302.283
  302.288
  302.29
  302.29
  302.29
  302.288
  302.285
  302.282
  302.278
  302.273
  302.264
  302.252
  302.237
  302.218
  302.203
  302.192
  302.272
  302.473
  302.383
  302.317
  302.258
  302.214
  302.156
  302.038
  301.915
  301.836
  301.824
  301.873
  301.962
  302.056
  302.133
  302.177
  302.201
  302.219
  302.235
  302.251
  302.265
  302.277
  302.286
  302.291
  302.294
  302.295
  302.295
  302.294
  302.292
  302.289
  302.286
  302.283
  302.279
  302.275
  302.273
  302.272
  302.275
  302.283
  302.297
  302.316
  302.363
  300.8
  301.143
  301.309
  301.36
  301.424
  301.514
  301.632
  301.771
  301.912
  302.048
  302.144
  302.197
  302.226
  302.244
  302.257
  302.268
  302.277
  302.285
  302.29
  302.294
  302.296
  302.296
  302.297
  302.296
  302.295
  302.294
  302.292
  302.291
  302.289
  302.288
  302.288
  302.288
  302.29
  302.295
  302.304
  302.318
  302.337
  302.37
  300.836
  301.127
  301.269
  301.383
  301.509
  301.655
  301.81
  301.964
  302.074
  302.156
  302.208
  302.238
  302.255
  302.266
  302.274
  302.28
  302.285
  302.289
  302.291
  302.293
  302.294
  302.295
  302.296
  302.296
  302.297
  302.297
  302.297
  302.297
  302.297
  302.297
  302.297
  302.298
  302.3
  302.303
  302.309
  302.318
  302.33
  302.354
  301.225
  301.206
  301.206
  301.423
  301.595
  301.769
  301.911
  302.005
  302.083
  302.146
  302.189
  302.219
  302.238
  302.249
  302.256
  302.261
  302.265
  302.267
  302.269
  302.271
  302.272
  302.273
  302.274
  302.276
  302.277
  302.278
  302.279
  302.281
  302.282
  302.284
  302.287
  302.289
  302.291
  302.293
  302.296
  302.299
  302.303
  302.308
  302.308
  302.345
)
;

boundaryField
{
  floor
  {
    type wallHeatTransfer;
    Tinf uniform 300.35;
    alphaWall uniform 0.24;
    value nonuniform List<scalar> 29
(
  301.706
  301.609
  301.742
  301.767
  301.78
  301.786
  301.787
  301.78
  301.769
  301.757
  301.744
  301.732
  301.721
  301.709
  301.698
  301.686
  301.673
  301.657
  301.63
  301.579
  301.579
  301.649
  301.682
  301.727
  301.706
  301.609
  301.741
  301.781
  301.805
)
;
  }
  ceiling
  {
    type wallHeatTransfer;
    Tinf uniform 300.35;
    alphaWall uniform 0.24;
    value nonuniform List<scalar> 43
(
  301.144
  301.129
  301.131
  301.339
  301.497
  301.654
  301.782
  301.87
  301.943
  301.998
  302.035
  302.057
  302.07
  302.077
  302.082
  302.085
  302.088
  302.09
  302.091
  302.092
  302.093
  302.094
  302.095
  302.095
  302.095
  302.094
  302.092
  302.088
  302.085
  302.082
  302.08
  302.08
  302.081
  302.084
  302.089
  302.094
  302.101
  302.104
  302.099
  302.126
  302.335
  302.269
  300.788
)
;
  }
  sWall
  {
    type wallHeatTransfer;
    Tinf uniform 306.167;
    alphaWall uniform 0.36;
    value uniform 301.882;
  }
  nWall
  {
    type wallHeatTransfer;
    Tinf uniform 305.15;
    alphaWall uniform 0.36;
    value nonuniform List<scalar> 6
(
  302.892
  302.773
  302.714
  302.765
  302.733
  302.784
)
;
  }
  sideWalls
  {
    type empty;
  }
  glass1
  {
    type wallHeatTransfer;
    Tinf uniform 306.167;
    alphaWall uniform 4.3;
    value nonuniform List<scalar> 9
(
  305.092
  304.921
  304.803
  304.708
  304.624
  304.543
  304.472
  304.477
  304.531
)
;
  }
  glass2
  {
    type wallHeatTransfer;
    Tinf uniform 305.15;
    alphaWall uniform 4.3;
    value nonuniform List<scalar> 2
(
  304.203
  304.219
)
;
  }
  sun
  {
    type wallHeatTransfer;
    Tinf uniform 300.35;
    alphaWall uniform 0.24;
    value nonuniform List<scalar> 14
(
  301.79
  301.738
  301.742
  301.751
  301.758
  301.764
  301.77
  301.775
  301.778
  301.779
  301.78
  301.78
  301.771
  301.745
)
;
  }
  heatsource1
  {
    type fixedGradient;
    gradient uniform 0;
  }
  heatsource2
  {
    type fixedGradient;
    gradient uniform 0;
  }
  Table_master
  {
    type zeroGradient;
  }
  Table_slave
  {
    type zeroGradient;
  }
  inlet
  {
    type fixedValue;
    value uniform 300.15;
  }
  outlet
  {
    type zeroGradient;
  }
} 	// ************************************************************************* //

