/*--------------------------------*- C++ -*----------------------------------*\
  =========                 |
  \\      /  F ield         | OpenFOAM: The Open Source CFD Toolbox
   \\    /   O peration     | Website:  https://openfoam.org
    \\  /    A nd           | Version:  6
     \\/     M anipulation  |
\*---------------------------------------------------------------------------*/
FoamFile
{
    version     2.0;
    format      ascii;
    class       volScalarField;
    location    "400";
    object      alphat;
}
// * * * * * * * * * * * * * * * * * * * * * * * * * * * * * * * * * * * * * //

dimensions      [1 -1 -1 0 0 0 0];

internalField   nonuniform List<scalar> 
459
(
0.00117918
0.00127972
0.00129452
0.00135283
0.00140622
0.00145525
0.00150202
0.00154923
0.00158793
0.00160997
0.0016093
0.00158118
0.00152503
0.00144848
0.0013658
0.000508429
0.000623207
0.000682063
0.000663976
0.000635398
0.0006034
0.000568089
0.000534186
0.000503358
0.000475707
0.000450934
0.000428869
0.000409018
0.000390888
0.000373922
0.000357302
0.000339797
0.00033178
0.000306566
0.00163523
0.00378799
0.00354859
0.004117
0.00464736
0.00518821
0.0056931
0.0060869
0.00642148
0.00670463
0.00688949
0.00691342
0.0066789
0.00598072
0.00424451
0.00138104
0.000911804
0.000577119
0.00107705
0.00142023
0.00165482
0.00176849
0.00176263
0.0014927
0.0013224
0.0011947
0.00109332
0.00101036
0.000937774
0.000872485
0.000811771
0.000754391
0.000705096
0.000657538
0.000797323
0.000424767
0.00201908
0.00519133
0.00431493
0.00555284
0.0061078
0.00650716
0.00681054
0.00704544
0.00728149
0.00753829
0.00778479
0.00797189
0.00802872
0.00787974
0.00736994
0.00598685
0.00133576
0.00115455
0.00154702
0.00186834
0.00213728
0.00231304
0.00224628
0.000801366
0.000715982
0.000647095
0.000591167
0.000545293
0.000507265
0.00047548
0.000448898
0.000427073
0.000460946
0.000528291
0.000896081
0.000501329
0.00239116
0.00677427
0.00427206
0.00589978
0.00645583
0.00661675
0.00667305
0.006743
0.00688992
0.00712463
0.00741542
0.00771847
0.00795132
0.0080607
0.00798646
0.00749686
0.00580872
0.00153243
0.00192876
0.00242249
0.0028231
0.00310677
0.00327591
0.00307391
0.00089664
0.000828942
0.000783645
0.000751
0.000723144
0.000694005
0.000665617
0.000634785
0.000597398
0.000562759
0.000568161
0.00104595
0.00055889
0.00277009
0.00882511
0.00472792
0.00559766
0.00642227
0.00649469
0.00638257
0.00631901
0.00643407
0.00666595
0.00698217
0.00734731
0.00764493
0.00779901
0.00776352
0.00749405
0.00684723
0.00557564
0.00505396
0.0048048
0.00466809
0.00460028
0.00456743
0.00445784
0.00388353
0.00364472
0.00352107
0.00342066
0.00329773
0.00311868
0.00280322
0.00239411
0.00192644
0.00144575
0.00106412
0.00104873
0.000749148
0.000697709
0.000838393
0.000939252
0.00316915
0.0110432
0.00669067
0.00536952
0.00601048
0.00633434
0.00630439
0.00613628
0.00625011
0.00646448
0.0067805
0.00714998
0.00746993
0.00762975
0.00755959
0.00726085
0.00680049
0.00628484
0.00593678
0.00570126
0.0055225
0.00539186
0.00528466
0.00515574
0.004949
0.00477103
0.00461025
0.00444683
0.0042697
0.00407114
0.00379862
0.00340786
0.00289858
0.0022992
0.0017386
0.00126377
0.0010019
0.00087634
0.00126613
0.000980813
0.00354095
0.0126509
0.00975199
0.00697387
0.00630754
0.00637552
0.00642173
0.00633546
0.00632926
0.00647979
0.0067902
0.00717925
0.00751245
0.00765405
0.00752299
0.00714113
0.0066486
0.00625085
0.00604927
0.00591879
0.00575355
0.00553757
0.00528821
0.00504328
0.00482772
0.00465237
0.00449513
0.00434258
0.00419261
0.00404971
0.00391502
0.00368506
0.00329509
0.00277933
0.00226246
0.00177317
0.0014498
0.00137125
0.00143135
0.00111582
0.00361645
0.0115236
0.010056
0.00900955
0.00816231
0.0076182
0.00702583
0.00657908
0.00643886
0.00660915
0.00699297
0.00743293
0.00775586
0.00781726
0.00755104
0.00702182
0.00643943
0.0060735
0.00595059
0.00571835
0.00535364
0.00495168
0.00460083
0.00434079
0.00416064
0.00402883
0.00391987
0.00382614
0.00375168
0.0037066
0.0037028
0.00371961
0.0035301
0.00318159
0.00287005
0.00272889
0.00289888
0.00343354
0.00426618
0.00174519
0.00352168
0.00420133
0.00472552
0.00495621
0.00508201
0.00511918
0.00525484
0.00559934
0.00615297
0.00683336
0.00749545
0.0079812
0.00816307
0.0079596
0.00737712
0.00660183
0.00600946
0.00563347
0.00528391
0.00480934
0.00430637
0.00389927
0.00362205
0.00344636
0.00333089
0.00324402
0.00316778
0.00309384
0.00301759
0.00293505
0.00284271
0.00273988
0.00265276
0.0025897
0.00257641
0.00260323
0.00259731
0.00249236
0.00232591
0.00162896
0.00205068
0.00390126
0.00514025
0.00604685
0.00690056
0.00766107
0.00829876
0.00874636
0.00891747
0.00875924
0.0082712
0.00745761
0.00640614
0.005472
0.00488322
0.00441363
0.00389372
0.00338974
0.00301835
0.00278816
0.00265592
0.00258005
0.00253404
0.00250337
0.00248102
0.00246411
0.00245229
0.00244735
0.00245325
0.00248102
0.00251601
0.00255668
0.00259612
0.00260533
0.00253662
0.00237488
0.00213369
0.00133653
0.00246257
0.00532523
0.00713717
0.00784465
0.00846881
0.00892057
0.00899719
0.00882833
0.00825754
0.00731888
0.00619283
0.0050997
0.00421255
0.00356181
0.0030512
0.00258666
0.00223214
0.00202036
0.00190159
0.00184485
0.00182874
0.00183844
0.00186658
0.00190977
0.00196634
0.00203501
0.00211366
0.00219806
0.00229037
0.00239468
0.00250876
0.0026261
0.00273028
0.00280311
0.00278798
0.00281436
0.00275176
0.00135737
0.00213068
0.00225432
0.00234429
0.00246578
0.00232716
0.00217152
0.00203201
0.00189475
0.00176814
0.00162388
0.0014581
0.00126829
0.00107182
0.000892386
0.000751129
0.000656754
0.000604157
0.000581414
0.000577738
0.000585721
0.000601055
0.000620997
0.000644233
0.00067047
0.000699645
0.000731839
0.00076727
0.000806353
0.000849836
0.000899074
0.000954782
0.00101604
0.00108358
0.00115818
0.00123989
0.00134021
0.00137007
0.00133548
0.00125101
0.00115966
)
;

boundaryField
{
    floor
    {
        type            compressible::alphatWallFunction;
        Prt             0.85;
        value           nonuniform List<scalar> 
29
(
0.000192854
7.0532e-05
8.78436e-05
9.6565e-05
9.3895e-05
8.96581e-05
8.48865e-05
7.95843e-05
7.4455e-05
6.97556e-05
6.55097e-05
6.16792e-05
5.82449e-05
5.51359e-05
5.22796e-05
4.95911e-05
4.69419e-05
4.41343e-05
4.28423e-05
3.87521e-05
3.87515e-05
5.76035e-05
6.9444e-05
7.81951e-05
0.000192852
7.05311e-05
8.09415e-05
0.000163879
0.00021535
)
;
    }
    ceiling
    {
        type            compressible::alphatWallFunction;
        Prt             0.85;
        value           nonuniform List<scalar> 
43
(
0.000293986
0.000309931
0.000321477
0.000337101
0.000319435
0.000299438
0.000281377
0.000263471
0.000246825
0.000227693
0.00020547
0.000179668
0.000152492
0.000127163
0.000106799
9.29394e-05
8.51107e-05
8.16998e-05
8.1147e-05
8.23471e-05
8.46466e-05
8.76264e-05
9.10837e-05
9.49691e-05
9.92679e-05
0.000103986
0.00010915
0.000114814
0.000121076
0.000128122
0.000136038
0.000144681
0.000154141
0.000164512
0.000175782
0.000189506
0.000193568
0.000188862
0.00017731
0.000164721
0.000469237
0.000551876
0.000336454
)
;
    }
    sWall
    {
        type            compressible::alphatWallFunction;
        Prt             0.85;
        value           uniform 0.000292772;
    }
    nWall
    {
        type            compressible::alphatWallFunction;
        Prt             0.85;
        value           nonuniform List<scalar> 6(0.00013351 0.000139386 0.00015829 0.000188671 0.000191506 0.000164391);
    }
    sideWalls
    {
        type            empty;
    }
    glass1
    {
        type            compressible::alphatWallFunction;
        Prt             0.85;
        value           nonuniform List<scalar> 9(0.000163138 0.000224092 0.000274062 0.000321615 0.00036931 0.00041885 0.000464471 0.000473806 0.000462474);
    }
    glass2
    {
        type            compressible::alphatWallFunction;
        Prt             0.85;
        value           nonuniform List<scalar> 2(0.000242003 0.000226708);
    }
    sun
    {
        type            compressible::alphatWallFunction;
        Prt             0.85;
        value           nonuniform List<scalar> 
14
(
0.000167309
0.00018112
0.000183145
0.000191097
0.000198344
0.000204972
0.000211271
0.000217607
0.000222784
0.000225727
0.000225636
0.00022188
0.000214357
0.000204052
)
;
    }
    heatsource1
    {
        type            compressible::alphatWallFunction;
        Prt             0.85;
        value           nonuniform List<scalar> 3(9.89815e-05 0.000119429 0.000133834);
    }
    heatsource2
    {
        type            compressible::alphatWallFunction;
        Prt             0.85;
        value           nonuniform List<scalar> 4(0.00019505 0.000129931 0.00012993 0.000188891);
    }
    Table_master
    {
        type            compressible::alphatWallFunction;
        Prt             0.85;
        value           nonuniform List<scalar> 9(0.000114088 0.000101661 9.1505e-05 8.31618e-05 7.62457e-05 7.04575e-05 6.55776e-05 6.14648e-05 5.80649e-05);
    }
    Table_slave
    {
        type            compressible::alphatWallFunction;
        Prt             0.85;
        value           nonuniform List<scalar> 9(0.000127772 0.00011807 0.000111525 0.000106781 0.000102713 9.8437e-05 9.42505e-05 8.96787e-05 8.40982e-05);
    }
    inlet
    {
        type            fixedValue;
        value           uniform 1.94e-05;
    }
    outlet
    {
        type            zeroGradient;
    }
}


// ************************************************************************* //
