// -*- C++ -*-
// File generated by PyFoam - sorry for the ugliness

FoamFile
{
 version 2.0;
 format ascii;
 class volVectorField;
 location "710";
 object U;
}

dimensions [ 0 1 -1 0 0 0 0 ];

internalField nonuniform List<vector> 459
(
  (0.00404585 0.0442199 0)
  (-0.0870287 0.0160851 0)
  (-0.106177 0.0101181 0)
  (-0.124097 0.00551187 0)
  (-0.135487 0.000652868 0)
  (-0.139228 -0.0046094 0)
  (-0.133656 -0.0104439 0)
  (-0.118537 -0.0169142 0)
  (-0.0945478 -0.0229894 0)
  (-0.064648 -0.0273296 0)
  (-0.0333506 -0.0284512 0)
  (-0.00199262 -0.0233917 0)
  (0.0186936 -0.0115591 0)
  (0.0242894 0.000382797 0)
  (0.042244 0.0176103 0)
  (-0.0762749 0.00656286 0)
  (0.0223869 -0.0055453 0)
  (0.0145044 -0.00992901 0)
  (0.0263331 -0.011178 0)
  (0.0399213 -0.0100599 0)
  (0.0514288 -0.00769951 0)
  (0.0589904 -0.00441623 0)
  (0.0626665 -0.00252921 0)
  (0.063822 -0.00186 0)
  (0.0640013 -0.00163859 0)
  (0.063902 -0.00149082 0)
  (0.0635673 -0.00131173 0)
  (0.0628418 -0.00101612 0)
  (0.0613998 -0.000397843 0)
  (0.0585001 0.00101475 0)
  (0.0526438 0.0040075 0)
  (0.0422675 0.0084899 0)
  (0.0128382 0.016149 0)
  (0.0540038 0.00462531 0)
  (0.0804231 0.0904585 0)
  (-0.0799528 0.0420173 0)
  (-0.0881771 0.0319068 0)
  (-0.106495 0.0229559 0)
  (-0.118142 0.0127908 0)
  (-0.122607 0.000993254 0)
  (-0.118171 -0.0127495 0)
  (-0.10489 -0.0272078 0)
  (-0.0837953 -0.0396608 0)
  (-0.0579605 -0.0471381 0)
  (-0.0315085 -0.047391 0)
  (-0.00752298 -0.0385423 0)
  (0.0122392 -0.0208377 0)
  (0.0241377 -0.0033095 0)
  (0.0369315 0.0158991 0)
  (0.0369598 0.0194916 0)
  (0.0256424 0.0234779 0)
  (-0.0877932 0.00240182 0)
  (0.0237 -0.0215183 0)
  (0.0261742 -0.0225653 0)
  (0.0363709 -0.0215111 0)
  (0.0469547 -0.0183735 0)
  (0.0555129 -0.0135649 0)
  (0.0601411 -0.00537502 0)
  (0.061101 -0.000484759 0)
  (0.0609027 0.00141061 0)
  (0.0609172 0.00215911 0)
  (0.0611447 0.0026398 0)
  (0.0613011 0.00306479 0)
  (0.0613139 0.00365845 0)
  (0.0611417 0.00485221 0)
  (0.060269 0.00764246 0)
  (0.0563434 0.0148404 0)
  (0.0477515 0.0225959 0)
  (0.0172803 0.0319316 0)
  (0.0900598 0.0222891 0)
  (0.152565 0.136031 0)
  (-0.0837626 0.0654973 0)
  (-0.068949 0.0509408 0)
  (-0.0865475 0.035861 0)
  (-0.0977818 0.0191883 0)
  (-0.102874 6.03064e-05 0)
  (-0.0992138 -0.0217473 0)
  (-0.0869259 -0.044333 0)
  (-0.0679212 -0.0626519 0)
  (-0.0455919 -0.0721731 0)
  (-0.023635 -0.0705278 0)
  (-0.00418416 -0.0572841 0)
  (0.0120956 -0.0357225 0)
  (0.0237774 -0.0139822 0)
  (0.0326425 0.00720079 0)
  (0.0348207 0.0219703 0)
  (0.0298232 0.0442242 0)
  (-0.0244066 -0.0209501 0)
  (0.0314176 -0.0328605 0)
  (0.0415687 -0.0342873 0)
  (0.0469292 -0.0310273 0)
  (0.0526724 -0.0264206 0)
  (0.0580458 -0.0223161 0)
  (0.0610114 -0.0163231 0)
  (0.0566846 -0.0107573 0)
  (0.053076 -0.00793524 0)
  (0.051947 -0.00645357 0)
  (0.051985 -0.00552319 0)
  (0.0523994 -0.00479491 0)
  (0.0531832 -0.00403743 0)
  (0.0549752 -0.00279943 0)
  (0.0592806 0.00107792 0)
  (0.0599388 0.0190264 0)
  (0.0534867 0.0329288 0)
  (0.0208822 0.0475978 0)
  (0.111158 0.0482619 0)
  (0.221388 0.173312 0)
  (-0.0960338 0.0852168 0)
  (-0.047701 0.0677465 0)
  (-0.0638102 0.0481278 0)
  (-0.0732667 0.0267324 0)
  (-0.0782485 0.00125866 0)
  (-0.0741566 -0.0289137 0)
  (-0.0620211 -0.0597256 0)
  (-0.0453707 -0.0831039 0)
  (-0.027341 -0.0938801 0)
  (-0.0105632 -0.0903415 0)
  (0.0042817 -0.0734488 0)
  (0.0167111 -0.0495221 0)
  (0.0273125 -0.0245319 0)
  (0.0370196 -0.000738392 0)
  (0.0468994 0.0195386 0)
  (0.059336 0.0395469 0)
  (0.0810847 -0.00696881 0)
  (0.0770463 -0.0205737 0)
  (0.0680475 -0.0307139 0)
  (0.060131 -0.0338714 0)
  (0.0553426 -0.0317107 0)
  (0.052827 -0.0274114 0)
  (0.0506004 -0.0218857 0)
  (0.0519579 -0.0136483 0)
  (0.0597419 -0.00975179 0)
  (0.0664149 -0.00770741 0)
  (0.0711328 -0.00648718 0)
  (0.0747769 -0.00547412 0)
  (0.0774261 -0.004303 0)
  (0.0782662 -0.00262459 0)
  (0.0756024 7.54452e-05 0)
  (0.0674334 0.00432886 0)
  (0.0589933 0.0237625 0)
  (0.0571577 0.0409235 0)
  (0.0293571 0.0603024 0)
  (0.125639 0.0862174 0)
  (0.286145 0.202029 0)
  (-0.114575 0.0997325 0)
  (-0.0248626 0.0784325 0)
  (-0.0382443 0.0563157 0)
  (-0.0441208 0.0322642 0)
  (-0.0476124 0.00207113 0)
  (-0.040212 -0.0357556 0)
  (-0.0280854 -0.0734069 0)
  (-0.0153094 -0.0993656 0)
  (-0.00334114 -0.109657 0)
  (0.00694844 -0.10357 0)
  (0.0153465 -0.0850904 0)
  (0.0229825 -0.0598834 0)
  (0.0301419 -0.0336894 0)
  (0.0377639 -0.0101539 0)
  (0.0472556 0.0082848 0)
  (0.0596897 0.0166615 0)
  (0.0695049 -0.000783669 0)
  (0.0683888 -0.0145784 0)
  (0.061093 -0.023216 0)
  (0.0536783 -0.0267311 0)
  (0.0476834 -0.026363 0)
  (0.0432441 -0.0235917 0)
  (0.0403472 -0.0188047 0)
  (0.040749 -0.0113587 0)
  (0.0444077 -0.00740327 0)
  (0.0484651 -0.00595733 0)
  (0.0522221 -0.00525075 0)
  (0.0558119 -0.0042672 0)
  (0.0590686 -0.00232885 0)
  (0.0616291 0.00125072 0)
  (0.0625492 0.00677584 0)
  (0.0612864 0.0147579 0)
  (0.059557 0.0283601 0)
  (0.0635391 0.043201 0)
  (0.0559163 0.0586694 0)
  (0.105257 0.0862778 0)
  (0.100951 0.0675419 0)
  (0.103436 0.0475085 0)
  (-0.177446 0.0436598 0)
  (0.339807 0.225154 0)
  (-0.136728 0.107745 0)
  (-0.00434745 0.0788664 0)
  (-0.0111137 0.0597607 0)
  (-0.0119815 0.0368942 0)
  (-0.011856 0.00495714 0)
  (0.00374836 -0.0445049 0)
  (0.0140925 -0.0852947 0)
  (0.0208611 -0.109725 0)
  (0.0249337 -0.117465 0)
  (0.0268944 -0.109773 0)
  (0.0277587 -0.0902524 0)
  (0.0284719 -0.0645351 0)
  (0.0296829 -0.0384251 0)
  (0.0322919 -0.0163016 0)
  (0.0374734 -0.000915335 0)
  (0.0450948 0.00497892 0)
  (0.0494272 -0.00207399 0)
  (0.0481891 -0.0113123 0)
  (0.0429463 -0.0176552 0)
  (0.0367202 -0.0207214 0)
  (0.0309519 -0.0211435 0)
  (0.02629 -0.0196644 0)
  (0.0232863 -0.0166985 0)
  (0.0228337 -0.0128028 0)
  (0.0248102 -0.0107406 0)
  (0.0278603 -0.0101153 0)
  (0.0313086 -0.00974251 0)
  (0.0349823 -0.00882053 0)
  (0.0387942 -0.00669406 0)
  (0.0426484 -0.00252641 0)
  (0.0467788 0.00438424 0)
  (0.0498853 0.0137425 0)
  (0.0530641 0.0256305 0)
  (0.0596209 0.03781 0)
  (0.0615801 0.0462426 0)
  (0.0807838 0.0593013 0)
  (0.07893 0.0461803 0)
  (0.10409 0.0441943 0)
  (-0.151666 0.0691263 0)
  (0.37554 0.244378 0)
  (-0.152701 0.0983884 0)
  (0.0133181 0.0566988 0)
  (0.0208782 0.0522203 0)
  (0.0254919 0.033385 0)
  (0.0389103 -0.00697825 0)
  (0.0542711 -0.0553581 0)
  (0.0611263 -0.0916787 0)
  (0.060747 -0.112104 0)
  (0.0555165 -0.116593 0)
  (0.0475444 -0.106974 0)
  (0.0386902 -0.0867769 0)
  (0.0305271 -0.0613929 0)
  (0.0241551 -0.0365042 0)
  (0.020647 -0.0166938 0)
  (0.0205924 -0.00403521 0)
  (0.0235239 0.000837147 0)
  (0.025022 -0.00222783 0)
  (0.0236236 -0.00798726 0)
  (0.0195705 -0.0126376 0)
  (0.0143521 -0.0153062 0)
  (0.00914086 -0.0162506 0)
  (0.00474446 -0.0159781 0)
  (0.00184704 -0.014938 0)
  (0.00105499 -0.0136836 0)
  (0.00216993 -0.0132738 0)
  (0.00431607 -0.0134233 0)
  (0.00694998 -0.0134458 0)
  (0.00991227 -0.0128233 0)
  (0.0132791 -0.0110675 0)
  (0.0173055 -0.00744791 0)
  (0.0229231 -0.00087058 0)
  (0.0299819 0.00863984 0)
  (0.0369447 0.0192934 0)
  (0.0454831 0.0294205 0)
  (0.0521544 0.0364372 0)
  (0.0643648 0.04604 0)
  (0.0692715 0.0485077 0)
  (0.114899 0.0637417 0)
  (-0.107295 0.121314 0)
  (0.441531 0.246592 0)
  (-0.0531407 0.0730367 0)
  (0.0516548 0.0038332 0)
  (0.0810173 -0.00235242 0)
  (0.0848951 -0.0189586 0)
  (0.104392 -0.0460738 0)
  (0.115755 -0.0725573 0)
  (0.114091 -0.0935973 0)
  (0.102215 -0.104609 0)
  (0.0840149 -0.103924 0)
  (0.0633398 -0.0924081 0)
  (0.0429775 -0.072518 0)
  (0.0251416 -0.0489843 0)
  (0.0112344 -0.0271559 0)
  (0.00266724 -0.011479 0)
  (-0.000815942 -0.00265346 0)
  (-0.000862098 0.000262784 0)
  (-0.000827747 -0.00149941 0)
  (-0.00252756 -0.00511437 0)
  (-0.00607564 -0.00832281 0)
  (-0.0105499 -0.0104943 0)
  (-0.0150404 -0.011819 0)
  (-0.0188608 -0.0126675 0)
  (-0.0215244 -0.0133204 0)
  (-0.0228058 -0.0139864 0)
  (-0.0229446 -0.0148452 0)
  (-0.0224242 -0.0156886 0)
  (-0.0215767 -0.0161915 0)
  (-0.0205484 -0.0160931 0)
  (-0.0193117 -0.0152006 0)
  (-0.0175717 -0.0132922 0)
  (-0.0144811 -0.00985186 0)
  (-0.00726167 -0.0039247 0)
  (0.00383531 0.00431319 0)
  (0.0138213 0.0109239 0)
  (0.0225646 0.0140912 0)
  (0.0338017 0.0166708 0)
  (0.0430577 0.0149944 0)
  (0.115787 0.0612647 0)
  (-0.320356 0.183212 0)
  (0.526347 0.249881 0)
  (0.25353 0.176676 0)
  (0.260856 0.140994 0)
  (0.26063 0.0942139 0)
  (0.246964 0.0506417 0)
  (0.226573 0.00642799 0)
  (0.200682 -0.0331916 0)
  (0.170131 -0.0606297 0)
  (0.135214 -0.0735542 0)
  (0.0983096 -0.0735708 0)
  (0.0631583 -0.0636991 0)
  (0.031836 -0.0466981 0)
  (0.00670129 -0.027405 0)
  (-0.0112757 -0.0111808 0)
  (-0.0201768 -0.00277144 0)
  (-0.0243181 0.00112022 0)
  (-0.0256365 0.00201133 0)
  (-0.0265071 0.000884327 0)
  (-0.0283288 -0.00109898 0)
  (-0.0312828 -0.00310069 0)
  (-0.0348327 -0.00483536 0)
  (-0.0384972 -0.00635493 0)
  (-0.0419375 -0.00780484 0)
  (-0.0449421 -0.00924174 0)
  (-0.0474591 -0.0106682 0)
  (-0.0496006 -0.0120512 0)
  (-0.0515472 -0.0132366 0)
  (-0.053482 -0.0140358 0)
  (-0.0556852 -0.0142816 0)
  (-0.0586539 -0.0137788 0)
  (-0.0630391 -0.0121065 0)
  (-0.0692965 -0.00825277 0)
  (-0.0776036 -0.000711579 0)
  (-0.0864816 0.0103235 0)
  (-0.0986524 0.0245632 0)
  (-0.11946 0.0433077 0)
  (-0.148423 0.0678875 0)
  (-0.184257 0.0964095 0)
  (-0.24155 0.12435 0)
  (-0.48488 0.1452 0)
  (0.231444 0.00224822 0)
  (0.226243 0.0299972 0)
  (0.21303 0.0168331 0)
  (0.194122 -0.0054636 0)
  (0.170409 -0.0238531 0)
  (0.138566 -0.0358434 0)
  (0.100946 -0.0404281 0)
  (0.0615095 -0.0380218 0)
  (0.0252044 -0.0295784 0)
  (-0.00722814 -0.015362 0)
  (-0.0276818 -0.0031452 0)
  (-0.0390139 0.0037207 0)
  (-0.0444339 0.00666806 0)
  (-0.0467034 0.00777918 0)
  (-0.0476499 0.00787964 0)
  (-0.0485304 0.00734485 0)
  (-0.0498174 0.00640532 0)
  (-0.0517137 0.00508598 0)
  (-0.0541673 0.00366325 0)
  (-0.0571145 0.00234112 0)
  (-0.0605212 0.001151 0)
  (-0.0643572 0.000240024 0)
  (-0.0686187 -0.000233026 0)
  (-0.0732857 -8.28383e-05 0)
  (-0.078274 0.000953802 0)
  (-0.0834179 0.00316402 0)
  (-0.0885532 0.00672206 0)
  (-0.0937143 0.0114534 0)
  (-0.0992042 0.0164359 0)
  (-0.105177 0.0201967 0)
  (-0.110457 0.0241375 0)
  (-0.11464 0.0308155 0)
  (-0.117993 0.0416607 0)
  (-0.120514 0.0569524 0)
  (-0.119777 0.0743257 0)
  (-0.110529 0.0805222 0)
  (-0.0980436 0.0385734 0)
  (-0.194067 -0.147447 0)
  (0.0658539 0.127559 0)
  (0.0235654 0.0688481 0)
  (0.0277776 0.0219505 0)
  (0.0283686 -0.014099 0)
  (0.0258668 -0.0342327 0)
  (0.0174095 -0.0412231 0)
  (-6.30801e-05 -0.0424471 0)
  (-0.0196023 -0.0432066 0)
  (-0.0369955 -0.04341 0)
  (-0.0498884 -0.0446092 0)
  (-0.0569636 -0.0470115 0)
  (-0.0601425 -0.0491362 0)
  (-0.0613682 -0.0510011 0)
  (-0.0616539 -0.0526789 0)
  (-0.0615893 -0.0544088 0)
  (-0.0615972 -0.0564116 0)
  (-0.0619389 -0.0585879 0)
  (-0.0627659 -0.0604978 0)
  (-0.0641597 -0.0618792 0)
  (-0.066091 -0.0629795 0)
  (-0.0685664 -0.0643851 0)
  (-0.071702 -0.0663289 0)
  (-0.075647 -0.0690323 0)
  (-0.0805536 -0.0726263 0)
  (-0.0865034 -0.0769911 0)
  (-0.0933534 -0.0815536 0)
  (-0.100545 -0.0850781 0)
  (-0.107071 -0.0855561 0)
  (-0.111876 -0.0816372 0)
  (-0.114361 -0.0722263 0)
  (-0.114136 -0.0578073 0)
  (-0.110015 -0.0391101 0)
  (-0.10032 -0.016807 0)
  (-0.0835697 0.00775322 0)
  (-0.059826 0.0305898 0)
  (-0.0325407 0.040296 0)
  (0.0885018 -0.0380869 0)
  (-0.154229 -0.0932466 0)
  (-0.172642 -0.239857 0)
  (-0.283821 -0.0432092 0)
  (-0.211173 0.141447 0)
  (-0.171398 0.122652 0)
  (-0.118364 0.12143 0)
  (-0.0927923 0.132475 0)
  (-0.0840783 0.144247 0)
  (-0.0834383 0.148792 0)
  (-0.0859449 0.151719 0)
  (-0.0882321 0.15677 0)
  (-0.0881844 0.162439 0)
  (-0.0864265 0.169919 0)
  (-0.083681 0.177106 0)
  (-0.0808182 0.182173 0)
  (-0.0783418 0.185551 0)
  (-0.0764036 0.188029 0)
  (-0.0750123 0.190196 0)
  (-0.0741967 0.192374 0)
  (-0.0740234 0.194483 0)
  (-0.0745098 0.196028 0)
  (-0.0756088 0.196568 0)
  (-0.0772734 0.19647 0)
  (-0.0794653 0.196742 0)
  (-0.0820854 0.197867 0)
  (-0.0849853 0.20037 0)
  (-0.087984 0.20463 0)
  (-0.0908826 0.210651 0)
  (-0.0934744 0.217776 0)
  (-0.0955447 0.2244 0)
  (-0.096846 0.227884 0)
  (-0.0969998 0.226995 0)
  (-0.0952032 0.221649 0)
  (-0.090105 0.213241 0)
  (-0.0799316 0.203752 0)
  (-0.0632004 0.195396 0)
  (-0.0401511 0.190635 0)
  (-0.0107094 0.190747 0)
  (0.0226009 0.194223 0)
  (0.124729 0.222508 0)
  (-0.264621 0.209618 0)
)
;

boundaryField
{
  floor
  {
    type noSlip;
  }
  ceiling
  {
    type noSlip;
  }
  sWall
  {
    type noSlip;
  }
  nWall
  {
    type noSlip;
  }
  sideWalls
  {
    type empty;
  }
  glass1
  {
    type noSlip;
  }
  glass2
  {
    type noSlip;
  }
  sun
  {
    type noSlip;
  }
  heatsource1
  {
    type noSlip;
  }
  heatsource2
  {
    type noSlip;
  }
  Table_master
  {
    type noSlip;
  }
  Table_slave
  {
    type noSlip;
  }
  inlet
  {
    type fixedValue;
    value uniform (0.277164 -0.114805 0);
  }
  outlet
  {
    type zeroGradient;
  }
} 	// ************************************************************************* //

