/*--------------------------------*- C++ -*----------------------------------*\
  =========                 |
  \\      /  F ield         | OpenFOAM: The Open Source CFD Toolbox
   \\    /   O peration     | Website:  https://openfoam.org
    \\  /    A nd           | Version:  6
     \\/     M anipulation  |
\*---------------------------------------------------------------------------*/
FoamFile
{
    version     2.0;
    format      ascii;
    class       volScalarField;
    location    "1400";
    object      alphat;
}
// * * * * * * * * * * * * * * * * * * * * * * * * * * * * * * * * * * * * * //

dimensions      [1 -1 -1 0 0 0 0];

internalField   nonuniform List<scalar> 
459
(
0.000859159
0.000901129
0.000887898
0.000916532
0.00094112
0.000961878
0.000979733
0.00099563
0.00101056
0.00102459
0.00103339
0.0010356
0.00103116
0.00102257
0.0010113
0.000632251
0.000586914
0.000552879
0.000531102
0.000515234
0.000499183
0.000478735
0.000458287
0.000438978
0.000420588
0.00040308
0.000386421
0.000370546
0.000355332
0.000340527
0.00032565
0.000309831
0.000302558
0.000282016
0.00129481
0.0022116
0.00191088
0.00223185
0.00241088
0.00259495
0.00277421
0.00293351
0.00305041
0.00311041
0.00311861
0.00303994
0.002825
0.00240667
0.00172479
0.00102887
0.000943433
0.000753287
0.00123251
0.00156507
0.00178338
0.00187152
0.00180179
0.00146461
0.00128529
0.00114245
0.00102474
0.000924616
0.000838191
0.000762296
0.000693473
0.000629736
0.000579019
0.000535165
0.00066918
0.000384123
0.00169164
0.00327764
0.00212014
0.00313261
0.00340306
0.00358416
0.00371969
0.00382055
0.00389373
0.00393836
0.00395628
0.00391661
0.00377792
0.00348726
0.00297007
0.00216896
0.00111703
0.000870117
0.00226347
0.00266719
0.00269675
0.00261294
0.00221095
0.000588171
0.000520773
0.000470695
0.000433066
0.000404153
0.000381365
0.000363072
0.000348427
0.000337478
0.000380738
0.000438787
0.000765356
0.000457193
0.00210082
0.00487276
0.00208456
0.003457
0.00388901
0.00402704
0.00408994
0.00412198
0.00414918
0.00417721
0.00420929
0.00422097
0.00418165
0.00406016
0.00379895
0.00325775
0.00222197
0.00108761
0.0028258
0.0029781
0.00295017
0.00281526
0.00266174
0.00224473
0.000591385
0.000572761
0.000573127
0.000578338
0.000580639
0.00057446
0.000557218
0.000538077
0.000513374
0.000485281
0.000480367
0.00091538
0.000516398
0.00252254
0.00700485
0.00260163
0.00323837
0.00405193
0.00421061
0.00422923
0.00420748
0.0041955
0.00421512
0.00426927
0.00432949
0.00435744
0.00433269
0.00424864
0.00411778
0.0039494
0.00363782
0.00336211
0.00307667
0.00282378
0.00262531
0.00251711
0.00243576
0.00223596
0.00227013
0.00233187
0.00237376
0.00237608
0.00232569
0.0022009
0.00193273
0.00158749
0.00121754
0.000905056
0.000894347
0.00069534
0.00067891
0.000813725
0.000908518
0.00295932
0.00932395
0.00453551
0.00296106
0.00368485
0.0040902
0.00422926
0.00424292
0.00420504
0.00417319
0.00425829
0.00435774
0.00441866
0.00441665
0.00433883
0.00419704
0.0040125
0.00374735
0.00338903
0.00302365
0.00268387
0.00245615
0.00238382
0.00241777
0.00249686
0.00260706
0.00270345
0.00276651
0.00278813
0.00276461
0.00269471
0.00251784
0.00222423
0.00182725
0.00142228
0.00104218
0.000886887
0.00080266
0.00117895
0.000944216
0.00338988
0.011223
0.00807031
0.00458711
0.00345031
0.00333507
0.00364949
0.00399384
0.0041668
0.00416602
0.004276
0.00437558
0.00443237
0.00442427
0.00433015
0.00415047
0.00392365
0.00367735
0.00338754
0.00301691
0.00263247
0.00239252
0.00233625
0.0023873
0.00248221
0.00258854
0.00268301
0.0027545
0.00279771
0.00281459
0.00281148
0.0027813
0.00257792
0.00222562
0.00185368
0.00148591
0.00126554
0.00120451
0.00124084
0.00103827
0.00349309
0.0109681
0.00934733
0.00787052
0.00611901
0.00484014
0.00427126
0.00420771
0.00432635
0.0043542
0.00437937
0.00441031
0.00442044
0.00437496
0.0042435
0.00402386
0.00377808
0.00357174
0.00337317
0.00303286
0.00262663
0.00238658
0.00232934
0.00236044
0.00242158
0.00248866
0.00255066
0.00260549
0.0026566
0.00271362
0.00279176
0.00290569
0.00299596
0.00271893
0.00249382
0.00240925
0.00255881
0.00294321
0.00382175
0.00162515
0.00341713
0.00412202
0.00484208
0.00516045
0.00520856
0.00497073
0.00468447
0.00449262
0.00439377
0.00436093
0.00437261
0.00438555
0.00435958
0.00426127
0.00406886
0.00379515
0.00354369
0.00340138
0.00330538
0.0030107
0.00260553
0.0023792
0.0023111
0.00230893
0.00232679
0.00234698
0.00236236
0.00237083
0.00237283
0.00236935
0.00236041
0.0023452
0.00232448
0.00230728
0.00232233
0.00236593
0.00238233
0.00231603
0.0021748
0.00151285
0.00309142
0.00589405
0.00561944
0.00540271
0.00519377
0.00502416
0.00489758
0.00477683
0.00464539
0.00449128
0.00429865
0.00405188
0.00374066
0.0033904
0.00316801
0.00314559
0.00318514
0.00293358
0.00258305
0.00238926
0.00230108
0.00225743
0.00223253
0.00221636
0.00220454
0.00219576
0.00219131
0.00219464
0.00221033
0.00224238
0.00229054
0.00234348
0.00240269
0.00245298
0.00246286
0.00241239
0.0021443
0.0012178
0.00290757
0.00646427
0.00609982
0.00576235
0.00548782
0.00524886
0.00500973
0.00477015
0.0044544
0.00409835
0.00372994
0.00335763
0.00297912
0.0026219
0.00259874
0.00287508
0.00317196
0.00311214
0.00291133
0.00274375
0.00261134
0.00249895
0.00240215
0.00232303
0.00226464
0.00222879
0.00221574
0.00222402
0.00224934
0.00228103
0.00233541
0.00241027
0.0024878
0.00254433
0.0025555
0.00251133
0.00185853
0.0012433
0.00229075
0.00248918
0.00265773
0.00282351
0.00265013
0.00249966
0.00228278
0.00209527
0.00191243
0.00173288
0.00158223
0.00144837
0.00131976
0.00118876
0.00104774
0.000888302
0.000756926
0.000756622
0.000756303
0.00072938
0.000706571
0.000692643
0.000685347
0.000684143
0.000689451
0.000701691
0.000720922
0.000746958
0.000779677
0.000819414
0.000867497
0.000927254
0.000994022
0.00106563
0.00114121
0.00122045
0.00122861
0.00110083
0.00105525
0.00126272
)
;

boundaryField
{
    floor
    {
        type            compressible::alphatWallFunction;
        Prt             0.85;
        value           nonuniform List<scalar> 
29
(
0.000143917
8.92124e-05
8.24357e-05
7.7306e-05
7.40028e-05
7.15849e-05
6.91302e-05
6.59896e-05
6.28324e-05
5.98346e-05
5.69636e-05
5.42155e-05
5.15863e-05
4.90672e-05
4.66398e-05
4.42648e-05
4.18644e-05
3.92962e-05
3.811e-05
3.47383e-05
3.47377e-05
5.12232e-05
6.26632e-05
7.1761e-05
0.000143915
8.92114e-05
0.000107018
0.00012388
0.000154595
)
;
    }
    ceiling
    {
        type            compressible::alphatWallFunction;
        Prt             0.85;
        value           nonuniform List<scalar> 
43
(
0.000314684
0.000340042
0.000361417
0.00038241
0.000360596
0.000341534
0.000313826
0.000289635
0.000265819
0.000242186
0.000222151
0.000204169
0.000186716
0.000168738
0.000149127
0.000126576
0.000107643
0.000107607
0.000107557
0.000103626
0.000100286
9.82401e-05
9.71674e-05
9.69915e-05
9.77749e-05
9.95764e-05
0.000102398
0.000106203
0.000110963
0.00011671
0.000123621
0.000132146
0.000141595
0.000151648
0.000162173
0.000173123
0.000174246
0.000156561
0.0001502
0.000178937
0.000456411
0.000542332
0.000392728
)
;
    }
    sWall
    {
        type            compressible::alphatWallFunction;
        Prt             0.85;
        value           uniform 0.000313493;
    }
    nWall
    {
        type            compressible::alphatWallFunction;
        Prt             0.85;
        value           nonuniform List<scalar> 6(0.000129162 0.000134231 0.000147488 0.000172437 0.000175941 0.00017861);
    }
    sideWalls
    {
        type            empty;
    }
    glass1
    {
        type            compressible::alphatWallFunction;
        Prt             0.85;
        value           nonuniform List<scalar> 9(0.000119072 0.00017903 0.000231797 0.000284905 0.00033857 0.000393224 0.000446327 0.000459075 0.000449986);
    }
    glass2
    {
        type            compressible::alphatWallFunction;
        Prt             0.85;
        value           nonuniform List<scalar> 2(0.000226248 0.000211342);
    }
    sun
    {
        type            compressible::alphatWallFunction;
        Prt             0.85;
        value           nonuniform List<scalar> 
14
(
0.000122339
0.000128323
0.000126435
0.000130517
0.00013401
0.00013695
0.000139473
0.000141715
0.000143817
0.000145788
0.000147024
0.000147333
0.000146708
0.000145502
)
;
    }
    heatsource1
    {
        type            compressible::alphatWallFunction;
        Prt             0.85;
        value           nonuniform List<scalar> 3(9.62138e-05 0.000115876 0.000129465);
    }
    heatsource2
    {
        type            compressible::alphatWallFunction;
        Prt             0.85;
        value           nonuniform List<scalar> 4(0.00014648 0.000134425 0.000134424 0.000158793);
    }
    Table_master
    {
        type            compressible::alphatWallFunction;
        Prt             0.85;
        value           nonuniform List<scalar> 9(8.2709e-05 7.25178e-05 6.4839e-05 5.90009e-05 5.44712e-05 5.08715e-05 4.79616e-05 4.56183e-05 4.38578e-05);
    }
    Table_slave
    {
        type            compressible::alphatWallFunction;
        Prt             0.85;
        value           nonuniform List<scalar> 9(8.3197e-05 8.03974e-05 8.0452e-05 8.12359e-05 8.15817e-05 8.06519e-05 7.80512e-05 7.51524e-05 7.13919e-05);
    }
    inlet
    {
        type            fixedValue;
        value           uniform 1.94e-05;
    }
    outlet
    {
        type            zeroGradient;
    }
}


// ************************************************************************* //
