/*--------------------------------*- C++ -*----------------------------------*\
  =========                 |
  \\      /  F ield         | OpenFOAM: The Open Source CFD Toolbox
   \\    /   O peration     | Website:  https://openfoam.org
    \\  /    A nd           | Version:  6
     \\/     M anipulation  |
\*---------------------------------------------------------------------------*/
FoamFile
{
    version     2.0;
    format      ascii;
    class       surfaceScalarField;
    location    "1400";
    object      phi;
}
// * * * * * * * * * * * * * * * * * * * * * * * * * * * * * * * * * * * * * //

dimensions      [1 0 -1 0 0 0 0];

internalField   nonuniform List<scalar> 
852
(
-0.00266021
0.00271973
-0.00324749
0.000587317
-0.00384259
0.000595139
-0.00439094
0.000548394
-0.00485669
0.000465791
-0.00522395
0.000367307
-0.00547729
0.000253373
-0.00559765
0.000120407
-0.00556203
-3.55851e-05
-0.00534195
-0.00022004
-0.00491613
-0.000425777
-0.00427612
-0.00063997
-0.00339433
-0.000881753
-0.00210961
-0.00128468
-0.00210807
0.000651714
-0.000649464
0.00101885
-0.000367108
0.00120899
-0.000190107
0.00135311
-0.000144095
0.00148325
-0.000130118
0.00158097
-9.76926e-05
0.00160903
-2.80309e-05
0.00159239
1.66702e-05
0.00156124
3.11771e-05
0.00152503
3.62429e-05
0.00148515
3.99138e-05
0.0014416
4.35909e-05
0.00139224
4.93938e-05
0.00132969
6.25888e-05
0.00123497
9.47603e-05
0.0010776
0.000157416
0.000855799
0.00022185
0.000639576
0.000216271
0.000643468
-0.00192143
0.0047998
-0.00267443
0.00134036
-0.00336392
0.00128468
-0.00393144
0.00111595
-0.0044031
0.000937495
-0.00477901
0.00074325
-0.00504815
0.000522554
-0.00519324
0.000265536
-0.00519426
-3.45249e-05
-0.00503691
-0.000377351
-0.00471371
-0.000748943
-0.00422662
-0.00112702
-0.00358861
-0.00151972
-0.00293151
-0.00194174
-0.00287067
-0.00216887
-0.00114063
-0.00173006
-0.00114064
0.000483689
-0.0011272
0.00066337
-0.000546761
0.000814411
-0.000341121
0.000972713
-0.00030237
0.00112736
-0.000284741
0.00125894
-0.000229241
0.00128643
-5.54931e-05
0.00129106
1.20658e-05
0.00129489
2.73836e-05
0.00129824
3.29246e-05
0.0013009
3.72818e-05
0.00130309
4.14297e-05
0.00130432
4.8206e-05
0.00130154
6.53986e-05
0.00126912
0.000127227
0.00111954
0.00030703
0.000860202
0.000481237
0.000553875
0.000522645
0.00120712
-0.00139588
0.00643513
-0.00215747
0.00210199
-0.00279795
0.0019252
-0.00329969
0.00161774
-0.00372423
0.00136207
-0.00407346
0.00109252
-0.00433479
0.00078392
-0.00448896
0.000419748
-0.00451428
-9.17172e-06
-0.00439306
-0.00049853
-0.00412567
-0.0010163
-0.00373323
-0.00151943
-0.00327057
-0.00198233
-0.00284752
-0.00236476
-0.00246896
-0.00254739
-0.00163553
-0.00256345
-0.00277613
-0.000123223
-0.00099503
0.000113359
-0.000783315
0.000382465
-0.000610201
0.000595613
-0.00051549
0.000781393
-0.000470494
0.00101445
-0.000462268
0.000959134
0.000971381
0.000998946
0.00103205
0.00106952
0.00111113
0.00115952
0.00122511
0.00135253
0.00112782
0.000531773
0.000840615
0.000768489
0.00047653
0.000886774
0.00169831
-0.00102918
0.00776975
-0.00174142
0.00281427
-0.00218463
0.00236844
-0.00255477
0.00198792
-0.00288906
0.00169639
-0.00318043
0.00138393
-0.00341303
0.00101656
-0.00356451
0.000571261
-0.00360641
3.27678e-05
-0.00351203
-0.000592869
-0.00329164
-0.00123665
-0.00299141
-0.00181962
-0.00268008
-0.00229362
-0.00242161
-0.00262319
-0.00219416
-0.0027748
-0.00199685
-0.00276071
-0.00240651
-0.00236643
-0.000878308
-0.00151941
-0.000508849
-0.00136446
-0.000180689
-0.00111145
9.77297e-05
-0.000888593
0.000307305
-0.000725039
0.000456409
-0.000619572
0.000504763
-0.000510595
0.000829975
-0.000325339
0.00109895
-0.000269098
0.00134585
-0.000247028
0.00156805
-0.00022233
0.00174703
-0.000179108
0.00185087
-0.000103964
0.0018389
1.18457e-05
0.00167672
0.000162054
0.00131698
0.000359611
0.00113488
0.000713905
0.000800892
0.00110251
0.000288927
0.00139878
0.00200624
-0.00075916
0.00888868
-0.00139687
0.00345203
-0.00153269
0.0025043
-0.00173062
0.00218589
-0.0019446
0.00191041
-0.00214525
0.00158461
-0.00231374
0.0011851
-0.00242998
0.000687533
-0.00246061
6.34388e-05
-0.0023657
-0.000687745
-0.00217278
-0.00142953
-0.00194415
-0.00204822
-0.00173587
-0.00250185
-0.00157672
-0.0027823
-0.00145951
-0.00289197
-0.00139792
-0.00282226
-0.00127634
-0.00248797
-0.000790262
-0.00200545
-0.000478444
-0.00167624
-0.000239474
-0.00135039
-5.02569e-05
-0.00107778
0.000105779
-0.00088105
0.000235414
-0.000749182
0.000365973
-0.000641128
0.000581301
-0.000540642
0.000798352
-0.000486123
0.00100744
-0.000456091
0.00120612
-0.000420985
0.00138305
-0.000356015
0.00151463
-0.000235517
0.00156333
-3.68216e-05
0.00150263
0.000222775
0.00134945
0.000512815
0.0011869
0.000876492
0.000992609
0.00129683
0.000583896
0.00180753
0.000342713
0.00224746
-0.00105111
0.00139365
-0.00148371
0.000432425
-0.00143645
-0.000680063
0.00997373
-0.00120736
0.00397936
-0.000886857
0.00218384
-0.000822052
0.00212113
-0.000911532
0.00199993
-0.00101529
0.00168841
-0.00108853
0.00125838
-0.00112721
0.00072625
-0.0010927
2.89625e-05
-0.000961713
-0.000818695
-0.000798833
-0.00159237
-0.000657108
-0.0021899
-0.000567004
-0.00259191
-0.000535261
-0.00281399
-0.000551285
-0.0028759
-0.000590596
-0.0027829
-0.000557766
-0.00252075
-0.000412217
-0.00215096
-0.000288533
-0.00179989
-0.000200482
-0.00143841
-0.000134782
-0.00114346
-6.92934e-05
-0.000946515
4.04144e-06
-0.000822492
9.96975e-05
-0.000736759
0.000233551
-0.000674471
0.000386235
-0.000638782
0.000546781
-0.000616612
0.000712975
-0.000587154
0.000882092
-0.000525106
0.00104451
-0.000397912
0.00117403
-0.000166311
0.00123303
0.000163799
0.00123833
0.000507543
0.0012485
0.000866351
0.00132041
0.00122495
0.0014682
0.00165978
0.00186416
0.00185154
0.00209314
0.00116471
0.0017238
0.000801794
0.00034428
-0.000884152
0.0113022
-0.000921016
0.00401627
1.27726e-05
0.00125009
0.000373213
0.00176073
0.00034968
0.0020235
0.00029941
0.00173872
0.000324989
0.00123284
0.000418013
0.000633263
0.000568891
-0.00012188
0.000719962
-0.000969731
0.000808036
-0.00168041
0.000813149
-0.00219497
0.000739838
-0.00251856
0.000604325
-0.00267843
0.000429052
-0.00270058
0.000245181
-0.00259897
9.88366e-05
-0.00237436
9.52299e-06
-0.0020616
-6.67038e-05
-0.00172363
-0.000144396
-0.00136069
-0.000210258
-0.00107757
-0.000248942
-0.000907809
-0.000260203
-0.000811207
-0.000242272
-0.000754667
-0.000194657
-0.000722061
-0.00012559
-0.000707824
-4.04303e-05
-0.000701745
6.10841e-05
-0.000688642
0.000184278
-0.000648273
0.000340458
-0.000554066
0.000540854
-0.00036668
0.000739606
-3.49268e-05
0.000912791
0.000334384
0.00111378
0.000665393
0.00141247
0.000926284
0.00186892
0.00120337
0.00251285
0.00120764
0.00300946
0.000668142
0.00305142
0.000759869
0.0034587
0.00220317
0.00959371
0.00270852
0.00351095
0.00288483
0.00107382
0.00276608
0.00187953
0.00251845
0.00227117
0.00238569
0.00187151
0.00238138
0.00123719
0.0024944
0.000520274
0.00265709
-0.000284536
0.00270455
-0.00101715
0.00260583
-0.00158165
0.0023837
-0.0019728
0.00207827
-0.00221308
0.0017264
-0.00232652
0.00135801
-0.00233214
0.000997844
-0.00223875
0.000665359
-0.00204182
0.000371652
-0.00176784
0.000108379
-0.00146031
-0.000127632
-0.00112465
-0.000316274
-0.00088891
-0.000454817
-0.000769245
-0.000554675
-0.000711325
-0.000624499
-0.00068482
-0.000670672
-0.000675863
-0.000700892
-0.00067758
-0.000720473
-0.000682138
-0.000729737
-0.000679351
-0.000721434
-0.00065655
-0.000677327
-0.000598145
-0.000558709
-0.00048527
-0.000293789
-0.00029982
3.99261e-05
6.96778e-07
0.000389831
0.000315515
0.000792683
0.000523461
0.00129433
0.000701749
0.00179135
0.000710648
0.00191042
0.000549105
0.00094185
0.00172847
0.00465243
0.0101322
0.0136333
0.0122185
0.00248864
0.0100574
0.00404068
0.008485
0.00384361
0.00741662
0.00293993
0.00668479
0.00196906
0.00615748
0.00104762
0.00563881
0.000234167
0.00505985
-0.000438154
0.00444507
-0.000966824
0.0038204
-0.00134808
0.00320377
-0.00159641
0.0026096
-0.0017323
0.00204936
-0.00177184
0.00152756
-0.00171689
0.00103737
-0.00155158
0.000581721
-0.00131214
0.000165734
-0.00104429
-0.000192363
-0.000766531
-0.000467057
-0.000614195
-0.000680857
-0.000555424
-0.00085715
-0.00053501
-0.00101059
-0.000531354
-0.00115114
-0.000535288
-0.00128776
-0.000540935
-0.00142879
-0.000541087
-0.00158212
-0.000525988
-0.0017554
-0.000483248
-0.00195563
-0.000397888
-0.00218825
-0.00025262
-0.00245552
-3.2526e-05
-0.00272564
0.000270852
-0.00306596
0.000655866
-0.00364713
0.00110466
-0.00454145
0.0015961
-0.00586636
0.00203559
-0.00754568
0.00222845
-0.00735048
0.0015333
-0.00241838
0.00326999
0.00357228
0.00415851
0.00315218
0.00544803
0.00255412
0.00587289
0.00251509
0.00589015
0.00195184
0.00576755
0.00117025
0.00553409
0.00046767
0.00516887
-7.28824e-05
0.0046744
-0.000472315
0.00409142
-0.000765058
0.00346419
-0.000969131
0.00283039
-0.00109845
0.00222121
-0.0011626
0.00165069
-0.00114632
0.001085
-0.000985844
0.000543829
-0.000770931
5.06438e-05
-0.000551073
-0.000339076
-0.000376791
-0.000629191
-0.000324062
-0.000872241
-0.000312354
-0.00109253
-0.000314699
-0.00130187
-0.000321994
-0.00150677
-0.000330363
-0.00171139
-0.000336294
-0.00191784
-0.000334611
-0.00212584
-0.000317955
-0.00233197
-0.000277089
-0.00252817
-0.000201669
-0.00270167
-7.90859e-05
-0.00284207
0.000107904
-0.00293942
0.000368228
-0.00300362
0.000720097
-0.00304164
0.0011427
-0.00302208
0.00157657
-0.00288932
0.00190286
-0.00218959
0.00152875
-0.000568409
-8.78556e-05
-0.00290987
-0.000357499
0.00396775
0.00138056
0.00141414
0.00238301
0.00155171
0.00319535
0.00170278
0.00381645
0.00133079
0.00418196
0.000804775
0.00428334
0.000366331
0.00416424
4.62583e-05
0.00386841
-0.000176449
0.00343884
-0.000335445
0.00291903
-0.000449276
0.00234986
-0.000529235
0.0017754
-0.000588088
0.00126233
-0.000633203
0.000714473
-0.00043795
0.000207082
-0.000263507
-0.000181841
-0.000162127
-0.000454321
-0.000104292
-0.000688448
-8.99176e-05
-0.000908934
-9.18493e-05
-0.00112485
-9.87681e-05
-0.00133911
-0.000107708
-0.00155231
-0.000117138
-0.00176333
-0.000125254
-0.00196858
-0.000129338
-0.00216084
-0.000125665
-0.00232832
-0.00010958
-0.00245435
-7.56157e-05
-0.00251531
-1.80945e-05
-0.00249181
8.44222e-05
-0.00236725
0.000243702
-0.00211265
0.000465527
-0.00171102
0.000741091
-0.00111935
0.000984933
-3.122e-05
0.000814755
0.00181159
-0.00031403
0.00335954
-0.00163578
0.000533872
-0.00615747
-0.00827161
-0.00427609
-0.00285202
-0.00129517
0.000409633
0.00174023
0.00254388
0.00290853
0.00295273
0.00277387
0.00243566
0.00198325
0.00145049
0.000858431
0.000220734
-0.000222472
-0.000491595
-0.00065965
-0.000770346
-0.000867116
-0.000966189
-0.00107249
-0.00118796
-0.00131304
-0.00144633
-0.00158373
-0.00171741
-0.0018349
-0.00191828
-0.00194394
-0.00186682
-0.00163015
-0.00117141
-0.000436861
0.000541707
0.00135002
0.00102894
-0.000615079
)
;

boundaryField
{
    floor
    {
        type            calculated;
        value           nonuniform List<scalar> 
29
(
0
0
0
0
0
0
0
0
0
0
0
0
0
0
0
0
0
0
0
0
-3.84578e-06
-9.73007e-06
-1.46203e-05
-1.89522e-05
-1.49805e-06
-2.21992e-06
-5.92518e-06
-8.91618e-06
-8.76291e-06
)
;
    }
    ceiling
    {
        type            calculated;
        value           nonuniform List<scalar> 
43
(
-3.04948e-05
-2.9223e-05
-2.7762e-05
-9.89399e-06
-5.11746e-06
-1.98933e-06
2.27045e-07
1.15639e-06
1.71922e-06
2.09969e-06
2.44912e-06
2.80187e-06
3.17111e-06
3.56986e-06
4.01335e-06
4.53566e-06
5.27833e-06
5.63503e-06
5.94416e-06
6.42079e-06
6.86958e-06
7.24168e-06
7.54756e-06
7.78919e-06
7.96095e-06
8.05827e-06
8.08235e-06
8.03967e-06
7.93887e-06
7.78722e-06
7.58724e-06
7.33154e-06
7.06233e-06
6.80418e-06
6.5737e-06
6.39295e-06
6.474e-06
7.06883e-06
8.2672e-06
8.72816e-06
1.34741e-05
9.91114e-06
-3.79742e-05
)
;
    }
    sWall
    {
        type            calculated;
        value           uniform -0.000238942;
    }
    nWall
    {
        type            calculated;
        value           nonuniform List<scalar> 6(-4.74255e-05 -5.68938e-05 -6.29678e-05 -7.68958e-05 -8.41742e-05 -8.99114e-05);
    }
    sideWalls
    {
        type            empty;
        value           nonuniform 0();
    }
    glass1
    {
        type            calculated;
        value           nonuniform List<scalar> 9(-5.9475e-05 -0.000158599 -0.000239411 -0.000305402 -0.000359725 -0.000404948 -0.000444274 -0.000494646 -0.000551953);
    }
    glass2
    {
        type            calculated;
        value           nonuniform List<scalar> 2(-0.000251844 -0.000279642);
    }
    sun
    {
        type            calculated;
        value           uniform 0;
    }
    heatsource1
    {
        type            calculated;
        value           nonuniform List<scalar> 3(2.04008e-07 2.03909e-07 2.0392e-07);
    }
    heatsource2
    {
        type            calculated;
        value           nonuniform List<scalar> 4(5.07796e-08 5.09945e-08 0 0);
    }
    Table_master
    {
        type            calculated;
        value           nonuniform List<scalar> 9(-1.53085e-07 -1.53142e-07 -1.53148e-07 -1.53151e-07 -1.5315e-07 -1.53148e-07 -1.53143e-07 -1.53131e-07 -1.53098e-07);
    }
    Table_slave
    {
        type            calculated;
        value           nonuniform List<scalar> 9(1.53115e-07 1.53056e-07 1.52976e-07 1.52903e-07 1.52846e-07 1.52816e-07 1.52823e-07 1.52837e-07 1.52903e-07);
    }
    inlet
    {
        type            calculated;
        value           uniform -0.00435365;
    }
    outlet
    {
        type            calculated;
        value           nonuniform List<scalar> 2(0.00642692 0.00214338);
    }
}


// ************************************************************************* //
