/*--------------------------------*- C++ -*----------------------------------*\
  =========                 |
  \\      /  F ield         | OpenFOAM: The Open Source CFD Toolbox
   \\    /   O peration     | Website:  https://openfoam.org
    \\  /    A nd           | Version:  6
     \\/     M anipulation  |
\*---------------------------------------------------------------------------*/
FoamFile
{
    version     2.0;
    format      ascii;
    class       surfaceScalarField;
    location    "1000";
    object      phi;
}
// * * * * * * * * * * * * * * * * * * * * * * * * * * * * * * * * * * * * * //

dimensions      [1 0 -1 0 0 0 0];

internalField   nonuniform List<scalar> 
852
(
-0.00293669
0.00299292
-0.00397568
0.00103899
-0.00476484
0.00078916
-0.00538194
0.000617095
-0.00579776
0.000415826
-0.00598974
0.000191977
-0.00593611
-5.36321e-05
-0.00561946
-0.000316649
-0.00505223
-0.000567238
-0.00428632
-0.000765904
-0.00340244
-0.000883888
-0.00248935
-0.000913086
-0.00162192
-0.000867434
-0.000822446
-0.000799473
-0.00082101
-0.000675329
0.000678007
-0.000345102
-0.000330228
0.000262835
-0.000607938
0.000736246
-0.000473412
0.00105018
-0.000313936
0.00124512
-0.000194935
0.00135098
-0.000105867
0.00140356
-5.25774e-05
0.00143322
-2.96603e-05
0.00145133
-1.81099e-05
0.00146138
-1.00567e-05
0.00146448
-3.09756e-06
0.00145865
5.82553e-06
0.00143548
2.31704e-05
0.00137247
6.30114e-05
0.00123179
0.000140674
0.000998712
0.000233077
0.000706683
0.000292028
0.000710285
-0.00209477
0.00523909
-0.00310001
0.00204423
-0.00390575
0.0015949
-0.00450951
0.00122086
-0.00491549
0.000821798
-0.00511009
0.000386578
-0.00506815
-9.55692e-05
-0.00477531
-0.000609493
-0.00425502
-0.00108752
-0.00356868
-0.00145225
-0.00279848
-0.00165409
-0.00202491
-0.00168666
-0.00132015
-0.00157219
-0.000772275
-0.00134735
-0.000568843
-0.00102444
-7.60518e-05
-0.000492844
-7.61041e-05
0.000378314
0.000307318
0.000802919
-0.000754834
0.00105188
-0.0008569
0.00126067
-0.000682207
0.0014158
-0.000469061
0.00150632
-0.000285464
0.00152024
-0.000119782
0.00152401
-5.63519e-05
0.00152856
-3.42116e-05
0.00153237
-2.192e-05
0.00153492
-1.26071e-05
0.00153617
-4.35297e-06
0.00153526
6.73725e-06
0.00152861
2.98238e-05
0.0014874
0.000104217
0.00131243
0.000315643
0.00100995
0.000535558
0.000628253
0.000673721
0.00134782
-0.00146594
0.00693658
-0.00232906
0.00290735
-0.00303741
0.00230324
-0.00354832
0.00173177
-0.00389752
0.001171
-0.00406702
0.000556075
-0.00401214
-0.000150448
-0.00371102
-0.000910614
-0.00320877
-0.00158977
-0.0025812
-0.00207982
-0.00191009
-0.0023252
-0.00125946
-0.0023373
-0.00068004
-0.00215161
-0.000223131
-0.00180426
8.09958e-05
-0.00132857
0.000280755
-0.000692603
0.00020465
0.00148398
-0.00116866
0.00169817
-0.000969032
0.00167784
-0.000836569
0.00167859
-0.000682961
0.0017003
-0.000490764
0.00171145
-0.000296617
0.00159182
0.00153562
0.00150156
0.00147979
0.00146734
0.00146313
0.00147002
0.0015
0.00160437
0.00132407
0.000595943
0.000983202
0.000876421
0.00054948
0.00110744
0.00191146
-0.00102373
0.00826011
-0.00170539
0.00358901
-0.00216651
0.00276436
-0.00249338
0.00205864
-0.00271633
0.00139395
-0.00280317
0.000642912
-0.00267921
-0.00027441
-0.00233263
-0.00125719
-0.00184711
-0.00207529
-0.0013058
-0.00262113
-0.000775913
-0.00285509
-0.000292783
-0.00282043
0.000125807
-0.0025702
0.000474769
-0.00215322
0.000781382
-0.00163518
0.00114952
-0.00106075
0.0019097
-0.00055553
0.00244386
-0.000526908
0.00204301
-0.000767805
0.00191647
-0.000842496
0.00180693
-0.000727033
0.00171376
-0.000589785
0.00166338
-0.000440385
0.0016436
-0.000276845
0.00175745
-0.000113996
0.00182972
-7.24261e-05
0.00188827
-5.87086e-05
0.00193346
-4.53408e-05
0.0019514
-1.80952e-05
0.0019211
3.0146e-05
0.00181789
0.000103058
0.00160943
0.000208309
0.00124162
0.00036765
0.00111117
0.000726392
0.000825081
0.00116251
0.000388219
0.0015443
0.00231826
-0.000717776
0.00933564
-0.00123386
0.0041051
-0.00132041
0.00285091
-0.00137168
0.0021099
-0.00139202
0.0014143
-0.00130124
0.000552129
-0.00101931
-0.000556339
-0.000609495
-0.00166701
-0.00017741
-0.00250738
0.000210737
-0.00300928
0.000528513
-0.00317286
0.000773511
-0.00306543
0.000958861
-0.00275555
0.00111272
-0.00230708
0.00126577
-0.00178824
0.0014695
-0.00126448
0.00175426
-0.000840292
0.00189175
-0.000664394
0.00179467
-0.000670725
0.00162038
-0.000668208
0.00147391
-0.000580566
0.00135455
-0.000470425
0.00127312
-0.000358955
0.00124264
-0.000246361
0.00128412
-0.00015548
0.00133174
-0.000120054
0.00138426
-0.000111221
0.00143824
-9.93231e-05
0.00148318
-6.30417e-05
0.00149962
1.37119e-05
0.00146709
0.000135583
0.00137366
0.000301733
0.00121996
0.000521356
0.00108595
0.000860393
0.000942222
0.00130624
0.000623623
0.0018629
0.000551721
0.00239016
-0.000969723
0.00152124
-0.00143254
0.00046261
-0.00138557
-0.000626447
0.0103687
-0.000979334
0.00445798
-0.000551892
0.00242346
-0.000185302
0.00174331
9.72312e-05
0.00113176
0.000489537
0.000159822
0.000989841
-0.00105664
0.00141067
-0.00208784
0.00169582
-0.00279253
0.00184168
-0.00315514
0.00187826
-0.00320944
0.00183386
-0.00302104
0.00173886
-0.00266055
0.00162938
-0.0021976
0.00153849
-0.00169735
0.0014918
-0.00121778
0.00148338
-0.000831872
0.00142923
-0.000610245
0.00128554
-0.000527033
0.00109573
-0.000478403
0.000928896
-0.000413733
0.000801927
-0.000343457
0.000720754
-0.000277783
0.000692816
-0.000218424
0.000715101
-0.000177766
0.000763354
-0.000168307
0.00082679
-0.000174658
0.000900784
-0.000173318
0.000979787
-0.000142046
0.00105187
-5.83701e-05
0.00109945
8.80043e-05
0.00111833
0.000282851
0.00111645
0.000523234
0.00114108
0.000835757
0.00123982
0.0012075
0.00142588
0.00167684
0.00186848
0.00194756
0.00212919
0.00126053
0.00174058
0.000851217
0.000411564
-0.000680419
0.0115001
-0.000558461
0.00433602
0.000578914
0.00128609
0.00137691
0.000945309
0.00206616
0.000442513
0.00277007
-0.000544082
0.00331266
-0.00159924
0.00359745
-0.00237263
0.00362982
-0.0028249
0.00345548
-0.00298079
0.00313672
-0.00289068
0.00273467
-0.00261899
0.0023026
-0.00222848
0.00188715
-0.00178216
0.0015237
-0.00133391
0.00122827
-0.000922347
0.0009993
-0.000602906
0.000801499
-0.000412445
0.0006022
-0.000327734
0.000412639
-0.000288842
0.000257799
-0.000258895
0.00014739
-0.000233048
8.24728e-05
-0.000212868
6.33392e-05
-0.000199291
8.34124e-05
-0.00019784
0.000127774
-0.00021267
0.000187093
-0.000233978
0.000260348
-0.000246574
0.000351664
-0.000233364
0.000465936
-0.000172643
0.000590862
-3.69227e-05
0.00071596
0.000157752
0.000852237
0.000386956
0.00103749
0.000650502
0.00131992
0.000925071
0.0017609
0.00123586
0.00242716
0.00128129
0.00296782
0.000719867
0.00299158
0.000827455
0.00346435
0.00259615
0.00940845
0.00330204
0.00363013
0.00370736
0.000880762
0.00440316
0.000249512
0.00522278
-0.000377113
0.00584991
-0.00117121
0.00606744
-0.00181677
0.00590571
-0.0022109
0.00544203
-0.00236123
0.00476881
-0.00230757
0.00398148
-0.00210335
0.00316394
-0.00180145
0.00237761
-0.00144214
0.00167136
-0.00107591
0.00107781
-0.000740362
0.000603219
-0.000447753
0.000253082
-0.00025277
-1.21961e-06
-0.000158144
-0.000196524
-0.000132431
-0.000349711
-0.000135656
-0.000465552
-0.000143055
-0.00054634
-0.000152261
-0.000595567
-0.000163642
-0.000616702
-0.000178157
-0.000616337
-0.000198206
-0.000604509
-0.000224499
-0.000587001
-0.000251488
-0.000562904
-0.000270671
-0.000523917
-0.000272352
-0.00045136
-0.0002452
-0.000316312
-0.000171972
-0.00013468
-2.38807e-05
7.88803e-05
0.000173394
0.000348125
0.000381256
0.000684678
0.000588517
0.00112926
0.000791282
0.00161924
0.000791307
0.0018284
0.000510706
0.00108772
0.00156814
0.00480131
0.00996185
0.0135839
0.0124567
0.00200802
0.0117522
0.000953936
0.0110957
0.000279407
0.0102123
-0.000287769
0.00906426
-0.000668763
0.00775661
-0.000903242
0.00638345
-0.000988065
0.00501839
-0.000942514
0.00372857
-0.00081353
0.00256635
-0.00063923
0.00155268
-0.000428474
0.000711908
-0.000235138
5.06093e-05
-7.90639e-05
-0.000414825
1.76806e-05
-0.00070167
3.40733e-05
-0.000879128
1.93125e-05
-0.00100482
-6.74149e-06
-0.00110589
-3.45906e-05
-0.0011886
-6.03375e-05
-0.00125557
-8.52917e-05
-0.0013103
-0.000108915
-0.00135689
-0.000131569
-0.00140185
-0.000153253
-0.00145353
-0.000172811
-0.00151952
-0.000185499
-0.00160701
-0.000183184
-0.00172465
-0.000154718
-0.00188278
-8.70717e-05
-0.00208702
3.22712e-05
-0.00232425
0.000213349
-0.00262111
0.000470249
-0.00305941
0.000819553
-0.00373052
0.00125963
-0.00470124
0.001762
-0.00608799
0.00217806
-0.00777296
0.00219568
-0.00730196
0.00109714
-0.00222493
0.00467649
0.00350978
0.00378416
0.00184627
0.00416231
-9.87432e-05
0.00416844
-0.000293892
0.00376409
-0.000264418
0.00313291
-0.000272054
0.00238181
-0.00023697
0.00157863
-0.000139333
0.000765098
4.61694e-10
-5.69453e-06
0.000131561
-0.000642567
0.000208397
-0.0010917
0.000213998
-0.0013763
0.000205527
-0.00153815
0.000179529
-0.00163998
0.000135905
-0.00171318
9.25119e-05
-0.00177441
5.44857e-05
-0.00183234
2.3337e-05
-0.00189161
-1.06385e-06
-0.00195394
-2.29688e-05
-0.00201998
-4.28702e-05
-0.00209155
-6.00033e-05
-0.00217185
-7.29514e-05
-0.00226353
-8.11377e-05
-0.00236752
-8.15047e-05
-0.00248279
-6.79158e-05
-0.0026054
-3.211e-05
-0.0027276
3.51274e-05
-0.00283736
0.000142028
-0.00293145
0.000307442
-0.00301755
0.000556343
-0.00310103
0.000903033
-0.00317758
0.00133618
-0.00320194
0.00178636
-0.00312183
0.00209795
-0.00275801
0.00183185
-0.00149646
-0.000164407
-0.00364944
-0.000536531
0.00411117
0.000299238
0.00101051
-8.36463e-05
0.000284143
-0.000462525
8.49861e-05
-0.0007961
6.91558e-05
-0.00115813
8.99736e-05
-0.00152432
0.000129223
-0.00184226
0.000178597
-0.00206558
0.000223324
-0.0021892
0.000255178
-0.00224463
0.000263826
-0.00226872
0.000238083
-0.00226614
0.000202953
-0.0022536
0.000166985
-0.00224998
0.000132284
-0.00226008
0.000102611
-0.00228354
7.79435e-05
-0.00231786
5.76578e-05
-0.00235983
4.08993e-05
-0.0024106
2.78028e-05
-0.00246921
1.57364e-05
-0.00253361
4.40018e-06
-0.00260115
-5.41693e-06
-0.00266951
-1.27781e-05
-0.00273491
-1.60988e-05
-0.0027905
-1.23339e-05
-0.0028254
2.79576e-06
-0.00282954
3.92612e-05
-0.00279272
0.000105211
-0.00269336
0.000208076
-0.00250023
0.000363211
-0.00218662
0.00058942
-0.00173335
0.000882909
-0.00111222
0.00116522
-0.000152422
0.00113815
0.00114334
0.000536084
0.00158164
-0.0006027
-0.00198898
-0.0072266
-0.0101287
-0.00597468
-0.00494425
-0.00464899
-0.00455714
-0.00448374
-0.0043915
-0.00426163
-0.00408374
-0.00386235
-0.00361026
-0.00335064
-0.00311781
-0.00292099
-0.00276087
-0.00263599
-0.00254123
-0.00247146
-0.00242223
-0.00238995
-0.0023709
-0.00236401
-0.00236849
-0.00238276
-0.00240432
-0.00242909
-0.00244994
-0.00245545
-0.00242425
-0.00232683
-0.00212626
-0.00177026
-0.00118778
-0.000311549
0.000847211
0.00197887
0.00250822
0.00189839
)
;

boundaryField
{
    floor
    {
        type            calculated;
        value           nonuniform List<scalar> 
29
(
0
0
0
0
0
0
0
0
0
0
0
0
0
0
0
0
0
0
0
0
-3.6034e-06
-9.28377e-06
-1.41607e-05
-1.85785e-05
-1.43728e-06
-2.67866e-06
-7.62637e-06
-7.99787e-06
-7.25425e-06
)
;
    }
    ceiling
    {
        type            calculated;
        value           nonuniform List<scalar> 
43
(
-4.54329e-05
-4.41135e-05
-4.2804e-05
-1.99148e-05
-1.11246e-05
-6.86546e-06
-4.24422e-06
-2.26442e-06
-6.56721e-07
7.10487e-07
1.93434e-06
3.08457e-06
4.20614e-06
5.24837e-06
6.13968e-06
6.85462e-06
7.41149e-06
7.84223e-06
8.17466e-06
8.42868e-06
8.61866e-06
8.75387e-06
8.84034e-06
8.87588e-06
8.85606e-06
8.78566e-06
8.66947e-06
8.5088e-06
8.30472e-06
8.05837e-06
7.78823e-06
7.50487e-06
7.21672e-06
6.93475e-06
6.67882e-06
6.46318e-06
6.49353e-06
6.7321e-06
7.12555e-06
8.35773e-06
1.11103e-05
8.05906e-06
-6.4862e-05
)
;
    }
    sWall
    {
        type            calculated;
        value           uniform -0.000275078;
    }
    nWall
    {
        type            calculated;
        value           nonuniform List<scalar> 6(-4.7177e-05 -5.6554e-05 -6.1199e-05 -7.1957e-05 -7.8821e-05 -9.89477e-05);
    }
    sideWalls
    {
        type            empty;
        value           nonuniform 0();
    }
    glass1
    {
        type            calculated;
        value           nonuniform List<scalar> 9(-5.62318e-05 -0.000151402 -0.000231549 -0.0002998 -0.000357759 -0.000406649 -0.000450913 -0.00050453 -0.000564508);
    }
    glass2
    {
        type            calculated;
        value           nonuniform List<scalar> 2(-0.00024925 -0.000275726);
    }
    sun
    {
        type            calculated;
        value           uniform 0;
    }
    heatsource1
    {
        type            calculated;
        value           nonuniform List<scalar> 3(2.03955e-07 2.03912e-07 2.03929e-07);
    }
    heatsource2
    {
        type            calculated;
        value           nonuniform List<scalar> 4(5.10982e-08 5.12198e-08 0 0);
    }
    Table_master
    {
        type            calculated;
        value           nonuniform List<scalar> 9(-1.52966e-07 -1.53047e-07 -1.53076e-07 -1.53096e-07 -1.5311e-07 -1.53119e-07 -1.53123e-07 -1.53116e-07 -1.53084e-07);
    }
    Table_slave
    {
        type            calculated;
        value           nonuniform List<scalar> 9(1.52843e-07 1.52869e-07 1.52852e-07 1.52838e-07 1.52834e-07 1.52837e-07 1.52853e-07 1.52895e-07 1.52975e-07);
    }
    inlet
    {
        type            calculated;
        value           uniform -0.00617824;
    }
    outlet
    {
        type            calculated;
        value           nonuniform List<scalar> 2(0.00754711 0.00294616);
    }
}


// ************************************************************************* //
