// -*- C++ -*-
// File generated by PyFoam - sorry for the ugliness

FoamFile
{
 version 2.0;
 format ascii;
 class volScalarField;
 location "1000";
 object T;
}

dimensions [ 0 0 0 1 0 0 0 ];

internalField nonuniform List<scalar> 459
(
  303.565
  303.307
  303.294
  303.29
  303.286
  303.282
  303.278
  303.272
  303.264
  303.253
  303.241
  303.229
  303.221
  303.217
  303.218
  303.309
  303.288
  303.28
  303.283
  303.286
  303.29
  303.294
  303.298
  303.302
  303.305
  303.309
  303.313
  303.316
  303.32
  303.324
  303.328
  303.332
  303.337
  303.356
  303.74
  303.35
  303.326
  303.329
  303.332
  303.333
  303.33
  303.324
  303.309
  303.287
  303.261
  303.236
  303.218
  303.207
  303.202
  303.199
  303.198
  303.309
  303.272
  303.267
  303.269
  303.273
  303.278
  303.28
  303.281
  303.283
  303.284
  303.286
  303.287
  303.289
  303.29
  303.293
  303.297
  303.303
  303.311
  303.34
  303.922
  303.401
  303.362
  303.372
  303.386
  303.397
  303.401
  303.396
  303.373
  303.335
  303.29
  303.25
  303.22
  303.203
  303.197
  303.197
  303.199
  303.252
  303.251
  303.258
  303.267
  303.277
  303.284
  303.285
  303.285
  303.285
  303.285
  303.286
  303.286
  303.286
  303.287
  303.288
  303.291
  303.295
  303.303
  303.334
  304.105
  303.463
  303.398
  303.414
  303.442
  303.468
  303.487
  303.485
  303.451
  303.389
  303.32
  303.26
  303.219
  303.197
  303.192
  303.196
  303.202
  303.213
  303.226
  303.244
  303.263
  303.281
  303.297
  303.309
  303.319
  303.327
  303.335
  303.342
  303.348
  303.353
  303.357
  303.36
  303.361
  303.338
  303.318
  303.31
  303.333
  304.284
  303.542
  303.44
  303.451
  303.489
  303.534
  303.573
  303.571
  303.519
  303.43
  303.336
  303.261
  303.212
  303.189
  303.186
  303.195
  303.208
  303.226
  303.246
  303.27
  303.293
  303.315
  303.333
  303.348
  303.361
  303.372
  303.381
  303.388
  303.393
  303.395
  303.395
  303.391
  303.385
  303.367
  303.342
  303.322
  303.331
  303.402
  303.449
  303.455
  304.444
  303.645
  303.513
  303.502
  303.538
  303.594
  303.645
  303.626
  303.548
  303.439
  303.33
  303.245
  303.192
  303.172
  303.177
  303.196
  303.222
  303.25
  303.279
  303.308
  303.335
  303.359
  303.377
  303.392
  303.404
  303.414
  303.422
  303.427
  303.43
  303.429
  303.425
  303.417
  303.406
  303.389
  303.364
  303.339
  303.334
  303.364
  303.381
  303.416
  304.592
  303.808
  303.676
  303.647
  303.664
  303.711
  303.715
  303.647
  303.528
  303.393
  303.274
  303.191
  303.151
  303.147
  303.17
  303.208
  303.25
  303.29
  303.327
  303.359
  303.386
  303.407
  303.423
  303.436
  303.445
  303.452
  303.458
  303.461
  303.461
  303.458
  303.45
  303.439
  303.425
  303.408
  303.385
  303.361
  303.349
  303.357
  303.367
  303.396
  304.807
  304.22
  304.075
  303.989
  303.947
  303.888
  303.763
  303.589
  303.406
  303.25
  303.143
  303.092
  303.092
  303.126
  303.18
  303.244
  303.302
  303.35
  303.389
  303.417
  303.438
  303.453
  303.465
  303.474
  303.48
  303.484
  303.487
  303.487
  303.485
  303.48
  303.473
  303.461
  303.448
  303.432
  303.415
  303.397
  303.391
  303.403
  303.421
  303.543
  305.114
  304.837
  304.581
  304.346
  304.118
  303.82
  303.491
  303.211
  303.023
  302.932
  302.921
  302.969
  303.054
  303.146
  303.236
  303.324
  303.381
  303.42
  303.447
  303.466
  303.481
  303.492
  303.499
  303.505
  303.508
  303.509
  303.509
  303.508
  303.505
  303.503
  303.501
  303.5
  303.502
  303.508
  303.521
  303.543
  303.574
  303.605
  303.626
  303.679
  296.353
  298.229
  299.431
  300.27
  300.982
  301.587
  302.079
  302.462
  302.752
  302.983
  303.176
  303.289
  303.366
  303.419
  303.454
  303.478
  303.495
  303.507
  303.515
  303.521
  303.525
  303.528
  303.53
  303.531
  303.531
  303.532
  303.532
  303.533
  303.534
  303.536
  303.54
  303.548
  303.561
  303.579
  303.601
  303.624
  303.643
  303.664
  297.005
  298.842
  300.281
  301.251
  301.864
  302.315
  302.659
  302.916
  303.103
  303.237
  303.338
  303.406
  303.451
  303.482
  303.502
  303.516
  303.526
  303.533
  303.538
  303.541
  303.544
  303.546
  303.547
  303.548
  303.55
  303.551
  303.551
  303.552
  303.554
  303.556
  303.559
  303.565
  303.573
  303.586
  303.601
  303.618
  303.617
  303.646
  299.718
  299.64
  299.635
  301.47
  302.281
  302.671
  302.899
  303.067
  303.196
  303.294
  303.367
  303.421
  303.46
  303.487
  303.505
  303.517
  303.525
  303.53
  303.534
  303.536
  303.539
  303.541
  303.543
  303.545
  303.547
  303.549
  303.551
  303.553
  303.555
  303.557
  303.559
  303.561
  303.564
  303.568
  303.573
  303.582
  303.591
  303.597
  303.599
  303.638
)
;

boundaryField
{
  floor
  {
    type wallHeatTransfer;
    Tinf uniform 305.2;
    alphaWall uniform 0.24;
    value nonuniform List<scalar> 29
(
  303.41
  303.667
  303.604
  303.573
  303.576
  303.587
  303.6
  303.617
  303.636
  303.654
  303.671
  303.688
  303.705
  303.721
  303.736
  303.751
  303.767
  303.784
  303.798
  303.838
  303.838
  303.755
  303.713
  303.689
  303.41
  303.667
  303.649
  303.466
  303.378
)
;
  }
  ceiling
  {
    type wallHeatTransfer;
    Tinf uniform 303.2;
    alphaWall uniform 0.24;
    value nonuniform List<scalar> 43
(
  299.965
  299.881
  299.869
  301.577
  302.34
  302.706
  302.92
  303.077
  303.197
  303.287
  303.353
  303.4
  303.433
  303.455
  303.467
  303.475
  303.48
  303.483
  303.485
  303.486
  303.487
  303.489
  303.49
  303.492
  303.494
  303.497
  303.499
  303.502
  303.505
  303.509
  303.512
  303.516
  303.52
  303.525
  303.532
  303.543
  303.551
  303.556
  303.555
  303.588
  305.025
  304.772
  297.405
)
;
  }
  sWall
  {
    type wallHeatTransfer;
    Tinf uniform 315.2;
    alphaWall uniform 0.36;
    value uniform 301.316;
  }
  nWall
  {
    type wallHeatTransfer;
    Tinf uniform 307.2;
    alphaWall uniform 0.36;
    value nonuniform List<scalar> 6
(
  304.159
  304.107
  304.031
  304.176
  304.153
  304.217
)
;
  }
  sideWalls
  {
    type empty;
  }
  glass1
  {
    type wallHeatTransfer;
    Tinf uniform 315.2;
    alphaWall uniform 4.3;
    value nonuniform List<scalar> 9
(
  311.52
  310.889
  310.492
  310.189
  309.937
  309.709
  309.54
  309.612
  309.837
)
;
  }
  glass2
  {
    type wallHeatTransfer;
    Tinf uniform 307.2;
    alphaWall uniform 4.3;
    value nonuniform List<scalar> 2
(
  305.819
  305.914
)
;
  }
  sun
  {
    type wallHeatTransfer;
    Tinf uniform 305.2;
    alphaWall uniform 0.24;
    value nonuniform List<scalar> 14
(
  303.738
  303.494
  303.479
  303.469
  303.46
  303.452
  303.443
  303.433
  303.423
  303.411
  303.401
  303.394
  303.393
  303.398
)
;
  }
  heatsource1
  {
    type fixedGradient;
    gradient uniform 0;
  }
  heatsource2
  {
    type fixedGradient;
    gradient uniform 0;
  }
  Table_master
  {
    type zeroGradient;
  }
  Table_slave
  {
    type zeroGradient;
  }
  inlet
  {
    type fixedValue;
    value uniform 293.15;
  }
  outlet
  {
    type zeroGradient;
  }
} 	// ************************************************************************* //

