/*--------------------------------*- C++ -*----------------------------------*\
  =========                 |
  \\      /  F ield         | OpenFOAM: The Open Source CFD Toolbox
   \\    /   O peration     | Website:  https://openfoam.org
    \\  /    A nd           | Version:  6
     \\/     M anipulation  |
\*---------------------------------------------------------------------------*/
FoamFile
{
    version     2.0;
    format      ascii;
    class       surfaceScalarField;
    location    "660";
    object      phi;
}
// * * * * * * * * * * * * * * * * * * * * * * * * * * * * * * * * * * * * * //

dimensions      [1 0 -1 0 0 0 0];

internalField   nonuniform List<scalar> 
852
(
-0.000423579
0.000422352
-0.000978598
0.000555001
-0.00127778
0.00029916
-0.00127851
7.2078e-07
-0.000899663
-0.00037887
-0.000125929
-0.000773753
0.000694961
-0.000820914
0.00134546
-0.00065052
0.00179673
-0.00045129
0.00205781
-0.000261105
0.00214166
-8.38704e-05
0.00205512
8.652e-05
0.00177975
0.000275353
0.00121464
0.000565086
0.00121114
8.85551e-05
-9.21936e-05
-0.00011432
0.000202842
0.000113478
-0.000227829
0.000474758
-0.000361312
0.000751578
-0.000276851
0.000929237
-0.000177691
0.00102922
-0.000100017
0.00108419
-5.49975e-05
0.00112035
-3.61961e-05
0.00114653
-2.62142e-05
0.00116461
-1.81174e-05
0.00117365
-9.07465e-06
0.00116871
4.90688e-06
0.00113804
3.06413e-05
0.00105652
8.14846e-05
0.000882258
0.000174224
0.000582421
0.000299801
2.98241e-05
0.00055256
2.46932e-05
-0.000305439
0.000723965
-0.000719898
0.000969444
-0.00096216
0.000541407
-0.000942109
-1.93463e-05
-0.000597475
-0.000723522
-1.64784e-05
-0.00135477
0.000601837
-0.00143926
0.00113105
-0.00117976
0.00151643
-0.000836696
0.00174692
-0.000491622
0.00183662
-0.000173599
0.00180556
0.000117556
0.00168433
0.000396567
0.00157466
0.000674733
0.00180015
0.000985635
0.000887659
0.000912413
0.000887585
-6.86675e-05
-3.20109e-05
0.000269442
-0.000135299
0.000590209
-0.000548626
0.000808769
-0.000579901
0.000970337
-0.000438449
0.00106817
-0.000275561
0.0010885
-0.000120373
0.00109688
-6.34053e-05
0.00110463
-4.39842e-05
0.00111136
-3.29737e-05
0.00111682
-2.36181e-05
0.00112102
-1.3303e-05
0.00112202
3.87517e-06
0.00111501
3.76146e-05
0.00107442
0.000122035
0.000912362
0.000336248
0.000651561
0.000560566
0.000415205
0.000788879
0.000426521
-0.000187734
0.000905265
-0.000515916
0.00129761
-0.000703711
0.000729188
-0.000674041
-4.90302e-05
-0.000346273
-0.0010513
9.82903e-05
-0.00179936
0.000557709
-0.00189871
0.000973574
-0.00159566
0.00127907
-0.00114222
0.00146083
-0.000673417
0.00153653
-0.000249331
0.00153324
0.00012082
0.00148456
0.000445225
0.00142139
0.000737872
0.00135242
0.00105459
0.000961206
0.0013036
0.00184877
-3.49005e-05
-1.06238e-05
0.000788413
-0.000958639
0.00105717
-0.000817407
0.00115014
-0.000672907
0.00120726
-0.000495599
0.00122938
-0.000297705
0.00110913
0.00104585
0.00100198
0.000969134
0.000945638
0.000932457
0.000936453
0.000974188
0.00109634
0.000903904
0.000528652
0.000737603
0.00072683
0.000597956
0.000928491
0.00100412
-8.42038e-05
0.000980462
-0.000325454
0.00153885
-0.000468628
0.000872349
-0.000397317
-0.000120354
-7.09364e-05
-0.0013777
0.000250134
-0.00212046
0.000575401
-0.00222401
0.000868639
-0.00188894
0.00107426
-0.00134788
0.00118377
-0.00078297
0.0012207
-0.000286298
0.00121595
0.00012554
0.00120053
0.000460619
0.0011965
0.000741875
0.00124083
0.00101023
0.0013521
0.0011923
0.00191967
0.00128118
0.00151775
0.000380776
0.00186091
-0.000353809
0.00153116
-0.000628918
0.0014274
-0.000713673
0.00136763
-0.000613164
0.00132738
-0.000455377
0.00130162
-0.000271977
0.00138172
-8.02956e-05
0.00138378
-2.24994e-06
0.00134305
4.0545e-05
0.00127353
6.93261e-05
0.00118066
9.26747e-05
0.00106531
0.000115161
0.000923667
0.000141446
0.00074498
0.000178492
0.000501191
0.000243593
0.000583557
0.000446247
0.000642293
0.000668057
0.000761299
0.000809448
0.00173943
-4.49528e-06
0.000973437
-0.000139639
0.00167398
-0.000234319
0.000967017
-1.82007e-05
-0.000336481
0.000260174
-0.00165608
0.000464006
-0.00232431
0.000652449
-0.0024125
0.000803112
-0.00203966
0.00088268
-0.0014275
0.000894159
-0.000794494
0.00087096
-0.000263139
0.000850926
0.00014554
0.000866962
0.000444553
0.000940025
0.000668786
0.00110327
0.000846962
0.00135979
0.000935764
0.0017432
0.000897738
0.00186652
0.000257435
0.00173338
-0.000220695
0.00156139
-0.000456956
0.00138361
-0.000535915
0.00124291
-0.000472498
0.00112946
-0.000341956
0.00104359
-0.000186148
0.000997074
-3.38159e-05
0.000926859
6.79278e-05
0.000841601
0.000125765
0.000748655
0.000162233
0.000650158
0.000191132
0.00054594
0.000219339
0.00043629
0.000251056
0.000325866
0.000288875
0.000252352
0.000317065
0.000324517
0.000374042
0.000556862
0.000435675
0.00110932
0.000256956
0.00197219
0.000876512
0.000906685
0.00106526
-9.36527e-05
0.00100009
-0.000116386
5.92544e-05
0.000900309
1.14716e-05
0.00172175
8.72623e-05
0.000891215
0.000455526
-0.000704752
0.000665737
-0.00186631
0.00076074
-0.00241934
0.000787247
-0.00243905
0.000763129
-0.0020156
0.000685297
-0.00134973
0.000573524
-0.000682774
0.000477488
-0.000167144
0.000441779
0.000181215
0.000486406
0.000399896
0.000607636
0.000547529
0.000806871
0.000647701
0.00107205
0.000670557
0.00140331
0.000566454
0.0014824
0.000178319
0.00139582
-0.000134137
0.00124632
-0.00030749
0.00106032
-0.000349943
0.000880989
-0.000293205
0.000723657
-0.000184661
0.000591467
-5.39972e-05
0.00048731
7.03017e-05
0.000399821
0.000155376
0.000318577
0.000206968
0.000238097
0.000242672
0.00015684
0.000272347
7.65579e-05
0.00029958
4.6124e-06
0.00032296
-4.10131e-05
0.000334458
-3.69346e-05
0.000312945
6.88894e-05
0.000268177
0.000262749
0.000241776
0.000383589
0.000136078
0.000540213
0.00071985
0.000226207
0.00137923
-0.000275927
0.00150218
-0.000414512
0.000137756
0.000746586
0.000159958
0.00169953
0.000566648
0.000484515
0.00103829
-0.0011764
0.00121199
-0.00204002
0.00115033
-0.00235772
0.000961085
-0.00224985
0.000715664
-0.00177024
0.00044608
-0.00108022
0.000198626
-0.000435377
4.81702e-05
-1.6732e-05
1.99382e-05
0.000209415
9.13086e-05
0.000328497
0.000233496
0.000405314
0.000430665
0.000450504
0.000662964
0.000438231
0.00089156
0.00033783
0.000947234
0.000122614
0.000869663
-5.65991e-05
0.000716283
-0.000154145
0.000529613
-0.000163311
0.000342729
-0.000106362
0.000173688
-1.56614e-05
3.88579e-05
8.07907e-05
-5.29213e-05
0.000162038
-0.000117679
0.000220091
-0.00017338
0.000262626
-0.000226459
0.000295707
-0.000275572
0.000321417
-0.000314301
0.000338266
-0.000332183
0.000340798
-0.00031763
0.000319862
-0.000270226
0.000265497
-0.000195954
0.000193863
-0.000108716
0.000154497
-0.000129764
0.000157085
-6.07354e-05
0.000650782
-0.000146718
0.00146517
-0.000151725
0.00150715
-0.000587124
0.000142389
0.000586003
0.000514525
0.00132738
0.00143572
-0.000436685
0.00196741
-0.00170809
0.00195737
-0.00203
0.00161243
-0.00201281
0.00110862
-0.0017461
0.000577916
-0.00123962
8.59031e-05
-0.000588279
-0.000248962
-0.000100568
-0.000388146
0.00012241
-0.000388546
0.000209782
-0.000312871
0.00025279
-0.000187006
0.000279418
-2.65551e-05
0.000290022
0.00013983
0.000271813
0.000264932
0.000212694
0.000276433
0.000111077
0.000192015
2.778e-05
4.56856e-05
-7.85755e-06
-0.000125025
7.35706e-06
-0.00028363
5.21988e-05
-0.000405107
0.00010577
-0.000483172
0.000158811
-0.000529798
0.00020862
-0.000560142
0.00025039
-0.000581884
0.000284323
-0.0005963
0.000310078
-0.000600212
0.000325284
-0.000587753
0.000325762
-0.000552781
0.00030578
-0.000492981
0.000260017
-0.000416529
0.000189
-0.000334571
0.000111861
-0.000247155
6.70372e-05
-0.000196019
0.000105906
1.16442e-05
0.000443077
0.000305423
0.00117135
0.000900268
0.000912261
0.000202011
0.000524565
0.00181671
0.00328633
-0.00190631
0.00337452
-0.00179629
0.00280297
-0.00145848
0.00195454
-0.00116442
0.00101886
-0.00081048
0.000139043
-0.000359888
-0.000473826
2.45037e-05
-0.000752564
0.000178116
-0.000834133
0.000203937
-0.000822898
0.000198509
-0.000763989
0.000193843
-0.000678842
0.000194232
-0.00058357
0.000194711
-0.000499485
0.000187689
-0.000453649
0.000166816
-0.000473759
0.000131144
-0.00054758
0.000101556
-0.000646851
9.13669e-05
-0.000741631
0.00010209
-0.000814653
0.000125173
-0.000862121
0.000153191
-0.000886142
0.000182785
-0.000890452
0.000212882
-0.000880939
0.000240831
-0.000860908
0.000264244
-0.000830923
0.000280047
-0.000789989
0.000284302
-0.000736683
0.000272408
-0.000670711
0.000239762
-0.000594727
0.000183986
-0.000515029
0.000109255
-0.000433921
3.07063e-05
-0.000336802
-3.0127e-05
-0.000215536
-1.54045e-05
4.53254e-05
0.000182172
0.00055016
0.000666476
0.00102795
0.000434428
0.00110891
0.00534005
-0.000752222
0.00402483
-0.000481093
0.00265048
-8.41643e-05
0.0012059
0.000280104
-7.5645e-05
0.000470956
-0.000902148
0.000466537
-0.0012179
0.000340196
-0.00129873
0.000258902
-0.00130123
0.000206387
-0.00127305
0.000170287
-0.00123028
0.000151023
-0.00118085
0.00014476
-0.00113191
0.00014573
-0.00109227
0.000147997
-0.00107149
0.000145987
-0.00107728
0.000136891
-0.00110241
0.000126639
-0.00113278
0.00012169
-0.0011552
0.000124458
-0.0011632
0.000133123
-0.00115562
0.00014556
-0.00113346
0.000160572
-0.00109786
0.00017724
-0.00105071
0.000193626
-0.00099372
0.000207208
-0.000928614
0.000214892
-0.000857534
0.000213173
-0.000783601
0.000198427
-0.000711519
0.00016763
-0.000647644
0.000120063
-0.000598247
5.98103e-05
-0.000565821
-1.76761e-06
-0.000541433
-5.45618e-05
-0.000502628
-5.42557e-05
-0.000426283
0.000105782
-0.000196763
0.000436912
-9.93251e-05
0.000336946
0.000984276
-0.00112088
0.000341388
-0.00168174
7.97137e-05
-0.00193204
0.000166072
-0.00197064
0.000318642
-0.00191163
0.000411874
-0.00183748
0.000392322
-0.00179215
0.000294807
-0.00174833
0.000215031
-0.00170409
0.000162097
-0.00166287
0.000129025
-0.00162296
0.000111063
-0.00158196
0.000103709
-0.00153922
0.000102942
-0.00149649
0.00010522
-0.00145775
0.000107194
-0.00142751
0.000106605
-0.0014055
0.000104578
-0.00138721
0.000103343
-0.001367
0.000104199
-0.00134096
0.000107028
-0.00130687
0.000111426
-0.00126341
0.000117055
-0.00120961
0.000123393
-0.00114535
0.000129316
-0.00107148
0.000133288
-0.000990111
0.000133471
-0.000904904
0.000127916
-0.000821405
0.000114877
-0.000747286
9.34625e-05
-0.00069207
6.4797e-05
-0.000665278
3.29693e-05
-0.000670565
3.47154e-06
-0.000714024
-1.11506e-05
-0.00076824
-8.64134e-08
-0.000723619
6.11146e-05
-0.000485313
0.00019856
-0.000465727
0.000317314
0.000486545
-0.00424577
-0.00410356
-0.00380162
-0.0037598
-0.00363231
-0.00335378
-0.00298363
-0.00263444
-0.00238365
-0.00221306
-0.00209561
-0.00201135
-0.0019451
-0.00188625
-0.00182818
-0.00176783
-0.00170549
-0.00164375
-0.00158408
-0.00152571
-0.00146657
-0.00140467
-0.00133843
-0.00126659
-0.00118841
-0.00110424
-0.001016
-0.000927387
-0.000844064
-0.000773438
-0.000723823
-0.000702452
-0.000712545
-0.000751935
-0.000805907
-0.000848971
-0.000830741
-0.000674533
-0.000399813
)
;

boundaryField
{
    floor
    {
        type            calculated;
        value           nonuniform List<scalar> 
29
(
0
0
0
0
0
0
0
0
0
0
0
0
0
0
0
0
0
0
0
0
5.08926e-06
1.33403e-05
2.0322e-05
2.59526e-05
3.47773e-06
3.60568e-06
8.45285e-06
1.34845e-05
2.11223e-05
)
;
    }
    ceiling
    {
        type            calculated;
        value           nonuniform List<scalar> 
43
(
4.50486e-05
4.26381e-05
3.93901e-05
3.78358e-05
3.85161e-05
4.0053e-05
4.16605e-05
4.30729e-05
4.39653e-05
4.43962e-05
4.45963e-05
4.47038e-05
4.47699e-05
4.48075e-05
4.48193e-05
4.48122e-05
4.48032e-05
4.48141e-05
4.48558e-05
4.49233e-05
4.50021e-05
4.50763e-05
4.51335e-05
4.51639e-05
4.51581e-05
4.51049e-05
4.49919e-05
4.48073e-05
4.4543e-05
4.42003e-05
4.37968e-05
4.33754e-05
4.30132e-05
4.28122e-05
4.27727e-05
4.29298e-05
4.28372e-05
4.23048e-05
4.25467e-05
4.74398e-05
4.26499e-05
3.52223e-05
2.72123e-05
)
;
    }
    sWall
    {
        type            calculated;
        value           uniform 1.40269e-05;
    }
    nWall
    {
        type            calculated;
        value           nonuniform List<scalar> 6(2.24787e-05 2.21543e-05 2.08426e-05 2.52618e-05 3.19583e-05 3.92447e-05);
    }
    sideWalls
    {
        type            empty;
        value           nonuniform 0();
    }
    glass1
    {
        type            calculated;
        value           nonuniform List<scalar> 9(1.2131e-06 3.81013e-06 6.4185e-06 8.99167e-06 1.1505e-05 1.3858e-05 1.59528e-05 1.818e-05 1.87742e-05);
    }
    glass2
    {
        type            calculated;
        value           nonuniform List<scalar> 2(0.000111088 0.000121006);
    }
    sun
    {
        type            calculated;
        value           uniform 0;
    }
    heatsource1
    {
        type            calculated;
        value           nonuniform List<scalar> 3(2.07356e-07 2.07728e-07 2.07999e-07);
    }
    heatsource2
    {
        type            calculated;
        value           nonuniform List<scalar> 4(5.19631e-08 5.20732e-08 0 0);
    }
    Table_master
    {
        type            calculated;
        value           nonuniform List<scalar> 9(-1.55845e-07 -1.55909e-07 -1.5593e-07 -1.55942e-07 -1.55948e-07 -1.5595e-07 -1.55947e-07 -1.55928e-07 -1.55883e-07);
    }
    Table_slave
    {
        type            calculated;
        value           nonuniform List<scalar> 9(1.55699e-07 1.55723e-07 1.55717e-07 1.55724e-07 1.5574e-07 1.55764e-07 1.55796e-07 1.55835e-07 1.55888e-07);
    }
    inlet
    {
        type            calculated;
        value           uniform -0.00649415;
    }
    outlet
    {
        type            calculated;
        value           nonuniform List<scalar> 2(0.00418663 -0.000184915);
    }
}


// ************************************************************************* //
