/*--------------------------------*- C++ -*----------------------------------*\
  =========                 |
  \\      /  F ield         | OpenFOAM: The Open Source CFD Toolbox
   \\    /   O peration     | Website:  https://openfoam.org
    \\  /    A nd           | Version:  6
     \\/     M anipulation  |
\*---------------------------------------------------------------------------*/
FoamFile
{
    version     2.0;
    format      ascii;
    class       volScalarField;
    location    "100";
    object      epsilon;
}
// * * * * * * * * * * * * * * * * * * * * * * * * * * * * * * * * * * * * * //

dimensions      [0 2 -3 0 0 0 0];

internalField   nonuniform List<scalar> 
459
(
0.000147926
0.000161396
0.000137781
0.000154378
0.000172072
0.000189578
0.000206962
0.000224646
0.000243399
0.000263568
0.000281684
0.000296224
0.000306053
0.000310936
0.000308294
7.51362e-05
0.000140727
0.000168096
0.000176293
0.000170454
0.000145757
0.000106491
7.81771e-05
5.84929e-05
4.42772e-05
3.39846e-05
2.655e-05
2.11998e-05
1.73695e-05
1.46322e-05
1.26751e-05
1.16774e-05
1.87747e-05
1.51475e-05
0.000673663
0.0016129
0.000157556
0.000119504
0.000123485
0.000130638
0.000139723
0.000151835
0.000168223
0.000189575
0.000214158
0.000240761
0.000266821
0.000288492
0.00031062
0.000397868
0.000138179
0.000113298
0.000264533
0.000155473
0.000142102
0.000131193
0.000116645
9.28703e-05
6.54617e-05
4.79843e-05
3.58068e-05
2.72566e-05
2.12907e-05
1.71104e-05
1.41494e-05
1.2051e-05
1.0781e-05
1.40604e-05
9.90534e-05
5.28128e-05
0.00168506
0.00542107
0.000337475
0.000130423
0.000124547
0.000131872
0.000142676
0.000157132
0.000175645
0.000198243
0.000223444
0.000249605
0.000275889
0.000303634
0.000339739
0.000402995
0.00053281
0.000445038
0.0003673
0.000221222
0.000177091
0.000150995
0.00013798
0.000172938
8.45277e-05
5.33301e-05
3.86646e-05
3.02359e-05
2.47472e-05
2.08781e-05
1.80058e-05
1.59749e-05
1.58321e-05
2.58441e-05
0.000267413
0.000109708
0.0033418
0.0122388
0.000792664
0.000159651
0.000133102
0.000141391
0.000154412
0.000170941
0.00019129
0.000215719
0.000241971
0.000266148
0.000288344
0.000313758
0.000354118
0.000433012
0.000596228
0.000883691
0.000495826
0.000296179
0.000227354
0.000184485
0.000160965
0.000161652
0.000269122
0.000218803
0.000206104
0.000201592
0.000198067
0.000189933
0.000172805
0.000148416
0.000125519
8.83689e-05
8.67295e-05
0.000692
0.00014255
0.00569102
0.0216231
0.00177909
0.000218517
0.000143355
0.000152049
0.000170423
0.000194404
0.00022406
0.000259051
0.000294172
0.000320042
0.000336113
0.000345995
0.000352301
0.000356128
0.000358546
0.000344076
0.000272879
0.000226834
0.000204886
0.000194528
0.000189652
0.000179061
0.000172417
0.000156868
0.00015115
0.000151346
0.000152344
0.000149293
0.000138038
0.000118483
0.000102899
8.9365e-05
8.76701e-05
0.00032514
0.000275307
0.000203607
0.000289758
0.000429319
0.00878015
0.030516
0.00379604
0.00039863
0.000176623
0.00017138
0.000193211
0.00022788
0.000275017
0.000335226
0.000387204
0.000414845
0.0004248
0.000425999
0.000420243
0.000400733
0.000358514
0.000298348
0.000242015
0.000211745
0.000207288
0.000215196
0.000229854
0.00022457
0.000200236
0.00018335
0.000179717
0.000185422
0.000195089
0.000202507
0.000199643
0.000177298
0.000141066
0.000112707
0.000100407
0.000180479
0.000213916
0.000196409
0.00056189
0.000541945
0.0126673
0.03468
0.00829677
0.00154951
0.000507662
0.000316146
0.000293863
0.000324635
0.000387312
0.000491355
0.00054538
0.000551388
0.0005356
0.000515258
0.000494561
0.000465267
0.000414059
0.000345588
0.000283874
0.000249295
0.000240506
0.000245288
0.000273485
0.000290319
0.000258695
0.000236624
0.000231196
0.000240347
0.000260066
0.000285693
0.000309536
0.000315444
0.000264071
0.000215891
0.000197096
0.000245367
0.000348575
0.000545842
0.00111547
0.00102217
0.0137753
0.0437629
0.02005
0.00986707
0.00437376
0.00192959
0.00111098
0.000878641
0.000844767
0.00086742
0.000816126
0.000740612
0.000667232
0.000606284
0.000558818
0.000518364
0.00047016
0.000412823
0.00036459
0.000337036
0.000315642
0.00029332
0.000320288
0.000385659
0.000357321
0.00032947
0.000319333
0.000326826
0.000352324
0.000398845
0.000468865
0.000558922
0.00065287
0.000675355
0.000841283
0.00139606
0.00271372
0.00470725
0.0122283
0.00234667
0.0128104
0.0225513
0.0176079
0.0127578
0.00868426
0.00561834
0.00364461
0.00249268
0.00185548
0.00142429
0.00113142
0.000929984
0.000789227
0.000689182
0.000617142
0.000564196
0.000522628
0.000490329
0.000477172
0.000486771
0.000460588
0.000377197
0.000373628
0.000522876
0.000521991
0.000492686
0.000472123
0.000466288
0.000479866
0.000525313
0.000620062
0.000778363
0.00100758
0.00131522
0.00172862
0.00227768
0.00283036
0.00322105
0.00353547
0.00182518
0.00734249
0.00881662
0.00705265
0.00515426
0.0036838
0.00266797
0.00199535
0.00154447
0.00124058
0.00103208
0.000885436
0.000780497
0.00070632
0.000657487
0.000630711
0.000626863
0.000662951
0.000752098
0.000737212
0.000519765
0.00044196
0.000718033
0.000807351
0.000804728
0.000781152
0.000760681
0.00074116
0.000729797
0.000751701
0.000842418
0.00101562
0.00126804
0.00157943
0.00189712
0.00208532
0.00199223
0.0015525
0.00110656
0.00546747
0.00808712
0.0064391
0.00472968
0.00352694
0.0026589
0.00204024
0.00160099
0.00128532
0.00105659
0.000892758
0.000780177
0.000711153
0.000682201
0.000692145
0.000742343
0.000839709
0.000955184
0.00094985
0.000695607
0.000528235
0.000993411
0.00119271
0.00124426
0.00125153
0.00123662
0.00120095
0.00115204
0.00111322
0.00112906
0.00122902
0.00142257
0.0016909
0.00201353
0.00227342
0.00233371
0.00143416
0.0011876
0.00380789
0.00432874
0.0048403
0.00566557
0.00478212
0.00349671
0.0028125
0.00228721
0.00187809
0.00155763
0.00130741
0.00111655
0.000964246
0.000840273
0.000739621
0.000660118
0.000601214
0.000563595
0.000550446
0.000562128
0.000563308
0.000509419
0.000491412
0.000661891
0.000737031
0.00076108
0.000768226
0.000770968
0.000775016
0.000790864
0.000838206
0.0009213
0.00104902
0.001228
0.00145863
0.00175269
0.00182938
0.00168326
0.00135428
0.00105935
)
;

boundaryField
{
    floor
    {
        Cmu             0.09;
        kappa           0.41;
        E               9.8;
        type            epsilonWallFunction;
        value           nonuniform List<scalar> 
29
(
0.000308294
7.51362e-05
0.000140727
0.000168096
0.000176293
0.000170454
0.000145757
0.000106491
7.81771e-05
5.84929e-05
4.42772e-05
3.39846e-05
2.655e-05
2.11998e-05
1.73695e-05
1.46322e-05
1.26751e-05
1.16774e-05
1.87747e-05
1.51475e-05
1.51475e-05
5.28128e-05
0.000109708
0.00014255
0.000308294
7.51362e-05
0.000113298
0.000445038
0.000883691
)
;
    }
    ceiling
    {
        Cmu             0.09;
        kappa           0.41;
        E               9.8;
        type            epsilonWallFunction;
        value           nonuniform List<scalar> 
43
(
0.00380789
0.00432874
0.0048403
0.00566557
0.00478212
0.00349671
0.0028125
0.00228721
0.00187809
0.00155763
0.00130741
0.00111655
0.000964246
0.000840273
0.000739621
0.000660118
0.000601214
0.000563595
0.000550446
0.000562128
0.000563308
0.000509419
0.000491412
0.000661891
0.000737031
0.00076108
0.000768226
0.000770968
0.000775016
0.000790864
0.000838206
0.0009213
0.00104902
0.001228
0.00145863
0.00175269
0.00182938
0.00168326
0.00135428
0.00105935
0.0128104
0.0225513
0.00546747
)
;
    }
    sWall
    {
        Cmu             0.09;
        kappa           0.41;
        E               9.8;
        type            epsilonWallFunction;
        value           uniform 0.00380789;
    }
    nWall
    {
        Cmu             0.09;
        kappa           0.41;
        E               9.8;
        type            epsilonWallFunction;
        value           nonuniform List<scalar> 6(0.000429319 0.000541945 0.00102217 0.00110656 0.0011876 0.00105935);
    }
    sideWalls
    {
        type            empty;
    }
    glass1
    {
        Cmu             0.09;
        kappa           0.41;
        E               9.8;
        type            epsilonWallFunction;
        value           nonuniform List<scalar> 9(0.000147926 0.000673663 0.00168506 0.0033418 0.00569102 0.00878015 0.0126673 0.0137753 0.0128104);
    }
    glass2
    {
        Cmu             0.09;
        kappa           0.41;
        E               9.8;
        type            epsilonWallFunction;
        value           nonuniform List<scalar> 2(0.00234667 0.00182518);
    }
    sun
    {
        Cmu             0.09;
        kappa           0.41;
        E               9.8;
        type            epsilonWallFunction;
        value           nonuniform List<scalar> 
14
(
0.000147926
0.000161396
0.000137781
0.000154378
0.000172072
0.000189578
0.000206962
0.000224646
0.000243399
0.000263568
0.000281684
0.000296224
0.000306053
0.000310936
)
;
    }
    heatsource1
    {
        Cmu             0.09;
        kappa           0.41;
        E               9.8;
        type            epsilonWallFunction;
        value           nonuniform List<scalar> 3(0.000203607 0.000289758 0.000429319);
    }
    heatsource2
    {
        Cmu             0.09;
        kappa           0.41;
        E               9.8;
        type            epsilonWallFunction;
        value           nonuniform List<scalar> 4(0.000397868 0.000138179 0.000138179 0.00053281);
    }
    Table_master
    {
        Cmu             0.09;
        kappa           0.41;
        E               9.8;
        type            epsilonWallFunction;
        value           nonuniform List<scalar> 9(0.000172938 8.45277e-05 5.33301e-05 3.86646e-05 3.02359e-05 2.47472e-05 2.08781e-05 1.80058e-05 1.59749e-05);
    }
    Table_slave
    {
        Cmu             0.09;
        kappa           0.41;
        E               9.8;
        type            epsilonWallFunction;
        value           nonuniform List<scalar> 9(0.000269122 0.000218803 0.000206104 0.000201592 0.000198067 0.000189933 0.000172805 0.000148416 0.000125519);
    }
    inlet
    {
        type            turbulentMixingLengthDissipationRateInlet;
        mixingLength    0.01;
        phi             phi;
        k               k;
        value           uniform 0.000101881;
    }
    outlet
    {
        type            zeroGradient;
    }
}


// ************************************************************************* //
