// -*- C++ -*-
// File generated by PyFoam - sorry for the ugliness

FoamFile
{
 version 2.0;
 format ascii;
 class volScalarField;
 location "800";
 object T;
}

dimensions [ 0 0 0 1 0 0 0 ];

internalField nonuniform List<scalar> 459
(
  305.886
  305.651
  305.65
  305.653
  305.662
  305.672
  305.684
  305.698
  305.713
  305.731
  305.75
  305.77
  305.789
  305.805
  305.811
  304.256
  304.286
  304.309
  304.293
  304.304
  304.324
  304.334
  304.335
  304.328
  304.319
  304.313
  304.31
  304.302
  304.289
  304.278
  304.272
  304.258
  304.236
  304.216
  306.122
  305.87
  305.846
  305.845
  305.855
  305.869
  305.882
  305.896
  305.91
  305.926
  305.943
  305.959
  305.971
  305.975
  305.965
  305.936
  305.619
  304.686
  304.641
  304.613
  304.582
  304.545
  304.543
  304.595
  304.587
  304.573
  304.565
  304.563
  304.566
  304.593
  304.623
  304.654
  304.701
  304.684
  304.659
  304.68
  306.334
  306.075
  306.045
  306.029
  306.031
  306.043
  306.058
  306.074
  306.089
  306.105
  306.121
  306.134
  306.14
  306.132
  306.105
  306.056
  305.992
  305.153
  305.137
  305.108
  305.106
  305.102
  305.061
  304.825
  304.888
  304.951
  305.01
  305.069
  305.133
  305.204
  305.301
  305.434
  305.608
  305.585
  305.607
  305.688
  306.541
  306.311
  306.311
  306.272
  306.237
  306.231
  306.242
  306.259
  306.276
  306.294
  306.312
  306.327
  306.333
  306.322
  306.287
  306.217
  306.109
  305.99
  305.908
  305.994
  306.102
  306.218
  306.325
  306.406
  306.473
  306.497
  306.517
  306.536
  306.554
  306.57
  306.585
  306.596
  306.598
  306.581
  306.627
  306.682
  306.762
  306.752
  306.586
  306.675
  306.645
  306.55
  306.468
  306.447
  306.458
  306.478
  306.499
  306.523
  306.546
  306.565
  306.574
  306.57
  306.547
  306.51
  306.471
  306.448
  306.465
  306.508
  306.557
  306.604
  306.641
  306.67
  306.694
  306.717
  306.74
  306.765
  306.792
  306.822
  306.853
  306.887
  306.923
  306.971
  307.018
  307.065
  307.107
  307.149
  307.197
  306.97
  306.914
  307.204
  307.154
  307.011
  306.838
  306.724
  306.69
  306.705
  306.73
  306.759
  306.789
  306.815
  306.836
  306.846
  306.84
  306.821
  306.798
  306.781
  306.779
  306.788
  306.805
  306.825
  306.846
  306.865
  306.882
  306.9
  306.919
  306.94
  306.963
  306.99
  307.019
  307.051
  307.084
  307.119
  307.152
  307.185
  307.22
  307.262
  307.308
  307.203
  307.291
  307.869
  307.808
  307.59
  307.331
  307.131
  307.018
  306.999
  307.024
  307.059
  307.092
  307.124
  307.148
  307.162
  307.166
  307.157
  307.139
  307.121
  307.107
  307.099
  307.096
  307.098
  307.103
  307.109
  307.115
  307.123
  307.131
  307.142
  307.155
  307.171
  307.19
  307.212
  307.235
  307.26
  307.283
  307.307
  307.334
  307.363
  307.388
  307.431
  307.735
  308.55
  308.616
  308.273
  307.869
  307.582
  307.447
  307.419
  307.44
  307.472
  307.504
  307.533
  307.559
  307.576
  307.577
  307.567
  307.549
  307.526
  307.502
  307.48
  307.461
  307.446
  307.433
  307.423
  307.414
  307.406
  307.4
  307.396
  307.394
  307.394
  307.399
  307.406
  307.416
  307.427
  307.438
  307.448
  307.457
  307.465
  307.457
  307.804
  308.281
  310.704
  309.952
  308.934
  308.307
  308.026
  307.962
  307.992
  308.044
  308.088
  308.116
  308.13
  308.135
  308.133
  308.122
  308.101
  308.07
  308.033
  307.992
  307.951
  307.913
  307.878
  307.845
  307.814
  307.785
  307.758
  307.732
  307.708
  307.686
  307.668
  307.653
  307.641
  307.632
  307.624
  307.616
  307.606
  307.589
  307.566
  307.525
  316.123
  311.275
  309.699
  309.019
  308.807
  308.818
  308.878
  308.935
  308.974
  308.976
  308.955
  308.918
  308.871
  308.818
  308.761
  308.7
  308.637
  308.572
  308.507
  308.443
  308.38
  308.322
  308.266
  308.212
  308.161
  308.111
  308.064
  308.02
  307.978
  307.939
  307.904
  307.871
  307.84
  307.808
  307.772
  307.727
  307.669
  307.59
  314.689
  312.133
  311.194
  310.652
  310.441
  310.356
  310.294
  310.221
  310.128
  310.029
  309.921
  309.808
  309.693
  309.581
  309.472
  309.367
  309.266
  309.168
  309.073
  308.981
  308.892
  308.805
  308.721
  308.641
  308.564
  308.49
  308.419
  308.351
  308.286
  308.223
  308.164
  308.106
  308.049
  307.991
  307.928
  307.855
  307.765
  307.645
  311.915
  312.005
  313.371
  313.132
  312.841
  312.58
  312.354
  312.148
  311.952
  311.757
  311.558
  311.349
  311.136
  310.928
  310.73
  310.544
  310.37
  310.206
  310.052
  309.907
  309.769
  309.638
  309.513
  309.394
  309.279
  309.168
  309.06
  308.956
  308.854
  308.756
  308.66
  308.566
  308.474
  308.382
  308.291
  308.197
  308.096
  307.981
  307.832
  307.622
)
;

boundaryField
{
  floor
  {
    type wallHeatTransfer;
    Tinf uniform 305.2;
    alphaWall uniform 0.24;
    value nonuniform List<scalar> 29
(
  305.706
  304.519
  304.533
  304.546
  304.546
  304.563
  304.588
  304.603
  304.599
  304.583
  304.564
  304.548
  304.538
  304.53
  304.524
  304.521
  304.523
  304.522
  304.518
  304.516
  304.516
  304.811
  305.597
  306.522
  305.706
  304.519
  304.792
  305.161
  305.886
)
;
  }
  ceiling
  {
    type wallHeatTransfer;
    Tinf uniform 303.2;
    alphaWall uniform 0.24;
    value nonuniform List<scalar> 43
(
  311.091
  311.342
  313.056
  312.806
  312.484
  312.188
  311.925
  311.686
  311.461
  311.244
  311.036
  310.828
  310.625
  310.431
  310.246
  310.072
  309.908
  309.753
  309.608
  309.47
  309.339
  309.215
  309.096
  308.982
  308.872
  308.767
  308.664
  308.565
  308.468
  308.374
  308.282
  308.192
  308.103
  308.015
  307.926
  307.834
  307.735
  307.621
  307.469
  307.231
  307.587
  308.103
  314.462
)
;
  }
  sWall
  {
    type wallHeatTransfer;
    Tinf uniform 315.2;
    alphaWall uniform 0.36;
    value uniform 312.36;
  }
  nWall
  {
    type wallHeatTransfer;
    Tinf uniform 307.2;
    alphaWall uniform 0.36;
    value nonuniform List<scalar> 6
(
  307.197
  307.29
  307.359
  307.545
  307.599
  307.568
)
;
  }
  sideWalls
  {
    type empty;
  }
  glass1
  {
    type wallHeatTransfer;
    Tinf uniform 315.2;
    alphaWall uniform 4.3;
    value nonuniform List<scalar> 9
(
  312.784
  311.86
  311.345
  311.038
  310.872
  310.787
  310.807
  311.02
  311.303
)
;
  }
  glass2
  {
    type wallHeatTransfer;
    Tinf uniform 307.2;
    alphaWall uniform 4.3;
    value nonuniform List<scalar> 2
(
  307.288
  307.319
)
;
  }
  sun
  {
    type wallHeatTransfer;
    Tinf uniform 305.2;
    alphaWall uniform 0.24;
    value nonuniform List<scalar> 14
(
  305.793
  305.591
  305.578
  305.572
  305.577
  305.585
  305.595
  305.607
  305.62
  305.636
  305.653
  305.67
  305.688
  305.701
)
;
  }
  heatsource1
  {
    type fixedGradient;
    gradient uniform 0;
  }
  heatsource2
  {
    type fixedGradient;
    gradient uniform 0;
  }
  Table_master
  {
    type zeroGradient;
  }
  Table_slave
  {
    type zeroGradient;
  }
  inlet
  {
    type fixedValue;
    value uniform 296.15;
  }
  outlet
  {
    type zeroGradient;
  }
} 	// ************************************************************************* //

