// -*- C++ -*-
// File generated by PyFoam - sorry for the ugliness

FoamFile
{
 version 2.0;
 format ascii;
 class volVectorField;
 location "540";
 object U;
}

dimensions [ 0 1 -1 0 0 0 0 ];

internalField nonuniform List<vector> 459
(
  (0.0233116 0.0676995 0)
  (-0.131856 0.0212579 0)
  (-0.154127 0.0150901 0)
  (-0.180484 0.010256 0)
  (-0.199799 0.00491984 0)
  (-0.211012 -0.000846008 0)
  (-0.212494 -0.00715615 0)
  (-0.202783 -0.0141476 0)
  (-0.181918 -0.0213155 0)
  (-0.15128 -0.0273805 0)
  (-0.114248 -0.0311085 0)
  (-0.0754847 -0.0316062 0)
  (-0.0403732 -0.028264 0)
  (-0.014384 -0.019846 0)
  (0.0481728 0.00465849 0)
  (-0.101114 0.00634174 0)
  (0.0316969 -0.00724658 0)
  (0.0209898 -0.0108689 0)
  (0.032 -0.0112604 0)
  (0.046025 -0.00973047 0)
  (0.0575987 -0.00730738 0)
  (0.0649403 -0.00421233 0)
  (0.0684591 -0.00244015 0)
  (0.0695927 -0.00181712 0)
  (0.0697964 -0.00161298 0)
  (0.0697071 -0.00146724 0)
  (0.0693548 -0.00127092 0)
  (0.0685627 -0.000927241 0)
  (0.0669546 -0.000204829 0)
  (0.0636839 0.00144449 0)
  (0.0570496 0.00495496 0)
  (0.0462213 0.0102131 0)
  (-0.0016177 0.0201128 0)
  (0.0915353 -0.00276668 0)
  (0.157028 0.138763 0)
  (-0.124476 0.0559045 0)
  (-0.127063 0.0449932 0)
  (-0.154562 0.0353314 0)
  (-0.173997 0.0242044 0)
  (-0.185695 0.0114294 0)
  (-0.188073 -0.0034112 0)
  (-0.179539 -0.0201458 0)
  (-0.160606 -0.0366007 0)
  (-0.133021 -0.0496435 0)
  (-0.10034 -0.0567579 0)
  (-0.0668214 -0.0566383 0)
  (-0.0366769 -0.0491555 0)
  (-0.0132179 -0.0349758 0)
  (0.00950903 -0.0100817 0)
  (0.0159597 0.00553243 0)
  (0.0137772 0.0178945 0)
  (-0.122386 0.0047079 0)
  (0.0339133 -0.0275206 0)
  (0.0339248 -0.0256076 0)
  (0.0441685 -0.0224918 0)
  (0.0552452 -0.0182523 0)
  (0.0638847 -0.0129977 0)
  (0.0682601 -0.00512302 0)
  (0.0691709 -0.000441729 0)
  (0.0690489 0.00138904 0)
  (0.0691344 0.00211706 0)
  (0.0693962 0.00258699 0)
  (0.0695705 0.00302919 0)
  (0.0695877 0.00369181 0)
  (0.0693934 0.00506067 0)
  (0.068387 0.00830356 0)
  (0.0638509 0.0167518 0)
  (0.0552526 0.0259056 0)
  (0.00970717 0.0370422 0)
  (0.135361 0.0225867 0)
  (0.280962 0.20845 0)
  (-0.13728 0.0890699 0)
  (-0.0979008 0.0731122 0)
  (-0.125081 0.0559119 0)
  (-0.143055 0.0374313 0)
  (-0.154679 0.0165688 0)
  (-0.157744 -0.00753693 0)
  (-0.149512 -0.0343745 0)
  (-0.131399 -0.0601015 0)
  (-0.105974 -0.0793099 0)
  (-0.0770999 -0.0885049 0)
  (-0.0485187 -0.0864618 0)
  (-0.0233096 -0.0738872 0)
  (-0.00325317 -0.0519919 0)
  (0.0126023 -0.0232869 0)
  (0.0216394 0.00197932 0)
  (0.02206 0.0331315 0)
  (-0.0223893 -0.0284891 0)
  (0.0400283 -0.039321 0)
  (0.0525547 -0.0381948 0)
  (0.0577342 -0.0326244 0)
  (0.0633574 -0.0264543 0)
  (0.0685124 -0.0215373 0)
  (0.0706502 -0.0161104 0)
  (0.066358 -0.0106796 0)
  (0.0628901 -0.00783532 0)
  (0.0617591 -0.00627948 0)
  (0.0617504 -0.00527151 0)
  (0.0621483 -0.00446756 0)
  (0.0629969 -0.00361831 0)
  (0.0650212 -0.00223994 0)
  (0.0699433 0.00208674 0)
  (0.0706755 0.022055 0)
  (0.0645913 0.0377722 0)
  (0.0183155 0.0542846 0)
  (0.160611 0.0534915 0)
  (0.394988 0.265154 0)
  (-0.163949 0.118323 0)
  (-0.0658404 0.097781 0)
  (-0.0922935 0.0744237 0)
  (-0.106346 0.0508002 0)
  (-0.116394 0.0234958 0)
  (-0.119066 -0.00955106 0)
  (-0.109392 -0.0471636 0)
  (-0.0915003 -0.0819654 0)
  (-0.0688719 -0.10627 0)
  (-0.0450713 -0.116637 0)
  (-0.0226566 -0.11251 0)
  (-0.00320851 -0.0957424 0)
  (0.0132864 -0.0691165 0)
  (0.0279956 -0.0386332 0)
  (0.0441524 -0.00971544 0)
  (0.0627248 0.0170054 0)
  (0.0917351 -0.0345455 0)
  (0.0933538 -0.0368658 0)
  (0.0839876 -0.039489 0)
  (0.0742124 -0.0381925 0)
  (0.0678848 -0.0331328 0)
  (0.0645516 -0.0270661 0)
  (0.0621463 -0.0203856 0)
  (0.0634227 -0.0125015 0)
  (0.0705844 -0.0090485 0)
  (0.0769313 -0.00724507 0)
  (0.08161 -0.00618324 0)
  (0.0853973 -0.00528681 0)
  (0.0883017 -0.00418889 0)
  (0.0894788 -0.00249806 0)
  (0.0869958 0.000365246 0)
  (0.0785558 0.00497546 0)
  (0.0700853 0.0267256 0)
  (0.0699139 0.0463379 0)
  (0.0311998 0.0681334 0)
  (0.176067 0.100375 0)
  (0.497016 0.309271 0)
  (-0.198081 0.141817 0)
  (-0.0320536 0.113284 0)
  (-0.056669 0.0863437 0)
  (-0.0643023 0.059972 0)
  (-0.0705509 0.028511 0)
  (-0.0701775 -0.0120053 0)
  (-0.0562148 -0.0602102 0)
  (-0.0394864 -0.10164 0)
  (-0.0219373 -0.128055 0)
  (-0.00572351 -0.13756 0)
  (0.00845047 -0.130387 0)
  (0.0197259 -0.11079 0)
  (0.0297724 -0.0832265 0)
  (0.0400182 -0.0529192 0)
  (0.052335 -0.0258943 0)
  (0.068164 -0.00934441 0)
  (0.0800128 -0.0153075 0)
  (0.0802162 -0.0233752 0)
  (0.0718739 -0.0281266 0)
  (0.0632975 -0.0287588 0)
  (0.0566283 -0.0263994 0)
  (0.0519052 -0.0225372 0)
  (0.0490345 -0.0174078 0)
  (0.0494019 -0.0104613 0)
  (0.0529518 -0.00698741 0)
  (0.056983 -0.00587696 0)
  (0.0608432 -0.00542744 0)
  (0.0646423 -0.00466016 0)
  (0.068199 -0.00289382 0)
  (0.071097 0.000656134 0)
  (0.0725532 0.00650497 0)
  (0.0718075 0.015322 0)
  (0.0708323 0.030656 0)
  (0.0772204 0.047638 0)
  (0.0657054 0.064486 0)
  (0.134718 0.0992849 0)
  (0.127615 0.0792498 0)
  (0.114561 0.0575611 0)
  (-0.151565 0.0581929 0)
  (0.575327 0.345948 0)
  (-0.233662 0.157333 0)
  (-0.00338631 0.113461 0)
  (-0.0197346 0.0906601 0)
  (-0.0195446 0.0649548 0)
  (-0.0205421 0.0323368 0)
  (-0.0100991 -0.0146736 0)
  (0.00996214 -0.0758134 0)
  (0.0224563 -0.118084 0)
  (0.0318552 -0.141933 0)
  (0.0379441 -0.148151 0)
  (0.0411774 -0.138807 0)
  (0.0427122 -0.117677 0)
  (0.0437857 -0.0896271 0)
  (0.0456644 -0.0602408 0)
  (0.049573 -0.0350403 0)
  (0.055615 -0.0191655 0)
  (0.0590656 -0.0169882 0)
  (0.0564485 -0.0205067 0)
  (0.0496969 -0.0226065 0)
  (0.0424333 -0.022584 0)
  (0.0362149 -0.0210956 0)
  (0.0315371 -0.018707 0)
  (0.0287958 -0.01555 0)
  (0.0286174 -0.0120128 0)
  (0.030786 -0.0103882 0)
  (0.0340066 -0.0101173 0)
  (0.037653 -0.0100404 0)
  (0.0415604 -0.00938103 0)
  (0.0456475 -0.00749717 0)
  (0.0498466 -0.00352159 0)
  (0.0545765 0.00351951 0)
  (0.0584607 0.013571 0)
  (0.0625939 0.0267357 0)
  (0.0708199 0.0403933 0)
  (0.0718174 0.0487702 0)
  (0.0956238 0.0654888 0)
  (0.0935069 0.0529858 0)
  (0.111203 0.0516572 0)
  (-0.147037 0.0875069 0)
  (0.619016 0.378161 0)
  (-0.255428 0.145991 0)
  (0.0191656 0.0794178 0)
  (0.0248386 0.0805316 0)
  (0.0312274 0.0623243 0)
  (0.0380793 0.023956 0)
  (0.0648229 -0.0358456 0)
  (0.0826361 -0.0895232 0)
  (0.0891959 -0.126321 0)
  (0.0883319 -0.145172 0)
  (0.0822171 -0.147414 0)
  (0.0727515 -0.135578 0)
  (0.0620435 -0.113433 0)
  (0.0518243 -0.0856789 0)
  (0.0434074 -0.0577697 0)
  (0.0378281 -0.0346681 0)
  (0.0350725 -0.0199978 0)
  (0.0326278 -0.0150123 0)
  (0.0282341 -0.0152368 0)
  (0.0222631 -0.0161309 0)
  (0.0160918 -0.0164026 0)
  (0.0106682 -0.0160475 0)
  (0.00651279 -0.0152681 0)
  (0.00406034 -0.014218 0)
  (0.00368399 -0.0132596 0)
  (0.00510261 -0.013215 0)
  (0.00749613 -0.0137113 0)
  (0.0103635 -0.0140464 0)
  (0.0135436 -0.0136938 0)
  (0.0170952 -0.0121954 0)
  (0.0213036 -0.0088815 0)
  (0.026909 -0.00257826 0)
  (0.0349034 0.00744874 0)
  (0.0428493 0.0192489 0)
  (0.0524258 0.0307346 0)
  (0.0587512 0.0383896 0)
  (0.0716594 0.0509454 0)
  (0.0767703 0.0567187 0)
  (0.122164 0.0750997 0)
  (-0.11397 0.144639 0)
  (0.709532 0.383244 0)
  (-0.0802499 0.118908 0)
  (0.0766321 0.0128988 0)
  (0.117102 0.0100966 0)
  (0.118593 0.000941479 0)
  (0.132137 -0.0350493 0)
  (0.15823 -0.0721888 0)
  (0.166716 -0.103802 0)
  (0.159844 -0.125337 0)
  (0.142972 -0.134594 0)
  (0.120224 -0.131447 0)
  (0.0950481 -0.117507 0)
  (0.070433 -0.0956782 0)
  (0.0484031 -0.069776 0)
  (0.0302034 -0.0449087 0)
  (0.0168991 -0.0255135 0)
  (0.00851164 -0.0139722 0)
  (0.00298166 -0.00968305 0)
  (-0.00216827 -0.00938835 0)
  (-0.00743618 -0.0102222 0)
  (-0.0125179 -0.0110406 0)
  (-0.0169666 -0.0116998 0)
  (-0.020467 -0.0123202 0)
  (-0.0227592 -0.0130035 0)
  (-0.0237283 -0.0138665 0)
  (-0.0236215 -0.0150234 0)
  (-0.0228827 -0.0162115 0)
  (-0.0218185 -0.0170446 0)
  (-0.0205913 -0.0172077 0)
  (-0.0192347 -0.0165126 0)
  (-0.0175081 -0.0148382 0)
  (-0.0146372 -0.0117305 0)
  (-0.00826517 -0.00604165 0)
  (0.00399746 0.00291664 0)
  (0.0144604 0.0109887 0)
  (0.0227312 0.0153632 0)
  (0.0338596 0.0208155 0)
  (0.0432826 0.0231055 0)
  (0.121568 0.0766288 0)
  (-0.364484 0.212462 0)
  (0.829504 0.374818 0)
  (0.399711 0.261315 0)
  (0.403243 0.20132 0)
  (0.394036 0.137928 0)
  (0.361825 0.0863178 0)
  (0.335765 0.0361532 0)
  (0.30262 -0.0154515 0)
  (0.264288 -0.0579318 0)
  (0.222519 -0.0851471 0)
  (0.178665 -0.0966749 0)
  (0.134783 -0.0947735 0)
  (0.0933165 -0.0828014 0)
  (0.0566445 -0.0642669 0)
  (0.0261588 -0.042641 0)
  (0.0026506 -0.023097 0)
  (-0.0129922 -0.0100069 0)
  (-0.0217344 -0.00410232 0)
  (-0.0273082 -0.00229141 0)
  (-0.0317792 -0.00250544 0)
  (-0.0359731 -0.00347413 0)
  (-0.0399228 -0.004613 0)
  (-0.0435602 -0.00579201 0)
  (-0.0468422 -0.00708798 0)
  (-0.0496915 -0.0085197 0)
  (-0.0521048 -0.0100712 0)
  (-0.0541942 -0.0116837 0)
  (-0.0561104 -0.0131633 0)
  (-0.0579911 -0.0142703 0)
  (-0.0600915 -0.0147955 0)
  (-0.0629684 -0.0145563 0)
  (-0.0674384 -0.0132373 0)
  (-0.074205 -0.00978065 0)
  (-0.0837674 -0.00219811 0)
  (-0.0947113 0.010039 0)
  (-0.108458 0.026437 0)
  (-0.131747 0.0483785 0)
  (-0.164069 0.0776423 0)
  (-0.205316 0.111714 0)
  (-0.272739 0.144234 0)
  (-0.544103 0.165848 0)
  (0.124244 0.0552061 0)
  (0.215979 0.0794976 0)
  (0.244073 0.0519443 0)
  (0.233893 0.0143924 0)
  (0.218449 -0.0169121 0)
  (0.195775 -0.0404221 0)
  (0.164493 -0.0548801 0)
  (0.126251 -0.0600954 0)
  (0.0848598 -0.0566477 0)
  (0.0445627 -0.046377 0)
  (0.0090118 -0.0313729 0)
  (-0.0192652 -0.0140149 0)
  (-0.035677 -0.00256152 0)
  (-0.0452101 0.00390406 0)
  (-0.0505009 0.00639357 0)
  (-0.0538402 0.00704157 0)
  (-0.0565302 0.00674278 0)
  (-0.0591995 0.00575205 0)
  (-0.0620003 0.00457884 0)
  (-0.0650619 0.00349953 0)
  (-0.0685033 0.00246476 0)
  (-0.0723689 0.00160804 0)
  (-0.0767226 0.00110672 0)
  (-0.081604 0.00119036 0)
  (-0.0869606 0.00220062 0)
  (-0.0926056 0.0045566 0)
  (-0.098299 0.00863653 0)
  (-0.104018 0.0144691 0)
  (-0.110076 0.0209186 0)
  (-0.116796 0.0260418 0)
  (-0.123142 0.0307626 0)
  (-0.128395 0.0379128 0)
  (-0.132614 0.049756 0)
  (-0.135563 0.0673811 0)
  (-0.13464 0.0890567 0)
  (-0.125458 0.100801 0)
  (-0.112294 0.0600832 0)
  (-0.189983 -0.168639 0)
  (0.0154738 0.158141 0)
  (0.068018 0.0984532 0)
  (0.0835947 0.0347241 0)
  (0.0909961 -0.0148399 0)
  (0.0899832 -0.0493056 0)
  (0.0797952 -0.062935 0)
  (0.0582039 -0.0661422 0)
  (0.0310166 -0.0653399 0)
  (0.00203083 -0.0630639 0)
  (-0.023665 -0.0627648 0)
  (-0.0428139 -0.0643772 0)
  (-0.0562264 -0.0648455 0)
  (-0.0635539 -0.0667039 0)
  (-0.0672559 -0.0687412 0)
  (-0.0690505 -0.0708054 0)
  (-0.0702486 -0.0731521 0)
  (-0.0713821 -0.0755666 0)
  (-0.0727877 -0.0776987 0)
  (-0.0746492 -0.0795164 0)
  (-0.076935 -0.0806592 0)
  (-0.0796173 -0.0820468 0)
  (-0.0828326 -0.0839965 0)
  (-0.0867846 -0.0868124 0)
  (-0.091708 -0.0907612 0)
  (-0.0978034 -0.0958883 0)
  (-0.105054 -0.101743 0)
  (-0.11295 -0.107016 0)
  (-0.120433 -0.109228 0)
  (-0.126344 -0.107346 0)
  (-0.129968 -0.0991845 0)
  (-0.13079 -0.0844853 0)
  (-0.127345 -0.0637255 0)
  (-0.117345 -0.037532 0)
  (-0.0984948 -0.00757469 0)
  (-0.0703018 0.0212955 0)
  (-0.0369646 0.0344321 0)
  (0.0870684 -0.0671457 0)
  (-0.146466 -0.128091 0)
  (-0.0365848 -0.255188 0)
  (-0.310932 -0.048846 0)
  (-0.217782 0.179369 0)
  (-0.149013 0.156886 0)
  (-0.0905861 0.155855 0)
  (-0.058302 0.179765 0)
  (-0.0477824 0.206431 0)
  (-0.0484665 0.206249 0)
  (-0.0588032 0.20229 0)
  (-0.0713459 0.204204 0)
  (-0.0818297 0.209802 0)
  (-0.0888121 0.218023 0)
  (-0.0921985 0.227506 0)
  (-0.0925061 0.23414 0)
  (-0.0915205 0.240561 0)
  (-0.090199 0.245385 0)
  (-0.0890755 0.248777 0)
  (-0.0885069 0.251592 0)
  (-0.0886484 0.253981 0)
  (-0.0895071 0.25575 0)
  (-0.0910618 0.256818 0)
  (-0.093216 0.256618 0)
  (-0.0959343 0.25668 0)
  (-0.0991296 0.257555 0)
  (-0.102658 0.259901 0)
  (-0.106328 0.264357 0)
  (-0.109916 0.271245 0)
  (-0.113182 0.280152 0)
  (-0.115855 0.289424 0)
  (-0.117568 0.295828 0)
  (-0.117882 0.298834 0)
  (-0.11597 0.296918 0)
  (-0.110426 0.290637 0)
  (-0.0992918 0.281662 0)
  (-0.0807104 0.272306 0)
  (-0.0548573 0.265951 0)
  (-0.0245596 0.266422 0)
  (0.0172818 0.274072 0)
  (0.132422 0.329988 0)
  (-0.2921 0.326946 0)
)
;

boundaryField
{
  floor
  {
    type noSlip;
  }
  ceiling
  {
    type noSlip;
  }
  sWall
  {
    type noSlip;
  }
  nWall
  {
    type noSlip;
  }
  sideWalls
  {
    type empty;
  }
  glass1
  {
    type noSlip;
  }
  glass2
  {
    type noSlip;
  }
  sun
  {
    type noSlip;
  }
  heatsource1
  {
    type noSlip;
  }
  heatsource2
  {
    type noSlip;
  }
  Table_master
  {
    type noSlip;
  }
  Table_slave
  {
    type noSlip;
  }
  inlet
  {
    type fixedValue;
    value uniform (0.277164 -0.114805 0);
  }
  outlet
  {
    type zeroGradient;
  }
} 	// ************************************************************************* //

