/*--------------------------------*- C++ -*----------------------------------*\
  =========                 |
  \\      /  F ield         | OpenFOAM: The Open Source CFD Toolbox
   \\    /   O peration     | Website:  https://openfoam.org
    \\  /    A nd           | Version:  6
     \\/     M anipulation  |
\*---------------------------------------------------------------------------*/
FoamFile
{
    version     2.0;
    format      ascii;
    class       surfaceScalarField;
    location    "600";
    object      phi;
}
// * * * * * * * * * * * * * * * * * * * * * * * * * * * * * * * * * * * * * //

dimensions      [1 0 -1 0 0 0 0];

internalField   nonuniform List<scalar> 
852
(
-0.00290514
0.00296181
-0.00389153
0.000986387
-0.00466398
0.00077246
-0.00528888
0.000624903
-0.00573862
0.000449746
-0.00599333
0.000254713
-0.00603083
3.74998e-05
-0.00582734
-0.00020349
-0.00537468
-0.00045265
-0.00470013
-0.000674547
-0.00386471
-0.000835419
-0.00294772
-0.00091698
-0.00201802
-0.000929704
-0.0010802
-0.000937816
-0.00107878
-0.000607883
0.00061065
-0.00021347
-0.000394406
0.000398965
-0.000612429
0.000838275
-0.000439304
0.00111256
-0.000274275
0.00127263
-0.000160068
0.00135519
-8.25523e-05
0.00139601
-4.08122e-05
0.00141835
-2.23326e-05
0.00143076
-1.24033e-05
0.00143621
-5.43831e-06
0.00143547
7.45393e-07
0.00142635
9.12583e-06
0.00140027
2.60851e-05
0.00133496
6.5315e-05
0.00119347
0.0001415
0.000963153
0.000230329
0.00068864
0.000274521
0.000692394
-0.00207053
0.00518477
-0.00304203
0.0019579
-0.00383731
0.00156774
-0.00444851
0.00123611
-0.00488556
0.000886801
-0.00514009
0.000509247
-0.00518875
8.6157e-05
-0.00500629
-0.000385943
-0.00459159
-0.000867353
-0.00398371
-0.00128242
-0.00325144
-0.00156769
-0.00247481
-0.00169361
-0.00173183
-0.00167268
-0.00113109
-0.00153855
-0.000943954
-0.00126591
-0.000248062
-0.000695939
-0.000248109
0.000514173
0.000104213
0.000914635
-0.000794862
0.00112821
-0.000826
0.00131386
-0.000624943
0.00144508
-0.000405488
0.00151296
-0.000227945
0.00151978
-8.93633e-05
0.00152192
-4.29521e-05
0.00152474
-2.51396e-05
0.00152712
-1.47798e-05
0.0015287
-7.01217e-06
0.00152924
2.14643e-07
0.00152775
1.0626e-05
0.00152061
3.32353e-05
0.00147902
0.000106908
0.00130388
0.000316646
0.00100132
0.000532905
0.000621845
0.000654003
0.00132378
-0.00145206
0.0068696
-0.00229672
0.00280257
-0.00299813
0.00226915
-0.00351486
0.00175285
-0.00389171
0.00126366
-0.00411958
0.000737124
-0.00416211
0.000128689
-0.00397675
-0.000571299
-0.00357047
-0.00127364
-0.00300168
-0.00185121
-0.0023461
-0.00222326
-0.00167833
-0.00236138
-0.00106208
-0.00228893
-0.000564912
-0.00203571
-0.000223302
-0.00160752
8.07507e-05
-0.000999988
-0.000167354
0.00143535
-0.00132318
0.00164767
-0.00100717
0.00163496
-0.00081329
0.00164154
-0.00063151
0.00166258
-0.000426527
0.00165103
-0.000216383
0.00156182
0.00151903
0.00149405
0.00147943
0.00147258
0.00147295
0.00148374
0.00151714
0.00162421
0.00134359
0.000597275
0.000999243
0.000877255
0.000556134
0.00109712
0.00189439
-0.00102009
0.00819055
-0.00169992
0.00348241
-0.00215804
0.00272727
-0.00249298
0.00208779
-0.0027456
0.00151628
-0.00289907
0.000890597
-0.00289209
0.000121719
-0.00266329
-0.000800095
-0.0022498
-0.00168713
-0.00173482
-0.00236619
-0.0011911
-0.00276698
-0.00067482
-0.00287766
-0.000217576
-0.00274617
0.00016686
-0.00242014
0.000503313
-0.00194397
0.000885874
-0.00138255
0.00157192
-0.000853392
0.00226405
-0.000684694
0.00183082
-0.000889952
0.00173199
-0.000908333
0.00165985
-0.000741147
0.0016019
-0.00057355
0.00158569
-0.000410316
0.00161581
-0.000246495
0.00172581
-0.00011015
0.00180856
-8.28943e-05
0.00188098
-7.25659e-05
0.00193986
-5.90215e-05
0.00196975
-3.00357e-05
0.00194817
2.1438e-05
0.00185015
9.78697e-05
0.00164414
0.000205874
0.00127732
0.000366676
0.00114515
0.000729452
0.00085163
0.00117078
0.000395877
0.00155288
0.00230923
-0.000720348
0.00926932
-0.00124815
0.00401021
-0.00133926
0.00281839
-0.0014088
0.00215734
-0.00146977
0.00157725
-0.0014882
0.00090903
-0.00134938
-1.7089e-05
-0.00102485
-0.00112463
-0.000617448
-0.00209452
-0.000206453
-0.00277719
0.000159082
-0.00313251
0.000457261
-0.00317584
0.000686625
-0.00297553
0.000866184
-0.0025997
0.0010341
-0.00211188
0.0012372
-0.00158564
0.00150679
-0.00112298
0.00168558
-0.000863484
0.00160055
-0.000804911
0.0014453
-0.000753082
0.00132853
-0.000624373
0.00124316
-0.000488169
0.00119826
-0.000365408
0.00120552
-0.000253756
0.00127161
-0.00017623
0.00133975
-0.000151024
0.00141141
-0.000144217
0.00148146
-0.00012906
0.00153814
-8.67085e-05
0.00156082
-1.23354e-06
0.00152866
0.00013004
0.00143141
0.000303129
0.00127085
0.000527243
0.00112926
0.000871053
0.000975315
0.00132474
0.000637419
0.00189079
0.000530753
0.00241591
-0.00099782
0.00152838
-0.00145802
0.000460007
-0.0014105
-0.00063364
0.0103098
-0.00100934
0.00438591
-0.000599235
0.00240829
-0.000278135
0.00183624
-5.37227e-05
0.00135285
0.000183863
0.000671451
0.000540575
-0.000373796
0.000934462
-0.00151852
0.00126424
-0.0024243
0.00148494
-0.00299789
0.00159262
-0.00324019
0.00161084
-0.00319406
0.00156516
-0.00292985
0.00148461
-0.00251915
0.00140437
-0.00203163
0.00135379
-0.00153505
0.00133413
-0.00110331
0.00128307
-0.000812423
0.00114549
-0.000667319
0.000966206
-0.000573796
0.000819205
-0.000477365
0.000719549
-0.000388506
0.000670144
-0.000315995
0.000674694
-0.000258297
0.000723332
-0.00022486
0.000791696
-0.000219379
0.000870978
-0.00022349
0.000956951
-0.000215023
0.00104354
-0.000173286
0.00111912
-7.68023e-05
0.00116535
8.38153e-05
0.00117834
0.000290145
0.00116798
0.000537615
0.00118377
0.000855276
0.00127391
0.0012346
0.00145051
0.0017142
0.00188285
0.00198358
0.00213397
0.00127727
0.00174234
0.000851644
0.000389088
-0.000716323
0.0114765
-0.000625384
0.00429498
0.000459464
0.00132345
0.00114476
0.00115095
0.00162712
0.000870494
0.00216785
0.000130732
0.00273039
-0.000936333
0.0031057
-0.00189383
0.00325608
-0.00257469
0.00320265
-0.00294446
0.00298736
-0.0030249
0.00266398
-0.00287068
0.00228508
-0.00255096
0.00189524
-0.0021293
0.00153272
-0.00166911
0.00122193
-0.00122426
0.000967041
-0.000848418
0.000747189
-0.000592566
0.000533629
-0.000453753
0.000340826
-0.000380986
0.000195082
-0.000331613
0.0001031
-0.000296516
6.10081e-05
-0.000273895
6.43058e-05
-0.000261586
0.000101671
-0.000262216
0.000157858
-0.000275557
0.000225271
-0.000290893
0.000304321
-0.000294064
0.000399855
-0.00026881
0.000516702
-0.000193639
0.00064132
-4.07928e-05
0.000762832
0.000168642
0.000892864
0.000407594
0.00107236
0.000675787
0.00135063
0.000956346
0.00178968
0.00127515
0.00245259
0.00132067
0.00298774
0.000742135
0.00301689
0.000822502
0.00346849
0.00253178
0.00944822
0.00319261
0.00363416
0.00349391
0.00102215
0.00393885
0.000706019
0.00449433
0.000315018
0.00512155
-0.000496478
0.00550264
-0.00131742
0.00554014
-0.00193133
0.00526346
-0.00229802
0.00474618
-0.00242718
0.00407379
-0.00235252
0.00332951
-0.0021264
0.00258332
-0.00180477
0.00188089
-0.00142687
0.00126106
-0.00104928
0.000743429
-0.000706625
0.000335195
-0.000440177
2.91951e-05
-0.000286559
-0.000199363
-0.000225187
-0.000366035
-0.000214306
-0.000481379
-0.000216261
-0.000554825
-0.00022306
-0.000595122
-0.000233589
-0.000609023
-0.000247675
-0.000604931
-0.000266298
-0.000592062
-0.000288416
-0.000574635
-0.000308311
-0.0005506
-0.000318089
-0.000510917
-0.000308483
-0.000436027
-0.000268519
-0.00029458
-0.000182231
-0.000107812
-1.81154e-05
0.000106977
0.000192815
0.000377245
0.00040553
0.000717299
0.000616302
0.00117057
0.000821895
0.0016718
0.000819451
0.00188616
0.00052778
0.00112545
0.00158322
0.00484626
0.0099999
0.0136258
0.0123621
0.00228585
0.0114775
0.00159066
0.010804
0.000988463
0.0100748
0.0002327
0.00910696
-0.000349579
0.00795569
-0.00078008
0.00670955
-0.00105189
0.00543777
-0.0011554
0.00420083
-0.00111559
0.00305084
-0.000976415
0.00202774
-0.00078167
0.00113397
-0.000533094
0.000393208
-0.00030851
-0.000173682
-0.000139727
-0.000556816
-5.70359e-05
-0.000796172
-4.71944e-05
-0.000955762
-6.5589e-05
-0.00107479
-9.52649e-05
-0.00116655
-0.0001245
-0.00123925
-0.000150342
-0.00129938
-0.000173452
-0.00135215
-0.000194896
-0.00140394
-0.000214496
-0.00146216
-0.000230193
-0.00153349
-0.000236968
-0.00162456
-0.000227003
-0.00174366
-0.000189381
-0.0019015
-0.000110666
-0.00210466
2.09421e-05
-0.00233731
0.000214544
-0.00262704
0.000482551
-0.00306286
0.000841368
-0.00373674
0.00129019
-0.00471553
0.00180069
-0.00611555
0.00221948
-0.00781646
0.00222871
-0.0073474
0.00111417
-0.00222178
0.00474272
0.00367407
0.00412145
0.00221185
0.00477125
0.000338563
0.00489961
0.000104248
0.00456001
-1.00337e-05
0.00397646
-0.000196555
0.00324542
-0.000320869
0.00243209
-0.000342075
0.00159722
-0.000280708
0.000786546
-0.00016573
2.31619e-05
-1.82768e-05
-0.000617458
0.000107537
-0.00106409
0.000138132
-0.00133736
0.00013355
-0.00149563
0.000101243
-0.00159876
5.5945e-05
-0.00167926
1.49261e-05
-0.00175473
-1.97871e-05
-0.00183024
-4.89858e-05
-0.00190808
-7.24896e-05
-0.00199043
-9.10886e-05
-0.00207852
-0.000106796
-0.0021744
-0.000118602
-0.00228012
-0.000124471
-0.00239647
-0.000120602
-0.00252217
-0.000101295
-0.00265269
-5.8854e-05
-0.00277996
1.6614e-05
-0.00289181
0.000132808
-0.00298428
0.000307021
-0.00306705
0.000565327
-0.00314731
0.000921639
-0.00322263
0.00136552
-0.00324921
0.00182729
-0.00317589
0.00214617
-0.00283052
0.00188334
-0.00156302
-0.000153327
-0.0037115
-0.00057049
0.004305
0.000434871
0.00120644
0.000327095
0.000446313
0.00020343
0.000227907
7.02884e-05
0.000123116
-0.000180302
5.4059e-05
-0.000546529
4.53751e-05
-0.00096339
7.48006e-05
-0.00136269
0.000118608
-0.00169019
0.000161776
-0.00190294
0.000194482
-0.00200426
0.000208871
-0.0020576
0.000191474
-0.00208299
0.000158957
-0.00210274
0.000120999
-0.00213099
8.42035e-05
-0.00216915
5.31039e-05
-0.00221821
2.92743e-05
-0.00227793
1.07479e-05
-0.00234603
-4.38068e-06
-0.00242074
-1.63661e-05
-0.00250123
-2.62937e-05
-0.00258571
-3.41155e-05
-0.00267125
-3.89179e-05
-0.00275305
-3.87934e-05
-0.00282365
-3.06869e-05
-0.0028719
-1.05953e-05
-0.0028848
2.95264e-05
-0.00285311
0.000101129
-0.0027557
0.000209618
-0.00256068
0.00037032
-0.00224125
0.00060222
-0.00177958
0.000903859
-0.00115034
0.00119806
-0.000180526
0.00117636
0.00114032
0.000562508
0.00158874
-0.000601735
-0.00204242
-0.00728962
-0.010143
-0.00579515
-0.00456732
-0.00410781
-0.003871
-0.00374199
-0.00368432
-0.00363712
-0.00356194
-0.00344419
-0.00328442
-0.003093
-0.00288823
-0.00270177
-0.00254858
-0.0024339
-0.00235642
-0.00231031
-0.00228822
-0.00228477
-0.00229653
-0.00232029
-0.00235397
-0.00239543
-0.00244162
-0.00248758
-0.00252531
-0.00254278
-0.00251993
-0.00242528
-0.00222192
-0.00185764
-0.00126125
-0.000363035
0.000829522
0.00200034
0.00255711
0.0019493
)
;

boundaryField
{
    floor
    {
        type            calculated;
        value           nonuniform List<scalar> 
29
(
0
0
0
0
0
0
0
0
0
0
0
0
0
0
0
0
0
0
0
0
-3.74506e-06
-9.52997e-06
-1.44728e-05
-1.89546e-05
-1.41507e-06
-2.76005e-06
-7.72967e-06
-7.95374e-06
-7.4318e-06
)
;
    }
    ceiling
    {
        type            calculated;
        value           nonuniform List<scalar> 
43
(
-4.54623e-05
-4.41462e-05
-4.28296e-05
-2.13699e-05
-1.31795e-05
-8.88179e-06
-5.88046e-06
-3.58986e-06
-1.81514e-06
-3.72762e-07
8.73951e-07
2.00839e-06
3.08093e-06
4.10145e-06
5.02543e-06
5.77797e-06
6.33691e-06
6.73153e-06
7.00476e-06
7.19113e-06
7.31381e-06
7.38302e-06
7.4072e-06
7.39752e-06
7.35538e-06
7.2819e-06
7.17834e-06
7.04593e-06
6.88521e-06
6.69468e-06
6.48461e-06
6.26776e-06
6.05019e-06
5.84023e-06
5.65367e-06
5.50798e-06
5.55362e-06
5.75501e-06
6.08343e-06
7.23041e-06
1.14003e-05
8.26821e-06
-6.04752e-05
)
;
    }
    sWall
    {
        type            calculated;
        value           uniform -0.000274394;
    }
    nWall
    {
        type            calculated;
        value           nonuniform List<scalar> 6(-4.77109e-05 -5.72402e-05 -6.25022e-05 -7.32853e-05 -8.03374e-05 -0.000100338);
    }
    sideWalls
    {
        type            empty;
        value           nonuniform 0();
    }
    glass1
    {
        type            calculated;
        value           nonuniform List<scalar> 9(-5.6666e-05 -0.000152422 -0.000232774 -0.000300858 -0.000358425 -0.000406851 -0.000450372 -0.000503489 -0.000563075);
    }
    glass2
    {
        type            calculated;
        value           nonuniform List<scalar> 2(-0.000252299 -0.000279363);
    }
    sun
    {
        type            calculated;
        value           uniform 0;
    }
    heatsource1
    {
        type            calculated;
        value           nonuniform List<scalar> 3(2.04004e-07 2.03959e-07 2.03974e-07);
    }
    heatsource2
    {
        type            calculated;
        value           nonuniform List<scalar> 4(5.10515e-08 5.11905e-08 0 0);
    }
    Table_master
    {
        type            calculated;
        value           nonuniform List<scalar> 9(-1.53003e-07 -1.53068e-07 -1.53093e-07 -1.5311e-07 -1.53122e-07 -1.5313e-07 -1.53132e-07 -1.53126e-07 -1.53095e-07);
    }
    Table_slave
    {
        type            calculated;
        value           nonuniform List<scalar> 9(1.52889e-07 1.52905e-07 1.52885e-07 1.52868e-07 1.52861e-07 1.52866e-07 1.5288e-07 1.52922e-07 1.53002e-07);
    }
    inlet
    {
        type            calculated;
        value           uniform -0.00613098;
    }
    outlet
    {
        type            calculated;
        value           nonuniform List<scalar> 2(0.00760948 0.00289751);
    }
}


// ************************************************************************* //
