/*--------------------------------*- C++ -*----------------------------------*\
  =========                 |
  \\      /  F ield         | OpenFOAM: The Open Source CFD Toolbox
   \\    /   O peration     | Website:  https://openfoam.org
    \\  /    A nd           | Version:  6
     \\/     M anipulation  |
\*---------------------------------------------------------------------------*/
FoamFile
{
    version     2.0;
    format      ascii;
    class       volScalarField;
    location    "700";
    object      nut;
}
// * * * * * * * * * * * * * * * * * * * * * * * * * * * * * * * * * * * * * //

dimensions      [0 2 -1 0 0 0 0];

internalField   nonuniform List<scalar> 
459
(
0.00105322
0.00114975
0.00112847
0.00106538
0.000962197
0.000886746
0.000842038
0.000815645
0.00079866
0.000788224
0.000783705
0.000782999
0.000782656
0.000778584
0.000763696
0.00026042
0.000299979
0.000294113
0.000268129
0.000247591
0.00023532
0.000233034
0.000242608
0.000256658
0.000269526
0.000275391
0.00027553
0.000274522
0.000274021
0.000275867
0.000280211
0.000269549
0.000249208
0.000244145
0.00147687
0.00448476
0.00518601
0.0053635
0.00469871
0.00394176
0.00358137
0.00353639
0.0036683
0.003708
0.00358616
0.00338613
0.00309337
0.00260872
0.0018153
0.000835929
0.000565105
0.000421746
0.000914234
0.000998128
0.000912098
0.000808138
0.000765936
0.000786012
0.000876544
0.000963944
0.00101826
0.00102622
0.0010014
0.000966212
0.000952685
0.000981604
0.00110039
0.000966436
0.000754587
0.000317044
0.00153999
0.0038066
0.00508422
0.00629048
0.00662152
0.00619202
0.00539362
0.00468269
0.00467114
0.00507335
0.00511556
0.00486107
0.00445386
0.00384566
0.00295136
0.00185196
0.00087378
0.000601729
0.0014394
0.00116869
0.000868706
0.000644678
0.000479179
0.000340106
0.000356305
0.000374831
0.000394154
0.000416003
0.000442221
0.000476444
0.000523752
0.000591778
0.00151138
0.00147501
0.00131327
0.000516314
0.00258009
0.00287188
0.00299644
0.0035566
0.00448619
0.0052885
0.00569052
0.00561504
0.00536009
0.00577749
0.00622178
0.00617097
0.00587213
0.00537581
0.00457065
0.00336002
0.0018959
0.000880197
0.00203883
0.00229696
0.00191337
0.00153051
0.00120524
0.000908999
0.000659136
0.000651476
0.000646014
0.000642901
0.000643562
0.000649634
0.000663249
0.00068764
0.000728267
0.00182893
0.00171116
0.00137168
0.000748642
0.00347841
0.00369698
0.00345
0.0033621
0.00376141
0.00450264
0.00522766
0.00564846
0.00563604
0.00612794
0.00693205
0.00726585
0.00727396
0.00718083
0.00699655
0.00668362
0.00623156
0.00568335
0.00531748
0.00491209
0.00462918
0.00444304
0.00426983
0.00407525
0.00388189
0.00373803
0.00358873
0.0034288
0.00325898
0.00308347
0.00291044
0.00275056
0.00260922
0.00247791
0.00220779
0.00190131
0.00151672
0.000904908
0.000833708
0.000698849
0.00384294
0.00435734
0.00391272
0.00350959
0.00362478
0.00419741
0.00492205
0.00546375
0.00563635
0.00603514
0.00703736
0.00774609
0.00801441
0.00814175
0.00820295
0.00817431
0.00800731
0.00767295
0.00724284
0.00682678
0.00649866
0.00624976
0.00604783
0.00586698
0.00568972
0.00550825
0.00531736
0.00511263
0.00488726
0.00463258
0.00434053
0.00400889
0.00364505
0.00326136
0.00287133
0.00250177
0.00216273
0.00183787
0.00147121
0.0007196
0.00419869
0.00486572
0.0044999
0.00363184
0.00360731
0.00410216
0.00477796
0.00530687
0.00550582
0.00570541
0.00647389
0.00753295
0.00810808
0.00842022
0.00861768
0.0087215
0.00869988
0.00851904
0.00821135
0.00786269
0.00754314
0.00727339
0.007047
0.00684872
0.00666247
0.00647867
0.00629459
0.0061081
0.00591467
0.00570577
0.00546733
0.00517954
0.00482004
0.00437263
0.00384162
0.00326272
0.00271269
0.00229284
0.00193917
0.00119779
0.00465083
0.00532907
0.00558653
0.00364576
0.00375138
0.00420035
0.00481191
0.00525311
0.00540556
0.00547347
0.00584835
0.00665496
0.0075277
0.00807933
0.00840391
0.00859889
0.00868344
0.00863644
0.00846652
0.00822447
0.0079654
0.00772099
0.00750186
0.00730563
0.00712414
0.00695074
0.00678297
0.00662012
0.00646153
0.00630571
0.00614949
0.00598644
0.00580291
0.00556952
0.00523127
0.0047066
0.00396526
0.00330979
0.00300593
0.00140585
0.00534632
0.00651279
0.0106668
0.00481466
0.00389044
0.00467474
0.00507708
0.00540264
0.0054737
0.00546283
0.00561792
0.00606834
0.00670253
0.00727009
0.00765139
0.0079119
0.00808173
0.00815217
0.00812055
0.00800884
0.00785106
0.00767605
0.00750195
0.00733679
0.0071815
0.00703437
0.00689372
0.00675822
0.00662669
0.00649798
0.00637109
0.00624508
0.00611842
0.00598732
0.00584417
0.00567355
0.00543052
0.00501386
0.00465022
0.00149746
0.0179791
0.00999643
0.00419782
0.00525724
0.0056675
0.00582826
0.00580142
0.00574511
0.00579197
0.00599978
0.00631561
0.00663232
0.00689006
0.00711989
0.00731829
0.0074631
0.00753794
0.00754386
0.00749599
0.00741395
0.007315
0.00721121
0.00710918
0.00701128
0.00691743
0.00682615
0.00673515
0.00664158
0.00654215
0.00643314
0.00631031
0.00616882
0.0060032
0.00580549
0.00555202
0.0051843
0.00444307
0.0015699
0.00591196
0.00513407
0.00552394
0.00524581
0.00533291
0.00528524
0.00523045
0.00523169
0.00535007
0.00559627
0.00594144
0.00634294
0.00671157
0.00699784
0.00718897
0.00728895
0.00731419
0.00728753
0.00723192
0.00716592
0.00710182
0.00704579
0.00699912
0.00695993
0.00692471
0.00688929
0.00684943
0.00680079
0.00673875
0.00665795
0.00655172
0.00641139
0.00622517
0.00597569
0.00563473
0.00514061
0.00451289
0.00175318
0.00131109
0.00146679
0.00369912
0.00273433
0.00187407
0.00172727
0.00167888
0.00161446
0.00155662
0.00150823
0.00147242
0.00144989
0.00144035
0.00144397
0.00146425
0.00149593
0.00153026
0.00156041
0.00158251
0.00159557
0.00160062
0.00159968
0.00159497
0.0015884
0.00158133
0.00157457
0.00156843
0.00156286
0.00155755
0.00155206
0.00154585
0.0015383
0.00152869
0.00151606
0.00149907
0.00147548
0.00144115
0.00138771
0.00133796
0.00129016
)
;

boundaryField
{
    floor
    {
        type            nutkWallFunction;
        Cmu             0.09;
        kappa           0.41;
        E               9.8;
        value           nonuniform List<scalar> 
29
(
9.24943e-05
2.78834e-05
3.33544e-05
3.25481e-05
2.89614e-05
2.60977e-05
2.43728e-05
2.40505e-05
2.54002e-05
2.73681e-05
2.91579e-05
2.99709e-05
2.99904e-05
2.98517e-05
2.97829e-05
3.00384e-05
3.06377e-05
2.91651e-05
2.6333e-05
2.56253e-05
2.56252e-05
3.56617e-05
6.17691e-05
9.06725e-05
9.24943e-05
2.78833e-05
4.95804e-05
7.25463e-05
0.00010653
)
;
    }
    ceiling
    {
        type            nutkWallFunction;
        Cmu             0.09;
        kappa           0.41;
        E               9.8;
        value           nonuniform List<scalar> 
43
(
0.000156907
0.0001746
0.000412746
0.00031244
0.000219815
0.00020364
0.000198265
0.000191082
0.000184608
0.000179172
0.000175136
0.000172591
0.000171511
0.00017192
0.00017421
0.00017778
0.00018164
0.000185022
0.000187497
0.000188958
0.000189522
0.000189416
0.000188889
0.000188153
0.000187362
0.000186604
0.000185916
0.000185291
0.000184695
0.000184078
0.000183381
0.000182533
0.000181453
0.000180033
0.000178121
0.000175462
0.000171584
0.000165528
0.000159868
0.00015441
0.000578181
0.00069222
0.000633745
)
;
    }
    sWall
    {
        type            nutkWallFunction;
        Cmu             0.09;
        kappa           0.41;
        E               9.8;
        value           uniform 0.000156936;
    }
    nWall
    {
        type            nutkWallFunction;
        Cmu             0.09;
        kappa           0.41;
        E               9.8;
        value           nonuniform List<scalar> 6(8.45769e-05 8.71188e-05 0.000143801 0.00018608 0.000206476 0.00015442);
    }
    sideWalls
    {
        type            empty;
    }
    glass1
    {
        type            nutkWallFunction;
        Cmu             0.09;
        kappa           0.41;
        E               9.8;
        value           nonuniform List<scalar> 9(0.000127073 0.000175789 0.000182905 0.000296368 0.000390399 0.000427794 0.000463941 0.000509444 0.000578604);
    }
    glass2
    {
        type            nutkWallFunction;
        Cmu             0.09;
        kappa           0.41;
        E               9.8;
        value           nonuniform List<scalar> 2(0.000167619 0.000177968);
    }
    sun
    {
        type            nutkWallFunction;
        Cmu             0.09;
        kappa           0.41;
        E               9.8;
        value           nonuniform List<scalar> 
14
(
0.000126998
0.000138241
0.000135771
0.000128417
0.000116283
0.000107315
0.00010196
9.87831e-05
9.67323e-05
9.54697e-05
9.49222e-05
9.48367e-05
9.4795e-05
9.43015e-05
)
;
    }
    heatsource1
    {
        type            nutkWallFunction;
        Cmu             0.09;
        kappa           0.41;
        E               9.8;
        value           nonuniform List<scalar> 3(0.000109492 0.000100965 8.45779e-05);
    }
    heatsource2
    {
        type            nutkWallFunction;
        Cmu             0.09;
        kappa           0.41;
        E               9.8;
        value           nonuniform List<scalar> 4(0.000101225 6.79447e-05 6.79446e-05 0.000105764);
    }
    Table_master
    {
        type            nutkWallFunction;
        Cmu             0.09;
        kappa           0.41;
        E               9.8;
        value           nonuniform List<scalar> 9(3.87678e-05 4.09368e-05 4.34018e-05 4.59561e-05 4.88254e-05 5.22431e-05 5.66667e-05 6.27176e-05 7.13036e-05);
    }
    Table_slave
    {
        type            nutkWallFunction;
        Cmu             0.09;
        kappa           0.41;
        E               9.8;
        value           nonuniform List<scalar> 9(7.96806e-05 7.87338e-05 7.8058e-05 7.76728e-05 7.77557e-05 7.85093e-05 8.01949e-05 8.32037e-05 8.8187e-05);
    }
    inlet
    {
        type            calculated;
        value           uniform 0.0179791;
    }
    outlet
    {
        type            calculated;
        value           nonuniform List<scalar> 2(0.00131109 0.00146679);
    }
}


// ************************************************************************* //
