/*--------------------------------*- C++ -*----------------------------------*\
  =========                 |
  \\      /  F ield         | OpenFOAM: The Open Source CFD Toolbox
   \\    /   O peration     | Website:  https://openfoam.org
    \\  /    A nd           | Version:  6
     \\/     M anipulation  |
\*---------------------------------------------------------------------------*/
FoamFile
{
    version     2.0;
    format      ascii;
    class       volScalarField;
    location    "1100";
    object      nut;
}
// * * * * * * * * * * * * * * * * * * * * * * * * * * * * * * * * * * * * * //

dimensions      [0 2 -1 0 0 0 0];

internalField   nonuniform List<scalar> 
459
(
0.00142474
0.0018316
0.00174907
0.00158865
0.0014416
0.00129035
0.00105637
0.000605566
0.00053556
0.000515551
0.000513832
0.000521576
0.000532613
0.000542189
0.000548509
0.000385833
0.000357414
0.000278219
0.000219682
0.000199364
0.00019787
0.000203717
0.000215095
0.00022721
0.000237481
0.000244024
0.000247528
0.0002558
0.000276094
0.000312713
0.000365638
0.000418376
0.000531778
0.000490711
0.00208
0.00266508
0.0028536
0.00283515
0.00266909
0.00240256
0.00201874
0.00170099
0.00193192
0.00202577
0.0020181
0.00191821
0.00177787
0.00155433
0.00118015
0.000639905
0.000410619
0.000507462
0.00128374
0.000955292
0.000766683
0.000675331
0.000638986
0.000646803
0.000704578
0.000767579
0.000820018
0.000859672
0.000902078
0.000964766
0.00107933
0.00128144
0.00164066
0.00173329
0.00213231
0.000690278
0.00266715
0.00335521
0.00335254
0.00320921
0.00302484
0.00279643
0.00246138
0.00217337
0.0023013
0.00271146
0.00297296
0.00287264
0.00266355
0.00236018
0.00190506
0.00130924
0.000718749
0.000591473
0.00133537
0.000946075
0.000656105
0.000481015
0.000378974
0.000301029
0.000320846
0.000343896
0.000370417
0.000402497
0.000443048
0.000496965
0.000573288
0.000689858
0.0021517
0.00243619
0.00302853
0.000852564
0.00289735
0.00411026
0.00387163
0.00349603
0.00320227
0.00294814
0.00264723
0.00243611
0.00267293
0.00321261
0.00368574
0.00382642
0.00371014
0.00349188
0.00309907
0.00243407
0.00150188
0.00073837
0.00158357
0.00186039
0.00152224
0.00118815
0.000924321
0.000705871
0.000541977
0.000550628
0.00056133
0.000574202
0.00059113
0.000614212
0.000646679
0.000695066
0.00077482
0.00244696
0.0026023
0.00299142
0.000877989
0.00307419
0.00462105
0.0040956
0.00350029
0.00318633
0.00293994
0.00268567
0.00259746
0.00300008
0.00356498
0.00415811
0.00456966
0.00469946
0.00473811
0.00473718
0.00467732
0.00450292
0.00418876
0.00399785
0.00373891
0.00347228
0.00329592
0.00319524
0.00313369
0.00306755
0.00304314
0.00301143
0.00297899
0.0029505
0.00293021
0.00292259
0.00293475
0.00297814
0.00307721
0.00277279
0.00226747
0.00165862
0.000838952
0.000867854
0.000832265
0.00324947
0.00460481
0.00368074
0.00330961
0.00304575
0.00284972
0.00268035
0.00273701
0.00324159
0.00379888
0.00441287
0.0049427
0.00518537
0.00528033
0.00537118
0.00547014
0.0055162
0.00542823
0.00523344
0.00501449
0.00484512
0.00471071
0.00461746
0.00455145
0.00448894
0.00441971
0.00434561
0.00427102
0.00420029
0.00413723
0.0040838
0.00403965
0.00399977
0.00394063
0.00379654
0.00356296
0.00326691
0.00303991
0.0029234
0.00105124
0.00346096
0.00422384
0.00292781
0.0030321
0.0029088
0.00279501
0.0027182
0.00288191
0.0034228
0.00394937
0.00451735
0.00501497
0.00524386
0.00530009
0.00541013
0.00558006
0.00573328
0.00578867
0.0057382
0.00564124
0.00554833
0.00546384
0.00538913
0.00531803
0.00524232
0.00515781
0.00506548
0.0049677
0.00486882
0.00477517
0.00469226
0.00462291
0.00456937
0.00453041
0.00449235
0.00442958
0.00430557
0.00418384
0.00427471
0.00123662
0.00375156
0.0041912
0.00356132
0.0025018
0.00289591
0.00290444
0.0028723
0.00307125
0.00360637
0.00410294
0.00454088
0.00484537
0.00499334
0.00505966
0.00522646
0.00545108
0.00566375
0.00580592
0.00586135
0.0058582
0.00582904
0.00578835
0.00574449
0.00569775
0.00564257
0.0055787
0.0055078
0.00542779
0.00533914
0.00524774
0.00516205
0.00508486
0.0050163
0.00495679
0.00490574
0.00486781
0.00485325
0.00485294
0.00502304
0.00141513
0.00422907
0.00504929
0.00766489
0.00317378
0.00290552
0.00344349
0.00335512
0.00348098
0.00400458
0.00436818
0.00461683
0.00483507
0.00501501
0.00519687
0.00541044
0.00562049
0.00580079
0.00593349
0.00601377
0.00605205
0.00606251
0.00605501
0.00603711
0.00601298
0.00597987
0.00594159
0.00590562
0.00586809
0.00582362
0.00577005
0.00571218
0.00564994
0.00558035
0.00550198
0.00541376
0.00531959
0.00524302
0.00521141
0.0050848
0.00143133
0.0130254
0.00792315
0.00401242
0.00461163
0.00453321
0.00453043
0.00489631
0.00517213
0.00545953
0.00578115
0.006038
0.00623553
0.00638404
0.00648913
0.00656458
0.00662331
0.00667297
0.00671707
0.00675565
0.00678514
0.00680036
0.00679681
0.00677437
0.00674413
0.00672038
0.00670637
0.00669573
0.00667829
0.00664843
0.00659778
0.00652401
0.00642813
0.0063097
0.0061624
0.00596655
0.00565916
0.00484796
0.00151371
0.00480499
0.00541723
0.00646127
0.00557839
0.00497465
0.00475822
0.00508713
0.00557299
0.00613708
0.00671138
0.00716927
0.00743968
0.00755693
0.00757958
0.00756268
0.00754437
0.00754409
0.0075662
0.00760527
0.00765107
0.00768989
0.00769865
0.00768158
0.00766079
0.00765086
0.00765826
0.00768358
0.00771832
0.00773739
0.0077156
0.0076603
0.00757626
0.00746142
0.00730661
0.00708993
0.00674087
0.00593986
0.00196449
0.000910093
0.00108442
0.0029743
0.00244552
0.00209683
0.00184291
0.00167821
0.0015748
0.00153825
0.00153822
0.00155983
0.00159412
0.00164015
0.00169065
0.00173219
0.00176018
0.00177584
0.00178294
0.00178546
0.00178648
0.00178772
0.00178964
0.00179159
0.00179377
0.00179602
0.00179737
0.00179841
0.00179972
0.0018015
0.00180338
0.00180497
0.00180642
0.00180558
0.00180202
0.00179523
0.00178402
0.00176656
0.00173917
0.00168323
0.00147495
)
;

boundaryField
{
    floor
    {
        type            nutkWallFunction;
        Cmu             0.09;
        kappa           0.41;
        E               9.8;
        value           nonuniform List<scalar> 
29
(
6.58384e-05
4.48278e-05
4.10509e-05
3.03136e-05
2.21157e-05
1.9206e-05
1.89923e-05
1.98361e-05
2.14673e-05
2.31903e-05
2.4641e-05
2.55603e-05
2.60509e-05
2.72075e-05
3.00245e-05
3.50397e-05
4.21546e-05
4.91129e-05
6.37211e-05
5.84765e-05
5.84765e-05
8.35174e-05
0.00010323
0.000106269
6.58384e-05
4.48277e-05
6.06145e-05
7.12426e-05
8.94048e-05
)
;
    }
    ceiling
    {
        type            nutkWallFunction;
        Cmu             0.09;
        kappa           0.41;
        E               9.8;
        value           nonuniform List<scalar> 
43
(
0.000110164
0.000130747
0.000337856
0.000281875
0.000244267
0.000216462
0.000198234
0.000186687
0.000182587
0.000182584
0.000185008
0.000188847
0.000193981
0.000199599
0.00020421
0.000207312
0.000209047
0.000209834
0.000210114
0.000210227
0.000210364
0.000210576
0.000210788
0.000211031
0.000211277
0.000211426
0.00021154
0.000211685
0.000211881
0.000212089
0.000212264
0.000212422
0.000212328
0.000211933
0.000211182
0.000209942
0.000208011
0.000204977
0.000198766
0.000175442
0.000466685
0.000548819
0.0005245
)
;
    }
    sWall
    {
        type            nutkWallFunction;
        Cmu             0.09;
        kappa           0.41;
        E               9.8;
        value           uniform 0.000110171;
    }
    nWall
    {
        type            nutkWallFunction;
        Cmu             0.09;
        kappa           0.41;
        E               9.8;
        value           nonuniform List<scalar> 6(0.000100786 0.000126781 0.000148299 0.00017982 0.000229787 0.000175451);
    }
    sideWalls
    {
        type            empty;
    }
    glass1
    {
        type            nutkWallFunction;
        Cmu             0.09;
        kappa           0.41;
        E               9.8;
        value           nonuniform List<scalar> 9(0.000169901 0.000242587 0.000305656 0.000329954 0.00034848 0.000366732 0.000388622 0.000418478 0.000467039);
    }
    glass2
    {
        type            nutkWallFunction;
        Cmu             0.09;
        kappa           0.41;
        E               9.8;
        value           nonuniform List<scalar> 2(0.000168671 0.000170508);
    }
    sun
    {
        type            nutkWallFunction;
        Cmu             0.09;
        kappa           0.41;
        E               9.8;
        value           nonuniform List<scalar> 
14
(
0.00016979
0.000215215
0.000206104
0.00018824
0.000171689
0.000154468
0.000127352
7.30155e-05
6.42094e-05
6.16614e-05
6.14394e-05
6.24243e-05
6.38264e-05
6.50397e-05
)
;
    }
    heatsource1
    {
        type            nutkWallFunction;
        Cmu             0.09;
        kappa           0.41;
        E               9.8;
        value           nonuniform List<scalar> 3(0.000101593 0.000105061 0.000100786);
    }
    heatsource2
    {
        type            nutkWallFunction;
        Cmu             0.09;
        kappa           0.41;
        E               9.8;
        value           nonuniform List<scalar> 4(7.72865e-05 4.80821e-05 4.8082e-05 8.70072e-05);
    }
    Table_master
    {
        type            nutkWallFunction;
        Cmu             0.09;
        kappa           0.41;
        E               9.8;
        value           nonuniform List<scalar> 9(3.34286e-05 3.61233e-05 3.92305e-05 4.27726e-05 4.70144e-05 5.23157e-05 5.92714e-05 6.89612e-05 8.34657e-05);
    }
    Table_slave
    {
        type            nutkWallFunction;
        Cmu             0.09;
        kappa           0.41;
        E               9.8;
        value           nonuniform List<scalar> 9(6.5002e-05 6.60973e-05 6.74495e-05 6.90714e-05 7.11976e-05 7.40849e-05 7.81244e-05 8.41003e-05 9.38444e-05);
    }
    inlet
    {
        type            calculated;
        value           uniform 3.3541e-05;
    }
    outlet
    {
        type            calculated;
        value           nonuniform List<scalar> 2(0.000910093 0.00108442);
    }
}


// ************************************************************************* //
