/*--------------------------------*- C++ -*----------------------------------*\
  =========                 |
  \\      /  F ield         | OpenFOAM: The Open Source CFD Toolbox
   \\    /   O peration     | Website:  https://openfoam.org
    \\  /    A nd           | Version:  6
     \\/     M anipulation  |
\*---------------------------------------------------------------------------*/
FoamFile
{
    version     2.0;
    format      ascii;
    class       volScalarField;
    location    "200";
    object      epsilon;
}
// * * * * * * * * * * * * * * * * * * * * * * * * * * * * * * * * * * * * * //

dimensions      [0 2 -3 0 0 0 0];

internalField   nonuniform List<scalar> 
459
(
0.00497928
0.00457772
0.00411458
0.00371898
0.00340055
0.00313727
0.00291353
0.00271642
0.00253479
0.00235982
0.00218384
0.00199875
0.00179357
0.0015479
0.00125981
2.53327e-06
2.90727e-06
2.4786e-06
1.2854e-06
9.0313e-07
7.76137e-07
7.39712e-07
7.15003e-07
7.29615e-07
8.04721e-07
9.33637e-07
1.14135e-06
1.38625e-06
1.81429e-06
3.24158e-06
6.48867e-06
9.46542e-06
9.83087e-06
6.24668e-06
0.00732422
0.00556457
0.00437931
0.00340342
0.00276612
0.00234901
0.00205998
0.00184973
0.00169105
0.00156867
0.00147322
0.00139612
0.00132352
0.00121934
0.00106865
0.00109173
0.000743475
4.96188e-06
9.46029e-06
6.51914e-06
3.00744e-06
1.90262e-06
1.3647e-06
8.05896e-07
8.61191e-07
1.28665e-06
1.97338e-06
2.87494e-06
4.22195e-06
6.78008e-06
1.05034e-05
1.49018e-05
1.81462e-05
1.81741e-05
1.84024e-05
1.05658e-05
0.00899075
0.00686146
0.00462071
0.00306053
0.0022482
0.00180706
0.00155279
0.00139478
0.00128068
0.00119401
0.00112752
0.0010775
0.0010379
0.000983396
0.00091561
0.000923985
0.000759799
2.29709e-05
1.83573e-05
1.19656e-05
1.13633e-05
1.18493e-05
1.4108e-05
1.59268e-06
1.55534e-06
3.10821e-06
5.44973e-06
8.54855e-06
1.28139e-05
1.94424e-05
3.18249e-05
5.96483e-05
5.02759e-05
4.95496e-05
4.55522e-05
4.30951e-05
0.0103536
0.00837538
0.00439889
0.00221301
0.00136745
0.00101441
0.00086347
0.000813998
0.000809802
0.000817429
0.000823809
0.000826737
0.000826572
0.000809872
0.000789806
0.000812582
0.000757691
0.000214833
5.28693e-05
2.3961e-05
2.52458e-05
3.03009e-05
3.63831e-05
4.47839e-05
6.04917e-05
6.64402e-05
7.22603e-05
7.83703e-05
8.57904e-05
9.59579e-05
0.000111099
0.000135437
0.000179985
0.000103593
0.000115444
0.000127292
0.00014603
0.0116454
0.0100335
0.00385594
0.00132312
0.000713113
0.000547806
0.000513076
0.000523292
0.000553141
0.00058782
0.000620211
0.000647972
0.00066991
0.000674357
0.000678228
0.000710979
0.000704893
0.00023395
4.88714e-05
2.90535e-05
3.02546e-05
3.42002e-05
3.85713e-05
4.31178e-05
4.78761e-05
5.24948e-05
5.73886e-05
6.31279e-05
7.05366e-05
8.06798e-05
9.48471e-05
0.000114366
0.000139724
0.000167146
0.00020783
0.000258273
0.000322271
0.000452349
0.000278323
0.000190993
0.0130585
0.0118262
0.00377378
0.000725861
0.000500493
0.000404967
0.000391719
0.000402087
0.000426226
0.00045791
0.000492187
0.000525076
0.000552786
0.000566584
0.000583454
0.000616456
0.000613282
0.000232451
6.04978e-05
3.96036e-05
4.22034e-05
4.83093e-05
5.49195e-05
6.14103e-05
6.76288e-05
7.32198e-05
7.86175e-05
8.47e-05
9.26829e-05
0.00010422
0.000121523
0.000147351
0.000184629
0.000235821
0.000303117
0.00038442
0.000468283
0.000540565
0.000329832
0.000296124
0.0148605
0.0139163
0.00606002
0.000836907
0.000486624
0.000346262
0.000322144
0.000330546
0.000351593
0.000377229
0.000406483
0.00043621
0.000462902
0.000482602
0.000505091
0.000533441
0.000520224
0.000218034
7.40206e-05
6.00005e-05
6.9371e-05
8.18017e-05
9.36093e-05
0.000103768
0.000111773
0.000117373
0.000122094
0.000127304
0.000134607
0.000146254
0.000165562
0.000196992
0.000245071
0.000313167
0.00040217
0.000507182
0.000609616
0.000673827
0.000660397
0.000299427
0.0176776
0.019337
0.015295
0.00158835
0.0004929
0.000292106
0.000262759
0.000273489
0.000296372
0.00032128
0.000347893
0.000375287
0.000401484
0.000424207
0.000445763
0.000464231
0.000437764
0.000200026
9.8573e-05
0.000106896
0.000136057
0.000164927
0.000188288
0.000200742
0.000204771
0.00020538
0.000205273
0.00020622
0.000209874
0.000218676
0.00023701
0.00027246
0.000332672
0.000423627
0.000544974
0.000688919
0.000853025
0.00104989
0.00128843
0.00101754
0.0232735
0.0337818
0.0520801
0.00661271
0.000667243
0.000308056
0.000250163
0.000248357
0.000265176
0.000290468
0.000317903
0.000346568
0.000374447
0.000397817
0.000412814
0.000415538
0.000376826
0.000195413
0.000160022
0.000224592
0.000311139
0.000383031
0.000413059
0.000414219
0.000402826
0.000387916
0.000374036
0.000363213
0.000356379
0.000354581
0.000360308
0.000379656
0.000417829
0.000481574
0.000580148
0.000720581
0.000884207
0.00107497
0.00230177
0.00142089
0.119336
0.0153736
0.00130087
0.000480963
0.000347487
0.000317618
0.000323986
0.000342501
0.000368044
0.000397429
0.000425818
0.000445625
0.000448204
0.00043508
0.000411282
0.000279724
0.000352181
0.000539499
0.000741113
0.000863043
0.000905935
0.000894525
0.000856568
0.000811667
0.000770327
0.000736643
0.000711134
0.00069275
0.000680118
0.00067264
0.000674616
0.000685599
0.000708342
0.000743628
0.000782087
0.000841118
0.0011559
0.00149399
0.00943961
0.00217117
0.00187238
0.000891848
0.00060499
0.000456255
0.000381499
0.000355764
0.0003595
0.000378931
0.000404902
0.000426053
0.000428073
0.000412781
0.000370211
0.000400695
0.000642684
0.00106141
0.00149023
0.00178442
0.00190602
0.00189995
0.00182964
0.00174179
0.00166102
0.00159579
0.00154513
0.0015033
0.0014634
0.00141953
0.00136863
0.0013175
0.00127745
0.00125179
0.00123612
0.00121253
0.00173651
0.00158865
0.00101885
0.000992773
0.00195555
0.000542893
0.00055274
0.000536724
0.000540515
0.000547903
0.000558206
0.000572296
0.000583756
0.000595469
0.000606981
0.000615606
0.000615403
0.000586743
0.000547274
0.000532721
0.000553692
0.000603545
0.000698765
0.000816137
0.000922507
0.000996791
0.00103483
0.00104381
0.0010347
0.00101733
0.000998483
0.000981651
0.000967684
0.000955496
0.000942729
0.000926576
0.000904319
0.000872397
0.000824454
0.000752399
0.000731106
0.000576848
)
;

boundaryField
{
    floor
    {
        Cmu             0.09;
        kappa           0.41;
        E               9.8;
        type            epsilonWallFunction;
        value           nonuniform List<scalar> 
29
(
0.00125981
2.53327e-06
2.90727e-06
2.4786e-06
1.2854e-06
9.0313e-07
7.76137e-07
7.39712e-07
7.15003e-07
7.29615e-07
8.04721e-07
9.33637e-07
1.14135e-06
1.38625e-06
1.81429e-06
3.24158e-06
6.48867e-06
9.46542e-06
9.83087e-06
6.24668e-06
6.24668e-06
1.05658e-05
4.30951e-05
0.00014603
0.00125981
2.53327e-06
4.96188e-06
2.29709e-05
0.000214833
)
;
    }
    ceiling
    {
        Cmu             0.09;
        kappa           0.41;
        E               9.8;
        type            epsilonWallFunction;
        value           nonuniform List<scalar> 
43
(
0.00101885
0.000992773
0.00195555
0.000542893
0.00055274
0.000536724
0.000540515
0.000547903
0.000558206
0.000572296
0.000583756
0.000595469
0.000606981
0.000615606
0.000615403
0.000586743
0.000547274
0.000532721
0.000553692
0.000603545
0.000698765
0.000816137
0.000922507
0.000996791
0.00103483
0.00104381
0.0010347
0.00101733
0.000998483
0.000981651
0.000967684
0.000955496
0.000942729
0.000926576
0.000904319
0.000872397
0.000824454
0.000752399
0.000731106
0.000576848
0.0232735
0.0337818
0.00943961
)
;
    }
    sWall
    {
        Cmu             0.09;
        kappa           0.41;
        E               9.8;
        type            epsilonWallFunction;
        value           uniform 0.00101885;
    }
    nWall
    {
        Cmu             0.09;
        kappa           0.41;
        E               9.8;
        type            epsilonWallFunction;
        value           nonuniform List<scalar> 6(0.000190993 0.000296124 0.000299427 0.00149399 0.00158865 0.000576848);
    }
    sideWalls
    {
        type            empty;
    }
    glass1
    {
        Cmu             0.09;
        kappa           0.41;
        E               9.8;
        type            epsilonWallFunction;
        value           nonuniform List<scalar> 9(0.00497928 0.00732422 0.00899075 0.0103536 0.0116454 0.0130585 0.0148605 0.0176776 0.0232735);
    }
    glass2
    {
        Cmu             0.09;
        kappa           0.41;
        E               9.8;
        type            epsilonWallFunction;
        value           nonuniform List<scalar> 2(0.00101754 0.00142089);
    }
    sun
    {
        Cmu             0.09;
        kappa           0.41;
        E               9.8;
        type            epsilonWallFunction;
        value           nonuniform List<scalar> 
14
(
0.00497928
0.00457772
0.00411458
0.00371898
0.00340055
0.00313727
0.00291353
0.00271642
0.00253479
0.00235982
0.00218384
0.00199875
0.00179357
0.0015479
)
;
    }
    heatsource1
    {
        Cmu             0.09;
        kappa           0.41;
        E               9.8;
        type            epsilonWallFunction;
        value           nonuniform List<scalar> 3(0.000452349 0.000278323 0.000190993);
    }
    heatsource2
    {
        Cmu             0.09;
        kappa           0.41;
        E               9.8;
        type            epsilonWallFunction;
        value           nonuniform List<scalar> 4(0.00109173 0.000743475 0.000743475 0.000759799);
    }
    Table_master
    {
        Cmu             0.09;
        kappa           0.41;
        E               9.8;
        type            epsilonWallFunction;
        value           nonuniform List<scalar> 9(1.59268e-06 1.55534e-06 3.10821e-06 5.44973e-06 8.54855e-06 1.28139e-05 1.94424e-05 3.18249e-05 5.96483e-05);
    }
    Table_slave
    {
        Cmu             0.09;
        kappa           0.41;
        E               9.8;
        type            epsilonWallFunction;
        value           nonuniform List<scalar> 9(6.04917e-05 6.64402e-05 7.22603e-05 7.83703e-05 8.57904e-05 9.59579e-05 0.000111099 0.000135437 0.000179985);
    }
    inlet
    {
        type            turbulentMixingLengthDissipationRateInlet;
        mixingLength    0.01;
        phi             phi;
        k               k;
        value           uniform 0.119336;
    }
    outlet
    {
        type            zeroGradient;
    }
}


// ************************************************************************* //
