/*--------------------------------*- C++ -*----------------------------------*\
  =========                 |
  \\      /  F ield         | OpenFOAM: The Open Source CFD Toolbox
   \\    /   O peration     | Website:  https://openfoam.org
    \\  /    A nd           | Version:  6
     \\/     M anipulation  |
\*---------------------------------------------------------------------------*/
FoamFile
{
    version     2.0;
    format      ascii;
    class       volScalarField;
    location    "200";
    object      epsilon;
}
// * * * * * * * * * * * * * * * * * * * * * * * * * * * * * * * * * * * * * //

dimensions      [0 2 -3 0 0 0 0];

internalField   nonuniform List<scalar> 
459
(
0.000618926
0.000826906
0.000898483
0.00104833
0.00121017
0.00139278
0.00157236
0.00169832
0.00173558
0.00166604
0.00148441
0.00112545
0.000775863
0.00047358
0.000286065
5.65241e-05
9.17844e-05
0.000145197
0.000180134
0.000181553
0.000167026
0.000137746
0.000110616
8.94174e-05
7.32947e-05
6.09578e-05
5.1403e-05
4.38686e-05
3.78459e-05
3.28837e-05
2.85846e-05
2.45752e-05
2.12041e-05
1.58855e-05
0.00144859
0.00194597
0.000769996
0.000765737
0.000836191
0.0009583
0.00110996
0.00123256
0.00127727
0.0012262
0.00109059
0.000873913
0.000662325
0.000490125
0.000356802
0.000563749
0.000270337
5.37068e-05
9.68082e-05
0.00014003
0.000152478
0.000148452
0.000139023
0.000140269
0.000114158
8.94808e-05
7.00598e-05
5.5347e-05
4.4282e-05
3.58908e-05
2.94856e-05
2.46407e-05
2.15677e-05
2.00797e-05
3.31258e-05
2.62177e-05
0.00251456
0.00438037
0.000920459
0.00075968
0.000858303
0.00104508
0.0012578
0.00140488
0.00144505
0.00138118
0.00123103
0.00101193
0.000805424
0.000625461
0.000473465
0.000427655
0.000551067
0.000158767
0.000184651
0.00018957
0.000184217
0.000171368
0.000166788
0.000358566
0.000235703
0.000160478
0.000113515
8.32516e-05
6.30876e-05
4.92374e-05
3.96566e-05
3.33107e-05
2.49974e-05
2.09453e-05
5.29793e-05
3.5812e-05
0.00391075
0.00871894
0.00138404
0.000825713
0.000949848
0.00125317
0.00153613
0.00167699
0.00168702
0.00159314
0.00140616
0.00117095
0.000932381
0.00072677
0.000567473
0.0004719
0.000465178
0.000819353
0.000530738
0.000373045
0.000291905
0.000244405
0.000211347
0.000202603
0.000528515
0.000391426
0.000304588
0.000244194
0.000198941
0.000162082
0.000130292
0.000101829
7.51383e-05
4.04598e-05
2.60767e-05
8.49396e-05
4.44188e-05
0.0057693
0.015232
0.00260167
0.0010648
0.00119706
0.00174728
0.002033
0.00209768
0.00204115
0.00189086
0.0016518
0.00134925
0.00103759
0.000773694
0.000583028
0.000464499
0.000423423
0.000451299
0.000403552
0.000356455
0.000317165
0.000279455
0.000241752
0.000210404
0.000207373
0.000190987
0.000172765
0.000153689
0.000134022
0.000113998
9.43619e-05
7.59818e-05
5.91965e-05
4.09199e-05
2.89688e-05
6.30327e-05
4.56723e-05
7.44844e-05
0.000129217
0.00018363
0.00828967
0.02252
0.00572001
0.00208074
0.00229813
0.0028016
0.00283781
0.0027233
0.00255211
0.00231005
0.00197506
0.00156424
0.00114706
0.000803286
0.000569139
0.000440076
0.000397077
0.000400432
0.000398217
0.000381313
0.000348721
0.000305615
0.000259135
0.000217378
0.000189095
0.000170222
0.000154641
0.000138367
0.00012058
0.000102017
8.39599e-05
6.75379e-05
5.35265e-05
4.1243e-05
3.45642e-05
4.75884e-05
4.93101e-05
5.94389e-05
0.000243348
0.000212144
0.0110148
0.0269123
0.0116359
0.00610048
0.00533282
0.00463173
0.00404828
0.00360493
0.00324119
0.0028543
0.00237617
0.00181285
0.00125588
0.000819797
0.000547908
0.000421561
0.000393951
0.000405234
0.000408631
0.000387496
0.000346485
0.000296089
0.000245817
0.000203425
0.000174836
0.000158345
0.000146494
0.000135296
0.000123166
0.000110301
9.74321e-05
8.49421e-05
7.39627e-05
6.48525e-05
6.30972e-05
7.38058e-05
9.73725e-05
0.00016271
0.00036912
0.000343425
0.0115334
0.027618
0.0163639
0.011635
0.00862355
0.00663467
0.00539777
0.00463483
0.00407963
0.00351135
0.0028288
0.00204272
0.00129246
0.000765553
0.000482711
0.000395314
0.000384033
0.000388722
0.000377339
0.00034436
0.000297845
0.000248949
0.000206353
0.000174869
0.000155806
0.000146555
0.000143154
0.000143938
0.000148883
0.00015796
0.000169197
0.000181359
0.000198563
0.000229065
0.000283837
0.000438618
0.000822097
0.00159891
0.00461493
0.00120828
0.0106185
0.0172587
0.0135889
0.010483
0.0082568
0.00692309
0.00614536
0.00560804
0.00502333
0.00419335
0.00315442
0.00198936
0.000970429
0.000562951
0.00040841
0.000356371
0.000339996
0.000326343
0.000300784
0.000264218
0.000224065
0.000187448
0.000158629
0.000139401
0.000129407
0.000127067
0.000131183
0.000142053
0.000161321
0.000191408
0.000235783
0.000299063
0.000387922
0.000515793
0.000691519
0.000917185
0.00116751
0.001384
0.00155707
0.000962724
0.00297754
0.00481257
0.00670219
0.00717231
0.00699668
0.00627987
0.00490379
0.00299976
0.0017297
0.000983589
0.000583241
0.000405575
0.000329875
0.000295208
0.000272582
0.000248427
0.000219177
0.000187946
0.000159432
0.000136654
0.000120475
0.000110459
0.000105734
0.000105734
0.000110633
0.000121333
0.000139346
0.000167086
0.000207992
0.000266908
0.000350114
0.000464423
0.000611451
0.000777369
0.000924804
0.00100736
0.000923773
0.00056365
0.00303372
0.00841951
0.00793003
0.00593016
0.004407
0.00313778
0.0021029
0.00131903
0.000817102
0.000536572
0.00039148
0.000320004
0.000282803
0.000259841
0.000241451
0.000223699
0.000206142
0.000190067
0.000176762
0.000166739
0.000159815
0.000155488
0.000153249
0.000152839
0.000154478
0.000159088
0.000168403
0.000185028
0.000212463
0.000255233
0.000318674
0.000407293
0.000520395
0.000648
0.000733876
0.00080803
0.000821098
0.000594686
0.00219884
0.00262177
0.0029602
0.00369621
0.00297668
0.0024197
0.00201666
0.00160625
0.00122521
0.00091732
0.000699815
0.000564254
0.000481255
0.00042633
0.000385033
0.000348853
0.000313218
0.000277058
0.000242039
0.000210764
0.000185044
0.000165261
0.000150746
0.000140493
0.000133712
0.000130119
0.000129989
0.000134068
0.00014345
0.000159466
0.000183709
0.000218214
0.000265721
0.000329659
0.000415106
0.000521128
0.000546977
0.000488459
0.000409205
0.000328362
)
;

boundaryField
{
    floor
    {
        Cmu             0.09;
        kappa           0.41;
        E               9.8;
        type            epsilonWallFunction;
        value           nonuniform List<scalar> 
29
(
0.000286065
5.65241e-05
9.17844e-05
0.000145197
0.000180134
0.000181553
0.000167026
0.000137746
0.000110616
8.94174e-05
7.32947e-05
6.09578e-05
5.1403e-05
4.38686e-05
3.78459e-05
3.28837e-05
2.85846e-05
2.45752e-05
2.12041e-05
1.58855e-05
1.58855e-05
2.62177e-05
3.5812e-05
4.44188e-05
0.000286065
5.65241e-05
5.37068e-05
0.000158767
0.000819353
)
;
    }
    ceiling
    {
        Cmu             0.09;
        kappa           0.41;
        E               9.8;
        type            epsilonWallFunction;
        value           nonuniform List<scalar> 
43
(
0.00219884
0.00262177
0.0029602
0.00369621
0.00297668
0.0024197
0.00201666
0.00160625
0.00122521
0.00091732
0.000699815
0.000564254
0.000481255
0.00042633
0.000385033
0.000348853
0.000313218
0.000277058
0.000242039
0.000210764
0.000185044
0.000165261
0.000150746
0.000140493
0.000133712
0.000130119
0.000129989
0.000134068
0.00014345
0.000159466
0.000183709
0.000218214
0.000265721
0.000329659
0.000415106
0.000521128
0.000546977
0.000488459
0.000409205
0.000328362
0.0106185
0.0172587
0.00303372
)
;
    }
    sWall
    {
        Cmu             0.09;
        kappa           0.41;
        E               9.8;
        type            epsilonWallFunction;
        value           uniform 0.00219884;
    }
    nWall
    {
        Cmu             0.09;
        kappa           0.41;
        E               9.8;
        type            epsilonWallFunction;
        value           nonuniform List<scalar> 6(0.00018363 0.000212144 0.000343425 0.00056365 0.000594686 0.000328362);
    }
    sideWalls
    {
        type            empty;
    }
    glass1
    {
        Cmu             0.09;
        kappa           0.41;
        E               9.8;
        type            epsilonWallFunction;
        value           nonuniform List<scalar> 9(0.000618926 0.00144859 0.00251456 0.00391075 0.0057693 0.00828967 0.0110148 0.0115334 0.0106185);
    }
    glass2
    {
        Cmu             0.09;
        kappa           0.41;
        E               9.8;
        type            epsilonWallFunction;
        value           nonuniform List<scalar> 2(0.00120828 0.000962724);
    }
    sun
    {
        Cmu             0.09;
        kappa           0.41;
        E               9.8;
        type            epsilonWallFunction;
        value           nonuniform List<scalar> 
14
(
0.000618926
0.000826906
0.000898483
0.00104833
0.00121017
0.00139278
0.00157236
0.00169832
0.00173558
0.00166604
0.00148441
0.00112545
0.000775863
0.00047358
)
;
    }
    heatsource1
    {
        Cmu             0.09;
        kappa           0.41;
        E               9.8;
        type            epsilonWallFunction;
        value           nonuniform List<scalar> 3(7.44844e-05 0.000129217 0.00018363);
    }
    heatsource2
    {
        Cmu             0.09;
        kappa           0.41;
        E               9.8;
        type            epsilonWallFunction;
        value           nonuniform List<scalar> 4(0.000563749 0.000270337 0.000270337 0.000551067);
    }
    Table_master
    {
        Cmu             0.09;
        kappa           0.41;
        E               9.8;
        type            epsilonWallFunction;
        value           nonuniform List<scalar> 9(0.000358566 0.000235703 0.000160478 0.000113515 8.32516e-05 6.30876e-05 4.92374e-05 3.96566e-05 3.33107e-05);
    }
    Table_slave
    {
        Cmu             0.09;
        kappa           0.41;
        E               9.8;
        type            epsilonWallFunction;
        value           nonuniform List<scalar> 9(0.000528515 0.000391426 0.000304588 0.000244194 0.000198941 0.000162082 0.000130292 0.000101829 7.51383e-05);
    }
    inlet
    {
        type            turbulentMixingLengthDissipationRateInlet;
        mixingLength    0.01;
        phi             phi;
        k               k;
        value           uniform 0.000101881;
    }
    outlet
    {
        type            zeroGradient;
    }
}


// ************************************************************************* //
