// -*- C++ -*-
// File generated by PyFoam - sorry for the ugliness

FoamFile
{
 version 2.0;
 format ascii;
 class volScalarField;
 location "200";
 object T;
}

dimensions [ 0 0 0 1 0 0 0 ];

internalField nonuniform List<scalar> 459
(
  302.879
  302.619
  302.609
  302.609
  302.609
  302.608
  302.605
  302.6
  302.593
  302.588
  302.589
  302.595
  302.599
  302.6
  302.608
  302.832
  302.806
  302.795
  302.806
  302.823
  302.837
  302.848
  302.857
  302.866
  302.876
  302.885
  302.895
  302.905
  302.915
  302.926
  302.938
  302.952
  302.97
  303.007
  303.049
  302.655
  302.634
  302.639
  302.643
  302.645
  302.639
  302.623
  302.604
  302.59
  302.588
  302.596
  302.602
  302.603
  302.602
  302.596
  302.585
  302.836
  302.773
  302.77
  302.788
  302.812
  302.833
  302.842
  302.849
  302.856
  302.863
  302.87
  302.877
  302.885
  302.893
  302.903
  302.915
  302.93
  302.952
  302.998
  303.23
  302.703
  302.668
  302.682
  302.697
  302.705
  302.695
  302.661
  302.621
  302.594
  302.589
  302.602
  302.614
  302.618
  302.615
  302.608
  302.597
  302.784
  302.752
  302.759
  302.791
  302.83
  302.863
  302.864
  302.866
  302.869
  302.873
  302.879
  302.885
  302.892
  302.9
  302.909
  302.922
  302.935
  302.955
  303
  303.415
  302.766
  302.708
  302.733
  302.767
  302.789
  302.769
  302.705
  302.638
  302.595
  302.588
  302.606
  302.629
  302.642
  302.641
  302.634
  302.621
  302.63
  302.654
  302.7
  302.759
  302.824
  302.885
  302.933
  302.973
  303.005
  303.031
  303.056
  303.078
  303.099
  303.118
  303.136
  303.149
  303.07
  303.01
  302.986
  303.011
  303.598
  302.846
  302.757
  302.787
  302.844
  302.885
  302.843
  302.739
  302.646
  302.593
  302.585
  302.612
  302.65
  302.678
  302.688
  302.685
  302.682
  302.699
  302.736
  302.793
  302.861
  302.93
  302.995
  303.049
  303.098
  303.135
  303.165
  303.191
  303.209
  303.221
  303.227
  303.227
  303.216
  303.16
  303.08
  303.025
  303.024
  303.231
  303.303
  303.293
  303.767
  302.953
  302.837
  302.857
  302.947
  302.965
  302.88
  302.751
  302.638
  302.579
  302.578
  302.621
  302.682
  302.731
  302.758
  302.77
  302.782
  302.813
  302.864
  302.929
  303
  303.069
  303.13
  303.181
  303.224
  303.257
  303.284
  303.302
  303.314
  303.318
  303.314
  303.302
  303.279
  303.229
  303.152
  303.08
  303.052
  303.139
  303.182
  303.233
  303.93
  303.124
  303.01
  303.025
  303.086
  303.023
  302.872
  302.706
  302.587
  302.542
  302.568
  302.645
  302.739
  302.817
  302.867
  302.898
  302.925
  302.97
  303.029
  303.094
  303.16
  303.221
  303.273
  303.314
  303.347
  303.371
  303.389
  303.4
  303.403
  303.399
  303.387
  303.368
  303.339
  303.292
  303.226
  303.156
  303.114
  303.136
  303.161
  303.2
  304.158
  303.559
  303.433
  303.399
  303.251
  303.005
  302.748
  302.557
  302.471
  302.487
  302.575
  302.707
  302.849
  302.956
  303.028
  303.062
  303.097
  303.148
  303.209
  303.268
  303.322
  303.368
  303.404
  303.431
  303.451
  303.464
  303.472
  303.473
  303.469
  303.458
  303.442
  303.42
  303.392
  303.349
  303.3
  303.248
  303.221
  303.241
  303.264
  303.378
  304.489
  304.2
  303.969
  303.601
  303.022
  302.551
  302.286
  302.216
  302.3
  302.473
  302.665
  302.87
  303.061
  303.154
  303.2
  303.235
  303.276
  303.325
  303.377
  303.424
  303.463
  303.492
  303.513
  303.525
  303.531
  303.531
  303.525
  303.515
  303.501
  303.485
  303.47
  303.455
  303.444
  303.437
  303.439
  303.454
  303.483
  303.516
  303.535
  303.594
  295.727
  296.713
  298.54
  300.01
  301.064
  301.826
  302.408
  302.839
  303.054
  303.185
  303.27
  303.326
  303.365
  303.401
  303.439
  303.479
  303.517
  303.549
  303.571
  303.585
  303.591
  303.591
  303.586
  303.576
  303.564
  303.551
  303.537
  303.523
  303.511
  303.501
  303.494
  303.492
  303.499
  303.515
  303.541
  303.576
  303.623
  303.69
  296.648
  298.665
  300.668
  301.723
  302.364
  302.775
  303.041
  303.215
  303.324
  303.395
  303.445
  303.484
  303.516
  303.547
  303.576
  303.603
  303.625
  303.641
  303.65
  303.651
  303.648
  303.64
  303.63
  303.618
  303.605
  303.591
  303.578
  303.565
  303.553
  303.542
  303.534
  303.53
  303.531
  303.54
  303.558
  303.59
  303.616
  303.669
  300.152
  300.074
  300.064
  301.998
  302.771
  303.08
  303.248
  303.365
  303.45
  303.513
  303.559
  303.594
  303.621
  303.644
  303.663
  303.679
  303.692
  303.702
  303.707
  303.709
  303.707
  303.701
  303.693
  303.684
  303.673
  303.662
  303.65
  303.637
  303.624
  303.612
  303.599
  303.587
  303.576
  303.568
  303.562
  303.564
  303.574
  303.589
  303.605
  303.663
)
;

boundaryField
{
  floor
  {
    type wallHeatTransfer;
    Tinf uniform 305.2;
    alphaWall uniform 0.24;
    value nonuniform List<scalar> 29
(
  302.913
  303.242
  303.176
  303.129
  303.122
  303.136
  303.154
  303.179
  303.204
  303.23
  303.255
  303.279
  303.302
  303.325
  303.348
  303.37
  303.393
  303.419
  303.448
  303.506
  303.506
  303.45
  303.422
  303.411
  302.913
  303.242
  303.25
  303.112
  302.862
)
;
  }
  ceiling
  {
    type wallHeatTransfer;
    Tinf uniform 303.2;
    alphaWall uniform 0.24;
    value nonuniform List<scalar> 43
(
  300.362
  300.281
  300.265
  302.071
  302.799
  303.088
  303.244
  303.353
  303.43
  303.485
  303.525
  303.555
  303.578
  303.596
  303.612
  303.625
  303.635
  303.642
  303.645
  303.644
  303.64
  303.634
  303.625
  303.616
  303.606
  303.596
  303.586
  303.575
  303.565
  303.556
  303.547
  303.538
  303.531
  303.526
  303.523
  303.528
  303.537
  303.549
  303.561
  303.61
  304.43
  304.161
  297.06
)
;
  }
  sWall
  {
    type wallHeatTransfer;
    Tinf uniform 315.2;
    alphaWall uniform 0.36;
    value uniform 301.665;
  }
  nWall
  {
    type wallHeatTransfer;
    Tinf uniform 307.2;
    alphaWall uniform 0.36;
    value nonuniform List<scalar> 6
(
  304.017
  303.944
  303.841
  304.19
  304.166
  304.236
)
;
  }
  sideWalls
  {
    type empty;
  }
  glass1
  {
    type wallHeatTransfer;
    Tinf uniform 315.2;
    alphaWall uniform 4.3;
    value nonuniform List<scalar> 9
(
  311.049
  310.422
  310.031
  309.738
  309.496
  309.276
  309.127
  309.214
  309.46
)
;
  }
  glass2
  {
    type wallHeatTransfer;
    Tinf uniform 307.2;
    alphaWall uniform 4.3;
    value nonuniform List<scalar> 2
(
  305.732
  305.87
)
;
  }
  sun
  {
    type wallHeatTransfer;
    Tinf uniform 305.2;
    alphaWall uniform 0.24;
    value nonuniform List<scalar> 14
(
  303.104
  302.851
  302.838
  302.829
  302.82
  302.812
  302.803
  302.793
  302.786
  302.784
  302.79
  302.811
  302.837
  302.869
)
;
  }
  heatsource1
  {
    type fixedGradient;
    gradient uniform 0;
  }
  heatsource2
  {
    type fixedGradient;
    gradient uniform 0;
  }
  Table_master
  {
    type zeroGradient;
  }
  Table_slave
  {
    type zeroGradient;
  }
  inlet
  {
    type fixedValue;
    value uniform 293.15;
  }
  outlet
  {
    type zeroGradient;
  }
} 	// ************************************************************************* //

