/*--------------------------------*- C++ -*----------------------------------*\
  =========                 |
  \\      /  F ield         | OpenFOAM: The Open Source CFD Toolbox
   \\    /   O peration     | Website:  https://openfoam.org
    \\  /    A nd           | Version:  6
     \\/     M anipulation  |
\*---------------------------------------------------------------------------*/
FoamFile
{
    version     2.0;
    format      ascii;
    class       volScalarField;
    location    "580";
    object      epsilon;
}
// * * * * * * * * * * * * * * * * * * * * * * * * * * * * * * * * * * * * * //

dimensions      [0 2 -3 0 0 0 0];

internalField   nonuniform List<scalar> 
459
(
9.15012e-05
0.000126107
0.000145138
0.000171661
0.000199811
0.00023151
0.000267736
0.000302607
0.000330708
0.000344156
0.000333621
0.000258555
0.000188617
0.000123982
8.03647e-05
2.04811e-05
6.06013e-05
6.72297e-05
7.04257e-05
6.9368e-05
6.44239e-05
5.50006e-05
4.57781e-05
3.81594e-05
3.20612e-05
2.71761e-05
2.32679e-05
2.00782e-05
1.74093e-05
1.50951e-05
1.29779e-05
1.08858e-05
8.11144e-06
5.75523e-06
0.000181536
0.000221868
0.000115017
0.000117391
0.000126202
0.000142477
0.00016746
0.000196292
0.000221201
0.000233036
0.000226191
0.000189837
0.000149037
0.000115303
8.52019e-05
0.000139562
7.45245e-05
7.10376e-05
0.000132834
7.60214e-05
6.17266e-05
5.40835e-05
4.91643e-05
4.99255e-05
4.20001e-05
3.42243e-05
2.77858e-05
2.26397e-05
1.86035e-05
1.54265e-05
1.29172e-05
1.10658e-05
1.01497e-05
1.09505e-05
8.97591e-06
1.01273e-05
0.000292006
0.000420982
0.000115305
0.000103444
0.000112115
0.000131311
0.000160195
0.00019289
0.000221516
0.000238886
0.00023757
0.000209891
0.00017243
0.000137467
0.000104731
9.86901e-05
0.000126317
9.31663e-05
9.29443e-05
7.54598e-05
6.51531e-05
5.76018e-05
5.62106e-05
0.000132776
8.98798e-05
6.31346e-05
4.61133e-05
3.49223e-05
2.73506e-05
2.21059e-05
1.84517e-05
1.60398e-05
1.2535e-05
1.19861e-05
1.07953e-05
1.30476e-05
0.000431991
0.000776385
0.000139548
9.61438e-05
0.000103675
0.000126801
0.000163544
0.00020031
0.00023252
0.000256429
0.000258299
0.000232496
0.000192804
0.000155061
0.000123836
0.000105869
0.000105053
0.000187918
0.000132062
0.000100611
8.39079e-05
7.28754e-05
6.45751e-05
6.37712e-05
0.000173712
0.000132416
0.000108815
9.38306e-05
8.29128e-05
7.33464e-05
6.43105e-05
5.566e-05
4.64517e-05
2.77217e-05
1.88127e-05
1.78366e-05
1.83279e-05
0.000617788
0.00134786
0.000220568
9.79276e-05
0.000100135
0.000134302
0.000188607
0.000228148
0.000263245
0.000292192
0.000292868
0.00026042
0.000209398
0.000161432
0.000126705
0.000106332
0.000102641
0.000109464
0.000104895
9.95399e-05
9.25874e-05
8.39075e-05
7.45297e-05
6.67216e-05
6.75533e-05
6.46104e-05
6.17245e-05
5.87629e-05
5.52875e-05
5.09173e-05
4.5679e-05
4.02498e-05
3.49933e-05
2.80845e-05
2.16309e-05
2.21786e-05
2.04147e-05
2.79238e-05
2.90905e-05
3.10746e-05
0.000877059
0.00207585
0.000462765
0.000145138
0.00012053
0.000186588
0.00025157
0.000285217
0.00032014
0.00034957
0.000346412
0.000300102
0.00022972
0.000165138
0.00012205
0.000101983
0.000100744
0.000108362
0.000113566
0.00011306
0.000107248
9.76487e-05
8.64671e-05
7.62721e-05
7.03637e-05
6.80432e-05
6.70775e-05
6.56928e-05
6.31931e-05
5.9246e-05
5.36057e-05
4.63218e-05
3.91073e-05
3.25241e-05
2.65525e-05
2.47742e-05
2.44296e-05
2.74415e-05
0.000112024
7.58502e-05
0.00119599
0.00261997
0.00104698
0.000432186
0.000318702
0.000360689
0.00037126
0.000380728
0.000410345
0.000438653
0.000424449
0.00035512
0.000257593
0.000173174
0.000122263
0.000104164
0.000108187
0.000120496
0.000128724
0.000128812
0.000122091
0.00011139
9.98205e-05
9.03076e-05
8.5207e-05
8.39751e-05
8.36716e-05
8.25146e-05
8.02773e-05
7.72887e-05
7.36185e-05
6.79397e-05
6.02332e-05
5.35395e-05
4.8763e-05
4.68267e-05
4.75616e-05
5.43358e-05
0.000168432
0.000130604
0.0013028
0.00338258
0.00182105
0.00116907
0.000870822
0.000676397
0.00055823
0.000523226
0.000547462
0.000571206
0.000532139
0.000423916
0.000289416
0.000186468
0.000134163
0.000122891
0.000130992
0.000143632
0.000149873
0.000147947
0.000140553
0.0001313
0.000123158
0.000117916
0.000115749
0.000115073
0.000113662
0.000110608
0.000106807
0.000104428
0.000105676
0.000111372
0.00011846
0.000126902
0.000146153
0.000178248
0.000232231
0.00029256
0.00105286
0.00030066
0.00125001
0.00212144
0.00161486
0.001214
0.000934223
0.000742299
0.000659535
0.000681391
0.000747678
0.000763495
0.000664673
0.000488842
0.000310912
0.000215396
0.000182711
0.000177923
0.000184397
0.000192185
0.000195093
0.000193626
0.000190372
0.000187516
0.00018603
0.00018611
0.000186434
0.00018468
0.000178609
0.000167564
0.000153611
0.000141668
0.000137515
0.000144524
0.000163675
0.000194784
0.000240833
0.00030622
0.00039141
0.000492546
0.000601905
0.000338388
0.000325747
0.000451952
0.000562966
0.000711437
0.000914497
0.00109846
0.00115939
0.0010365
0.000749718
0.000482905
0.000373811
0.000339324
0.000333279
0.000338089
0.000346722
0.000355205
0.000361674
0.000365924
0.000370372
0.000377051
0.000382768
0.000387804
0.000390184
0.000385865
0.000370089
0.000339327
0.00029425
0.000242713
0.000199588
0.000177604
0.000173567
0.000187925
0.00022143
0.00027417
0.000340133
0.000402474
0.000452764
0.00040559
0.000307009
0.00252972
0.00286527
0.00304059
0.00284339
0.00249179
0.00206251
0.00161368
0.00122065
0.000960071
0.000837309
0.000795672
0.000791185
0.000804442
0.000828664
0.000860232
0.000894409
0.000926978
0.000954755
0.000975529
0.000991647
0.00100866
0.00102615
0.00103725
0.00103007
0.00099067
0.000910246
0.000794338
0.000666509
0.000542308
0.000440825
0.000370706
0.000334485
0.000327398
0.000337962
0.00035837
0.000727838
0.000522277
0.000731896
0.00083265
0.000944406
0.00155572
0.00154626
0.00139957
0.00123869
0.00113252
0.00103269
0.00091409
0.000794335
0.000701242
0.000647395
0.00062182
0.000612129
0.000610488
0.000611712
0.000612365
0.000610795
0.000606728
0.000600863
0.000594859
0.000590924
0.000586187
0.000577675
0.000562039
0.000536382
0.000500389
0.000458263
0.00041824
0.000381824
0.000352961
0.000332328
0.000320524
0.000317449
0.000321252
0.000325787
0.00031494
0.000305006
0.00028489
)
;

boundaryField
{
    floor
    {
        Cmu             0.09;
        kappa           0.41;
        E               9.8;
        type            epsilonWallFunction;
        value           nonuniform List<scalar> 
29
(
8.03647e-05
2.04811e-05
6.06013e-05
6.72297e-05
7.04257e-05
6.9368e-05
6.44239e-05
5.50006e-05
4.57781e-05
3.81594e-05
3.20612e-05
2.71761e-05
2.32679e-05
2.00782e-05
1.74093e-05
1.50951e-05
1.29779e-05
1.08858e-05
8.11144e-06
5.75523e-06
5.75523e-06
1.01273e-05
1.30476e-05
1.83279e-05
8.03647e-05
2.04811e-05
7.10376e-05
9.31663e-05
0.000187918
)
;
    }
    ceiling
    {
        Cmu             0.09;
        kappa           0.41;
        E               9.8;
        type            epsilonWallFunction;
        value           nonuniform List<scalar> 
43
(
0.000731896
0.00083265
0.000944406
0.00155572
0.00154626
0.00139957
0.00123869
0.00113252
0.00103269
0.00091409
0.000794335
0.000701242
0.000647395
0.00062182
0.000612129
0.000610488
0.000611712
0.000612365
0.000610795
0.000606728
0.000600863
0.000594859
0.000590924
0.000586187
0.000577675
0.000562039
0.000536382
0.000500389
0.000458263
0.00041824
0.000381824
0.000352961
0.000332328
0.000320524
0.000317449
0.000321252
0.000325787
0.00031494
0.000305006
0.00028489
0.00125001
0.00212144
0.000307009
)
;
    }
    sWall
    {
        Cmu             0.09;
        kappa           0.41;
        E               9.8;
        type            epsilonWallFunction;
        value           uniform 0.000731896;
    }
    nWall
    {
        Cmu             0.09;
        kappa           0.41;
        E               9.8;
        type            epsilonWallFunction;
        value           nonuniform List<scalar> 6(3.10746e-05 7.58502e-05 0.000130604 0.00040559 0.000522277 0.00028489);
    }
    sideWalls
    {
        type            empty;
    }
    glass1
    {
        Cmu             0.09;
        kappa           0.41;
        E               9.8;
        type            epsilonWallFunction;
        value           nonuniform List<scalar> 9(9.15012e-05 0.000181536 0.000292006 0.000431991 0.000617788 0.000877059 0.00119599 0.0013028 0.00125001);
    }
    glass2
    {
        Cmu             0.09;
        kappa           0.41;
        E               9.8;
        type            epsilonWallFunction;
        value           nonuniform List<scalar> 2(0.00030066 0.000338388);
    }
    sun
    {
        Cmu             0.09;
        kappa           0.41;
        E               9.8;
        type            epsilonWallFunction;
        value           nonuniform List<scalar> 
14
(
9.15012e-05
0.000126107
0.000145138
0.000171661
0.000199811
0.00023151
0.000267736
0.000302607
0.000330708
0.000344156
0.000333621
0.000258555
0.000188617
0.000123982
)
;
    }
    heatsource1
    {
        Cmu             0.09;
        kappa           0.41;
        E               9.8;
        type            epsilonWallFunction;
        value           nonuniform List<scalar> 3(2.79238e-05 2.90905e-05 3.10746e-05);
    }
    heatsource2
    {
        Cmu             0.09;
        kappa           0.41;
        E               9.8;
        type            epsilonWallFunction;
        value           nonuniform List<scalar> 4(0.000139562 7.45245e-05 7.45245e-05 0.000126317);
    }
    Table_master
    {
        Cmu             0.09;
        kappa           0.41;
        E               9.8;
        type            epsilonWallFunction;
        value           nonuniform List<scalar> 9(0.000132776 8.98798e-05 6.31346e-05 4.61133e-05 3.49223e-05 2.73506e-05 2.21059e-05 1.84517e-05 1.60398e-05);
    }
    Table_slave
    {
        Cmu             0.09;
        kappa           0.41;
        E               9.8;
        type            epsilonWallFunction;
        value           nonuniform List<scalar> 9(0.000173712 0.000132416 0.000108815 9.38306e-05 8.29128e-05 7.33464e-05 6.43105e-05 5.566e-05 4.64517e-05);
    }
    inlet
    {
        type            turbulentMixingLengthDissipationRateInlet;
        mixingLength    0.01;
        phi             phi;
        k               k;
        value           uniform 0.000101881;
    }
    outlet
    {
        type            zeroGradient;
    }
}


// ************************************************************************* //
