/*--------------------------------*- C++ -*----------------------------------*\
  =========                 |
  \\      /  F ield         | OpenFOAM: The Open Source CFD Toolbox
   \\    /   O peration     | Website:  https://openfoam.org
    \\  /    A nd           | Version:  6
     \\/     M anipulation  |
\*---------------------------------------------------------------------------*/
FoamFile
{
    version     2.0;
    format      ascii;
    class       volScalarField;
    location    "580";
    object      nut;
}
// * * * * * * * * * * * * * * * * * * * * * * * * * * * * * * * * * * * * * //

dimensions      [0 2 -1 0 0 0 0];

internalField   nonuniform List<scalar> 
459
(
0.000637061
0.000708953
0.000742959
0.000785707
0.000826501
0.000868079
0.000911182
0.000949137
0.000977653
0.000990732
0.000980526
0.000900659
0.00081078
0.000704951
0.000610089
0.000386803
0.000555316
0.000574856
0.000583822
0.000580885
0.000566743
0.000537642
0.000505736
0.000475962
0.000449123
0.000425045
0.000403607
0.00038425
0.000366409
0.000349397
0.000332232
0.000313324
0.000284057
0.000253354
0.000800501
0.00198704
0.00196847
0.00228889
0.00263226
0.00294792
0.00320116
0.00346901
0.00373798
0.00398219
0.0041576
0.00417449
0.0039045
0.00324343
0.00211748
0.000733327
0.000594937
0.000585513
0.00191354
0.00198951
0.00225938
0.00241936
0.00232562
0.00168185
0.00141264
0.00123728
0.00110852
0.00100875
0.000923116
0.000845558
0.000770822
0.000695583
0.000629004
0.000589171
0.000480794
0.000305871
0.000937934
0.00271043
0.00250426
0.00285211
0.00306511
0.0032256
0.00337339
0.00358327
0.00387798
0.00425712
0.00465065
0.00492818
0.00491312
0.00460524
0.00376276
0.00236497
0.000709354
0.000640911
0.00164628
0.0023079
0.00284598
0.00314638
0.00284636
0.000721236
0.000633274
0.000562939
0.000506969
0.000462105
0.000425953
0.000396774
0.000373582
0.000356539
0.000404826
0.000496887
0.000518947
0.000332827
0.00106873
0.00325531
0.00257003
0.0029162
0.00294794
0.00294722
0.00300787
0.00316606
0.00348045
0.00396992
0.00450659
0.00491112
0.00508432
0.00502947
0.00462123
0.00369349
0.00195267
0.00080978
0.00125763
0.00201306
0.0028885
0.00356511
0.00389086
0.00344888
0.000788824
0.000720582
0.000674944
0.000642423
0.000616474
0.000591791
0.000566417
0.00053979
0.000508213
0.000480089
0.000498858
0.000578691
0.000372745
0.00120408
0.00391638
0.00262076
0.0028674
0.00282474
0.00273301
0.00274421
0.00286566
0.00319894
0.00377112
0.00435156
0.00478877
0.00501793
0.00507242
0.00494565
0.00452857
0.00377629
0.00347841
0.00385045
0.00431487
0.00468874
0.00488921
0.00489464
0.00462504
0.00375181
0.00337483
0.00318588
0.00306713
0.00296098
0.0028284
0.00259788
0.00225504
0.00182467
0.00137475
0.00102535
0.000885955
0.000613672
0.000428912
0.000434805
0.000444476
0.00135328
0.00472052
0.00317595
0.00285841
0.00289331
0.00274868
0.00268878
0.00277166
0.00312253
0.00371005
0.00433104
0.00478182
0.00500078
0.00507326
0.00511203
0.00511918
0.0050975
0.00533096
0.00562662
0.00579683
0.00580917
0.00567417
0.00542619
0.00509556
0.00470078
0.00441656
0.00422384
0.00407546
0.00393663
0.00377894
0.00357091
0.0032536
0.00282663
0.00231681
0.00181381
0.0014596
0.00112436
0.000886534
0.00099892
0.000598458
0.00150068
0.00536379
0.00430107
0.00331898
0.00318359
0.00297001
0.00276671
0.0027963
0.00317378
0.00381915
0.00448629
0.00494508
0.00514617
0.0052335
0.00541147
0.0056897
0.00596813
0.00626104
0.00640241
0.00634196
0.00611122
0.0057601
0.00534972
0.00494329
0.00460097
0.00436557
0.00420657
0.00408263
0.00396436
0.0038287
0.00366422
0.00347522
0.00321633
0.00285738
0.00243895
0.00205364
0.00168188
0.0013797
0.00132386
0.000717299
0.00154409
0.0050435
0.0043756
0.00388521
0.00353167
0.00305025
0.00275221
0.00284127
0.0033526
0.00411474
0.0048277
0.00526998
0.00544935
0.00555715
0.00577048
0.00598489
0.00618555
0.00633206
0.00630318
0.00606962
0.00568891
0.0052372
0.004795
0.00442387
0.00415316
0.00397044
0.0038383
0.00372777
0.00361964
0.00349657
0.00335624
0.00323229
0.00315976
0.00304
0.00282523
0.00261541
0.00240209
0.00206379
0.00223395
0.000947126
0.00152294
0.00181659
0.00200476
0.00206455
0.0020483
0.00206159
0.00228808
0.00286907
0.00375198
0.00467914
0.00535948
0.00568225
0.00577987
0.00573524
0.00564909
0.00564104
0.0056885
0.00568468
0.00555441
0.0052852
0.004934
0.00457731
0.00427225
0.00403364
0.00384922
0.0036942
0.00354637
0.00339436
0.00323083
0.00303852
0.00279812
0.00253345
0.00229935
0.00212036
0.00197123
0.00183312
0.00170642
0.00159144
0.0015096
0.000985189
0.000494832
0.000871599
0.00132103
0.00199397
0.00294054
0.00403398
0.00502653
0.00567879
0.00591019
0.00582866
0.0055443
0.00530851
0.00519449
0.00515698
0.00513201
0.00507001
0.00495707
0.00480936
0.00464674
0.00448502
0.00434083
0.00420948
0.00407756
0.00392722
0.00374236
0.00351415
0.00324579
0.00295351
0.00265602
0.00236378
0.00211874
0.00193885
0.00181928
0.00173975
0.00166822
0.00157648
0.00147921
0.0010465
0.000953695
0.00302505
0.00435926
0.00550573
0.00612102
0.00645705
0.00655317
0.0064077
0.00604578
0.00561256
0.00529493
0.00512588
0.0050575
0.00503825
0.00503653
0.00503649
0.00503127
0.00501929
0.00499916
0.00496585
0.00491595
0.00486595
0.00481703
0.00475557
0.00465877
0.00449975
0.00425721
0.00392976
0.00355863
0.0031686
0.00280025
0.00248153
0.00222959
0.00204202
0.00189505
0.00178317
0.0022537
0.00113853
0.00127402
0.00132998
0.001387
0.00163807
0.00163476
0.00158135
0.00151829
0.00147362
0.00142899
0.00137206
0.00130932
0.00125603
0.00122302
0.00120669
0.00120039
0.00119931
0.00120011
0.00120054
0.00119951
0.00119684
0.00119297
0.00118899
0.00118636
0.00118318
0.00117743
0.00116671
0.00114867
0.00112238
0.00108995
0.00105725
0.00102563
0.000999109
0.000979251
0.00096752
0.000964419
0.000968258
0.000972796
0.000961879
0.000951654
0.000930254
)
;

boundaryField
{
    floor
    {
        type            nutkWallFunction;
        Cmu             0.09;
        kappa           0.41;
        E               9.8;
        value           nonuniform List<scalar> 
29
(
7.36272e-05
4.50726e-05
6.67624e-05
6.92206e-05
7.0345e-05
6.99768e-05
6.82015e-05
6.4531e-05
6.04787e-05
5.66685e-05
5.32086e-05
5.00825e-05
4.72805e-05
4.47343e-05
4.2373e-05
4.01076e-05
3.78076e-05
3.5256e-05
3.12664e-05
2.70224e-05
2.70223e-05
3.42444e-05
3.78867e-05
4.32119e-05
7.36272e-05
4.50725e-05
7.05565e-05
7.74547e-05
9.80716e-05
)
;
    }
    ceiling
    {
        type            nutkWallFunction;
        Cmu             0.09;
        kappa           0.41;
        E               9.8;
        value           nonuniform List<scalar> 
43
(
0.000152456
0.000158841
0.000165317
0.000193502
0.000193137
0.000187185
0.000180127
0.000175109
0.000170077
0.000163632
0.000156496
0.000150405
0.000146617
0.00014474
0.000144014
0.000143891
0.000143983
0.000144032
0.000143914
0.000143606
0.000143161
0.000142701
0.000142398
0.000142031
0.000141367
0.000140129
0.000138044
0.000134997
0.000131228
0.000127414
0.000123713
0.000120599
0.000118261
0.000116877
0.000116511
0.000116964
0.000117499
0.000116211
0.000115003
0.000112469
0.000180648
0.000213256
0.00011524
)
;
    }
    sWall
    {
        type            nutkWallFunction;
        Cmu             0.09;
        kappa           0.41;
        E               9.8;
        value           uniform 0.000152465;
    }
    nWall
    {
        type            nutkWallFunction;
        Cmu             0.09;
        kappa           0.41;
        E               9.8;
        value           nonuniform List<scalar> 6(5.2591e-05 7.21672e-05 8.68492e-05 0.000126162 0.000136875 0.000112472);
    }
    sideWalls
    {
        type            empty;
    }
    glass1
    {
        type            nutkWallFunction;
        Cmu             0.09;
        kappa           0.41;
        E               9.8;
        value           nonuniform List<scalar> 9(7.69666e-05 9.69556e-05 0.000113389 0.00012877 0.000144462 0.000161531 0.000178189 0.00018306 0.00018069);
    }
    glass2
    {
        type            nutkWallFunction;
        Cmu             0.09;
        kappa           0.41;
        E               9.8;
        value           nonuniform List<scalar> 2(0.000114477 0.000118973);
    }
    sun
    {
        type            nutkWallFunction;
        Cmu             0.09;
        kappa           0.41;
        E               9.8;
        value           nonuniform List<scalar> 
14
(
7.6979e-05
8.58325e-05
8.99823e-05
9.51675e-05
0.000100085
0.000105067
0.000110203
0.000114703
0.00011807
0.00011961
0.000118407
0.000108951
9.81923e-05
8.53422e-05
)
;
    }
    heatsource1
    {
        type            nutkWallFunction;
        Cmu             0.09;
        kappa           0.41;
        E               9.8;
        value           nonuniform List<scalar> 3(5.0579e-05 5.13452e-05 5.25994e-05);
    }
    heatsource2
    {
        type            nutkWallFunction;
        Cmu             0.09;
        kappa           0.41;
        E               9.8;
        value           nonuniform List<scalar> 4(8.88082e-05 7.17344e-05 7.17344e-05 8.58801e-05);
    }
    Table_master
    {
        type            nutkWallFunction;
        Cmu             0.09;
        kappa           0.41;
        E               9.8;
        value           nonuniform List<scalar> 9(8.73332e-05 7.65069e-05 6.77196e-05 6.06314e-05 5.48799e-05 5.01946e-05 4.63764e-05 4.33163e-05 4.1052e-05);
    }
    Table_slave
    {
        type            nutkWallFunction;
        Cmu             0.09;
        kappa           0.41;
        E               9.8;
        value           nonuniform List<scalar> 9(9.55446e-05 8.72531e-05 8.1656e-05 7.76401e-05 7.44181e-05 7.13381e-05 6.81556e-05 6.47971e-05 6.07877e-05);
    }
    inlet
    {
        type            calculated;
        value           uniform 0.000100623;
    }
    outlet
    {
        type            calculated;
        value           nonuniform List<scalar> 2(0.00127402 0.00132998);
    }
}


// ************************************************************************* //
