/*--------------------------------*- C++ -*----------------------------------*\
  =========                 |
  \\      /  F ield         | OpenFOAM: The Open Source CFD Toolbox
   \\    /   O peration     | Website:  https://openfoam.org
    \\  /    A nd           | Version:  6
     \\/     M anipulation  |
\*---------------------------------------------------------------------------*/
FoamFile
{
    version     2.0;
    format      ascii;
    class       volScalarField;
    location    "640";
    object      epsilon;
}
// * * * * * * * * * * * * * * * * * * * * * * * * * * * * * * * * * * * * * //

dimensions      [0 2 -3 0 0 0 0];

internalField   nonuniform List<scalar> 
459
(
0.000159496
0.000214276
0.000238724
0.000279324
0.000321603
0.000367414
0.000421083
0.000472325
0.000513321
0.000533182
0.000521173
0.000469514
0.000324347
0.000197154
0.000120069
2.69845e-05
8.18428e-05
9.12743e-05
9.50072e-05
9.37165e-05
8.75907e-05
7.51871e-05
6.27954e-05
5.24721e-05
4.41641e-05
3.75006e-05
3.21434e-05
2.77535e-05
2.40706e-05
2.08746e-05
1.79522e-05
1.50565e-05
1.12265e-05
7.73166e-06
0.00034951
0.000456977
0.000196042
0.000195945
0.000207336
0.000228688
0.000263676
0.000305844
0.000344452
0.00036595
0.00036014
0.000326484
0.000259822
0.000199115
0.000141481
0.00023081
0.00010973
9.19246e-05
0.000176555
0.000105413
8.61927e-05
7.54626e-05
6.85954e-05
6.95155e-05
5.85013e-05
4.77251e-05
3.88003e-05
3.16569e-05
2.60542e-05
2.16333e-05
1.81436e-05
1.55979e-05
1.43877e-05
1.54019e-05
1.23606e-05
1.35849e-05
0.000593063
0.000972412
0.000209768
0.000175903
0.000186376
0.000213207
0.000255358
0.000306067
0.000351151
0.000379062
0.000380749
0.000353684
0.000297994
0.000241076
0.00018622
0.000170562
0.000216582
0.000149103
0.000132971
0.00010923
9.33392e-05
8.16667e-05
7.90145e-05
0.000184309
0.000125877
8.90786e-05
6.54707e-05
4.98472e-05
3.92287e-05
3.18263e-05
2.66284e-05
2.31609e-05
1.83702e-05
1.74336e-05
1.48974e-05
1.74635e-05
0.00091164
0.00189539
0.000277587
0.000166266
0.000173324
0.000206672
0.000262744
0.000324602
0.00037386
0.000406824
0.000413999
0.000385814
0.00033135
0.000272825
0.000224163
0.000192068
0.000184457
0.000336662
0.000220616
0.00015945
0.000126555
0.000105995
9.20174e-05
8.97196e-05
0.000241547
0.000186935
0.000156596
0.000137842
0.000124304
0.000112136
9.956e-05
8.74601e-05
7.43222e-05
4.54034e-05
3.06325e-05
2.57847e-05
2.50782e-05
0.00134068
0.00334839
0.000474845
0.000172368
0.000164292
0.000209539
0.000304893
0.000378915
0.000428055
0.000462739
0.000468339
0.000431348
0.000362152
0.000285859
0.000224569
0.000186116
0.000170956
0.000170826
0.000159133
0.0001461
0.000132225
0.000117907
0.000104297
9.37435e-05
9.54269e-05
9.25064e-05
8.9781e-05
8.6923e-05
8.32293e-05
7.799e-05
7.09265e-05
6.34142e-05
5.61645e-05
4.61797e-05
3.6073e-05
3.39499e-05
2.8653e-05
4.009e-05
4.25767e-05
5.05759e-05
0.00193917
0.00511215
0.00102556
0.000262498
0.000192678
0.000248789
0.000422055
0.000487268
0.000525988
0.000554526
0.000552798
0.000499394
0.000404102
0.00030017
0.000218801
0.000171528
0.000155764
0.000157096
0.000159694
0.000156265
0.000147029
0.000134216
0.000120508
0.000108735
0.000102908
0.000101779
0.000102189
0.000101838
9.98253e-05
9.55086e-05
8.81294e-05
7.71043e-05
6.5681e-05
5.49591e-05
4.50041e-05
4.02201e-05
3.67892e-05
4.0618e-05
0.000170787
0.00012404
0.00268921
0.00634247
0.00230691
0.000814238
0.0005348
0.000606068
0.000663736
0.000670992
0.00067989
0.000694171
0.000676243
0.000593979
0.000462077
0.000324381
0.000222832
0.000170087
0.000157742
0.000165571
0.000173692
0.00017341
0.000165578
0.000153877
0.000141992
0.000132966
0.000129257
0.000129873
0.000131192
0.000131341
0.000130349
0.000128557
0.00012534
0.000117905
0.000104887
9.28196e-05
8.39476e-05
7.95153e-05
7.90202e-05
8.8349e-05
0.000257303
0.000209589
0.0029317
0.00806721
0.00419381
0.00251252
0.00173248
0.00134642
0.00108899
0.000948963
0.000903043
0.000894748
0.000846296
0.000713884
0.000529712
0.000352474
0.000237255
0.000187378
0.000181336
0.000191755
0.000199713
0.000199356
0.000193207
0.000185599
0.000179675
0.000176703
0.000176413
0.000176913
0.000175968
0.000173395
0.000171338
0.000173002
0.000180685
0.000194415
0.000208565
0.00022269
0.000254683
0.000311117
0.000409018
0.00051087
0.00176877
0.000513374
0.00278847
0.0048184
0.00364093
0.00270681
0.00205814
0.00160266
0.00131268
0.00118574
0.00117243
0.00116661
0.00106242
0.000835806
0.000581334
0.000370772
0.000279087
0.000249852
0.00024865
0.000255051
0.000260665
0.00026297
0.000263248
0.000263909
0.000266202
0.00026907
0.000270191
0.000266858
0.000257347
0.000242815
0.000228112
0.000220503
0.000226185
0.000247364
0.00028435
0.000338499
0.000416676
0.000527223
0.000669859
0.000835043
0.00101073
0.000555118
0.000868925
0.00112776
0.00122598
0.00128218
0.00140885
0.00155789
0.00165046
0.00156897
0.00127797
0.000853682
0.000586475
0.000477954
0.000448722
0.000447798
0.000456261
0.00046648
0.000474401
0.000482588
0.00049093
0.000499218
0.000508454
0.000515756
0.000516252
0.00050404
0.000474035
0.000425078
0.000363134
0.000302138
0.000260377
0.000249379
0.000262764
0.000300323
0.000363493
0.000452868
0.000557576
0.000648107
0.0007082
0.000564062
0.000556526
0.00220525
0.00267053
0.00301582
0.0031167
0.00304303
0.00287995
0.00247559
0.00194698
0.00148198
0.00120935
0.00108564
0.00104962
0.00105655
0.00108462
0.00112252
0.00116152
0.00119363
0.00121731
0.00123791
0.00126252
0.00128896
0.00130941
0.00131037
0.00127486
0.00118931
0.00105403
0.000889445
0.000731866
0.000599629
0.00050801
0.000459404
0.000451847
0.000476974
0.000517843
0.000561619
0.000974192
0.000689541
0.000763183
0.00086914
0.000971225
0.00147043
0.00148902
0.00136752
0.00127424
0.00131107
0.00129981
0.00121099
0.00108695
0.000958663
0.000861311
0.000807426
0.000782468
0.000772168
0.000767508
0.00076299
0.000756124
0.000747877
0.000741318
0.00073773
0.000732914
0.000723679
0.000705697
0.000675075
0.000630612
0.000575975
0.00052012
0.000474891
0.000441231
0.000421222
0.000413505
0.000417728
0.000433386
0.000457819
0.000482026
0.000470154
0.000423978
0.000380682
)
;

boundaryField
{
    floor
    {
        Cmu             0.09;
        kappa           0.41;
        E               9.8;
        type            epsilonWallFunction;
        value           nonuniform List<scalar> 
29
(
0.000120069
2.69845e-05
8.18428e-05
9.12743e-05
9.50072e-05
9.37165e-05
8.75907e-05
7.51871e-05
6.27954e-05
5.24721e-05
4.41641e-05
3.75006e-05
3.21434e-05
2.77535e-05
2.40706e-05
2.08746e-05
1.79522e-05
1.50565e-05
1.12265e-05
7.73166e-06
7.73166e-06
1.35849e-05
1.74635e-05
2.50782e-05
0.000120069
2.69845e-05
9.19246e-05
0.000149103
0.000336662
)
;
    }
    ceiling
    {
        Cmu             0.09;
        kappa           0.41;
        E               9.8;
        type            epsilonWallFunction;
        value           nonuniform List<scalar> 
43
(
0.000763183
0.00086914
0.000971225
0.00147043
0.00148902
0.00136752
0.00127424
0.00131107
0.00129981
0.00121099
0.00108695
0.000958663
0.000861311
0.000807426
0.000782468
0.000772168
0.000767508
0.00076299
0.000756124
0.000747877
0.000741318
0.00073773
0.000732914
0.000723679
0.000705697
0.000675075
0.000630612
0.000575975
0.00052012
0.000474891
0.000441231
0.000421222
0.000413505
0.000417728
0.000433386
0.000457819
0.000482026
0.000470154
0.000423978
0.000380682
0.00278847
0.0048184
0.000556526
)
;
    }
    sWall
    {
        Cmu             0.09;
        kappa           0.41;
        E               9.8;
        type            epsilonWallFunction;
        value           uniform 0.000763183;
    }
    nWall
    {
        Cmu             0.09;
        kappa           0.41;
        E               9.8;
        type            epsilonWallFunction;
        value           nonuniform List<scalar> 6(5.05759e-05 0.00012404 0.000209589 0.000564062 0.000689541 0.000380682);
    }
    sideWalls
    {
        type            empty;
    }
    glass1
    {
        Cmu             0.09;
        kappa           0.41;
        E               9.8;
        type            epsilonWallFunction;
        value           nonuniform List<scalar> 9(0.000159496 0.00034951 0.000593063 0.00091164 0.00134068 0.00193917 0.00268921 0.0029317 0.00278847);
    }
    glass2
    {
        Cmu             0.09;
        kappa           0.41;
        E               9.8;
        type            epsilonWallFunction;
        value           nonuniform List<scalar> 2(0.000513374 0.000555118);
    }
    sun
    {
        Cmu             0.09;
        kappa           0.41;
        E               9.8;
        type            epsilonWallFunction;
        value           nonuniform List<scalar> 
14
(
0.000159496
0.000214276
0.000238724
0.000279324
0.000321603
0.000367414
0.000421083
0.000472325
0.000513321
0.000533182
0.000521173
0.000469514
0.000324347
0.000197154
)
;
    }
    heatsource1
    {
        Cmu             0.09;
        kappa           0.41;
        E               9.8;
        type            epsilonWallFunction;
        value           nonuniform List<scalar> 3(4.009e-05 4.25767e-05 5.05759e-05);
    }
    heatsource2
    {
        Cmu             0.09;
        kappa           0.41;
        E               9.8;
        type            epsilonWallFunction;
        value           nonuniform List<scalar> 4(0.00023081 0.00010973 0.00010973 0.000216582);
    }
    Table_master
    {
        Cmu             0.09;
        kappa           0.41;
        E               9.8;
        type            epsilonWallFunction;
        value           nonuniform List<scalar> 9(0.000184309 0.000125877 8.90786e-05 6.54707e-05 4.98472e-05 3.92287e-05 3.18263e-05 2.66284e-05 2.31609e-05);
    }
    Table_slave
    {
        Cmu             0.09;
        kappa           0.41;
        E               9.8;
        type            epsilonWallFunction;
        value           nonuniform List<scalar> 9(0.000241547 0.000186935 0.000156596 0.000137842 0.000124304 0.000112136 9.956e-05 8.74601e-05 7.43222e-05);
    }
    inlet
    {
        type            turbulentMixingLengthDissipationRateInlet;
        mixingLength    0.01;
        phi             phi;
        k               k;
        value           uniform 0.000101881;
    }
    outlet
    {
        type            zeroGradient;
    }
}


// ************************************************************************* //
