/*--------------------------------*- C++ -*----------------------------------*\
  =========                 |
  \\      /  F ield         | OpenFOAM: The Open Source CFD Toolbox
   \\    /   O peration     | Website:  https://openfoam.org
    \\  /    A nd           | Version:  6
     \\/     M anipulation  |
\*---------------------------------------------------------------------------*/
FoamFile
{
    version     2.0;
    format      ascii;
    class       volScalarField;
    location    "300";
    object      epsilon;
}
// * * * * * * * * * * * * * * * * * * * * * * * * * * * * * * * * * * * * * //

dimensions      [0 2 -3 0 0 0 0];

internalField   nonuniform List<scalar> 
459
(
0.000143211
0.000158259
0.000137563
0.000153789
0.00017066
0.000187005
0.000202873
0.000218625
0.000234899
0.000252105
0.000266597
0.00027675
0.000281323
0.000280201
0.000272053
4.75253e-05
8.58933e-05
7.48273e-05
7.72343e-05
8.54866e-05
7.48237e-05
5.03693e-05
3.36216e-05
1.84399e-05
4.91669e-06
2.67681e-06
3.16131e-06
4.15026e-06
4.45126e-06
4.43618e-06
5.26655e-06
1.02389e-05
1.64058e-05
1.27776e-05
0.000620876
0.00141601
0.000152683
0.000118014
0.000120299
0.000125246
0.000131677
0.000140619
0.000153253
0.000170291
0.000189516
0.000209252
0.00022676
0.000239276
0.000253999
0.000330532
9.87039e-05
0.000104336
0.000169529
7.90416e-05
6.79813e-05
6.87114e-05
6.53403e-05
4.91686e-05
3.18133e-05
1.98457e-05
1.36393e-05
1.11702e-05
1.04338e-05
9.76658e-06
8.66553e-06
7.264e-06
7.93009e-06
2.41654e-05
7.6479e-05
4.25501e-05
0.00151442
0.00467099
0.000311866
0.000126867
0.000119808
0.000124917
0.000133104
0.00014456
0.000159687
0.000178401
0.000198491
0.000217146
0.000232285
0.000244581
0.000261329
0.000302928
0.000414449
0.000221852
0.000226308
0.000107302
8.33847e-05
7.65748e-05
7.64956e-05
8.69948e-05
4.35424e-05
2.80284e-05
2.09667e-05
1.70385e-05
1.44714e-05
1.25003e-05
1.08519e-05
9.55879e-06
1.57573e-05
7.00354e-05
0.000414437
6.51888e-05
0.00297146
0.0105428
0.000719571
0.000153958
0.000127987
0.000134799
0.000146125
0.000160788
0.000179142
0.00020131
0.000224304
0.000242396
0.000253702
0.000261578
0.000274849
0.000310322
0.000398589
0.000564249
0.000311364
0.000161712
0.000113332
8.97063e-05
8.08928e-05
8.79304e-05
0.000157599
0.000135265
0.000131123
0.000134092
0.000140035
0.000144723
0.000143028
0.00013029
0.000116246
8.56115e-05
9.4909e-05
0.000640359
0.0001375
0.0050571
0.0187422
0.00163628
0.000213399
0.00013949
0.000146702
0.000163744
0.000186467
0.00021515
0.000249623
0.000283868
0.00030576
0.000313344
0.00031109
0.000303919
0.000295196
0.000286791
0.000264272
0.000189584
0.000133818
0.000104301
9.34908e-05
8.96867e-05
9.46179e-05
9.87887e-05
9.1103e-05
9.18393e-05
9.80447e-05
0.00010681
0.000114452
0.000116401
0.000109171
9.86142e-05
8.85818e-05
9.13457e-05
0.000269385
0.000343446
0.000266596
0.000211944
0.000338121
0.00784688
0.0266841
0.00363052
0.000419485
0.000183273
0.000171481
0.000189414
0.000220993
0.000266379
0.000328255
0.000382401
0.0004069
0.000406954
0.00039339
0.000372125
0.000341635
0.00029601
0.000234959
0.000171518
0.00012655
0.000106522
0.000103393
0.00010159
0.000109836
0.000108102
0.000101718
0.000106435
0.000119545
0.000137869
0.000157158
0.000171135
0.0001716
0.000149048
0.000125207
0.000112103
0.000159773
0.000207621
0.00020309
0.000421624
0.000445558
0.0113603
0.0306576
0.00814657
0.00173563
0.000605416
0.000362847
0.000315132
0.000329222
0.000379555
0.000486181
0.000545726
0.000549674
0.000522895
0.000484373
0.000442031
0.00039361
0.000331795
0.000257877
0.000189009
0.000143975
0.000126524
0.000123802
0.00011697
0.000132931
0.000132502
0.000125962
0.000132803
0.000152664
0.000182492
0.000218941
0.000256769
0.00028689
0.00029077
0.000253176
0.000231093
0.000259099
0.000330321
0.00042264
0.000757801
0.000784172
0.0123484
0.0382736
0.0181108
0.00973395
0.00478886
0.00230729
0.00132639
0.000979077
0.000881619
0.000876762
0.000822168
0.00074153
0.000655827
0.000575482
0.000503084
0.000435435
0.000365362
0.000289764
0.000222153
0.000180492
0.000165706
0.000158663
0.00013756
0.000167192
0.000174727
0.000168467
0.000175439
0.000199392
0.000239084
0.000294105
0.000365268
0.000452916
0.000555412
0.000647209
0.000771931
0.00115533
0.0019241
0.00274671
0.00663077
0.00188164
0.0114694
0.0200037
0.0158029
0.011605
0.00813651
0.00544577
0.0036381
0.00253399
0.00189546
0.00145755
0.00115084
0.0009309
0.000768112
0.000642946
0.00054278
0.00045926
0.000386349
0.000321433
0.000268992
0.000238501
0.000230357
0.000213679
0.000165334
0.000215541
0.000244128
0.000238353
0.000239077
0.000260213
0.000300764
0.000362482
0.000452246
0.000578899
0.000749457
0.000967734
0.00124255
0.00160181
0.00197519
0.00226716
0.0025331
0.0014871
0.00641045
0.00824174
0.00657729
0.00490423
0.00358569
0.00263982
0.00198925
0.00153597
0.00121411
0.000979899
0.00080404
0.000667724
0.000559674
0.000473684
0.000406678
0.000357696
0.000328477
0.000323865
0.000332303
0.000293718
0.000202067
0.000280938
0.000369205
0.000367251
0.000349327
0.000357012
0.000381075
0.00041722
0.000471173
0.00055422
0.000680187
0.000855423
0.00106222
0.00126824
0.00139594
0.00136361
0.00117386
0.000750141
0.00464503
0.00736615
0.00587982
0.00437812
0.00330386
0.00250295
0.00190957
0.00147291
0.00115026
0.000908108
0.000725053
0.00058665
0.000483461
0.000409844
0.000363182
0.000343045
0.000349655
0.000379065
0.000408029
0.000379774
0.000247593
0.000366331
0.000505359
0.000514646
0.000490879
0.000475005
0.000468564
0.000474368
0.000502451
0.000565278
0.000677904
0.000841664
0.00104532
0.00126121
0.00141839
0.00151565
0.000964583
0.000787791
0.00312525
0.00361941
0.0040861
0.00484239
0.00411065
0.00315039
0.00252143
0.00203357
0.00164348
0.00133172
0.00108649
0.000900806
0.000752075
0.000629519
0.000527755
0.000444097
0.000377259
0.000326699
0.000292263
0.000273638
0.000266878
0.00025426
0.000233716
0.000286695
0.000332313
0.000335402
0.000332438
0.000338761
0.000353303
0.000378666
0.000421829
0.00049205
0.000588288
0.000717966
0.000878629
0.0010832
0.00115735
0.00106393
0.000839982
0.000650983
)
;

boundaryField
{
    floor
    {
        Cmu             0.09;
        kappa           0.41;
        E               9.8;
        type            epsilonWallFunction;
        value           nonuniform List<scalar> 
29
(
0.000272053
4.75253e-05
8.58933e-05
7.48273e-05
7.72343e-05
8.54866e-05
7.48237e-05
5.03693e-05
3.36216e-05
1.84399e-05
4.91669e-06
2.67681e-06
3.16131e-06
4.15026e-06
4.45126e-06
4.43618e-06
5.26655e-06
1.02389e-05
1.64058e-05
1.27776e-05
1.27776e-05
4.25501e-05
6.51888e-05
0.0001375
0.000272053
4.75253e-05
0.000104336
0.000221852
0.000564249
)
;
    }
    ceiling
    {
        Cmu             0.09;
        kappa           0.41;
        E               9.8;
        type            epsilonWallFunction;
        value           nonuniform List<scalar> 
43
(
0.00312525
0.00361941
0.0040861
0.00484239
0.00411065
0.00315039
0.00252143
0.00203357
0.00164348
0.00133172
0.00108649
0.000900806
0.000752075
0.000629519
0.000527755
0.000444097
0.000377259
0.000326699
0.000292263
0.000273638
0.000266878
0.00025426
0.000233716
0.000286695
0.000332313
0.000335402
0.000332438
0.000338761
0.000353303
0.000378666
0.000421829
0.00049205
0.000588288
0.000717966
0.000878629
0.0010832
0.00115735
0.00106393
0.000839982
0.000650983
0.0114694
0.0200037
0.00464503
)
;
    }
    sWall
    {
        Cmu             0.09;
        kappa           0.41;
        E               9.8;
        type            epsilonWallFunction;
        value           uniform 0.00312525;
    }
    nWall
    {
        Cmu             0.09;
        kappa           0.41;
        E               9.8;
        type            epsilonWallFunction;
        value           nonuniform List<scalar> 6(0.000338121 0.000445558 0.000784172 0.000750141 0.000787791 0.000650983);
    }
    sideWalls
    {
        type            empty;
    }
    glass1
    {
        Cmu             0.09;
        kappa           0.41;
        E               9.8;
        type            epsilonWallFunction;
        value           nonuniform List<scalar> 9(0.000143211 0.000620876 0.00151442 0.00297146 0.0050571 0.00784688 0.0113603 0.0123484 0.0114694);
    }
    glass2
    {
        Cmu             0.09;
        kappa           0.41;
        E               9.8;
        type            epsilonWallFunction;
        value           nonuniform List<scalar> 2(0.00188164 0.0014871);
    }
    sun
    {
        Cmu             0.09;
        kappa           0.41;
        E               9.8;
        type            epsilonWallFunction;
        value           nonuniform List<scalar> 
14
(
0.000143211
0.000158259
0.000137563
0.000153789
0.00017066
0.000187005
0.000202873
0.000218625
0.000234899
0.000252105
0.000266597
0.00027675
0.000281323
0.000280201
)
;
    }
    heatsource1
    {
        Cmu             0.09;
        kappa           0.41;
        E               9.8;
        type            epsilonWallFunction;
        value           nonuniform List<scalar> 3(0.000266596 0.000211944 0.000338121);
    }
    heatsource2
    {
        Cmu             0.09;
        kappa           0.41;
        E               9.8;
        type            epsilonWallFunction;
        value           nonuniform List<scalar> 4(0.000330532 9.87039e-05 9.87039e-05 0.000414449);
    }
    Table_master
    {
        Cmu             0.09;
        kappa           0.41;
        E               9.8;
        type            epsilonWallFunction;
        value           nonuniform List<scalar> 9(8.69948e-05 4.35424e-05 2.80284e-05 2.09667e-05 1.70385e-05 1.44714e-05 1.25003e-05 1.08519e-05 9.55879e-06);
    }
    Table_slave
    {
        Cmu             0.09;
        kappa           0.41;
        E               9.8;
        type            epsilonWallFunction;
        value           nonuniform List<scalar> 9(0.000157599 0.000135265 0.000131123 0.000134092 0.000140035 0.000144723 0.000143028 0.00013029 0.000116246);
    }
    inlet
    {
        type            turbulentMixingLengthDissipationRateInlet;
        mixingLength    0.01;
        phi             phi;
        k               k;
        value           uniform 0.000101881;
    }
    outlet
    {
        type            zeroGradient;
    }
}


// ************************************************************************* //
