/*--------------------------------*- C++ -*----------------------------------*\
  =========                 |
  \\      /  F ield         | OpenFOAM: The Open Source CFD Toolbox
   \\    /   O peration     | Website:  https://openfoam.org
    \\  /    A nd           | Version:  6
     \\/     M anipulation  |
\*---------------------------------------------------------------------------*/
FoamFile
{
    version     2.0;
    format      ascii;
    class       surfaceScalarField;
    location    "390";
    object      phi;
}
// * * * * * * * * * * * * * * * * * * * * * * * * * * * * * * * * * * * * * //

dimensions      [1 0 -1 0 0 0 0];

internalField   nonuniform List<scalar> 
852
(
-0.00162278
0.00163439
-0.00240572
0.000782923
-0.00288815
0.000482424
-0.00310531
0.000217143
-0.00302849
-7.68291e-05
-0.00261598
-0.000412527
-0.0018652
-0.000750792
-0.000857151
-0.00100807
0.000220189
-0.00107736
0.00103755
-0.00081738
0.00157384
-0.000536305
0.00181405
-0.00024023
0.00173707
7.69585e-05
0.00125404
0.000483007
0.00125248
-0.000139245
0.000136677
-0.000243726
0.000104435
0.000100211
-0.000343979
0.000593818
-0.000493648
0.00101623
-0.000422456
0.00132368
-0.00030749
0.00149559
-0.000171949
0.00157396
-7.84101e-05
0.00161652
-4.26093e-05
0.00164354
-2.70633e-05
0.00165912
-1.56211e-05
0.00166375
-4.68105e-06
0.00165339
1.031e-05
0.00161481
3.85362e-05
0.00151694
9.78204e-05
0.00130571
0.000211179
0.000931671
0.000373986
0.000318552
0.000613066
0.000315057
-0.00122884
0.00289622
-0.00190478
0.00145885
-0.0023687
0.00094634
-0.00259133
0.000439758
-0.00253407
-0.000134102
-0.00216919
-0.000777414
-0.00152337
-0.00139662
-0.000713843
-0.00181761
8.90672e-05
-0.0018803
0.000773132
-0.00150147
0.00125147
-0.00101467
0.00152625
-0.000515032
0.00162001
-1.68242e-05
0.00162859
0.0004744
0.00193275
0.000948297
0.000975739
0.000956935
0.000975664
-5.65197e-05
0.000187233
0.000352232
-0.000304363
0.000721282
-0.000713068
0.00102664
-0.000799044
0.00129002
-0.000685875
0.00147916
-0.000496662
0.00152189
-0.000214725
0.00153108
-8.76403e-05
0.00154051
-5.20725e-05
0.00154851
-3.51136e-05
0.00155412
-2.12707e-05
0.00155742
-8.03245e-06
0.00155704
1.06405e-05
0.00154798
4.75514e-05
0.0014988
0.000146954
0.00130436
0.000405562
0.000974716
0.000703581
0.000551585
0.00103614
0.000857033
-0.000912141
0.00386096
-0.00145164
0.00199833
-0.00185628
0.00135097
-0.00206053
0.000644002
-0.00201358
-0.000181065
-0.00167908
-0.00111193
-0.00111372
-0.00196199
-0.000454029
-0.00247731
0.000156976
-0.00249133
0.000692399
-0.00203692
0.00109075
-0.00141304
0.00134237
-0.000766676
0.00148029
-0.000154776
0.00154578
0.000408882
0.00155658
0.000937478
0.00116392
0.00134957
0.00213956
0.000330313
-0.000152245
0.000933221
-0.000907307
0.00125189
-0.00103177
0.00141714
-0.000964329
0.00154021
-0.000808982
0.00168954
-0.000646033
0.00147494
0.00138741
0.00133545
0.00130045
0.00127929
0.00127137
0.00128212
0.00132977
0.00147683
0.00125897
0.000623372
0.00102023
0.000942274
0.000688417
0.0013679
0.00153016
-0.000666996
0.00459856
-0.00104635
0.00237767
-0.00132503
0.00162964
-0.00146885
0.00078782
-0.00138663
-0.000263294
-0.00105418
-0.00144439
-0.00057498
-0.00244119
-7.87909e-05
-0.00297351
0.000356872
-0.00292701
0.000737875
-0.00241795
0.00102472
-0.00169993
0.001211
-0.000952987
0.00132803
-0.000271839
0.00141712
0.000319767
0.00153311
0.000821464
0.00172612
0.00115653
0.00256932
0.00129634
0.00211052
0.000449795
0.00223191
-0.000273666
0.00198422
-0.000659637
0.00180902
-0.000856592
0.00168975
-0.000845094
0.00160088
-0.000720151
0.00147153
-0.000516713
0.00167592
-0.000204587
0.0017536
-7.78727e-05
0.00178386
-3.04651e-05
0.00178451
-8.41876e-07
0.0017549
2.94059e-05
0.0016894
6.53014e-05
0.00157442
0.000114771
0.0013837
0.000190516
0.0010652
0.000318296
0.00105826
0.000630258
0.00099863
0.00100185
0.00090419
0.00146228
0.00241415
-0.000483432
0.00516902
-0.000706733
0.00260096
-0.000773567
0.00169646
-0.000782925
0.000797168
-0.000578989
-0.000467238
-0.000235423
-0.00178796
0.000117603
-0.00279422
0.000412736
-0.00326866
0.000652912
-0.00316721
0.000851416
-0.00261649
0.000985827
-0.00183438
0.00106294
-0.00103013
0.00112137
-0.000330313
0.00121171
0.000229395
0.00138959
0.000643562
0.001673
0.000873089
0.00208371
0.000885605
0.0021818
0.000351678
0.00208244
-0.000174333
0.00191018
-0.000487404
0.00169279
-0.000639228
0.00149198
-0.00064432
0.00132107
-0.00054928
0.00119238
-0.000388064
0.00118103
-0.000193277
0.00117257
-6.94648e-05
0.00115341
-1.13562e-05
0.0011324
2.01233e-05
0.00111328
4.84729e-05
0.00108997
8.85617e-05
0.00105256
0.000152127
0.00099347
0.000249552
0.000924948
0.000386763
0.000947855
0.000607298
0.00109929
0.000850367
0.00158014
0.000981381
0.00263015
0.00136409
0.00169902
0.000930869
0.00105456
0.000644192
0.00108242
-0.000396632
0.00566747
-0.000464104
0.00266843
-0.000210584
0.00144293
8.07796e-05
0.000505793
0.000446358
-0.000832824
0.000749878
-0.00209148
0.000929462
-0.00297381
0.00100386
-0.00334306
0.00101288
-0.00317626
0.000978838
-0.0025825
0.000910284
-0.00176587
0.000832779
-0.000952677
0.000792597
-0.00029017
0.000835753
0.000186203
0.000984543
0.000494742
0.00122149
0.000636118
0.00152296
0.000584106
0.00163253
0.000242082
0.00155598
-9.78166e-05
0.00139354
-0.000324994
0.00118382
-0.000429543
0.000970189
-0.000430735
0.00078005
-0.000359187
0.000635285
-0.000243348
0.000558065
-0.000116109
0.000521808
-3.32608e-05
0.000507375
3.02216e-06
0.000511327
1.61148e-05
0.000531597
2.81461e-05
0.000564155
5.59458e-05
0.000604213
0.000112011
0.000651199
0.000202508
0.00071127
0.000326633
0.000831191
0.000487321
0.00103288
0.00064862
0.00128806
0.000726147
0.00161512
0.00103698
0.00145416
0.00109177
0.000887267
0.00121103
0.00199912
-0.000335648
0.00611881
-0.000100807
0.00243357
0.00062528
0.000716831
0.00122801
-9.69503e-05
0.00166687
-0.00127169
0.00186983
-0.00229444
0.00184665
-0.00295062
0.00165286
-0.00314928
0.00136131
-0.00288475
0.0010352
-0.00225643
0.000717172
-0.0014479
0.000460334
-0.000695893
0.000316428
-0.00014631
0.000314487
0.000188106
0.000434736
0.00037446
0.000628799
0.000442024
0.000834394
0.000378479
0.000903443
0.000172999
0.00083675
-3.11615e-05
0.000684046
-0.000172332
0.000487177
-0.000232721
0.000282773
-0.000226382
0.000100353
-0.000176822
-3.60293e-05
-0.000107022
-0.000110988
-4.12084e-05
-0.000137322
-6.98743e-06
-0.00013201
-2.34991e-06
-0.00010264
-1.33167e-05
-4.87947e-05
-2.57617e-05
3.27524e-05
-2.56643e-05
0.000139937
4.76295e-06
0.000268636
7.37451e-05
0.000418859
0.000176348
0.000600824
0.000305295
0.000806478
0.000442907
0.000984515
0.000548053
0.00122494
0.000796499
0.0013809
0.00093575
0.00124726
0.00134462
0.00327732
0.001346
0.00490342
0.00188572
0.00189385
0.00241423
0.000188314
0.00304147
-0.000724203
0.00330867
-0.00153889
0.00321858
-0.00220434
0.00282719
-0.00255924
0.00223254
-0.00255464
0.00154559
-0.00219784
0.000874399
-0.00158531
0.000293228
-0.000866802
-0.000100208
-0.000302518
-0.000279494
3.29251e-05
-0.000289666
0.000198237
-0.000195973
0.000280728
-5.63082e-05
0.000302321
6.53554e-05
0.000256775
8.93286e-05
0.000148981
1.62866e-05
4.18308e-05
-0.000124973
-3.11255e-05
-0.000298188
-5.95639e-05
-0.000469147
-5.54827e-05
-0.00061283
-3.32015e-05
-0.000713105
-6.81086e-06
-0.000764189
9.80946e-06
-0.000777831
6.58752e-06
-0.000767419
-1.28286e-05
-0.000740093
-4.071e-05
-0.000695373
-7.05496e-05
-0.000626545
-9.45607e-05
-0.000517652
-0.000104197
-0.000357803
-8.61706e-05
-0.000156686
-2.48349e-05
6.96353e-05
7.89099e-05
0.000290386
0.000222094
0.000447284
0.000391095
0.000631709
0.000612016
0.00078589
0.000781511
0.000383352
0.0017471
0.00377776
0.00503331
0.00691329
0.00647854
0.00062305
0.00607939
-0.000325044
0.00550057
-0.000960056
0.00463669
-0.00134045
0.00355059
-0.00147314
0.00237747
-0.00138155
0.00123608
-0.00105651
0.000236185
-0.000585485
-0.000461809
-0.000168888
-0.000820469
5.60788e-05
-0.000942772
0.000155174
-0.00094127
0.000196684
-0.000880545
0.000219954
-0.000803841
0.000225565
-0.000752858
0.000205739
-0.000764727
0.000160793
-0.000836179
0.000113221
-0.000946315
7.89447e-05
-0.00106894
6.29948e-05
-0.00118297
5.84745e-05
-0.00127301
5.6774e-05
-0.00133185
5.19575e-05
-0.00136276
4.06431e-05
-0.00137771
2.14676e-05
-0.00138774
-2.86947e-06
-0.00140128
-2.72453e-05
-0.00142589
-4.60009e-05
-0.00147064
-4.98866e-05
-0.00154582
-2.90749e-05
-0.00165985
2.77926e-05
-0.0018168
0.000132046
-0.00203877
0.000300821
-0.00237294
0.000556205
-0.0029055
0.000923594
-0.00372507
0.00143153
-0.00489463
0.00195101
-0.00505121
0.00190362
-0.0011501
0.00622221
0.000886874
0.00555098
0.000346199
0.00461313
-2.22179e-05
0.00344604
-0.000173396
0.00214631
-0.000173458
0.000831643
-6.69394e-05
-0.00032126
9.62854e-05
-0.00110316
0.000196332
-0.00147226
0.00020014
-0.00160675
0.000190503
-0.00162991
0.000178266
-0.0016083
0.000175014
-0.00156832
0.000179915
-0.0015285
0.000185683
-0.00150636
0.00018353
-0.00151517
0.000169534
-0.00155146
0.000149437
-0.00160266
0.00013007
-0.00165455
0.000114811
-0.00169858
0.000102434
-0.00173233
9.0445e-05
-0.00175757
7.71267e-05
-0.00177858
6.15773e-05
-0.00180089
4.37031e-05
-0.00182884
2.49992e-05
-0.00186377
7.61334e-06
-0.00190838
-1.46077e-06
-0.00196307
4.73417e-06
-0.00202688
3.46661e-05
-0.00209647
9.73164e-05
-0.00216813
0.000203646
-0.00224066
0.000373284
-0.00230521
0.000620694
-0.00234412
0.000962445
-0.002319
0.00140634
-0.00207783
0.00170978
-0.00081708
0.000642806
-0.00193919
-0.000508103
0.00138487
-0.000757358
0.000595369
-0.00107939
0.000299744
-0.00142022
0.00016736
-0.00175547
0.000161713
-0.00202327
0.000200775
-0.00217171
0.000244647
-0.00223011
0.000254649
-0.00224739
0.000217352
-0.00223243
0.000175473
-0.00219973
0.000145493
-0.00215574
0.000130951
-0.00210415
0.000128255
-0.00204964
0.000131099
-0.00199914
0.000132948
-0.00195924
0.000129555
-0.00193109
0.000121213
-0.00191136
0.000110255
-0.00189536
9.87374e-05
-0.00188033
8.73258e-05
-0.00186607
7.61052e-05
-0.00185423
6.52052e-05
-0.00184759
5.48611e-05
-0.00184951
4.55405e-05
-0.00186286
3.82733e-05
-0.00188988
3.45619e-05
-0.00192885
3.74403e-05
-0.00197352
4.93341e-05
-0.00201307
7.41458e-05
-0.00203128
0.000115451
-0.00200609
0.000178387
-0.00190483
0.000271963
-0.00168937
0.000405171
-0.00129291
0.000565917
-0.000553837
0.000667211
0.00058669
0.000569187
0.00132332
-9.38889e-05
-0.000587189
-0.00525808
-0.00623822
-0.00487132
-0.00429456
-0.00401593
-0.00387227
-0.00373653
-0.0035639
-0.00334951
-0.00312693
-0.00294291
-0.00280149
-0.00269044
-0.00259411
-0.00250057
-0.00240424
-0.0023061
-0.00221141
-0.00212512
-0.00204982
-0.00198604
-0.00193361
-0.00189231
-0.0018618
-0.00184153
-0.0018305
-0.00182674
-0.00182682
-0.00182428
-0.00181028
-0.00177208
-0.00169333
-0.00155248
-0.00131888
-0.000952842
-0.000426723
0.000200012
0.000727932
0.00059317
)
;

boundaryField
{
    floor
    {
        type            calculated;
        value           nonuniform List<scalar> 
29
(
0
0
0
0
0
0
0
0
0
0
0
0
0
0
0
0
0
0
0
0
3.43837e-06
9.55336e-06
1.52327e-05
2.01434e-05
1.54219e-06
2.51757e-06
5.9099e-06
9.10882e-06
8.97726e-06
)
;
    }
    ceiling
    {
        type            calculated;
        value           nonuniform List<scalar> 
43
(
2.03199e-05
1.90152e-05
1.78632e-05
1.85195e-05
2.10275e-05
2.36179e-05
2.58946e-05
2.80653e-05
3.01688e-05
3.19902e-05
3.32549e-05
3.3978e-05
3.43569e-05
3.45452e-05
3.46352e-05
3.4684e-05
3.47278e-05
3.47817e-05
3.48368e-05
3.48713e-05
3.48666e-05
3.48157e-05
3.47255e-05
3.46132e-05
3.45051e-05
3.44342e-05
3.44386e-05
3.45581e-05
3.48266e-05
3.52668e-05
3.58772e-05
3.66286e-05
3.7463e-05
3.83008e-05
3.90647e-05
3.9732e-05
4.04106e-05
4.12008e-05
4.08045e-05
4.20276e-05
1.62471e-05
1.38573e-05
1.0022e-05
)
;
    }
    sWall
    {
        type            calculated;
        value           uniform -3.68469e-05;
    }
    nWall
    {
        type            calculated;
        value           nonuniform List<scalar> 6(-2.8126e-05 -2.9486e-05 -3.09938e-05 -2.80564e-05 -2.87456e-05 -3.61159e-05);
    }
    sideWalls
    {
        type            empty;
        value           nonuniform 0();
    }
    glass1
    {
        type            calculated;
        value           nonuniform List<scalar> 9(-1.16161e-05 -3.30026e-05 -5.26067e-05 -7.06205e-05 -8.70365e-05 -0.000101824 -0.000115703 -0.000130625 -0.000146143);
    }
    glass2
    {
        type            calculated;
        value           nonuniform List<scalar> 2(-0.000117147 -0.000123404);
    }
    sun
    {
        type            calculated;
        value           uniform 0;
    }
    heatsource1
    {
        type            calculated;
        value           nonuniform List<scalar> 3(2.0595e-07 2.06345e-07 2.06599e-07);
    }
    heatsource2
    {
        type            calculated;
        value           nonuniform List<scalar> 4(5.16882e-08 5.18142e-08 0 0);
    }
    Table_master
    {
        type            calculated;
        value           nonuniform List<scalar> 9(-1.54818e-07 -1.54941e-07 -1.54975e-07 -1.54993e-07 -1.55003e-07 -1.55006e-07 -1.55e-07 -1.54979e-07 -1.54925e-07);
    }
    Table_slave
    {
        type            calculated;
        value           nonuniform List<scalar> 9(1.54669e-07 1.5469e-07 1.54669e-07 1.54658e-07 1.54648e-07 1.54649e-07 1.54665e-07 1.54699e-07 1.54762e-07);
    }
    inlet
    {
        type            calculated;
        value           uniform -0.00648603;
    }
    outlet
    {
        type            calculated;
        value           nonuniform List<scalar> 2(0.0052745 0.00096103);
    }
}


// ************************************************************************* //
