/*--------------------------------*- C++ -*----------------------------------*\
  =========                 |
  \\      /  F ield         | OpenFOAM: The Open Source CFD Toolbox
   \\    /   O peration     | Website:  https://openfoam.org
    \\  /    A nd           | Version:  6
     \\/     M anipulation  |
\*---------------------------------------------------------------------------*/
FoamFile
{
    version     2.0;
    format      ascii;
    class       volScalarField;
    location    "530";
    object      nut;
}
// * * * * * * * * * * * * * * * * * * * * * * * * * * * * * * * * * * * * * //

dimensions      [0 2 -1 0 0 0 0];

internalField   nonuniform List<scalar> 
459
(
0.000860316
0.000941174
0.000966401
0.00101485
0.00105969
0.00110242
0.00114553
0.00118845
0.00122327
0.00124496
0.00124737
0.0012243
0.00116918
0.0010675
0.000806044
0.000506193
0.000692512
0.000676981
0.000662937
0.000646748
0.000624888
0.000590914
0.000554824
0.0005213
0.000491115
0.000464154
0.000440116
0.000418398
0.000398385
0.000379339
0.000360174
0.00033982
0.000308194
0.000297471
0.00114854
0.00267588
0.00250055
0.00287452
0.00326268
0.00366292
0.00402009
0.00431179
0.00461435
0.00490736
0.00515845
0.00532636
0.0053563
0.0051535
0.00411286
0.000973482
0.000692371
0.000733001
0.00212608
0.0020646
0.00225458
0.0023924
0.00233904
0.00177758
0.00151436
0.00133538
0.00120087
0.00109429
0.00100173
0.000918304
0.00083911
0.000762063
0.000696368
0.000676804
0.000583949
0.000379946
0.00139083
0.00359447
0.00306977
0.00370433
0.00400366
0.00422351
0.00439798
0.00457054
0.00481429
0.00513006
0.00550055
0.00588089
0.00619
0.00631323
0.00588647
0.00431129
0.000984389
0.000879622
0.00173018
0.00234541
0.00282024
0.00311113
0.00290919
0.000811828
0.000714059
0.000636111
0.00057397
0.000523979
0.000483505
0.000450582
0.000424094
0.00040411
0.000456357
0.000574074
0.000649552
0.000417882
0.00162363
0.00449494
0.00301138
0.00383467
0.00397787
0.00396459
0.00395932
0.00404045
0.00423906
0.00456503
0.00501591
0.00554185
0.00602951
0.00638245
0.0064246
0.00586184
0.00354989
0.00117129
0.00166072
0.00232159
0.00304333
0.00363459
0.00396869
0.00362219
0.000895707
0.000819284
0.000769368
0.000735142
0.000709037
0.000684935
0.000658144
0.000630482
0.000597582
0.000570492
0.00059594
0.000739465
0.00047339
0.001862
0.00568248
0.00308822
0.00365009
0.00380946
0.0036576
0.00355459
0.00361006
0.00379534
0.00412704
0.00462262
0.00521865
0.00572892
0.00609307
0.00626521
0.00617931
0.00566743
0.00495638
0.00487637
0.00500784
0.00516197
0.00525102
0.00522784
0.0049822
0.00415169
0.00379859
0.00362698
0.00352374
0.00343446
0.00332229
0.00313563
0.00278829
0.00231587
0.0017902
0.00135308
0.00117719
0.000815439
0.000547725
0.000546011
0.000535263
0.00211744
0.00704719
0.00402385
0.00338011
0.00364728
0.00358281
0.00341949
0.00346272
0.00363108
0.00396318
0.00447584
0.0050731
0.00559313
0.00592659
0.00607076
0.00610691
0.00611977
0.00616778
0.00626816
0.00630818
0.00624559
0.00608415
0.00584567
0.00554673
0.00519656
0.00494649
0.00477846
0.00465501
0.00454736
0.00442615
0.00425593
0.00397205
0.00354559
0.00299442
0.00240808
0.00196157
0.00151727
0.00117499
0.00129004
0.000697054
0.00237188
0.00812735
0.00589479
0.00392832
0.00354953
0.00364833
0.00358282
0.00355587
0.00365958
0.00398249
0.00452446
0.00516066
0.00569986
0.00601718
0.00613421
0.00620332
0.00637767
0.00661528
0.00674402
0.0066832
0.00646366
0.00614565
0.00578863
0.00544701
0.00516732
0.00497616
0.00484776
0.00475496
0.00467777
0.00458981
0.00446087
0.00427962
0.00402631
0.00364648
0.00317537
0.00270841
0.00223209
0.00180012
0.00168476
0.000833297
0.00244255
0.00780339
0.00647903
0.00535959
0.00463478
0.00430737
0.00392732
0.0037037
0.00376774
0.00414825
0.00477796
0.00547856
0.00602959
0.00632104
0.0064162
0.00647756
0.00659353
0.00667551
0.00660688
0.00637908
0.00605306
0.00569675
0.00536405
0.00509021
0.0048868
0.00473992
0.00462498
0.00452877
0.00444482
0.0043543
0.0042274
0.00407308
0.00395217
0.00382848
0.00357455
0.00329569
0.00298804
0.00250058
0.00265537
0.00107376
0.00239892
0.00289607
0.00320521
0.0033262
0.00331015
0.00324707
0.00323807
0.00339838
0.00381656
0.00448668
0.00529852
0.00604883
0.00652888
0.0067058
0.00670264
0.00659856
0.00642934
0.00626022
0.00606182
0.00581873
0.00556088
0.00532253
0.00511843
0.00494856
0.00480044
0.00465536
0.00449853
0.00432693
0.00414515
0.00394394
0.00368034
0.0033364
0.00298244
0.0026943
0.00246233
0.00225011
0.00206101
0.00189789
0.00178529
0.00112748
0.00121683
0.00195875
0.00248765
0.00288817
0.00336381
0.00401489
0.00476604
0.00555466
0.00630375
0.00683427
0.00697866
0.00681581
0.0065498
0.00631462
0.00614442
0.00603085
0.00592994
0.00581661
0.00569747
0.00558038
0.00546863
0.00535796
0.00523517
0.00508144
0.0048772
0.0046084
0.00427489
0.00389669
0.00350343
0.00310375
0.0027417
0.0024569
0.00225619
0.00212236
0.00201711
0.00190306
0.00179883
0.001252
0.00145471
0.00254979
0.00335777
0.0041794
0.00509255
0.00572882
0.00626886
0.00683271
0.00739625
0.00769272
0.00755354
0.00712711
0.00676654
0.00655111
0.00645272
0.00641878
0.00640831
0.00639498
0.00636334
0.00630518
0.00624708
0.00619863
0.00615553
0.00610174
0.00600867
0.00583868
0.00555687
0.0051505
0.00467028
0.00415432
0.00365102
0.00320164
0.00283255
0.0025506
0.00233401
0.00217616
0.00282576
0.00138892
0.00136683
0.00144011
0.00150219
0.00165494
0.00164614
0.0015924
0.00155413
0.00158673
0.00164351
0.00168793
0.00170306
0.00167774
0.00162836
0.00158532
0.00155192
0.00153259
0.00152272
0.00151693
0.00151206
0.00150695
0.00150182
0.00149917
0.00149744
0.00149546
0.00149105
0.00148091
0.00146145
0.00143041
0.00138925
0.00134537
0.00130073
0.00126013
0.0012265
0.00120197
0.00118792
0.00118328
0.00118154
0.00116837
0.00117285
0.00114066
)
;

boundaryField
{
    floor
    {
        type            nutkWallFunction;
        Cmu             0.09;
        kappa           0.41;
        E               9.8;
        value           nonuniform List<scalar> 
29
(
9.76243e-05
6.05102e-05
8.38077e-05
8.18977e-05
8.01662e-05
7.81645e-05
7.5452e-05
7.12133e-05
6.66781e-05
6.2433e-05
5.85819e-05
5.51174e-05
5.20074e-05
4.91792e-05
4.65567e-05
4.40453e-05
4.15021e-05
3.87821e-05
3.45134e-05
3.30545e-05
3.30544e-05
4.41254e-05
4.91112e-05
5.63061e-05
9.76243e-05
6.05101e-05
8.87643e-05
0.000106455
0.000140691
)
;
    }
    ceiling
    {
        type            nutkWallFunction;
        Cmu             0.09;
        kappa           0.41;
        E               9.8;
        value           nonuniform List<scalar> 
43
(
0.00016306
0.000171356
0.000178347
0.00019543
0.000194459
0.000188476
0.000184203
0.000187855
0.000194191
0.000199133
0.000200813
0.000198004
0.000192512
0.000187709
0.000183972
0.000181806
0.000180698
0.000180049
0.000179502
0.000178928
0.000178351
0.000178053
0.000177859
0.000177636
0.00017714
0.000175999
0.000173807
0.000170302
0.000165642
0.000160658
0.000155568
0.000150922
0.000147061
0.000144238
0.000142617
0.000142082
0.000141881
0.000140358
0.000140877
0.000137151
0.000276545
0.000329164
0.000172989
)
;
    }
    sWall
    {
        type            nutkWallFunction;
        Cmu             0.09;
        kappa           0.41;
        E               9.8;
        value           uniform 0.00016309;
    }
    nWall
    {
        type            nutkWallFunction;
        Cmu             0.09;
        kappa           0.41;
        E               9.8;
        value           nonuniform List<scalar> 6(6.41896e-05 8.43609e-05 0.000100908 0.000150003 0.000165621 0.000137162);
    }
    sideWalls
    {
        type            empty;
    }
    glass1
    {
        type            nutkWallFunction;
        Cmu             0.09;
        kappa           0.41;
        E               9.8;
        value           nonuniform List<scalar> 9(0.000104165 0.000138139 0.000165935 0.000192136 0.000218538 0.000246427 0.000273852 0.000281415 0.000276756);
    }
    glass2
    {
        type            nutkWallFunction;
        Cmu             0.09;
        kappa           0.41;
        E               9.8;
        value           nonuniform List<scalar> 2(0.000129394 0.000135653);
    }
    sun
    {
        type            nutkWallFunction;
        Cmu             0.09;
        kappa           0.41;
        E               9.8;
        value           nonuniform List<scalar> 
14
(
0.000104148
0.000113777
0.000116761
0.000122468
0.000127723
0.000132705
0.000137711
0.000142673
0.000146684
0.000149176
0.000149452
0.000146802
0.000140446
0.000128633
)
;
    }
    heatsource1
    {
        type            nutkWallFunction;
        Cmu             0.09;
        kappa           0.41;
        E               9.8;
        value           nonuniform List<scalar> 3(6.57751e-05 6.55583e-05 6.41972e-05);
    }
    heatsource2
    {
        type            nutkWallFunction;
        Cmu             0.09;
        kappa           0.41;
        E               9.8;
        value           nonuniform List<scalar> 4(0.0001176 8.37902e-05 8.37902e-05 0.000118886);
    }
    Table_master
    {
        type            nutkWallFunction;
        Cmu             0.09;
        kappa           0.41;
        E               9.8;
        value           nonuniform List<scalar> 9(9.83234e-05 8.64484e-05 7.68425e-05 6.90827e-05 6.27659e-05 5.75974e-05 5.33534e-05 4.99108e-05 4.72956e-05);
    }
    Table_slave
    {
        type            nutkWallFunction;
        Cmu             0.09;
        kappa           0.41;
        E               9.8;
        value           nonuniform List<scalar> 9(0.000108377 9.92218e-05 9.31881e-05 8.90243e-05 8.5833e-05 8.28741e-05 7.95705e-05 7.61425e-05 7.20415e-05);
    }
    inlet
    {
        type            calculated;
        value           uniform 0.000100623;
    }
    outlet
    {
        type            calculated;
        value           nonuniform List<scalar> 2(0.00136683 0.00144011);
    }
}


// ************************************************************************* //
