// -*- C++ -*-
// File generated by PyFoam - sorry for the ugliness

FoamFile
{
 version 2.0;
 format ascii;
 class volScalarField;
 location "530";
 object T;
}

dimensions [ 0 0 0 1 0 0 0 ];

internalField nonuniform List<scalar> 459
(
  303.537
  303.404
  303.401
  303.402
  303.403
  303.403
  303.403
  303.402
  303.399
  303.394
  303.389
  303.386
  303.384
  303.381
  303.346
  303.325
  303.404
  303.433
  303.446
  303.454
  303.459
  303.46
  303.459
  303.457
  303.455
  303.452
  303.45
  303.447
  303.445
  303.442
  303.439
  303.434
  303.423
  303.36
  303.631
  303.436
  303.43
  303.434
  303.438
  303.44
  303.439
  303.436
  303.428
  303.415
  303.402
  303.394
  303.392
  303.395
  303.393
  303.4
  303.404
  303.413
  303.451
  303.466
  303.479
  303.49
  303.497
  303.499
  303.5
  303.5
  303.5
  303.5
  303.5
  303.499
  303.497
  303.494
  303.487
  303.475
  303.455
  303.439
  303.726
  303.464
  303.451
  303.46
  303.469
  303.475
  303.477
  303.474
  303.459
  303.434
  303.408
  303.392
  303.39
  303.397
  303.404
  303.409
  303.409
  303.441
  303.458
  303.477
  303.494
  303.509
  303.52
  303.52
  303.52
  303.521
  303.521
  303.522
  303.522
  303.522
  303.521
  303.519
  303.514
  303.502
  303.481
  303.465
  303.821
  303.495
  303.471
  303.485
  303.502
  303.517
  303.526
  303.523
  303.499
  303.456
  303.413
  303.387
  303.384
  303.396
  303.409
  303.417
  303.42
  303.427
  303.446
  303.468
  303.491
  303.513
  303.533
  303.548
  303.562
  303.573
  303.583
  303.591
  303.599
  303.605
  303.61
  303.615
  303.617
  303.589
  303.556
  303.52
  303.491
  303.916
  303.531
  303.489
  303.503
  303.528
  303.555
  303.576
  303.577
  303.539
  303.476
  303.416
  303.38
  303.377
  303.393
  303.414
  303.431
  303.444
  303.459
  303.479
  303.501
  303.525
  303.547
  303.567
  303.583
  303.599
  303.611
  303.621
  303.629
  303.635
  303.64
  303.643
  303.643
  303.64
  303.625
  303.598
  303.562
  303.524
  303.524
  303.526
  303.557
  304.003
  303.578
  303.515
  303.518
  303.543
  303.576
  303.614
  303.616
  303.563
  303.483
  303.411
  303.372
  303.37
  303.393
  303.424
  303.451
  303.473
  303.494
  303.517
  303.54
  303.564
  303.585
  303.604
  303.619
  303.632
  303.642
  303.65
  303.655
  303.66
  303.662
  303.663
  303.661
  303.656
  303.646
  303.627
  303.6
  303.567
  303.553
  303.547
  303.566
  304.079
  303.653
  303.578
  303.56
  303.572
  303.6
  303.641
  303.631
  303.563
  303.47
  303.391
  303.353
  303.36
  303.397
  303.441
  303.481
  303.511
  303.537
  303.561
  303.584
  303.605
  303.623
  303.639
  303.651
  303.66
  303.666
  303.671
  303.673
  303.675
  303.675
  303.674
  303.671
  303.666
  303.657
  303.643
  303.624
  303.598
  303.579
  303.566
  303.575
  304.193
  303.859
  303.766
  303.707
  303.684
  303.696
  303.695
  303.633
  303.526
  303.415
  303.34
  303.321
  303.353
  303.412
  303.473
  303.523
  303.558
  303.584
  303.607
  303.626
  303.643
  303.656
  303.666
  303.673
  303.677
  303.68
  303.681
  303.681
  303.68
  303.678
  303.676
  303.672
  303.668
  303.661
  303.651
  303.637
  303.619
  303.603
  303.591
  303.653
  304.351
  304.197
  304.081
  303.974
  303.895
  303.837
  303.718
  303.55
  303.39
  303.284
  303.252
  303.286
  303.364
  303.452
  303.526
  303.577
  303.607
  303.628
  303.644
  303.658
  303.668
  303.675
  303.68
  303.683
  303.684
  303.684
  303.683
  303.682
  303.679
  303.677
  303.673
  303.669
  303.665
  303.662
  303.659
  303.659
  303.664
  303.674
  303.689
  303.729
  301.569
  302.274
  302.644
  302.764
  302.813
  302.864
  302.935
  303.034
  303.161
  303.299
  303.429
  303.532
  303.59
  303.623
  303.643
  303.657
  303.666
  303.673
  303.678
  303.681
  303.683
  303.684
  303.684
  303.683
  303.682
  303.681
  303.679
  303.677
  303.675
  303.673
  303.672
  303.671
  303.671
  303.674
  303.68
  303.691
  303.707
  303.74
  301.625
  302.182
  302.426
  302.558
  302.667
  302.807
  302.965
  303.131
  303.302
  303.44
  303.532
  303.593
  303.628
  303.648
  303.66
  303.668
  303.673
  303.676
  303.678
  303.68
  303.68
  303.681
  303.681
  303.681
  303.681
  303.681
  303.681
  303.681
  303.68
  303.68
  303.679
  303.679
  303.679
  303.681
  303.685
  303.692
  303.705
  303.725
  302.138
  302.099
  302.099
  302.431
  302.638
  302.826
  303.017
  303.177
  303.309
  303.418
  303.503
  303.563
  303.602
  303.625
  303.639
  303.647
  303.652
  303.655
  303.657
  303.658
  303.659
  303.659
  303.66
  303.661
  303.661
  303.662
  303.663
  303.664
  303.665
  303.666
  303.668
  303.67
  303.672
  303.673
  303.675
  303.677
  303.68
  303.685
  303.685
  303.717
)
;

boundaryField
{
  floor
  {
    type wallHeatTransfer;
    Tinf uniform 300.653;
    alphaWall uniform 0.24;
    value nonuniform List<scalar> 29
(
  302.993
  302.841
  303.002
  303.02
  303.025
  303.025
  303.019
  303.002
  302.981
  302.959
  302.937
  302.915
  302.894
  302.874
  302.854
  302.833
  302.811
  302.784
  302.737
  302.676
  302.676
  302.831
  302.887
  302.954
  302.993
  302.841
  303.026
  303.098
  303.152
)
;
  }
  ceiling
  {
    type wallHeatTransfer;
    Tinf uniform 300.653;
    alphaWall uniform 0.24;
    value nonuniform List<scalar> 43
(
  302.008
  301.977
  301.981
  302.297
  302.488
  302.656
  302.829
  302.979
  303.107
  303.212
  303.292
  303.345
  303.375
  303.392
  303.401
  303.406
  303.409
  303.411
  303.412
  303.413
  303.413
  303.413
  303.413
  303.414
  303.413
  303.413
  303.411
  303.408
  303.403
  303.398
  303.392
  303.387
  303.382
  303.38
  303.379
  303.38
  303.382
  303.384
  303.385
  303.407
  304.143
  304.026
  301.544
)
;
  }
  sWall
  {
    type wallHeatTransfer;
    Tinf uniform 310.178;
    alphaWall uniform 0.36;
    value uniform 303.155;
  }
  nWall
  {
    type wallHeatTransfer;
    Tinf uniform 306.167;
    alphaWall uniform 0.36;
    value nonuniform List<scalar> 6
(
  304.187
  304.096
  304.044
  304.068
  304.031
  304.072
)
;
  }
  sideWalls
  {
    type empty;
  }
  glass1
  {
    type wallHeatTransfer;
    Tinf uniform 310.178;
    alphaWall uniform 4.3;
    value nonuniform List<scalar> 9
(
  308.331
  308.019
  307.811
  307.647
  307.506
  307.373
  307.258
  307.275
  307.374
)
;
  }
  glass2
  {
    type wallHeatTransfer;
    Tinf uniform 306.167;
    alphaWall uniform 4.3;
    value nonuniform List<scalar> 2
(
  305.365
  305.368
)
;
  }
  sun
  {
    type wallHeatTransfer;
    Tinf uniform 300.653;
    alphaWall uniform 0.24;
    value nonuniform List<scalar> 14
(
  303.176
  303.082
  303.086
  303.098
  303.108
  303.117
  303.125
  303.132
  303.135
  303.135
  303.131
  303.124
  303.113
  303.091
)
;
  }
  heatsource1
  {
    type fixedGradient;
    gradient uniform 0;
  }
  heatsource2
  {
    type fixedGradient;
    gradient uniform 0;
  }
  Table_master
  {
    type zeroGradient;
  }
  Table_slave
  {
    type zeroGradient;
  }
  inlet
  {
    type fixedValue;
    value uniform 300.15;
  }
  outlet
  {
    type zeroGradient;
  }
} 	// ************************************************************************* //

