// -*- C++ -*-
// File generated by PyFoam - sorry for the ugliness

FoamFile
{
 version 2.0;
 format ascii;
 class volScalarField;
 location "400";
 object T;
}

dimensions [ 0 0 0 1 0 0 0 ];

internalField nonuniform List<scalar> 459
(
  302.434
  302.085
  302.074
  302.075
  302.076
  302.076
  302.076
  302.076
  302.075
  302.074
  302.072
  302.068
  302.062
  302.054
  302.047
  301.923
  301.909
  301.917
  301.925
  301.933
  301.929
  301.921
  301.907
  301.849
  301.599
  301.481
  301.486
  301.499
  301.503
  301.505
  301.505
  301.502
  301.489
  301.497
  302.678
  302.119
  302.087
  302.092
  302.097
  302.102
  302.106
  302.109
  302.111
  302.112
  302.108
  302.099
  302.085
  302.064
  302.04
  302.017
  301.955
  301.916
  301.907
  301.919
  301.933
  301.939
  301.932
  301.909
  301.886
  301.841
  301.755
  301.693
  301.65
  301.612
  301.587
  301.57
  301.559
  301.544
  301.511
  301.502
  302.91
  302.174
  302.113
  302.122
  302.135
  302.147
  302.158
  302.166
  302.172
  302.174
  302.169
  302.155
  302.132
  302.1
  302.062
  302.024
  301.996
  301.922
  301.925
  301.941
  301.953
  301.957
  301.949
  301.913
  301.872
  301.836
  301.798
  301.767
  301.74
  301.717
  301.693
  301.668
  301.65
  301.597
  301.528
  301.507
  303.126
  302.245
  302.143
  302.154
  302.175
  302.197
  302.217
  302.234
  302.246
  302.251
  302.247
  302.229
  302.197
  302.154
  302.104
  302.052
  302.004
  301.969
  301.944
  301.955
  301.97
  301.975
  301.973
  301.961
  301.945
  301.93
  301.924
  301.921
  301.918
  301.917
  301.914
  301.91
  301.904
  301.861
  301.791
  301.699
  301.568
  303.325
  302.332
  302.179
  302.181
  302.209
  302.24
  302.271
  302.3
  302.322
  302.335
  302.335
  302.317
  302.28
  302.229
  302.172
  302.116
  302.067
  302.031
  302.008
  302.001
  301.999
  301.996
  301.989
  301.976
  301.959
  301.947
  301.942
  301.941
  301.941
  301.941
  301.94
  301.935
  301.925
  301.902
  301.857
  301.782
  301.695
  301.721
  301.829
  301.859
  303.496
  302.438
  302.239
  302.209
  302.235
  302.27
  302.309
  302.347
  302.383
  302.409
  302.418
  302.402
  302.363
  302.307
  302.244
  302.182
  302.128
  302.085
  302.055
  302.036
  302.023
  302.012
  302.002
  301.988
  301.969
  301.959
  301.957
  301.958
  301.961
  301.963
  301.962
  301.957
  301.945
  301.926
  301.893
  301.84
  301.779
  301.756
  301.772
  301.805
  303.631
  302.611
  302.401
  302.297
  302.277
  302.298
  302.333
  302.372
  302.414
  302.458
  302.48
  302.468
  302.428
  302.371
  302.306
  302.241
  302.183
  302.133
  302.095
  302.065
  302.043
  302.026
  302.013
  301.997
  301.977
  301.969
  301.97
  301.974
  301.979
  301.983
  301.983
  301.979
  301.968
  301.946
  301.917
  301.879
  301.839
  301.813
  301.805
  301.826
  303.864
  303.09
  302.865
  302.657
  302.513
  302.442
  302.423
  302.435
  302.462
  302.504
  302.518
  302.5
  302.459
  302.404
  302.342
  302.28
  302.221
  302.169
  302.124
  302.089
  302.059
  302.037
  302.023
  302.005
  301.984
  301.979
  301.983
  301.989
  301.996
  302
  302.002
  302
  301.991
  301.971
  301.943
  301.918
  301.899
  301.89
  301.891
  302.047
  304.189
  303.859
  303.584
  303.308
  303.068
  302.888
  302.767
  302.693
  302.653
  302.614
  302.563
  302.505
  302.444
  302.385
  302.328
  302.274
  302.225
  302.18
  302.139
  302.103
  302.072
  302.046
  302.031
  302.013
  301.991
  301.988
  301.994
  302.002
  302.01
  302.016
  302.021
  302.024
  302.027
  302.033
  302.041
  302.059
  302.089
  302.124
  302.155
  302.231
  297.841
  300.507
  301.732
  302.162
  302.323
  302.382
  302.397
  302.391
  302.374
  302.348
  302.316
  302.281
  302.247
  302.213
  302.181
  302.152
  302.123
  302.097
  302.072
  302.051
  302.037
  302.02
  301.998
  301.997
  302.004
  302.013
  302.022
  302.03
  302.039
  302.046
  302.054
  302.062
  302.074
  302.091
  302.114
  302.137
  302.153
  302.166
  298.338
  300.464
  301.354
  301.781
  301.989
  302.086
  302.127
  302.14
  302.145
  302.144
  302.139
  302.131
  302.122
  302.112
  302.102
  302.092
  302.081
  302.07
  302.059
  302.048
  302.043
  302.027
  302.008
  302.008
  302.015
  302.022
  302.029
  302.036
  302.043
  302.05
  302.058
  302.066
  302.077
  302.09
  302.106
  302.123
  302.115
  302.146
  299.626
  299.573
  299.57
  300.867
  301.397
  301.753
  301.873
  301.931
  301.963
  301.979
  301.988
  301.997
  302.004
  302.011
  302.018
  302.023
  302.029
  302.034
  302.039
  302.043
  302.047
  302.049
  302.051
  302.039
  302.037
  302.04
  302.044
  302.049
  302.052
  302.055
  302.058
  302.06
  302.064
  302.068
  302.074
  302.085
  302.094
  302.099
  302.1
  302.136
)
;

boundaryField
{
  floor
  {
    type wallHeatTransfer;
    Tinf uniform 305.2;
    alphaWall uniform 0.24;
    value nonuniform List<scalar> 29
(
  302.424
  302.527
  302.446
  302.453
  302.451
  302.445
  302.456
  302.499
  302.541
  302.575
  302.585
  302.622
  302.599
  302.563
  302.556
  302.562
  302.537
  302.416
  302.325
  302.374
  302.374
  302.185
  302.128
  302.062
  302.424
  302.527
  302.41
  302.338
  302.295
)
;
  }
  ceiling
  {
    type wallHeatTransfer;
    Tinf uniform 303.2;
    alphaWall uniform 0.24;
    value nonuniform List<scalar> 43
(
  299.852
  299.793
  299.783
  300.998
  301.503
  301.844
  301.962
  302.022
  302.056
  302.076
  302.09
  302.103
  302.115
  302.126
  302.137
  302.148
  302.158
  302.168
  302.176
  302.183
  302.187
  302.189
  302.195
  302.182
  302.172
  302.173
  302.177
  302.18
  302.182
  302.182
  302.181
  302.179
  302.176
  302.174
  302.174
  302.179
  302.185
  302.193
  302.199
  302.238
  304.145
  303.834
  298.613
)
;
  }
  sWall
  {
    type wallHeatTransfer;
    Tinf uniform 315.2;
    alphaWall uniform 0.36;
    value uniform 301.059;
  }
  nWall
  {
    type wallHeatTransfer;
    Tinf uniform 307.2;
    alphaWall uniform 0.36;
    value nonuniform List<scalar> 6
(
  302.722
  302.623
  302.537
  302.835
  302.81
  302.834
)
;
  }
  sideWalls
  {
    type empty;
  }
  glass1
  {
    type wallHeatTransfer;
    Tinf uniform 315.2;
    alphaWall uniform 4.3;
    value nonuniform List<scalar> 9
(
  311.992
  310.99
  310.343
  309.857
  309.489
  309.195
  308.95
  309.008
  309.246
)
;
  }
  glass2
  {
    type wallHeatTransfer;
    Tinf uniform 307.2;
    alphaWall uniform 4.3;
    value nonuniform List<scalar> 2
(
  305.075
  305.229
)
;
  }
  sun
  {
    type wallHeatTransfer;
    Tinf uniform 305.2;
    alphaWall uniform 0.24;
    value nonuniform List<scalar> 14
(
  302.82
  302.509
  302.514
  302.503
  302.493
  302.484
  302.476
  302.468
  302.461
  302.454
  302.446
  302.439
  302.432
  302.426
)
;
  }
  heatsource1
  {
    type fixedGradient;
    gradient uniform 0;
  }
  heatsource2
  {
    type fixedGradient;
    gradient uniform 0;
  }
  Table_master
  {
    type zeroGradient;
  }
  Table_slave
  {
    type zeroGradient;
  }
  inlet
  {
    type fixedValue;
    value uniform 293.15;
  }
  outlet
  {
    type zeroGradient;
  }
} 	// ************************************************************************* //

