/*--------------------------------*- C++ -*----------------------------------*\
  =========                 |
  \\      /  F ield         | OpenFOAM: The Open Source CFD Toolbox
   \\    /   O peration     | Website:  https://openfoam.org
    \\  /    A nd           | Version:  6
     \\/     M anipulation  |
\*---------------------------------------------------------------------------*/
FoamFile
{
    version     2.0;
    format      ascii;
    class       volScalarField;
    location    "450";
    object      alphat;
}
// * * * * * * * * * * * * * * * * * * * * * * * * * * * * * * * * * * * * * //

dimensions      [1 -1 -1 0 0 0 0];

internalField   nonuniform List<scalar> 
459
(
0.00102165
0.00112097
0.00115371
0.00121269
0.00126762
0.00132051
0.00137472
0.00142643
0.00146683
0.00148912
0.00148564
0.00144861
0.00136779
0.00119828
0.000941121
0.00058869
0.000799239
0.000789765
0.000782267
0.000768219
0.000744373
0.000703215
0.000658928
0.00061781
0.000580888
0.000547934
0.000518681
0.000492354
0.000468184
0.000445264
0.000422294
0.000398041
0.000360887
0.000348981
0.00135397
0.00321584
0.00303432
0.00349653
0.00398009
0.00447045
0.00488936
0.00525316
0.00562405
0.00597379
0.00626093
0.00643113
0.00642366
0.00608773
0.00458851
0.00115475
0.000843741
0.000864695
0.0025689
0.00252079
0.00277711
0.00295693
0.00287864
0.00214552
0.00181384
0.00159126
0.00142551
0.00129573
0.00118417
0.00108395
0.00098901
0.000896412
0.00081691
0.000792881
0.000686976
0.000445893
0.00163217
0.00432605
0.00374586
0.00448505
0.00484738
0.00511485
0.00532895
0.00556283
0.0058831
0.00629048
0.0067565
0.00720151
0.00754239
0.00757705
0.00691684
0.00489096
0.00115572
0.00101639
0.00212794
0.00287713
0.00347259
0.00383834
0.00356554
0.000969522
0.000849012
0.000753292
0.000677294
0.0006164
0.000567272
0.00052747
0.000495583
0.000471671
0.000533659
0.000673189
0.000768733
0.000491355
0.0018985
0.00537975
0.00369777
0.00463153
0.00479223
0.00478357
0.00480438
0.00493605
0.00521231
0.00565382
0.00624844
0.00687256
0.00743522
0.00774467
0.00767995
0.0068379
0.00400569
0.00135935
0.00194526
0.00275587
0.00367502
0.00443994
0.00487018
0.00442474
0.00106997
0.000974969
0.000911867
0.000867775
0.000833828
0.000802865
0.000769799
0.000735852
0.000695904
0.00066379
0.000695949
0.000876235
0.000556642
0.00217113
0.00675826
0.00380443
0.00442793
0.00459101
0.0044183
0.004345
0.00444462
0.00469968
0.0051589
0.00583317
0.00652355
0.00708956
0.00745285
0.00758616
0.00740493
0.00663815
0.00588756
0.00584473
0.00605784
0.00629535
0.00643984
0.00642547
0.00610944
0.00503623
0.00456491
0.00432516
0.00417645
0.00405074
0.00390189
0.00366158
0.00324313
0.00268389
0.00207117
0.00156758
0.00137513
0.000955984
0.000641807
0.000638186
0.000622721
0.00246401
0.00834175
0.00493025
0.00416696
0.00445228
0.0044017
0.00421565
0.00429159
0.00452172
0.00498869
0.00566516
0.00638199
0.00694826
0.00727285
0.00739764
0.00743414
0.00745901
0.0075544
0.00770849
0.00778637
0.00773233
0.0075436
0.00724264
0.00684674
0.00636446
0.00600298
0.00574938
0.00555865
0.00539483
0.00522212
0.00499732
0.00464223
0.00412777
0.00347762
0.00279649
0.00228379
0.00177028
0.00137203
0.0015068
0.000805868
0.00275244
0.00957497
0.00709845
0.00489927
0.00450726
0.00459503
0.00443946
0.00438609
0.00455615
0.00503629
0.00576365
0.00652658
0.0071015
0.00739674
0.00750126
0.00762452
0.00791106
0.00824801
0.00842505
0.00836162
0.00809245
0.00768332
0.00720598
0.00672897
0.00631609
0.00601586
0.00580481
0.00564858
0.0055202
0.0053873
0.00521408
0.00498565
0.00468061
0.00423545
0.00368951
0.00315253
0.00260367
0.00210073
0.00196605
0.000962981
0.00282949
0.00907692
0.00762335
0.00643228
0.00570814
0.00523481
0.00472408
0.00450012
0.00468951
0.00528708
0.00613724
0.00696022
0.00752355
0.00778006
0.00787316
0.00799874
0.00821111
0.00834942
0.00828798
0.00801046
0.00758141
0.00708405
0.00660035
0.00618757
0.00587184
0.00564236
0.00546679
0.00532341
0.00520046
0.00507519
0.00491356
0.00472312
0.00457287
0.00443276
0.00414231
0.00382483
0.00347037
0.0028997
0.00308279
0.00123366
0.00277555
0.0033443
0.00370022
0.00383692
0.00381818
0.00377563
0.00383855
0.00417154
0.00485866
0.0058353
0.00688005
0.00768989
0.00811443
0.00822856
0.00820506
0.00805168
0.0078795
0.00770504
0.00748074
0.00716799
0.00680562
0.00644867
0.00613916
0.00588412
0.00567037
0.00547395
0.00527307
0.00505962
0.00483601
0.00459179
0.00428
0.00387637
0.00345855
0.00311851
0.00284887
0.00260339
0.00238362
0.00219335
0.00206179
0.00129923
0.00136954
0.00220555
0.00285746
0.00345376
0.00426048
0.00524163
0.00629912
0.00733062
0.00815409
0.00852114
0.0084547
0.00814767
0.00778664
0.00749293
0.00731115
0.00718413
0.00706085
0.00692404
0.00677306
0.00661745
0.00646777
0.00632028
0.0061627
0.00597432
0.00573196
0.0054179
0.00502982
0.00458886
0.00412832
0.00365861
0.00322899
0.0028846
0.00263869
0.00247494
0.00234877
0.00221551
0.00209608
0.00145615
0.00166743
0.00306487
0.00425099
0.00550557
0.00666109
0.00740541
0.00810448
0.00880044
0.00926697
0.00917973
0.00865429
0.00812042
0.00775562
0.00756394
0.00748407
0.00745895
0.00745384
0.00745097
0.00743896
0.00740742
0.00734985
0.00728853
0.00723068
0.00716176
0.00705113
0.00685676
0.00653827
0.0060819
0.00553904
0.00494408
0.00435266
0.00381508
0.00336577
0.00301706
0.00274796
0.00255183
0.00330949
0.00162128
0.00159432
0.00168136
0.00175508
0.00194845
0.00195805
0.00191476
0.00189336
0.00195564
0.00200666
0.0020274
0.00200246
0.00194352
0.00188391
0.00183152
0.00179897
0.00178248
0.00177481
0.00177102
0.00176819
0.00176476
0.00176046
0.00175604
0.00175357
0.00175116
0.00174619
0.00173521
0.00171424
0.00168064
0.00163587
0.00158679
0.00153491
0.00148622
0.00144442
0.00141246
0.00139231
0.00138302
0.00137728
0.00135945
0.00136879
0.0013313
)
;

boundaryField
{
    floor
    {
        type            compressible::alphatWallFunction;
        Prt             0.85;
        value           nonuniform List<scalar> 
29
(
0.000134255
8.29347e-05
0.000113938
0.000112569
0.000111483
0.000109444
0.000105972
9.99469e-05
9.3415e-05
8.73022e-05
8.17702e-05
7.67959e-05
7.23488e-05
6.83194e-05
6.45962e-05
6.10427e-05
5.7458e-05
5.36454e-05
4.77451e-05
4.58355e-05
4.58349e-05
6.11398e-05
6.81662e-05
7.81151e-05
0.000134254
8.29337e-05
0.000123362
0.000144889
0.000192274
)
;
    }
    ceiling
    {
        type            compressible::alphatWallFunction;
        Prt             0.85;
        value           nonuniform List<scalar> 
43
(
0.00022385
0.00023544
0.000245205
0.000270638
0.000271909
0.000266265
0.000263477
0.000271633
0.000278294
0.000280998
0.000277754
0.000270066
0.000262263
0.000255383
0.000251098
0.000248924
0.000247912
0.000247412
0.000247038
0.000246585
0.000246018
0.000245433
0.000245106
0.000244789
0.000244131
0.000242678
0.000239902
0.000235445
0.00022949
0.000222943
0.000215996
0.000209453
0.000203816
0.000199494
0.000196763
0.000195502
0.000194723
0.000192301
0.00019357
0.00018847
0.000376682
0.000447519
0.000233557
)
;
    }
    sWall
    {
        type            compressible::alphatWallFunction;
        Prt             0.85;
        value           uniform 0.000223047;
    }
    nWall
    {
        type            compressible::alphatWallFunction;
        Prt             0.85;
        value           nonuniform List<scalar> 6(8.76934e-05 0.00011454 0.000136988 0.000205006 0.000227148 0.000188079);
    }
    sideWalls
    {
        type            empty;
    }
    glass1
    {
        type            compressible::alphatWallFunction;
        Prt             0.85;
        value           nonuniform List<scalar> 9(0.000143256 0.00018877 0.000225947 0.000260918 0.000296195 0.000333587 0.00036997 0.000379679 0.000373026);
    }
    glass2
    {
        type            compressible::alphatWallFunction;
        Prt             0.85;
        value           nonuniform List<scalar> 2(0.000173988 0.000182976);
    }
    sun
    {
        type            compressible::alphatWallFunction;
        Prt             0.85;
        value           nonuniform List<scalar> 
14
(
0.000145637
0.00015951
0.000164054
0.000172202
0.000179751
0.000186984
0.000194363
0.000201372
0.000206827
0.00020983
0.00020936
0.000204366
0.000193418
0.00017021
)
;
    }
    heatsource1
    {
        type            compressible::alphatWallFunction;
        Prt             0.85;
        value           nonuniform List<scalar> 3(9.07217e-05 9.01835e-05 8.78817e-05);
    }
    heatsource2
    {
        type            compressible::alphatWallFunction;
        Prt             0.85;
        value           nonuniform List<scalar> 4(0.000164032 0.000120199 0.000120198 0.000164164);
    }
    Table_master
    {
        type            compressible::alphatWallFunction;
        Prt             0.85;
        value           nonuniform List<scalar> 9(0.000138118 0.000120953 0.000107112 9.59725e-05 8.69373e-05 7.95678e-05 7.35392e-05 6.86686e-05 6.499e-05);
    }
    Table_slave
    {
        type            compressible::alphatWallFunction;
        Prt             0.85;
        value           nonuniform List<scalar> 9(0.000152238 0.000138891 0.000129942 0.000123645 0.000118772 0.000114307 0.000109515 0.00010457 9.87154e-05);
    }
    inlet
    {
        type            fixedValue;
        value           uniform 1.94e-05;
    }
    outlet
    {
        type            zeroGradient;
    }
}


// ************************************************************************* //
