/*--------------------------------*- C++ -*----------------------------------*\
  =========                 |
  \\      /  F ield         | OpenFOAM: The Open Source CFD Toolbox
   \\    /   O peration     | Website:  https://openfoam.org
    \\  /    A nd           | Version:  6
     \\/     M anipulation  |
\*---------------------------------------------------------------------------*/
FoamFile
{
    version     2.0;
    format      ascii;
    class       volScalarField;
    location    "800";
    object      nut;
}
// * * * * * * * * * * * * * * * * * * * * * * * * * * * * * * * * * * * * * //

dimensions      [0 2 -1 0 0 0 0];

internalField   nonuniform List<scalar> 
459
(
0.000736458
0.000777855
0.000739992
0.000738806
0.000740407
0.00073764
0.000724523
0.000708424
0.000695351
0.000688062
0.000686884
0.00069045
0.000696393
0.000701385
0.00070024
0.000290822
0.000310307
0.000293961
0.000273214
0.00025102
0.000234167
0.000214362
0.000208511
0.000215732
0.000233726
0.000258393
0.000281737
0.000289202
0.000290492
0.000290497
0.000299524
0.000306474
0.000338633
0.000276709
0.00115831
0.00277712
0.00270062
0.0029365
0.00307346
0.00321519
0.00345738
0.00349673
0.00335667
0.00315582
0.00295475
0.00275165
0.0025035
0.00213537
0.00155559
0.000800677
0.00051851
0.000460857
0.00131203
0.00120109
0.000932743
0.000686484
0.000534674
0.000471668
0.000567851
0.000712493
0.000853134
0.000963261
0.00102292
0.00100806
0.000939396
0.00091775
0.00117543
0.00116547
0.00132917
0.000500686
0.00138672
0.00458632
0.00432708
0.00446307
0.00407908
0.00375669
0.00423416
0.00471448
0.00478835
0.00460142
0.00433098
0.00403351
0.00368144
0.00319978
0.00251538
0.00167288
0.000877142
0.000698677
0.0018994
0.00157559
0.00113671
0.000794199
0.000538424
0.00032979
0.000350912
0.000378999
0.000409616
0.000444021
0.00048473
0.000536566
0.000608483
0.000718238
0.00195062
0.00206899
0.00240772
0.000760948
0.00169371
0.00280788
0.00317531
0.00374105
0.00434592
0.00438199
0.00431836
0.00500343
0.00549601
0.00555946
0.0054407
0.0052598
0.0050161
0.0046335
0.00399682
0.00301138
0.00178555
0.000909293
0.00222544
0.00256275
0.00211242
0.00166264
0.0012925
0.000998821
0.000760385
0.000765934
0.00077336
0.000783069
0.000796944
0.000817286
0.000847454
0.000893363
0.000967083
0.00254257
0.00257249
0.00256333
0.000971516
0.00279276
0.00259834
0.00266146
0.00307176
0.00382771
0.00439724
0.00435739
0.00483103
0.00564766
0.00603643
0.00619455
0.00628517
0.00635677
0.00639801
0.00636595
0.0062066
0.00589003
0.00548837
0.0053453
0.00507328
0.00484877
0.00470127
0.00458938
0.0044559
0.00432681
0.00424036
0.00414801
0.0040459
0.00393515
0.00381773
0.00369569
0.00357078
0.00344101
0.0032932
0.00290859
0.00244857
0.00197349
0.00136026
0.001427
0.00138694
0.00336172
0.00322592
0.0027884
0.00282575
0.00348906
0.00423333
0.00437855
0.00465332
0.0053754
0.00592581
0.00632101
0.00665557
0.00696062
0.00724311
0.00748122
0.00762882
0.00763437
0.00748133
0.00725424
0.00703293
0.00685691
0.00672559
0.00661396
0.0065018
0.00638149
0.00625036
0.0061078
0.00595447
0.00579142
0.00561957
0.00543916
0.00524964
0.00505038
0.00484123
0.00462885
0.00446549
0.00441329
0.00452071
0.00470793
0.00175667
0.0039421
0.0040829
0.00323195
0.00276951
0.00332998
0.00423648
0.00451016
0.0044778
0.00487182
0.00527406
0.0057674
0.00630222
0.00682148
0.00731412
0.0077678
0.00813973
0.00837336
0.00843909
0.00837939
0.00826643
0.00814335
0.00802173
0.00790074
0.00777488
0.00763755
0.00748501
0.00731754
0.0071363
0.00694352
0.00674272
0.00653873
0.00633807
0.00614929
0.00598058
0.00583491
0.00571385
0.00565505
0.00588947
0.00680551
0.00207314
0.00461507
0.00530272
0.00457552
0.00287824
0.00357831
0.0046501
0.00489166
0.00461561
0.00440835
0.00441981
0.00480062
0.00538276
0.00604258
0.00672525
0.00740173
0.00799951
0.00845564
0.00873961
0.00887081
0.00889949
0.0088681
0.00879982
0.00870812
0.00859839
0.00847097
0.00832391
0.00815621
0.00796778
0.00775969
0.00753447
0.00729637
0.00705212
0.00681215
0.0065913
0.00641003
0.00629888
0.00628384
0.00642717
0.00765837
0.00239086
0.00557037
0.00713402
0.011623
0.0036953
0.00358773
0.00498523
0.00505305
0.00446907
0.00415893
0.00423588
0.00457049
0.00504758
0.00562111
0.00626044
0.00693975
0.00759986
0.0081649
0.00859189
0.00887655
0.00904374
0.00912375
0.00913932
0.00911008
0.00904814
0.00895988
0.00884618
0.00870681
0.00854165
0.00835102
0.0081359
0.00789809
0.00764071
0.00736907
0.00709183
0.00682459
0.00660141
0.00649309
0.00660688
0.00736453
0.00233771
0.0196293
0.010529
0.00358302
0.00482536
0.00504755
0.00481674
0.00485476
0.00508982
0.00549186
0.00600864
0.00658344
0.00715847
0.00768491
0.00814414
0.00852424
0.00883291
0.00907368
0.00925085
0.00936886
0.0094325
0.00945383
0.00944048
0.00939499
0.00931906
0.00921472
0.00908384
0.00892776
0.00874724
0.00854266
0.0083143
0.00806313
0.00779181
0.00750646
0.00721899
0.00694812
0.00669399
0.00609297
0.00171158
0.00831042
0.0111478
0.00760687
0.0060483
0.00532939
0.00503253
0.00504005
0.00530004
0.005789
0.00646196
0.00722737
0.00796382
0.00853181
0.00892431
0.00918006
0.00934552
0.0094549
0.00953002
0.00958379
0.00962325
0.00965162
0.00966703
0.00965221
0.00960953
0.00954311
0.00945673
0.00935308
0.00923353
0.00909822
0.00894641
0.00877678
0.0085877
0.00837698
0.00814124
0.00786899
0.00750195
0.0063469
0.0019354
0.00108941
0.00153281
0.004681
0.00439437
0.00396952
0.00355151
0.00320215
0.00291031
0.00266883
0.00247531
0.0023299
0.00223327
0.00218328
0.00217161
0.00218916
0.00221503
0.00223697
0.00225006
0.00225429
0.00225153
0.00224404
0.00223375
0.00222186
0.00220917
0.00219748
0.00218575
0.00217336
0.00216008
0.00214584
0.00213069
0.00211468
0.00209782
0.0020801
0.00206146
0.00204178
0.00202084
0.00199859
0.00197324
0.00186487
0.00163478
)
;

boundaryField
{
    floor
    {
        type            nutkWallFunction;
        Cmu             0.09;
        kappa           0.41;
        E               9.8;
        value           nonuniform List<scalar> 
29
(
8.47486e-05
3.20661e-05
3.4727e-05
3.24941e-05
2.96443e-05
2.65619e-05
2.41969e-05
2.13866e-05
2.05484e-05
2.15815e-05
2.41368e-05
2.75974e-05
3.08321e-05
3.18599e-05
3.20365e-05
3.20368e-05
3.32707e-05
3.42164e-05
3.85606e-05
3.01272e-05
3.01271e-05
5.97536e-05
9.21514e-05
0.000117394
8.47486e-05
3.2066e-05
5.46337e-05
8.45439e-05
0.000110012
)
;
    }
    ceiling
    {
        type            nutkWallFunction;
        Cmu             0.09;
        kappa           0.41;
        E               9.8;
        value           nonuniform List<scalar> 
43
(
0.000131333
0.000182145
0.00051298
0.000484123
0.000441013
0.000398162
0.000361963
0.000331418
0.000305905
0.000285289
0.000269685
0.000259258
0.000253842
0.00025257
0.000254463
0.000257254
0.000259617
0.000261021
0.000261469
0.000261163
0.000260347
0.000259229
0.000257937
0.000256558
0.000255288
0.000254012
0.000252665
0.00025122
0.000249671
0.000248022
0.000246277
0.00024444
0.000242508
0.000240474
0.000238324
0.000236035
0.000233598
0.000230818
0.000218922
0.000193415
0.000601139
0.000753303
0.000866269
)
;
    }
    sWall
    {
        type            nutkWallFunction;
        Cmu             0.09;
        kappa           0.41;
        E               9.8;
        value           uniform 0.00013135;
    }
    nWall
    {
        type            nutkWallFunction;
        Cmu             0.09;
        kappa           0.41;
        E               9.8;
        value           nonuniform List<scalar> 6(0.000165492 0.000206941 0.000241663 0.000201967 0.000226669 0.000193423);
    }
    sideWalls
    {
        type            empty;
    }
    glass1
    {
        type            nutkWallFunction;
        Cmu             0.09;
        kappa           0.41;
        E               9.8;
        value           nonuniform List<scalar> 9(8.91609e-05 0.000139348 0.000165606 0.000200117 0.000319105 0.000378614 0.000438252 0.000506311 0.000601283);
    }
    glass2
    {
        type            nutkWallFunction;
        Cmu             0.09;
        kappa           0.41;
        E               9.8;
        value           nonuniform List<scalar> 2(0.000275894 0.000270191);
    }
    sun
    {
        type            nutkWallFunction;
        Cmu             0.09;
        kappa           0.41;
        E               9.8;
        value           nonuniform List<scalar> 
14
(
8.9178e-05
9.42176e-05
8.96105e-05
8.94658e-05
8.96611e-05
8.93234e-05
8.77205e-05
8.5749e-05
8.41444e-05
8.32488e-05
8.31045e-05
8.35441e-05
8.42754e-05
8.48892e-05
)
;
    }
    heatsource1
    {
        type            nutkWallFunction;
        Cmu             0.09;
        kappa           0.41;
        E               9.8;
        value           nonuniform List<scalar> 3(0.000162471 0.000170047 0.000165498);
    }
    heatsource2
    {
        type            nutkWallFunction;
        Cmu             0.09;
        kappa           0.41;
        E               9.8;
        value           nonuniform List<scalar> 4(9.69858e-05 6.2027e-05 6.20269e-05 0.00010618);
    }
    Table_master
    {
        type            nutkWallFunction;
        Cmu             0.09;
        kappa           0.41;
        E               9.8;
        value           nonuniform List<scalar> 9(3.73561e-05 4.01925e-05 4.39304e-05 4.7965e-05 5.24539e-05 5.77098e-05 6.4324e-05 7.33734e-05 8.69431e-05);
    }
    Table_slave
    {
        type            nutkWallFunction;
        Cmu             0.09;
        kappa           0.41;
        E               9.8;
        value           nonuniform List<scalar> 9(9.20869e-05 9.27623e-05 9.36651e-05 9.48439e-05 9.65251e-05 9.89836e-05 0.000102616 0.000108115 0.000116877);
    }
    inlet
    {
        type            calculated;
        value           uniform 0.0196293;
    }
    outlet
    {
        type            calculated;
        value           nonuniform List<scalar> 2(0.00108941 0.00153281);
    }
}


// ************************************************************************* //
