/*--------------------------------*- C++ -*----------------------------------*\
  =========                 |
  \\      /  F ield         | OpenFOAM: The Open Source CFD Toolbox
   \\    /   O peration     | Website:  https://openfoam.org
    \\  /    A nd           | Version:  6
     \\/     M anipulation  |
\*---------------------------------------------------------------------------*/
FoamFile
{
    version     2.0;
    format      ascii;
    class       volScalarField;
    location    "1000";
    object      epsilon;
}
// * * * * * * * * * * * * * * * * * * * * * * * * * * * * * * * * * * * * * //

dimensions      [0 2 -3 0 0 0 0];

internalField   nonuniform List<scalar> 
459
(
9.76011e-05
0.000106982
7.42862e-05
7.83913e-05
8.44066e-05
9.05753e-05
9.70141e-05
0.000104131
0.000111701
0.000119105
0.000126176
0.00013261
0.000137999
0.000141713
0.000141615
9.67071e-06
8.21822e-06
5.69799e-06
3.87035e-06
3.26322e-06
3.15823e-06
3.33523e-06
3.86118e-06
4.48581e-06
5.07741e-06
5.48021e-06
5.48152e-06
5.45812e-06
5.88051e-06
7.05284e-06
9.38822e-06
1.23676e-05
2.32168e-05
1.7054e-05
0.0005148
0.00107414
0.000122492
6.22778e-05
5.92442e-05
6.12257e-05
6.41488e-05
6.78032e-05
7.22396e-05
7.73497e-05
8.35815e-05
9.1536e-05
0.000101865
0.000115163
0.000134535
0.000189345
4.18288e-05
2.36698e-05
2.24175e-05
1.29637e-05
8.98362e-06
7.86615e-06
7.69761e-06
7.84785e-06
9.46239e-06
1.13073e-05
1.29556e-05
1.43551e-05
1.58742e-05
1.80307e-05
2.16041e-05
2.70582e-05
3.26845e-05
4.52818e-05
0.000107039
5.61583e-05
0.00141425
0.00381361
0.000427955
0.000109649
8.09221e-05
7.88799e-05
8.07195e-05
8.35752e-05
8.71832e-05
9.11785e-05
9.61022e-05
0.000102628
0.000111317
0.000122321
0.000136087
0.000159215
0.000222231
6.20539e-05
3.6726e-05
1.87237e-05
1.4351e-05
1.30759e-05
1.22399e-05
8.79796e-06
1.04849e-05
1.2742e-05
1.55811e-05
1.9406e-05
2.5006e-05
3.3827e-05
4.92701e-05
7.97827e-05
6.21109e-05
9.58665e-05
0.000247042
0.000115927
0.00295087
0.00860639
0.00136115
0.000294884
0.000160829
0.000135038
0.000127029
0.000123868
0.000123159
0.000123248
0.000124726
0.00012843
0.000134821
0.000143297
0.000151736
0.000157454
0.000162159
0.000186369
5.53207e-05
3.68596e-05
2.96826e-05
3.08669e-05
3.55476e-05
4.41081e-05
5.98904e-05
5.89815e-05
5.88823e-05
5.95268e-05
6.12959e-05
6.47512e-05
7.09504e-05
8.23475e-05
0.000105596
6.73453e-05
0.000101399
0.000223172
0.000114775
0.00511111
0.0146578
0.00344707
0.000949926
0.000459126
0.000317171
0.000254826
0.000219857
0.000198506
0.000183767
0.000174524
0.000170973
0.000173233
0.000180085
0.000187716
0.000189198
0.000175547
0.000138699
9.04718e-05
6.31257e-05
5.30748e-05
5.02493e-05
5.01163e-05
5.05513e-05
5.06048e-05
4.95555e-05
4.87352e-05
4.82808e-05
4.83148e-05
4.90088e-05
5.06061e-05
5.34564e-05
5.77489e-05
6.20869e-05
7.13972e-05
8.65542e-05
0.000108382
8.91907e-05
0.000101865
0.000116621
0.00776732
0.0196748
0.00716071
0.00282941
0.00147801
0.000921441
0.000635395
0.000473647
0.000369558
0.000303943
0.000261561
0.000235934
0.000224221
0.000223938
0.00023022
0.000234078
0.000223371
0.000190924
0.00015023
0.000119474
0.000101327
9.10991e-05
8.56733e-05
8.27229e-05
8.05777e-05
7.86351e-05
7.70844e-05
7.59386e-05
7.52145e-05
7.49921e-05
7.54034e-05
7.6661e-05
7.90046e-05
8.21739e-05
8.5153e-05
8.72417e-05
9.1757e-05
0.000109723
0.000154184
0.000230284
0.0103005
0.0206547
0.012486
0.00739066
0.00435175
0.00262149
0.00166467
0.00111661
0.000781331
0.00056591
0.00043171
0.000349061
0.000300563
0.00027795
0.000274492
0.000279342
0.000275956
0.000254932
0.000223031
0.000192931
0.000170241
0.00015463
0.000144741
0.000138708
0.000134757
0.000131927
0.000129885
0.000128396
0.000127354
0.000126835
0.000127048
0.000128289
0.000130782
0.000134004
0.000135986
0.000134915
0.000135528
0.000161241
0.000251415
0.000386495
0.0101147
0.0205809
0.0192025
0.014289
0.009329
0.00573668
0.00355746
0.00226374
0.00148636
0.0010133
0.000718332
0.000532885
0.000420449
0.000359201
0.000333352
0.000329645
0.000332091
0.000326701
0.000310527
0.000289826
0.000270438
0.000254876
0.000243863
0.000236769
0.00023241
0.000229874
0.000228569
0.000227875
0.000227444
0.000227357
0.000227958
0.000229668
0.000232689
0.000236265
0.000237709
0.000232773
0.00022165
0.000234881
0.000377147
0.000585079
0.00865509
0.0126402
0.0505801
0.0353991
0.0196082
0.0107433
0.00605738
0.00356339
0.002205
0.00144225
0.00100069
0.000740037
0.000585861
0.000497749
0.000454315
0.000442458
0.000448633
0.000457927
0.000462187
0.000460639
0.000455673
0.000449967
0.000445679
0.000443492
0.000443328
0.000444904
0.000447728
0.000450564
0.000452765
0.000454617
0.000456808
0.000459964
0.000464167
0.000468175
0.000468502
0.000459139
0.000434379
0.00040931
0.000507401
0.000862232
0.136821
0.100781
0.0218946
0.00928378
0.0051616
0.00320485
0.00215465
0.00156176
0.0012206
0.00102621
0.000920635
0.000870318
0.000855311
0.000862002
0.000881539
0.000907906
0.000934888
0.00095828
0.000976687
0.000991115
0.00100446
0.00101706
0.00102963
0.00104281
0.00105647
0.00106745
0.00107474
0.0010797
0.00108407
0.00108912
0.00109496
0.00109984
0.00109904
0.00108353
0.00103956
0.000961485
0.000962097
0.00138563
0.0847065
0.0414177
0.0145447
0.00702006
0.00429205
0.00312641
0.00256497
0.002283
0.00215424
0.00211716
0.00213512
0.00218501
0.00225249
0.00232833
0.00240414
0.0024717
0.00252672
0.00256959
0.00260332
0.0026316
0.00265675
0.00268177
0.00270832
0.00273745
0.00276857
0.00279315
0.00280863
0.00281842
0.00282648
0.0028349
0.00284284
0.00284544
0.00283238
0.0027874
0.00269618
0.00257941
0.00274855
0.00250776
0.00127645
0.00307566
0.0263276
0.0148014
0.00668855
0.00356064
0.00273006
0.00229861
0.00203542
0.00186767
0.00176116
0.00169672
0.00166149
0.00164622
0.00164444
0.00165146
0.00166365
0.00167781
0.00169096
0.00170105
0.00170733
0.00171015
0.00171054
0.00170924
0.00170704
0.00170437
0.00170125
0.00169989
0.00169756
0.00169205
0.00168319
0.00167116
0.00165543
0.00163403
0.00160291
0.00155548
0.00148301
0.00137889
0.0012655
0.000891058
)
;

boundaryField
{
    floor
    {
        Cmu             0.09;
        kappa           0.41;
        E               9.8;
        type            epsilonWallFunction;
        value           nonuniform List<scalar> 
29
(
0.000141615
9.67071e-06
8.21822e-06
5.69799e-06
3.87035e-06
3.26322e-06
3.15823e-06
3.33523e-06
3.86118e-06
4.48581e-06
5.07741e-06
5.48021e-06
5.48152e-06
5.45812e-06
5.88051e-06
7.05284e-06
9.38822e-06
1.23676e-05
2.32168e-05
1.7054e-05
1.7054e-05
5.61583e-05
0.000115927
0.000114775
0.000141615
9.67071e-06
2.36698e-05
6.20539e-05
0.000186369
)
;
    }
    ceiling
    {
        Cmu             0.09;
        kappa           0.41;
        E               9.8;
        type            epsilonWallFunction;
        value           nonuniform List<scalar> 
43
(
0.00127645
0.00307566
0.0263276
0.0148014
0.00668855
0.00356064
0.00273006
0.00229861
0.00203542
0.00186767
0.00176116
0.00169672
0.00166149
0.00164622
0.00164444
0.00165146
0.00166365
0.00167781
0.00169096
0.00170105
0.00170733
0.00171015
0.00171054
0.00170924
0.00170704
0.00170437
0.00170125
0.00169989
0.00169756
0.00169205
0.00168319
0.00167116
0.00165543
0.00163403
0.00160291
0.00155548
0.00148301
0.00137889
0.0012655
0.000891058
0.00865509
0.0126402
0.0847065
)
;
    }
    sWall
    {
        Cmu             0.09;
        kappa           0.41;
        E               9.8;
        type            epsilonWallFunction;
        value           uniform 0.00127645;
    }
    nWall
    {
        Cmu             0.09;
        kappa           0.41;
        E               9.8;
        type            epsilonWallFunction;
        value           nonuniform List<scalar> 6(0.000116621 0.000230284 0.000386495 0.00138563 0.00250776 0.000891058);
    }
    sideWalls
    {
        type            empty;
    }
    glass1
    {
        Cmu             0.09;
        kappa           0.41;
        E               9.8;
        type            epsilonWallFunction;
        value           nonuniform List<scalar> 9(9.76011e-05 0.0005148 0.00141425 0.00295087 0.00511111 0.00776732 0.0103005 0.0101147 0.00865509);
    }
    glass2
    {
        Cmu             0.09;
        kappa           0.41;
        E               9.8;
        type            epsilonWallFunction;
        value           nonuniform List<scalar> 2(0.000585079 0.000862232);
    }
    sun
    {
        Cmu             0.09;
        kappa           0.41;
        E               9.8;
        type            epsilonWallFunction;
        value           nonuniform List<scalar> 
14
(
9.76011e-05
0.000106982
7.42862e-05
7.83913e-05
8.44066e-05
9.05753e-05
9.70141e-05
0.000104131
0.000111701
0.000119105
0.000126176
0.00013261
0.000137999
0.000141713
)
;
    }
    heatsource1
    {
        Cmu             0.09;
        kappa           0.41;
        E               9.8;
        type            epsilonWallFunction;
        value           nonuniform List<scalar> 3(8.91907e-05 0.000101865 0.000116621);
    }
    heatsource2
    {
        Cmu             0.09;
        kappa           0.41;
        E               9.8;
        type            epsilonWallFunction;
        value           nonuniform List<scalar> 4(0.000189345 4.18288e-05 4.18288e-05 0.000222231);
    }
    Table_master
    {
        Cmu             0.09;
        kappa           0.41;
        E               9.8;
        type            epsilonWallFunction;
        value           nonuniform List<scalar> 9(8.79796e-06 1.04849e-05 1.2742e-05 1.55811e-05 1.9406e-05 2.5006e-05 3.3827e-05 4.92701e-05 7.97827e-05);
    }
    Table_slave
    {
        Cmu             0.09;
        kappa           0.41;
        E               9.8;
        type            epsilonWallFunction;
        value           nonuniform List<scalar> 9(5.98904e-05 5.89815e-05 5.88823e-05 5.95268e-05 6.12959e-05 6.47512e-05 7.09504e-05 8.23475e-05 0.000105596);
    }
    inlet
    {
        type            turbulentMixingLengthDissipationRateInlet;
        mixingLength    0.01;
        phi             phi;
        k               k;
        value           uniform 3.77337e-06;
    }
    outlet
    {
        type            zeroGradient;
    }
}


// ************************************************************************* //
