/*--------------------------------*- C++ -*----------------------------------*\
  =========                 |
  \\      /  F ield         | OpenFOAM: The Open Source CFD Toolbox
   \\    /   O peration     | Website:  https://openfoam.org
    \\  /    A nd           | Version:  6
     \\/     M anipulation  |
\*---------------------------------------------------------------------------*/
FoamFile
{
    version     2.0;
    format      ascii;
    class       volScalarField;
    location    "1000";
    object      nut;
}
// * * * * * * * * * * * * * * * * * * * * * * * * * * * * * * * * * * * * * //

dimensions      [0 2 -1 0 0 0 0];

internalField   nonuniform List<scalar> 
459
(
0.000650926
0.000671146
0.000594307
0.000605055
0.000620149
0.000634901
0.0006496
0.000665111
0.00068085
0.000695572
0.000709072
0.000720923
0.000730561
0.000737056
0.000736888
0.000301224
0.000285316
0.000252519
0.000221971
0.000209697
0.000207423
0.000211228
0.000221794
0.000233161
0.000242991
0.000249254
0.000249274
0.00024892
0.000255183
0.000271127
0.000298252
0.000326955
0.000403336
0.000363928
0.00113309
0.00229438
0.00175916
0.00248253
0.00275726
0.00291386
0.00302185
0.0030836
0.00311291
0.00311096
0.00306632
0.00295505
0.00273204
0.0023167
0.00161733
0.000811805
0.000490746
0.000405942
0.0011444
0.00102611
0.000831795
0.000693653
0.000625306
0.000613125
0.000684883
0.000762781
0.000823087
0.000860132
0.000871082
0.000889146
0.000945852
0.00107231
0.00130288
0.00133266
0.00161499
0.000541424
0.00158694
0.00417067
0.00222239
0.00322343
0.00405459
0.00438745
0.00456057
0.00464478
0.00466538
0.00464341
0.00457169
0.00442574
0.00415495
0.00367018
0.00287137
0.00181573
0.00085632
0.000559717
0.00144277
0.00112684
0.000788553
0.000567161
0.000417764
0.000291859
0.000309434
0.000330211
0.000353112
0.00037992
0.000413425
0.000457233
0.000518298
0.000608633
0.00168834
0.00187299
0.00239467
0.000689378
0.00202785
0.00661441
0.00362856
0.00351211
0.00437738
0.00489109
0.00519728
0.0053806
0.00547015
0.00552432
0.00555134
0.00553775
0.00543979
0.0051658
0.00456903
0.00348963
0.00197123
0.000807533
0.00182697
0.00220527
0.00178449
0.00137129
0.00103949
0.000770491
0.000553131
0.000550321
0.000550013
0.000552014
0.00055743
0.000567714
0.000585283
0.000615081
0.000668242
0.00186445
0.00190902
0.00219211
0.000687079
0.00243532
0.00921201
0.00620855
0.00487197
0.00482011
0.00503127
0.00529457
0.00552995
0.00568869
0.00583159
0.00598773
0.00616636
0.00634813
0.00647957
0.00648474
0.00628998
0.00585832
0.00523991
0.0048328
0.00435881
0.00397452
0.00372272
0.00354777
0.00337769
0.00322522
0.0031276
0.00303705
0.00294726
0.00285643
0.00276357
0.00266828
0.00257149
0.00247216
0.00236016
0.00197222
0.00151017
0.00111231
0.000631645
0.000660251
0.000690719
0.00279988
0.011347
0.00926496
0.007266
0.0062513
0.00574174
0.0055589
0.00555686
0.00562477
0.00572774
0.00590287
0.00617487
0.00653627
0.00692529
0.00724312
0.00738686
0.00728045
0.00690714
0.00639561
0.00588652
0.00548549
0.00518589
0.00496028
0.00477987
0.00462426
0.00448286
0.0043501
0.00422305
0.00409832
0.00397152
0.0038368
0.00368624
0.00350692
0.00326922
0.00291736
0.00244517
0.00193057
0.00153456
0.00126289
0.000866527
0.0030761
0.0120076
0.0106513
0.00904092
0.0078795
0.00693319
0.00629487
0.00589613
0.00566084
0.00556468
0.00560365
0.00579424
0.00616015
0.0066651
0.00719195
0.00756786
0.00766959
0.00749452
0.00712958
0.00670779
0.00632458
0.00600437
0.00574506
0.00553343
0.00535265
0.00519047
0.00504196
0.00490449
0.00477487
0.00464919
0.00452357
0.00439439
0.00425681
0.00409622
0.00387321
0.00352083
0.00296982
0.00231014
0.00179838
0.00102977
0.00305748
0.00971908
0.00907155
0.00915298
0.00857154
0.0077061
0.00692924
0.00631506
0.00586292
0.00556607
0.00542438
0.00545967
0.00569584
0.0061166
0.00663663
0.00710221
0.00737051
0.00739386
0.00721831
0.00693995
0.00664182
0.00636551
0.00612577
0.00592295
0.00574941
0.00559665
0.00545926
0.00533445
0.00521874
0.0051082
0.00500002
0.00489318
0.00478751
0.00467894
0.00455011
0.00436434
0.00403594
0.00340685
0.00265689
0.0011824
0.0029027
0.00329328
0.00981283
0.0103493
0.00922241
0.00805838
0.00711824
0.00642477
0.00594804
0.0056547
0.00551952
0.00552444
0.00565159
0.00588154
0.00618321
0.00649063
0.00672188
0.0068314
0.00681707
0.00671481
0.00656965
0.00641393
0.00626468
0.00613076
0.00601345
0.00591001
0.00581661
0.00573035
0.00564737
0.00556392
0.00547773
0.00538797
0.00529433
0.00519492
0.00508313
0.00494462
0.00474861
0.00440331
0.00365039
0.00134558
0.0196457
0.0175299
0.0106834
0.00855037
0.00752232
0.00689113
0.00650928
0.00630434
0.00621649
0.00619446
0.00620332
0.00623012
0.00627722
0.00634749
0.00643515
0.00652231
0.00658906
0.00662628
0.00663632
0.0066259
0.00660051
0.00656919
0.006537
0.00650554
0.00647301
0.00643493
0.00638793
0.00633094
0.00626395
0.00618685
0.00609885
0.00599789
0.00587961
0.0057344
0.00553592
0.00519598
0.00434347
0.00157613
0.00620899
0.0115693
0.00853165
0.00740639
0.00691186
0.00670192
0.00662287
0.00660583
0.00662184
0.00665636
0.0067015
0.00675451
0.00681545
0.00688375
0.00695556
0.00702428
0.00708409
0.00713228
0.00716912
0.00719695
0.00721856
0.00723714
0.00725481
0.00727243
0.00728718
0.00728461
0.00726269
0.00722607
0.00717794
0.00711842
0.00704428
0.00694872
0.00682081
0.00664423
0.00639272
0.00600984
0.00534502
0.00192077
0.00153356
0.00205593
0.00420582
0.0034712
0.00266374
0.00215881
0.00197589
0.00186579
0.00179169
0.00174106
0.00170732
0.00168624
0.00167448
0.00166934
0.00166874
0.00167111
0.00167521
0.00167995
0.00168433
0.00168768
0.00168975
0.00169068
0.00169081
0.00169038
0.00168966
0.00168878
0.00168774
0.00168729
0.00168652
0.0016847
0.00168175
0.00167774
0.00167246
0.00166522
0.00165458
0.0016381
0.00161226
0.00157361
0.00152923
0.00136045
)
;

boundaryField
{
    floor
    {
        type            nutkWallFunction;
        Cmu             0.09;
        kappa           0.41;
        E               9.8;
        value           nonuniform List<scalar> 
29
(
8.92322e-05
3.34898e-05
3.13123e-05
2.67706e-05
2.24681e-05
2.07171e-05
2.03909e-05
2.09357e-05
2.24424e-05
2.40526e-05
2.54364e-05
2.63141e-05
2.63169e-05
2.62672e-05
2.7142e-05
2.93561e-05
3.30841e-05
3.6981e-05
4.7148e-05
4.19335e-05
4.19334e-05
6.49449e-05
8.34051e-05
8.3122e-05
8.92322e-05
3.34897e-05
4.74909e-05
6.72606e-05
9.78093e-05
)
;
    }
    ceiling
    {
        type            nutkWallFunction;
        Cmu             0.09;
        kappa           0.41;
        E               9.8;
        value           nonuniform List<scalar> 
43
(
0.000182095
0.00023982
0.00046416
0.000389213
0.000304925
0.000250898
0.000231008
0.000218941
0.000210775
0.000205175
0.000201433
0.000199091
0.000197784
0.000197212
0.000197145
0.000197408
0.000197864
0.000198391
0.000198877
0.000199249
0.000199479
0.000199581
0.000199595
0.000199547
0.000199466
0.000199367
0.000199252
0.000199201
0.000199115
0.000198911
0.000198583
0.000198135
0.000197547
0.000196741
0.000195556
0.000193718
0.000190833
0.00018651
0.000181532
0.000162451
0.00033019
0.000370914
0.000662529
)
;
    }
    sWall
    {
        type            nutkWallFunction;
        Cmu             0.09;
        kappa           0.41;
        E               9.8;
        value           uniform 0.000182133;
    }
    nWall
    {
        type            nutkWallFunction;
        Cmu             0.09;
        kappa           0.41;
        E               9.8;
        value           nonuniform List<scalar> 6(8.35701e-05 0.000104908 0.000124266 0.000186805 0.000224968 0.00016246);
    }
    sideWalls
    {
        type            empty;
    }
    glass1
    {
        type            nutkWallFunction;
        Cmu             0.09;
        kappa           0.41;
        E               9.8;
        value           nonuniform List<scalar> 9(7.86123e-05 0.00013641 0.000188182 0.000236906 0.00028092 0.000319639 0.000348626 0.00034669 0.000330485);
    }
    glass2
    {
        type            nutkWallFunction;
        Cmu             0.09;
        kappa           0.41;
        E               9.8;
        value           nonuniform List<scalar> 2(0.00014205 0.000160774);
    }
    sun
    {
        type            nutkWallFunction;
        Cmu             0.09;
        kappa           0.41;
        E               9.8;
        value           nonuniform List<scalar> 
14
(
7.86574e-05
8.11593e-05
7.16054e-05
7.29508e-05
7.48351e-05
7.66713e-05
7.84959e-05
8.04157e-05
8.23584e-05
8.41707e-05
8.58284e-05
8.72806e-05
8.84595e-05
8.92528e-05
)
;
    }
    heatsource1
    {
        type            nutkWallFunction;
        Cmu             0.09;
        kappa           0.41;
        E               9.8;
        value           nonuniform List<scalar> 3(7.6264e-05 7.98124e-05 8.35704e-05);
    }
    heatsource2
    {
        type            nutkWallFunction;
        Cmu             0.09;
        kappa           0.41;
        E               9.8;
        value           nonuniform List<scalar> 4(9.83258e-05 5.8482e-05 5.84819e-05 0.000103682);
    }
    Table_master
    {
        type            nutkWallFunction;
        Cmu             0.09;
        kappa           0.41;
        E               9.8;
        value           nonuniform List<scalar> 9(3.21964e-05 3.45953e-05 3.74086e-05 4.04829e-05 4.40496e-05 4.84627e-05 5.41658e-05 6.20037e-05 7.33958e-05);
    }
    Table_slave
    {
        type            nutkWallFunction;
        Cmu             0.09;
        kappa           0.41;
        E               9.8;
        value           nonuniform List<scalar> 9(6.6421e-05 6.60654e-05 6.60264e-05 6.62793e-05 6.69635e-05 6.82607e-05 7.04702e-05 7.41992e-05 8.07985e-05);
    }
    inlet
    {
        type            calculated;
        value           uniform 3.3541e-05;
    }
    outlet
    {
        type            calculated;
        value           nonuniform List<scalar> 2(0.00153356 0.00205593);
    }
}


// ************************************************************************* //
