/*--------------------------------*- C++ -*----------------------------------*\
  =========                 |
  \\      /  F ield         | OpenFOAM: The Open Source CFD Toolbox
   \\    /   O peration     | Website:  https://openfoam.org
    \\  /    A nd           | Version:  6
     \\/     M anipulation  |
\*---------------------------------------------------------------------------*/
FoamFile
{
    version     2.0;
    format      ascii;
    class       volScalarField;
    location    "1700";
    object      T;
}
// * * * * * * * * * * * * * * * * * * * * * * * * * * * * * * * * * * * * * //

dimensions      [0 0 0 1 0 0 0];

internalField   nonuniform List<scalar> 
459
(
303.513
303.258
303.243
303.239
303.234
303.229
303.224
303.216
303.206
303.194
303.184
303.179
303.18
303.188
303.212
303.359
303.332
303.32
303.325
303.333
303.341
303.349
303.357
303.365
303.373
303.381
303.389
303.397
303.405
303.413
303.422
303.432
303.445
303.471
303.682
303.299
303.274
303.274
303.275
303.273
303.268
303.255
303.232
303.206
303.183
303.167
303.162
303.165
303.175
303.18
303.191
303.362
303.304
303.296
303.303
303.313
303.324
303.331
303.337
303.344
303.35
303.356
303.362
303.369
303.375
303.383
303.392
303.404
303.421
303.459
303.86
303.35
303.311
303.32
303.331
303.338
303.337
303.317
303.277
303.23
303.188
303.161
303.151
303.154
303.163
303.171
303.179
303.287
303.274
303.279
303.295
303.314
303.331
303.334
303.339
303.344
303.349
303.355
303.36
303.366
303.372
303.379
303.387
303.398
303.415
303.454
304.041
303.413
303.351
303.368
303.396
303.42
303.428
303.397
303.33
303.256
303.193
303.153
303.14
303.145
303.157
303.169
303.179
303.192
303.213
303.242
303.275
303.308
303.338
303.363
303.383
303.4
303.416
303.429
303.442
303.453
303.463
303.472
303.478
303.452
303.432
303.427
303.455
304.22
303.493
303.397
303.414
303.459
303.506
303.521
303.47
303.369
303.268
303.188
303.142
303.128
303.137
303.157
303.178
303.198
303.222
303.251
303.286
303.324
303.36
303.393
303.422
303.447
303.468
303.486
303.5
303.511
303.518
303.522
303.522
303.516
303.496
303.466
303.445
303.457
303.55
303.611
303.612
304.382
303.597
303.474
303.475
303.528
303.594
303.583
303.499
303.376
303.256
303.166
303.118
303.11
303.131
303.167
303.203
303.238
303.273
303.312
303.353
303.393
303.43
303.463
303.49
303.513
303.533
303.548
303.561
303.568
303.571
303.569
303.562
303.551
303.529
303.499
303.469
303.464
303.506
303.53
303.568
304.535
303.761
303.64
303.631
303.67
303.687
303.612
303.474
303.319
303.188
303.104
303.074
303.09
303.136
303.196
303.254
303.305
303.352
303.396
303.437
303.476
303.509
303.537
303.56
303.578
303.593
303.605
303.613
303.617
303.616
303.608
303.597
303.581
303.56
303.531
303.501
303.487
303.499
303.513
303.544
304.751
304.174
304.041
303.985
303.919
303.765
303.55
303.329
303.149
303.037
302.998
303.02
303.084
303.171
303.264
303.342
303.404
303.453
303.494
303.529
303.559
303.585
303.606
303.622
303.635
303.645
303.651
303.654
303.654
303.649
303.641
303.628
303.612
303.592
303.57
303.547
303.538
303.551
303.57
303.687
305.062
304.787
304.54
304.288
303.882
303.437
303.082
302.862
302.774
302.792
302.884
303.011
303.143
303.277
303.397
303.469
303.518
303.554
303.585
303.61
303.632
303.649
303.663
303.673
303.68
303.683
303.685
303.683
303.679
303.675
303.67
303.667
303.665
303.668
303.677
303.697
303.726
303.757
303.777
303.829
296.025
297.314
298.781
300.034
300.99
301.722
302.269
302.681
303.011
303.234
303.369
303.463
303.529
303.575
303.609
303.636
303.658
303.676
303.69
303.7
303.706
303.71
303.712
303.713
303.712
303.71
303.708
303.706
303.704
303.704
303.705
303.71
303.721
303.738
303.76
303.785
303.809
303.84
296.681
298.469
300.255
301.41
302.114
302.593
302.927
303.161
303.331
303.451
303.531
303.587
303.627
303.656
303.678
303.696
303.71
303.72
303.727
303.732
303.735
303.736
303.736
303.735
303.734
303.732
303.731
303.729
303.728
303.728
303.729
303.732
303.738
303.749
303.764
303.784
303.789
303.822
299.896
299.817
299.812
301.77
302.575
302.935
303.146
303.302
303.42
303.508
303.575
303.623
303.658
303.682
303.7
303.713
303.722
303.729
303.733
303.736
303.738
303.739
303.739
303.739
303.739
303.739
303.738
303.738
303.738
303.738
303.738
303.738
303.739
303.74
303.744
303.751
303.76
303.767
303.772
303.816
)
;

boundaryField
{
    floor
    {
        type            wallHeatTransfer;
        Tinf            uniform 305.2;
        alphaWall       uniform 0.24;
        value           nonuniform List<scalar> 
29
(
303.424
303.692
303.631
303.593
303.59
303.6
303.614
303.634
303.655
303.677
303.697
303.718
303.737
303.756
303.775
303.793
303.812
303.833
303.855
303.901
303.901
303.841
303.809
303.791
303.424
303.692
303.69
303.51
303.357
)
;
    }
    ceiling
    {
        type            wallHeatTransfer;
        Tinf            uniform 303.2;
        alphaWall       uniform 0.24;
        value           nonuniform List<scalar> 
43
(
300.131
300.047
300.035
301.858
302.614
302.952
303.15
303.295
303.404
303.484
303.542
303.584
303.612
303.631
303.644
303.653
303.659
303.663
303.666
303.666
303.666
303.666
303.665
303.664
303.663
303.663
303.663
303.663
303.664
303.666
303.668
303.671
303.674
303.678
303.684
303.693
303.702
303.708
303.709
303.745
304.976
304.723
297.11
)
;
    }
    sWall
    {
        type            wallHeatTransfer;
        Tinf            uniform 315.2;
        alphaWall       uniform 0.36;
        value           uniform 301.48;
    }
    nWall
    {
        type            wallHeatTransfer;
        Tinf            uniform 307.2;
        alphaWall       uniform 0.36;
        value           nonuniform List<scalar> 6(304.295 304.239 304.159 304.327 304.303 304.372);
    }
    sideWalls
    {
        type            empty;
    }
    glass1
    {
        type            wallHeatTransfer;
        Tinf            uniform 315.2;
        alphaWall       uniform 4.3;
        value           nonuniform List<scalar> 9(311.399 310.793 310.413 310.126 309.887 309.668 309.511 309.587 309.814);
    }
    glass2
    {
        type            wallHeatTransfer;
        Tinf            uniform 307.2;
        alphaWall       uniform 4.3;
        value           nonuniform List<scalar> 2(305.886 305.977);
    }
    sun
    {
        type            wallHeatTransfer;
        Tinf            uniform 305.2;
        alphaWall       uniform 0.24;
        value           nonuniform List<scalar> 
14
(
303.685
303.442
303.425
303.414
303.404
303.394
303.384
303.373
303.361
303.35
303.344
303.343
303.353
303.376
)
;
    }
    heatsource1
    {
        type            fixedGradient;
        gradient        uniform 0;
    }
    heatsource2
    {
        type            fixedGradient;
        gradient        uniform 0;
    }
    Table_master
    {
        type            zeroGradient;
    }
    Table_slave
    {
        type            zeroGradient;
    }
    inlet
    {
        type            fixedValue;
        value           uniform 293.15;
    }
    outlet
    {
        type            zeroGradient;
    }
}


// ************************************************************************* //
