/*--------------------------------*- C++ -*----------------------------------*\
  =========                 |
  \\      /  F ield         | OpenFOAM: The Open Source CFD Toolbox
   \\    /   O peration     | Website:  https://openfoam.org
    \\  /    A nd           | Version:  6
     \\/     M anipulation  |
\*---------------------------------------------------------------------------*/
FoamFile
{
    version     2.0;
    format      ascii;
    class       volScalarField;
    location    "300";
    object      epsilon;
}
// * * * * * * * * * * * * * * * * * * * * * * * * * * * * * * * * * * * * * //

dimensions      [0 2 -3 0 0 0 0];

internalField   nonuniform List<scalar> 
459
(
0.000764545
0.00105314
0.00119827
0.00141627
0.00165387
0.00193115
0.00218552
0.00235428
0.00239515
0.00228983
0.00204333
0.00156936
0.00117211
0.000774729
0.000493018
6.55247e-05
0.000108467
0.000170732
0.000221757
0.000230149
0.000204016
0.000150481
0.000106667
7.60089e-05
5.48408e-05
4.02484e-05
3.03077e-05
2.32872e-05
1.8163e-05
1.42732e-05
1.11221e-05
8.30902e-06
7.63634e-06
5.83176e-06
0.0015732
0.00197361
0.000977211
0.00100217
0.00111264
0.00130275
0.001518
0.00167491
0.00172068
0.00164102
0.00144854
0.0011832
0.000958732
0.000760845
0.000588752
0.00101017
0.000515597
6.53608e-05
8.74254e-05
0.000192294
0.000222024
0.000220061
0.000203524
0.000193704
0.000139218
9.52688e-05
6.52522e-05
4.54104e-05
3.25069e-05
2.39801e-05
1.8323e-05
1.48639e-05
1.30154e-05
1.16792e-05
3.19512e-05
2.27568e-05
0.00254897
0.00397878
0.00105988
0.000950403
0.00110713
0.00138803
0.00165898
0.00181968
0.00185365
0.00176371
0.00156522
0.00133543
0.00111647
0.000919473
0.000742179
0.000732585
0.000992245
9.76262e-05
0.000218078
0.000265053
0.000279916
0.000269608
0.000257847
0.000468384
0.000278116
0.000167967
0.00010539
6.97662e-05
4.91832e-05
3.68473e-05
2.91674e-05
2.43254e-05
1.8334e-05
1.49706e-05
4.32282e-05
3.32425e-05
0.0037937
0.00768777
0.00148083
0.00101013
0.00122322
0.00167221
0.00195543
0.00206759
0.00205997
0.00194389
0.00174222
0.00149445
0.00124545
0.00102936
0.00085399
0.000762856
0.000796791
0.0013944
0.000847466
0.000598272
0.000469073
0.000395482
0.000343905
0.000320996
0.000760594
0.000562271
0.000430735
0.000337375
0.00026526
0.000206701
0.000157869
0.000116562
8.06334e-05
3.95806e-05
2.20965e-05
5.28441e-05
4.00114e-05
0.00545898
0.0135105
0.00276381
0.00137826
0.00176259
0.00232809
0.00247734
0.00247943
0.00240413
0.00224092
0.00198171
0.00166059
0.00133856
0.00106544
0.000860785
0.000733755
0.000705041
0.000766578
0.000671858
0.000587031
0.000521354
0.000461915
0.000402012
0.000346706
0.000325787
0.000290663
0.000255556
0.000221488
0.000186791
0.0001519
0.000117987
8.66972e-05
5.91363e-05
3.52647e-05
2.214e-05
3.57504e-05
4.34014e-05
4.98176e-05
8.36249e-05
0.000147965
0.00773805
0.0203724
0.00632707
0.00295473
0.00347876
0.00346573
0.0032855
0.00311295
0.00293307
0.00267618
0.00230826
0.00186703
0.00143767
0.00108743
0.000842477
0.000705554
0.00066918
0.000684455
0.000672102
0.000641259
0.000590339
0.000522541
0.000445973
0.000371267
0.000311246
0.000264611
0.000226385
0.000190862
0.000155852
0.000121865
9.05426e-05
6.42202e-05
4.43248e-05
3.14386e-05
2.67731e-05
3.40235e-05
4.72194e-05
5.7457e-05
0.000131456
0.000155141
0.0100561
0.0244636
0.0129368
0.00807256
0.00624126
0.00508022
0.00438391
0.00397593
0.00365929
0.00326623
0.0027324
0.00211352
0.0015438
0.00111042
0.000834191
0.000704321
0.000682903
0.00070421
0.000704605
0.00066979
0.000602916
0.000517566
0.000426624
0.000341471
0.00027245
0.000222176
0.000182974
0.000149493
0.000119591
9.44393e-05
7.56768e-05
6.44484e-05
6.0744e-05
6.52885e-05
7.90291e-05
0.000112365
0.000154949
0.000193239
0.000291968
0.00031162
0.0104302
0.0232694
0.0148893
0.010616
0.00796422
0.00637614
0.00550972
0.00503229
0.00461092
0.00401763
0.00321033
0.00230692
0.00155978
0.00105067
0.000784331
0.000695207
0.000686829
0.000694643
0.000670727
0.000607036
0.000518507
0.00042278
0.000333986
0.00026044
0.000204846
0.000164434
0.000133882
0.000110948
9.62104e-05
9.18743e-05
0.000100247
0.000123191
0.000163175
0.000226565
0.000327765
0.000490698
0.000702864
0.00094876
0.00125634
0.000378869
0.00959337
0.0150215
0.0124002
0.00958481
0.00785317
0.00704504
0.00671631
0.00643316
0.00580378
0.00473289
0.00339565
0.00200098
0.00123918
0.000878058
0.000716884
0.000655905
0.000634242
0.000609898
0.000559579
0.000484834
0.000399653
0.000317753
0.000247775
0.000192744
0.000151844
0.00012241
0.000102276
9.12643e-05
9.05059e-05
0.000101318
0.00012437
0.000159719
0.000207518
0.00026841
0.000342198
0.000424171
0.000501548
0.000564625
0.000598467
0.00048007
0.0013465
0.00514425
0.00751072
0.00820052
0.00806774
0.00706864
0.00500026
0.00321354
0.00199509
0.00126784
0.000901317
0.000722879
0.000637253
0.000593032
0.000559554
0.000517663
0.000461416
0.000396622
0.000332772
0.00027684
0.00023163
0.000196845
0.000170857
0.000152018
0.000139402
0.000132812
0.000132485
0.000139187
0.000154724
0.00018236
0.000226609
0.000292328
0.000382738
0.000494014
0.000612392
0.00072187
0.000523964
0.000517949
0.0025177
0.0115772
0.0102806
0.00757089
0.00556715
0.00393397
0.00264246
0.00176538
0.00122134
0.000914265
0.000751509
0.000664407
0.000615567
0.000584276
0.00055873
0.000532546
0.000503877
0.000474149
0.000445483
0.000419296
0.000396404
0.000377437
0.000362973
0.000353313
0.00034813
0.000346289
0.000345999
0.000345542
0.000344478
0.000344643
0.000349834
0.000363689
0.000387601
0.000410233
0.000425615
0.00039635
0.000453911
0.000534601
0.00249345
0.00294769
0.00353776
0.00458561
0.00421874
0.00362312
0.00305354
0.00246162
0.0019287
0.00151982
0.00124529
0.00107206
0.000962207
0.000887864
0.000830144
0.000776438
0.000719431
0.000657246
0.000593059
0.00053223
0.000479198
0.000436036
0.000402668
0.000377844
0.000360015
0.00034779
0.000340026
0.000335757
0.000334186
0.000334829
0.000337698
0.000343301
0.000352217
0.000363939
0.000376626
0.000372554
0.000333796
0.00026649
0.00027208
0.000540069
)
;

boundaryField
{
    floor
    {
        Cmu             0.09;
        kappa           0.41;
        E               9.8;
        type            epsilonWallFunction;
        value           nonuniform List<scalar> 
29
(
0.000493018
6.55247e-05
0.000108467
0.000170732
0.000221757
0.000230149
0.000204016
0.000150481
0.000106667
7.60089e-05
5.48408e-05
4.02484e-05
3.03077e-05
2.32872e-05
1.8163e-05
1.42732e-05
1.11221e-05
8.30902e-06
7.63634e-06
5.83176e-06
5.83176e-06
2.27568e-05
3.32425e-05
4.00114e-05
0.000493018
6.55247e-05
6.53608e-05
9.76262e-05
0.0013944
)
;
    }
    ceiling
    {
        Cmu             0.09;
        kappa           0.41;
        E               9.8;
        type            epsilonWallFunction;
        value           nonuniform List<scalar> 
43
(
0.00249345
0.00294769
0.00353776
0.00458561
0.00421874
0.00362312
0.00305354
0.00246162
0.0019287
0.00151982
0.00124529
0.00107206
0.000962207
0.000887864
0.000830144
0.000776438
0.000719431
0.000657246
0.000593059
0.00053223
0.000479198
0.000436036
0.000402668
0.000377844
0.000360015
0.00034779
0.000340026
0.000335757
0.000334186
0.000334829
0.000337698
0.000343301
0.000352217
0.000363939
0.000376626
0.000372554
0.000333796
0.00026649
0.00027208
0.000540069
0.00959337
0.0150215
0.0025177
)
;
    }
    sWall
    {
        Cmu             0.09;
        kappa           0.41;
        E               9.8;
        type            epsilonWallFunction;
        value           uniform 0.00249345;
    }
    nWall
    {
        Cmu             0.09;
        kappa           0.41;
        E               9.8;
        type            epsilonWallFunction;
        value           nonuniform List<scalar> 6(0.000147965 0.000155141 0.00031162 0.000517949 0.000534601 0.000540069);
    }
    sideWalls
    {
        type            empty;
    }
    glass1
    {
        Cmu             0.09;
        kappa           0.41;
        E               9.8;
        type            epsilonWallFunction;
        value           nonuniform List<scalar> 9(0.000764545 0.0015732 0.00254897 0.0037937 0.00545898 0.00773805 0.0100561 0.0104302 0.00959337);
    }
    glass2
    {
        Cmu             0.09;
        kappa           0.41;
        E               9.8;
        type            epsilonWallFunction;
        value           nonuniform List<scalar> 2(0.000378869 0.00048007);
    }
    sun
    {
        Cmu             0.09;
        kappa           0.41;
        E               9.8;
        type            epsilonWallFunction;
        value           nonuniform List<scalar> 
14
(
0.000764545
0.00105314
0.00119827
0.00141627
0.00165387
0.00193115
0.00218552
0.00235428
0.00239515
0.00228983
0.00204333
0.00156936
0.00117211
0.000774729
)
;
    }
    heatsource1
    {
        Cmu             0.09;
        kappa           0.41;
        E               9.8;
        type            epsilonWallFunction;
        value           nonuniform List<scalar> 3(4.98176e-05 8.36249e-05 0.000147965);
    }
    heatsource2
    {
        Cmu             0.09;
        kappa           0.41;
        E               9.8;
        type            epsilonWallFunction;
        value           nonuniform List<scalar> 4(0.00101017 0.000515597 0.000515597 0.000992245);
    }
    Table_master
    {
        Cmu             0.09;
        kappa           0.41;
        E               9.8;
        type            epsilonWallFunction;
        value           nonuniform List<scalar> 9(0.000468384 0.000278116 0.000167967 0.00010539 6.97662e-05 4.91832e-05 3.68473e-05 2.91674e-05 2.43254e-05);
    }
    Table_slave
    {
        Cmu             0.09;
        kappa           0.41;
        E               9.8;
        type            epsilonWallFunction;
        value           nonuniform List<scalar> 9(0.000760594 0.000562271 0.000430735 0.000337375 0.00026526 0.000206701 0.000157869 0.000116562 8.06334e-05);
    }
    inlet
    {
        type            turbulentMixingLengthDissipationRateInlet;
        mixingLength    0.01;
        phi             phi;
        k               k;
        value           uniform 0.000101881;
    }
    outlet
    {
        type            zeroGradient;
    }
}


// ************************************************************************* //
