// -*- C++ -*-
// File generated by PyFoam - sorry for the ugliness

FoamFile
{
 version 2.0;
 format ascii;
 class volVectorField;
 location "590";
 object U;
}

dimensions [ 0 1 -1 0 0 0 0 ];

internalField nonuniform List<vector> 459
(
  (0.00972765 0.0573123 0)
  (-0.112641 0.01965 0)
  (-0.135165 0.0123474 0)
  (-0.157206 0.00672257 0)
  (-0.171076 0.000716023 0)
  (-0.175373 -0.00577629 0)
  (-0.16815 -0.012913 0)
  (-0.149395 -0.0206106 0)
  (-0.120193 -0.027539 0)
  (-0.0841605 -0.0321953 0)
  (-0.0465274 -0.0332198 0)
  (-0.0114089 -0.028863 0)
  (0.0168002 -0.0144904 0)
  (0.024341 -0.000440096 0)
  (0.0451536 0.0189676 0)
  (-0.082236 0.00782544 0)
  (0.0205525 -0.00459865 0)
  (0.0135991 -0.0121338 0)
  (0.0282779 -0.0138224 0)
  (0.044241 -0.0123555 0)
  (0.0579399 -0.00943192 0)
  (0.067052 -0.00542899 0)
  (0.0715816 -0.00312547 0)
  (0.0730813 -0.00229128 0)
  (0.073378 -0.00199644 0)
  (0.0733284 -0.00179363 0)
  (0.0730008 -0.00155344 0)
  (0.0722201 -0.00118105 0)
  (0.0706187 -0.000446244 0)
  (0.067357 0.00118979 0)
  (0.0607173 0.00462926 0)
  (0.048834 0.00971275 0)
  (0.0168437 0.0181765 0)
  (0.0587121 0.00664189 0)
  (0.113505 0.117372 0)
  (-0.103568 0.0519493 0)
  (-0.111126 0.0393139 0)
  (-0.133835 0.0281719 0)
  (-0.14804 0.015425 0)
  (-0.153174 0.000666312 0)
  (-0.147119 -0.0163127 0)
  (-0.130366 -0.0336654 0)
  (-0.104457 -0.0480043 0)
  (-0.0732176 -0.0561326 0)
  (-0.0414865 -0.0560634 0)
  (-0.0134031 -0.046786 0)
  (0.0107402 -0.0268077 0)
  (0.0251355 -0.00658842 0)
  (0.0398749 0.0156209 0)
  (0.04088 0.0208035 0)
  (0.0287054 0.026575 0)
  (-0.0959512 0.00466363 0)
  (0.0261362 -0.0236713 0)
  (0.0301817 -0.0262025 0)
  (0.042025 -0.0254537 0)
  (0.0541618 -0.0218583 0)
  (0.0641075 -0.0162202 0)
  (0.0694723 -0.00653594 0)
  (0.070623 -0.000750203 0)
  (0.0704182 0.00146229 0)
  (0.0704435 0.00230094 0)
  (0.0707025 0.00281584 0)
  (0.0708793 0.003267 0)
  (0.0708859 0.00390868 0)
  (0.0706753 0.00523842 0)
  (0.0696461 0.00841959 0)
  (0.065067 0.0167267 0)
  (0.0549589 0.0256575 0)
  (0.0214608 0.0362848 0)
  (0.0983809 0.0262853 0)
  (0.210688 0.176113 0)
  (-0.109925 0.0812343 0)
  (-0.0859078 0.0629479 0)
  (-0.107927 0.0440064 0)
  (-0.121531 0.0230466 0)
  (-0.127178 -0.000983967 0)
  (-0.121484 -0.0280556 0)
  (-0.105517 -0.0551091 0)
  (-0.0819003 -0.0760425 0)
  (-0.0548225 -0.0861975 0)
  (-0.028635 -0.0837125 0)
  (-0.00575708 -0.0687677 0)
  (0.013251 -0.0443151 0)
  (0.0270169 -0.0190884 0)
  (0.0373082 0.0055846 0)
  (0.0403733 0.0236495 0)
  (0.0350715 0.050787 0)
  (-0.0221078 -0.0238385 0)
  (0.0377623 -0.0374883 0)
  (0.049621 -0.039708 0)
  (0.0558293 -0.0363509 0)
  (0.0622851 -0.0311383 0)
  (0.0684046 -0.0263912 0)
  (0.0715664 -0.0191956 0)
  (0.0663107 -0.012388 0)
  (0.0619784 -0.00886319 0)
  (0.0605814 -0.00695996 0)
  (0.0605635 -0.00573873 0)
  (0.0609854 -0.00479429 0)
  (0.0618406 -0.00385147 0)
  (0.0638564 -0.00240038 0)
  (0.0687532 0.00201361 0)
  (0.0693587 0.0221787 0)
  (0.0614948 0.0378506 0)
  (0.0254134 0.0545768 0)
  (0.121902 0.056091 0)
  (0.302011 0.223855 0)
  (-0.127727 0.106159 0)
  (-0.0583996 0.0837886 0)
  (-0.0789528 0.0588604 0)
  (-0.0902373 0.0317603 0)
  (-0.0952101 -0.00060344 0)
  (-0.0878665 -0.0382926 0)
  (-0.0717353 -0.0749123 0)
  (-0.0508967 -0.101214 0)
  (-0.0290547 -0.112216 0)
  (-0.00946621 -0.107124 0)
  (0.00780292 -0.0873718 0)
  (0.0217309 -0.0603061 0)
  (0.0337875 -0.0314978 0)
  (0.0449457 -0.00392086 0)
  (0.0564373 0.0203059 0)
  (0.0712608 0.0445816 0)
  (0.0970705 -0.00316139 0)
  (0.0926855 -0.0216507 0)
  (0.0819658 -0.0344544 0)
  (0.0726463 -0.0387892 0)
  (0.0668429 -0.0367744 0)
  (0.0635965 -0.0320235 0)
  (0.0607413 -0.0256524 0)
  (0.0622363 -0.0157906 0)
  (0.0712772 -0.0110331 0)
  (0.0789687 -0.00851251 0)
  (0.0842815 -0.00699773 0)
  (0.0882749 -0.0057506 0)
  (0.0910872 -0.00433289 0)
  (0.0917625 -0.00233022 0)
  (0.088399 0.000845733 0)
  (0.0786704 0.00582531 0)
  (0.0685686 0.0277964 0)
  (0.0659295 0.0473137 0)
  (0.0351911 0.0695858 0)
  (0.138267 0.0995185 0)
  (0.385964 0.260605 0)
  (-0.153102 0.125014 0)
  (-0.0293909 0.0968336 0)
  (-0.0469133 0.0685279 0)
  (-0.0538028 0.0378876 0)
  (-0.0557349 -0.00097584 0)
  (-0.0429798 -0.0489813 0)
  (-0.0271067 -0.0927775 0)
  (-0.0111278 -0.121214 0)
  (0.0033367 -0.130728 0)
  (0.014649 -0.122112 0)
  (0.0238324 -0.100509 0)
  (0.0318411 -0.0717514 0)
  (0.0393462 -0.0417365 0)
  (0.0475309 -0.0144535 0)
  (0.0580681 0.00727057 0)
  (0.072244 0.0176787 0)
  (0.0834421 -0.00120805 0)
  (0.0822154 -0.0167945 0)
  (0.0739221 -0.0265112 0)
  (0.0652837 -0.0305992 0)
  (0.0581573 -0.0303734 0)
  (0.0527751 -0.0273365 0)
  (0.04918 -0.0218551 0)
  (0.0494434 -0.0131716 0)
  (0.053489 -0.00848636 0)
  (0.057986 -0.00672111 0)
  (0.0620954 -0.00583937 0)
  (0.065992 -0.00466271 0)
  (0.0695097 -0.00240189 0)
  (0.0722775 0.00172766 0)
  (0.0731049 0.00810891 0)
  (0.0714844 0.0173833 0)
  (0.0693536 0.0331293 0)
  (0.0735309 0.0502477 0)
  (0.0654692 0.068286 0)
  (0.119077 0.0998537 0)
  (0.114449 0.078303 0)
  (0.121116 0.0559128 0)
  (-0.221212 0.0479095 0)
  (0.453036 0.29044 0)
  (-0.181735 0.136077 0)
  (-0.00440294 0.0966701 0)
  (-0.0131479 0.0719995 0)
  (-0.0136678 0.0424299 0)
  (-0.00588663 -0.00165618 0)
  (0.013893 -0.0629638 0)
  (0.0266468 -0.107798 0)
  (0.0350368 -0.133302 0)
  (0.0394842 -0.13935 0)
  (0.0409212 -0.128501 0)
  (0.0407285 -0.105353 0)
  (0.0401548 -0.0759883 0)
  (0.0402478 -0.0462757 0)
  (0.0421704 -0.0207846 0)
  (0.0471565 -0.00270034 0)
  (0.0552949 0.00484697 0)
  (0.0599771 -0.00235778 0)
  (0.0584307 -0.0125076 0)
  (0.0523679 -0.0197439 0)
  (0.0451438 -0.0234338 0)
  (0.0384082 -0.0241435 0)
  (0.0329047 -0.0226 0)
  (0.0292691 -0.0192207 0)
  (0.0285392 -0.0146369 0)
  (0.0306018 -0.0120908 0)
  (0.0339035 -0.0112222 0)
  (0.0376621 -0.0106988 0)
  (0.0416952 -0.00959146 0)
  (0.0459216 -0.00712913 0)
  (0.0502426 -0.00231954 0)
  (0.0548742 0.005626 0)
  (0.0584014 0.01641 0)
  (0.0620729 0.0301571 0)
  (0.0695085 0.0442948 0)
  (0.0721815 0.0544825 0)
  (0.0936144 0.0694722 0)
  (0.0914934 0.0542474 0)
  (0.121821 0.052789 0)
  (-0.174334 0.0775825 0)
  (0.495823 0.315943 0)
  (-0.200529 0.124737 0)
  (0.01679 0.0668674 0)
  (0.0273838 0.059565 0)
  (0.0351028 0.0333155 0)
  (0.0584213 -0.0211009 0)
  (0.0775982 -0.0770449 0)
  (0.0854628 -0.116193 0)
  (0.0844426 -0.135898 0)
  (0.0771786 -0.137403 0)
  (0.0663118 -0.123819 0)
  (0.0541969 -0.0996217 0)
  (0.0428568 -0.0707103 0)
  (0.0338305 -0.0426606 0)
  (0.0284147 -0.0200464 0)
  (0.0272206 -0.00523701 0)
  (0.0296444 0.00083143 0)
  (0.0309743 -0.00218001 0)
  (0.0291973 -0.00855328 0)
  (0.0245227 -0.0139326 0)
  (0.0185452 -0.0171802 0)
  (0.0125508 -0.0184538 0)
  (0.00743233 -0.0182391 0)
  (0.00396985 -0.0170105 0)
  (0.00288431 -0.0154168 0)
  (0.00399575 -0.0147519 0)
  (0.00631247 -0.0147771 0)
  (0.00920301 -0.0147263 0)
  (0.0124955 -0.0140018 0)
  (0.0163025 -0.0120303 0)
  (0.0209371 -0.00792053 0)
  (0.0275641 -0.000347773 0)
  (0.0356164 0.0105388 0)
  (0.0436956 0.0228094 0)
  (0.0535968 0.0345878 0)
  (0.0616355 0.0430632 0)
  (0.0757944 0.0541209 0)
  (0.0816431 0.0565944 0)
  (0.134097 0.0743967 0)
  (-0.118559 0.139679 0)
  (0.576079 0.318441 0)
  (-0.0622687 0.0979499 0)
  (0.0673878 0.00422019 0)
  (0.1068 -0.0110795 0)
  (0.117423 -0.0359627 0)
  (0.143717 -0.0669657 0)
  (0.154838 -0.0961881 0)
  (0.150046 -0.116961 0)
  (0.13338 -0.125317 0)
  (0.109538 -0.120651 0)
  (0.0830638 -0.104832 0)
  (0.0571796 -0.0810239 0)
  (0.0344986 -0.0545236 0)
  (0.0168409 -0.0303738 0)
  (0.00577232 -0.0128287 0)
  (0.000831088 -0.00273828 0)
  (8.2544e-05 0.000808281 0)
  (-8.97854e-05 -0.00111007 0)
  (-0.00207939 -0.00525247 0)
  (-0.00610491 -0.00905493 0)
  (-0.0112113 -0.0117278 0)
  (-0.0163902 -0.0133745 0)
  (-0.0208654 -0.0143744 0)
  (-0.0240419 -0.0150535 0)
  (-0.0256085 -0.0156834 0)
  (-0.0258179 -0.0165217 0)
  (-0.0252479 -0.0173657 0)
  (-0.0243121 -0.0178646 0)
  (-0.0231887 -0.0177478 0)
  (-0.0218245 -0.0168192 0)
  (-0.0198324 -0.0147925 0)
  (-0.0161756 -0.0109514 0)
  (-0.0074827 -0.0041172 0)
  (0.00518026 0.00531211 0)
  (0.0166876 0.0128116 0)
  (0.0269931 0.0166119 0)
  (0.040041 0.019513 0)
  (0.0507576 0.0173911 0)
  (0.134755 0.071866 0)
  (-0.37848 0.213938 0)
  (0.681776 0.311306 0)
  (0.328459 0.216277 0)
  (0.335706 0.164472 0)
  (0.337628 0.104177 0)
  (0.322511 0.0524513 0)
  (0.291555 5.44012e-05 0)
  (0.253724 -0.0445836 0)
  (0.211522 -0.0735428 0)
  (0.165653 -0.0852492 0)
  (0.119245 -0.0824564 0)
  (0.0762156 -0.0693119 0)
  (0.038374 -0.0493093 0)
  (0.00825037 -0.0282929 0)
  (-0.0131172 -0.011132 0)
  (-0.0236495 -0.00215469 0)
  (-0.0287435 0.00203214 0)
  (-0.0302938 0.00287562 0)
  (-0.0313511 0.00145773 0)
  (-0.0333282 -0.000934145 0)
  (-0.0367104 -0.0033322 0)
  (-0.0408465 -0.00544882 0)
  (-0.0451352 -0.00726474 0)
  (-0.0491789 -0.00894461 0)
  (-0.0526877 -0.0105655 0)
  (-0.055567 -0.0121401 0)
  (-0.0579505 -0.0136457 0)
  (-0.060089 -0.0149256 0)
  (-0.0622605 -0.015787 0)
  (-0.064865 -0.0160589 0)
  (-0.0685201 -0.0155106 0)
  (-0.0739176 -0.0135771 0)
  (-0.0814925 -0.00896378 0)
  (-0.0915444 1.45304e-05 0)
  (-0.102179 0.0128786 0)
  (-0.117056 0.0295413 0)
  (-0.142041 0.0515034 0)
  (-0.176722 0.0800661 0)
  (-0.219544 0.112796 0)
  (-0.287277 0.144252 0)
  (-0.570698 0.166574 0)
  (0.193954 0.0165694 0)
  (0.22044 0.0325646 0)
  (0.219977 0.00639418 0)
  (0.202396 -0.0205855 0)
  (0.17523 -0.0379445 0)
  (0.140731 -0.0464676 0)
  (0.0998353 -0.0468595 0)
  (0.0576397 -0.040539 0)
  (0.0188115 -0.0288878 0)
  (-0.0163729 -0.0121033 0)
  (-0.036962 -0.000498206 0)
  (-0.0491082 0.00590095 0)
  (-0.0547754 0.00871046 0)
  (-0.0570267 0.00975021 0)
  (-0.0579716 0.00979626 0)
  (-0.0589283 0.00917991 0)
  (-0.0604332 0.00818813 0)
  (-0.0626026 0.00690106 0)
  (-0.0654547 0.00529584 0)
  (-0.0688702 0.00384153 0)
  (-0.07283 0.00255481 0)
  (-0.0772653 0.00160153 0)
  (-0.0821387 0.00117688 0)
  (-0.0874088 0.00149317 0)
  (-0.0929807 0.00282764 0)
  (-0.0987019 0.00544709 0)
  (-0.104479 0.00944461 0)
  (-0.110474 0.0144813 0)
  (-0.117028 0.0194266 0)
  (-0.124159 0.0229711 0)
  (-0.130264 0.0275257 0)
  (-0.13518 0.0356507 0)
  (-0.139147 0.0487472 0)
  (-0.142148 0.0669619 0)
  (-0.141422 0.0872398 0)
  (-0.130863 0.0938371 0)
  (-0.116035 0.0437434 0)
  (-0.222133 -0.172972 0)
  (0.0610985 0.136269 0)
  (0.0328517 0.0662021 0)
  (0.031526 0.00954426 0)
  (0.0279663 -0.0255022 0)
  (0.0262124 -0.0410271 0)
  (0.0108341 -0.044564 0)
  (-0.0120952 -0.045599 0)
  (-0.0339262 -0.0461163 0)
  (-0.0529944 -0.0459958 0)
  (-0.0659259 -0.0474212 0)
  (-0.0724616 -0.0503621 0)
  (-0.0753571 -0.0527147 0)
  (-0.0763614 -0.0550425 0)
  (-0.0763852 -0.0571484 0)
  (-0.0760866 -0.0592993 0)
  (-0.0759139 -0.0618175 0)
  (-0.0761501 -0.0646243 0)
  (-0.0769424 -0.0673257 0)
  (-0.0783824 -0.0695244 0)
  (-0.0805344 -0.071133 0)
  (-0.0833719 -0.0730683 0)
  (-0.0870369 -0.075656 0)
  (-0.0917109 -0.0790982 0)
  (-0.0975445 -0.0834378 0)
  (-0.104559 -0.0883747 0)
  (-0.112464 -0.0930612 0)
  (-0.120486 -0.0959362 0)
  (-0.12746 -0.0948263 0)
  (-0.132396 -0.0891607 0)
  (-0.134772 -0.0772317 0)
  (-0.134114 -0.060201 0)
  (-0.128876 -0.0385186 0)
  (-0.11716 -0.0128924 0)
  (-0.0973663 0.0151807 0)
  (-0.0697484 0.0409542 0)
  (-0.0386787 0.0511787 0)
  (0.103938 -0.0395568 0)
  (-0.177512 -0.10488 0)
  (-0.124094 -0.253359 0)
  (-0.303653 -0.0505284 0)
  (-0.222312 0.147525 0)
  (-0.179198 0.127681 0)
  (-0.128743 0.129738 0)
  (-0.108615 0.144351 0)
  (-0.104321 0.154287 0)
  (-0.106046 0.156565 0)
  (-0.110037 0.161436 0)
  (-0.111926 0.168081 0)
  (-0.110916 0.175664 0)
  (-0.108023 0.184861 0)
  (-0.104312 0.193029 0)
  (-0.100691 0.198688 0)
  (-0.0975822 0.20278 0)
  (-0.0951132 0.205929 0)
  (-0.093259 0.208749 0)
  (-0.0920464 0.211623 0)
  (-0.0915622 0.214491 0)
  (-0.0918649 0.216951 0)
  (-0.0929205 0.218519 0)
  (-0.0946147 0.21898 0)
  (-0.0968875 0.219917 0)
  (-0.0996094 0.221973 0)
  (-0.102602 0.225652 0)
  (-0.105665 0.2312 0)
  (-0.108587 0.23834 0)
  (-0.111155 0.245987 0)
  (-0.113145 0.252045 0)
  (-0.114288 0.253678 0)
  (-0.114125 0.251035 0)
  (-0.1117 0.243374 0)
  (-0.105378 0.232899 0)
  (-0.0930603 0.2217 0)
  (-0.0729899 0.21238 0)
  (-0.0454985 0.207613 0)
  (-0.00959256 0.208252 0)
  (0.0293037 0.211922 0)
  (0.143095 0.241339 0)
  (-0.296793 0.224331 0)
)
;

boundaryField
{
  floor
  {
    type noSlip;
  }
  ceiling
  {
    type noSlip;
  }
  sWall
  {
    type noSlip;
  }
  nWall
  {
    type noSlip;
  }
  sideWalls
  {
    type empty;
  }
  glass1
  {
    type noSlip;
  }
  glass2
  {
    type noSlip;
  }
  sun
  {
    type noSlip;
  }
  heatsource1
  {
    type noSlip;
  }
  heatsource2
  {
    type noSlip;
  }
  Table_master
  {
    type noSlip;
  }
  Table_slave
  {
    type noSlip;
  }
  inlet
  {
    type fixedValue;
    value uniform (0.277164 -0.114805 0);
  }
  outlet
  {
    type zeroGradient;
  }
} 	// ************************************************************************* //

