/*--------------------------------*- C++ -*----------------------------------*\
  =========                 |
  \\      /  F ield         | OpenFOAM: The Open Source CFD Toolbox
   \\    /   O peration     | Website:  https://openfoam.org
    \\  /    A nd           | Version:  6
     \\/     M anipulation  |
\*---------------------------------------------------------------------------*/
FoamFile
{
    version     2.0;
    format      ascii;
    class       surfaceScalarField;
    location    "1000";
    object      phi;
}
// * * * * * * * * * * * * * * * * * * * * * * * * * * * * * * * * * * * * * //

dimensions      [1 0 -1 0 0 0 0];

internalField   nonuniform List<scalar> 
852
(
-0.00293724
0.00299346
-0.00397743
0.00104018
-0.00476677
0.000789345
-0.00538341
0.000616638
-0.00579812
0.000414704
-0.00598823
0.000190109
-0.00593194
-5.62821e-05
-0.00561207
-0.00031987
-0.00504164
-0.000570439
-0.00427323
-0.000768411
-0.00338807
-0.000885159
-0.00247519
-0.000912874
-0.00160968
-0.000865517
-0.000814398
-0.000795281
-0.000812961
-0.000677075
0.00067975
-0.000348697
-0.000328379
0.000258915
-0.000607613
0.000733162
-0.000474248
0.00104816
-0.000315003
0.00124408
-0.000195918
0.0013506
-0.000106522
0.00140349
-5.28895e-05
0.00143333
-2.9843e-05
0.00145158
-1.82484e-05
0.00146175
-1.01675e-05
0.00146494
-3.19098e-06
0.00145919
5.74117e-06
0.00143611
2.3087e-05
0.00137318
6.29253e-05
0.00123259
0.00014059
0.000999531
0.000233055
0.000707046
0.000292484
0.000710643
-0.00209527
0.00524009
-0.00310135
0.00204626
-0.00390721
0.00159521
-0.00451062
0.00122004
-0.0049156
0.000819684
-0.00510843
0.000382942
-0.00506391
-0.000100808
-0.00476798
-0.000615803
-0.00424479
-0.00109362
-0.00355634
-0.00145686
-0.00278519
-0.00165631
-0.00201179
-0.00168628
-0.0013082
-0.00156911
-0.000761741
-0.00134174
-0.000557969
-0.00101673
-7.10014e-05
-0.00048702
-7.10535e-05
0.000374594
0.000312778
0.000799473
-0.00075326
0.0010493
-0.000857436
0.0012587
-0.000683649
0.0014145
-0.000470804
0.00150569
-0.000287109
0.00151981
-0.000120648
0.00152363
-5.67085e-05
0.00152823
-3.44417e-05
0.00153207
-2.20975e-05
0.00153465
-1.27438e-05
0.00153592
-4.46571e-06
0.00153503
6.63595e-06
0.00152839
2.97221e-05
0.00148721
0.000104103
0.00131232
0.000315484
0.00100995
0.000535423
0.000628273
0.000674158
0.00134819
-0.00146625
0.00693783
-0.00232988
0.00290989
-0.00303836
0.00230369
-0.00354907
0.00173075
-0.00389744
0.00116805
-0.00406524
0.000550744
-0.00400762
-0.000158431
-0.00370339
-0.000920034
-0.00319863
-0.00159839
-0.00256955
-0.00208594
-0.00189812
-0.00232774
-0.00124799
-0.0023364
-0.000669665
-0.00214743
-0.000213631
-0.00179778
8.97127e-05
-0.00132008
0.000286913
-0.000684221
0.000215858
0.00148423
-0.00116345
0.00169853
-0.000967556
0.0016781
-0.000837005
0.00167878
-0.00068433
0.00170057
-0.000492602
0.00171244
-0.000298979
0.00159195
0.00153539
0.0015011
0.00147916
0.00146656
0.00146225
0.00146904
0.00149891
0.00160317
0.001323
0.000595648
0.000982371
0.000876053
0.000549068
0.00110746
0.0019114
-0.00102381
0.00826139
-0.00170562
0.00359169
-0.00216692
0.002765
-0.00249369
0.00205752
-0.0027159
0.00139026
-0.00280088
0.00063572
-0.00267369
-0.000285618
-0.00232412
-0.0012696
-0.00183688
-0.00208563
-0.001295
-0.00262783
-0.000765553
-0.00285719
-0.000283254
-0.0028187
0.000134304
-0.00256499
0.000482292
-0.00214576
0.000788457
-0.00162624
0.00115576
-0.00105152
0.00191823
-0.000546616
0.00244752
-0.000522039
0.00204794
-0.00076388
0.00192071
-0.000840326
0.00181021
-0.000726501
0.00171613
-0.000590249
0.00166486
-0.000441334
0.00164372
-0.00027784
0.00175777
-0.00011421
0.00182981
-7.21896e-05
0.001888
-5.83411e-05
0.0019328
-4.49549e-05
0.0019504
-1.7752e-05
0.00191986
3.03864e-05
0.00181653
0.000103176
0.00160805
0.000208317
0.00124032
0.00036758
0.0011099
0.000726065
0.000824069
0.00116188
0.000387902
0.00154363
0.00231786
-0.000717691
0.00933678
-0.0012336
0.00410759
-0.00132031
0.00285171
-0.00137141
0.00210863
-0.00139098
0.00140982
-0.00129743
0.000542173
-0.00101176
-0.000571294
-0.000599829
-0.00168153
-0.000167376
-0.00251808
0.000219952
-0.00301515
0.000536466
-0.00317371
0.000780178
-0.00306242
0.000964674
-0.00274949
0.00111798
-0.00229907
0.00127093
-0.00177919
0.00147477
-0.00125536
0.00176019
-0.000832036
0.00189656
-0.000658414
0.00179931
-0.000666628
0.00162462
-0.000665634
0.00147743
-0.000579312
0.00135722
-0.000470039
0.00127485
-0.000358966
0.00124336
-0.000246359
0.0012842
-0.000155049
0.00133126
-0.000119249
0.0013832
-0.000110281
0.00143667
-9.84238e-05
0.00148122
-6.23023e-05
0.00149744
1.41665e-05
0.00146491
0.000135699
0.00137165
0.000301573
0.00121824
0.000520993
0.00108454
0.000859768
0.000941211
0.00130521
0.000623534
0.0018613
0.000553235
0.00238816
-0.000967774
0.0015208
-0.0014309
0.000462918
-0.00138395
-0.000626219
0.0103696
-0.000978542
0.00445991
-0.000550927
0.00242409
-0.000183518
0.00174122
0.000100122
0.00112618
0.000496707
0.000145587
0.0010002
-0.00107479
0.00142092
-0.00210224
0.00170439
-0.00280156
0.00184815
-0.00315891
0.001883
-0.00320856
0.00183711
-0.00301652
0.00174113
-0.00265351
0.00163122
-0.00218916
0.00154044
-0.00168842
0.00149417
-0.00120909
0.00148635
-0.000824217
0.00143235
-0.000604418
0.00128871
-0.000522987
0.00109883
-0.000475756
0.00093164
-0.000412122
0.000804063
-0.000342462
0.000722101
-0.000277005
0.000693296
-0.000217555
0.000714835
-0.000176589
0.00076247
-0.000166885
0.000825373
-0.000173185
0.000898923
-0.000171975
0.000977605
-0.000140986
0.0010495
-5.77321e-05
0.00109709
8.81106e-05
0.00111618
0.000282479
0.00111465
0.000522528
0.00113965
0.000834766
0.00123876
0.00120609
0.00142529
0.00167477
0.00186828
0.00194517
0.00212953
0.00125956
0.00174086
0.000851582
0.000413426
-0.000679329
0.0114998
-0.000556462
0.00433705
0.000582065
0.00128556
0.00138274
0.000940536
0.00207748
0.000431442
0.00278524
-0.000562174
0.0033256
-0.00161515
0.00360692
-0.00238356
0.00363569
-0.00283034
0.00345812
-0.00298133
0.00313688
-0.00288732
0.00273307
-0.00261271
0.00230003
-0.00222047
0.00188442
-0.00177355
0.00152147
-0.00132547
0.0012269
-0.000914519
0.000999052
-0.000596368
0.000802221
-0.000407588
0.000603653
-0.00032442
0.000414475
-0.000286579
0.0002596
-0.000257249
0.000148809
-0.000231672
8.33067e-05
-0.000211504
6.35325e-05
-0.000197782
8.30649e-05
-0.000196122
0.000127012
-0.000210833
0.000186006
-0.00023218
0.000258988
-0.000244958
0.000350062
-0.000232061
0.00046412
-0.000171792
0.000588932
-3.67021e-05
0.000714083
0.000157326
0.000850569
0.000386041
0.00103604
0.000649294
0.00131866
0.000923476
0.00175978
0.00123365
0.00242624
0.0012787
0.0029673
0.000718498
0.00299034
0.000828538
0.00346489
0.00259767
0.00940666
0.00330489
0.00362983
0.00371307
0.000877382
0.00441589
0.000237721
0.00524103
-0.0003937
0.00586502
-0.00118617
0.00607719
-0.00182732
0.00590995
-0.00221632
0.00544146
-0.00236185
0.00476454
-0.00230441
0.00397475
-0.00209752
0.00315574
-0.00179371
0.00236904
-0.00143377
0.00166335
-0.00106786
0.0010711
-0.000733221
0.000598234
-0.000441655
0.000250186
-0.00024832
-2.24644e-06
-0.000155157
-0.000196288
-0.00013038
-0.000348868
-0.000133999
-0.000464587
-0.000141531
-0.000545534
-0.000150727
-0.00059503
-0.000162008
-0.000616421
-0.000176393
-0.000616211
-0.000196333
-0.000604459
-0.000222587
-0.000586991
-0.000249649
-0.000562943
-0.000269007
-0.000524046
-0.000270959
-0.000451669
-0.00024417
-0.000317028
-0.000171344
-0.000135866
-2.3837e-05
7.73639e-05
0.00017281
0.000346345
0.000380311
0.000682538
0.000587283
0.00112645
0.000789735
0.00161551
0.000789638
0.0018243
0.000509709
0.00108539
0.00156745
0.00479936
0.00996006
0.0135818
0.0124576
0.00200163
0.0117555
0.000939798
0.0110974
0.000264402
0.0102092
-0.000298001
0.00905692
-0.000675003
0.00774573
-0.000905133
0.00636982
-0.000985933
0.00500307
-0.000937661
0.00371267
-0.000807129
0.00255055
-0.000631592
0.0015383
-0.000421518
0.000699658
-0.000229219
4.08982e-05
-7.44621e-05
-0.000421312
2.05545e-05
-0.000705157
3.5523e-05
-0.000880681
2.03663e-05
-0.00100528
-5.7785e-06
-0.00110575
-3.35301e-05
-0.00118819
-5.90947e-05
-0.00125503
-8.38927e-05
-0.00130967
-0.000107368
-0.00135614
-0.000129921
-0.0014009
-0.000151571
-0.00145241
-0.000171086
-0.00151823
-0.000183825
-0.00160559
-0.00018165
-0.00172314
-0.000153412
-0.00188118
-8.61304e-05
-0.00208532
3.27926e-05
-0.00232254
0.000213387
-0.00261952
0.000469789
-0.0030578
0.000818589
-0.00372866
0.00125814
-0.00469891
0.00175998
-0.00608506
0.0021758
-0.00776929
0.00219393
-0.00729864
0.00109681
-0.00222374
0.00467432
0.00350666
0.00377417
0.00183995
0.00414652
-0.000107947
0.0041513
-0.000302775
0.00374567
-0.000269371
0.0031132
-0.000272665
0.00236111
-0.000233842
0.00155682
-0.000133377
0.000743255
6.43631e-06
-2.44626e-05
0.000136124
-0.000656234
0.000210252
-0.00110079
0.000215338
-0.00138171
0.000206453
-0.00154116
0.000180002
-0.00164196
0.00013632
-0.00171459
9.30033e-05
-0.00177548
5.5104e-05
-0.00183306
2.4053e-05
-0.001892
-1.55001e-07
-0.00195402
-2.18775e-05
-0.00201974
-4.1646e-05
-0.00209094
-5.87234e-05
-0.00217077
-7.17389e-05
-0.00226203
-7.98274e-05
-0.00236565
-8.02104e-05
-0.00248058
-6.67234e-05
-0.00260292
-3.1068e-05
-0.00272489
3.5839e-05
-0.00283452
0.000142418
-0.00292863
0.000307493
-0.00301482
0.00055598
-0.00309843
0.000902194
-0.00317508
0.00133479
-0.00319954
0.00178444
-0.00311959
0.00209584
-0.00275576
0.0018301
-0.00149464
-0.000164309
-0.00364648
-0.000534251
0.00410588
0.00029985
0.00100585
-8.90543e-05
0.00028096
-0.000474894
8.30647e-05
-0.000813344
6.90788e-05
-0.00117729
9.12801e-05
-0.00154247
0.000131332
-0.00185677
0.000180924
-0.00207585
0.000225514
-0.00219657
0.00025685
-0.00225058
0.000264256
-0.00227329
0.000238051
-0.00226968
0.000202837
-0.00225657
0.000166897
-0.0022526
0.000132345
-0.00226244
0.000102841
-0.00228568
7.83412e-05
-0.00231984
5.82103e-05
-0.00236153
4.15345e-05
-0.00241197
2.8566e-05
-0.00247022
1.65998e-05
-0.00253428
5.33413e-06
-0.00260147
-4.55012e-06
-0.00266933
-1.19661e-05
-0.00273418
-1.53625e-05
-0.00278919
-1.17146e-05
-0.00282357
3.30707e-06
-0.00282738
3.96484e-05
-0.00279034
0.000105384
-0.00269088
0.000208028
-0.00249782
0.00036292
-0.00218447
0.000588843
-0.00173161
0.000881931
-0.00111094
0.00116377
-0.000151789
0.00113669
0.00114293
0.000535383
0.00158107
-0.000602456
-0.00198665
-0.00722416
-0.0101273
-0.0059786
-0.00495287
-0.00466083
-0.00457094
-0.00449765
-0.00440415
-0.00427219
-0.00409201
-0.00386847
-0.00361475
-0.00335474
-0.00312198
-0.00292532
-0.00276532
-0.00264042
-0.00254546
-0.00247534
-0.0024256
-0.00239273
-0.00237297
-0.00236526
-0.00236886
-0.00238232
-0.00240313
-0.00242722
-0.0024475
-0.00245255
-0.00242101
-0.00232347
-0.00212299
-0.00176733
-0.00118547
-0.000310255
0.000847011
0.00197717
0.00250578
0.00189616
)
;

boundaryField
{
    floor
    {
        type            calculated;
        value           nonuniform List<scalar> 
29
(
0
0
0
0
0
0
0
0
0
0
0
0
0
0
0
0
0
0
0
0
-3.59814e-06
-9.2738e-06
-1.41463e-05
-1.85591e-05
-1.4381e-06
-2.67588e-06
-7.62297e-06
-8.00065e-06
-7.25239e-06
)
;
    }
    ceiling
    {
        type            calculated;
        value           nonuniform List<scalar> 
43
(
-4.54268e-05
-4.41068e-05
-4.27976e-05
-1.98804e-05
-1.10838e-05
-6.82479e-06
-4.2072e-06
-2.22989e-06
-6.23317e-07
7.44182e-07
1.96967e-06
3.12301e-06
4.24679e-06
5.28906e-06
6.17925e-06
6.89321e-06
7.44991e-06
7.88134e-06
8.21515e-06
8.47111e-06
8.66339e-06
8.80105e-06
8.89012e-06
8.92827e-06
8.9109e-06
8.84144e-06
8.72544e-06
8.56416e-06
8.35865e-06
8.11046e-06
7.83798e-06
7.55189e-06
7.26076e-06
6.97575e-06
6.7169e-06
6.49827e-06
6.52813e-06
6.76824e-06
7.16451e-06
8.40033e-06
1.1104e-05
8.05503e-06
-6.49658e-05
)
;
    }
    sWall
    {
        type            calculated;
        value           uniform -0.000275068;
    }
    nWall
    {
        type            calculated;
        value           nonuniform List<scalar> 6(-4.71528e-05 -5.6518e-05 -6.11211e-05 -7.1902e-05 -7.87559e-05 -9.88905e-05);
    }
    sideWalls
    {
        type            empty;
        value           nonuniform 0();
    }
    glass1
    {
        type            calculated;
        value           nonuniform List<scalar> 9(-5.62158e-05 -0.000151362 -0.000231493 -0.000299738 -0.000357702 -0.000406603 -0.000450889 -0.000504518 -0.000564504);
    }
    glass2
    {
        type            calculated;
        value           nonuniform List<scalar> 2(-0.000249084 -0.00027555);
    }
    sun
    {
        type            calculated;
        value           uniform 0;
    }
    heatsource1
    {
        type            calculated;
        value           nonuniform List<scalar> 3(2.03953e-07 2.0391e-07 2.03927e-07);
    }
    heatsource2
    {
        type            calculated;
        value           nonuniform List<scalar> 4(5.10993e-08 5.12204e-08 0 0);
    }
    Table_master
    {
        type            calculated;
        value           nonuniform List<scalar> 9(-1.52964e-07 -1.53046e-07 -1.53075e-07 -1.53095e-07 -1.53109e-07 -1.53118e-07 -1.53122e-07 -1.53116e-07 -1.53083e-07);
    }
    Table_slave
    {
        type            calculated;
        value           nonuniform List<scalar> 9(1.52841e-07 1.52867e-07 1.52851e-07 1.52837e-07 1.52832e-07 1.52836e-07 1.52852e-07 1.52894e-07 1.52974e-07);
    }
    inlet
    {
        type            calculated;
        value           uniform -0.00617935;
    }
    outlet
    {
        type            calculated;
        value           nonuniform List<scalar> 2(0.00754466 0.00294721);
    }
}


// ************************************************************************* //
