/*--------------------------------*- C++ -*----------------------------------*\
  =========                 |
  \\      /  F ield         | OpenFOAM: The Open Source CFD Toolbox
   \\    /   O peration     | Website:  https://openfoam.org
    \\  /    A nd           | Version:  6
     \\/     M anipulation  |
\*---------------------------------------------------------------------------*/
FoamFile
{
    version     2.0;
    format      ascii;
    class       surfaceScalarField;
    location    "200";
    object      phi;
}
// * * * * * * * * * * * * * * * * * * * * * * * * * * * * * * * * * * * * * //

dimensions      [1 0 -1 0 0 0 0];

internalField   nonuniform List<scalar> 
852
(
0.00418038
-0.00415218
0.00832428
-0.00414379
0.0106008
-0.00227642
0.0117907
-0.00118981
0.0124932
-0.000702341
0.0128796
-0.000386285
0.0129904
-0.000110716
0.0128545
0.000135976
0.0124859
0.000368751
0.0118723
0.000613704
0.0109761
0.000896348
0.00972102
0.00125517
0.00794396
0.00177719
0.00519765
0.00274645
0.00519657
-0.000182284
0.000181116
-0.000539038
0.000356714
-0.000808139
0.000269065
-0.00100158
0.000193414
-0.00112685
0.000125239
-0.00117644
4.95761e-05
-0.00115929
-1.71631e-05
-0.00112158
-3.77245e-05
-0.00107027
-5.13271e-05
-0.000981518
-8.87662e-05
-0.000835136
-0.000146394
-0.000682193
-0.000152948
-0.000570762
-0.000111428
-0.000507324
-6.34242e-05
-0.000474552
-3.27352e-05
-0.000426744
-4.77272e-05
-0.000352399
-7.42181e-05
-0.000301839
-5.04111e-05
-0.000302348
0.00490092
-0.00897324
0.00741166
-0.00665444
0.00875963
-0.00362429
0.00958215
-0.00201223
0.0101099
-0.00122999
0.0104188
-0.00069507
0.0105397
-0.00023158
0.0104731
0.0002027
0.01021
0.00063202
0.00973694
0.00108684
0.00903787
0.00159554
0.00810364
0.00218952
0.00697137
0.00290958
0.00594569
0.00377226
0.00643674
0.00470566
0.00269217
0.00374466
0.00269226
-0.000223908
0.000401633
-0.000323232
0.000455975
-0.000410222
0.00035598
-0.000466593
0.000249698
-0.000501576
0.000160134
-0.000548162
9.60899e-05
-0.000616236
5.08807e-05
-0.000648767
-5.21127e-06
-0.000648137
-5.19726e-05
-0.000630457
-0.000106466
-0.000556356
-0.000220514
-0.000500835
-0.000208474
-0.000487926
-0.000124308
-0.000506273
-4.49995e-05
-0.000532589
-6.26245e-06
-0.000465749
-0.000114314
-0.000308556
-0.00023112
-0.000108005
-0.000250678
-0.000412457
0.0035975
-0.0124416
0.00514411
-0.00820096
0.00592718
-0.00440727
0.0064614
-0.00254636
0.00684929
-0.00161779
0.00711017
-0.000955853
0.0072792
-0.000400528
0.00734457
0.00013743
0.00727549
0.00070119
0.00705106
0.00131137
0.00666339
0.00198331
0.00612642
0.00272661
0.00549708
0.00353904
0.00486952
0.00439995
0.00422781
0.0053475
0.00261197
0.00536063
0.00530437
-0.000442088
0.000838315
-0.000400102
0.000413914
-0.000336131
0.000291917
-0.000250611
0.000164075
-0.00011261
2.20311e-05
0.000148136
-0.000164725
0.00019913
0.000194076
0.00014227
3.5969e-05
-0.000184419
-0.00039273
-0.000516789
-0.000561431
-0.000567264
-0.000151097
-0.000530211
1.36673e-05
-0.000395613
0.000107301
-0.000344058
-0.000309576
0.0021529
-0.0144171
0.00298899
-0.00903695
0.00346378
-0.00488197
0.00367242
-0.00275492
0.00387734
-0.00182263
0.00406885
-0.00114729
0.0042593
-0.000590908
0.00441279
-1.5984e-05
0.00448005
0.000634003
0.00444227
0.00134923
0.00428704
0.00213863
0.00401904
0.0029947
0.00365246
0.00390573
0.00319548
0.00485705
0.00270223
0.00584087
0.00207476
0.00598823
0.00174894
0.00563033
-0.00113477
0.00287615
-0.000754141
0.000457655
-0.000583438
0.00024315
-0.000454061
0.000162462
-0.000316197
2.61349e-05
-0.000170336
-0.000123867
-0.000105276
-0.000229763
9.0417e-05
-0.00019578
0.00024677
-0.000156438
0.000358423
-0.000111743
0.000412615
-5.42955e-05
0.000393744
1.87429e-05
0.000324621
6.89927e-05
0.000296679
2.78485e-05
0.000368824
-7.21919e-05
0.000536765
-0.000167975
0.000362641
-0.000355952
0.000381698
-0.000414523
0.000428093
-0.000390297
0.000110847
0.000961922
-0.0151536
0.00133452
-0.00940945
0.00153456
-0.00508192
0.00130193
-0.00252222
0.00137805
-0.00189869
0.00156018
-0.00132935
0.00175604
-0.000786719
0.00192913
-0.000189024
0.00206057
0.00050262
0.00211743
0.00129245
0.002089
0.00216713
0.001983
0.0031008
0.00180469
0.00408415
0.00157135
0.0050905
0.00134565
0.0060667
0.00101381
0.0063202
0.000560508
0.00608376
-6.5809e-05
0.00350256
-0.000521393
0.00091325
-0.000595281
0.000317008
-0.000522153
8.92911e-05
-0.000379255
-0.000116791
-0.000219624
-0.000283483
-8.52838e-05
-0.000364058
6.09906e-05
-0.000341991
0.000183334
-0.000278717
0.000275525
-0.000203873
0.000342583
-0.0001213
0.000401298
-3.99303e-05
0.000463243
7.07324e-06
0.000503309
-1.21894e-05
0.000506295
-7.5149e-05
0.000494239
-0.000155885
0.000401647
-0.000263313
0.000319583
-0.000332399
0.000289677
-0.00036032
0.000674852
-0.000274266
0.000908143
-0.000233425
0.00097538
-6.73447e-05
0.000989456
-1.84222e-05
-0.0148621
2.29686e-05
-0.00945074
-0.000180463
-0.00487841
-0.000704061
-0.00199856
-0.000671414
-0.00193128
-0.000499241
-0.00150147
-0.00031959
-0.000966314
-0.00017417
-0.000334392
-6.89163e-05
0.000397423
4.55549e-06
0.00121905
4.80989e-05
0.00212367
6.27598e-05
0.00308623
4.93948e-05
0.00409762
1.79838e-05
0.00512203
2.95618e-06
0.00608185
-0.000105019
0.00642831
-0.000179299
0.00615818
-0.000222715
0.00354608
-0.00049208
0.00118263
-0.000591599
0.000416508
-0.000536563
3.4231e-05
-0.000394791
-0.000258557
-0.000232236
-0.000446007
-8.54292e-05
-0.000510815
4.27185e-05
-0.000470078
0.000146117
-0.000382052
0.000226378
-0.00028407
0.000293196
-0.000188061
0.000356571
-0.000103256
0.000409649
-4.59682e-05
0.000425124
-2.76454e-05
0.000388164
-3.81837e-05
0.000298671
-6.63881e-05
0.000138495
-0.000103127
-7.3322e-05
-0.000120556
-0.000293089
-0.000140513
-0.000332968
-0.000234339
-0.000127481
-0.000438853
1.35102e-06
-0.000196091
0.00100735
-0.000988909
-0.0135536
-0.00165669
-0.00878285
-0.00217936
-0.00435565
-0.00273446
-0.00144338
-0.00271593
-0.00194974
-0.00255287
-0.00166446
-0.00237657
-0.00114254
-0.0022297
-0.000481186
-0.00210964
0.000277431
-0.00199665
0.00110615
-0.00187039
0.0019975
-0.00172961
0.00294555
-0.00157213
0.00394025
-0.00139339
0.00494341
-0.00116395
0.00585254
-0.000967772
0.00623227
-0.000682189
0.00587273
-0.000517761
0.00338174
-0.000580559
0.00124544
-0.000593266
0.000429202
-0.000500385
-5.86573e-05
-0.000352855
-0.000406063
-0.00020122
-0.0005976
-6.77741e-05
-0.000644212
4.3061e-05
-0.000580862
0.0001283
-0.00046724
0.00019044
-0.000346156
0.000237554
-0.000235122
0.000273244
-0.000138902
0.000286215
-5.89105e-05
0.000249333
9.24339e-06
0.000130492
8.06478e-05
-0.000107065
0.000171153
-0.000465107
0.000254911
-0.000879656
0.000294007
-0.00128982
0.000269672
-0.00166612
0.000141974
-0.0019935
-0.000111474
-0.00178427
-0.000405342
-0.000764974
-0.00356851
-0.00962192
-0.00559132
-0.00675994
-0.005506
-0.00444087
-0.00547021
-0.00147909
-0.0049949
-0.00242495
-0.00460928
-0.00204998
-0.00435388
-0.00139785
-0.00417263
-0.000662335
-0.00401339
0.000118286
-0.00384176
0.000934615
-0.00362153
0.00177739
-0.00333903
0.00266315
-0.00298679
0.00358813
-0.00256024
0.00451698
-0.00204703
0.00533947
-0.00152891
0.00571427
-0.000968941
0.00531288
-0.000630409
0.00304327
-0.000550808
0.00116584
-0.0004717
0.000350081
-0.000332573
-0.000197775
-0.000195119
-0.000543476
-8.62186e-05
-0.000706444
-2.14223e-06
-0.000728236
6.55273e-05
-0.000648492
0.000117022
-0.000518702
0.00015248
-0.000381581
0.000175455
-0.000258066
0.000186739
-0.000150161
0.000178765
-5.09207e-05
0.0001403
4.77104e-05
6.07114e-05
0.000160224
-6.40088e-05
0.000295852
-0.000241583
0.00043247
-0.000483414
0.000535836
-0.000812319
0.000598581
-0.0012715
0.000601153
-0.00180777
0.000424778
-0.00181282
-0.000400321
-0.00254099
-0.00923868
-0.0160134
-0.0110417
-0.00941252
-0.0077465
-0.00477416
-0.00665093
-0.00352042
-0.00615497
-0.00254582
-0.00593064
-0.00162207
-0.005803
-0.000789857
-0.00566234
-2.2249e-05
-0.00544242
0.000714818
-0.0051206
0.00145569
-0.00468075
0.00222344
-0.00411118
0.00301869
-0.00340936
0.00381529
-0.00258746
0.0045177
-0.00174191
0.00486885
-0.000950667
0.00452174
-0.000426574
0.00251922
-0.000220559
0.000959814
-6.76021e-05
0.000197105
8.05709e-05
-0.000345929
0.00014909
-0.000611935
0.000153658
-0.000710934
0.000133187
-0.0007077
0.000114649
-0.000629916
0.00010407
-0.000508107
9.87787e-05
-0.000376282
9.65984e-05
-0.000255881
9.60318e-05
-0.000149593
9.26756e-05
-4.75682e-05
8.6271e-05
5.41045e-05
7.59875e-05
0.000170486
7.01651e-05
0.000301646
7.44065e-05
0.000428199
8.82928e-05
0.000521927
0.000125249
0.000561607
0.000208326
0.000518058
0.000298652
0.000334426
0.000179666
-0.000281366
-0.00232049
-0.00922679
1.86531e-05
-0.00717643
-0.00682442
-0.00684192
-0.00385483
-0.00693124
-0.00245639
-0.00701611
-0.00153707
-0.00700805
-0.000797785
-0.00689564
-0.000134535
-0.00664933
0.000468645
-0.00625349
0.00105998
-0.0056737
0.00164377
-0.00489482
0.00223995
-0.00391897
0.00283958
-0.00277799
0.00337685
-0.00158043
0.0036714
-0.000490688
0.00343209
0.000267425
0.00176113
0.000588939
0.00063828
0.000758462
2.75596e-05
0.000778314
-0.000365761
0.000672464
-0.000506013
0.000509786
-0.000548152
0.00034533
-0.000543148
0.00021154
-0.000496073
0.000117655
-0.00041421
5.78558e-05
-0.000316494
2.284e-05
-0.000220883
7.58666e-06
-0.000134359
1.24141e-05
-5.24168e-05
4.20138e-05
2.4481e-05
9.1625e-05
0.000120846
0.000174296
0.00021894
0.000297718
0.000304739
0.000460803
0.000358807
0.000660477
0.000361901
0.000881359
0.000297144
0.00102988
0.000185867
0.000811837
-6.3354e-05
-0.00150009
-0.000277789
0.000268987
-0.00395913
-0.00314296
-0.00582112
-0.00199275
-0.00697233
-0.00130507
-0.00767163
-0.000837667
-0.00800561
-0.000463682
-0.00800539
-0.00013463
-0.00775779
0.000221167
-0.00727019
0.000572512
-0.00653291
0.00090662
-0.0055315
0.00123867
-0.00426558
0.00157378
-0.00277766
0.00188905
-0.00114238
0.00203623
0.000479973
0.00180981
0.00142401
0.000817117
0.00173865
0.000323635
0.0017328
3.34016e-05
0.00146509
-9.80148e-05
0.00115569
-0.00019652
0.000869224
-0.000261557
0.000620836
-0.000294625
0.000417543
-0.000292694
0.000262428
-0.000259073
0.000153449
-0.000207532
8.5468e-05
-0.000152933
5.21826e-05
-0.000101106
4.88867e-05
-4.91545e-05
7.4562e-05
-1.22831e-06
0.000147133
4.82378e-05
0.000268552
9.74814e-05
0.000438408
0.000134841
0.000649559
0.000147614
0.000887079
0.00012434
0.00112379
6.03935e-05
0.00136762
-5.80067e-05
0.00155047
-0.000246242
5.86147e-05
0.00463562
-0.000195861
1.87828e-05
-0.00318818
-0.00524422
-0.00661351
-0.00751572
-0.00804412
-0.00824354
-0.0080871
-0.0075793
-0.00673744
-0.00556354
-0.00405451
-0.00223014
-0.000258427
0.00148825
0.00224467
0.00251033
0.00248843
0.00233843
0.00209258
0.00178327
0.00144169
0.00110252
0.000797387
0.0005442
0.000345963
0.000199772
0.000105497
5.86973e-05
6.08494e-05
0.00011159
0.000199009
0.000298614
0.000374501
0.000386044
0.000278684
-1.71267e-05
)
;

boundaryField
{
    floor
    {
        type            calculated;
        value           nonuniform List<scalar> 
29
(
0
0
0
0
0
0
0
0
0
0
0
0
0
0
0
0
0
0
0
0
6.75867e-07
2.35713e-06
4.6791e-06
7.87878e-06
1.21277e-06
1.14577e-06
3.34364e-06
5.34971e-06
7.62765e-06
)
;
    }
    ceiling
    {
        type            calculated;
        value           nonuniform List<scalar> 
43
(
0.000117909
0.000114561
5.46224e-05
6.41152e-05
6.33785e-05
6.43128e-05
6.46367e-05
6.48134e-05
6.48829e-05
6.48288e-05
6.48249e-05
6.48627e-05
6.4879e-05
6.48546e-05
6.47801e-05
6.46037e-05
6.31911e-05
6.07199e-05
5.79902e-05
5.53221e-05
5.20386e-05
4.94439e-05
4.79346e-05
4.71503e-05
4.66285e-05
4.61222e-05
4.56403e-05
4.52625e-05
4.50402e-05
4.50769e-05
4.55278e-05
4.60416e-05
4.66951e-05
4.73761e-05
4.79644e-05
4.84087e-05
4.88078e-05
4.93123e-05
4.95289e-05
5.35502e-05
1.77617e-05
1.49274e-05
2.76397e-05
)
;
    }
    sWall
    {
        type            calculated;
        value           uniform -0.000100615;
    }
    nWall
    {
        type            calculated;
        value           nonuniform List<scalar> 6(-1.41561e-05 -1.64288e-05 -1.19918e-05 -8.60197e-06 -8.26514e-06 -1.20962e-05);
    }
    sideWalls
    {
        type            empty;
        value           nonuniform 0();
    }
    glass1
    {
        type            calculated;
        value           nonuniform List<scalar> 9(-2.81115e-05 -7.97631e-05 -0.000129028 -0.000177366 -0.000225306 -0.000272961 -0.000319448 -0.0003631 -0.000400886);
    }
    glass2
    {
        type            calculated;
        value           nonuniform List<scalar> 2(-3.684e-05 -4.08728e-05);
    }
    sun
    {
        type            calculated;
        value           uniform 0;
    }
    heatsource1
    {
        type            calculated;
        value           nonuniform List<scalar> 3(2.00276e-07 2.00284e-07 2.00366e-07);
    }
    heatsource2
    {
        type            calculated;
        value           nonuniform List<scalar> 4(4.9176e-08 4.96017e-08 0 0);
    }
    Table_master
    {
        type            calculated;
        value           nonuniform List<scalar> 9(-1.5077e-07 -1.50869e-07 -1.5094e-07 -1.51032e-07 -1.51134e-07 -1.51143e-07 -1.51089e-07 -1.51009e-07 -1.50869e-07);
    }
    Table_slave
    {
        type            calculated;
        value           nonuniform List<scalar> 9(1.5044e-07 1.50472e-07 1.50459e-07 1.50463e-07 1.50479e-07 1.50501e-07 1.50559e-07 1.50577e-07 1.50506e-07);
    }
    inlet
    {
        type            calculated;
        value           uniform -0.000204249;
    }
    outlet
    {
        type            calculated;
        value           nonuniform List<scalar> 2(-0.0046526 0.00471726);
    }
}


// ************************************************************************* //
