/*--------------------------------*- C++ -*----------------------------------*\
  =========                 |
  \\      /  F ield         | OpenFOAM: The Open Source CFD Toolbox
   \\    /   O peration     | Website:  https://openfoam.org
    \\  /    A nd           | Version:  6
     \\/     M anipulation  |
\*---------------------------------------------------------------------------*/
FoamFile
{
    version     2.0;
    format      ascii;
    class       volScalarField;
    location    "800";
    object      nut;
}
// * * * * * * * * * * * * * * * * * * * * * * * * * * * * * * * * * * * * * //

dimensions      [0 2 -1 0 0 0 0];

internalField   nonuniform List<scalar> 
459
(
0.000963137
0.00103986
0.00105035
0.00109598
0.00113717
0.00117453
0.00120964
0.0012444
0.0012754
0.00129479
0.00129774
0.00128014
0.00124127
0.00118713
0.0011288
0.000415537
0.000507647
0.000539154
0.00051791
0.000491499
0.000464089
0.000436303
0.00041054
0.000387413
0.000366844
0.000348765
0.000332755
0.000318452
0.000305502
0.000293488
0.000281772
0.00026937
0.000264804
0.000246919
0.00134574
0.00295647
0.00273209
0.00316368
0.00355313
0.00395371
0.00433516
0.00464866
0.0048962
0.00510955
0.0052501
0.00526372
0.00506971
0.00450556
0.00317738
0.00113076
0.000794481
0.000550914
0.000865129
0.0010674
0.00119392
0.00123926
0.00121724
0.00106126
0.000952983
0.000869304
0.000801758
0.000743282
0.000692039
0.000646465
0.000604768
0.000566672
0.000535592
0.000502763
0.000615489
0.000345903
0.00167177
0.00405163
0.00326259
0.00424142
0.00465084
0.00494484
0.00516682
0.00534272
0.00550991
0.00569709
0.0058783
0.00601466
0.00605819
0.00594408
0.00556399
0.00451013
0.00111765
0.00092332
0.00120152
0.00139161
0.00152798
0.00160121
0.00154159
0.000605091
0.000545238
0.000496625
0.000456959
0.000424306
0.000397181
0.000374469
0.000355392
0.000339466
0.000362935
0.000409016
0.000689366
0.000409749
0.00199248
0.00536779
0.00318525
0.00449371
0.00490872
0.00502428
0.00505468
0.00509712
0.00519826
0.00536922
0.00557971
0.00579579
0.00597673
0.00606189
0.00601778
0.00567002
0.0044605
0.00121167
0.00150209
0.00181118
0.00202244
0.0021498
0.00222107
0.00210715
0.000674786
0.000632071
0.000604366
0.000584733
0.000567361
0.000548164
0.000529064
0.00050774
0.000481071
0.000451608
0.0004462
0.000806729
0.000458668
0.00232222
0.00711368
0.00352886
0.00422163
0.0048677
0.00491579
0.0048137
0.00476211
0.00484506
0.00502664
0.00525812
0.00551428
0.00575026
0.00587315
0.00584431
0.00561624
0.0050982
0.00413534
0.00365824
0.00337245
0.00318367
0.00307897
0.00304343
0.00301427
0.00274601
0.00265386
0.00261817
0.00258418
0.00252216
0.00240393
0.00218013
0.00187903
0.00152609
0.00115248
0.000844018
0.000814257
0.000603081
0.00058853
0.000708808
0.000791255
0.00267129
0.00902525
0.00515181
0.00395146
0.00448504
0.00474322
0.00477082
0.00459356
0.00470594
0.00488835
0.00511902
0.00538398
0.0056237
0.00575329
0.00569878
0.00543242
0.00498962
0.00447253
0.00407845
0.00380002
0.00360892
0.00350224
0.00345445
0.00343383
0.00340171
0.0033843
0.00336177
0.00331872
0.00324703
0.00314118
0.00295672
0.00267186
0.00228567
0.00181971
0.00137386
0.00098163
0.00078783
0.000699407
0.00102295
0.000822261
0.00300545
0.0104671
0.00784527
0.00527575
0.00458766
0.00457438
0.00476077
0.00477332
0.00482165
0.00493615
0.00513994
0.005405
0.00565031
0.00576942
0.00567257
0.00533784
0.00483448
0.00433486
0.0040007
0.00380799
0.00365978
0.00352131
0.00341488
0.00336651
0.00336006
0.00336593
0.00335912
0.0033311
0.00328229
0.00321855
0.00314149
0.00295303
0.00262733
0.00220639
0.00178897
0.00138506
0.00112531
0.00105409
0.00110053
0.000909568
0.00308069
0.00973003
0.00838725
0.00735263
0.00644768
0.00587661
0.00553479
0.00519872
0.00503474
0.0050789
0.00528723
0.00557181
0.00581223
0.00588198
0.00568731
0.00523104
0.00461536
0.00409002
0.0038276
0.0035982
0.00334542
0.0031546
0.00305762
0.0030305
0.0030361
0.00304589
0.00304615
0.0030367
0.00302524
0.00302433
0.00304811
0.00307455
0.0028552
0.00254915
0.00227326
0.00213203
0.00223412
0.00264822
0.00338166
0.00145898
0.00300979
0.00360489
0.00406048
0.00426663
0.00436723
0.00436666
0.00437785
0.00450811
0.00478128
0.00515577
0.00556136
0.00591158
0.00609275
0.00599998
0.00556669
0.00488223
0.00415247
0.00367984
0.00333598
0.00300004
0.00275372
0.00262511
0.00257366
0.00255846
0.00255375
0.00254508
0.00252568
0.00249326
0.00244691
0.00238539
0.00230752
0.00221483
0.00213321
0.00207515
0.00206495
0.00209652
0.00210987
0.00204553
0.00192184
0.00137201
0.00180108
0.00339147
0.00423787
0.00476293
0.00523976
0.0056682
0.00602526
0.00629373
0.00647036
0.00651349
0.00629029
0.00574409
0.00484571
0.00390809
0.00326193
0.00283608
0.00246676
0.00221978
0.0020941
0.0020396
0.00201841
0.00201045
0.00200579
0.0019998
0.00199106
0.00198024
0.00196954
0.00196259
0.00196443
0.00198455
0.00201062
0.00204443
0.00208211
0.00210069
0.00205992
0.0019427
0.00176177
0.00113464
0.00209724
0.00434683
0.00545968
0.00585728
0.0062235
0.00655281
0.00654157
0.00639974
0.00624586
0.00596819
0.00517793
0.0041544
0.00322968
0.00257968
0.00213409
0.00182882
0.0016644
0.00157835
0.00153848
0.00152475
0.00152641
0.00153887
0.00156032
0.00159023
0.00162858
0.0016753
0.00172955
0.0017888
0.00185378
0.00193045
0.00201746
0.00211068
0.00219775
0.00226148
0.0022601
0.00230267
0.00229276
0.00115286
0.00181865
0.00192432
0.0020027
0.00211445
0.00199064
0.00184138
0.0016779
0.00151491
0.00140499
0.00130252
0.00118417
0.00104423
0.000898851
0.000744306
0.000615253
0.000536173
0.000500777
0.00049107
0.000495006
0.000506461
0.000521543
0.000539066
0.000558767
0.000580571
0.000604504
0.000630679
0.000659304
0.000690738
0.000725596
0.00076495
0.00080965
0.000858741
0.000912966
0.000973159
0.00103966
0.00111992
0.00114914
0.00112343
0.00105365
0.000980152
)
;

boundaryField
{
    floor
    {
        type            nutkWallFunction;
        Cmu             0.09;
        kappa           0.41;
        E               9.8;
        value           nonuniform List<scalar> 
29
(
0.000135771
4.87886e-05
6.06831e-05
6.4687e-05
6.19898e-05
5.86177e-05
5.50943e-05
5.14959e-05
4.81339e-05
4.50929e-05
4.23689e-05
3.99586e-05
3.78105e-05
3.58801e-05
3.41226e-05
3.24833e-05
3.0876e-05
2.9165e-05
2.85323e-05
2.60396e-05
2.60395e-05
3.9577e-05
4.8033e-05
5.43976e-05
0.000135771
4.87885e-05
6.61767e-05
0.000111657
0.000145349
)
;
    }
    ceiling
    {
        type            nutkWallFunction;
        Cmu             0.09;
        kappa           0.41;
        E               9.8;
        value           nonuniform List<scalar> 
43
(
0.000213437
0.000225017
0.000233566
0.000245775
0.00023236
0.000216042
0.000197992
0.000179799
0.000167408
0.000155759
0.000142174
0.000125908
0.000108742
9.0134e-05
7.42425e-05
6.4309e-05
5.98066e-05
5.85658e-05
5.90705e-05
6.05348e-05
6.24561e-05
6.46798e-05
6.71692e-05
6.99117e-05
7.29078e-05
7.61679e-05
7.97145e-05
8.3588e-05
8.78588e-05
9.26512e-05
9.80596e-05
0.000103959
0.00011043
0.000117561
0.000125381
0.000134744
0.000138134
0.000135152
0.000127019
0.000118387
0.000341154
0.000402717
0.000243729
)
;
    }
    sWall
    {
        type            nutkWallFunction;
        Cmu             0.09;
        kappa           0.41;
        E               9.8;
        value           uniform 0.000213496;
    }
    nWall
    {
        type            nutkWallFunction;
        Cmu             0.09;
        kappa           0.41;
        E               9.8;
        value           nonuniform List<scalar> 6(9.58389e-05 9.95803e-05 0.000110028 0.000136462 0.000138574 0.000118393);
    }
    sideWalls
    {
        type            empty;
    }
    glass1
    {
        type            nutkWallFunction;
        Cmu             0.09;
        kappa           0.41;
        E               9.8;
        value           nonuniform List<scalar> 9(0.000116441 0.000160881 0.00019761 0.000232972 0.000268694 0.000305926 0.000341093 0.000348963 0.000341572);
    }
    glass2
    {
        type            nutkWallFunction;
        Cmu             0.09;
        kappa           0.41;
        E               9.8;
        value           nonuniform List<scalar> 2(0.000173595 0.000163747);
    }
    sun
    {
        type            nutkWallFunction;
        Cmu             0.09;
        kappa           0.41;
        E               9.8;
        value           nonuniform List<scalar> 
14
(
0.000116378
0.000125403
0.000126631
0.000131958
0.000136744
0.000141067
0.000145117
0.000149113
0.000152667
0.000154884
0.000155221
0.000153209
0.000148754
0.000142522
)
;
    }
    heatsource1
    {
        type            nutkWallFunction;
        Cmu             0.09;
        kappa           0.41;
        E               9.8;
        value           nonuniform List<scalar> 3(7.0912e-05 8.58058e-05 9.58385e-05);
    }
    heatsource2
    {
        type            nutkWallFunction;
        Cmu             0.09;
        kappa           0.41;
        E               9.8;
        value           nonuniform List<scalar> 4(0.000135996 9.62267e-05 9.62267e-05 0.000134473);
    }
    Table_master
    {
        type            nutkWallFunction;
        Cmu             0.09;
        kappa           0.41;
        E               9.8;
        value           nonuniform List<scalar> 9(7.29786e-05 6.54603e-05 5.92794e-05 5.41808e-05 4.99419e-05 4.63895e-05 4.33913e-05 4.0855e-05 3.87242e-05);
    }
    Table_slave
    {
        type            nutkWallFunction;
        Cmu             0.09;
        kappa           0.41;
        E               9.8;
        value           nonuniform List<scalar> 9(8.16211e-05 7.63382e-05 7.2889e-05 7.04333e-05 6.82519e-05 6.58318e-05 6.34134e-05 6.07007e-05 5.7288e-05);
    }
    inlet
    {
        type            calculated;
        value           uniform 0.000100623;
    }
    outlet
    {
        type            calculated;
        value           nonuniform List<scalar> 2(0.00181865 0.00192432);
    }
}


// ************************************************************************* //
