// -*- C++ -*-
// File generated by PyFoam - sorry for the ugliness

FoamFile
{
 version 2.0;
 format ascii;
 class volVectorField;
 location "80";
 object U;
}

dimensions [ 0 1 -1 0 0 0 0 ];

internalField nonuniform List<vector> 459
(
  (-0.00877658 0.0727077 0)
  (-0.147494 0.0258511 0)
  (-0.180323 0.0104376 0)
  (-0.201438 -0.00185398 0)
  (-0.202642 -0.0145969 0)
  (-0.181724 -0.0286566 0)
  (-0.14104 -0.0429098 0)
  (-0.0869099 -0.0538637 0)
  (-0.0283197 -0.0579709 0)
  (0.0385767 -0.0442657 0)
  (0.0750678 -0.0305589 0)
  (0.100588 -0.0173475 0)
  (0.109851 -0.00390382 0)
  (0.0963137 0.0154137 0)
  (0.093163 0.0557454 0)
  (-0.086953 0.0124734 0)
  (-0.0276226 7.83146e-05 0)
  (-0.0296981 -0.022753 0)
  (0.00221294 -0.0377688 0)
  (0.0402381 -0.0357177 0)
  (0.0745914 -0.0294128 0)
  (0.102057 -0.0194414 0)
  (0.120721 -0.0139874 0)
  (0.132189 -0.0111871 0)
  (0.139083 -0.00850444 0)
  (0.142113 -0.00540126 0)
  (0.140731 -0.00208436 0)
  (0.135615 0.00104578 0)
  (0.127359 0.00395592 0)
  (0.115764 0.00724424 0)
  (0.0991474 0.0122745 0)
  (0.0770366 0.018254 0)
  (0.0111985 0.0294985 0)
  (0.10755 0.00170177 0)
  (0.108 0.149957 0)
  (-0.125972 0.0729805 0)
  (-0.141915 0.0460609 0)
  (-0.163169 0.0205958 0)
  (-0.165247 -0.0086523 0)
  (-0.146341 -0.0412214 0)
  (-0.109893 -0.0709446 0)
  (-0.0632428 -0.0895309 0)
  (-0.014335 -0.0913277 0)
  (0.0321664 -0.0726848 0)
  (0.064765 -0.0488102 0)
  (0.0880208 -0.0243131 0)
  (0.100978 0.00142663 0)
  (0.104878 0.0292799 0)
  (0.110784 0.0657595 0)
  (0.105288 0.0640979 0)
  (0.0690609 0.0636553 0)
  (-0.136172 0.0277591 0)
  (0.0162763 0.013604 0)
  (0.0284604 -0.0375131 0)
  (0.0460782 -0.0540433 0)
  (0.0684248 -0.0546559 0)
  (0.0907584 -0.0471433 0)
  (0.104398 -0.0247292 0)
  (0.108174 -0.0122749 0)
  (0.108763 -0.00730364 0)
  (0.109733 -0.00304231 0)
  (0.109851 0.00209974 0)
  (0.108275 0.00678874 0)
  (0.106347 0.0103623 0)
  (0.104757 0.0135976 0)
  (0.102595 0.0188449 0)
  (0.0946168 0.0322443 0)
  (0.0797838 0.043896 0)
  (0.0163231 0.0562756 0)
  (0.167666 0.0349189 0)
  (0.217088 0.222862 0)
  (-0.123839 0.110426 0)
  (-0.105935 0.0708238 0)
  (-0.125797 0.02936 0)
  (-0.127186 -0.018016 0)
  (-0.107407 -0.0690862 0)
  (-0.0732283 -0.112635 0)
  (-0.0337092 -0.135253 0)
  (0.00519863 -0.131292 0)
  (0.0379149 -0.106483 0)
  (0.0639981 -0.0746524 0)
  (0.083036 -0.0415078 0)
  (0.0949066 -0.00838974 0)
  (0.100917 0.0249593 0)
  (0.103912 0.0580962 0)
  (0.0953837 0.0735604 0)
  (0.0753042 0.110312 0)
  (-0.172262 0.0125562 0)
  (0.0727429 -0.0392223 0)
  (0.0779213 -0.0624572 0)
  (0.0845775 -0.0716281 0)
  (0.0946689 -0.0718008 0)
  (0.106373 -0.0693983 0)
  (0.112195 -0.0496655 0)
  (0.0908403 -0.0309688 0)
  (0.0705715 -0.0191781 0)
  (0.0610813 -0.0101714 0)
  (0.0600671 -0.00294533 0)
  (0.0640079 0.00180519 0)
  (0.070666 0.00443345 0)
  (0.0805213 0.00660414 0)
  (0.095667 0.0119225 0)
  (0.0983289 0.0400589 0)
  (0.086462 0.0613666 0)
  (0.0202468 0.0800202 0)
  (0.204453 0.0743161 0)
  (0.31931 0.280591 0)
  (-0.136218 0.140474 0)
  (-0.0704976 0.0923881 0)
  (-0.0874593 0.0385218 0)
  (-0.084114 -0.0258724 0)
  (-0.0598121 -0.0958396 0)
  (-0.0282878 -0.149956 0)
  (0.00263184 -0.172434 0)
  (0.0291066 -0.162828 0)
  (0.0510079 -0.133164 0)
  (0.0687615 -0.0948358 0)
  (0.0815621 -0.0550023 0)
  (0.0900385 -0.0167 0)
  (0.0959223 0.0195973 0)
  (0.10244 0.0536918 0)
  (0.112281 0.0811132 0)
  (0.127142 0.117374 0)
  (0.161568 0.049389 0)
  (0.123278 0.0127108 0)
  (0.1322 -0.0321517 0)
  (0.124895 -0.0598937 0)
  (0.115407 -0.0703343 0)
  (0.106384 -0.0705192 0)
  (0.0932153 -0.0648437 0)
  (0.0886874 -0.036807 0)
  (0.104665 -0.0222602 0)
  (0.11578 -0.0149018 0)
  (0.118913 -0.0105099 0)
  (0.116467 -0.00650635 0)
  (0.109748 -0.00177759 0)
  (0.0978214 0.00419135 0)
  (0.0800557 0.00977181 0)
  (0.0496757 0.0117482 0)
  (0.0579049 0.0518234 0)
  (0.0673279 0.0752773 0)
  (0.0127806 0.095541 0)
  (0.231173 0.124182 0)
  (0.412211 0.323671 0)
  (-0.158622 0.161735 0)
  (-0.0372861 0.104871 0)
  (-0.0480048 0.0430342 0)
  (-0.0310942 -0.0376261 0)
  (-0.00126371 -0.12341 0)
  (0.024416 -0.179472 0)
  (0.0427194 -0.196098 0)
  (0.056555 -0.182372 0)
  (0.0668567 -0.148669 0)
  (0.0739578 -0.105912 0)
  (0.0782906 -0.0623226 0)
  (0.0813013 -0.0220708 0)
  (0.0851556 0.013941 0)
  (0.092382 0.0452328 0)
  (0.105447 0.0684731 0)
  (0.125767 0.0807069 0)
  (0.146543 0.0377292 0)
  (0.151043 0.00380341 0)
  (0.145952 -0.0294863 0)
  (0.133511 -0.0504415 0)
  (0.118215 -0.0585976 0)
  (0.102874 -0.0571771 0)
  (0.088013 -0.0472534 0)
  (0.0803539 -0.0237159 0)
  (0.0805116 -0.00842369 0)
  (0.0793986 -0.000509079 0)
  (0.0729844 0.00532273 0)
  (0.0637489 0.0112213 0)
  (0.0525202 0.0174966 0)
  (0.040997 0.0226124 0)
  (0.0318062 0.0244469 0)
  (0.0216686 0.0237336 0)
  (0.0295859 0.0461855 0)
  (0.0513322 0.0695682 0)
  (0.0281741 0.0843422 0)
  (0.148662 0.122224 0)
  (0.123513 0.0951588 0)
  (0.0737174 0.0657026 0)
  (-0.0133991 0.0515504 0)
  (0.487705 0.356754 0)
  (-0.185484 0.172267 0)
  (-0.00914825 0.10084 0)
  (-0.00329642 0.0335326 0)
  (0.0367464 -0.0677699 0)
  (0.0638545 -0.148509 0)
  (0.0795165 -0.19583 0)
  (0.0855154 -0.207141 0)
  (0.0850125 -0.188585 0)
  (0.0806942 -0.151185 0)
  (0.074453 -0.10574 0)
  (0.0680727 -0.0611394 0)
  (0.0635529 -0.0220171 0)
  (0.0627603 0.0104158 0)
  (0.0678623 0.0356739 0)
  (0.0794834 0.0512622 0)
  (0.0980014 0.0529836 0)
  (0.113751 0.0277198 0)
  (0.118983 0.0005422 0)
  (0.115219 -0.0223053 0)
  (0.104825 -0.0373439 0)
  (0.0904584 -0.0433915 0)
  (0.0746375 -0.0415679 0)
  (0.0590961 -0.0328957 0)
  (0.0468584 -0.0173734 0)
  (0.0383668 -0.00409437 0)
  (0.0289668 0.0057231 0)
  (0.0198619 0.013479 0)
  (0.0105926 0.0204549 0)
  (0.0031571 0.0258308 0)
  (-0.000585141 0.0275945 0)
  (-0.000766149 0.0256057 0)
  (-0.00159211 0.022495 0)
  (0.0053988 0.0333359 0)
  (0.0254234 0.0509175 0)
  (0.0175326 0.0527232 0)
  (0.0717258 0.0765148 0)
  (0.0648426 0.0564961 0)
  (0.0521891 0.0468107 0)
  (-0.0246907 0.0609532 0)
  (0.55293 0.384597 0)
  (-0.199131 0.154171 0)
  (0.0284271 0.0473813 0)
  (0.0749525 -0.0235357 0)
  (0.115546 -0.10608 0)
  (0.135139 -0.169939 0)
  (0.137736 -0.202765 0)
  (0.127185 -0.203493 0)
  (0.10817 -0.178273 0)
  (0.0858533 -0.13789 0)
  (0.0640095 -0.092067 0)
  (0.0458437 -0.0496512 0)
  (0.0335211 -0.0149525 0)
  (0.0283074 0.0108326 0)
  (0.0322833 0.0283344 0)
  (0.0429584 0.0373928 0)
  (0.0584423 0.0356588 0)
  (0.0703656 0.0192524 0)
  (0.0741224 0.000239197 0)
  (0.0706571 -0.0154219 0)
  (0.0609036 -0.0255359 0)
  (0.0468725 -0.0288741 0)
  (0.030811 -0.025948 0)
  (0.0143737 -0.0176986 0)
  (-0.00112381 -0.00434196 0)
  (-0.0137835 0.00773099 0)
  (-0.0211638 0.0154121 0)
  (-0.0269316 0.0211856 0)
  (-0.0304063 0.0253831 0)
  (-0.0309199 0.0270484 0)
  (-0.0286903 0.0255414 0)
  (-0.0252011 0.0218491 0)
  (-0.022998 0.0189337 0)
  (-0.0184053 0.023415 0)
  (-0.0065702 0.0336214 0)
  (-0.0106234 0.033794 0)
  (0.0188266 0.0531039 0)
  (0.0215987 0.0507067 0)
  (0.0335816 0.0568358 0)
  (-0.0457809 0.0882876 0)
  (0.6454 0.371028 0)
  (-0.0137327 0.121233 0)
  (0.105827 -0.0415052 0)
  (0.195684 -0.105242 0)
  (0.222206 -0.146658 0)
  (0.217477 -0.177054 0)
  (0.194035 -0.188227 0)
  (0.15786 -0.176949 0)
  (0.114875 -0.146384 0)
  (0.0722088 -0.106079 0)
  (0.034742 -0.0638617 0)
  (0.00748671 -0.0283779 0)
  (-0.00879541 -0.00251598 0)
  (-0.0131876 0.0123401 0)
  (-0.00894535 0.0214896 0)
  (0.000637032 0.0257824 0)
  (0.0127062 0.0231773 0)
  (0.0207365 0.0126752 0)
  (0.0220244 0.000768789 0)
  (0.0178101 -0.00869744 0)
  (0.00780725 -0.0139199 0)
  (-0.0068555 -0.0138112 0)
  (-0.0226066 -0.00888178 0)
  (-0.0382011 -0.000768532 0)
  (-0.0498153 0.00784736 0)
  (-0.0558931 0.0144715 0)
  (-0.0590635 0.0193032 0)
  (-0.0600059 0.0228004 0)
  (-0.0587146 0.0244962 0)
  (-0.0555607 0.0239065 0)
  (-0.0515711 0.0212119 0)
  (-0.0483462 0.0178219 0)
  (-0.0470659 0.0163198 0)
  (-0.0457467 0.0198763 0)
  (-0.0429214 0.0277588 0)
  (-0.0462737 0.0357859 0)
  (-0.0394946 0.0527959 0)
  (-0.0411639 0.0669128 0)
  (-0.0562648 0.0846351 0)
  (-0.173544 0.101912 0)
  (0.774866 0.356605 0)
  (0.368346 0.24754 0)
  (0.387334 0.149061 0)
  (0.394744 0.0356805 0)
  (0.355425 -0.0540006 0)
  (0.293031 -0.10723 0)
  (0.22258 -0.125772 0)
  (0.151312 -0.117332 0)
  (0.0829639 -0.0898052 0)
  (0.0246236 -0.0559867 0)
  (-0.0217575 -0.0226886 0)
  (-0.04464 -0.00388704 0)
  (-0.0557868 0.00686188 0)
  (-0.056721 0.0125775 0)
  (-0.0528705 0.0162136 0)
  (-0.0461364 0.0177619 0)
  (-0.0389532 0.016137 0)
  (-0.0351337 0.0110595 0)
  (-0.0365198 0.00533511 0)
  (-0.0421652 0.00130046 0)
  (-0.0514416 0.000232302 0)
  (-0.062757 0.00200256 0)
  (-0.0733463 0.00545871 0)
  (-0.0807863 0.00952216 0)
  (-0.0848942 0.0136517 0)
  (-0.086152 0.0172262 0)
  (-0.0853499 0.0199962 0)
  (-0.0828948 0.0217582 0)
  (-0.0792035 0.0221937 0)
  (-0.0750092 0.0212615 0)
  (-0.0713753 0.019501 0)
  (-0.0693696 0.0181498 0)
  (-0.0693081 0.0189278 0)
  (-0.0701668 0.023544 0)
  (-0.0715389 0.0322345 0)
  (-0.075379 0.0442759 0)
  (-0.0776575 0.0605587 0)
  (-0.0848544 0.069663 0)
  (-0.111676 0.0574808 0)
  (-0.183696 0.00597548 0)
  (0.17499 -0.0579892 0)
  (0.219453 -0.0771241 0)
  (0.209459 -0.09201 0)
  (0.157618 -0.088196 0)
  (0.0944577 -0.0729543 0)
  (0.0321244 -0.0505924 0)
  (-0.0303683 -0.0192616 0)
  (-0.0680837 0.000830209 0)
  (-0.0908427 0.0121193 0)
  (-0.100524 0.0170465 0)
  (-0.102976 0.0194258 0)
  (-0.101982 0.0209472 0)
  (-0.0991716 0.0223907 0)
  (-0.0954896 0.023484 0)
  (-0.0922662 0.0236912 0)
  (-0.0911676 0.0229107 0)
  (-0.0927983 0.0220163 0)
  (-0.0964324 0.0218591 0)
  (-0.100814 0.0227701 0)
  (-0.10469 0.0243448 0)
  (-0.107237 0.0260072 0)
  (-0.1081 0.0275427 0)
  (-0.107312 0.0288995 0)
  (-0.105065 0.0299146 0)
  (-0.101658 0.0304896 0)
  (-0.0974022 0.0305417 0)
  (-0.0927148 0.0300489 0)
  (-0.0881468 0.0291975 0)
  (-0.0842405 0.0284587 0)
  (-0.0812595 0.0285451 0)
  (-0.0788956 0.0303074 0)
  (-0.0762238 0.0346137 0)
  (-0.0722754 0.0420907 0)
  (-0.0664641 0.0535762 0)
  (-0.0574993 0.0701328 0)
  (-0.04785 0.0830398 0)
  (-0.0474659 0.0680152 0)
  (-0.00587885 -0.0891342 0)
  (0.0138057 0.0208555 0)
  (0.0093789 -0.0273969 0)
  (3.26195e-05 -0.0592785 0)
  (-0.0360257 -0.0645844 0)
  (-0.0738053 -0.0649017 0)
  (-0.106021 -0.063183 0)
  (-0.127407 -0.0642822 0)
  (-0.13797 -0.0689468 0)
  (-0.142511 -0.0728452 0)
  (-0.143867 -0.0763594 0)
  (-0.143416 -0.0781795 0)
  (-0.141848 -0.0783724 0)
  (-0.139381 -0.0777576 0)
  (-0.136299 -0.0774699 0)
  (-0.133191 -0.0785221 0)
  (-0.130787 -0.0812949 0)
  (-0.129424 -0.0851679 0)
  (-0.128874 -0.0890527 0)
  (-0.128582 -0.0920074 0)
  (-0.127982 -0.0936465 0)
  (-0.126699 -0.0939881 0)
  (-0.124529 -0.0931965 0)
  (-0.121375 -0.0916412 0)
  (-0.117252 -0.0898962 0)
  (-0.112302 -0.0885037 0)
  (-0.106787 -0.0879023 0)
  (-0.101068 -0.0883558 0)
  (-0.095539 -0.0898347 0)
  (-0.0904834 -0.0919212 0)
  (-0.0858808 -0.0937613 0)
  (-0.0812143 -0.0940907 0)
  (-0.075305 -0.0914465 0)
  (-0.0662098 -0.0846176 0)
  (-0.0513256 -0.0730596 0)
  (-0.0285008 -0.0585444 0)
  (0.00690723 -0.0573632 0)
  (0.0453407 -0.108759 0)
  (0.0345374 -0.221775 0)
  (-0.0310977 -0.215407 0)
  (-0.248382 -0.0202064 0)
  (-0.214798 0.20438 0)
  (-0.201929 0.202773 0)
  (-0.200776 0.202284 0)
  (-0.205004 0.204686 0)
  (-0.209174 0.214351 0)
  (-0.2081 0.225297 0)
  (-0.203752 0.238917 0)
  (-0.198014 0.251596 0)
  (-0.192462 0.260926 0)
  (-0.187778 0.267406 0)
  (-0.183907 0.271457 0)
  (-0.180264 0.274066 0)
  (-0.176233 0.27649 0)
  (-0.171494 0.279805 0)
  (-0.166153 0.284641 0)
  (-0.160632 0.290956 0)
  (-0.155343 0.298027 0)
  (-0.150464 0.304863 0)
  (-0.14592 0.310645 0)
  (-0.141518 0.314977 0)
  (-0.137066 0.317836 0)
  (-0.132386 0.319443 0)
  (-0.127345 0.320232 0)
  (-0.121899 0.320745 0)
  (-0.116117 0.321507 0)
  (-0.110159 0.322989 0)
  (-0.104232 0.325565 0)
  (-0.0985165 0.329451 0)
  (-0.0930479 0.334659 0)
  (-0.087601 0.340957 0)
  (-0.0815807 0.347898 0)
  (-0.0740038 0.354953 0)
  (-0.0637082 0.361842 0)
  (-0.0497948 0.36914 0)
  (-0.0316517 0.379504 0)
  (-0.00674544 0.394668 0)
  (0.0319307 0.439824 0)
  (-0.115956 0.578104 0)
)
;

boundaryField
{
  floor
  {
    type noSlip;
  }
  ceiling
  {
    type noSlip;
  }
  sWall
  {
    type noSlip;
  }
  nWall
  {
    type noSlip;
  }
  sideWalls
  {
    type empty;
  }
  glass1
  {
    type noSlip;
  }
  glass2
  {
    type noSlip;
  }
  sun
  {
    type noSlip;
  }
  heatsource1
  {
    type noSlip;
  }
  heatsource2
  {
    type noSlip;
  }
  Table_master
  {
    type noSlip;
  }
  Table_slave
  {
    type noSlip;
  }
  inlet
  {
    type fixedValue;
    value uniform (0.277164 -0.114805 0);
  }
  outlet
  {
    type zeroGradient;
  }
} 	// ************************************************************************* //

