/*--------------------------------*- C++ -*----------------------------------*\
  =========                 |
  \\      /  F ield         | OpenFOAM: The Open Source CFD Toolbox
   \\    /   O peration     | Website:  https://openfoam.org
    \\  /    A nd           | Version:  6
     \\/     M anipulation  |
\*---------------------------------------------------------------------------*/
FoamFile
{
    version     2.0;
    format      ascii;
    class       volScalarField;
    location    "1100";
    object      alphat;
}
// * * * * * * * * * * * * * * * * * * * * * * * * * * * * * * * * * * * * * //

dimensions      [1 -1 -1 0 0 0 0];

internalField   nonuniform List<scalar> 
459
(
0.00118258
0.00128549
0.00130349
0.0013634
0.00141826
0.00146877
0.00151714
0.00156617
0.00160647
0.00163003
0.00163071
0.00160362
0.00154781
0.00147046
0.00138587
0.000515154
0.00063541
0.000699609
0.000681915
0.000652037
0.000618183
0.000581101
0.000545769
0.000513829
0.000485329
0.000459924
0.00043726
0.000417012
0.000398633
0.000381515
0.0003648
0.000347175
0.000336494
0.000308819
0.00163187
0.00379652
0.00356673
0.00413999
0.00468255
0.00523573
0.0057519
0.00615416
0.0065001
0.00679598
0.00699525
0.00703519
0.0068173
0.00613409
0.00438712
0.0014047
0.000914149
0.000574433
0.00110859
0.00146783
0.00170419
0.00181187
0.00179664
0.00151543
0.00133707
0.00120376
0.00109842
0.00101264
0.0009404
0.000875279
0.00081437
0.000756092
0.00070568
0.000659748
0.000787257
0.000416016
0.00201027
0.00519495
0.00434963
0.00557264
0.00613944
0.00655241
0.00686764
0.00711243
0.00736078
0.00763251
0.00789772
0.00810722
0.00818678
0.00806095
0.00755997
0.00612102
0.00135763
0.00117348
0.00157765
0.00191092
0.00218136
0.00234861
0.00227394
0.000821364
0.000732927
0.000661447
0.000603334
0.000555628
0.000516062
0.000482989
0.000455327
0.000432566
0.000464225
0.000532047
0.000881293
0.000486144
0.00237773
0.00676197
0.0043075
0.005917
0.00647867
0.00665142
0.00671783
0.00679651
0.00695559
0.00720578
0.00751768
0.00784811
0.00810695
0.00824548
0.00819106
0.00770677
0.00598543
0.00158195
0.001969
0.00246605
0.00287166
0.00315095
0.0033064
0.00310214
0.000918457
0.000845754
0.000795234
0.000757675
0.000725613
0.000694411
0.000664197
0.000631851
0.000593274
0.000558091
0.000564699
0.00101085
0.000539893
0.00275351
0.00880259
0.00476259
0.00561491
0.00643888
0.00652289
0.00642208
0.0063652
0.00649494
0.00674215
0.00708103
0.00747739
0.00780055
0.00798283
0.00797213
0.00771882
0.00707308
0.00577356
0.00524672
0.00498545
0.00482502
0.00472225
0.00465204
0.00451789
0.00393197
0.00367425
0.00353587
0.00342517
0.00329287
0.00308561
0.0027672
0.00236194
0.00189993
0.00142048
0.00104528
0.00103162
0.000716851
0.000676113
0.000817395
0.000914981
0.00315098
0.0110204
0.0067457
0.00540912
0.00602662
0.00635803
0.00629821
0.00619552
0.00632306
0.00655163
0.00688972
0.0072897
0.0076433
0.00783275
0.00778533
0.00750326
0.00705633
0.00654958
0.0061997
0.00594375
0.00572833
0.00555587
0.005417
0.00527428
0.00506369
0.00488088
0.00471327
0.00454069
0.00435148
0.00413531
0.00383087
0.00341555
0.0028881
0.00227674
0.0017138
0.00125936
0.000971378
0.000839454
0.00121054
0.000952545
0.00352108
0.0126258
0.0098108
0.00708286
0.00643488
0.00649895
0.00650753
0.00642014
0.00641888
0.00658585
0.00692561
0.0073535
0.00772672
0.0079
0.00779051
0.00742503
0.00695108
0.00656829
0.00635874
0.00619452
0.00598793
0.00574155
0.00547719
0.00522507
0.00500209
0.00481575
0.00464376
0.00447299
0.00430257
0.00413895
0.00398277
0.00371641
0.00329764
0.00276545
0.00224188
0.00175572
0.00141446
0.00131191
0.00135064
0.0010692
0.0035961
0.0114705
0.0100441
0.00906062
0.00827918
0.00770661
0.00708732
0.00664769
0.00653263
0.00674246
0.00717687
0.00767119
0.00804091
0.00813097
0.00788043
0.00736561
0.00680763
0.00645367
0.00629926
0.00602118
0.00561937
0.00519211
0.00482099
0.0045409
0.00433931
0.00418386
0.00404885
0.00392767
0.00382634
0.003757
0.00373307
0.0037302
0.00349109
0.00312673
0.00279897
0.00262885
0.00273495
0.00318773
0.00398897
0.00169109
0.00350217
0.00417672
0.0046855
0.0048974
0.0050123
0.00507392
0.0052549
0.00566009
0.00628904
0.00705067
0.00778863
0.00833529
0.00855288
0.00835139
0.00776585
0.00700933
0.00645321
0.00606134
0.00565791
0.00513388
0.00459392
0.00415335
0.00384142
0.00362972
0.00347753
0.00335358
0.00324069
0.00313188
0.00302374
0.0029126
0.00279438
0.00267049
0.0025665
0.00248963
0.00246614
0.0024892
0.00249037
0.00240369
0.00225314
0.00159099
0.00197244
0.00381163
0.00515018
0.00617383
0.00712676
0.00798908
0.00871442
0.00921229
0.00940219
0.00924862
0.00874875
0.0078982
0.00684785
0.00596022
0.00537027
0.00483702
0.00426604
0.00373333
0.00333201
0.00306063
0.00287963
0.00275184
0.00265351
0.00257227
0.00250314
0.0024452
0.00239961
0.00236888
0.00235744
0.00237172
0.0023964
0.00243059
0.00246807
0.00248194
0.00242634
0.00228331
0.00206742
0.00131907
0.00241268
0.00539221
0.00739042
0.00821328
0.00889926
0.00936404
0.00949773
0.00929309
0.0087075
0.00782861
0.00679574
0.00579326
0.00495668
0.00428572
0.00370821
0.00321717
0.00285847
0.00262159
0.00245408
0.00232697
0.00223613
0.00217113
0.00212675
0.00210097
0.0020931
0.00210264
0.00212832
0.00216702
0.00222293
0.00229783
0.00238925
0.0024907
0.00258583
0.00265283
0.00264176
0.00267956
0.002697
0.00134259
0.00228095
0.00226879
0.00231769
0.00244632
0.0023223
0.00218722
0.00207694
0.00196518
0.00184982
0.00171763
0.00155597
0.00137318
0.00118572
0.00101359
0.000876261
0.000780442
0.000720792
0.000686748
0.000669571
0.000663704
0.000665699
0.000674261
0.000686805
0.000703092
0.000723116
0.000746985
0.000774917
0.000807285
0.000844746
0.00088849
0.000938569
0.000994283
0.00105642
0.00112578
0.00120235
0.00129349
0.00132601
0.00129467
0.00121493
0.00113098
)
;

boundaryField
{
    floor
    {
        type            compressible::alphatWallFunction;
        Prt             0.85;
        value           nonuniform List<scalar> 
29
(
0.000195585
7.15656e-05
8.96665e-05
9.91529e-05
9.65491e-05
9.21337e-05
8.71006e-05
8.15488e-05
7.62181e-05
7.13621e-05
6.69973e-05
6.30791e-05
5.95606e-05
5.63974e-05
5.35092e-05
5.08036e-05
4.81466e-05
4.53276e-05
4.36103e-05
3.91269e-05
3.91264e-05
5.62415e-05
6.71228e-05
7.5328e-05
0.000195583
7.15647e-05
8.05466e-05
0.000166504
0.000221984
)
;
    }
    ceiling
    {
        type            compressible::alphatWallFunction;
        Prt             0.85;
        value           nonuniform List<scalar> 
43
(
0.000313481
0.000311807
0.000318071
0.000334627
0.000318818
0.000301469
0.000287215
0.000272684
0.000257584
0.000240154
0.000218628
0.000193982
0.000168316
0.000144336
0.000124864
0.000111064
0.000102373
9.73737e-05
9.48406e-05
9.3974e-05
9.42698e-05
9.55353e-05
9.73855e-05
9.97816e-05
0.000102718
0.000106205
0.000110269
0.000114956
0.000120353
0.00012662
0.000133749
0.000141627
0.000150355
0.000160026
0.000170623
0.000183137
0.000187578
0.0001833
0.000172358
0.000160752
0.000466847
0.000548914
0.000330084
)
;
    }
    sWall
    {
        type            compressible::alphatWallFunction;
        Prt             0.85;
        value           uniform 0.00031232;
    }
    nWall
    {
        type            compressible::alphatWallFunction;
        Prt             0.85;
        value           nonuniform List<scalar> 6(0.000130076 0.000135404 0.000151806 0.000186303 0.000189508 0.000160428);
    }
    sideWalls
    {
        type            empty;
    }
    glass1
    {
        type            compressible::alphatWallFunction;
        Prt             0.85;
        value           nonuniform List<scalar> 9(0.000163647 0.000223705 0.000272989 0.000319983 0.000367312 0.000416687 0.000462129 0.000471408 0.00046017);
    }
    glass2
    {
        type            compressible::alphatWallFunction;
        Prt             0.85;
        value           nonuniform List<scalar> 2(0.000234939 0.000221728);
    }
    sun
    {
        type            compressible::alphatWallFunction;
        Prt             0.85;
        value           nonuniform List<scalar> 
14
(
0.000167784
0.000181915
0.000184376
0.000192538
0.000199977
0.000206799
0.000213306
0.000219878
0.000225264
0.000228405
0.000228495
0.000224882
0.000217417
0.000207023
)
;
    }
    heatsource1
    {
        type            compressible::alphatWallFunction;
        Prt             0.85;
        value           nonuniform List<scalar> 3(9.58001e-05 0.000116404 0.000130384);
    }
    heatsource2
    {
        type            compressible::alphatWallFunction;
        Prt             0.85;
        value           nonuniform List<scalar> 4(0.000198258 0.000130266 0.000130264 0.000191866);
    }
    Table_master
    {
        type            compressible::alphatWallFunction;
        Prt             0.85;
        value           nonuniform List<scalar> 9(0.000116972 0.000104138 9.3629e-05 8.49828e-05 7.78083e-05 7.17998e-05 6.67329e-05 6.24615e-05 5.89219e-05);
    }
    Table_slave
    {
        type            compressible::alphatWallFunction;
        Prt             0.85;
        value           nonuniform List<scalar> 9(0.000130876 0.000120484 0.000113201 0.00010775 0.000103072 9.84946e-05 9.40386e-05 8.92406e-05 8.34787e-05);
    }
    inlet
    {
        type            fixedValue;
        value           uniform 1.94e-05;
    }
    outlet
    {
        type            zeroGradient;
    }
}


// ************************************************************************* //
