/*--------------------------------*- C++ -*----------------------------------*\
  =========                 |
  \\      /  F ield         | OpenFOAM: The Open Source CFD Toolbox
   \\    /   O peration     | Website:  https://openfoam.org
    \\  /    A nd           | Version:  6
     \\/     M anipulation  |
\*---------------------------------------------------------------------------*/
FoamFile
{
    version     2.0;
    format      ascii;
    class       surfaceScalarField;
    location    "300";
    object      phi;
}
// * * * * * * * * * * * * * * * * * * * * * * * * * * * * * * * * * * * * * //

dimensions      [1 0 -1 0 0 0 0];

internalField   nonuniform List<scalar> 
852
(
-0.00197736
0.00201132
-0.00247795
0.000500696
-0.0027572
0.000279379
-0.00296464
0.000207576
-0.0030978
0.000133294
-0.00316049
6.28337e-05
-0.00315893
-1.41852e-06
-0.003095
-6.37836e-05
-0.00296359
-0.000131266
-0.0027536
-0.000209833
-0.00244968
-0.000303779
-0.00203314
-0.00041638
-0.00148254
-0.000550449
-0.000782613
-0.000699768
-0.00078527
0.000151237
-0.000155331
-8.2188e-05
0.00023343
-0.000370317
0.000288223
-0.000633814
0.00026364
-0.00085248
0.000218843
-0.00101401
0.000161722
-0.00113176
0.000117956
-0.00122358
9.2027e-05
-0.00130084
7.74743e-05
-0.00136387
6.32472e-05
-0.00140843
4.47758e-05
-0.00143027
2.20739e-05
-0.00142256
-7.45513e-06
-0.00134633
-7.59483e-05
-0.00109486
-0.000251163
-0.000646332
-0.000448186
-0.000208514
-0.000437491
-8.1861e-05
-0.000126457
-8.54096e-05
-0.0015571
0.00365799
-0.00223037
0.00117407
-0.00258734
0.000636452
-0.00282921
0.000449567
-0.00299716
0.000301371
-0.00309701
0.000162831
-0.0031349
3.66169e-05
-0.00311741
-8.11163e-05
-0.00304792
-0.000200606
-0.00292175
-0.000335835
-0.00272858
-0.000496786
-0.0024552
-0.000689583
-0.00209094
-0.000914534
-0.00163191
-0.00115861
-0.00104037
-0.00137662
0.000308439
-0.00134867
0.000308512
-0.000607944
0.000440686
-0.000935659
0.000561265
-0.00116794
0.000520641
-0.00133999
0.000435856
-0.00147072
0.000349753
-0.00154731
0.000238511
-0.00156583
0.000136685
-0.0015649
9.13142e-05
-0.00156288
7.56861e-05
-0.0015592
5.98166e-05
-0.00155107
3.69013e-05
-0.00153525
6.54026e-06
-0.00151496
-2.74425e-05
-0.00149323
-9.73177e-05
-0.0014003
-0.000343693
-0.00101613
-0.000831906
-0.000504223
-0.000948936
0.000106535
-0.000736812
1.23439e-05
-0.00133711
0.00513126
-0.00196787
0.00180489
-0.0021706
0.000839237
-0.00236722
0.000646253
-0.00256843
0.000502657
-0.00272306
0.00031757
-0.00282256
0.00013623
-0.00287412
-2.94218e-05
-0.00288657
-0.000188005
-0.00286809
-0.00035416
-0.00281855
-0.000546154
-0.00273568
-0.00077228
-0.00261972
-0.0010303
-0.00247634
-0.00130179
-0.00231314
-0.0015396
-0.00199456
-0.00166702
-0.00168583
-0.00140106
0.00182336
-0.00170564
0.000866011
-0.00181456
0.000629741
-0.00186649
0.000487972
-0.00187225
0.000355718
-0.00186038
0.000226844
-0.00172335
-0.00163167
-0.00155559
-0.00149537
-0.00145803
-0.00145101
-0.00147794
-0.00157467
-0.0019177
-0.00147484
-0.00127418
-0.000981568
-0.00144158
-8.79506e-05
-0.00162978
-9.03276e-05
-0.000986944
0.00629589
-0.0013382
0.00215616
-0.00116503
0.000666051
-0.00131233
0.000793547
-0.00163684
0.000827164
-0.00192786
0.000608603
-0.00214619
0.000354612
-0.00230867
0.000133128
-0.00242604
-7.05269e-05
-0.00251994
-0.000260137
-0.00261125
-0.000454697
-0.00271509
-0.00066828
-0.00285151
-0.000893682
-0.00304685
-0.00110624
-0.00332125
-0.00126495
-0.00368121
-0.0013068
-0.00430534
-0.00106143
-0.00415906
-0.000163463
-0.00289731
0.000561862
-0.00257743
0.000546399
-0.00250548
0.00055807
-0.00250777
0.000490575
-0.00255109
0.000399367
-0.00259427
0.000270382
-0.00273787
0.000143841
-0.00280877
7.11789e-05
-0.00282871
2.02376e-05
-0.00281192
-1.64625e-05
-0.00276045
-5.10968e-05
-0.00266894
-9.11154e-05
-0.00252414
-0.000144361
-0.00227913
-0.000244543
-0.00177346
-0.000505158
-0.00193578
-0.00111116
-0.00187582
-0.00150079
-0.0017948
-0.00171001
-0.00190186
0.00255938
0.00395694
0.00264078
0.00207474
0.0019764
0.0013304
0.00115656
0.00161333
0.000307833
0.00167582
-0.000408538
0.0013249
-0.000930046
0.000876053
-0.0013005
0.000503544
-0.00157268
0.00020166
-0.00178471
-4.80476e-05
-0.00196646
-0.000272859
-0.00215354
-0.000481076
-0.00236787
-0.000679197
-0.00262118
-0.000852749
-0.0029115
-0.000974401
-0.0032338
-0.000984245
-0.00352993
-0.000765003
-0.00340216
-0.000290905
-0.00297121
0.000131244
-0.00270181
0.00027733
-0.0025062
0.000362788
-0.00238454
0.00036925
-0.00231185
0.000327037
-0.00228738
0.000246285
-0.00230029
0.000157161
-0.00231462
8.594e-05
-0.00232272
2.88072e-05
-0.00231961
-1.90662e-05
-0.00230486
-6.53082e-05
-0.00227798
-0.000117418
-0.0022324
-0.000189317
-0.00215831
-0.00031797
-0.00209776
-0.00056499
-0.00228873
-0.000919422
-0.00257548
-0.00121321
-0.00287598
-0.00140861
-0.00340561
-0.00137126
-0.00249331
-0.000911477
-0.00180349
-0.000688923
-0.00181866
0.00639375
-0.00223636
0.00763259
0.000835631
0.00648183
0.00248097
0.00488439
0.00321066
0.00336778
0.00319235
0.00205857
0.00263402
0.00101643
0.00191805
0.000243935
0.00127587
-0.000306106
0.000751558
-0.000702932
0.000348709
-0.00100105
2.52577e-05
-0.00124416
-0.000237919
-0.0014877
-0.000435563
-0.00175237
-0.000587956
-0.00203774
-0.000688862
-0.00232361
-0.000698164
-0.00252688
-0.000561482
-0.00251818
-0.00029931
-0.00233814
-4.84715e-05
-0.00215711
9.66422e-05
-0.00198377
0.000189781
-0.00184236
0.000228185
-0.00173771
0.000222732
-0.00167425
0.000183198
-0.00164378
0.000127081
-0.00162845
7.10228e-05
-0.00161724
1.80474e-05
-0.00160302
-3.28009e-05
-0.00158263
-8.51686e-05
-0.00155475
-0.000144732
-0.00151956
-0.000223898
-0.00148846
-0.000348417
-0.00150485
-0.000547885
-0.00161739
-0.000806111
-0.0017785
-0.00105126
-0.00195172
-0.00123447
-0.00202472
-0.00129727
-0.0016106
-0.00132452
-0.000927946
-0.00137043
-0.00276359
0.00322325
-0.00531692
0.00526128
-0.00120297
0.00540636
0.00233552
0.00468053
0.00393624
0.00375866
0.00411405
0.00289122
0.00350129
0.00213381
0.00267525
0.00151282
0.00189658
0.00100903
0.00125505
0.000594475
0.000763009
0.000229098
0.000390466
-9.27205e-05
8.38374e-05
-0.000371913
-0.000156368
-0.000638164
-0.000321655
-0.000905517
-0.000421412
-0.00115467
-0.000448872
-0.00133055
-0.000385411
-0.00138303
-0.000246608
-0.00133047
-0.000100771
-0.00123533
1.79761e-06
-0.00111753
7.22957e-05
-0.00100256
0.000113537
-0.000904846
0.000125341
-0.000833155
0.00011184
-0.000787217
8.14926e-05
-0.000758719
4.28944e-05
-0.000739018
-1.25299e-06
-0.000721548
-4.98368e-05
-0.000702411
-0.000103833
-0.000678826
-0.000167801
-0.000652107
-0.000250057
-0.000634562
-0.000365353
-0.000652503
-0.000529281
-0.000719524
-0.000738366
-0.00080858
-0.000961405
-0.000878383
-0.00116378
-0.000850857
-0.00132383
-0.000619777
-0.00155454
-5.39154e-05
-0.00193515
-0.00283688
-0.000698969
-0.00446465
0.00103932
-0.00294219
0.00255628
0.00081789
0.00259507
0.00389697
0.0025244
0.00418437
0.00242216
0.00360321
0.00228726
0.00280979
0.00211623
0.00206719
0.00191293
0.00145791
0.00168972
0.000985812
0.00145344
0.000626408
0.00119002
0.000347022
0.000911479
0.000122051
0.000643105
-5.33258e-05
0.000392234
-0.000170527
0.000167114
-0.000223692
-3.10178e-07
-0.000217882
-8.22229e-05
-0.000164549
-8.83118e-05
-9.44941e-05
-5.29579e-05
-3.33293e-05
7.40583e-06
1.21897e-05
7.93023e-05
4.19129e-05
0.00014888
5.60422e-05
0.000206404
5.46005e-05
0.000248164
4.00263e-05
0.000276123
1.52429e-05
0.000293132
-1.79277e-05
0.000303463
-5.98062e-05
0.000311073
-0.000111047
0.000317818
-0.000174109
0.000322559
-0.000254315
0.000317966
-0.000360227
0.000290776
-0.000501505
0.000235364
-0.000682304
0.00017231
-0.000897632
0.000152877
-0.00114355
0.000265662
-0.00143571
0.000563257
-0.00185114
0.000990392
-0.00236118
-0.00198893
-0.00433769
-0.00730782
-0.00353438
-0.00295646
-0.000724277
0.0010862
0.000654978
0.00280464
0.00145207
0.00280563
0.00197923
0.00228212
0.00228894
0.00175695
0.00243593
0.00131039
0.00247167
0.000949583
0.00243032
0.000667331
0.00232881
0.000448197
0.00217417
0.000276461
0.00197916
0.000141553
0.00177282
3.57728e-05
0.00158681
-3.76937e-05
0.00144239
-7.34355e-05
0.00135222
-7.43122e-05
0.00131145
-5.36184e-05
0.00130433
-2.60601e-05
0.001318
-1.29703e-06
0.0013438
1.63115e-05
0.00137445
2.56078e-05
0.00140308
2.61896e-05
0.00142505
1.82914e-05
0.00143818
2.3534e-06
0.00144219
-2.16852e-05
0.00143918
-5.65146e-05
0.00142978
-0.000101337
0.00141338
-0.000157367
0.0013883
-0.00022885
0.00135043
-0.000321919
0.00129334
-0.000443912
0.00121306
-0.000601475
0.00111563
-0.000799569
0.00101878
-0.00104599
0.000952436
-0.00136856
0.000960192
-0.00185797
0.0011389
-0.00253885
-0.00102136
-0.00392425
0.00081219
-0.00312481
0.000285948
-0.00088171
0.000560911
0.000738355
0.00118503
0.00174371
0.00127624
0.00237997
0.00112021
0.0027868
0.000903121
0.00304065
0.00069535
0.00318815
0.000519511
0.00325819
0.000377904
0.00326795
0.000266499
0.00322899
0.000180373
0.00314869
0.00011597
0.00304506
6.59022e-05
0.00293945
3.21786e-05
0.00284948
1.56742e-05
0.00278244
1.34708e-05
0.0027372
1.92614e-05
0.00270865
2.73605e-05
0.00269249
3.25923e-05
0.0026845
3.37271e-05
0.00268049
3.03428e-05
0.0026764
2.25345e-05
0.00266858
1.03356e-05
0.00265569
-8.61757e-06
0.00263703
-3.76759e-05
0.00260893
-7.30176e-05
0.00256833
-0.000116523
0.00251235
-0.000172591
0.00243659
-0.000245819
0.0023344
-0.000341335
0.0021975
-0.000464123
0.00201667
-0.000618218
0.00177814
-0.000806847
0.00144503
-0.00103475
0.000902285
-0.0013144
-6.46529e-05
-0.00157097
-0.00112266
-0.000500436
0.00127202
3.34634e-05
-0.000248814
0.000724035
-0.0001304
0.00159608
0.000312412
0.00240244
0.000469456
0.00304034
0.000481996
0.00350615
0.000437093
0.00383116
0.00037019
0.00404763
0.000302949
0.00418032
0.000245141
0.00424798
0.000198785
0.00426556
0.000162733
0.00424636
0.0001351
0.00419938
0.000112821
0.00413621
9.52805e-05
0.00406962
8.22149e-05
0.00401026
7.27946e-05
0.00396364
6.5882e-05
0.0039307
6.03129e-05
0.00390838
5.49324e-05
0.00389269
4.94495e-05
0.00387946
4.36214e-05
0.003865
3.70446e-05
0.00384651
2.88838e-05
0.00381994
1.80148e-05
0.00377822
4.12651e-06
0.00371914
-1.38351e-05
0.00364046
-3.77148e-05
0.00353779
-6.97487e-05
0.00340407
-0.00011189
0.00322936
-0.000166349
0.00300102
-0.000235447
0.00270483
-0.000321623
0.0023263
-0.000427824
0.00185316
-0.00056102
0.00128448
-0.000744997
0.000578505
-0.000864124
-0.000583622
0.000317354
0.00299163
0.00415974
0.00380717
0.00356798
0.0037695
0.00412805
0.00449994
0.00482807
0.00509064
0.00528747
0.00542819
0.00552447
0.00558681
0.00562379
0.0056408
0.00564252
0.00563324
0.00561632
0.00559392
0.00556703
0.00553554
0.00549909
0.00545716
0.0054089
0.00535265
0.00528566
0.00520492
0.00510639
0.00498421
0.00483025
0.00463437
0.00438421
0.0040651
0.00365991
0.00314862
0.00250427
0.00167622
0.000727019
)
;

boundaryField
{
    floor
    {
        type            calculated;
        value           nonuniform List<scalar> 
29
(
0
0
0
0
0
0
0
0
0
0
0
0
0
0
0
0
0
0
0
0
3.66275e-06
9.02185e-06
1.50039e-05
1.75365e-05
2.8211e-06
4.18444e-06
1.2017e-05
1.85588e-05
1.74539e-05
)
;
    }
    ceiling
    {
        type            calculated;
        value           nonuniform List<scalar> 
43
(
0.0002061
0.000197126
0.000103606
0.000103281
0.000108203
0.000110349
0.000110487
0.000109833
0.000108805
0.000107558
0.000106109
0.00010443
0.000102507
0.000100364
9.80654e-05
9.57176e-05
9.34422e-05
9.13617e-05
8.95805e-05
8.81522e-05
8.70745e-05
8.63057e-05
8.5782e-05
8.54349e-05
8.52026e-05
8.50381e-05
8.49109e-05
8.47998e-05
8.4638e-05
8.44298e-05
8.422e-05
8.40426e-05
8.39164e-05
8.3844e-05
8.38152e-05
8.38085e-05
8.37787e-05
8.36518e-05
8.58473e-05
9.15695e-05
3.52251e-05
2.69776e-05
3.95733e-05
)
;
    }
    sWall
    {
        type            calculated;
        value           uniform 7.84417e-05;
    }
    nWall
    {
        type            calculated;
        value           nonuniform List<scalar> 6(1.61605e-05 1.82633e-05 2.06762e-05 3.77962e-05 4.05596e-05 5.28569e-05);
    }
    sideWalls
    {
        type            empty;
        value           nonuniform 0();
    }
    glass1
    {
        type            calculated;
        value           nonuniform List<scalar> 9(-3.38503e-05 -8.94746e-05 -0.000136076 -0.000177635 -0.000220412 -0.000200828 -0.000143575 -0.000154259 -0.000163143);
    }
    glass2
    {
        type            calculated;
        value           nonuniform List<scalar> 2(0.000143753 0.000172642);
    }
    sun
    {
        type            calculated;
        value           uniform 0;
    }
    heatsource1
    {
        type            calculated;
        value           nonuniform List<scalar> 3(1.95254e-07 1.95666e-07 1.96062e-07);
    }
    heatsource2
    {
        type            calculated;
        value           nonuniform List<scalar> 4(4.93346e-08 4.95047e-08 0 0);
    }
    Table_master
    {
        type            calculated;
        value           nonuniform List<scalar> 9(-1.48006e-07 -1.48003e-07 -1.47981e-07 -1.47947e-07 -1.47901e-07 -1.47839e-07 -1.47748e-07 -1.4762e-07 -1.47372e-07);
    }
    Table_slave
    {
        type            calculated;
        value           nonuniform List<scalar> 9(1.47207e-07 1.47154e-07 1.47116e-07 1.47084e-07 1.47054e-07 1.47032e-07 1.47018e-07 1.47016e-07 1.47007e-07);
    }
    inlet
    {
        type            calculated;
        value           uniform 0.000154435;
    }
    outlet
    {
        type            calculated;
        value           nonuniform List<scalar> 2(-0.000601791 -0.00287131);
    }
}


// ************************************************************************* //
