// -*- C++ -*-
// File generated by PyFoam - sorry for the ugliness

FoamFile
{
 version 2.0;
 format ascii;
 class volVectorField;
 location "480";
 object U;
}

dimensions [ 0 1 -1 0 0 0 0 ];

internalField nonuniform List<vector> 459
(
  (-0.0670982 -0.0148743 0)
  (0.0256966 -0.00263948 0)
  (0.0398337 -0.0312228 0)
  (0.0780298 -0.0357313 0)
  (0.116413 -0.0279449 0)
  (0.144474 -0.0192046 0)
  (0.160314 -0.0122582 0)
  (0.166494 -0.0071762 0)
  (0.165879 -0.003306 0)
  (0.160473 -2.1646e-05 0)
  (0.151209 0.00310039 0)
  (0.137927 0.0066147 0)
  (0.11941 0.0116346 0)
  (0.090343 0.0218906 0)
  (0.0849821 0.0499942 0)
  (-0.117524 0.00408125 0)
  (0.0350033 0.00502938 0)
  (0.00298466 -0.0102601 0)
  (0.0211847 -0.0149446 0)
  (0.0366366 -0.0123716 0)
  (0.0488185 -0.0086271 0)
  (0.0566416 -0.00539454 0)
  (0.0609742 -0.00367095 0)
  (0.0632729 -0.00295415 0)
  (0.06475 -0.00260864 0)
  (0.065886 -0.00235421 0)
  (0.0666899 -0.00209087 0)
  (0.0669797 -0.00170857 0)
  (0.0663135 -0.000950115 0)
  (0.063849 0.000653898 0)
  (0.0579736 0.00389565 0)
  (0.048228 0.0086738 0)
  (-0.0013229 0.0196477 0)
  (0.102215 0.00216234 0)
  (-0.115442 -0.0168203 0)
  (0.036318 -0.0121091 0)
  (0.032066 -0.0553846 0)
  (0.0668871 -0.0642087 0)
  (0.0998755 -0.0471333 0)
  (0.121908 -0.0280473 0)
  (0.133251 -0.0131032 0)
  (0.136938 -0.00230788 0)
  (0.135089 0.00556656 0)
  (0.129687 0.0116791 0)
  (0.12179 0.0170217 0)
  (0.111852 0.02265 0)
  (0.100531 0.0299349 0)
  (0.0877916 0.0411093 0)
  (0.0880722 0.0627974 0)
  (0.0800378 0.0562283 0)
  (0.0495484 0.0491596 0)
  (-0.141033 0.00141162 0)
  (0.0386188 -0.0114069 0)
  (0.0290272 -0.02214 0)
  (0.0393079 -0.0245241 0)
  (0.0502254 -0.0194073 0)
  (0.0577952 -0.0122485 0)
  (0.0609514 -0.00554511 0)
  (0.0616439 -0.00180165 0)
  (0.0617209 -0.000256913 0)
  (0.0619492 0.000444126 0)
  (0.062269 0.000925966 0)
  (0.0625307 0.00145035 0)
  (0.0626958 0.00234097 0)
  (0.0625769 0.00399605 0)
  (0.061606 0.00743789 0)
  (0.0571198 0.0156328 0)
  (0.0496663 0.0239034 0)
  (-0.00235002 0.0361335 0)
  (0.156369 0.0221424 0)
  (-0.146903 -0.0177135 0)
  (0.0375098 -0.02193 0)
  (0.015124 -0.0849384 0)
  (0.0486605 -0.099289 0)
  (0.0760702 -0.0715372 0)
  (0.0915604 -0.0423034 0)
  (0.097541 -0.020329 0)
  (0.098092 -0.0048561 0)
  (0.0949982 0.00656713 0)
  (0.0906761 0.0153442 0)
  (0.0858637 0.0226928 0)
  (0.0809058 0.0298745 0)
  (0.0763026 0.0380847 0)
  (0.0715767 0.0482101 0)
  (0.0711 0.0619096 0)
  (0.0632741 0.0601082 0)
  (0.0480006 0.0755167 0)
  (-0.136803 -0.00620413 0)
  (0.0522309 -0.0381799 0)
  (0.0527781 -0.0414553 0)
  (0.0579214 -0.036221 0)
  (0.0635977 -0.0271407 0)
  (0.0669591 -0.0180822 0)
  (0.0650557 -0.0145904 0)
  (0.0598164 -0.0104706 0)
  (0.0558301 -0.00823713 0)
  (0.0536624 -0.00696594 0)
  (0.0523604 -0.00614062 0)
  (0.0514308 -0.00551077 0)
  (0.0509852 -0.00478721 0)
  (0.0519547 -0.00332112 0)
  (0.0561708 0.000986335 0)
  (0.0552695 0.0197288 0)
  (0.0501244 0.0334117 0)
  (-0.00613335 0.0484102 0)
  (0.188198 0.0471126 0)
  (-0.167381 -0.0131657 0)
  (0.0315906 -0.0276227 0)
  (-0.00346111 -0.108341 0)
  (0.0267853 -0.128594 0)
  (0.0472272 -0.0873302 0)
  (0.0564125 -0.0477543 0)
  (0.0569063 -0.0200551 0)
  (0.0542062 -0.00163312 0)
  (0.0513237 0.0107788 0)
  (0.0498521 0.0193124 0)
  (0.0493588 0.0260814 0)
  (0.0496351 0.0325823 0)
  (0.0507933 0.0397702 0)
  (0.0526024 0.0481415 0)
  (0.058229 0.0590497 0)
  (0.0666712 0.0656499 0)
  (0.0779019 0.0812816 0)
  (0.101538 -0.0236731 0)
  (0.0943682 -0.0272535 0)
  (0.0915143 -0.04113 0)
  (0.0819082 -0.0433129 0)
  (0.0754536 -0.03711 0)
  (0.0722009 -0.0275002 0)
  (0.070348 -0.0163522 0)
  (0.0714214 -0.00941003 0)
  (0.0736629 -0.00597795 0)
  (0.0730772 -0.00373794 0)
  (0.0698558 -0.0021909 0)
  (0.0650616 -0.00100154 0)
  (0.0591957 1.38006e-05 0)
  (0.0522116 0.00102147 0)
  (0.0436119 0.0022854 0)
  (0.0280441 0.00455588 0)
  (0.028331 0.027433 0)
  (0.0377665 0.0398801 0)
  (-0.0121822 0.0531872 0)
  (0.209007 0.0793428 0)
  (-0.186342 -0.00483242 0)
  (0.023242 -0.0278209 0)
  (-0.0182088 -0.124106 0)
  (0.00499844 -0.149651 0)
  (0.0176663 -0.0956682 0)
  (0.022587 -0.0466429 0)
  (0.0190657 -0.0156133 0)
  (0.0145441 0.00241293 0)
  (0.0143997 0.0124087 0)
  (0.0160456 0.0189277 0)
  (0.0190317 0.0244054 0)
  (0.0231454 0.029839 0)
  (0.0284686 0.0357515 0)
  (0.0352808 0.0423455 0)
  (0.0458985 0.0502156 0)
  (0.0604291 0.0549572 0)
  (0.0790521 0.0552501 0)
  (0.0965193 0.0121635 0)
  (0.0978811 -0.010953 0)
  (0.0894271 -0.0276377 0)
  (0.0790954 -0.0325364 0)
  (0.0697841 -0.0290205 0)
  (0.0623346 -0.0215526 0)
  (0.0567203 -0.0125569 0)
  (0.0530063 -0.00348959 0)
  (0.0497216 0.00237551 0)
  (0.0457948 0.0056116 0)
  (0.0410501 0.00753648 0)
  (0.0358999 0.00896987 0)
  (0.0304909 0.0103171 0)
  (0.0247954 0.0118593 0)
  (0.0190327 0.0138766 0)
  (0.0112769 0.016505 0)
  (0.011215 0.026444 0)
  (0.0293368 0.0347772 0)
  (0.00147802 0.0406922 0)
  (0.113741 0.0761732 0)
  (0.0877751 0.0672985 0)
  (-0.0866145 0.0578794 0)
  (0.302411 -0.00833786 0)
  (-0.208175 0.0109227 0)
  (0.0203699 -0.0206964 0)
  (-0.0254499 -0.138197 0)
  (-0.0107447 -0.162387 0)
  (-0.00589248 -0.101073 0)
  (-0.00262269 -0.0433674 0)
  (-0.0069668 -0.0115934 0)
  (-0.00999283 0.00324275 0)
  (-0.00933483 0.0104155 0)
  (-0.00688283 0.0151626 0)
  (-0.00276278 0.0193292 0)
  (0.00315939 0.0236371 0)
  (0.0104064 0.028019 0)
  (0.0194492 0.0323055 0)
  (0.031405 0.0361604 0)
  (0.0462415 0.0361941 0)
  (0.0642234 0.0291656 0)
  (0.0759039 0.00561759 0)
  (0.0762092 -0.0130765 0)
  (0.0690859 -0.0225576 0)
  (0.0591748 -0.0241518 0)
  (0.0489486 -0.0203661 0)
  (0.0397775 -0.0138276 0)
  (0.0322312 -0.00615236 0)
  (0.0258832 0.00149415 0)
  (0.0213125 0.00653035 0)
  (0.0173285 0.00936847 0)
  (0.0132952 0.0112327 0)
  (0.00914396 0.01285 0)
  (0.00491478 0.0145443 0)
  (0.00079703 0.0164613 0)
  (-0.00243821 0.0183723 0)
  (-0.00521276 0.0191922 0)
  (-0.00340697 0.0196114 0)
  (0.0132501 0.0209259 0)
  (-0.00544203 0.0137652 0)
  (0.0426169 0.0470111 0)
  (0.0441552 0.0566826 0)
  (-0.107467 0.0594795 0)
  (0.28642 -0.023845 0)
  (-0.240458 0.0307887 0)
  (0.0361465 -0.00710837 0)
  (-0.0178782 -0.154408 0)
  (-0.0128049 -0.171235 0)
  (-0.0168077 -0.103702 0)
  (-0.015245 -0.0418046 0)
  (-0.0196205 -0.00994175 0)
  (-0.0228015 0.00320627 0)
  (-0.0230537 0.00842425 0)
  (-0.0211888 0.0113579 0)
  (-0.0174294 0.0138291 0)
  (-0.0119238 0.0163164 0)
  (-0.00489017 0.0188352 0)
  (0.00442958 0.0210367 0)
  (0.01529 0.0221153 0)
  (0.0276809 0.0201631 0)
  (0.0404127 0.0136887 0)
  (0.0466853 0.00109116 0)
  (0.0454717 -0.00910679 0)
  (0.0386664 -0.014069 0)
  (0.0291426 -0.0141037 0)
  (0.0191722 -0.0105866 0)
  (0.0101334 -0.00510107 0)
  (0.00215771 0.00123824 0)
  (-0.00322508 0.00681097 0)
  (-0.00647622 0.0103371 0)
  (-0.00921582 0.0126826 0)
  (-0.0118645 0.0145432 0)
  (-0.0144678 0.016216 0)
  (-0.016795 0.0177026 0)
  (-0.0183453 0.0187319 0)
  (-0.0184942 0.0186587 0)
  (-0.0173335 0.0164848 0)
  (-0.0139188 0.012513 0)
  (-0.0069086 0.010175 0)
  (-0.0161467 0.00764681 0)
  (0.00776494 0.037736 0)
  (0.0273515 0.0694304 0)
  (-0.139953 0.0734344 0)
  (0.336693 -0.0313546 0)
  (-0.278886 -0.0869945 0)
  (0.0541015 -0.0422714 0)
  (0.015118 -0.174337 0)
  (0.00692128 -0.173628 0)
  (-0.0121448 -0.0983313 0)
  (-0.0179465 -0.0333041 0)
  (-0.0259834 -0.00417897 0)
  (-0.0320351 0.00578501 0)
  (-0.0337731 0.00814415 0)
  (-0.0328465 0.00883219 0)
  (-0.0300224 0.0094702 0)
  (-0.0256819 0.0102982 0)
  (-0.0200694 0.011159 0)
  (-0.0132056 0.0118028 0)
  (-0.00541986 0.0118887 0)
  (0.0030068 0.0103931 0)
  (0.00982549 0.00682867 0)
  (0.0117264 0.000932791 0)
  (0.00929326 -0.00392203 0)
  (0.00283614 -0.00582633 0)
  (-0.00574841 -0.00452661 0)
  (-0.0141951 -0.00117728 0)
  (-0.0213252 0.00289219 0)
  (-0.0259252 0.00669315 0)
  (-0.0286383 0.00995674 0)
  (-0.030244 0.012535 0)
  (-0.0313858 0.0146538 0)
  (-0.0322334 0.0164088 0)
  (-0.032694 0.017749 0)
  (-0.0324762 0.0184697 0)
  (-0.0311888 0.0182068 0)
  (-0.0285872 0.0164981 0)
  (-0.0249285 0.0131127 0)
  (-0.0204533 0.00914147 0)
  (-0.0156082 0.00730259 0)
  (-0.0143442 0.00921359 0)
  (-0.000228192 0.0303454 0)
  (0.0368705 0.0705355 0)
  (-0.123709 0.0655882 0)
  (0.568147 0.008208 0)
  (-0.31228 0.32951 0)
  (0.0746116 0.253873 0)
  (0.077964 -0.157227 0)
  (0.0534342 -0.150013 0)
  (0.00664873 -0.0768436 0)
  (-0.0226208 -0.01125 0)
  (-0.0374885 0.00980016 0)
  (-0.0450788 0.0125159 0)
  (-0.0474431 0.0110928 0)
  (-0.0471511 0.009604 0)
  (-0.0454086 0.0087722 0)
  (-0.0426926 0.00848007 0)
  (-0.0392843 0.00847787 0)
  (-0.0354126 0.00856145 0)
  (-0.0313888 0.00853831 0)
  (-0.0277002 0.00811853 0)
  (-0.025391 0.00703671 0)
  (-0.0258426 0.00515504 0)
  (-0.0288786 0.00369741 0)
  (-0.0336079 0.00362184 0)
  (-0.0388854 0.00487203 0)
  (-0.0431778 0.00671801 0)
  (-0.0461528 0.00879512 0)
  (-0.0477833 0.0109396 0)
  (-0.0483052 0.0130695 0)
  (-0.048029 0.0150367 0)
  (-0.0471916 0.0167659 0)
  (-0.0458547 0.0181157 0)
  (-0.0439689 0.0188873 0)
  (-0.0414278 0.0188261 0)
  (-0.0381449 0.0176504 0)
  (-0.0341812 0.0151661 0)
  (-0.0298297 0.0115486 0)
  (-0.0253564 0.00775486 0)
  (-0.0207522 0.00526437 0)
  (-0.0154919 0.00611246 0)
  (-0.00317868 0.0181478 0)
  (0.0327037 0.0509999 0)
  (-0.0965034 0.0399721 0)
  (0.557326 0.0366208 0)
  (0.1397 -0.136929 0)
  (0.095334 -0.104378 0)
  (0.00519354 -0.0171941 0)
  (-0.0519105 0.0291347 0)
  (-0.0607894 0.0284817 0)
  (-0.0642389 0.0232783 0)
  (-0.0645814 0.0188234 0)
  (-0.0639215 0.015844 0)
  (-0.0628738 0.0140555 0)
  (-0.0615941 0.0130669 0)
  (-0.0601752 0.0125945 0)
  (-0.0587221 0.0124739 0)
  (-0.0573666 0.0125975 0)
  (-0.0563035 0.0128322 0)
  (-0.0558682 0.0129946 0)
  (-0.0564632 0.0129446 0)
  (-0.0579824 0.0130046 0)
  (-0.0598559 0.0135168 0)
  (-0.0614489 0.014429 0)
  (-0.0623292 0.0154858 0)
  (-0.0623941 0.016566 0)
  (-0.0616512 0.0176059 0)
  (-0.0601624 0.018556 0)
  (-0.0580156 0.0193039 0)
  (-0.0552998 0.0197305 0)
  (-0.052088 0.0196944 0)
  (-0.0484615 0.0190391 0)
  (-0.0445362 0.0176007 0)
  (-0.0404982 0.0152379 0)
  (-0.0366431 0.0119151 0)
  (-0.033373 0.00784405 0)
  (-0.0310794 0.00352814 0)
  (-0.0298662 -0.000641355 0)
  (-0.0281138 -0.000448154 0)
  (-0.0216239 0.00938271 0)
  (-0.0124542 0.0291834 0)
  (-0.119385 0.022107 0)
  (0.333986 0.0569123 0)
  (-0.187389 -0.10563 0)
  (-0.0844566 -0.0745949 0)
  (-0.103409 -0.0539883 0)
  (-0.100289 -0.0470672 0)
  (-0.0910165 -0.0584917 0)
  (-0.0850637 -0.0686638 0)
  (-0.081707 -0.0753076 0)
  (-0.0798278 -0.0791751 0)
  (-0.0787248 -0.0811863 0)
  (-0.0779957 -0.0819779 0)
  (-0.0774053 -0.0819423 0)
  (-0.0768076 -0.0813438 0)
  (-0.0761134 -0.0804394 0)
  (-0.0753074 -0.0795651 0)
  (-0.07449 -0.0791151 0)
  (-0.0738443 -0.079343 0)
  (-0.0734272 -0.0800448 0)
  (-0.0730916 -0.0808047 0)
  (-0.0726074 -0.0813508 0)
  (-0.071791 -0.0815638 0)
  (-0.0705327 -0.0813459 0)
  (-0.0687519 -0.080658 0)
  (-0.0663893 -0.0795395 0)
  (-0.0634189 -0.078123 0)
  (-0.0598603 -0.076596 0)
  (-0.0557883 -0.0751989 0)
  (-0.0513492 -0.0742253 0)
  (-0.046778 -0.0740143 0)
  (-0.0424211 -0.0749063 0)
  (-0.0387612 -0.0771237 0)
  (-0.0364117 -0.0805505 0)
  (-0.0359812 -0.0843991 0)
  (-0.03773 -0.0865327 0)
  (-0.0396624 -0.0867244 0)
  (-0.0391644 -0.0769212 0)
  (-0.0453878 -0.0563576 0)
  (-0.0954797 -0.0513394 0)
  (0.269438 -0.0392144 0)
  (-0.2515 -0.167242 0)
  (-0.161533 0.0341451 0)
  (-0.148154 0.308169 0)
  (-0.147184 0.270141 0)
  (-0.143688 0.256527 0)
  (-0.130129 0.25847 0)
  (-0.115829 0.267724 0)
  (-0.106057 0.274985 0)
  (-0.100033 0.279523 0)
  (-0.0964987 0.282084 0)
  (-0.0944477 0.283399 0)
  (-0.0932014 0.283939 0)
  (-0.0923065 0.283995 0)
  (-0.0914413 0.2838 0)
  (-0.0903692 0.283613 0)
  (-0.088948 0.283756 0)
  (-0.0871701 0.284546 0)
  (-0.0851539 0.286107 0)
  (-0.0830171 0.288237 0)
  (-0.0807782 0.290594 0)
  (-0.0783846 0.292906 0)
  (-0.0757727 0.295001 0)
  (-0.0728768 0.296754 0)
  (-0.0696267 0.298099 0)
  (-0.0659685 0.299028 0)
  (-0.0618952 0.299565 0)
  (-0.0574715 0.299744 0)
  (-0.0528476 0.299609 0)
  (-0.0482667 0.299238 0)
  (-0.044059 0.298762 0)
  (-0.0406261 0.298395 0)
  (-0.0384401 0.298427 0)
  (-0.038016 0.299134 0)
  (-0.0394759 0.30038 0)
  (-0.041233 0.300117 0)
  (-0.0408478 0.300349 0)
  (-0.041827 0.293406 0)
  (-0.0640337 0.283009 0)
  (-0.121109 0.291302 0)
  (0.355215 0.335442 0)
)
;

boundaryField
{
  floor
  {
    type noSlip;
  }
  ceiling
  {
    type noSlip;
  }
  sWall
  {
    type noSlip;
  }
  nWall
  {
    type noSlip;
  }
  sideWalls
  {
    type empty;
  }
  glass1
  {
    type noSlip;
  }
  glass2
  {
    type noSlip;
  }
  sun
  {
    type noSlip;
  }
  heatsource1
  {
    type noSlip;
  }
  heatsource2
  {
    type noSlip;
  }
  Table_master
  {
    type noSlip;
  }
  Table_slave
  {
    type noSlip;
  }
  inlet
  {
    type fixedValue;
    value uniform (0.277164 -0.114805 0);
  }
  outlet
  {
    type zeroGradient;
  }
} 	// ************************************************************************* //

