// -*- C++ -*-
// File generated by PyFoam - sorry for the ugliness

FoamFile
{
 version 2.0;
 format ascii;
 class volScalarField;
 location "700";
 object T;
}

dimensions [ 0 0 0 1 0 0 0 ];

internalField nonuniform List<scalar> 459
(
  306.581
  306.426
  306.368
  306.339
  306.32
  306.308
  306.3
  306.294
  306.287
  306.282
  306.276
  306.27
  306.264
  306.258
  306.249
  303.29
  303.284
  303.29
  303.265
  303.242
  303.235
  303.233
  303.236
  303.241
  303.256
  303.277
  303.283
  303.285
  303.291
  303.304
  303.323
  303.336
  303.34
  303.345
  306.496
  306.273
  306.182
  306.138
  306.113
  306.099
  306.094
  306.095
  306.099
  306.108
  306.12
  306.137
  306.157
  306.183
  306.21
  306.203
  306.19
  303.435
  303.428
  303.413
  303.4
  303.387
  303.366
  303.322
  303.281
  303.285
  303.298
  303.329
  303.356
  303.368
  303.383
  303.422
  303.479
  303.474
  303.419
  303.371
  306.429
  306.107
  306
  305.955
  305.932
  305.92
  305.917
  305.923
  305.938
  305.961
  305.991
  306.027
  306.069
  306.115
  306.159
  306.176
  306.175
  303.713
  303.619
  303.573
  303.566
  303.563
  303.559
  303.46
  303.416
  303.38
  303.347
  303.397
  303.477
  303.527
  303.565
  303.598
  303.627
  303.559
  303.492
  303.439
  306.364
  305.961
  305.871
  305.846
  305.836
  305.83
  305.826
  305.831
  305.847
  305.874
  305.912
  305.958
  306.012
  306.069
  306.126
  306.156
  306.124
  304.682
  303.945
  303.875
  303.886
  303.928
  303.982
  304.035
  304.085
  304.1
  304.11
  304.119
  304.125
  304.13
  304.13
  304.122
  304.092
  304.014
  303.949
  303.899
  303.954
  306.296
  305.855
  305.81
  305.815
  305.817
  305.814
  305.807
  305.804
  305.814
  305.839
  305.877
  305.927
  305.986
  306.049
  306.111
  306.131
  305.939
  304.527
  304.073
  304.036
  304.055
  304.084
  304.114
  304.141
  304.161
  304.176
  304.188
  304.201
  304.214
  304.226
  304.239
  304.249
  304.256
  304.254
  304.262
  304.277
  304.282
  304.322
  304.319
  304.325
  306.219
  305.794
  305.797
  305.823
  305.828
  305.825
  305.816
  305.807
  305.815
  305.839
  305.878
  305.929
  305.988
  306.048
  306.09
  306.037
  305.655
  304.44
  304.143
  304.126
  304.145
  304.168
  304.19
  304.208
  304.223
  304.235
  304.247
  304.26
  304.275
  304.293
  304.313
  304.334
  304.355
  304.375
  304.396
  304.415
  304.43
  304.438
  304.393
  304.357
  306.126
  305.778
  305.799
  305.835
  305.844
  305.847
  305.845
  305.844
  305.852
  305.872
  305.906
  305.949
  305.997
  306.034
  306.027
  305.872
  305.364
  304.397
  304.206
  304.204
  304.226
  304.249
  304.268
  304.28
  304.289
  304.295
  304.301
  304.309
  304.321
  304.338
  304.36
  304.384
  304.409
  304.431
  304.449
  304.464
  304.473
  304.473
  304.452
  304.369
  306.032
  305.761
  305.786
  305.84
  305.857
  305.871
  305.88
  305.887
  305.895
  305.91
  305.934
  305.961
  305.985
  305.985
  305.915
  305.673
  305.124
  304.401
  304.282
  304.294
  304.323
  304.35
  304.365
  304.371
  304.371
  304.369
  304.364
  304.361
  304.361
  304.367
  304.381
  304.401
  304.424
  304.446
  304.465
  304.482
  304.497
  304.511
  304.525
  304.543
  305.943
  305.729
  305.724
  305.803
  305.84
  305.867
  305.887
  305.901
  305.911
  305.921
  305.931
  305.939
  305.934
  305.895
  305.776
  305.494
  304.979
  304.456
  304.383
  304.408
  304.45
  304.475
  304.485
  304.485
  304.479
  304.467
  304.453
  304.437
  304.422
  304.411
  304.406
  304.408
  304.416
  304.425
  304.433
  304.44
  304.451
  304.468
  304.494
  304.566
  305.631
  305.748
  305.792
  305.824
  305.849
  305.866
  305.877
  305.882
  305.882
  305.873
  305.847
  305.785
  305.652
  305.39
  304.967
  304.58
  304.538
  304.564
  304.595
  304.613
  304.618
  304.614
  304.604
  304.588
  304.568
  304.544
  304.518
  304.492
  304.469
  304.452
  304.442
  304.438
  304.437
  304.438
  304.443
  304.45
  304.46
  304.481
  305.663
  305.707
  305.736
  305.759
  305.776
  305.787
  305.795
  305.796
  305.79
  305.774
  305.741
  305.681
  305.571
  305.369
  305.029
  304.861
  304.804
  304.786
  304.778
  304.772
  304.763
  304.751
  304.735
  304.715
  304.691
  304.664
  304.634
  304.602
  304.568
  304.537
  304.511
  304.492
  304.48
  304.474
  304.472
  304.471
  304.471
  304.487
  307.891
  307.265
  305.769
  305.668
  305.67
  305.674
  305.676
  305.678
  305.68
  305.68
  305.675
  305.662
  305.641
  305.606
  305.548
  305.362
  305.221
  305.15
  305.108
  305.074
  305.04
  305.005
  304.972
  304.939
  304.906
  304.874
  304.842
  304.809
  304.775
  304.741
  304.705
  304.667
  304.631
  304.599
  304.573
  304.55
  304.53
  304.511
  304.492
  304.5
)
;

boundaryField
{
  floor
  {
    type wallHeatTransfer;
    Tinf uniform 305.2;
    alphaWall uniform 0.24;
    value nonuniform List<scalar> 29
(
  306.166
  303.816
  303.792
  303.784
  303.797
  303.818
  303.831
  303.841
  303.856
  303.898
  303.929
  303.93
  303.921
  303.906
  303.874
  303.833
  303.801
  303.791
  303.784
  303.81
  303.81
  303.754
  303.779
  304.119
  306.166
  303.816
  303.79
  303.935
  304.739
)
;
  }
  ceiling
  {
    type wallHeatTransfer;
    Tinf uniform 303.2;
    alphaWall uniform 0.24;
    value nonuniform List<scalar> 43
(
  307.509
  306.936
  305.586
  305.417
  305.422
  305.427
  305.432
  305.436
  305.44
  305.442
  305.44
  305.43
  305.413
  305.382
  305.33
  305.159
  305.025
  304.956
  304.915
  304.884
  304.855
  304.827
  304.8
  304.772
  304.743
  304.715
  304.685
  304.655
  304.624
  304.593
  304.56
  304.526
  304.494
  304.464
  304.439
  304.417
  304.396
  304.375
  304.36
  304.361
  305.837
  305.64
  305.543
)
;
  }
  sWall
  {
    type wallHeatTransfer;
    Tinf uniform 315.2;
    alphaWall uniform 0.36;
    value uniform 308.75;
  }
  nWall
  {
    type wallHeatTransfer;
    Tinf uniform 307.2;
    alphaWall uniform 0.36;
    value nonuniform List<scalar> 6
(
  304.812
  304.817
  304.831
  304.793
  304.811
  304.912
)
;
  }
  sideWalls
  {
    type empty;
  }
  glass1
  {
    type wallHeatTransfer;
    Tinf uniform 315.2;
    alphaWall uniform 4.3;
    value nonuniform List<scalar> 9
(
  311.042
  310.779
  310.629
  310.518
  310.418
  310.316
  310.196
  310.046
  309.833
)
;
  }
  glass2
  {
    type wallHeatTransfer;
    Tinf uniform 307.2;
    alphaWall uniform 4.3;
    value nonuniform List<scalar> 2
(
  306.246
  306.17
)
;
  }
  sun
  {
    type wallHeatTransfer;
    Tinf uniform 305.2;
    alphaWall uniform 0.24;
    value nonuniform List<scalar> 14
(
  306.504
  306.356
  306.3
  306.271
  306.251
  306.238
  306.23
  306.223
  306.216
  306.209
  306.202
  306.195
  306.188
  306.179
)
;
  }
  heatsource1
  {
    type fixedGradient;
    gradient uniform 0;
  }
  heatsource2
  {
    type fixedGradient;
    gradient uniform 0;
  }
  Table_master
  {
    type zeroGradient;
  }
  Table_slave
  {
    type zeroGradient;
  }
  inlet
  {
    type fixedValue;
    value uniform 296.15;
  }
  outlet
  {
    type zeroGradient;
  }
} 	// ************************************************************************* //

