/*--------------------------------*- C++ -*----------------------------------*\
  =========                 |
  \\      /  F ield         | OpenFOAM: The Open Source CFD Toolbox
   \\    /   O peration     | Website:  https://openfoam.org
    \\  /    A nd           | Version:  6
     \\/     M anipulation  |
\*---------------------------------------------------------------------------*/
FoamFile
{
    version     2.0;
    format      ascii;
    class       surfaceScalarField;
    location    "550";
    object      phi;
}
// * * * * * * * * * * * * * * * * * * * * * * * * * * * * * * * * * * * * * //

dimensions      [1 0 -1 0 0 0 0];

internalField   nonuniform List<scalar> 
852
(
-0.00232588
0.0023606
-0.00318468
0.000858793
-0.00386094
0.000676252
-0.00439309
0.00053215
-0.00475205
0.000358949
-0.00491113
0.000159072
-0.00484122
-6.99105e-05
-0.00451397
-0.000327257
-0.00393106
-0.000582919
-0.00314248
-0.000788591
-0.00223857
-0.00090391
-0.00133116
-0.000907419
-0.00053655
-0.000794615
2.21152e-05
-0.000558672
1.94629e-05
5.6038e-05
-5.96774e-05
0.000245575
-0.000189543
0.000593359
-0.000347791
0.000940257
-0.000346904
0.00122803
-0.000287777
0.00144017
-0.000212148
0.00155457
-0.000114413
0.00159867
-4.41065e-05
0.00161563
-1.69609e-05
0.00162089
-5.27221e-06
0.00161716
3.7239e-06
0.00160427
1.28844e-05
0.00157777
2.6491e-05
0.001524
5.37606e-05
0.00141013
0.000113862
0.00117916
0.000230961
0.000778762
0.000400391
0.000114757
0.000663997
0.000109607
-0.0017167
0.00417242
-0.00255885
0.00170094
-0.00326232
0.00137971
-0.00379794
0.00106777
-0.00416123
0.000722237
-0.00433367
0.000331505
-0.0042851
-0.00011849
-0.00399048
-0.000621884
-0.00346053
-0.00111287
-0.00275717
-0.00149196
-0.00197354
-0.00168754
-0.00121214
-0.00166883
-0.000564996
-0.00144176
-9.50745e-05
-0.0010286
0.000343055
-0.000418673
0.000312352
3.06462e-05
0.000312295
-9.39098e-05
2.55008e-05
0.000540537
-0.000823996
0.000903354
-0.000710614
0.00117854
-0.000622094
0.00139831
-0.00050756
0.00155407
-0.000367912
0.00158917
-0.000149526
0.0015973
-5.22444e-05
0.00160547
-2.51377e-05
0.0016122
-1.20056e-05
0.00161635
-4.32527e-07
0.00161789
1.13286e-05
0.00161591
2.84688e-05
0.00160588
6.37862e-05
0.00155391
0.000165817
0.00135154
0.000433322
0.00100304
0.000748884
0.000608301
0.00105873
0.000704232
-0.00124661
0.00556631
-0.0019776
0.00243192
-0.00262036
0.00202246
-0.0031006
0.001548
-0.00343938
0.00106101
-0.0036156
0.000507719
-0.00358524
-0.000148857
-0.00330716
-0.000899969
-0.0028087
-0.00161134
-0.00217169
-0.00212898
-0.0014893
-0.00236994
-0.000847277
-0.00231086
-0.000307119
-0.00198193
9.01092e-05
-0.00142584
0.000402398
-0.000730968
0.000487657
-5.46191e-05
0.000799946
0.000886892
-0.000874195
0.00102699
-0.000964102
0.001254
-0.000937628
0.0014148
-0.000782899
0.00153507
-0.000627842
0.00168133
-0.000514175
0.00153195
0.00147985
0.00145485
0.00144299
0.00144271
0.00145418
0.00148279
0.00154672
0.00171269
0.00150839
0.000637614
0.00125627
0.001001
0.000876942
0.00143805
0.00155956
-0.000903624
0.00666266
-0.00148343
0.00301172
-0.00194378
0.00248281
-0.00229464
0.00189885
-0.00255936
0.00132573
-0.0027096
0.000657953
-0.00267709
-0.000181371
-0.00239053
-0.00118654
-0.00192112
-0.00208076
-0.00137009
-0.00268001
-0.000815148
-0.00292488
-0.000313312
-0.0028127
0.000111723
-0.00240697
0.000468311
-0.00178243
0.000809783
-0.00107245
0.00117211
-0.000416956
0.00194474
2.7312e-05
0.00217309
-0.000240795
0.00199916
-0.000700278
0.00181091
-0.000775861
0.00164083
-0.000767556
0.00154255
-0.000684617
0.00148557
-0.000570879
0.00139621
-0.000424821
0.00159883
-0.000202775
0.0017279
-0.000129238
0.00183787
-0.00011013
0.00193794
-0.000100229
0.00202161
-8.38369e-05
0.00207237
-5.09221e-05
0.00206006
1.21483e-05
0.00194076
0.000119144
0.00164543
0.000295166
0.00160572
0.000677318
0.00147872
0.00112798
0.00125921
0.00165754
0.00279067
-0.000651206
0.00754602
-0.00108184
0.00344235
-0.00124214
0.0026431
-0.00139225
0.00204895
-0.00152075
0.00145422
-0.00159153
0.000728725
-0.00150786
-0.000265051
-0.00118874
-0.00150567
-0.000780195
-0.0024893
-0.000368095
-0.00309212
4.05732e-06
-0.00329704
0.000315866
-0.00312451
0.000571371
-0.00266248
0.000809194
-0.00202026
0.00106576
-0.00132902
0.00137446
-0.000725666
0.00175108
-0.000349315
0.00188803
-0.000377745
0.00172195
-0.000534207
0.00154993
-0.000603846
0.00138553
-0.000603163
0.00125745
-0.000556542
0.00116854
-0.000481984
0.00112685
-0.000383132
0.00119548
-0.000271415
0.00128016
-0.000213933
0.0013677
-0.000197676
0.00145803
-0.000190568
0.00154664
-0.000172456
0.00162364
-0.00012794
0.00167292
-3.71348e-05
0.00167641
0.000115641
0.00163556
0.000336004
0.00165534
0.000657525
0.00177173
0.00101159
0.00220741
0.00122186
0.00335914
0.00163893
0.00219654
0.00116239
0.00132229
0.000874043
0.0013645
-0.000562162
0.00837422
-0.000836812
0.00371699
-0.000570065
0.00237634
-0.000444882
0.00192376
-0.00038884
0.00139817
-0.000297793
0.00063767
-4.93727e-05
-0.000513479
0.000276008
-0.00183106
0.000561313
-0.00277461
0.000770443
-0.00330125
0.000898625
-0.00342522
0.000969733
-0.00319562
0.00100915
-0.00270191
0.00104577
-0.00205689
0.00110824
-0.0013915
0.00121283
-0.000830261
0.00133738
-0.000473871
0.00133922
-0.00037959
0.0012147
-0.000409697
0.00105693
-0.000446081
0.000905368
-0.000451612
0.000780879
-0.000432062
0.000694981
-0.000396095
0.000660161
-0.000348321
0.000688578
-0.000299842
0.000752763
-0.000278128
0.000832917
-0.000277839
0.00092168
-0.000279342
0.00101599
-0.00026678
0.00111449
-0.000226443
0.00121706
-0.000139717
0.00131343
1.92597e-05
0.00139896
0.00025046
0.00152343
0.000533042
0.00171735
0.000817658
0.00193996
0.00099924
0.00223058
0.00134829
0.00195906
0.00143391
0.00118942
0.00164367
0.00259742
-0.000672811
0.00934305
-0.000549302
0.00359348
0.000251575
0.00157546
0.000623825
0.0015515
0.000869794
0.0011522
0.00122786
0.000279597
0.00165689
-0.000942516
0.00191234
-0.00208652
0.00200497
-0.00286724
0.00195315
-0.00324943
0.00179322
-0.00326529
0.00157326
-0.00297567
0.00133748
-0.00246614
0.00112056
-0.00183997
0.000951014
-0.00122197
0.000843959
-0.000723214
0.000783866
-0.000413787
0.000700475
-0.000296208
0.000577487
-0.000286716
0.000437029
-0.000305631
0.000304034
-0.000318626
0.000194166
-0.000322203
0.000118256
-0.000320195
8.57234e-05
-0.000315799
0.000100073
-0.000314202
0.000146271
-0.000324336
0.000208607
-0.000340186
0.000279577
-0.000350324
0.000358236
-0.00034545
0.000449875
-0.000318094
0.000567069
-0.000256922
0.000722324
-0.000136006
0.000899682
7.30915e-05
0.00109383
0.000338882
0.00131448
0.000597
0.00150645
0.00080726
0.00174476
0.00110997
0.00187186
0.0013068
0.00160393
0.0019116
0.0042466
0.00180065
0.00787318
0.00231289
0.00308123
0.00237122
0.00151711
0.00255154
0.00137117
0.00287096
0.000832772
0.00335557
-0.00020502
0.00370099
-0.00128794
0.00372976
-0.00211529
0.00348493
-0.00262241
0.00305111
-0.0028156
0.00251256
-0.00272675
0.00194496
-0.00240807
0.00140685
-0.00192805
0.000933503
-0.00136663
0.000558247
-0.000846721
0.000295494
-0.000460471
0.000130833
-0.000249135
5.59127e-06
-0.000170975
-0.00011582
-0.000165314
-0.000236003
-0.000185458
-0.000345947
-0.000208691
-0.000437485
-0.000230675
-0.000504218
-0.000253472
-0.0005419
-0.000278128
-0.000550746
-0.000305367
-0.00053977
-0.000335323
-0.000517897
-0.000362071
-0.000490673
-0.000377558
-0.000460769
-0.000375366
-0.000425501
-0.000353373
-0.000368576
-0.000313858
-0.000253486
-0.000251108
-5.37281e-05
-0.000126677
0.000193046
9.20969e-05
0.000443589
0.000346445
0.000656492
0.000594346
0.000901407
0.000865041
0.00112082
0.00108737
0.000704167
0.00232824
0.00513966
0.00821532
0.0112747
0.00950436
0.00328745
0.00856806
0.00230747
0.00796302
0.0014378
0.007354
0.000403998
0.00656798
-0.000501931
0.00565155
-0.00119885
0.0046652
-0.00163606
0.00365852
-0.00180892
0.00267767
-0.0017459
0.00177615
-0.00150656
0.00099908
-0.00115099
0.000356149
-0.000723714
-0.000107639
-0.000382945
-0.000398404
-0.000169716
-0.000568076
-7.94743e-05
-0.000684838
-5.42226e-05
-0.000786296
-6.38664e-05
-0.000880899
-9.08654e-05
-0.0009686
-0.000121001
-0.00104918
-0.00015011
-0.00112067
-0.000181994
-0.00118218
-0.000216624
-0.00123451
-0.000253053
-0.00128089
-0.000288946
-0.00132462
-0.000318355
-0.00137003
-0.00033216
-0.00142644
-0.000318969
-0.0015114
-0.000268419
-0.0016425
-0.000182776
-0.00182852
-6.5099e-05
-0.00206887
0.000113669
-0.00235933
0.000382547
-0.00276965
0.000756756
-0.00343655
0.00126123
-0.00449685
0.00192534
-0.0060074
0.00259791
-0.0062373
0.00255813
-0.00089326
0.00609641
0.00349078
0.00545176
0.00295214
0.00540884
0.00148074
0.00526581
0.000547035
0.00486979
-0.000105896
0.00423348
-0.000562536
0.00341395
-0.000816529
0.00249201
-0.000886985
0.00154534
-0.000799235
0.00066175
-0.000622985
-7.96562e-05
-0.000409601
-0.000614732
-0.000188652
-0.000928011
-6.96786e-05
-0.00110005
2.31291e-06
-0.00120244
2.29044e-05
-0.0012741
1.7425e-05
-0.00133754
-4.4138e-07
-0.0014021
-2.6309e-05
-0.00147066
-5.24589e-05
-0.0015475
-7.32779e-05
-0.00163344
-9.60693e-05
-0.00172995
-0.000120123
-0.00183814
-0.000144877
-0.00195783
-0.00016926
-0.00208632
-0.000189884
-0.00221871
-0.000199781
-0.00235094
-0.000186748
-0.0024871
-0.000132264
-0.00263045
-3.94415e-05
-0.00278021
8.46557e-05
-0.00292016
0.000253602
-0.00303833
0.000500711
-0.00313328
0.000851697
-0.0031935
0.00132143
-0.00318124
0.00191307
-0.00298445
0.00240111
-0.00139432
0.000967991
-0.00224096
0.000539408
0.00293849
0.00173006
0.00176149
0.00217076
0.00104005
0.0022495
0.000468301
0.00205589
8.77209e-05
0.00164206
-0.000148716
0.00107209
-0.000246563
0.00042435
-0.000239263
-0.000196825
-0.000178079
-0.000730332
-8.94944e-05
-0.00113151
-8.43407e-06
-0.00136673
4.65532e-05
-0.00150291
6.64834e-05
-0.00156816
6.75515e-05
-0.00160555
6.02893e-05
-0.00163432
4.61761e-05
-0.00166405
2.92754e-05
-0.00170449
1.41238e-05
-0.00175588
-1.07624e-06
-0.00181429
-1.48821e-05
-0.00188368
-2.6689e-05
-0.00196781
-3.60116e-05
-0.00207123
-4.14651e-05
-0.00219872
-4.1782e-05
-0.00235263
-3.59844e-05
-0.00252908
-2.3343e-05
-0.00271223
-3.6066e-06
-0.00287088
2.6374e-05
-0.00297811
6.77749e-05
-0.00302706
0.000133602
-0.0030028
0.000229325
-0.00286725
0.00036515
-0.00257618
0.000560617
-0.00207107
0.000816316
-0.00116923
0.00101122
0.000327438
0.000904437
0.00136911
-7.36892e-05
-0.000823837
-0.00589219
-0.00715428
-0.00423621
-0.00249817
-0.00148452
-0.00104593
-0.000991263
-0.00117484
-0.00145707
-0.00173263
-0.00194777
-0.00207547
-0.00212354
-0.00211782
-0.0020931
-0.00206789
-0.00205024
-0.0020469
-0.00206061
-0.00208962
-0.00213396
-0.00219217
-0.00226223
-0.00234166
-0.00242665
-0.00251221
-0.00259245
-0.00266083
-0.00271056
-0.00273153
-0.00271241
-0.00262872
-0.0024504
-0.00213709
-0.00162885
-0.000865145
9.33022e-05
0.000944429
0.00081756
)
;

boundaryField
{
    floor
    {
        type            calculated;
        value           nonuniform List<scalar> 
29
(
0
0
0
0
0
0
0
0
0
0
0
0
0
0
0
0
0
0
0
0
5.14162e-06
1.36669e-05
2.16093e-05
2.80859e-05
2.64441e-06
3.63323e-06
8.72473e-06
1.27978e-05
1.24449e-05
)
;
    }
    ceiling
    {
        type            calculated;
        value           nonuniform List<scalar> 
43
(
2.27117e-05
2.11412e-05
2.04131e-05
2.34469e-05
2.63884e-05
2.9693e-05
3.30297e-05
3.4839e-05
3.56486e-05
3.62775e-05
3.7041e-05
3.81919e-05
3.9621e-05
4.08281e-05
4.17519e-05
4.23206e-05
4.26314e-05
4.28219e-05
4.29747e-05
4.31192e-05
4.32523e-05
4.3316e-05
4.33603e-05
4.34089e-05
4.35161e-05
4.3763e-05
4.42427e-05
4.50285e-05
4.61151e-05
4.73362e-05
4.86426e-05
4.98975e-05
5.0994e-05
5.18389e-05
5.23646e-05
5.25985e-05
5.27624e-05
5.33005e-05
5.31689e-05
5.49313e-05
2.69448e-05
2.18499e-05
1.28852e-05
)
;
    }
    sWall
    {
        type            calculated;
        value           uniform -0.000173449;
    }
    nWall
    {
        type            calculated;
        value           nonuniform List<scalar> 6(-4.24301e-05 -4.34999e-05 -4.52702e-05 -4.66285e-05 -4.80281e-05 -6.12177e-05);
    }
    sideWalls
    {
        type            empty;
        value           nonuniform 0();
    }
    glass1
    {
        type            calculated;
        value           nonuniform List<scalar> 9(-3.4729e-05 -9.51205e-05 -0.000147284 -0.000192732 -0.000232158 -0.000266045 -0.000296029 -0.000330778 -0.000369094);
    }
    glass2
    {
        type            calculated;
        value           nonuniform List<scalar> 2(-0.0001889 -0.000204391);
    }
    sun
    {
        type            calculated;
        value           uniform 0;
    }
    heatsource1
    {
        type            calculated;
        value           nonuniform List<scalar> 3(2.02998e-07 2.03506e-07 2.03865e-07);
    }
    heatsource2
    {
        type            calculated;
        value           nonuniform List<scalar> 4(5.10743e-08 5.1131e-08 0 0);
    }
    Table_master
    {
        type            calculated;
        value           nonuniform List<scalar> 9(-1.52735e-07 -1.52836e-07 -1.52864e-07 -1.52881e-07 -1.52892e-07 -1.52894e-07 -1.5289e-07 -1.52874e-07 -1.52824e-07);
    }
    Table_slave
    {
        type            calculated;
        value           nonuniform List<scalar> 9(1.52655e-07 1.52666e-07 1.52629e-07 1.52593e-07 1.52562e-07 1.52544e-07 1.52546e-07 1.52555e-07 1.52604e-07);
    }
    inlet
    {
        type            calculated;
        value           uniform -0.00629974;
    }
    outlet
    {
        type            calculated;
        value           nonuniform List<scalar> 2(0.00604292 0.00124095);
    }
}


// ************************************************************************* //
