/*--------------------------------*- C++ -*----------------------------------*\
  =========                 |
  \\      /  F ield         | OpenFOAM: The Open Source CFD Toolbox
   \\    /   O peration     | Website:  https://openfoam.org
    \\  /    A nd           | Version:  6
     \\/     M anipulation  |
\*---------------------------------------------------------------------------*/
FoamFile
{
    version     2.0;
    format      ascii;
    class       volScalarField;
    location    "520";
    object      epsilon;
}
// * * * * * * * * * * * * * * * * * * * * * * * * * * * * * * * * * * * * * //

dimensions      [0 2 -3 0 0 0 0];

internalField   nonuniform List<scalar> 
459
(
4.70004e-05
8.74129e-05
0.000193615
0.000249153
0.000247567
0.000229521
0.000207808
0.000186802
0.00016731
0.000150594
0.000135205
0.000120141
0.0001045
8.70215e-05
6.94573e-05
4.94653e-05
9.07079e-05
9.52859e-05
8.77571e-05
7.67751e-05
6.54806e-05
5.38594e-05
4.41336e-05
3.65406e-05
3.06532e-05
2.6042e-05
2.23733e-05
1.93974e-05
1.69503e-05
1.48365e-05
1.28888e-05
1.10741e-05
8.80958e-06
9.95044e-06
0.000136476
0.000207972
0.00020655
0.000212502
0.000197433
0.000167056
0.000139198
0.00011916
0.000105583
9.67195e-05
8.98093e-05
8.3033e-05
7.54933e-05
6.64879e-05
5.73733e-05
6.76939e-05
4.84107e-05
0.000155488
0.000358986
0.000149368
9.59373e-05
7.25117e-05
5.83846e-05
5.27641e-05
4.29342e-05
3.4281e-05
2.74282e-05
2.21335e-05
1.80491e-05
1.4863e-05
1.23984e-05
1.05625e-05
9.63265e-06
1.2455e-05
1.65817e-05
2.16255e-05
0.000247323
0.000347601
0.000263877
0.000217963
0.000203605
0.000163795
0.000127743
0.000104949
9.17854e-05
8.33328e-05
7.64827e-05
6.95484e-05
6.22115e-05
5.4598e-05
4.80213e-05
4.70768e-05
5.15411e-05
0.000125666
0.000267437
0.000133527
9.16173e-05
7.1674e-05
6.21042e-05
0.000123365
8.493e-05
6.02408e-05
4.40832e-05
3.32298e-05
2.5746e-05
2.04865e-05
1.68775e-05
1.45653e-05
1.09194e-05
1.29314e-05
2.92433e-05
3.3856e-05
0.000305717
0.00040909
0.000287048
0.000221171
0.000228568
0.000171991
0.000118813
8.95695e-05
7.58492e-05
6.88625e-05
6.36118e-05
5.80413e-05
5.20285e-05
4.6081e-05
4.14249e-05
3.92895e-05
4.34626e-05
5.79724e-05
0.000104971
8.77285e-05
7.73465e-05
7.05686e-05
6.42187e-05
6.23339e-05
0.000161199
0.000124564
9.98201e-05
8.11044e-05
6.57861e-05
5.26231e-05
4.10059e-05
3.06359e-05
2.10801e-05
1.15818e-05
1.23952e-05
6.09021e-05
5.38842e-05
0.00032291
0.000433453
0.000292258
0.000243785
0.000284387
0.00019628
0.000111285
7.04782e-05
5.61805e-05
5.25219e-05
5.0507e-05
4.76952e-05
4.42335e-05
4.08907e-05
3.89434e-05
3.88048e-05
4.54332e-05
5.23859e-05
6.02445e-05
7.12911e-05
7.79468e-05
7.82675e-05
7.34671e-05
6.72557e-05
6.80904e-05
6.57754e-05
6.26624e-05
5.77667e-05
5.11376e-05
4.3259e-05
3.46004e-05
2.57101e-05
1.63169e-05
1.01506e-05
1.09267e-05
4.95682e-05
6.43253e-05
6.95702e-05
8.21199e-05
0.000225508
0.000330473
0.000515709
0.00030245
0.000289781
0.000367661
0.000237303
0.000107284
5.5141e-05
4.37676e-05
4.27306e-05
4.29466e-05
4.25747e-05
4.18398e-05
4.16147e-05
4.34978e-05
4.90041e-05
6.19805e-05
7.83551e-05
9.49658e-05
0.000106612
0.00010991
0.000104393
9.30963e-05
8.06036e-05
7.10201e-05
6.39773e-05
5.79387e-05
5.12981e-05
4.37192e-05
3.54725e-05
2.68631e-05
1.90028e-05
1.28059e-05
1.05497e-05
1.28068e-05
2.92636e-05
5.2714e-05
9.86576e-05
0.000369038
0.00053939
0.000358418
0.000854293
0.000332041
0.000363868
0.000474945
0.000298402
0.000123639
6.29939e-05
4.97078e-05
4.83551e-05
4.94008e-05
5.08884e-05
5.29158e-05
5.67346e-05
6.39285e-05
7.71341e-05
9.88385e-05
0.000125457
0.000146092
0.000153932
0.000147254
0.000130123
0.0001087
8.83536e-05
7.24214e-05
6.22263e-05
5.40438e-05
4.62452e-05
3.86715e-05
3.17223e-05
2.59729e-05
2.21846e-05
2.07711e-05
2.1978e-05
2.49546e-05
3.21343e-05
5.52633e-05
0.000227192
0.00119086
0.00136168
0.000388473
0.000927502
0.000385968
0.000477751
0.000604437
0.000389087
0.000166655
0.000102994
9.00206e-05
9.01604e-05
9.31347e-05
9.70929e-05
0.000102436
0.00011051
0.000123284
0.00014459
0.000173211
0.000201464
0.000213864
0.000206993
0.000182184
0.000152593
0.000125268
0.000103029
8.6976e-05
7.58025e-05
6.73607e-05
6.08722e-05
5.64736e-05
5.46704e-05
5.59933e-05
6.06889e-05
6.81007e-05
7.60204e-05
8.17486e-05
8.91062e-05
0.000123914
0.000549849
0.0045223
0.00355389
0.000381468
0.000686872
0.000501176
0.000644404
0.000759427
0.000505901
0.000274852
0.000226089
0.000226357
0.000236261
0.000246145
0.000254931
0.000263819
0.000274576
0.000288933
0.000307848
0.000327964
0.000340415
0.000335514
0.000313397
0.000282686
0.000250718
0.000222772
0.000200683
0.000184276
0.000173008
0.00016644
0.000164845
0.000168959
0.00017963
0.000197374
0.000221613
0.000249484
0.000275384
0.000296236
0.000298562
0.000346435
0.0010322
0.00657193
0.00502211
0.000609308
0.000946252
0.000946851
0.000624876
0.000564336
0.000607642
0.000665756
0.000712874
0.00074495
0.000764626
0.000775785
0.000781941
0.00078571
0.000788194
0.000788028
0.000781848
0.000767285
0.000745529
0.000720219
0.000694466
0.00067001
0.000648122
0.000630119
0.00061786
0.000613567
0.000619763
0.000639096
0.000673985
0.000725692
0.000792292
0.000865437
0.000929352
0.000974527
0.000970381
0.00100826
0.00159899
0.00494693
0.00302888
0.0029286
0.00310558
0.00216196
0.00144328
0.00149768
0.0016822
0.00186026
0.00199317
0.00207754
0.00212316
0.00214221
0.00214577
0.00214368
0.00214422
0.00215192
0.00216414
0.00217066
0.00216377
0.00214381
0.00211522
0.00208146
0.00204588
0.00201273
0.0019878
0.00197749
0.00198874
0.00202902
0.00210599
0.00222589
0.0023883
0.00257453
0.00272973
0.00275394
0.00264063
0.00241647
0.00242422
0.00280624
0.00179796
0.000767191
0.00091334
0.00123543
0.00144335
0.00144476
0.00138938
0.0013807
0.00139656
0.00141488
0.00142895
0.00143859
0.00144551
0.00145153
0.00145801
0.0014654
0.00147277
0.00147765
0.00147706
0.00146979
0.00145714
0.00144162
0.00142561
0.00141096
0.00139911
0.00139136
0.00138901
0.0013934
0.00140573
0.00142677
0.00145625
0.00149187
0.00152781
0.0015532
0.00155326
0.00152987
0.00148504
0.00149037
0.0015818
0.00160332
0.00110301
)
;

boundaryField
{
    floor
    {
        Cmu             0.09;
        kappa           0.41;
        E               9.8;
        type            epsilonWallFunction;
        value           nonuniform List<scalar> 
29
(
6.94573e-05
4.94653e-05
9.07079e-05
9.52859e-05
8.77571e-05
7.67751e-05
6.54806e-05
5.38594e-05
4.41336e-05
3.65406e-05
3.06532e-05
2.6042e-05
2.23733e-05
1.93974e-05
1.69503e-05
1.48365e-05
1.28888e-05
1.10741e-05
8.80958e-06
9.95044e-06
9.95044e-06
2.16255e-05
3.3856e-05
5.38842e-05
6.94573e-05
4.94653e-05
0.000155488
0.000125666
5.79724e-05
)
;
    }
    ceiling
    {
        Cmu             0.09;
        kappa           0.41;
        E               9.8;
        type            epsilonWallFunction;
        value           nonuniform List<scalar> 
43
(
0.000767191
0.00091334
0.00123543
0.00144335
0.00144476
0.00138938
0.0013807
0.00139656
0.00141488
0.00142895
0.00143859
0.00144551
0.00145153
0.00145801
0.0014654
0.00147277
0.00147765
0.00147706
0.00146979
0.00145714
0.00144162
0.00142561
0.00141096
0.00139911
0.00139136
0.00138901
0.0013934
0.00140573
0.00142677
0.00145625
0.00149187
0.00152781
0.0015532
0.00155326
0.00152987
0.00148504
0.00149037
0.0015818
0.00160332
0.00110301
0.000381468
0.000686872
0.0029286
)
;
    }
    sWall
    {
        Cmu             0.09;
        kappa           0.41;
        E               9.8;
        type            epsilonWallFunction;
        value           uniform 0.000767191;
    }
    nWall
    {
        Cmu             0.09;
        kappa           0.41;
        E               9.8;
        type            epsilonWallFunction;
        value           nonuniform List<scalar> 6(0.000225508 0.00053939 0.00136168 0.00302888 0.00179796 0.00110301);
    }
    sideWalls
    {
        type            empty;
    }
    glass1
    {
        Cmu             0.09;
        kappa           0.41;
        E               9.8;
        type            epsilonWallFunction;
        value           nonuniform List<scalar> 9(4.70004e-05 0.000136476 0.000247323 0.000305717 0.00032291 0.000330473 0.000358418 0.000388473 0.000381468);
    }
    glass2
    {
        Cmu             0.09;
        kappa           0.41;
        E               9.8;
        type            epsilonWallFunction;
        value           nonuniform List<scalar> 2(0.00355389 0.00502211);
    }
    sun
    {
        Cmu             0.09;
        kappa           0.41;
        E               9.8;
        type            epsilonWallFunction;
        value           nonuniform List<scalar> 
14
(
4.70004e-05
8.74129e-05
0.000193615
0.000249153
0.000247567
0.000229521
0.000207808
0.000186802
0.00016731
0.000150594
0.000135205
0.000120141
0.0001045
8.70215e-05
)
;
    }
    heatsource1
    {
        Cmu             0.09;
        kappa           0.41;
        E               9.8;
        type            epsilonWallFunction;
        value           nonuniform List<scalar> 3(6.95702e-05 8.21199e-05 0.000225508);
    }
    heatsource2
    {
        Cmu             0.09;
        kappa           0.41;
        E               9.8;
        type            epsilonWallFunction;
        value           nonuniform List<scalar> 4(6.76939e-05 4.84107e-05 4.84107e-05 5.15411e-05);
    }
    Table_master
    {
        Cmu             0.09;
        kappa           0.41;
        E               9.8;
        type            epsilonWallFunction;
        value           nonuniform List<scalar> 9(0.000123365 8.493e-05 6.02408e-05 4.40832e-05 3.32298e-05 2.5746e-05 2.04865e-05 1.68775e-05 1.45653e-05);
    }
    Table_slave
    {
        Cmu             0.09;
        kappa           0.41;
        E               9.8;
        type            epsilonWallFunction;
        value           nonuniform List<scalar> 9(0.000161199 0.000124564 9.98201e-05 8.11044e-05 6.57861e-05 5.26231e-05 4.10059e-05 3.06359e-05 2.10801e-05);
    }
    inlet
    {
        type            turbulentMixingLengthDissipationRateInlet;
        mixingLength    0.01;
        phi             phi;
        k               k;
        value           uniform 0.000101881;
    }
    outlet
    {
        type            zeroGradient;
    }
}


// ************************************************************************* //
