// -*- C++ -*-
// File generated by PyFoam - sorry for the ugliness

FoamFile
{
 version 2.0;
 format ascii;
 class volScalarField;
 location "610";
 object T;
}

dimensions [ 0 0 0 1 0 0 0 ];

internalField nonuniform List<scalar> 459
(
  303.502
  303.345
  303.342
  303.344
  303.345
  303.346
  303.346
  303.346
  303.345
  303.342
  303.337
  303.331
  303.324
  303.319
  303.313
  303.243
  303.29
  303.31
  303.313
  303.308
  303.301
  303.294
  303.287
  303.281
  303.275
  303.27
  303.264
  303.259
  303.253
  303.246
  303.238
  303.226
  303.193
  303.175
  303.623
  303.39
  303.384
  303.39
  303.396
  303.4
  303.402
  303.401
  303.398
  303.389
  303.375
  303.359
  303.343
  303.334
  303.335
  303.344
  303.355
  303.333
  303.365
  303.372
  303.375
  303.375
  303.373
  303.371
  303.371
  303.372
  303.372
  303.373
  303.374
  303.374
  303.371
  303.363
  303.348
  303.323
  303.27
  303.267
  303.741
  303.426
  303.413
  303.425
  303.437
  303.446
  303.452
  303.455
  303.452
  303.438
  303.412
  303.38
  303.35
  303.331
  303.327
  303.335
  303.346
  303.364
  303.376
  303.386
  303.393
  303.395
  303.396
  303.397
  303.398
  303.4
  303.403
  303.406
  303.408
  303.411
  303.412
  303.41
  303.4
  303.376
  303.336
  303.331
  303.859
  303.464
  303.437
  303.453
  303.474
  303.493
  303.509
  303.518
  303.517
  303.498
  303.458
  303.406
  303.357
  303.325
  303.319
  303.329
  303.342
  303.353
  303.369
  303.384
  303.396
  303.405
  303.41
  303.412
  303.418
  303.424
  303.43
  303.436
  303.442
  303.449
  303.456
  303.462
  303.468
  303.446
  303.418
  303.385
  303.368
  303.974
  303.508
  303.458
  303.474
  303.501
  303.53
  303.558
  303.579
  303.583
  303.558
  303.501
  303.429
  303.362
  303.318
  303.31
  303.324
  303.345
  303.366
  303.386
  303.404
  303.418
  303.428
  303.434
  303.437
  303.442
  303.449
  303.455
  303.461
  303.468
  303.474
  303.48
  303.485
  303.487
  303.477
  303.456
  303.429
  303.398
  303.403
  303.465
  303.608
  304.077
  303.563
  303.486
  303.489
  303.515
  303.547
  303.581
  303.616
  303.629
  303.599
  303.527
  303.439
  303.359
  303.31
  303.301
  303.321
  303.352
  303.383
  303.41
  303.431
  303.446
  303.455
  303.461
  303.465
  303.469
  303.474
  303.48
  303.487
  303.493
  303.499
  303.504
  303.508
  303.508
  303.501
  303.488
  303.475
  303.437
  303.425
  303.499
  303.628
  304.166
  303.651
  303.558
  303.531
  303.539
  303.562
  303.593
  303.633
  303.646
  303.608
  303.528
  303.428
  303.341
  303.291
  303.288
  303.321
  303.366
  303.408
  303.441
  303.464
  303.478
  303.486
  303.49
  303.493
  303.496
  303.501
  303.507
  303.514
  303.52
  303.525
  303.529
  303.531
  303.53
  303.525
  303.515
  303.502
  303.462
  303.449
  303.519
  303.654
  304.299
  303.898
  303.781
  303.698
  303.656
  303.646
  303.659
  303.682
  303.662
  303.592
  303.488
  303.378
  303.293
  303.257
  303.275
  303.329
  303.391
  303.444
  303.479
  303.5
  303.512
  303.518
  303.52
  303.522
  303.525
  303.53
  303.536
  303.541
  303.546
  303.55
  303.553
  303.554
  303.553
  303.548
  303.538
  303.524
  303.489
  303.474
  303.531
  303.696
  304.483
  304.3
  304.165
  304.035
  303.931
  303.863
  303.821
  303.753
  303.64
  303.506
  303.375
  303.27
  303.211
  303.213
  303.27
  303.354
  303.432
  303.488
  303.518
  303.533
  303.541
  303.545
  303.547
  303.549
  303.553
  303.557
  303.561
  303.565
  303.569
  303.572
  303.573
  303.573
  303.572
  303.568
  303.56
  303.547
  303.523
  303.51
  303.554
  303.7
  301.775
  302.535
  302.947
  303.128
  303.185
  303.192
  303.171
  303.136
  303.1
  303.083
  303.11
  303.186
  303.297
  303.408
  303.485
  303.525
  303.545
  303.556
  303.561
  303.564
  303.567
  303.569
  303.572
  303.575
  303.578
  303.581
  303.583
  303.585
  303.586
  303.586
  303.585
  303.582
  303.578
  303.571
  303.561
  303.557
  303.592
  303.672
  301.819
  302.346
  302.626
  302.778
  302.85
  302.874
  302.895
  302.911
  302.931
  302.981
  303.097
  303.237
  303.376
  303.465
  303.517
  303.544
  303.558
  303.566
  303.57
  303.573
  303.576
  303.578
  303.58
  303.583
  303.585
  303.587
  303.588
  303.589
  303.59
  303.591
  303.591
  303.591
  303.591
  303.591
  303.591
  303.597
  303.623
  303.663
  302.213
  302.149
  302.147
  302.419
  302.607
  302.723
  302.763
  302.78
  302.795
  302.815
  302.852
  302.963
  303.222
  303.368
  303.457
  303.506
  303.532
  303.546
  303.554
  303.558
  303.561
  303.564
  303.566
  303.568
  303.57
  303.572
  303.573
  303.575
  303.576
  303.577
  303.578
  303.58
  303.582
  303.585
  303.589
  303.595
  303.602
  303.613
  303.631
  303.657
)
;

boundaryField
{
  floor
  {
    type wallHeatTransfer;
    Tinf uniform 298.85;
    alphaWall uniform 0.24;
    value nonuniform List<scalar> 29
(
  302.84
  302.538
  302.671
  302.647
  302.595
  302.528
  302.461
  302.392
  302.323
  302.261
  302.203
  302.148
  302.095
  302.046
  301.997
  301.949
  301.899
  301.907
  302.187
  302.357
  302.357
  302.533
  302.634
  302.696
  302.84
  302.538
  302.751
  302.861
  302.94
)
;
  }
  ceiling
  {
    type wallHeatTransfer;
    Tinf uniform 298.85;
    alphaWall uniform 0.24;
    value nonuniform List<scalar> 43
(
  301.911
  301.868
  301.881
  302.149
  302.323
  302.423
  302.453
  302.462
  302.475
  302.501
  302.545
  302.657
  302.912
  303.057
  303.143
  303.187
  303.207
  303.217
  303.221
  303.224
  303.225
  303.227
  303.228
  303.23
  303.232
  303.234
  303.236
  303.238
  303.24
  303.242
  303.244
  303.246
  303.248
  303.25
  303.252
  303.256
  303.268
  303.291
  303.319
  303.316
  304.179
  304.049
  301.587
)
;
  }
  sWall
  {
    type wallHeatTransfer;
    Tinf uniform 311.144;
    alphaWall uniform 0.36;
    value uniform 303.369;
  }
  nWall
  {
    type wallHeatTransfer;
    Tinf uniform 299.15;
    alphaWall uniform 0.36;
    value nonuniform List<scalar> 6
(
  302.979
  303.119
  303.243
  303.326
  303.263
  303.194
)
;
  }
  sideWalls
  {
    type empty;
  }
  glass1
  {
    type wallHeatTransfer;
    Tinf uniform 311.144;
    alphaWall uniform 4.3;
    value nonuniform List<scalar> 9
(
  309.045
  308.666
  308.413
  308.211
  308.038
  307.879
  307.739
  307.755
  307.871
)
;
  }
  glass2
  {
    type wallHeatTransfer;
    Tinf uniform 299.15;
    alphaWall uniform 4.3;
    value nonuniform List<scalar> 2
(
  301.513
  301.614
)
;
  }
  sun
  {
    type wallHeatTransfer;
    Tinf uniform 298.85;
    alphaWall uniform 0.24;
    value nonuniform List<scalar> 14
(
  302.913
  302.809
  302.814
  302.833
  302.848
  302.861
  302.872
  302.883
  302.892
  302.897
  302.896
  302.891
  302.88
  302.864
)
;
  }
  heatsource1
  {
    type fixedGradient;
    gradient uniform 0;
  }
  heatsource2
  {
    type fixedGradient;
    gradient uniform 0;
  }
  Table_master
  {
    type zeroGradient;
  }
  Table_slave
  {
    type zeroGradient;
  }
  inlet
  {
    type fixedValue;
    value uniform 300.15;
  }
  outlet
  {
    type zeroGradient;
  }
} 	// ************************************************************************* //

