/*--------------------------------*- C++ -*----------------------------------*\
  =========                 |
  \\      /  F ield         | OpenFOAM: The Open Source CFD Toolbox
   \\    /   O peration     | Website:  https://openfoam.org
    \\  /    A nd           | Version:  6
     \\/     M anipulation  |
\*---------------------------------------------------------------------------*/
FoamFile
{
    version     2.0;
    format      ascii;
    class       volScalarField;
    location    "310";
    object      nut;
}
// * * * * * * * * * * * * * * * * * * * * * * * * * * * * * * * * * * * * * //

dimensions      [0 2 -1 0 0 0 0];

internalField   nonuniform List<scalar> 
459
(
0.00101491
0.00112246
0.00116611
0.00122933
0.00128953
0.00135014
0.00141142
0.00146018
0.00148916
0.00149081
0.00145783
0.00137231
0.00122019
0.00103672
0.000893501
0.000555431
0.000703546
0.000712809
0.000769489
0.000754345
0.000722017
0.000664137
0.00060605
0.000555773
0.00051336
0.000477439
0.00044672
0.000419988
0.000396667
0.000375376
0.000354722
0.000336473
0.000324035
0.000385742
0.00130525
0.00325731
0.00318567
0.00370057
0.00423935
0.00472975
0.00510642
0.00547877
0.00582483
0.00611182
0.00629847
0.00630798
0.00605228
0.00547938
0.00369733
0.00112634
0.000887652
0.00089905
0.00259308
0.00244705
0.00259674
0.00274775
0.00266763
0.00186633
0.00151906
0.00129295
0.00113148
0.00101132
0.000919527
0.000849266
0.000780262
0.000706615
0.000640173
0.000677438
0.000732696
0.00051056
0.00154502
0.00442211
0.00399188
0.00461642
0.0049624
0.00522406
0.00545274
0.00574421
0.00612272
0.00657197
0.00703237
0.00735315
0.00739693
0.00711592
0.00612249
0.00401925
0.0011035
0.00101859
0.00320959
0.00281771
0.00299994
0.00330357
0.00318689
0.000938765
0.000797532
0.000686164
0.00059886
0.000529979
0.000475153
0.000431261
0.000397466
0.000373811
0.000430272
0.000615015
0.0009215
0.000592828
0.00177265
0.00541954
0.00406304
0.00474305
0.00484147
0.00488153
0.00498581
0.00519582
0.00558724
0.00614376
0.0067836
0.00726176
0.0075403
0.00757526
0.00720659
0.0059963
0.00322401
0.00124611
0.00178903
0.00225415
0.00291882
0.00362394
0.00416735
0.00400964
0.00105189
0.000949053
0.00086985
0.000806654
0.000752058
0.000701572
0.000652142
0.000601192
0.00054488
0.000487036
0.000593265
0.00106067
0.000673594
0.00200667
0.00668193
0.00428051
0.0047036
0.00474054
0.00466909
0.00468579
0.00481909
0.00522298
0.00583223
0.00649704
0.00704653
0.00739193
0.00752739
0.00743112
0.00689997
0.00563796
0.00449084
0.00450402
0.00484473
0.00529609
0.00569917
0.00594386
0.00586811
0.00497238
0.00443026
0.00405636
0.00367828
0.00328806
0.00288258
0.00245649
0.00200402
0.00152622
0.00108787
0.000866529
0.00100899
0.000900613
0.000695844
0.000814524
0.00120595
0.00226108
0.00813572
0.00548939
0.00484486
0.00499002
0.00479172
0.00467126
0.00472733
0.00510611
0.00575239
0.0064669
0.00704458
0.00738063
0.00749525
0.00746902
0.00732948
0.00702083
0.00685304
0.00704259
0.00725263
0.00741184
0.00746567
0.00739225
0.00716758
0.00673939
0.00627358
0.00577017
0.00524072
0.00468743
0.00410989
0.00350664
0.00287994
0.00224893
0.00168803
0.00132361
0.00110554
0.00099216
0.00111913
0.00175777
0.0016144
0.00249854
0.00919541
0.00749226
0.0059795
0.00567068
0.00514329
0.00475695
0.00475381
0.00519314
0.00593945
0.00673451
0.00734481
0.00766809
0.00776126
0.00778646
0.00788987
0.00804956
0.00826917
0.00849869
0.00859732
0.00853589
0.00834087
0.0080418
0.0076606
0.00720135
0.0067024
0.00617837
0.00563018
0.00505843
0.00446582
0.00385774
0.00324687
0.002662
0.00216255
0.00180769
0.00149191
0.00115078
0.0016742
0.00326542
0.00216477
0.00255678
0.00826592
0.00727735
0.0066244
0.00575871
0.00495039
0.00457534
0.00477197
0.00547924
0.00644284
0.0073445
0.00796724
0.00826228
0.0083526
0.00842297
0.00854913
0.00869537
0.00882801
0.00887733
0.00878288
0.00853881
0.00816827
0.00769717
0.00717415
0.00664933
0.00613772
0.00563845
0.00514482
0.00465579
0.00417853
0.00372709
0.00331981
0.00297357
0.00269664
0.00246765
0.00219001
0.00167216
0.00226373
0.0057028
0.00294394
0.00250531
0.0029952
0.00328253
0.00327427
0.0032532
0.00339941
0.00393829
0.0049423
0.00623334
0.00745869
0.00834329
0.00882014
0.0089662
0.00894597
0.00870584
0.00849268
0.00839215
0.0083258
0.00819168
0.0079412
0.00757934
0.00713887
0.00665918
0.00618545
0.00575241
0.00537249
0.00504318
0.00475986
0.00452295
0.00433682
0.00420505
0.0041247
0.00408009
0.00403642
0.00393424
0.00369977
0.00313097
0.00350719
0.00743574
0.00328593
0.00102579
0.00159776
0.00253104
0.00398737
0.00554552
0.00709043
0.0083521
0.00909055
0.00933917
0.00924949
0.00886127
0.00845236
0.00814117
0.00793768
0.00780571
0.00767791
0.00750745
0.0072865
0.00703218
0.00676823
0.00651555
0.00629043
0.00610226
0.00595395
0.005846
0.00577953
0.00575684
0.00577941
0.0058446
0.00594112
0.00604284
0.00610124
0.00603724
0.00577531
0.00529765
0.00544401
0.00778896
0.00277868
0.00136771
0.00338557
0.0058804
0.00729412
0.00838067
0.00939839
0.00995677
0.00992117
0.0094449
0.00885798
0.00838197
0.00806166
0.0078761
0.00777823
0.00772703
0.00769208
0.00765175
0.0075957
0.00752327
0.00744012
0.00735505
0.00727681
0.00721208
0.00716593
0.00714281
0.00714696
0.0071822
0.0072511
0.00735282
0.00747895
0.00760489
0.00767387
0.00758192
0.00723574
0.00668891
0.00630355
0.00601127
0.00231951
0.00137416
0.00148402
0.00160318
0.00185534
0.00198185
0.00206532
0.00213699
0.00216546
0.00213951
0.00208375
0.00201749
0.00195347
0.00190929
0.00188417
0.00187248
0.00186929
0.00187034
0.00187221
0.0018727
0.00187104
0.00186756
0.00186313
0.0018587
0.00185506
0.00185279
0.00185226
0.00185376
0.00185752
0.00186366
0.00187214
0.00188241
0.00189294
0.00190014
0.00189817
0.00188514
0.00187741
0.00191514
0.00201746
0.00210903
0.00191598
)
;

boundaryField
{
    floor
    {
        type            nutkWallFunction;
        Cmu             0.09;
        kappa           0.41;
        E               9.8;
        value           nonuniform List<scalar> 
29
(
0.000108112
6.67556e-05
8.51613e-05
8.6299e-05
9.32055e-05
9.1367e-05
8.74266e-05
8.0318e-05
7.31087e-05
6.68013e-05
6.14265e-05
5.68315e-05
5.28681e-05
4.93913e-05
4.63354e-05
4.35258e-05
4.07806e-05
3.8338e-05
3.66622e-05
4.48904e-05
4.48903e-05
6.10628e-05
7.14496e-05
8.14784e-05
0.000108112
6.67556e-05
0.000108771
0.000122907
0.000149307
)
;
    }
    ceiling
    {
        type            nutkWallFunction;
        Cmu             0.09;
        kappa           0.41;
        E               9.8;
        value           nonuniform List<scalar> 
43
(
0.000163902
0.000176314
0.000189666
0.000217594
0.000231461
0.000240563
0.000248342
0.000251428
0.000248624
0.000242584
0.000235381
0.000228399
0.000223567
0.000220816
0.000219533
0.000219184
0.000219301
0.000219507
0.000219561
0.00021938
0.000218998
0.000218511
0.000218025
0.000217625
0.000217374
0.000217316
0.000217481
0.000217894
0.000218569
0.000219499
0.000220627
0.000221781
0.00022257
0.000222354
0.000220925
0.000220077
0.000224214
0.000235389
0.00024534
0.000224308
0.000287912
0.000339559
0.000163139
)
;
    }
    sWall
    {
        type            nutkWallFunction;
        Cmu             0.09;
        kappa           0.41;
        E               9.8;
        value           uniform 0.000163939;
    }
    nWall
    {
        type            nutkWallFunction;
        Cmu             0.09;
        kappa           0.41;
        E               9.8;
        value           nonuniform List<scalar> 6(0.0001447 0.00019097 0.000251362 0.000316834 0.000268034 0.000224302);
    }
    sideWalls
    {
        type            empty;
    }
    glass1
    {
        type            nutkWallFunction;
        Cmu             0.09;
        kappa           0.41;
        E               9.8;
        value           nonuniform List<scalar> 9(0.000122537 0.000156203 0.000183361 0.000208715 0.000234414 0.000261988 0.000287429 0.000293633 0.000288161);
    }
    glass2
    {
        type            nutkWallFunction;
        Cmu             0.09;
        kappa           0.41;
        E               9.8;
        value           nonuniform List<scalar> 2(0.000334004 0.000369589);
    }
    sun
    {
        type            nutkWallFunction;
        Cmu             0.09;
        kappa           0.41;
        E               9.8;
        value           nonuniform List<scalar> 
14
(
0.000122479
0.000135038
0.000140095
0.000147384
0.000154286
0.000161198
0.000168152
0.00017366
0.000176924
0.000177109
0.000173392
0.000163709
0.000146328
0.000125032
)
;
    }
    heatsource1
    {
        type            nutkWallFunction;
        Cmu             0.09;
        kappa           0.41;
        E               9.8;
        value           nonuniform List<scalar> 3(8.42132e-05 9.86484e-05 0.000144713);
    }
    heatsource2
    {
        type            nutkWallFunction;
        Cmu             0.09;
        kappa           0.41;
        E               9.8;
        value           nonuniform List<scalar> 4(0.000135493 0.000107419 0.000107419 0.000132837);
    }
    Table_master
    {
        type            nutkWallFunction;
        Cmu             0.09;
        kappa           0.41;
        E               9.8;
        value           nonuniform List<scalar> 9(0.0001135 9.66012e-05 8.30272e-05 7.2202e-05 6.35258e-05 5.65208e-05 5.08401e-05 4.64166e-05 4.3292e-05);
    }
    Table_slave
    {
        type            nutkWallFunction;
        Cmu             0.09;
        kappa           0.41;
        E               9.8;
        value           nonuniform List<scalar> 9(0.000126823 0.00011472 0.000105295 9.7703e-05 9.10878e-05 8.49196e-05 7.88288e-05 7.24921e-05 6.54118e-05);
    }
    inlet
    {
        type            calculated;
        value           uniform 0.000100623;
    }
    outlet
    {
        type            calculated;
        value           nonuniform List<scalar> 2(0.00137416 0.00148402);
    }
}


// ************************************************************************* //
