// -*- C++ -*-
// File generated by PyFoam - sorry for the ugliness

FoamFile
{
 version 2.0;
 format ascii;
 class volVectorField;
 location "1700";
 object U;
}

dimensions [ 0 1 -1 0 0 0 0 ];

internalField nonuniform List<vector> 459
(
  (0.0259321 0.0868924 0)
  (-0.169337 0.0275623 0)
  (-0.197457 0.0181654 0)
  (-0.228679 0.0114944 0)
  (-0.24994 0.0043941 0)
  (-0.260132 -0.00301671 0)
  (-0.257537 -0.0107557 0)
  (-0.241954 -0.0187131 0)
  (-0.21467 -0.0258139 0)
  (-0.178558 -0.030807 0)
  (-0.137747 -0.0329506 0)
  (-0.0965628 -0.0319626 0)
  (-0.0589945 -0.0278682 0)
  (-0.0294105 -0.0212542 0)
  (-0.0192691 -0.0139947 0)
  (-0.0133421 0.00953239 0)
  (-0.0286172 -0.0154938 0)
  (-0.00703015 -0.02682 0)
  (0.0175478 -0.0219463 0)
  (0.0347397 -0.0156058 0)
  (0.0491817 -0.0104416 0)
  (0.0585734 -0.00624138 0)
  (0.0637089 -0.00399139 0)
  (0.0662158 -0.00306192 0)
  (0.0675959 -0.00262892 0)
  (0.0685393 -0.00233428 0)
  (0.0691627 -0.0020798 0)
  (0.069386 -0.00178458 0)
  (0.0689706 -0.0012464 0)
  (0.0672907 -5.83642e-05 0)
  (0.0630215 0.00237235 0)
  (0.0546317 0.00532164 0)
  (0.0435882 0.00865321 0)
  (-0.00110234 0.021556 0)
  (0.193967 0.177114 0)
  (-0.154481 0.0718829 0)
  (-0.157186 0.0543123 0)
  (-0.188812 0.0404688 0)
  (-0.209649 0.0250523 0)
  (-0.219985 0.00795503 0)
  (-0.217913 -0.0108688 0)
  (-0.203381 -0.029954 0)
  (-0.178323 -0.0462376 0)
  (-0.146035 -0.0570248 0)
  (-0.110491 -0.0612462 0)
  (-0.0753824 -0.0589552 0)
  (-0.0438725 -0.050703 0)
  (-0.018461 -0.0375751 0)
  (-0.00272105 -0.02285 0)
  (0.00960098 -0.00586371 0)
  (0.00477403 0.0184273 0)
  (0.039652 0.0371751 0)
  (0.0256186 -0.020989 0)
  (0.0355634 -0.0339219 0)
  (0.0473986 -0.0307179 0)
  (0.0574544 -0.0227711 0)
  (0.0650873 -0.014783 0)
  (0.0685072 -0.00666739 0)
  (0.0692824 -0.00198258 0)
  (0.0693039 -5.41089e-05 0)
  (0.0694659 0.00079033 0)
  (0.0697213 0.0013132 0)
  (0.0699066 0.00175795 0)
  (0.0699882 0.00234868 0)
  (0.0698866 0.0034315 0)
  (0.0690598 0.00597563 0)
  (0.0650167 0.0127366 0)
  (0.0548935 0.0191973 0)
  (0.0448179 0.0251633 0)
  (-0.0298983 0.0460448 0)
  (0.348721 0.264226 0)
  (-0.166579 0.112692 0)
  (-0.116835 0.0867582 0)
  (-0.146579 0.0628718 0)
  (-0.16476 0.0376664 0)
  (-0.173757 0.00996847 0)
  (-0.170294 -0.0203628 0)
  (-0.154792 -0.0504092 0)
  (-0.130437 -0.0748411 0)
  (-0.101332 -0.0896713 0)
  (-0.0710167 -0.0941997 0)
  (-0.0421559 -0.0892591 0)
  (-0.0168653 -0.0762111 0)
  (0.00435453 -0.0561753 0)
  (0.0187231 -0.0330223 0)
  (0.0279475 -0.00711815 0)
  (0.0295561 0.0316902 0)
  (0.0998662 -0.0257163 0)
  (0.0761129 -0.0401078 0)
  (0.0736724 -0.0422246 0)
  (0.0758793 -0.0369425 0)
  (0.0777622 -0.0284744 0)
  (0.0794958 -0.0209043 0)
  (0.0778428 -0.0165421 0)
  (0.072089 -0.0113955 0)
  (0.0678241 -0.00856609 0)
  (0.0657515 -0.00693273 0)
  (0.0647167 -0.00587516 0)
  (0.064073 -0.00513484 0)
  (0.0638083 -0.00449008 0)
  (0.0644716 -0.00347543 0)
  (0.0673792 4.57799e-06 0)
  (0.0656734 0.0177894 0)
  (0.0530923 0.0313426 0)
  (0.0479952 0.0427783 0)
  (-0.055632 0.0723329 0)
  (0.489327 0.333821 0)
  (-0.196962 0.147789 0)
  (-0.0752676 0.11381 0)
  (-0.102112 0.0815201 0)
  (-0.114628 0.0487594 0)
  (-0.11921 0.0116063 0)
  (-0.110013 -0.03047 0)
  (-0.0915084 -0.0710863 0)
  (-0.0678999 -0.101938 0)
  (-0.043631 -0.118668 0)
  (-0.0206146 -0.122219 0)
  (0.000197016 -0.114207 0)
  (0.0177505 -0.0969208 0)
  (0.0324935 -0.0736747 0)
  (0.0455928 -0.0468861 0)
  (0.0605276 -0.0181481 0)
  (0.0817659 0.0146535 0)
  (0.115081 0.0148436 0)
  (0.119333 -0.023545 0)
  (0.105311 -0.0361056 0)
  (0.0947945 -0.036794 0)
  (0.0879745 -0.032626 0)
  (0.0828052 -0.0257765 0)
  (0.0790616 -0.017049 0)
  (0.0793804 -0.0097544 0)
  (0.0835418 -0.0067246 0)
  (0.0864911 -0.00502393 0)
  (0.0875555 -0.00387719 0)
  (0.0872913 -0.0027681 0)
  (0.0856066 -0.00142459 0)
  (0.0818422 0.000373621 0)
  (0.0748175 0.00299341 0)
  (0.0616628 0.00702339 0)
  (0.0511198 0.0276281 0)
  (0.0418787 0.0456423 0)
  (0.0497606 0.0619024 0)
  (-0.0793715 0.096793 0)
  (0.611453 0.387174 0)
  (-0.236226 0.175519 0)
  (-0.0351735 0.12874 0)
  (-0.0562941 0.0916926 0)
  (-0.060538 0.0543745 0)
  (-0.0561625 0.00919779 0)
  (-0.0338812 -0.0450854 0)
  (-0.0123353 -0.0924137 0)
  (0.00808656 -0.125128 0)
  (0.0240146 -0.139418 0)
  (0.0365597 -0.139603 0)
  (0.0460111 -0.128675 0)
  (0.0531525 -0.109485 0)
  (0.059226 -0.0850732 0)
  (0.0655386 -0.0584712 0)
  (0.0741534 -0.0330679 0)
  (0.0877958 -0.0155248 0)
  (0.0989873 -0.0187077 0)
  (0.0995196 -0.0283026 0)
  (0.0919959 -0.0308693 0)
  (0.0824153 -0.0289809 0)
  (0.074036 -0.0251047 0)
  (0.0672562 -0.0198479 0)
  (0.0624813 -0.0134018 0)
  (0.0606505 -0.0061872 0)
  (0.0614033 -0.00235108 0)
  (0.0623456 -0.000729201 0)
  (0.062979 0.000358426 0)
  (0.0634586 0.00188216 0)
  (0.0633602 0.00426518 0)
  (0.0621183 0.00780728 0)
  (0.0591819 0.0129163 0)
  (0.0537316 0.0204341 0)
  (0.0476776 0.0357501 0)
  (0.0405696 0.0549355 0)
  (0.058238 0.0768982 0)
  (-0.00567375 0.108846 0)
  (0.0458584 0.0413213 0)
  (-0.0588796 -0.0339527 0)
  (-0.261543 -0.0553686 0)
  (0.700928 0.431007 0)
  (-0.275422 0.193083 0)
  (-0.00463407 0.123197 0)
  (-0.00828259 0.0899822 0)
  (0.000724381 0.0493039 0)
  (0.029438 -0.00809675 0)
  (0.0579813 -0.0672483 0)
  (0.0780506 -0.11124 0)
  (0.0899425 -0.137777 0)
  (0.094771 -0.147937 0)
  (0.0944936 -0.14463 0)
  (0.0907011 -0.131033 0)
  (0.0850898 -0.110449 0)
  (0.0794291 -0.0860997 0)
  (0.0751942 -0.0609107 0)
  (0.0736812 -0.0381644 0)
  (0.0754406 -0.0221024 0)
  (0.0764774 -0.0177355 0)
  (0.0727473 -0.0194845 0)
  (0.0648375 -0.0207867 0)
  (0.0556989 -0.0198357 0)
  (0.0475346 -0.0173241 0)
  (0.0410137 -0.0137901 0)
  (0.0365429 -0.00951678 0)
  (0.0344788 -0.00527474 0)
  (0.03451 -0.00309757 0)
  (0.0355183 -0.00232154 0)
  (0.0370331 -0.00167407 0)
  (0.0389843 -0.000169669 0)
  (0.0411778 0.00280915 0)
  (0.042847 0.00749512 0)
  (0.0438489 0.0141252 0)
  (0.044135 0.0232803 0)
  (0.0449311 0.0370783 0)
  (0.0454135 0.055315 0)
  (0.0658518 0.078735 0)
  (0.0529429 0.100119 0)
  (0.0887423 0.071198 0)
  (0.111223 0.0453684 0)
  (-0.12548 -0.00695906 0)
  (0.758454 0.470784 0)
  (-0.294259 0.176738 0)
  (0.0260818 0.0681922 0)
  (0.0573195 0.0548315 0)
  (0.0867116 0.0198477 0)
  (0.132306 -0.0412058 0)
  (0.160675 -0.0914719 0)
  (0.173584 -0.124492 0)
  (0.173282 -0.141111 0)
  (0.162946 -0.143677 0)
  (0.146116 -0.135193 0)
  (0.125934 -0.118762 0)
  (0.105104 -0.0975896 0)
  (0.0858901 -0.0745219 0)
  (0.0697694 -0.0517975 0)
  (0.0577159 -0.0321833 0)
  (0.0497337 -0.0185302 0)
  (0.0437067 -0.0127455 0)
  (0.037041 -0.0120268 0)
  (0.0293053 -0.0124088 0)
  (0.0215481 -0.0119596 0)
  (0.0148203 -0.0106452 0)
  (0.00960788 -0.00876165 0)
  (0.00623615 -0.00656613 0)
  (0.0048962 -0.00464281 0)
  (0.00526706 -0.00389418 0)
  (0.00664916 -0.00395301 0)
  (0.00869839 -0.00396602 0)
  (0.0113904 -0.00306715 0)
  (0.0150641 -0.000371678 0)
  (0.0197013 0.00459168 0)
  (0.0242848 0.0114051 0)
  (0.0292992 0.0202629 0)
  (0.0360981 0.0321128 0)
  (0.0441253 0.0468104 0)
  (0.0650914 0.0656321 0)
  (0.0795647 0.0765953 0)
  (0.110344 0.0558896 0)
  (0.149658 0.0452176 0)
  (-0.040406 0.0901998 0)
  (0.864006 0.469098 0)
  (-0.0541065 0.153439 0)
  (0.116481 -0.0201061 0)
  (0.201344 -0.0607152 0)
  (0.249595 -0.0808891 0)
  (0.274634 -0.101989 0)
  (0.281945 -0.119194 0)
  (0.272057 -0.128269 0)
  (0.247896 -0.128541 0)
  (0.214235 -0.121051 0)
  (0.175949 -0.107446 0)
  (0.137057 -0.0895787 0)
  (0.100648 -0.0697882 0)
  (0.0689296 -0.0501085 0)
  (0.0428435 -0.0317754 0)
  (0.0236274 -0.0171647 0)
  (0.0108124 -0.0081267 0)
  (0.00251164 -0.00470416 0)
  (-0.00406155 -0.00466495 0)
  (-0.0100129 -0.0054637 0)
  (-0.015471 -0.00587682 0)
  (-0.0200593 -0.00580888 0)
  (-0.0235283 -0.00544668 0)
  (-0.0257009 -0.00501319 0)
  (-0.0265505 -0.00484127 0)
  (-0.0263927 -0.00524392 0)
  (-0.0256892 -0.0060421 0)
  (-0.0246538 -0.00680847 0)
  (-0.0231984 -0.0070398 0)
  (-0.0209124 -0.00612091 0)
  (-0.0166888 -0.00335119 0)
  (-0.0098398 0.00145029 0)
  (-0.00307716 0.00754151 0)
  (0.00694522 0.0147231 0)
  (0.0184187 0.0217335 0)
  (0.0381031 0.0294877 0)
  (0.0585481 0.0251212 0)
  (0.0803437 -0.00125298 0)
  (0.139773 0.0375783 0)
  (-0.387704 0.19343 0)
  (1.01202 0.421009 0)
  (0.480913 0.278184 0)
  (0.49798 0.176095 0)
  (0.529683 0.0950727 0)
  (0.506328 0.0342032 0)
  (0.456751 -0.0145929 0)
  (0.400721 -0.0486228 0)
  (0.340306 -0.0670529 0)
  (0.276583 -0.0721803 0)
  (0.213046 -0.06787 0)
  (0.153199 -0.05765 0)
  (0.0997191 -0.0440015 0)
  (0.0545824 -0.0295271 0)
  (0.0182452 -0.0161953 0)
  (-0.0106636 -0.00507239 0)
  (-0.0270852 0.00035991 0)
  (-0.036327 0.00214983 0)
  (-0.0415945 0.00178357 0)
  (-0.0453023 0.0004181 0)
  (-0.0486244 -0.00104897 0)
  (-0.0518491 -0.00221267 0)
  (-0.0547627 -0.0031233 0)
  (-0.0572011 -0.00390018 0)
  (-0.0591017 -0.00464138 0)
  (-0.0605534 -0.00544817 0)
  (-0.0618884 -0.00637122 0)
  (-0.0635491 -0.0072533 0)
  (-0.0659205 -0.00775898 0)
  (-0.0693354 -0.00739416 0)
  (-0.0741755 -0.0055049 0)
  (-0.0810724 -0.00134596 0)
  (-0.0890916 0.00513513 0)
  (-0.0984764 0.014067 0)
  (-0.112298 0.0260007 0)
  (-0.133464 0.0412677 0)
  (-0.164411 0.0590705 0)
  (-0.208725 0.0759696 0)
  (-0.261848 0.0894885 0)
  (-0.330006 0.0991814 0)
  (-0.587068 0.10415 0)
  (-0.122706 -0.0137676 0)
  (0.108165 -0.0323722 0)
  (0.180723 -0.0613517 0)
  (0.167985 -0.0588314 0)
  (0.146828 -0.0473561 0)
  (0.119327 -0.0353514 0)
  (0.0857121 -0.0239016 0)
  (0.0493191 -0.0130291 0)
  (0.0111866 -0.00315499 0)
  (-0.0234627 0.00464873 0)
  (-0.0468985 0.0090679 0)
  (-0.0627494 0.0116077 0)
  (-0.0715934 0.0122173 0)
  (-0.076332 0.0115473 0)
  (-0.0791864 0.0107043 0)
  (-0.0812289 0.00997037 0)
  (-0.0831547 0.00951817 0)
  (-0.0852064 0.00947649 0)
  (-0.0872861 0.00979653 0)
  (-0.089381 0.0103461 0)
  (-0.091493 0.01097 0)
  (-0.0936657 0.0114927 0)
  (-0.0959634 0.0118873 0)
  (-0.0985316 0.0121423 0)
  (-0.101544 0.0122678 0)
  (-0.105133 0.0123159 0)
  (-0.109316 0.0124472 0)
  (-0.11374 0.0133524 0)
  (-0.117699 0.0156282 0)
  (-0.121369 0.0204678 0)
  (-0.124578 0.0288819 0)
  (-0.127365 0.0415417 0)
  (-0.130009 0.0581446 0)
  (-0.132692 0.0759676 0)
  (-0.132782 0.086262 0)
  (-0.116553 0.0689961 0)
  (-0.0814794 -0.0138313 0)
  (-0.258471 -0.187111 0)
  (0.0602099 0.180789 0)
  (0.0351931 0.0508747 0)
  (0.000311597 -0.0077009 0)
  (-0.0273966 -0.0123255 0)
  (-0.0514587 -0.00629679 0)
  (-0.0722384 -0.00247219 0)
  (-0.0897022 0.000695865 0)
  (-0.10215 0.00310212 0)
  (-0.108637 0.00336523 0)
  (-0.112494 0.00107029 0)
  (-0.113747 -0.00311532 0)
  (-0.113331 -0.00765669 0)
  (-0.111842 -0.0124431 0)
  (-0.110217 -0.0175853 0)
  (-0.109009 -0.0228101 0)
  (-0.10841 -0.0280212 0)
  (-0.10847 -0.0331417 0)
  (-0.109116 -0.0380343 0)
  (-0.11023 -0.0425464 0)
  (-0.111719 -0.0465535 0)
  (-0.113515 -0.049933 0)
  (-0.115577 -0.05251 0)
  (-0.117872 -0.0541578 0)
  (-0.120273 -0.0546295 0)
  (-0.122561 -0.0535694 0)
  (-0.124469 -0.0505943 0)
  (-0.125729 -0.0453744 0)
  (-0.126086 -0.0379639 0)
  (-0.125025 -0.0282789 0)
  (-0.12172 -0.0161968 0)
  (-0.114967 -0.00144305 0)
  (-0.103509 0.0163812 0)
  (-0.0865337 0.0368354 0)
  (-0.0643967 0.0566427 0)
  (-0.0395761 0.0688243 0)
  (-0.00142984 0.053885 0)
  (0.142561 -0.0163494 0)
  (-0.193354 -0.097889 0)
  (0.922356 0.0520183 0)
  (-0.41708 -0.471886 0)
  (-0.333807 0.0500225 0)
  (-0.26584 -0.00622888 0)
  (-0.229327 -0.00283103 0)
  (-0.223746 0.00941118 0)
  (-0.220791 0.0191219 0)
  (-0.21647 0.027498 0)
  (-0.20966 0.0358001 0)
  (-0.200201 0.0443 0)
  (-0.188686 0.0527362 0)
  (-0.176539 0.060876 0)
  (-0.165008 0.068748 0)
  (-0.154821 0.0765555 0)
  (-0.146175 0.0843141 0)
  (-0.139063 0.0921044 0)
  (-0.133301 0.099944 0)
  (-0.128662 0.107719 0)
  (-0.124953 0.115249 0)
  (-0.121996 0.122326 0)
  (-0.119634 0.128774 0)
  (-0.117728 0.134455 0)
  (-0.116163 0.139225 0)
  (-0.114846 0.142881 0)
  (-0.113723 0.145195 0)
  (-0.112765 0.145822 0)
  (-0.111932 0.144395 0)
  (-0.111095 0.140697 0)
  (-0.109959 0.134825 0)
  (-0.107993 0.127438 0)
  (-0.104286 0.119415 0)
  (-0.0972845 0.111854 0)
  (-0.0848323 0.10602 0)
  (-0.0650541 0.103246 0)
  (-0.0377398 0.104545 0)
  (0.00123343 0.108971 0)
  (0.0431027 0.110023 0)
  (0.0802914 0.101479 0)
  (0.156492 0.0827184 0)
  (-0.267477 0.0457858 0)
)
;

boundaryField
{
  floor
  {
    type noSlip;
  }
  ceiling
  {
    type noSlip;
  }
  sWall
  {
    type noSlip;
  }
  nWall
  {
    type noSlip;
  }
  sideWalls
  {
    type empty;
  }
  glass1
  {
    type noSlip;
  }
  glass2
  {
    type noSlip;
  }
  sun
  {
    type noSlip;
  }
  heatsource1
  {
    type noSlip;
  }
  heatsource2
  {
    type noSlip;
  }
  Table_master
  {
    type noSlip;
  }
  Table_slave
  {
    type noSlip;
  }
  inlet
  {
    type fixedValue;
    value uniform (0.277164 -0.114805 0);
  }
  outlet
  {
    type zeroGradient;
  }
} 	// ************************************************************************* //

