/*--------------------------------*- C++ -*----------------------------------*\
  =========                 |
  \\      /  F ield         | OpenFOAM: The Open Source CFD Toolbox
   \\    /   O peration     | Website:  https://openfoam.org
    \\  /    A nd           | Version:  6
     \\/     M anipulation  |
\*---------------------------------------------------------------------------*/
FoamFile
{
    version     2.0;
    format      ascii;
    class       volScalarField;
    location    "200";
    object      epsilon;
}
// * * * * * * * * * * * * * * * * * * * * * * * * * * * * * * * * * * * * * //

dimensions      [0 2 -3 0 0 0 0];

internalField   nonuniform List<scalar> 
459
(
0.000136548
0.000151294
0.000134178
0.000150138
0.000166458
0.000182166
0.000197335
0.000212325
0.000227743
0.000244135
0.00025814
0.000268256
0.000273287
0.000273035
0.000266108
5.00588e-05
8.8738e-05
9.68675e-05
0.000107312
0.000115283
0.000103407
8.16701e-05
6.44069e-05
5.17378e-05
4.19572e-05
3.4191e-05
2.79493e-05
2.29083e-05
1.88261e-05
1.54979e-05
1.27465e-05
1.0479e-05
1.03169e-05
8.57703e-06
0.000578007
0.00133123
0.00014456
0.000114814
0.00011707
0.000121764
0.00012796
0.000136683
0.000149098
0.000166003
0.000185227
0.000205163
0.000223072
0.00023599
0.000250355
0.00032312
9.99913e-05
0.000111299
0.000157656
9.27344e-05
8.45843e-05
8.08369e-05
7.59808e-05
6.55493e-05
4.85041e-05
3.84784e-05
3.09173e-05
2.47337e-05
1.97322e-05
1.57451e-05
1.26008e-05
1.01802e-05
8.65024e-06
8.75007e-06
4.65422e-05
2.5009e-05
0.00140719
0.00440999
0.000286693
0.00012198
0.000116133
0.000121172
0.000129143
0.000140334
0.000155166
0.000173587
0.000193601
0.000212443
0.000227988
0.000240751
0.000257678
0.000298248
0.000404368
0.000227492
0.000225434
0.000120276
9.22337e-05
7.88688e-05
7.83109e-05
0.000104952
4.92096e-05
2.9828e-05
2.20803e-05
1.78094e-05
1.48273e-05
1.25538e-05
1.08166e-05
9.72383e-06
9.8743e-06
1.33486e-05
0.000139186
5.18401e-05
0.00277625
0.0100564
0.000660839
0.000145706
0.000123551
0.00013058
0.000141629
0.000155849
0.00017367
0.000195328
0.000218271
0.00023679
0.00024875
0.000257263
0.00027101
0.000306439
0.000392565
0.000549806
0.000313492
0.000171394
0.000117606
8.83545e-05
7.61251e-05
8.51972e-05
0.000149112
0.000125789
0.000119879
0.000118502
0.000117594
0.000113909
0.000104911
9.25175e-05
8.00682e-05
5.65929e-05
4.57987e-05
0.000332981
7.79365e-05
0.0047628
0.0180666
0.00152652
0.000198585
0.000133267
0.00014117
0.000157775
0.000179715
0.000207445
0.000241015
0.000275499
0.000298564
0.000307408
0.000306029
0.000299338
0.000290967
0.000283101
0.000261085
0.000186796
0.000128054
9.83702e-05
8.68157e-05
8.23913e-05
8.94638e-05
9.18505e-05
8.47796e-05
8.40492e-05
8.65015e-05
8.89777e-05
8.83689e-05
8.22698e-05
7.19168e-05
6.40656e-05
5.66014e-05
5.16466e-05
0.000173658
0.000132043
0.000129297
0.000200077
0.000288395
0.00745225
0.0259383
0.00347546
0.00039003
0.000171502
0.000161936
0.00017924
0.000209166
0.000252406
0.000312449
0.000368504
0.000396155
0.000398826
0.000386782
0.000366018
0.000335221
0.000288457
0.000225456
0.00016016
0.000115252
9.77071e-05
9.46856e-05
9.27284e-05
0.000103442
9.82522e-05
9.25904e-05
9.52449e-05
0.000103211
0.000112758
0.000119528
0.000118156
0.000102945
8.30658e-05
6.72819e-05
5.93162e-05
0.000102236
0.000115078
0.000113087
0.000380594
0.000347429
0.0108985
0.0299332
0.0079887
0.00166828
0.000570158
0.000338512
0.000292838
0.000305237
0.000351772
0.00045626
0.000522997
0.000533676
0.000511525
0.000475506
0.000433953
0.000385148
0.000322201
0.000246824
0.000176134
0.00013137
0.000116398
0.000112515
0.000105548
0.000124437
0.000119117
0.000113226
0.000117015
0.000130158
0.000148744
0.000168824
0.000184069
0.000183822
0.000150429
0.000120185
0.000106986
0.000128489
0.000174048
0.000277564
0.000608272
0.000572552
0.0119022
0.0376428
0.017807
0.00957284
0.00468811
0.00224194
0.00127501
0.000931404
0.000833916
0.000836722
0.000793148
0.000721413
0.00064168
0.000564668
0.000493424
0.000425223
0.000353603
0.000277058
0.000207638
0.000165753
0.000153214
0.000142719
0.000122244
0.000154667
0.000155752
0.000150297
0.000153987
0.000169833
0.000196719
0.000234035
0.000280591
0.00033209
0.000370849
0.000372544
0.000450743
0.000723034
0.00140964
0.00262181
0.00717119
0.00176204
0.0110964
0.0194917
0.0154692
0.0113823
0.00798829
0.0053463
0.00356846
0.00248139
0.00185313
0.00142641
0.00112789
0.000913713
0.000754671
0.000631503
0.00053173
0.000447086
0.000371797
0.000303867
0.000248629
0.000218031
0.000212674
0.000189286
0.000144392
0.000196165
0.000214601
0.000211163
0.000209676
0.000221933
0.000249391
0.000295449
0.000365962
0.000467699
0.000607559
0.000794362
0.00106209
0.00142965
0.0018239
0.0021266
0.00235483
0.00135101
0.00630393
0.00816224
0.00649125
0.00483585
0.00353539
0.00260308
0.00196215
0.00151564
0.00119746
0.000965091
0.000789913
0.000653311
0.000543905
0.000455243
0.000384032
0.000329319
0.000293966
0.000288523
0.000305438
0.00025431
0.000172732
0.000249576
0.000311588
0.000320614
0.000308608
0.000307664
0.000318666
0.000343543
0.000389215
0.000466433
0.00058505
0.000748343
0.000953164
0.0011717
0.00132352
0.00131401
0.00109217
0.000717753
0.00456018
0.00729426
0.00580637
0.00432255
0.00326307
0.00247357
0.00188823
0.00145681
0.00113696
0.000895944
0.000712617
0.000572531
0.000466107
0.000387414
0.000333391
0.000303285
0.000298688
0.000321785
0.000350907
0.000313231
0.000207352
0.000311597
0.000406198
0.000419669
0.000407303
0.000393377
0.000388828
0.00040036
0.000434918
0.000501621
0.000608923
0.000759686
0.00094593
0.00115447
0.00131238
0.00141069
0.000947269
0.000750813
0.00306759
0.00355577
0.00401592
0.00476723
0.00404235
0.00310712
0.002487
0.0020072
0.00162324
0.0013155
0.00107268
0.000888248
0.000739891
0.000616964
0.000514144
0.000428765
0.000359503
0.000305704
0.000267209
0.00024463
0.000235887
0.000220129
0.000201244
0.000241804
0.000271812
0.000280102
0.000284246
0.000293353
0.000310429
0.000338511
0.000382988
0.000447378
0.000533481
0.000645393
0.000782394
0.000982306
0.00103878
0.000960043
0.000774714
0.000605877
)
;

boundaryField
{
    floor
    {
        Cmu             0.09;
        kappa           0.41;
        E               9.8;
        type            epsilonWallFunction;
        value           nonuniform List<scalar> 
29
(
0.000266108
5.00588e-05
8.8738e-05
9.68675e-05
0.000107312
0.000115283
0.000103407
8.16701e-05
6.44069e-05
5.17378e-05
4.19572e-05
3.4191e-05
2.79493e-05
2.29083e-05
1.88261e-05
1.54979e-05
1.27465e-05
1.0479e-05
1.03169e-05
8.57703e-06
8.57703e-06
2.5009e-05
5.18401e-05
7.79365e-05
0.000266108
5.00588e-05
0.000111299
0.000227492
0.000549806
)
;
    }
    ceiling
    {
        Cmu             0.09;
        kappa           0.41;
        E               9.8;
        type            epsilonWallFunction;
        value           nonuniform List<scalar> 
43
(
0.00306759
0.00355577
0.00401592
0.00476723
0.00404235
0.00310712
0.002487
0.0020072
0.00162324
0.0013155
0.00107268
0.000888248
0.000739891
0.000616964
0.000514144
0.000428765
0.000359503
0.000305704
0.000267209
0.00024463
0.000235887
0.000220129
0.000201244
0.000241804
0.000271812
0.000280102
0.000284246
0.000293353
0.000310429
0.000338511
0.000382988
0.000447378
0.000533481
0.000645393
0.000782394
0.000982306
0.00103878
0.000960043
0.000774714
0.000605877
0.0110964
0.0194917
0.00456018
)
;
    }
    sWall
    {
        Cmu             0.09;
        kappa           0.41;
        E               9.8;
        type            epsilonWallFunction;
        value           uniform 0.00306759;
    }
    nWall
    {
        Cmu             0.09;
        kappa           0.41;
        E               9.8;
        type            epsilonWallFunction;
        value           nonuniform List<scalar> 6(0.000288395 0.000347429 0.000572552 0.000717753 0.000750813 0.000605877);
    }
    sideWalls
    {
        type            empty;
    }
    glass1
    {
        Cmu             0.09;
        kappa           0.41;
        E               9.8;
        type            epsilonWallFunction;
        value           nonuniform List<scalar> 9(0.000136548 0.000578007 0.00140719 0.00277625 0.0047628 0.00745225 0.0108985 0.0119022 0.0110964);
    }
    glass2
    {
        Cmu             0.09;
        kappa           0.41;
        E               9.8;
        type            epsilonWallFunction;
        value           nonuniform List<scalar> 2(0.00176204 0.00135101);
    }
    sun
    {
        Cmu             0.09;
        kappa           0.41;
        E               9.8;
        type            epsilonWallFunction;
        value           nonuniform List<scalar> 
14
(
0.000136548
0.000151294
0.000134178
0.000150138
0.000166458
0.000182166
0.000197335
0.000212325
0.000227743
0.000244135
0.00025814
0.000268256
0.000273287
0.000273035
)
;
    }
    heatsource1
    {
        Cmu             0.09;
        kappa           0.41;
        E               9.8;
        type            epsilonWallFunction;
        value           nonuniform List<scalar> 3(0.000129297 0.000200077 0.000288395);
    }
    heatsource2
    {
        Cmu             0.09;
        kappa           0.41;
        E               9.8;
        type            epsilonWallFunction;
        value           nonuniform List<scalar> 4(0.00032312 9.99913e-05 9.99913e-05 0.000404368);
    }
    Table_master
    {
        Cmu             0.09;
        kappa           0.41;
        E               9.8;
        type            epsilonWallFunction;
        value           nonuniform List<scalar> 9(0.000104952 4.92096e-05 2.9828e-05 2.20803e-05 1.78094e-05 1.48273e-05 1.25538e-05 1.08166e-05 9.72383e-06);
    }
    Table_slave
    {
        Cmu             0.09;
        kappa           0.41;
        E               9.8;
        type            epsilonWallFunction;
        value           nonuniform List<scalar> 9(0.000149112 0.000125789 0.000119879 0.000118502 0.000117594 0.000113909 0.000104911 9.25175e-05 8.00682e-05);
    }
    inlet
    {
        type            turbulentMixingLengthDissipationRateInlet;
        mixingLength    0.01;
        phi             phi;
        k               k;
        value           uniform 0.000101881;
    }
    outlet
    {
        type            zeroGradient;
    }
}


// ************************************************************************* //
