/*--------------------------------*- C++ -*----------------------------------*\
  =========                 |
  \\      /  F ield         | OpenFOAM: The Open Source CFD Toolbox
   \\    /   O peration     | Website:  https://openfoam.org
    \\  /    A nd           | Version:  6
     \\/     M anipulation  |
\*---------------------------------------------------------------------------*/
FoamFile
{
    version     2.0;
    format      ascii;
    class       volScalarField;
    location    "1800";
    object      nut;
}
// * * * * * * * * * * * * * * * * * * * * * * * * * * * * * * * * * * * * * //

dimensions      [0 2 -1 0 0 0 0];

internalField   nonuniform List<scalar> 
459
(
0.00254724
0.00241666
0.00230534
0.00221412
0.00213838
0.00207328
0.00201573
0.00196252
0.00191121
0.00185959
0.00180534
0.00174552
0.00167548
0.00158539
0.00146748
0.000173091
0.000177776
0.000181708
0.000178422
0.000173275
0.000166946
0.00015536
0.000146536
0.000140831
0.000144899
0.000155825
0.000173577
0.00019513
0.000206684
0.000204761
0.000204627
0.000199178
0.000191465
0.00017884
0.00289906
0.00307045
0.00303353
0.00293166
0.00287375
0.00285561
0.00286065
0.00284508
0.00280353
0.00273609
0.00264397
0.00252546
0.00236783
0.00212288
0.00178729
0.00138366
0.00115472
0.000281736
0.00047998
0.000635136
0.000727615
0.000703793
0.000436311
0.000217146
0.000192054
0.000210057
0.000265371
0.000348691
0.000460402
0.000576996
0.000647807
0.00064229
0.000706924
0.000593478
0.000461366
0.000269281
0.00314772
0.00337523
0.00306548
0.00276831
0.00265702
0.00266036
0.00272198
0.00279418
0.00284823
0.00286968
0.00284992
0.0027815
0.0026508
0.00241724
0.00210356
0.00181727
0.00115376
0.000414109
0.00127334
0.00129573
0.00120088
0.00104751
0.000834047
0.000247061
0.000201383
0.000223743
0.000248783
0.000275574
0.000305646
0.000340743
0.000384148
0.000444575
0.00110304
0.00110139
0.00116781
0.000452339
0.00335481
0.00363486
0.0028197
0.00230256
0.00228176
0.00245628
0.00266249
0.00280768
0.00288914
0.00292305
0.00292281
0.00288351
0.00278418
0.00257575
0.00227945
0.00199551
0.00127296
0.000623485
0.00154878
0.00162345
0.00139141
0.0011233
0.000874877
0.0006706
0.000520739
0.000531243
0.000542461
0.000553521
0.000564442
0.000577593
0.000595479
0.000621519
0.000661828
0.00160271
0.00157785
0.00145103
0.000654112
0.00355287
0.00378919
0.00238249
0.00197715
0.00267636
0.00331325
0.00365575
0.00361365
0.00333467
0.00311449
0.00299841
0.00292698
0.00282448
0.0025777
0.00227824
0.00198108
0.00147223
0.00204432
0.00260917
0.0026525
0.00257408
0.00252584
0.00252867
0.00258297
0.00266789
0.00275679
0.00277733
0.00273859
0.00267142
0.00258444
0.00248369
0.002374
0.00225694
0.0021283
0.00188127
0.0015992
0.00129481
0.000784054
0.00076911
0.000620203
0.00376356
0.00382912
0.00194828
0.00236451
0.0035372
0.00400516
0.00409305
0.00388315
0.00341835
0.00311907
0.00296927
0.00287081
0.0027322
0.00248419
0.00222379
0.00199827
0.00187081
0.00302305
0.0035545
0.00368646
0.00376356
0.00385369
0.00395427
0.00405365
0.00413402
0.00417472
0.00415795
0.00409943
0.00400821
0.00388605
0.00373167
0.00354188
0.00331226
0.00303733
0.00271409
0.00236089
0.00201659
0.00171021
0.00141574
0.00087634
0.00401118
0.00382367
0.00198323
0.00222256
0.00326928
0.00359902
0.00354442
0.00337083
0.00315029
0.00296856
0.00284594
0.00273988
0.00259395
0.00238575
0.00220548
0.00214098
0.00248234
0.00382657
0.00429677
0.00452257
0.00470725
0.00486142
0.00498264
0.00506537
0.00511206
0.00511532
0.00508212
0.00502181
0.00493899
0.00483524
0.00470939
0.00455699
0.00436902
0.00412894
0.00381
0.00338176
0.00285457
0.00236109
0.00198547
0.0011534
0.00435456
0.00428123
0.00288185
0.00167856
0.00263744
0.00303778
0.00303764
0.00294426
0.00287492
0.00279554
0.00271718
0.00262785
0.0025042
0.0023533
0.00226855
0.00240064
0.00316619
0.00439499
0.00492598
0.00529546
0.00556201
0.00574228
0.00584671
0.00588222
0.00587165
0.00582886
0.00576401
0.00568366
0.00559139
0.00548895
0.00537689
0.00525495
0.00512172
0.00497261
0.0047935
0.00454191
0.00411394
0.00347003
0.00302135
0.00130446
0.00491271
0.0057136
0.00633441
0.00262685
0.00249251
0.00299888
0.00298088
0.00289332
0.00280591
0.00275573
0.00270736
0.00264395
0.00255264
0.00245029
0.00243666
0.00271909
0.00369609
0.00478592
0.00552022
0.00602223
0.00634198
0.00652649
0.00659083
0.00657131
0.00650194
0.00640658
0.00629973
0.00618883
0.00607656
0.00596267
0.00584533
0.00572231
0.00559166
0.00545203
0.00530218
0.005136
0.00492456
0.00459216
0.00409853
0.00142423
0.0104659
0.00442223
0.00332265
0.0036829
0.00359517
0.00348068
0.00329837
0.00313857
0.00305126
0.00298519
0.00290944
0.00283359
0.00286493
0.00328175
0.00421306
0.00516669
0.00605402
0.00665548
0.00705397
0.00726228
0.00731147
0.00725319
0.00713619
0.00699634
0.00685549
0.00672396
0.00660382
0.00649195
0.00638245
0.00626851
0.0061437
0.00600256
0.00584048
0.0056516
0.0054185
0.00508088
0.00434909
0.00157064
0.00465068
0.00336597
0.00446317
0.00447378
0.00437385
0.00407942
0.00372104
0.00334918
0.0031493
0.00305422
0.00299506
0.00294638
0.00295193
0.00326315
0.00397759
0.00490405
0.00591435
0.0068104
0.00739084
0.00764945
0.00767101
0.00755902
0.00739598
0.00723388
0.00709839
0.00699654
0.00692366
0.00686899
0.00681964
0.00676308
0.00668815
0.00658473
0.00644229
0.00624739
0.0059797
0.00559638
0.00502968
0.00179673
0.000844052
0.000982864
0.00262979
0.00214651
0.00142026
0.00131832
0.0012855
0.00126531
0.00126012
0.00126611
0.00126818
0.00127271
0.00127807
0.00127986
0.00126839
0.00126575
0.00128388
0.00132419
0.00138165
0.00145964
0.00154877
0.0016248
0.00167623
0.00170267
0.00170943
0.00170327
0.00169022
0.00167481
0.00165988
0.00164677
0.00163562
0.00162576
0.00161605
0.00160508
0.0015912
0.00157223
0.00154498
0.00150538
0.00146438
0.00129209
)
;

boundaryField
{
    floor
    {
        type            nutkWallFunction;
        Cmu             0.09;
        kappa           0.41;
        E               9.8;
        value           nonuniform List<scalar> 
29
(
0.000174651
1.54323e-05
1.61203e-05
1.66958e-05
1.6214e-05
1.54588e-05
1.45252e-05
1.2803e-05
1.148e-05
1.06185e-05
1.12332e-05
1.28726e-05
1.55022e-05
1.8645e-05
2.03101e-05
2.00344e-05
2.00153e-05
1.9231e-05
1.81159e-05
1.62765e-05
1.62764e-05
2.91154e-05
5.35404e-05
7.90561e-05
0.000174651
1.54322e-05
3.08398e-05
4.85731e-05
7.52609e-05
)
;
    }
    ceiling
    {
        type            nutkWallFunction;
        Cmu             0.09;
        kappa           0.41;
        E               9.8;
        value           nonuniform List<scalar> 
43
(
0.000102256
0.000118806
0.000301656
0.000249733
0.000169266
0.00015767
0.000153918
0.000151604
0.00015101
0.000151698
0.000151935
0.000152455
0.00015307
0.000153274
0.000151957
0.000151649
0.000153724
0.000158332
0.000164874
0.000173706
0.000183737
0.000192243
0.000197971
0.000200909
0.000201658
0.000200972
0.000199521
0.000197807
0.000196145
0.000194683
0.000193439
0.000192337
0.000191252
0.000190025
0.000188472
0.000186347
0.00018329
0.000178838
0.000174217
0.000154643
0.000535351
0.00061451
0.000509266
)
;
    }
    sWall
    {
        type            nutkWallFunction;
        Cmu             0.09;
        kappa           0.41;
        E               9.8;
        value           uniform 0.000102258;
    }
    nWall
    {
        type            nutkWallFunction;
        Cmu             0.09;
        kappa           0.41;
        E               9.8;
        value           nonuniform List<scalar> 6(7.48466e-05 0.000106068 0.000138688 0.00018618 0.000211314 0.000154651);
    }
    sideWalls
    {
        type            empty;
    }
    glass1
    {
        type            nutkWallFunction;
        Cmu             0.09;
        kappa           0.41;
        E               9.8;
        value           nonuniform List<scalar> 9(0.000292934 0.000330154 0.000356173 0.000377679 0.000398121 0.000419739 0.00044499 0.000479751 0.00053569);
    }
    glass2
    {
        type            nutkWallFunction;
        Cmu             0.09;
        kappa           0.41;
        E               9.8;
        value           nonuniform List<scalar> 2(0.000156084 0.000169707);
    }
    sun
    {
        type            nutkWallFunction;
        Cmu             0.09;
        kappa           0.41;
        E               9.8;
        value           nonuniform List<scalar> 
14
(
0.000292722
0.000278777
0.00026683
0.000256995
0.000248797
0.000241726
0.000235455
0.000229641
0.000224018
0.000218345
0.000212364
0.000205747
0.000197968
0.000187911
)
;
    }
    heatsource1
    {
        type            nutkWallFunction;
        Cmu             0.09;
        kappa           0.41;
        E               9.8;
        value           nonuniform List<scalar> 3(9.49732e-05 9.31579e-05 7.48479e-05);
    }
    heatsource2
    {
        type            nutkWallFunction;
        Cmu             0.09;
        kappa           0.41;
        E               9.8;
        value           nonuniform List<scalar> 4(0.000165163 0.000138885 0.000138885 0.000138774);
    }
    Table_master
    {
        type            nutkWallFunction;
        Cmu             0.09;
        kappa           0.41;
        E               9.8;
        value           nonuniform List<scalar> 9(2.60406e-05 1.95431e-05 2.2737e-05 2.62637e-05 2.99849e-05 3.41053e-05 3.88479e-05 4.46271e-05 5.25374e-05);
    }
    Table_slave
    {
        type            nutkWallFunction;
        Cmu             0.09;
        kappa           0.41;
        E               9.8;
        value           nonuniform List<scalar> 9(6.2316e-05 6.36512e-05 6.50735e-05 6.64724e-05 6.78502e-05 6.95053e-05 7.17493e-05 7.50021e-05 8.00052e-05);
    }
    inlet
    {
        type            calculated;
        value           uniform 0.0104659;
    }
    outlet
    {
        type            calculated;
        value           nonuniform List<scalar> 2(0.000844052 0.000982864);
    }
}


// ************************************************************************* //
