/*--------------------------------*- C++ -*----------------------------------*\
  =========                 |
  \\      /  F ield         | OpenFOAM: The Open Source CFD Toolbox
   \\    /   O peration     | Website:  https://openfoam.org
    \\  /    A nd           | Version:  6
     \\/     M anipulation  |
\*---------------------------------------------------------------------------*/
FoamFile
{
    version     2.0;
    format      ascii;
    class       volVectorField;
    location    "1800";
    object      U;
}
// * * * * * * * * * * * * * * * * * * * * * * * * * * * * * * * * * * * * * //

dimensions      [0 1 -1 0 0 0 0];

internalField   nonuniform List<vector> 
459
(
(0.30359 -0.182079 0)
(0.280329 -0.144203 0)
(0.397522 -0.0944744 0)
(0.484687 -0.06271 0)
(0.524581 -0.0442667 0)
(0.539161 -0.0319256 0)
(0.542977 -0.0223295 0)
(0.537465 -0.0137416 0)
(0.522452 -0.0055544 0)
(0.497236 0.00279689 0)
(0.460966 0.0119387 0)
(0.412131 0.0228341 0)
(0.347621 0.0377894 0)
(0.256977 0.0650046 0)
(0.189476 0.13402 0)
(0.0318923 0.00654437 0)
(-0.0168264 0.000176379 0)
(-0.0106974 -0.00145145 0)
(-0.0112529 -0.00146224 0)
(-0.0118726 -0.00210495 0)
(-0.0102907 -0.00398621 0)
(-0.00514083 -0.00750151 0)
(-0.000120602 -0.00864316 0)
(0.00674128 -0.0053061 0)
(0.0103861 -0.00381037 0)
(0.0129512 -0.00290676 0)
(0.0152692 -0.00240838 0)
(0.0174404 -0.00235804 0)
(0.0194691 -0.00225737 0)
(0.0208212 -0.00186789 0)
(0.0192133 -0.000334755 0)
(0.0164361 -4.38852e-05 0)
(0.0177221 0.00222624 0)
(-0.0278293 0.0063822 0)
(0.35022 -0.329361 0)
(0.205094 -0.226175 0)
(0.308894 -0.119662 0)
(0.3796 -0.0591633 0)
(0.407691 -0.0282389 0)
(0.41874 -0.00821473 0)
(0.424121 0.0087081 0)
(0.422785 0.0235675 0)
(0.412821 0.0373652 0)
(0.393478 0.0512741 0)
(0.364227 0.0663394 0)
(0.324874 0.0836685 0)
(0.276787 0.105075 0)
(0.222497 0.13441 0)
(0.192363 0.183933 0)
(0.160521 0.158508 0)
(0.0562635 0.094905 0)
(0.0456728 0.00110158 0)
(0.0194871 0.00334612 0)
(0.0105161 0.0041217 0)
(0.00559328 0.0043663 0)
(0.000553042 0.00389029 0)
(-0.00769654 -0.000753162 0)
(-0.00542729 -0.0093262 0)
(-0.00783681 -0.0115512 0)
(-0.00171664 -0.00589388 0)
(0.0012551 -0.00381148 0)
(0.00176782 -0.00295828 0)
(0.00134025 -0.00248644 0)
(0.00020799 -0.00184121 0)
(-0.00230028 0.000703948 0)
(-0.00488287 0.00420152 0)
(-0.0059643 0.00778331 0)
(-0.00846062 0.00790761 0)
(-0.0178716 0.00827405 0)
(-0.0415206 0.00451325 0)
(0.362263 -0.484612 0)
(0.0972619 -0.313808 0)
(0.206513 -0.168063 0)
(0.257343 -0.0942255 0)
(0.270758 -0.0582113 0)
(0.278554 -0.0335079 0)
(0.285523 -0.0114273 0)
(0.289699 0.0111573 0)
(0.286745 0.0350041 0)
(0.275886 0.0605276 0)
(0.256553 0.0878654 0)
(0.228742 0.116945 0)
(0.193975 0.147613 0)
(0.152715 0.179335 0)
(0.120758 0.210218 0)
(0.0838616 0.167902 0)
(0.0218526 0.101835 0)
(-0.0099841 -0.00477628 0)
(-0.0109605 0.001446 0)
(-0.00950513 0.0041916 0)
(-0.00737988 0.00478972 0)
(-0.00503667 0.00513078 0)
(-0.00451924 0.00549888 0)
(0.00345666 -0.00640685 0)
(-0.0176995 -0.0127073 0)
(-0.02509 -0.00893956 0)
(-0.0295209 -0.00700589 0)
(-0.032733 -0.00555659 0)
(-0.0351984 -0.004315 0)
(-0.0368413 -0.00323631 0)
(-0.0364394 -0.00226331 0)
(-0.0327562 -0.00153113 0)
(-0.0267256 0.000569457 0)
(-0.0172405 0.00310022 0)
(-0.0163216 0.00226395 0)
(0.0644335 -0.000958894 0)
(0.359148 -0.585573 0)
(0.002091 -0.362205 0)
(0.128125 -0.18705 0)
(0.151663 -0.104331 0)
(0.147353 -0.0661587 0)
(0.153699 -0.0379805 0)
(0.161956 -0.0117669 0)
(0.169514 0.0151173 0)
(0.170868 0.0439717 0)
(0.165495 0.0756236 0)
(0.152733 0.109815 0)
(0.132253 0.145616 0)
(0.104757 0.181497 0)
(0.0680383 0.215584 0)
(0.0360624 0.243665 0)
(0.00218073 0.204781 0)
(-0.0411888 0.111649 0)
(-0.0696968 -0.014599 0)
(-0.0538679 0.00236422 0)
(-0.0554485 0.00404302 0)
(-0.0579901 0.00561214 0)
(-0.061626 0.00626989 0)
(-0.0664628 0.00537918 0)
(-0.0722127 0.00286962 0)
(-0.0776328 0.000138764 0)
(-0.0792455 -0.00163232 0)
(-0.079335 -0.00289841 0)
(-0.0779582 -0.00381084 0)
(-0.0755039 -0.00460016 0)
(-0.0721055 -0.00539266 0)
(-0.0675823 -0.00629763 0)
(-0.0614649 -0.00745468 0)
(-0.0536263 -0.00898313 0)
(-0.0460089 -0.0107505 0)
(-0.0389622 -0.0124828 0)
(-0.0253373 -0.0135693 0)
(0.0582386 -0.0100795 0)
(0.336275 -0.644777 0)
(-0.0665993 -0.392706 0)
(0.0726887 -0.190325 0)
(0.0617359 -0.0992322 0)
(0.0403474 -0.071568 0)
(0.0519159 -0.046883 0)
(0.0615189 -0.0204957 0)
(0.0697088 0.00956996 0)
(0.0713247 0.0441788 0)
(0.0675292 0.0828472 0)
(0.0576163 0.124362 0)
(0.0409749 0.167297 0)
(0.0183673 0.209924 0)
(-0.0143636 0.251528 0)
(-0.0363059 0.273232 0)
(-0.0543311 0.231385 0)
(-0.0683455 0.130674 0)
(-0.0712956 0.0197845 0)
(-0.0743249 0.00677163 0)
(-0.0790577 0.00692852 0)
(-0.0811333 0.00860909 0)
(-0.0818772 0.00963046 0)
(-0.0819043 0.00932551 0)
(-0.081584 0.00751648 0)
(-0.0810721 0.00464338 0)
(-0.0803666 0.00163465 0)
(-0.0794488 -0.000576807 0)
(-0.0781769 -0.00220901 0)
(-0.0765708 -0.00353633 0)
(-0.0746765 -0.00482696 0)
(-0.0724714 -0.00634825 0)
(-0.0698749 -0.00845656 0)
(-0.0670356 -0.0116096 0)
(-0.0646737 -0.015859 0)
(-0.063652 -0.0198148 0)
(-0.062108 -0.0233639 0)
(-0.0538787 -0.0258218 0)
(-0.0351354 -0.0310073 0)
(0.0158952 -0.0307337 0)
(-0.101947 0.015397 0)
(0.285594 -0.66272 0)
(-0.106926 -0.406089 0)
(0.0233272 -0.170753 0)
(-0.0171638 -0.0742663 0)
(-0.0479781 -0.0741986 0)
(-0.0343566 -0.0556277 0)
(-0.0275199 -0.029039 0)
(-0.0215276 0.00470002 0)
(-0.0217041 0.0453432 0)
(-0.0245315 0.0901239 0)
(-0.0316656 0.137852 0)
(-0.0434989 0.186937 0)
(-0.0590541 0.234684 0)
(-0.0778008 0.27482 0)
(-0.0857551 0.286959 0)
(-0.0869142 0.236426 0)
(-0.0816038 0.127418 0)
(-0.0762234 0.0299396 0)
(-0.0806479 0.0118144 0)
(-0.0835061 0.00880115 0)
(-0.083483 0.0084354 0)
(-0.0816206 0.00804022 0)
(-0.0787688 0.00690408 0)
(-0.075674 0.00485147 0)
(-0.0728897 0.00218562 0)
(-0.0705412 -0.000479838 0)
(-0.068694 -0.0026077 0)
(-0.0671073 -0.0042342 0)
(-0.0656505 -0.00554578 0)
(-0.0643041 -0.00674152 0)
(-0.063106 -0.00802989 0)
(-0.0621578 -0.00968635 0)
(-0.0616909 -0.0120589 0)
(-0.0620994 -0.0152942 0)
(-0.0637859 -0.0189305 0)
(-0.0662499 -0.0227445 0)
(-0.0654039 -0.0267805 0)
(-0.0546777 -0.0317777 0)
(-0.0480238 -0.0297798 0)
(-0.130356 -0.00145202 0)
(0.193088 -0.615188 0)
(-0.135327 -0.379048 0)
(-0.0591058 -0.14386 0)
(-0.090069 -0.041073 0)
(-0.139788 -0.0696202 0)
(-0.126953 -0.0591958 0)
(-0.120466 -0.0321399 0)
(-0.114187 0.00495726 0)
(-0.111289 0.0477209 0)
(-0.110032 0.0948518 0)
(-0.110681 0.145308 0)
(-0.113097 0.196947 0)
(-0.116245 0.245576 0)
(-0.118369 0.281466 0)
(-0.111707 0.283548 0)
(-0.0986142 0.223756 0)
(-0.0818655 0.113261 0)
(-0.0728832 0.0334087 0)
(-0.0750858 0.0140006 0)
(-0.0747781 0.00837072 0)
(-0.0720136 0.00588457 0)
(-0.0677192 0.0041149 0)
(-0.06278 0.0024441 0)
(-0.0578656 0.000615809 0)
(-0.0537199 -0.00133171 0)
(-0.0506243 -0.00317931 0)
(-0.0483366 -0.0047581 0)
(-0.0465376 -0.00606673 0)
(-0.0450398 -0.00717474 0)
(-0.043747 -0.00818029 0)
(-0.0426517 -0.00920263 0)
(-0.0418433 -0.0103997 0)
(-0.0415246 -0.0119676 0)
(-0.0420333 -0.0140769 0)
(-0.0439925 -0.0168419 0)
(-0.0480518 -0.0205048 0)
(-0.0517677 -0.0261116 0)
(-0.0469989 -0.0371046 0)
(-0.0471311 -0.0564672 0)
(-0.153574 -0.082454 0)
(0.0505021 -0.482365 0)
(-0.261238 -0.299044 0)
(-0.250823 -0.121946 0)
(-0.188007 0.00124566 0)
(-0.252032 -0.0792385 0)
(-0.221715 -0.0721745 0)
(-0.20778 -0.0417669 0)
(-0.197435 -0.0010053 0)
(-0.18762 0.0444001 0)
(-0.180188 0.09257 0)
(-0.171804 0.14315 0)
(-0.16185 0.194034 0)
(-0.149647 0.240309 0)
(-0.134578 0.271037 0)
(-0.113906 0.265711 0)
(-0.089815 0.201233 0)
(-0.0664187 0.0967734 0)
(-0.0559188 0.0319737 0)
(-0.0555427 0.0123864 0)
(-0.0519572 0.00475471 0)
(-0.0458041 0.000646823 0)
(-0.0389638 -0.00171558 0)
(-0.0327587 -0.00301698 0)
(-0.0277893 -0.0038496 0)
(-0.0239874 -0.00462413 0)
(-0.0212238 -0.00546877 0)
(-0.0192271 -0.00635131 0)
(-0.017736 -0.00721907 0)
(-0.0165579 -0.00804804 0)
(-0.0155655 -0.0088487 0)
(-0.0146892 -0.00965707 0)
(-0.0139141 -0.0105257 0)
(-0.0132752 -0.0115018 0)
(-0.0128737 -0.0126011 0)
(-0.0130738 -0.0138051 0)
(-0.0147031 -0.0149546 0)
(-0.016991 -0.0161642 0)
(-0.0133252 -0.0226872 0)
(-0.016111 -0.051094 0)
(-0.186224 -0.113415 0)
(-0.175114 -0.326374 0)
(-0.607238 -0.271257 0)
(-0.828678 -0.234482 0)
(-0.231546 -0.110288 0)
(-0.341223 -0.125752 0)
(-0.285085 -0.0961248 0)
(-0.265345 -0.0557923 0)
(-0.253289 -0.0131803 0)
(-0.241556 0.0324956 0)
(-0.228395 0.0803775 0)
(-0.210642 0.128723 0)
(-0.187551 0.176044 0)
(-0.159232 0.217966 0)
(-0.127177 0.244356 0)
(-0.0929612 0.236434 0)
(-0.0588849 0.174522 0)
(-0.028445 0.0811679 0)
(-0.0172799 0.0287313 0)
(-0.0162395 0.0105391 0)
(-0.00977761 0.0022887 0)
(-0.00211821 -0.00189208 0)
(0.00410783 -0.00345099 0)
(0.00872856 -0.00365042 0)
(0.012083 -0.00350536 0)
(0.0144117 -0.00347608 0)
(0.0159728 -0.00368021 0)
(0.016993 -0.00408077 0)
(0.0176394 -0.00460431 0)
(0.0180277 -0.00519897 0)
(0.0182403 -0.0058516 0)
(0.0183423 -0.00658333 0)
(0.0183929 -0.00743633 0)
(0.0184587 -0.00845043 0)
(0.0186268 -0.00963522 0)
(0.0189602 -0.0109271 0)
(0.0194337 -0.0119918 0)
(0.0206647 -0.012112 0)
(0.0247357 -0.0134141 0)
(0.0338841 -0.0344457 0)
(-0.114236 -0.107502 0)
(-1.97923 -0.252305 0)
(-0.0736415 -0.242139 0)
(-0.31536 -0.179287 0)
(-0.291266 -0.117099 0)
(-0.287505 -0.0557868 0)
(-0.281466 -0.000489744 0)
(-0.269745 0.0430764 0)
(-0.252537 0.0773641 0)
(-0.227365 0.112717 0)
(-0.192597 0.148562 0)
(-0.149083 0.18133 0)
(-0.100423 0.202782 0)
(-0.0512574 0.196497 0)
(-0.00111028 0.140131 0)
(0.0384147 0.0675164 0)
(0.0502685 0.0326601 0)
(0.0521194 0.0166362 0)
(0.0559675 0.00437232 0)
(0.0578685 -0.00158043 0)
(0.058479 -0.00325111 0)
(0.0585128 -0.00314105 0)
(0.058376 -0.00267924 0)
(0.0581761 -0.00243294 0)
(0.0579018 -0.00251228 0)
(0.0575008 -0.002855 0)
(0.0569191 -0.00338352 0)
(0.0561243 -0.00407054 0)
(0.0551123 -0.00495168 0)
(0.0539053 -0.00611419 0)
(0.0525475 -0.00767777 0)
(0.0511069 -0.00977043 0)
(0.0496863 -0.0124971 0)
(0.0484403 -0.0158873 0)
(0.0475997 -0.0197716 0)
(0.0475775 -0.0237401 0)
(0.0481309 -0.0288029 0)
(0.0506587 -0.0448534 0)
(-0.0069954 -0.098948 0)
(-0.513949 0.0490992 0)
(0.0948228 -0.223636 0)
(-0.194407 -0.187069 0)
(-0.237341 -0.173727 0)
(-0.274486 -0.159801 0)
(-0.293204 -0.13764 0)
(-0.291914 -0.0992022 0)
(-0.27268 -0.0449542 0)
(-0.239414 0.00158927 0)
(-0.192154 0.0433776 0)
(-0.132731 0.080007 0)
(-0.0659283 0.104309 0)
(0.0131436 0.0952916 0)
(0.0804091 0.0342062 0)
(0.123924 -0.0303686 0)
(0.139687 -0.075203 0)
(0.140731 -0.103145 0)
(0.134077 -0.113575 0)
(0.125305 -0.112156 0)
(0.117314 -0.106369 0)
(0.111317 -0.100137 0)
(0.107184 -0.0950649 0)
(0.104276 -0.091523 0)
(0.101953 -0.0893458 0)
(0.0997409 -0.0881932 0)
(0.0973489 -0.0877145 0)
(0.0946304 -0.0876145 0)
(0.091537 -0.0876773 0)
(0.0880719 -0.087769 0)
(0.0842544 -0.0878271 0)
(0.0801005 -0.0878414 0)
(0.0756275 -0.0878302 0)
(0.0708947 -0.0878155 0)
(0.0661019 -0.0877875 0)
(0.061803 -0.0876237 0)
(0.0584354 -0.0872514 0)
(0.0660208 -0.091875 0)
(0.00465136 -0.145373 0)
(0.230284 0.169252 0)
(0.196694 -0.049507 0)
(0.00101413 0.269583 0)
(0.123247 0.202204 0)
(-0.0916868 0.214477 0)
(-0.171859 0.279956 0)
(-0.221771 0.310026 0)
(-0.251101 0.319686 0)
(-0.260594 0.311225 0)
(-0.248809 0.289616 0)
(-0.214449 0.281395 0)
(-0.16068 0.282196 0)
(-0.0929659 0.289632 0)
(-0.00931438 0.299024 0)
(0.0857117 0.292491 0)
(0.152184 0.28529 0)
(0.195773 0.289419 0)
(0.215152 0.299213 0)
(0.218721 0.307616 0)
(0.214631 0.306558 0)
(0.208079 0.296466 0)
(0.20113 0.28375 0)
(0.193991 0.272384 0)
(0.186623 0.264018 0)
(0.179086 0.258898 0)
(0.171483 0.256575 0)
(0.163904 0.256325 0)
(0.1564 0.257385 0)
(0.148979 0.259079 0)
(0.141582 0.260895 0)
(0.134087 0.262505 0)
(0.126295 0.263755 0)
(0.117936 0.264626 0)
(0.108661 0.265192 0)
(0.0980326 0.265592 0)
(0.0854775 0.266027 0)
(0.0702224 0.266707 0)
(0.0519839 0.267869 0)
(0.0550367 0.275993 0)
(-0.130584 0.401718 0)
)
;

boundaryField
{
    floor
    {
        type            noSlip;
    }
    ceiling
    {
        type            noSlip;
    }
    sWall
    {
        type            noSlip;
    }
    nWall
    {
        type            noSlip;
    }
    sideWalls
    {
        type            empty;
    }
    glass1
    {
        type            noSlip;
    }
    glass2
    {
        type            noSlip;
    }
    sun
    {
        type            noSlip;
    }
    heatsource1
    {
        type            noSlip;
    }
    heatsource2
    {
        type            noSlip;
    }
    Table_master
    {
        type            noSlip;
    }
    Table_slave
    {
        type            noSlip;
    }
    inlet
    {
        type            fixedValue;
        value           uniform (0.1 0 0);
    }
    outlet
    {
        type            zeroGradient;
    }
}


// ************************************************************************* //
