/*--------------------------------*- C++ -*----------------------------------*\
  =========                 |
  \\      /  F ield         | OpenFOAM: The Open Source CFD Toolbox
   \\    /   O peration     | Website:  https://openfoam.org
    \\  /    A nd           | Version:  6
     \\/     M anipulation  |
\*---------------------------------------------------------------------------*/
FoamFile
{
    version     2.0;
    format      ascii;
    class       surfaceScalarField;
    location    "600";
    object      phi;
}
// * * * * * * * * * * * * * * * * * * * * * * * * * * * * * * * * * * * * * //

dimensions      [1 0 -1 0 0 0 0];

internalField   nonuniform List<scalar> 
852
(
-0.00290295
0.00295967
-0.00388522
0.000982266
-0.00465633
0.000771115
-0.00528136
0.00062504
-0.00573269
0.000451337
-0.00599053
0.000257839
-0.00603262
4.20936e-05
-0.00583491
-0.000197706
-0.00538813
-0.000446777
-0.00471813
-0.000669987
-0.00388492
-0.000833212
-0.0029673
-0.000917619
-0.00203426
-0.000933031
-0.00109024
-0.000944017
-0.00108882
-0.000605215
0.000607991
-0.000207574
-0.000397635
0.000405258
-0.000612825
0.00084309
-0.000437825
0.00111564
-0.000272542
0.00127421
-0.000158567
0.00135574
-8.15162e-05
0.001396
-4.02569e-05
0.00141798
-2.19706e-05
0.0014301
-1.21155e-05
0.00143531
-5.20019e-06
0.00143437
9.46423e-07
0.00142507
9.31015e-06
0.00139882
2.62586e-05
0.00133337
6.54628e-05
0.0011918
0.00014157
0.000961597
0.000230216
0.000688008
0.000273598
0.000691773
-0.00206916
0.00518138
-0.00303842
0.00195153
-0.00383321
0.00156591
-0.00444487
0.0012367
-0.00488359
0.000890065
-0.00514125
0.0005155
-0.00519456
9.54064e-05
-0.00501787
-0.00037439
-0.00460871
-0.000855939
-0.00400471
-0.00127398
-0.00327401
-0.00156392
-0.00249643
-0.00169519
-0.00175061
-0.00167885
-0.00114615
-0.00154848
-0.000958267
-0.00127669
-0.000253762
-0.000704551
-0.000253808
0.000521289
9.44577e-05
0.000919865
-0.000796204
0.00113148
-0.000824437
0.00131607
-0.000622404
0.00144634
-0.000402803
0.00151333
-0.000225552
0.00151983
-8.80111e-05
0.00152189
-4.23111e-05
0.00152462
-2.46903e-05
0.00152693
-1.44204e-05
0.00152846
-6.72014e-06
0.00152896
4.57623e-07
0.00152743
1.08428e-05
0.00152026
3.34377e-05
0.00147866
0.000107075
0.00130353
0.000316704
0.00100098
0.000532776
0.000621669
0.000652919
0.001323
-0.00145156
0.00686588
-0.00229534
0.00279531
-0.00299686
0.00226744
-0.00351428
0.00175413
-0.00389287
0.00126865
-0.00412402
0.000746654
-0.00417178
0.00014317
-0.00399298
-0.00055318
-0.00359216
-0.00125676
-0.00302631
-0.00183982
-0.00237118
-0.00221905
-0.00170155
-0.00236481
-0.00108241
-0.002298
-0.000581882
-0.002049
-0.000237296
-0.00162127
7.24955e-05
-0.00101434
-0.000181308
0.0014316
-0.00132917
0.00164405
-0.00100865
0.0016318
-0.000812174
0.00163878
-0.000629386
0.00166003
-0.000424046
0.00164777
-0.000213279
0.00155992
0.00151776
0.00149323
0.00147898
0.00147242
0.00147303
0.00148404
0.00151764
0.00162488
0.00134434
0.000597245
0.000999922
0.000877206
0.000556466
0.00109638
0.00189398
-0.00102033
0.00818725
-0.0017006
0.00347558
-0.00215937
0.0027262
-0.00249554
0.00209032
-0.00275018
0.0015233
-0.00290736
0.000903834
-0.00290728
0.0001431
-0.00268654
-0.000773919
-0.00227788
-0.00166542
-0.00176411
-0.00235359
-0.00121916
-0.002764
-0.000699827
-0.00288413
-0.000239406
-0.00275842
0.000147955
-0.00243636
0.000487118
-0.00196043
0.000870722
-0.00139794
0.00155518
-0.000865757
0.00225369
-0.000691042
0.00181912
-0.000894594
0.00172165
-0.000911168
0.00165142
-0.000741943
0.00159529
-0.000573245
0.00158088
-0.000409626
0.0016135
-0.000245891
0.00172397
-0.000110621
0.00180775
-8.3919e-05
0.00188126
-7.36591e-05
0.0019411
-5.99898e-05
0.00197175
-3.07858e-05
0.00195061
2.09873e-05
0.00185275
9.77165e-05
0.00164668
0.000205935
0.00127966
0.000366871
0.0011471
0.000729814
0.000852961
0.00117136
0.000395993
0.00155336
0.00230897
-0.000720908
0.00926674
-0.00125016
0.00400484
-0.00134263
0.00281868
-0.00141503
0.00216272
-0.00147959
0.00158786
-0.00150444
0.000928688
-0.0013751
1.37698e-05
-0.00105769
-0.00109133
-0.000652627
-0.00207048
-0.000240338
-0.00276588
0.00012897
-0.00313331
0.000431673
-0.00318684
0.000665124
-0.00299186
0.000847403
-0.00261863
0.00101752
-0.00213055
0.00122183
-0.00160224
0.00149217
-0.00113609
0.00167325
-0.000872119
0.00158927
-0.000810608
0.0014351
-0.000756993
0.00131996
-0.000626795
0.00123647
-0.000489753
0.00119363
-0.00036678
0.00120309
-0.000255336
0.00127087
-0.000178397
0.00134048
-0.00015352
0.00141344
-0.00014661
0.00148451
-0.000131055
0.00154186
-8.81249e-05
0.00156482
-1.96478e-06
0.00153258
0.000129967
0.00143498
0.000303543
0.0012739
0.000527961
0.00113171
0.000872016
0.000976981
0.0013261
0.000637617
0.00189274
0.000528564
0.00241803
-0.00100018
0.00152855
-0.00146008
0.000459706
-0.00141253
-0.000634331
0.0103081
-0.00101207
0.00438258
-0.000603934
0.00241056
-0.000288503
0.00184729
-7.21684e-05
0.00137153
0.000154718
0.000701808
0.000500515
-0.000332021
0.000891874
-0.00148268
0.0012239
-0.0024025
0.00144951
-0.0029915
0.00156308
-0.00324688
0.00158639
-0.00321015
0.00154533
-0.00295081
0.00146821
-0.00254152
0.00139036
-0.00205269
0.00134121
-0.00155309
0.00132241
-0.00111728
0.00127244
-0.000822149
0.00113582
-0.000673979
0.000957542
-0.000578707
0.000811994
-0.00048124
0.000714163
-0.000391914
0.00066677
-0.000319378
0.000673319
-0.000261878
0.000723632
-0.0002287
0.000793311
-0.000223189
0.000873626
-0.000226915
0.000960381
-0.0002178
0.00104749
-0.000175223
0.00112327
-7.77345e-05
0.00116932
8.39246e-05
0.00118188
0.000290999
0.00117095
0.000538901
0.00118614
0.000856829
0.00127572
0.00123653
0.00145167
0.00171679
0.00188357
0.00198615
0.00213413
0.00127801
0.00174242
0.000851418
0.000387201
-0.00071959
0.0114781
-0.000630586
0.00429358
0.000450807
0.00132917
0.00112721
0.0011709
0.0015979
0.000900847
0.00212697
0.00017275
0.00268118
-0.000886224
0.00305742
-0.00185892
0.00321409
-0.00255917
0.00316873
-0.00294614
0.00296142
-0.00303957
0.00264476
-0.00289349
0.00227115
-0.00257719
0.00188501
-0.00215537
0.00152469
-0.00169238
0.00121491
-0.00124331
0.000960146
-0.000862507
0.000740351
-0.000602347
0.000527037
-0.000460658
0.00033493
-0.000386593
0.000190355
-0.000336656
9.98287e-05
-0.000301379
5.92371e-05
-0.000278777
6.38756e-05
-0.000266507
0.00010225
-0.000267065
0.000159144
-0.000280073
0.000227068
-0.000294829
0.000306519
-0.000297241
0.000402385
-0.000271077
0.000519493
-0.000194832
0.000644149
-4.07207e-05
0.000765458
0.0001697
0.000895149
0.000409221
0.00107435
0.000677641
0.00135241
0.000958474
0.00179144
0.00127778
0.00245436
0.00132323
0.00298924
0.00074314
0.00301897
0.000821706
0.00346878
0.00252757
0.00945411
0.0031852
0.00363596
0.00347879
0.00103559
0.00390759
0.000742103
0.0044374
0.00037104
0.00504914
-0.000438983
0.00543936
-0.00127644
0.00549091
-0.00191048
0.00522796
-0.00229622
0.00472262
-0.00244082
0.00405992
-0.00237687
0.00332285
-0.00215642
0.00258148
-0.00183582
0.00188188
-0.00145577
0.00126284
-0.00107333
0.000744655
-0.000725116
0.00033472
-0.000452566
2.72922e-05
-0.000294912
-0.000201813
-0.000231545
-0.000368226
-0.000220171
-0.000482995
-0.000221877
-0.000555839
-0.000228526
-0.000595635
-0.000238971
-0.000609214
-0.000252918
-0.000604994
-0.000271274
-0.000592104
-0.000292953
-0.000574668
-0.000312254
-0.000550582
-0.000321316
-0.000510763
-0.000310886
-0.000435582
-0.000270002
-0.000293524
-0.000182768
-0.000106298
-1.75154e-05
0.000108652
0.000194282
0.000379088
0.000407216
0.000719426
0.000618146
0.00117331
0.000823903
0.0016753
0.000821249
0.00188979
0.000528664
0.00112755
0.00158395
0.00484886
0.0100058
0.0136335
0.0123551
0.00231396
0.0114461
0.00165117
0.0107611
0.00105602
0.0100378
0.000284266
0.00908224
-0.000320864
0.00794296
-0.000771224
0.00670754
-0.00106082
0.00544449
-0.00117777
0.00421384
-0.00114623
0.00306757
-0.00101015
0.00204572
-0.000813966
0.00115172
-0.000561773
0.00040802
-0.000329618
-0.000163543
-0.000153545
-0.000551007
-6.50927e-05
-0.000792765
-5.31447e-05
-0.000953462
-7.0839e-05
-0.00107304
-0.00010058
-0.00116523
-0.000129683
-0.00123843
-0.00015531
-0.00129904
-0.000178352
-0.00135231
-0.000199635
-0.00140462
-0.000218956
-0.0014633
-0.000234261
-0.001535
-0.000240541
-0.00162632
-0.000229986
-0.00174552
-0.000191685
-0.00190332
-0.000112187
-0.00210637
2.02974e-05
-0.00233866
0.000214779
-0.00262792
0.000483555
-0.00306371
0.000843013
-0.00373795
0.0012924
-0.00471746
0.00180342
-0.0061185
0.0022223
-0.00782061
0.00223078
-0.00735131
0.00111467
-0.00222281
0.00474835
0.00369212
0.00414664
0.0022528
0.00481486
0.000387708
0.0049511
0.000147925
0.00461686
1.33172e-05
0.00403908
-0.000193478
0.00331039
-0.000332148
0.00249524
-0.000362622
0.0016552
-0.000306194
0.000837964
-0.000192907
6.88003e-05
-4.47923e-05
-0.000581202
8.82413e-05
-0.00104004
0.000129233
-0.00132164
0.00012806
-0.00148399
9.7264e-05
-0.00158942
5.22965e-05
-0.00167163
1.13839e-05
-0.00174861
-2.35885e-05
-0.00182543
-5.28545e-05
-0.0019047
-7.60229e-05
-0.00198831
-9.47349e-05
-0.00207756
-0.000110376
-0.00217452
-0.000121986
-0.00228121
-0.00012756
-0.00239842
-0.000123315
-0.00252484
-0.000103561
-0.00265589
-6.06185e-05
-0.00278347
1.54047e-05
-0.00289542
0.00013225
-0.00298772
0.000307094
-0.00307022
0.000566064
-0.00315024
0.000923042
-0.00322546
0.00136763
-0.00325211
0.00183008
-0.00317899
0.00214919
-0.00283426
0.00188606
-0.0015664
-0.000153187
-0.00371582
-0.000567926
0.00432015
0.000461903
0.00122291
0.000384994
0.000464591
0.00028755
0.000245366
0.00016916
0.000131721
-7.60175e-05
5.17282e-05
-0.000445862
3.77148e-05
-0.00087352
6.5052e-05
-0.0012885
0.000108799
-0.00163417
0.000152775
-0.00186593
0.000186976
-0.00198075
0.000203069
-0.00203967
0.000188172
-0.0020684
0.000156792
-0.0020902
0.000119074
-0.00211996
8.20669e-05
-0.00215926
5.07017e-05
-0.00220978
2.69379e-05
-0.00227088
8.26082e-06
-0.00234019
-6.70245e-06
-0.00241629
-1.86283e-05
-0.00249818
-2.84709e-05
-0.00258401
-3.61425e-05
-0.00267083
-4.07327e-05
-0.00275379
-4.03414e-05
-0.00282542
-3.19201e-05
-0.00287457
-1.14632e-05
-0.00288808
2.89244e-05
-0.00285672
0.000100904
-0.00275939
0.000209776
-0.00256418
0.000370863
-0.00224429
0.000603167
-0.00178202
0.000905363
-0.00115218
0.00120026
-0.000181668
0.00117869
0.00114049
0.00056391
0.00158914
-0.000601819
-0.00204624
-0.00729438
-0.0101441
-0.0057811
-0.00453667
-0.00405866
-0.00380417
-0.00366636
-0.0036109
-0.00357127
-0.00350576
-0.00339776
-0.00324692
-0.00306296
-0.00286392
-0.0026807
-0.0025296
-0.00241678
-0.00234136
-0.00229756
-0.00227771
-0.00227666
-0.00229063
-0.00231655
-0.0023523
-0.00239569
-0.00244358
-0.00249099
-0.00252984
-0.00254808
-0.00252575
-0.00243123
-0.00222762
-0.00186272
-0.0012653
-0.000365513
0.000829319
0.00200253
0.00256076
0.00195294
)
;

boundaryField
{
    floor
    {
        type            calculated;
        value           nonuniform List<scalar> 
29
(
0
0
0
0
0
0
0
0
0
0
0
0
0
0
0
0
0
0
0
0
-3.7557e-06
-9.55137e-06
-1.45017e-05
-1.899e-05
-1.41741e-06
-2.76834e-06
-7.74963e-06
-7.97406e-06
-7.46584e-06
)
;
    }
    ceiling
    {
        type            calculated;
        value           nonuniform List<scalar> 
43
(
-4.54676e-05
-4.41551e-05
-4.28399e-05
-2.1502e-05
-1.33967e-05
-9.10093e-06
-6.06082e-06
-3.72316e-06
-1.90288e-06
-4.4278e-07
8.10373e-07
1.94727e-06
3.02036e-06
4.04026e-06
4.96072e-06
5.70964e-06
6.26376e-06
6.65233e-06
6.91926e-06
7.09968e-06
7.21715e-06
7.28119e-06
7.30328e-06
7.29238e-06
7.24987e-06
7.17689e-06
7.07472e-06
6.94454e-06
6.78687e-06
6.60018e-06
6.39414e-06
6.18166e-06
5.96869e-06
5.76341e-06
5.58141e-06
5.44039e-06
5.48733e-06
5.68658e-06
6.01076e-06
7.15237e-06
1.14141e-05
8.27565e-06
-6.01359e-05
)
;
    }
    sWall
    {
        type            calculated;
        value           uniform -0.000274457;
    }
    nWall
    {
        type            calculated;
        value           nonuniform List<scalar> 6(-4.77522e-05 -5.72931e-05 -6.25982e-05 -7.33758e-05 -8.04409e-05 -0.000100436);
    }
    sideWalls
    {
        type            empty;
        value           nonuniform 0();
    }
    glass1
    {
        type            calculated;
        value           nonuniform List<scalar> 9(-5.67144e-05 -0.000152544 -0.000232937 -0.00030103 -0.000358587 -0.000406994 -0.000450465 -0.00050355 -0.00056311);
    }
    glass2
    {
        type            calculated;
        value           nonuniform List<scalar> 2(-0.000252527 -0.000279628);
    }
    sun
    {
        type            calculated;
        value           uniform 0;
    }
    heatsource1
    {
        type            calculated;
        value           nonuniform List<scalar> 3(2.04008e-07 2.03963e-07 2.03978e-07);
    }
    heatsource2
    {
        type            calculated;
        value           nonuniform List<scalar> 4(5.10502e-08 5.11898e-08 0 0);
    }
    Table_master
    {
        type            calculated;
        value           nonuniform List<scalar> 9(-1.53006e-07 -1.53071e-07 -1.53095e-07 -1.53112e-07 -1.53124e-07 -1.53132e-07 -1.53134e-07 -1.53128e-07 -1.53096e-07);
    }
    Table_slave
    {
        type            calculated;
        value           nonuniform List<scalar> 9(1.52893e-07 1.52908e-07 1.52887e-07 1.5287e-07 1.52863e-07 1.52868e-07 1.52882e-07 1.52924e-07 1.53004e-07);
    }
    inlet
    {
        type            calculated;
        value           uniform -0.00612655;
    }
    outlet
    {
        type            calculated;
        value           nonuniform List<scalar> 2(0.00761431 0.00289386);
    }
}


// ************************************************************************* //
