/*--------------------------------*- C++ -*----------------------------------*\
  =========                 |
  \\      /  F ield         | OpenFOAM: The Open Source CFD Toolbox
   \\    /   O peration     | Website:  https://openfoam.org
    \\  /    A nd           | Version:  6
     \\/     M anipulation  |
\*---------------------------------------------------------------------------*/
FoamFile
{
    version     2.0;
    format      ascii;
    class       surfaceScalarField;
    location    "430";
    object      phi;
}
// * * * * * * * * * * * * * * * * * * * * * * * * * * * * * * * * * * * * * //

dimensions      [1 0 -1 0 0 0 0];

internalField   nonuniform List<scalar> 
852
(
0.000715089
-0.000718856
0.00102139
-0.000306363
0.0020898
-0.00106848
0.00305052
-0.000960786
0.00367565
-0.000625189
0.00402025
-0.000344662
0.00416498
-0.000144799
0.00416671
-1.79048e-06
0.00405962
0.000107026
0.00386111
0.000198446
0.00357382
0.000287219
0.00317954
0.000394218
0.00262269
0.00055679
0.0017373
0.000885323
0.00173364
1.56652e-06
-6.35029e-06
-0.000106374
0.000107856
0.000225049
-0.000331504
0.000691054
-0.000466087
0.00106359
-0.000372617
0.00131306
-0.000249554
0.00145555
-0.000142567
0.00153263
-7.71702e-05
0.0015828
-5.0254e-05
0.00161945
-3.67289e-05
0.00164557
-2.6206e-05
0.00166053
-1.50424e-05
0.00165829
2.15057e-06
0.00162366
3.45536e-05
0.00152356
0.000100008
0.00130168
0.000221794
0.000907581
0.000394012
0.000192066
0.000715427
0.00018527
0.000297915
-0.00102744
0.000873487
-0.000881999
0.00177564
-0.0019707
0.00255995
-0.00174517
0.00306245
-0.00112776
0.00332114
-0.000603422
0.00340985
-0.000233578
0.00338096
2.70361e-05
0.00326711
0.000220811
0.00309142
0.000374067
0.00286594
0.000512627
0.00259613
0.000663964
0.00229615
0.000856696
0.00207319
0.00110822
0.00236907
0.00143769
0.001138
0.00123095
0.00113788
-6.14357e-05
4.47154e-05
0.000431001
-0.000384663
0.000827407
-0.00072799
0.00112283
-0.000761588
0.00134661
-0.000596483
0.00148454
-0.000387557
0.00151387
-0.000171978
0.0015244
-8.77862e-05
0.00153423
-6.01645e-05
0.00154257
-4.5158e-05
0.00154913
-3.28507e-05
0.00155407
-2.00642e-05
0.00155503
1.11262e-06
0.00154545
4.40455e-05
0.00149195
0.000153425
0.00127935
0.000434305
0.000942216
0.000731055
0.000573231
0.00108432
0.000740981
6.11361e-05
-0.00110567
0.000518101
-0.00133903
0.00125912
-0.0027118
0.00191116
-0.00239729
0.00225896
-0.00147564
0.00239409
-0.000738625
0.00240367
-0.00024324
0.00234197
8.86666e-05
0.00224662
0.000316087
0.00213729
0.000483331
0.00202215
0.000627696
0.00190813
0.000777906
0.00181039
0.000954367
0.00174855
0.00116999
0.00170287
0.0014833
0.00122983
0.00170392
0.00236764
0.000248675
-0.000221476
0.000998434
-0.0011345
0.00137579
-0.00110543
0.00154389
-0.000929763
0.00163829
-0.000690965
0.00168534
-0.000434681
0.00151343
0.00142572
0.00136563
0.00132054
0.00128776
0.00126777
0.00126895
0.00131306
0.00146656
0.00119999
0.000700789
0.000967598
0.000963355
0.000733616
0.00131822
0.00144796
-0.000138666
-0.000990161
5.53574e-05
-0.00153312
0.0006108
-0.00326732
0.00114872
-0.00293531
0.00133098
-0.001658
0.0013343
-0.000742026
0.00127517
-0.000184191
0.00121723
0.000146531
0.00118675
0.000346484
0.00117967
0.000490339
0.00118861
0.000618684
0.00121341
0.000753029
0.00126053
0.00090718
0.0013381
0.00109234
0.00148627
0.00133507
0.00172329
0.00146683
0.00259187
0.00149899
0.0021319
0.000436251
0.00241848
-0.000508127
0.00211711
-0.000833204
0.00195829
-0.000946685
0.0018576
-0.00082915
0.00178759
-0.000621039
0.00172853
-0.000375701
0.00183656
-0.000108272
0.00183401
2.31259e-06
0.00177401
5.9755e-05
0.00167648
9.72898e-05
0.0015483
0.000127938
0.00139049
0.000157559
0.00119827
0.000191982
0.000957669
0.000240353
0.0006301
0.000327323
0.000730911
0.000599886
0.000783642
0.000910534
0.000886913
0.00121486
0.00230115
-0.000372258
-0.000646764
-0.000402571
-0.00150287
-1.69922e-05
-0.00365298
0.000370188
-0.0033226
0.000423505
-0.00171142
0.000348717
-0.000667331
0.000287218
-0.000122777
0.000283473
0.000150196
0.000327579
0.000302301
0.00040207
0.000415771
0.000498834
0.000521844
0.0006189
0.000632887
0.000772276
0.00075373
0.000980395
0.000884151
0.00129588
0.00101951
0.00170754
0.0010551
0.00224351
0.000962951
0.00244263
0.000237064
0.0022953
-0.000360872
0.00209631
-0.00063429
0.00186028
-0.000710738
0.00165513
-0.000624084
0.00148641
-0.0004524
0.00135651
-0.000245887
0.00128736
-3.9218e-05
0.00119227
9.73127e-05
0.00108022
0.000171716
0.000959568
0.000217849
0.000832033
0.00025538
0.000696513
0.000292986
0.000552206
0.000336195
0.000403279
0.000389185
0.000297337
0.000433171
0.000374276
0.000522853
0.000649472
0.000635245
0.0013155
0.000548742
0.00234316
0.0012734
0.00106453
0.00127833
-9.10437e-05
0.00115528
-0.000123836
-0.000497386
-0.000183349
-0.000775092
-0.00122523
-0.000532668
-0.00389549
-0.000291492
-0.00356389
-0.000255327
-0.0017477
-0.00030029
-0.000622464
-0.000325241
-9.79124e-05
-0.000302885
0.000127757
-0.000239644
0.000238978
-0.000141471
0.000317518
-9.92751e-06
0.000390221
0.000155703
0.000467178
0.000359842
0.000549513
0.000616683
0.000627234
0.000949113
0.000687006
0.00133417
0.000669964
0.0017693
0.000527746
0.00190324
0.000103049
0.0017909
-0.000248613
0.00159101
-0.000434488
0.0013459
-0.000465709
0.0011067
-0.000384972
0.000897175
-0.000242969
0.000723329
-7.21334e-05
0.000591156
9.28616e-05
0.000484843
0.000203531
0.000386572
0.000269892
0.000288174
0.000316151
0.000187415
0.000356043
8.59695e-05
0.000394335
-7.67773e-06
0.000429746
-7.14202e-05
0.000452831
-7.34938e-05
0.000435148
5.90343e-05
0.000390229
0.000310955
0.00038323
0.000532091
0.000327513
0.000734535
0.00107086
0.000345631
0.00166714
-0.000295835
0.00179665
-0.000451638
-0.000362725
0.000141494
-0.000981223
-0.000606788
-0.000814395
-0.00406239
-0.000606601
-0.0037718
-0.000557226
-0.00179719
-0.000593257
-0.000586534
-0.000631768
-5.94934e-05
-0.000629091
0.000124992
-0.000581745
0.000191545
-0.000494959
0.000230647
-0.000372299
0.000267476
-0.000212312
0.000307107
-9.45733e-06
0.000346575
0.000235978
0.000381717
0.000520789
0.000402113
0.000820567
0.000370105
0.00108942
0.000258808
0.00114783
4.4559e-05
0.00103894
-0.000139815
0.000839278
-0.000234913
0.000602278
-0.000228802
0.000367785
-0.000150574
0.000157981
-3.32611e-05
-6.78507e-06
9.25354e-05
-0.000114673
0.000200651
-0.000187943
0.000276703
-0.000251396
0.000333247
-0.000313454
0.000378111
-0.000372385
0.000414875
-0.000420165
0.000442016
-0.000443488
0.00045297
-0.000426265
0.000435509
-0.000364959
0.000373744
-0.000263235
0.000288409
-0.000132754
0.000252652
-6.52492e-05
0.000259914
9.44052e-05
0.000911113
-2.77423e-05
0.00178919
-0.000169568
0.00193837
-0.000651006
-0.000130318
0.00022955
-0.000968682
0.000231527
-0.000555796
-0.00447533
-0.000377524
-0.00395018
-0.000504169
-0.00167068
-0.00069978
-0.000391032
-0.000822764
6.33916e-05
-0.000863944
0.000166077
-0.000845764
0.000173272
-0.000784403
0.000169192
-0.000688584
0.000171565
-0.000562242
0.000180674
-0.000408385
0.000192627
-0.000230162
0.000203404
-3.44281e-05
0.000206289
0.000148228
0.000187359
0.000270711
0.000136234
0.000266767
4.84096e-05
0.000152863
-2.60062e-05
-3.12085e-05
-5.09386e-05
-0.000238343
-2.17663e-05
-0.000429137
4.01212e-05
-0.000576065
0.000113566
-0.000669403
0.000185773
-0.000722092
0.000253238
-0.000755152
0.000309662
-0.000778332
0.000356325
-0.000793479
0.000393157
-0.00079631
0.000417604
-0.000778903
0.000424508
-0.000732559
0.000406524
-0.000652872
0.00035572
-0.000549608
0.000270379
-0.000436088
0.000174789
-0.000303077
0.000119542
-0.000199748
0.000156487
0.000117618
0.000593653
0.000451321
0.00145539
0.00116625
0.00122335
0.000348194
0.000148875
0.000345153
0.000764047
-0.00489426
0.000358597
-0.00354481
-0.000386466
-0.000925762
-0.000873414
9.58014e-05
-0.00108655
0.000276426
-0.00115911
0.000238529
-0.00116402
0.00017808
-0.00113092
0.00013599
-0.00107291
0.000113459
-0.000996997
0.00010466
-0.00090882
0.000104351
-0.000814482
0.000108968
-0.000723343
0.000115052
-0.000653126
0.000117043
-0.000625953
0.000108961
-0.000664903
8.72593e-05
-0.000760916
6.99054e-05
-0.000885272
7.3314e-05
-0.00100447
9.73333e-05
-0.00109651
0.000132055
-0.00115512
0.00017207
-0.00118379
0.000214337
-0.00118761
0.000256951
-0.00117442
0.000296371
-0.00114811
0.000329907
-0.001109
0.000353952
-0.0010553
0.000363799
-0.000984608
0.000353709
-0.000895798
0.00031761
-0.000791553
0.000251372
-0.000679771
0.000158494
-0.00056245
5.73652e-05
-0.000416931
-2.60795e-05
-0.000244794
-1.57503e-05
0.000114041
0.00023472
0.000710746
0.00085859
0.00128971
0.000644287
0.00145732
0.003241
-0.00168545
0.000503401
-0.000807285
-0.000876191
0.00045369
-0.00138231
0.000601801
-0.00151901
0.000413019
-0.00154899
0.0002684
-0.00154533
0.000174318
-0.00152808
0.000118629
-0.00150339
8.86673e-05
-0.00147418
7.53392e-05
-0.00144309
7.31579e-05
-0.00141318
7.89534e-05
-0.00138834
9.01088e-05
-0.00137421
0.000102813
-0.00137724
0.000111883
-0.00140374
0.000113655
-0.00144728
0.00011334
-0.00149215
0.000118076
-0.00152445
0.000129524
-0.0015382
0.000145694
-0.00153189
0.000165659
-0.00150644
0.000188773
-0.00146332
0.000213728
-0.00140499
0.000237929
-0.00133347
0.000258281
-0.00125067
0.000271051
-0.00115898
0.000271999
-0.00106197
0.000256599
-0.000965279
0.000220809
-0.000876912
0.000162899
-0.000805176
8.66528e-05
-0.000752982
5.06681e-06
-0.000706638
-7.25276e-05
-0.000645443
-7.70491e-05
-0.000547117
0.000136293
-0.000276745
0.000588118
-0.00010441
0.000471849
0.00131761
-0.00179964
7.5803e-05
-0.0025782
-2.88313e-05
-0.00238524
0.000260607
-0.00215386
0.000370309
-0.0020261
0.00028515
-0.0019536
0.000195789
-0.0019141
0.000134708
-0.00189338
9.78032e-05
-0.00188222
7.73933e-05
-0.00187496
6.79704e-05
-0.0018681
6.61953e-05
-0.00185936
7.00985e-05
-0.00184749
7.81385e-05
-0.00183305
8.82568e-05
-0.0018188
9.75235e-05
-0.00180871
0.000103462
-0.00180253
0.000107049
-0.00179538
0.000110817
-0.0017819
0.000115929
-0.00175872
0.000122407
-0.00172358
0.000130412
-0.00167477
0.000139856
-0.00161118
0.000150024
-0.00153278
0.000159427
-0.00144077
0.000166161
-0.00133784
0.000168011
-0.00122858
0.000162629
-0.00111996
0.000147871
-0.00102182
0.000122567
-0.000946921
8.78913e-05
-0.000908934
4.85598e-05
-0.0009147
1.07265e-05
-0.000978904
-8.42947e-06
-0.00105893
2.86884e-06
-0.00100772
8.49854e-05
-0.000693903
0.000274195
-0.000627739
0.000405581
0.000644804
-0.00397786
-0.00321362
-0.00319612
-0.00328061
-0.0030754
-0.00276085
-0.00253161
-0.00239174
-0.00231296
-0.00227113
-0.00224976
-0.00223789
-0.00222787
-0.00221402
-0.00219217
-0.00216026
-0.00211913
-0.00207214
-0.00202169
-0.00196762
-0.0019086
-0.00184324
-0.00176998
-0.00168735
-0.00159457
-0.00149232
-0.00138319
-0.00127195
-0.00116573
-0.00107378
-0.00100657
-0.000973438
-0.000979135
-0.00102241
-0.00108486
-0.00113624
-0.00110521
-0.000883804
-0.000530537
)
;

boundaryField
{
    floor
    {
        type            calculated;
        value           nonuniform List<scalar> 
29
(
0
0
0
0
0
0
0
0
0
0
0
0
0
0
0
0
0
0
0
0
6.7045e-06
1.74284e-05
2.6545e-05
3.36309e-05
3.59275e-06
4.69357e-06
1.02831e-05
1.74344e-05
2.365e-05
)
;
    }
    ceiling
    {
        type            calculated;
        value           nonuniform List<scalar> 
43
(
6.70436e-05
6.39577e-05
5.81881e-05
5.55545e-05
5.52745e-05
5.56469e-05
5.57998e-05
5.58119e-05
5.58175e-05
5.58523e-05
5.59135e-05
5.59893e-05
5.60665e-05
5.61339e-05
5.61859e-05
5.62285e-05
5.62809e-05
5.63656e-05
5.6489e-05
5.66384e-05
5.6793e-05
5.6934e-05
5.7046e-05
5.71156e-05
5.71286e-05
5.7069e-05
5.69201e-05
5.66661e-05
5.62968e-05
5.5815e-05
5.52462e-05
5.46529e-05
5.4149e-05
5.38931e-05
5.39146e-05
5.41447e-05
5.38445e-05
5.26846e-05
5.22071e-05
5.75478e-05
3.56475e-05
3.52056e-05
3.82832e-05
)
;
    }
    sWall
    {
        type            calculated;
        value           uniform 4.27343e-05;
    }
    nWall
    {
        type            calculated;
        value           nonuniform List<scalar> 6(3.24783e-05 3.18623e-05 2.96947e-05 3.51959e-05 4.49574e-05 5.66124e-05);
    }
    sideWalls
    {
        type            empty;
        value           nonuniform 0();
    }
    glass1
    {
        type            calculated;
        value           nonuniform List<scalar> 9(3.70487e-06 1.0606e-05 1.7036e-05 2.30955e-05 2.88009e-05 3.39112e-05 3.78249e-05 4.22148e-05 4.49808e-05);
    }
    glass2
    {
        type            calculated;
        value           nonuniform List<scalar> 2(0.000166942 0.00018048);
    }
    sun
    {
        type            calculated;
        value           uniform 0;
    }
    heatsource1
    {
        type            calculated;
        value           nonuniform List<scalar> 3(2.05915e-07 2.06327e-07 2.06482e-07);
    }
    heatsource2
    {
        type            calculated;
        value           nonuniform List<scalar> 4(5.1692e-08 5.18332e-08 0 0);
    }
    Table_master
    {
        type            calculated;
        value           nonuniform List<scalar> 9(-1.54829e-07 -1.54916e-07 -1.54939e-07 -1.5495e-07 -1.54954e-07 -1.54952e-07 -1.54944e-07 -1.54915e-07 -1.54852e-07);
    }
    Table_slave
    {
        type            calculated;
        value           nonuniform List<scalar> 9(1.54626e-07 1.54654e-07 1.54639e-07 1.54642e-07 1.54658e-07 1.54684e-07 1.5472e-07 1.54766e-07 1.5483e-07);
    }
    inlet
    {
        type            calculated;
        value           uniform -0.00644984;
    }
    outlet
    {
        type            calculated;
        value           nonuniform List<scalar> 2(0.00386797 -0.000828318);
    }
}


// ************************************************************************* //
