// -*- C++ -*-
// File generated by PyFoam - sorry for the ugliness

FoamFile
{
 version 2.0;
 format ascii;
 class volVectorField;
 location "550";
 object U;
}

dimensions [ 0 1 -1 0 0 0 0 ];

internalField nonuniform List<vector> 459
(
  (5.81541e-05 0.0449157 0)
  (-0.0890416 0.0167724 0)
  (-0.109594 0.00972217 0)
  (-0.127156 0.00426988 0)
  (-0.136837 -0.00141166 0)
  (-0.137175 -0.00754601 0)
  (-0.126861 -0.014462 0)
  (-0.106093 -0.0217325 0)
  (-0.0768174 -0.0279774 0)
  (-0.0433502 -0.0314491 0)
  (-0.0088033 -0.0296808 0)
  (0.0212572 -0.0185416 0)
  (0.03481 -0.00850145 0)
  (0.0363785 0.0034365 0)
  (0.0479283 0.0234011 0)
  (-0.0768225 0.00672006 0)
  (0.0193944 -0.00299065 0)
  (0.0110165 -0.0106012 0)
  (0.0244814 -0.0125965 0)
  (0.0388521 -0.011224 0)
  (0.0510316 -0.00844749 0)
  (0.0590659 -0.00489538 0)
  (0.0630733 -0.00286953 0)
  (0.0644622 -0.00212027 0)
  (0.0648216 -0.0018453 0)
  (0.0648825 -0.00166591 0)
  (0.0646924 -0.0014622 0)
  (0.0640933 -0.0011419 0)
  (0.0627504 -0.000497526 0)
  (0.0599104 0.000943496 0)
  (0.0540471 0.00397969 0)
  (0.0435589 0.00850912 0)
  (0.0136529 0.0164013 0)
  (0.0559406 0.00550621 0)
  (0.0743548 0.0919048 0)
  (-0.0801472 0.0442145 0)
  (-0.0899988 0.0322601 0)
  (-0.107766 0.0215893 0)
  (-0.11775 0.00948012 0)
  (-0.118976 -0.00455648 0)
  (-0.110132 -0.0204082 0)
  (-0.0918993 -0.0359254 0)
  (-0.0665223 -0.0476969 0)
  (-0.03826 -0.0524236 0)
  (-0.0113107 -0.0476086 0)
  (0.0131596 -0.0314079 0)
  (0.0281445 -0.0141523 0)
  (0.0380397 0.00426548 0)
  (0.0483058 0.0245888 0)
  (0.0468466 0.026563 0)
  (0.0315262 0.0289382 0)
  (-0.0887649 0.00283556 0)
  (0.0230463 -0.0198688 0)
  (0.0259911 -0.0231233 0)
  (0.0365882 -0.0229659 0)
  (0.0474073 -0.0195493 0)
  (0.0560885 -0.0141597 0)
  (0.0606714 -0.00574332 0)
  (0.0616574 -0.000755408 0)
  (0.0615 0.00117963 0)
  (0.0615408 0.00194302 0)
  (0.0617745 0.00243035 0)
  (0.061945 0.00287516 0)
  (0.0619635 0.00349806 0)
  (0.0617895 0.00473701 0)
  (0.0609006 0.00759865 0)
  (0.0568838 0.0149522 0)
  (0.0481317 0.0228257 0)
  (0.016654 0.0325288 0)
  (0.093581 0.0228218 0)
  (0.144663 0.137866 0)
  (-0.0820825 0.0682196 0)
  (-0.069721 0.050934 0)
  (-0.0865749 0.0332902 0)
  (-0.0963277 0.0135728 0)
  (-0.0981567 -0.00902145 0)
  (-0.0898987 -0.0339342 0)
  (-0.0732088 -0.0574111 0)
  (-0.0510155 -0.073626 0)
  (-0.0275512 -0.078182 0)
  (-0.00589539 -0.0693696 0)
  (0.012955 -0.0490679 0)
  (0.0267986 -0.0268241 0)
  (0.0366841 -0.0045891 0)
  (0.0436903 0.0167957 0)
  (0.0433326 0.0301791 0)
  (0.0358426 0.0527667 0)
  (-0.0350793 -0.0191082 0)
  (0.0328995 -0.0333265 0)
  (0.0433884 -0.0360438 0)
  (0.0489869 -0.0329923 0)
  (0.0547559 -0.027771 0)
  (0.0599619 -0.0227702 0)
  (0.0622344 -0.0167616 0)
  (0.0575317 -0.0110193 0)
  (0.0537223 -0.00809147 0)
  (0.0524275 -0.00654612 0)
  (0.0523035 -0.00557944 0)
  (0.0525506 -0.00484494 0)
  (0.0531972 -0.00407405 0)
  (0.0548926 -0.00280795 0)
  (0.0591836 0.00112837 0)
  (0.0595937 0.0192562 0)
  (0.0529041 0.0331862 0)
  (0.018828 0.0480668 0)
  (0.116106 0.0485514 0)
  (0.212023 0.17522 0)
  (-0.0925361 0.0879657 0)
  (-0.0477719 0.0672622 0)
  (-0.0627983 0.0445446 0)
  (-0.0711087 0.0190392 0)
  (-0.0723413 -0.0115881 0)
  (-0.06311 -0.0458047 0)
  (-0.0476287 -0.0766213 0)
  (-0.0292859 -0.0961143 0)
  (-0.0114668 -0.0998664 0)
  (0.00463165 -0.0874416 0)
  (0.0180619 -0.0645583 0)
  (0.0292735 -0.0385296 0)
  (0.0381987 -0.012989 0)
  (0.046266 0.0107177 0)
  (0.0549504 0.0300385 0)
  (0.0669379 0.0506687 0)
  (0.0890641 0.00231301 0)
  (0.0829829 -0.0160271 0)
  (0.0736479 -0.0301528 0)
  (0.065156 -0.035204 0)
  (0.0597387 -0.0333711 0)
  (0.0566972 -0.0284959 0)
  (0.0541845 -0.0219888 0)
  (0.0553341 -0.013453 0)
  (0.0623787 -0.00936242 0)
  (0.0680416 -0.00718706 0)
  (0.0715832 -0.00589649 0)
  (0.0740092 -0.00486583 0)
  (0.075526 -0.00371618 0)
  (0.0752208 -0.00207467 0)
  (0.0716738 0.0005161 0)
  (0.062601 0.00462527 0)
  (0.0546308 0.0244168 0)
  (0.053887 0.0411504 0)
  (0.0250511 0.060045 0)
  (0.131639 0.0854568 0)
  (0.275575 0.203728 0)
  (-0.109579 0.102052 0)
  (-0.0247405 0.0773055 0)
  (-0.0362977 0.0518858 0)
  (-0.0415243 0.0231476 0)
  (-0.0391483 -0.0139943 0)
  (-0.0271595 -0.056942 0)
  (-0.0138115 -0.0925192 0)
  (-0.00107273 -0.112689 0)
  (0.00964581 -0.11414 0)
  (0.018252 -0.0996919 0)
  (0.0257645 -0.0751758 0)
  (0.0322869 -0.0471944 0)
  (0.0381273 -0.0204914 0)
  (0.044936 0.00269727 0)
  (0.0535902 0.0197097 0)
  (0.0661989 0.0266979 0)
  (0.0765753 0.00417155 0)
  (0.0753404 -0.0126567 0)
  (0.0677316 -0.0232574 0)
  (0.0596027 -0.0276571 0)
  (0.0525994 -0.0272926 0)
  (0.0471196 -0.0239426 0)
  (0.0432672 -0.0183372 0)
  (0.042606 -0.0102496 0)
  (0.0450384 -0.0058347 0)
  (0.0477906 -0.00413784 0)
  (0.0502586 -0.00336341 0)
  (0.0526808 -0.00243394 0)
  (0.0549517 -0.000608761 0)
  (0.056759 0.00269404 0)
  (0.0570645 0.0077955 0)
  (0.0554561 0.0152313 0)
  (0.0538522 0.0283606 0)
  (0.0588372 0.0424834 0)
  (0.0504628 0.0570173 0)
  (0.105065 0.0846164 0)
  (0.0998247 0.066294 0)
  (0.0993381 0.0464989 0)
  (-0.160602 0.0447085 0)
  (0.328444 0.226344 0)
  (-0.130608 0.10925 0)
  (-0.00463597 0.0768376 0)
  (-0.00817966 0.0543761 0)
  (-0.00877783 0.026547 0)
  (0.00372697 -0.0202305 0)
  (0.0176008 -0.0689386 0)
  (0.0266653 -0.103774 0)
  (0.0317851 -0.121018 0)
  (0.0337812 -0.12035 0)
  (0.0339523 -0.104501 0)
  (0.0335037 -0.0790472 0)
  (0.0330823 -0.050459 0)
  (0.0334627 -0.0242366 0)
  (0.035879 -0.00341344 0)
  (0.0413476 0.0102056 0)
  (0.049811 0.0135032 0)
  (0.0552067 0.00275834 0)
  (0.0541579 -0.00896517 0)
  (0.0486087 -0.0168076 0)
  (0.0416056 -0.0205365 0)
  (0.0347458 -0.020888 0)
  (0.0288774 -0.0188342 0)
  (0.0246614 -0.0150656 0)
  (0.0229641 -0.0104146 0)
  (0.0237076 -0.00785254 0)
  (0.0256082 -0.0070472 0)
  (0.0280509 -0.00675973 0)
  (0.0309065 -0.00608874 0)
  (0.0340898 -0.00428587 0)
  (0.0376079 -0.000493046 0)
  (0.0412952 0.00578547 0)
  (0.044254 0.0143167 0)
  (0.0475629 0.025261 0)
  (0.0546914 0.0363361 0)
  (0.0562863 0.0432755 0)
  (0.0771393 0.0562141 0)
  (0.0756018 0.0437085 0)
  (0.0993054 0.0416578 0)
  (-0.146397 0.0690491 0)
  (0.366404 0.245069 0)
  (-0.145318 0.0989243 0)
  (0.0138194 0.0526609 0)
  (0.0253898 0.0428785 0)
  (0.0335555 0.0165782 0)
  (0.0554605 -0.0345283 0)
  (0.0681047 -0.0790978 0)
  (0.071453 -0.108516 0)
  (0.0676531 -0.120975 0)
  (0.0591858 -0.117113 0)
  (0.0485497 -0.0997238 0)
  (0.0379701 -0.0740829 0)
  (0.0288488 -0.0462559 0)
  (0.0225116 -0.0220593 0)
  (0.0199097 -0.00442585 0)
  (0.0215776 0.00573498 0)
  (0.026148 0.00789948 0)
  (0.0288136 0.00200476 0)
  (0.0277419 -0.00561041 0)
  (0.0234086 -0.0112476 0)
  (0.0174139 -0.0141943 0)
  (0.0111424 -0.0148491 0)
  (0.0055966 -0.013904 0)
  (0.00158714 -0.0120256 0)
  (-0.000210339 -0.0100278 0)
  (7.26597e-05 -0.00922801 0)
  (0.00156306 -0.00937835 0)
  (0.00369535 -0.00969106 0)
  (0.00630046 -0.00952618 0)
  (0.00944409 -0.00829803 0)
  (0.0133907 -0.00521453 0)
  (0.0192611 0.00075574 0)
  (0.0260038 0.0092152 0)
  (0.0330202 0.0186933 0)
  (0.0418058 0.0276277 0)
  (0.0481591 0.0333138 0)
  (0.0604042 0.042596 0)
  (0.0653389 0.0455718 0)
  (0.110256 0.0604392 0)
  (-0.106407 0.118065 0)
  (0.432295 0.24474 0)
  (-0.042701 0.0738536 0)
  (0.0557458 -0.0029826 0)
  (0.0889591 -0.0210528 0)
  (0.108621 -0.0424423 0)
  (0.125097 -0.0664815 0)
  (0.128927 -0.0892625 0)
  (0.120443 -0.104637 0)
  (0.102736 -0.108771 0)
  (0.0799815 -0.100953 0)
  (0.0559715 -0.082736 0)
  (0.033955 -0.0584963 0)
  (0.0158265 -0.0335629 0)
  (0.00370673 -0.013863 0)
  (-0.0022965 -0.00121358 0)
  (-0.00279233 0.00468983 0)
  (-0.000581457 0.00550572 0)
  (0.000512176 0.0019056 0)
  (-0.000789919 -0.00281652 0)
  (-0.00460016 -0.00643478 0)
  (-0.00979255 -0.00850199 0)
  (-0.0151604 -0.00937303 0)
  (-0.0197919 -0.00956868 0)
  (-0.0230756 -0.00954779 0)
  (-0.0247371 -0.00972759 0)
  (-0.0250396 -0.0104169 0)
  (-0.0245557 -0.0113959 0)
  (-0.0236864 -0.0122692 0)
  (-0.0226055 -0.0126994 0)
  (-0.0212769 -0.0124302 0)
  (-0.0193574 -0.0111833 0)
  (-0.0159258 -0.00842598 0)
  (-0.00841156 -0.00333157 0)
  (0.00227505 0.00353717 0)
  (0.0123377 0.00913662 0)
  (0.0204219 0.0115717 0)
  (0.0307612 0.0145569 0)
  (0.0390213 0.014383 0)
  (0.110699 0.0607647 0)
  (-0.318527 0.179008 0)
  (0.518415 0.247245 0)
  (0.249069 0.174822 0)
  (0.258868 0.131968 0)
  (0.268198 0.0812864 0)
  (0.257445 0.0342252 0)
  (0.232744 -0.011526 0)
  (0.201686 -0.0471419 0)
  (0.164795 -0.0678701 0)
  (0.123824 -0.0737476 0)
  (0.0828092 -0.067505 0)
  (0.0449804 -0.0520256 0)
  (0.0136468 -0.032216 0)
  (-0.0101772 -0.0129312 0)
  (-0.0222079 -0.00201016 0)
  (-0.0279282 0.00355899 0)
  (-0.0287728 0.00558882 0)
  (-0.0281415 0.00542643 0)
  (-0.0281901 0.00351556 0)
  (-0.029759 0.00106937 0)
  (-0.0327222 -0.00101556 0)
  (-0.0366789 -0.00252673 0)
  (-0.0407131 -0.00370397 0)
  (-0.0442596 -0.00474668 0)
  (-0.0470821 -0.00579311 0)
  (-0.0491981 -0.00697631 0)
  (-0.0508083 -0.00832007 0)
  (-0.052211 -0.00966816 0)
  (-0.0536808 -0.010802 0)
  (-0.055546 -0.0115095 0)
  (-0.0582831 -0.0115539 0)
  (-0.0624343 -0.0104708 0)
  (-0.0683603 -0.00725764 0)
  (-0.0762845 -0.000475611 0)
  (-0.0850546 0.0096541 0)
  (-0.0972204 0.0230864 0)
  (-0.117728 0.0410325 0)
  (-0.145942 0.064597 0)
  (-0.180924 0.0915329 0)
  (-0.236435 0.116909 0)
  (-0.468727 0.132972 0)
  (0.236249 -0.0178235 0)
  (0.230098 0.000980824 0)
  (0.214158 -0.0124709 0)
  (0.191033 -0.0265445 0)
  (0.157871 -0.0349631 0)
  (0.117475 -0.0375795 0)
  (0.0742803 -0.0348517 0)
  (0.0331547 -0.0270371 0)
  (-0.00460058 -0.013381 0)
  (-0.0304263 -0.000965882 0)
  (-0.0445366 0.00602549 0)
  (-0.0509934 0.0090894 0)
  (-0.0531452 0.0103047 0)
  (-0.0534434 0.010667 0)
  (-0.0532519 0.0105103 0)
  (-0.0535221 0.00984722 0)
  (-0.0546396 0.00900202 0)
  (-0.0564094 0.00824367 0)
  (-0.0585285 0.0075302 0)
  (-0.0608984 0.00661103 0)
  (-0.0634519 0.00562553 0)
  (-0.0662438 0.00484746 0)
  (-0.0693522 0.00431675 0)
  (-0.0728149 0.00423441 0)
  (-0.0766361 0.00488501 0)
  (-0.0807331 0.00657764 0)
  (-0.0850101 0.009533 0)
  (-0.0894967 0.0135991 0)
  (-0.0943714 0.0179605 0)
  (-0.0997056 0.0212164 0)
  (-0.104475 0.0249112 0)
  (-0.108488 0.0310304 0)
  (-0.111783 0.0409895 0)
  (-0.114196 0.055347 0)
  (-0.113321 0.0721898 0)
  (-0.10426 0.0791152 0)
  (-0.0911037 0.0404538 0)
  (-0.175928 -0.14666 0)
  (0.057471 0.10921 0)
  (0.00424901 0.0437195 0)
  (0.00147608 0.00474479 0)
  (-0.00258725 -0.0177096 0)
  (-0.00559712 -0.0284532 0)
  (-0.0183558 -0.0337346 0)
  (-0.0350591 -0.0366095 0)
  (-0.0507325 -0.0386294 0)
  (-0.0623305 -0.0408746 0)
  (-0.0684488 -0.0438144 0)
  (-0.0710825 -0.0466456 0)
  (-0.0718408 -0.0490611 0)
  (-0.0715268 -0.0507058 0)
  (-0.0706797 -0.0518824 0)
  (-0.0696585 -0.0531865 0)
  (-0.0688219 -0.0550497 0)
  (-0.068396 -0.0574222 0)
  (-0.0684192 -0.0600163 0)
  (-0.0688642 -0.0625694 0)
  (-0.0697555 -0.0648274 0)
  (-0.0711671 -0.0668052 0)
  (-0.0731286 -0.0686051 0)
  (-0.0757155 -0.07101 0)
  (-0.0791127 -0.0742001 0)
  (-0.0834495 -0.0781198 0)
  (-0.0886364 -0.082293 0)
  (-0.0942209 -0.0855708 0)
  (-0.0994132 -0.0864647 0)
  (-0.103405 -0.0839849 0)
  (-0.105689 -0.0761854 0)
  (-0.105718 -0.0635083 0)
  (-0.102128 -0.0461765 0)
  (-0.0931546 -0.0249275 0)
  (-0.0771387 -0.00134585 0)
  (-0.0538839 0.0203882 0)
  (-0.0256697 0.0285441 0)
  (0.0846198 -0.0481252 0)
  (-0.135084 -0.0996722 0)
  (-0.175667 -0.233885 0)
  (-0.276087 -0.0430819 0)
  (-0.212279 0.134355 0)
  (-0.180734 0.119367 0)
  (-0.139744 0.120866 0)
  (-0.122314 0.129923 0)
  (-0.11574 0.138405 0)
  (-0.11355 0.144829 0)
  (-0.111787 0.151688 0)
  (-0.108938 0.159971 0)
  (-0.104776 0.169143 0)
  (-0.0998837 0.17738 0)
  (-0.0951696 0.183538 0)
  (-0.0911372 0.187753 0)
  (-0.0878199 0.190526 0)
  (-0.0850226 0.192588 0)
  (-0.0826176 0.194625 0)
  (-0.080652 0.196965 0)
  (-0.0792392 0.199546 0)
  (-0.0784561 0.202137 0)
  (-0.0783342 0.204511 0)
  (-0.0788421 0.20642 0)
  (-0.0799068 0.207866 0)
  (-0.0814113 0.209024 0)
  (-0.0832493 0.211256 0)
  (-0.0852777 0.214952 0)
  (-0.0873234 0.220225 0)
  (-0.0891913 0.226582 0)
  (-0.0906505 0.232581 0)
  (-0.0914235 0.23645 0)
  (-0.091113 0.237572 0)
  (-0.0889421 0.234588 0)
  (-0.0836703 0.228573 0)
  (-0.0737614 0.220763 0)
  (-0.0579626 0.213174 0)
  (-0.0365866 0.208397 0)
  (-0.00930651 0.20825 0)
  (0.0214931 0.212254 0)
  (0.119227 0.24408 0)
  (-0.259494 0.237887 0)
)
;

boundaryField
{
  floor
  {
    type noSlip;
  }
  ceiling
  {
    type noSlip;
  }
  sWall
  {
    type noSlip;
  }
  nWall
  {
    type noSlip;
  }
  sideWalls
  {
    type empty;
  }
  glass1
  {
    type noSlip;
  }
  glass2
  {
    type noSlip;
  }
  sun
  {
    type noSlip;
  }
  heatsource1
  {
    type noSlip;
  }
  heatsource2
  {
    type noSlip;
  }
  Table_master
  {
    type noSlip;
  }
  Table_slave
  {
    type noSlip;
  }
  inlet
  {
    type fixedValue;
    value uniform (0.277164 -0.114805 0);
  }
  outlet
  {
    type zeroGradient;
  }
} 	// ************************************************************************* //

