// -*- C++ -*-
// File generated by PyFoam - sorry for the ugliness

FoamFile
{
 version 2.0;
 format ascii;
 class volScalarField;
 location "500";
 object T;
}

dimensions [ 0 0 0 1 0 0 0 ];

internalField nonuniform List<scalar> 459
(
  308.113
  307.994
  307.945
  307.919
  307.901
  307.889
  307.88
  307.873
  307.865
  307.858
  307.85
  307.843
  307.835
  307.826
  307.812
  304.189
  304.198
  304.21
  304.196
  304.191
  304.199
  304.212
  304.226
  304.205
  304.185
  304.17
  304.16
  304.157
  304.156
  304.152
  304.155
  304.165
  304.155
  304.145
  308.051
  307.872
  307.794
  307.753
  307.728
  307.712
  307.706
  307.704
  307.706
  307.711
  307.72
  307.732
  307.746
  307.765
  307.782
  307.773
  307.753
  304.392
  304.389
  304.387
  304.376
  304.352
  304.311
  304.288
  304.291
  304.287
  304.277
  304.267
  304.261
  304.26
  304.286
  304.332
  304.368
  304.333
  304.283
  304.243
  307.999
  307.743
  307.641
  307.588
  307.557
  307.54
  307.533
  307.537
  307.55
  307.571
  307.598
  307.63
  307.667
  307.705
  307.74
  307.749
  307.735
  304.789
  304.686
  304.631
  304.609
  304.585
  304.549
  304.433
  304.346
  304.375
  304.414
  304.45
  304.487
  304.529
  304.581
  304.659
  304.792
  304.795
  304.818
  304.936
  307.951
  307.632
  307.522
  307.468
  307.439
  307.422
  307.414
  307.42
  307.439
  307.471
  307.512
  307.56
  307.611
  307.663
  307.71
  307.726
  307.579
  305.389
  305.105
  305.078
  305.105
  305.172
  305.267
  305.369
  305.455
  305.469
  305.478
  305.484
  305.488
  305.488
  305.484
  305.472
  305.446
  305.392
  305.402
  305.423
  305.415
  307.901
  307.552
  307.452
  307.404
  307.386
  307.378
  307.371
  307.371
  307.389
  307.423
  307.47
  307.525
  307.585
  307.644
  307.693
  307.65
  307.232
  305.514
  305.34
  305.342
  305.374
  305.419
  305.467
  305.51
  305.541
  305.559
  305.573
  305.584
  305.595
  305.605
  305.616
  305.626
  305.636
  305.643
  305.666
  305.693
  305.721
  305.755
  305.739
  305.728
  307.846
  307.507
  307.423
  307.384
  307.384
  307.383
  307.377
  307.371
  307.388
  307.422
  307.469
  307.526
  307.584
  307.633
  307.64
  307.476
  306.86
  305.601
  305.48
  305.492
  305.519
  305.548
  305.576
  305.6
  305.619
  305.634
  305.645
  305.655
  305.665
  305.677
  305.691
  305.708
  305.728
  305.748
  305.77
  305.789
  305.802
  305.806
  305.776
  305.732
  307.781
  307.496
  307.427
  307.392
  307.399
  307.406
  307.41
  307.414
  307.426
  307.453
  307.493
  307.538
  307.578
  307.594
  307.528
  307.242
  306.552
  305.681
  305.598
  305.616
  305.642
  305.665
  305.684
  305.699
  305.71
  305.717
  305.721
  305.724
  305.728
  305.734
  305.743
  305.757
  305.774
  305.794
  305.813
  305.829
  305.838
  305.836
  305.814
  305.742
  307.719
  307.5
  307.451
  307.396
  307.406
  307.425
  307.441
  307.453
  307.465
  307.483
  307.508
  307.532
  307.542
  307.51
  307.373
  307.01
  306.35
  305.773
  305.723
  305.75
  305.782
  305.807
  305.821
  305.827
  305.826
  305.823
  305.817
  305.811
  305.804
  305.798
  305.795
  305.797
  305.805
  305.819
  305.836
  305.855
  305.874
  305.891
  305.907
  305.93
  307.671
  307.532
  307.531
  307.371
  307.378
  307.408
  307.435
  307.455
  307.468
  307.478
  307.487
  307.489
  307.468
  307.396
  307.216
  306.841
  306.273
  305.894
  305.869
  305.906
  305.949
  305.969
  305.975
  305.971
  305.963
  305.951
  305.938
  305.922
  305.906
  305.889
  305.873
  305.86
  305.852
  305.85
  305.853
  305.86
  305.868
  305.876
  305.886
  305.919
  307.738
  307.354
  307.325
  307.356
  307.383
  307.405
  307.419
  307.425
  307.422
  307.407
  307.367
  307.28
  307.104
  306.781
  306.309
  306.093
  306.067
  306.092
  306.115
  306.125
  306.125
  306.117
  306.104
  306.087
  306.069
  306.048
  306.026
  306.002
  305.978
  305.955
  305.934
  305.918
  305.909
  305.904
  305.901
  305.899
  305.896
  305.897
  307.617
  307.355
  307.273
  307.29
  307.308
  307.322
  307.33
  307.332
  307.324
  307.304
  307.263
  307.188
  307.055
  306.774
  306.495
  306.377
  306.331
  306.31
  306.298
  306.286
  306.273
  306.256
  306.237
  306.216
  306.193
  306.167
  306.141
  306.113
  306.084
  306.055
  306.028
  306.003
  305.982
  305.965
  305.95
  305.935
  305.915
  305.903
  311.352
  311.22
  308.287
  307.446
  307.216
  307.213
  307.215
  307.217
  307.219
  307.22
  307.213
  307.198
  307.172
  307.127
  307.033
  306.856
  306.737
  306.671
  306.625
  306.587
  306.547
  306.509
  306.471
  306.435
  306.4
  306.366
  306.331
  306.297
  306.263
  306.229
  306.194
  306.159
  306.125
  306.091
  306.058
  306.027
  305.995
  305.961
  305.91
  305.817
)
;

boundaryField
{
  floor
  {
    type wallHeatTransfer;
    Tinf uniform 305.2;
    alphaWall uniform 0.24;
    value nonuniform List<scalar> 29
(
  307.598
  304.505
  304.502
  304.506
  304.506
  304.514
  304.53
  304.556
  304.576
  304.569
  304.552
  304.53
  304.507
  304.484
  304.471
  304.466
  304.461
  304.459
  304.456
  304.463
  304.463
  304.501
  304.99
  305.383
  307.598
  304.505
  304.588
  304.866
  305.362
)
;
  }
  ceiling
  {
    type wallHeatTransfer;
    Tinf uniform 303.2;
    alphaWall uniform 0.24;
    value nonuniform List<scalar> 43
(
  310.56
  310.435
  307.964
  307.075
  306.831
  306.82
  306.821
  306.822
  306.825
  306.829
  306.825
  306.814
  306.793
  306.754
  306.67
  306.507
  306.398
  306.339
  306.305
  306.279
  306.256
  306.231
  306.204
  306.174
  306.143
  306.111
  306.079
  306.046
  306.013
  305.981
  305.948
  305.915
  305.882
  305.85
  305.818
  305.786
  305.752
  305.713
  305.66
  305.572
  307.516
  307.397
  307.43
)
;
  }
  sWall
  {
    type wallHeatTransfer;
    Tinf uniform 315.2;
    alphaWall uniform 0.36;
    value uniform 311.889;
  }
  nWall
  {
    type wallHeatTransfer;
    Tinf uniform 307.2;
    alphaWall uniform 0.36;
    value nonuniform List<scalar> 6
(
  306.022
  306.019
  306.015
  306.045
  306.042
  306.002
)
;
  }
  sideWalls
  {
    type empty;
  }
  glass1
  {
    type wallHeatTransfer;
    Tinf uniform 315.2;
    alphaWall uniform 4.3;
    value nonuniform List<scalar> 9
(
  311.761
  311.535
  311.395
  311.287
  311.189
  311.087
  310.971
  310.829
  310.639
)
;
  }
  glass2
  {
    type wallHeatTransfer;
    Tinf uniform 307.2;
    alphaWall uniform 4.3;
    value nonuniform List<scalar> 2
(
  306.726
  306.704
)
;
  }
  sun
  {
    type wallHeatTransfer;
    Tinf uniform 305.2;
    alphaWall uniform 0.24;
    value nonuniform List<scalar> 14
(
  307.952
  307.834
  307.783
  307.754
  307.733
  307.717
  307.706
  307.695
  307.685
  307.675
  307.664
  307.652
  307.639
  307.623
)
;
  }
  heatsource1
  {
    type fixedGradient;
    gradient uniform 0;
  }
  heatsource2
  {
    type fixedGradient;
    gradient uniform 0;
  }
  Table_master
  {
    type zeroGradient;
  }
  Table_slave
  {
    type zeroGradient;
  }
  inlet
  {
    type fixedValue;
    value uniform 290.15;
  }
  outlet
  {
    type zeroGradient;
  }
} 	// ************************************************************************* //

