/*--------------------------------*- C++ -*----------------------------------*\
  =========                 |
  \\      /  F ield         | OpenFOAM: The Open Source CFD Toolbox
   \\    /   O peration     | Website:  https://openfoam.org
    \\  /    A nd           | Version:  6
     \\/     M anipulation  |
\*---------------------------------------------------------------------------*/
FoamFile
{
    version     2.0;
    format      ascii;
    class       volScalarField;
    location    "200";
    object      alphat;
}
// * * * * * * * * * * * * * * * * * * * * * * * * * * * * * * * * * * * * * //

dimensions      [1 -1 -1 0 0 0 0];

internalField   nonuniform List<scalar> 
459
(
0.000830734
0.000838965
0.000703373
0.000717367
0.000740653
0.000764511
0.000788427
0.000812774
0.000838496
0.000863086
0.000884292
0.000900929
0.000912278
0.000917923
0.000912818
0.000422944
0.000460826
0.000467915
0.000383793
0.00030341
0.000264455
0.000253182
0.000247727
0.00025301
0.000264068
0.000287263
0.000319679
0.000357557
0.000400915
0.000452229
0.000509614
0.000547417
0.000538793
0.000480125
0.00152756
0.00277816
0.00166802
0.00253966
0.0028026
0.00297516
0.00314527
0.0032996
0.00341503
0.00349059
0.00350773
0.00343168
0.00320513
0.00273408
0.00193141
0.000994368
0.000678992
0.00056005
0.001247
0.00145667
0.00151737
0.001388
0.000906751
0.000449271
0.000334371
0.000330444
0.000405783
0.000563592
0.000789157
0.00106367
0.00136652
0.00159479
0.00187257
0.00182558
0.00182755
0.000614065
0.00215214
0.00514288
0.00197625
0.00320854
0.00419627
0.00448126
0.00465858
0.00479553
0.00488658
0.00493355
0.00491233
0.0047793
0.00446611
0.00388445
0.00299629
0.00196857
0.00108579
0.000989293
0.00277653
0.00260653
0.00236144
0.00189936
0.00129163
0.000501738
0.000374083
0.000336464
0.000394627
0.000453857
0.000516306
0.000586136
0.000668942
0.000774767
0.00179639
0.00169814
0.00136749
0.000789366
0.00273069
0.00803048
0.00307948
0.00308539
0.00470159
0.00525763
0.00550832
0.00568276
0.00580819
0.00589814
0.00595735
0.00594304
0.0057735
0.00532251
0.00446039
0.00321477
0.00196621
0.00126962
0.00327193
0.00334863
0.00311357
0.00253333
0.00190928
0.00130094
0.000828319
0.000836683
0.000847353
0.000857773
0.000868343
0.000880823
0.000899302
0.000925448
0.000973642
0.00243898
0.00331422
0.00350963
0.00120908
0.00325492
0.0110456
0.0053493
0.00351238
0.00447209
0.00526339
0.00570707
0.00599704
0.00620059
0.00636636
0.00657583
0.00681717
0.00704966
0.0072059
0.00720119
0.00696949
0.00653245
0.00604614
0.00600564
0.00571517
0.00531091
0.00492851
0.00460721
0.00435895
0.00418705
0.00412942
0.00407938
0.00403075
0.00399247
0.00398262
0.0040224
0.00411596
0.00427075
0.00449208
0.00461577
0.00453382
0.00382323
0.00164431
0.00147354
0.00129095
0.0037344
0.0136963
0.00898965
0.00579351
0.00482634
0.00490976
0.00535951
0.00577616
0.00605608
0.00625057
0.00652531
0.0068967
0.00734778
0.0078241
0.00823864
0.00849257
0.00850697
0.00828403
0.00793126
0.00748692
0.00703163
0.0066265
0.00628476
0.00599771
0.00574713
0.00552015
0.00530584
0.00510767
0.00494016
0.0048271
0.00478889
0.00482528
0.00491045
0.00499027
0.0050263
0.00496079
0.00456615
0.00378178
0.00285024
0.00137309
0.00412583
0.0151907
0.0127445
0.00951296
0.00729521
0.00597431
0.00559346
0.00570279
0.00588408
0.00597429
0.00614906
0.00645072
0.00690454
0.00748101
0.00808661
0.00859057
0.00886859
0.008874
0.00867201
0.00835366
0.00799965
0.00765795
0.00733988
0.00703741
0.00673602
0.00643143
0.00612932
0.00583582
0.00555913
0.00531565
0.00512115
0.00497754
0.00486841
0.00474801
0.00455578
0.00422492
0.00369887
0.00304241
0.00237181
0.00133648
0.00412744
0.0131604
0.0120701
0.0115356
0.0098654
0.00822361
0.00712402
0.00649489
0.00616803
0.00598947
0.00590774
0.00595128
0.00616262
0.00656995
0.00714371
0.00777001
0.00827013
0.00851371
0.0085448
0.00843216
0.00824852
0.00804734
0.00785258
0.00766353
0.00746516
0.00724576
0.00700878
0.00676013
0.00650096
0.00623768
0.00596176
0.00561955
0.00520062
0.00472928
0.00424218
0.00378108
0.00337872
0.00297916
0.00258583
0.00161456
0.00393298
0.00450622
0.0106359
0.0114391
0.0103573
0.00903965
0.0078921
0.00701812
0.00640086
0.00597475
0.00569261
0.00554474
0.00552669
0.00565462
0.00595025
0.00639276
0.0068803
0.00728359
0.00754133
0.00765852
0.00767714
0.00764637
0.00760537
0.00757808
0.00757267
0.00757997
0.00759372
0.00760882
0.00760991
0.00755488
0.00741567
0.00724472
0.00708932
0.00700234
0.00696198
0.00669505
0.00583303
0.00500514
0.00479563
0.00183238
0.0242057
0.0210895
0.0124755
0.00992907
0.00850094
0.00750434
0.00677192
0.00621996
0.00579651
0.0054722
0.00523272
0.00508036
0.00503265
0.00510843
0.00530379
0.00557423
0.0058538
0.00608933
0.00626038
0.00637564
0.00645966
0.00654195
0.00665111
0.00681041
0.0070312
0.00730593
0.00759178
0.00776373
0.00781585
0.00777596
0.00768596
0.00759656
0.00753188
0.00744732
0.00715133
0.00627773
0.00579984
0.00180536
0.0084194
0.0156931
0.011028
0.00895705
0.00777494
0.00689508
0.00619952
0.00563649
0.00517338
0.00478945
0.00447672
0.00422139
0.00402124
0.00388588
0.00382389
0.00383684
0.00391406
0.00403323
0.00416808
0.00429808
0.00441473
0.00452333
0.00464179
0.0047982
0.00502484
0.00534853
0.00576064
0.0061711
0.00650639
0.00672164
0.00681003
0.00679119
0.00668522
0.00647413
0.00594895
0.00509845
0.00467614
0.0015901
0.00391252
0.00487431
0.00632182
0.00508805
0.00364311
0.00292413
0.00254315
0.00226899
0.00204593
0.00185876
0.00169994
0.00156418
0.00144775
0.00134857
0.00126397
0.00119145
0.00112952
0.00107723
0.0010338
0.000998354
0.000969847
0.000947155
0.000929289
0.000915642
0.000906225
0.000901891
0.000904535
0.00091716
0.000943886
0.000996184
0.00107426
0.0011678
0.00125805
0.00132715
0.001364
0.00136267
0.00133875
0.00130347
0.00130008
0.00122793
)
;

boundaryField
{
    floor
    {
        type            compressible::alphatWallFunction;
        Prt             0.85;
        value           nonuniform List<scalar> 
29
(
0.000129914
5.72332e-05
6.31235e-05
6.42187e-05
5.10706e-05
3.81529e-05
3.17351e-05
2.98542e-05
2.89386e-05
2.98207e-05
3.1664e-05
3.55003e-05
4.07932e-05
4.68892e-05
5.37656e-05
6.17836e-05
7.0616e-05
7.63644e-05
7.50553e-05
6.60935e-05
6.60927e-05
8.63789e-05
0.000112143
0.000171358
0.000129912
5.72324e-05
7.8285e-05
0.000140712
0.000179676
)
;
    }
    ceiling
    {
        type            compressible::alphatWallFunction;
        Prt             0.85;
        value           nonuniform List<scalar> 
43
(
0.000516873
0.00063233
0.00080198
0.000657654
0.000484023
0.000395122
0.00034711
0.000312088
0.000283258
0.000258804
0.000237842
0.000219753
0.0002041
0.000190654
0.000179096
0.000169117
0.000160541
0.000153258
0.000147176
0.00014219
0.000138165
0.000134951
0.000132414
0.000130472
0.00012913
0.000128512
0.000128888
0.000130686
0.000134483
0.000141876
0.000152829
0.000165831
0.000178263
0.000187711
0.000192726
0.000192546
0.00018929
0.000184476
0.00018401
0.000174118
0.000519401
0.000588479
0.00104139
)
;
    }
    sWall
    {
        type            compressible::alphatWallFunction;
        Prt             0.85;
        value           uniform 0.000515732;
    }
    nWall
    {
        type            compressible::alphatWallFunction;
        Prt             0.85;
        value           nonuniform List<scalar> 6(0.000182379 0.000193578 0.000188599 0.000251363 0.000222815 0.000173769);
    }
    sideWalls
    {
        type            empty;
    }
    glass1
    {
        type            compressible::alphatWallFunction;
        Prt             0.85;
        value           nonuniform List<scalar> 9(0.000114697 0.000209581 0.000290761 0.000363888 0.00042887 0.000487437 0.000534743 0.000535112 0.000511957);
    }
    glass2
    {
        type            compressible::alphatWallFunction;
        Prt             0.85;
        value           nonuniform List<scalar> 2(0.000224548 0.000253275);
    }
    sun
    {
        type            compressible::alphatWallFunction;
        Prt             0.85;
        value           nonuniform List<scalar> 
14
(
0.000118186
0.00011935
9.96557e-05
0.000101708
0.000105113
0.000108589
0.000112059
0.000115579
0.000119284
0.000122814
0.000125848
0.000128222
0.000129838
0.000130641
)
;
    }
    heatsource1
    {
        type            compressible::alphatWallFunction;
        Prt             0.85;
        value           nonuniform List<scalar> 3(0.000230434 0.000207566 0.000182781);
    }
    heatsource2
    {
        type            compressible::alphatWallFunction;
        Prt             0.85;
        value           nonuniform List<scalar> 4(0.000141629 9.62272e-05 9.6226e-05 0.000154445);
    }
    Table_master
    {
        type            compressible::alphatWallFunction;
        Prt             0.85;
        value           nonuniform List<scalar> 9(6.96179e-05 4.97139e-05 4.36915e-05 5.29667e-05 6.22321e-05 7.18362e-05 8.2405e-05 9.47384e-05 0.000110234);
    }
    Table_slave
    {
        type            compressible::alphatWallFunction;
        Prt             0.85;
        value           nonuniform List<scalar> 9(0.000117982 0.000119186 0.000120719 0.000122215 0.00012373 0.000125516 0.000128155 0.000131877 0.000138705);
    }
    inlet
    {
        type            fixedValue;
        value           uniform 1.94e-05;
    }
    outlet
    {
        type            zeroGradient;
    }
}


// ************************************************************************* //
