/*--------------------------------*- C++ -*----------------------------------*\
  =========                 |
  \\      /  F ield         | OpenFOAM: The Open Source CFD Toolbox
   \\    /   O peration     | Website:  https://openfoam.org
    \\  /    A nd           | Version:  6
     \\/     M anipulation  |
\*---------------------------------------------------------------------------*/
FoamFile
{
    version     2.0;
    format      ascii;
    class       volScalarField;
    location    "200";
    object      nut;
}
// * * * * * * * * * * * * * * * * * * * * * * * * * * * * * * * * * * * * * //

dimensions      [0 2 -1 0 0 0 0];

internalField   nonuniform List<scalar> 
459
(
0.000713883
0.000720114
0.000603724
0.000615759
0.000635769
0.000656268
0.000676815
0.00069773
0.000719826
0.000740945
0.000759152
0.000773429
0.000783159
0.000787985
0.00078358
0.000361764
0.000394144
0.000400201
0.000328198
0.000259418
0.000226102
0.000216469
0.000211811
0.000216326
0.000225761
0.000245581
0.00027329
0.000305673
0.000342754
0.000386665
0.000435809
0.000468189
0.000460797
0.000410617
0.00131385
0.00238536
0.00143201
0.00218042
0.00240631
0.00255459
0.00270077
0.00283339
0.00293259
0.00299753
0.00301223
0.00294684
0.00275214
0.00234745
0.00165806
0.000853506
0.000582523
0.000479192
0.00106707
0.00124661
0.00129868
0.00118792
0.00077581
0.000384239
0.000285989
0.000282591
0.000347015
0.000481971
0.000674896
0.000909738
0.00116895
0.00136463
0.00160285
0.00156252
0.00156363
0.000525239
0.00185253
0.00441744
0.00169706
0.00275538
0.0036039
0.00384895
0.00400152
0.00411939
0.00419778
0.00423823
0.00421999
0.00410553
0.00383615
0.00333606
0.00257276
0.0016899
0.000931881
0.000847631
0.00237851
0.00223299
0.00202336
0.0016277
0.00110701
0.000429684
0.00032015
0.000287807
0.000337621
0.000388371
0.000441896
0.000501768
0.000572785
0.000663567
0.00153895
0.0014542
0.00117083
0.00067575
0.00235225
0.00690079
0.00264524
0.00265033
0.00403903
0.00451719
0.00473305
0.00488336
0.00499149
0.00506901
0.00511992
0.00510741
0.00496122
0.00457291
0.00383128
0.00276048
0.00168772
0.00108942
0.00280671
0.00287256
0.00267153
0.00217429
0.00163908
0.00111701
0.000711301
0.000718495
0.000727666
0.000736623
0.000745707
0.000756432
0.000772303
0.000794749
0.000836075
0.00209361
0.00284398
0.00301101
0.00103729
0.00280572
0.00949654
0.00459689
0.00301807
0.00384304
0.00452359
0.00490555
0.00515542
0.00533095
0.00547387
0.00565414
0.00586151
0.00606092
0.00619439
0.00618916
0.0059887
0.00561187
0.00519307
0.00515756
0.00490796
0.00456106
0.00423298
0.00395726
0.00374415
0.00359657
0.00354709
0.00350414
0.00346241
0.0034296
0.00342121
0.00345547
0.00353592
0.00366894
0.00385896
0.00396513
0.00389472
0.00328423
0.00141267
0.00126592
0.00110907
0.00322095
0.0117827
0.00773022
0.00498092
0.00414926
0.00422129
0.00460856
0.00496752
0.00520894
0.00537677
0.0056134
0.00593287
0.00632051
0.00672942
0.00708475
0.00730166
0.00731255
0.00711965
0.00681555
0.00643323
0.00604182
0.00569363
0.00539994
0.00515323
0.00493786
0.00474278
0.00455865
0.00438843
0.00424464
0.00414768
0.00411507
0.00414658
0.00422004
0.00428894
0.00432022
0.00426423
0.00392526
0.00325104
0.00244963
0.00117986
0.00356054
0.0130792
0.0109705
0.00818719
0.0062772
0.00514005
0.00481245
0.0049069
0.00506341
0.00514157
0.00529231
0.005552
0.00594231
0.00643777
0.00695786
0.00739008
0.00762772
0.00763096
0.00745611
0.00718154
0.0068766
0.00658243
0.00630867
0.00604838
0.00578906
0.00552704
0.00526726
0.00501502
0.00477738
0.00456841
0.00440161
0.00427855
0.00418511
0.00408196
0.00391698
0.00363273
0.00318053
0.00261603
0.00203916
0.00114849
0.00356485
0.0113482
0.0104079
0.00994421
0.00850083
0.00708383
0.00613548
0.0055931
0.0053114
0.00515755
0.0050872
0.00512465
0.00530641
0.00565669
0.00614991
0.00668794
0.00711701
0.00732524
0.00735072
0.00725273
0.00709388
0.00692012
0.006752
0.00658886
0.00641774
0.00622859
0.00602442
0.00581041
0.00558761
0.00536155
0.0051248
0.0048311
0.00447137
0.00406645
0.00364788
0.00325157
0.00290571
0.00256224
0.00222409
0.00138879
0.00340071
0.00389382
0.00918722
0.00987679
0.00893762
0.00779682
0.00680464
0.00604955
0.00551651
0.00514861
0.00490493
0.00477707
0.00476112
0.00487087
0.00512495
0.00550531
0.0059242
0.00627034
0.00649109
0.00659086
0.00660588
0.0065785
0.0065424
0.00651814
0.00651271
0.00651819
0.00652924
0.00654151
0.00654192
0.00649438
0.00637475
0.00622804
0.00609477
0.00602025
0.00598573
0.00575641
0.00501555
0.00430403
0.00412434
0.00157641
0.0208893
0.0182045
0.0107655
0.00856558
0.00733176
0.00647096
0.00583851
0.00536199
0.00499645
0.00471646
0.00450963
0.00437791
0.00433635
0.00440115
0.00456886
0.00480114
0.00504115
0.00524316
0.00538959
0.00548801
0.00555952
0.00562957
0.0057227
0.00585896
0.00604804
0.00628346
0.00652842
0.00667554
0.00671982
0.00668525
0.00660781
0.00653097
0.00647538
0.00640268
0.00614824
0.00539728
0.00498663
0.00155244
0.00726587
0.0135438
0.0095158
0.00772727
0.0067063
0.00594652
0.00534601
0.00486001
0.00446029
0.00412894
0.00385904
0.00363864
0.00346582
0.00334885
0.00329511
0.00330592
0.00337205
0.00347428
0.00358998
0.00370144
0.00380138
0.00389435
0.00399578
0.00412983
0.00432427
0.00460214
0.00495597
0.00530827
0.00559588
0.00578035
0.0058559
0.00583938
0.00574807
0.00556643
0.00511484
0.00438362
0.00402062
0.00136739
0.0033765
0.00420621
0.00545552
0.00439069
0.0031434
0.00252268
0.00219371
0.001957
0.00176444
0.00160288
0.00146581
0.00134865
0.00124817
0.00116258
0.00108957
0.00102697
0.000973523
0.000928387
0.000890885
0.000860266
0.000835628
0.000816002
0.000800533
0.000788699
0.000780506
0.000776689
0.000778877
0.000789652
0.000812556
0.000857452
0.000924505
0.00100484
0.00108234
0.00114164
0.00117323
0.00117201
0.00115137
0.00112097
0.001118
0.00105604
)
;

boundaryField
{
    floor
    {
        type            nutkWallFunction;
        Cmu             0.09;
        kappa           0.41;
        E               9.8;
        value           nonuniform List<scalar> 
29
(
9.49115e-05
4.17333e-05
4.60192e-05
4.68159e-05
3.72396e-05
2.783e-05
2.31547e-05
2.17849e-05
2.11181e-05
2.17607e-05
2.31023e-05
2.58958e-05
2.97498e-05
3.41878e-05
3.9194e-05
4.50324e-05
5.14666e-05
5.56545e-05
5.47002e-05
4.8178e-05
4.81779e-05
6.29472e-05
8.17509e-05
0.000125097
9.49115e-05
4.17332e-05
5.7072e-05
0.000102626
0.000131185
)
;
    }
    ceiling
    {
        type            nutkWallFunction;
        Cmu             0.09;
        kappa           0.41;
        E               9.8;
        value           nonuniform List<scalar> 
43
(
0.00037912
0.00046378
0.000588241
0.00048236
0.000354959
0.000289719
0.000254479
0.000228777
0.000207622
0.000189681
0.000174304
0.000161035
0.000149554
0.000139691
0.000131213
0.000123894
0.000117603
0.00011226
0.000107797
0.000104137
0.000101181
9.88194e-05
9.69534e-05
9.55233e-05
9.45322e-05
9.40708e-05
9.43372e-05
9.56432e-05
9.84103e-05
0.000103807
0.000111805
0.000121299
0.000130374
0.000137268
0.000140924
0.000140783
0.000138395
0.000134869
0.000134523
0.000127302
0.000381678
0.000432176
0.000763868
)
;
    }
    sWall
    {
        type            nutkWallFunction;
        Cmu             0.09;
        kappa           0.41;
        E               9.8;
        value           uniform 0.000379194;
    }
    nWall
    {
        type            nutkWallFunction;
        Cmu             0.09;
        kappa           0.41;
        E               9.8;
        value           nonuniform List<scalar> 6(0.000133484 0.000141689 0.000138061 0.000184034 0.000163167 0.000127309);
    }
    sideWalls
    {
        type            empty;
    }
    glass1
    {
        type            nutkWallFunction;
        Cmu             0.09;
        kappa           0.41;
        E               9.8;
        value           nonuniform List<scalar> 9(8.63981e-05 0.000157239 0.000217613 0.000271895 0.000320089 0.000363508 0.000398591 0.000399049 0.000382162);
    }
    glass2
    {
        type            nutkWallFunction;
        Cmu             0.09;
        kappa           0.41;
        E               9.8;
        value           nonuniform List<scalar> 2(0.000165652 0.000186791);
    }
    sun
    {
        type            nutkWallFunction;
        Cmu             0.09;
        kappa           0.41;
        E               9.8;
        value           nonuniform List<scalar> 
14
(
8.64308e-05
8.71939e-05
7.28181e-05
7.43188e-05
7.68065e-05
7.93453e-05
8.18804e-05
8.44515e-05
8.71577e-05
8.97351e-05
9.19501e-05
9.36826e-05
9.4861e-05
9.54447e-05
)
;
    }
    heatsource1
    {
        type            nutkWallFunction;
        Cmu             0.09;
        kappa           0.41;
        E               9.8;
        value           nonuniform List<scalar> 3(0.000168274 0.00015157 0.000133473);
    }
    heatsource2
    {
        type            nutkWallFunction;
        Cmu             0.09;
        kappa           0.41;
        E               9.8;
        value           nonuniform List<scalar> 4(0.00010333 7.01714e-05 7.01714e-05 0.00011267);
    }
    Table_master
    {
        type            nutkWallFunction;
        Cmu             0.09;
        kappa           0.41;
        E               9.8;
        value           nonuniform List<scalar> 9(5.06778e-05 3.61648e-05 3.17675e-05 3.85185e-05 4.52653e-05 5.22613e-05 5.99628e-05 6.89531e-05 8.02517e-05);
    }
    Table_slave
    {
        type            nutkWallFunction;
        Cmu             0.09;
        kappa           0.41;
        E               9.8;
        value           nonuniform List<scalar> 9(8.61164e-05 8.69963e-05 8.81168e-05 8.92096e-05 9.03164e-05 9.1621e-05 9.35475e-05 9.62632e-05 0.00010124);
    }
    inlet
    {
        type            calculated;
        value           uniform 3.3541e-05;
    }
    outlet
    {
        type            calculated;
        value           nonuniform List<scalar> 2(0.0033765 0.00420621);
    }
}


// ************************************************************************* //
