/*--------------------------------*- C++ -*----------------------------------*\
  =========                 |
  \\      /  F ield         | OpenFOAM: The Open Source CFD Toolbox
   \\    /   O peration     | Website:  https://openfoam.org
    \\  /    A nd           | Version:  6
     \\/     M anipulation  |
\*---------------------------------------------------------------------------*/
FoamFile
{
    version     2.0;
    format      ascii;
    class       volVectorField;
    location    "300";
    object      U;
}
// * * * * * * * * * * * * * * * * * * * * * * * * * * * * * * * * * * * * * //

dimensions      [0 1 -1 0 0 0 0];

internalField   nonuniform List<vector> 
459
(
(-0.121592 -0.119328 0)
(0.160891 -0.0535539 0)
(0.196472 -0.0373547 0)
(0.19911 -0.0265805 0)
(0.207172 -0.0166388 0)
(0.211502 -0.00975804 0)
(0.208481 -0.00516486 0)
(0.200972 -0.00182718 0)
(0.191179 0.000863907 0)
(0.179673 0.00325499 0)
(0.166151 0.00571437 0)
(0.149751 0.00880469 0)
(0.128654 0.0136969 0)
(0.0965862 0.024402 0)
(0.0933684 0.0532471 0)
(-0.119355 -0.00129153 0)
(0.0435846 -0.01074 0)
(0.0385278 -0.0129566 0)
(0.0460946 -0.0105457 0)
(0.0568758 -0.00686701 0)
(0.0634323 -0.00397393 0)
(0.0656904 -0.00269193 0)
(0.066246 -0.00214371 0)
(0.0667278 -0.0017656 0)
(0.0672701 -0.00146827 0)
(0.0676304 -0.00122635 0)
(0.0676329 -0.000950014 0)
(0.0670429 -0.000493202 0)
(0.0653785 0.000375422 0)
(0.061718 0.00212512 0)
(0.0544321 0.00553495 0)
(0.0470488 0.00976036 0)
(-0.0320071 0.0209232 0)
(0.153062 -0.00834695 0)
(-0.298065 -0.158944 0)
(0.168833 -0.0545005 0)
(0.139434 -0.0452868 0)
(0.140068 -0.0251267 0)
(0.149892 -0.00640517 0)
(0.153644 0.00497926 0)
(0.150833 0.0110287 0)
(0.145003 0.0146032 0)
(0.137884 0.0171233 0)
(0.129833 0.0193666 0)
(0.12078 0.0220662 0)
(0.110606 0.026103 0)
(0.0996025 0.0327291 0)
(0.0871192 0.0441989 0)
(0.0903684 0.0670855 0)
(0.0810631 0.0595382 0)
(0.0490357 0.0503907 0)
(-0.16458 -0.00532071 0)
(0.0481534 -0.0335943 0)
(0.039993 -0.0283219 0)
(0.0470508 -0.0195163 0)
(0.055119 -0.0101092 0)
(0.0584922 -0.0027623 0)
(0.0585819 -0.00098619 0)
(0.0582262 -0.00048092 0)
(0.05842 -1.80689e-05 0)
(0.0587677 0.000436446 0)
(0.0590312 0.000896422 0)
(0.0592149 0.00154818 0)
(0.059245 0.00264685 0)
(0.0589773 0.00464465 0)
(0.0577386 0.00858348 0)
(0.0522892 0.0177931 0)
(0.0475709 0.0247689 0)
(-0.0276765 0.0340794 0)
(0.206901 0.017499 0)
(-0.426031 -0.20266 0)
(0.193034 -0.100224 0)
(0.0794737 -0.0791541 0)
(0.0835449 -0.0399836 0)
(0.0928089 -0.0134761 0)
(0.0932806 0.0013172 0)
(0.090089 0.0100028 0)
(0.086388 0.0156581 0)
(0.08269 0.0197698 0)
(0.0788855 0.0233272 0)
(0.0749746 0.0272473 0)
(0.0711359 0.0324394 0)
(0.0678696 0.0398106 0)
(0.0643899 0.0500635 0)
(0.0665299 0.0647594 0)
(0.0596861 0.0613059 0)
(0.0447661 0.0739245 0)
(-0.0915634 -0.029212 0)
(0.0414868 -0.0481574 0)
(0.0510801 -0.0423887 0)
(0.0538744 -0.0284829 0)
(0.0568649 -0.0137294 0)
(0.0555077 -0.00108018 0)
(0.0496587 -0.00265204 0)
(0.0474025 -0.00292407 0)
(0.0467953 -0.00312793 0)
(0.0463077 -0.00326147 0)
(0.045802 -0.00335179 0)
(0.045565 -0.00326802 0)
(0.0461108 -0.00272176 0)
(0.048366 -0.00122608 0)
(0.0544072 0.00328154 0)
(0.0522267 0.0228173 0)
(0.0481991 0.0339748 0)
(-0.0261453 0.0426599 0)
(0.237288 0.0409528 0)
(-0.526346 -0.222681 0)
(0.214353 -0.133066 0)
(0.0106377 -0.0936803 0)
(0.028839 -0.0368536 0)
(0.0345111 -0.00836156 0)
(0.0316875 0.00534593 0)
(0.0301587 0.0132105 0)
(0.0299479 0.0183683 0)
(0.03027 0.0221148 0)
(0.0308212 0.0253903 0)
(0.0317065 0.0289983 0)
(0.0332327 0.0336462 0)
(0.0358725 0.0399281 0)
(0.0392488 0.0482174 0)
(0.0475303 0.0598792 0)
(0.057823 0.0654176 0)
(0.0715338 0.0778809 0)
(0.0996446 -0.0641491 0)
(0.092789 -0.0512879 0)
(0.0835082 -0.0516043 0)
(0.071097 -0.0439738 0)
(0.0629762 -0.0295164 0)
(0.0601992 -0.0139788 0)
(0.0617858 0.000697044 0)
(0.0642818 0.0021117 0)
(0.0618819 0.00104919 0)
(0.0576645 0.000606575 0)
(0.0528961 0.000569877 0)
(0.047367 0.000782746 0)
(0.0406042 0.00125885 0)
(0.0322335 0.00220633 0)
(0.022056 0.00425996 0)
(-0.00916914 0.0068602 0)
(0.0206041 0.0338006 0)
(0.0334114 0.0394415 0)
(-0.02818 0.0435709 0)
(0.25417 0.0730621 0)
(-0.582068 -0.220959 0)
(0.199134 -0.146098 0)
(-0.0564599 -0.0946174 0)
(-0.0136394 -0.0276925 0)
(-0.0157351 -0.00383919 0)
(-0.0187117 0.00641793 0)
(-0.0182315 0.0126326 0)
(-0.0163333 0.0169794 0)
(-0.0136245 0.0202683 0)
(-0.0102846 0.0230833 0)
(-0.00617661 0.0259591 0)
(-0.000873636 0.0294719 0)
(0.00632117 0.0342104 0)
(0.0152498 0.0403953 0)
(0.0292188 0.0486014 0)
(0.046856 0.0522478 0)
(0.069287 0.0492935 0)
(0.0875751 0.00459407 0)
(0.0844903 -0.0190529 0)
(0.0705692 -0.0305562 0)
(0.057447 -0.0291334 0)
(0.0476193 -0.0199886 0)
(0.0416197 -0.009055 0)
(0.0388874 0.000142838 0)
(0.0365563 0.00356265 0)
(0.0333926 0.00501533 0)
(0.0293756 0.00640185 0)
(0.0248381 0.00793065 0)
(0.0195574 0.00969314 0)
(0.0131814 0.0119243 0)
(0.0060391 0.0147847 0)
(-0.00113728 0.0174391 0)
(-0.0121995 0.0146141 0)
(-0.000341473 0.0154695 0)
(0.0233221 0.0263233 0)
(-0.00768402 0.0245739 0)
(0.124815 0.0660122 0)
(0.0854047 0.0637059 0)
(-0.0924673 0.0604022 0)
(0.323553 -0.0200399 0)
(-0.621473 -0.201249 0)
(0.163787 -0.141925 0)
(-0.085268 -0.0944028 0)
(-0.0422425 -0.026036 0)
(-0.0480964 -0.00272124 0)
(-0.0514925 0.00626876 0)
(-0.0517139 0.0108998 0)
(-0.0499779 0.0140049 0)
(-0.0467595 0.0163341 0)
(-0.0422944 0.0181993 0)
(-0.0365764 0.0198787 0)
(-0.0293623 0.0217032 0)
(-0.0202046 0.0240322 0)
(-0.00898001 0.0270122 0)
(0.00766354 0.030628 0)
(0.0259013 0.0293718 0)
(0.0461026 0.0200341 0)
(0.0551017 -0.00383635 0)
(0.0525607 -0.0197784 0)
(0.0422956 -0.0240448 0)
(0.0308687 -0.0201212 0)
(0.0212698 -0.0121894 0)
(0.0146336 -0.00373794 0)
(0.0106572 0.00316275 0)
(0.00875293 0.00676079 0)
(0.00662894 0.00845895 0)
(0.00381198 0.0100741 0)
(0.000331892 0.0121704 0)
(-0.00376495 0.0148143 0)
(-0.00792236 0.0177341 0)
(-0.0110776 0.0201679 0)
(-0.0124684 0.0198175 0)
(-0.0136841 0.0126874 0)
(-0.00876794 0.00392895 0)
(0.00178062 0.00384955 0)
(-0.0141048 -0.00798721 0)
(0.035315 0.0318159 0)
(0.0338326 0.0593415 0)
(-0.127797 0.0716594 0)
(0.32778 -0.0403674 0)
(-0.664214 -0.164578 0)
(0.130022 -0.126228 0)
(-0.106751 -0.0992671 0)
(-0.0608746 -0.0237231 0)
(-0.068046 0.000311697 0)
(-0.0713995 0.00767346 0)
(-0.0726597 0.0102271 0)
(-0.0717956 0.0114097 0)
(-0.0690381 0.0120888 0)
(-0.0646369 0.0124331 0)
(-0.0586954 0.0125236 0)
(-0.05116 0.0125134 0)
(-0.0418931 0.0125502 0)
(-0.0308113 0.0126349 0)
(-0.0171852 0.0127073 0)
(-0.0019978 0.0108289 0)
(0.0126181 0.00507924 0)
(0.0174049 -0.00539593 0)
(0.0156129 -0.0129508 0)
(0.00837181 -0.0141666 0)
(-0.000319237 -0.0103961 0)
(-0.00738856 -0.0046001 0)
(-0.0119956 0.000890751 0)
(-0.0138547 0.00512896 0)
(-0.0145415 0.00799779 0)
(-0.0153813 0.0101536 0)
(-0.0166561 0.0123393 0)
(-0.0181965 0.0147749 0)
(-0.0196547 0.0173017 0)
(-0.0204558 0.0194377 0)
(-0.0198929 0.0201797 0)
(-0.0178874 0.0176537 0)
(-0.0158521 0.0102802 0)
(-0.0136328 0.00237908 0)
(-0.0119597 -0.000914742 0)
(-0.0167762 -0.000842398 0)
(-0.000929448 0.0274609 0)
(0.00672605 0.0737663 0)
(-0.169408 0.0822658 0)
(0.412611 -0.0481205 0)
(-0.711394 -0.0949699 0)
(0.0926305 -0.0927183 0)
(-0.13433 -0.122473 0)
(-0.0729705 -0.0344968 0)
(-0.0788297 0.00170224 0)
(-0.080335 0.0101849 0)
(-0.0820398 0.0109762 0)
(-0.0818946 0.010092 0)
(-0.0798659 0.00894125 0)
(-0.0762691 0.0076838 0)
(-0.0712711 0.00627748 0)
(-0.0649496 0.00480968 0)
(-0.0574197 0.00338936 0)
(-0.0488246 0.00214722 0)
(-0.0392787 0.00122886 0)
(-0.0295197 0.00021945 0)
(-0.0211684 -0.00151236 0)
(-0.0170165 -0.00486939 0)
(-0.0174006 -0.00734574 0)
(-0.0210951 -0.00672387 0)
(-0.0254101 -0.00384501 0)
(-0.0287004 -0.000261933 0)
(-0.0304763 0.00306703 0)
(-0.0307771 0.00593425 0)
(-0.0304969 0.00850713 0)
(-0.0301028 0.0109245 0)
(-0.0296948 0.0133074 0)
(-0.0291173 0.0156209 0)
(-0.0280977 0.017614 0)
(-0.026303 0.0187834 0)
(-0.0234733 0.0183046 0)
(-0.0198709 0.0151022 0)
(-0.0165267 0.00894676 0)
(-0.0138008 0.0024798 0)
(-0.0114107 -0.00146666 0)
(-0.00873706 -0.000615436 0)
(0.00589263 0.0206726 0)
(0.0348104 0.0682515 0)
(-0.130229 0.0626344 0)
(0.698497 -0.00351198 0)
(-0.776418 0.0798194 0)
(0.0329249 -0.0528003 0)
(-0.178788 -0.158886 0)
(-0.0594631 -0.0525329 0)
(-0.0712506 0.00718523 0)
(-0.0751511 0.0171439 0)
(-0.0769087 0.0155725 0)
(-0.076357 0.0126003 0)
(-0.0744004 0.00990406 0)
(-0.0715612 0.00743862 0)
(-0.0678921 0.00500342 0)
(-0.0634282 0.00262423 0)
(-0.0585995 0.000506363 0)
(-0.0535377 -0.00114899 0)
(-0.0483633 -0.00213785 0)
(-0.0433582 -0.00252441 0)
(-0.0391226 -0.00266054 0)
(-0.0366477 -0.00291777 0)
(-0.036313 -0.00252752 0)
(-0.0373517 -0.000876826 0)
(-0.0385479 0.00162327 0)
(-0.0393241 0.0043282 0)
(-0.0394041 0.00667114 0)
(-0.0388631 0.00888505 0)
(-0.0378777 0.0111069 0)
(-0.0365506 0.0133017 0)
(-0.0348933 0.0153865 0)
(-0.0328381 0.0172158 0)
(-0.0302857 0.0185265 0)
(-0.0271535 0.018891 0)
(-0.0234783 0.0177134 0)
(-0.019626 0.0144025 0)
(-0.0162831 0.00901306 0)
(-0.0136402 0.00279772 0)
(-0.0111502 -0.00246562 0)
(-0.00673868 -0.00389966 0)
(0.00906452 0.00827525 0)
(0.0389429 0.0387367 0)
(-0.092632 0.0309091 0)
(0.690233 0.0385108 0)
(-0.198147 -0.097137 0)
(-0.0143201 -0.0317462 0)
(-0.0416424 0.0213856 0)
(-0.0582182 0.0219681 0)
(-0.0575568 0.0152742 0)
(-0.0541401 0.00931565 0)
(-0.0509026 0.0046396 0)
(-0.0481101 0.000449337 0)
(-0.0455428 -0.00396429 0)
(-0.043654 -0.00757018 0)
(-0.042229 -0.0104288 0)
(-0.0412103 -0.0124951 0)
(-0.0404733 -0.0135321 0)
(-0.0399093 -0.0134278 0)
(-0.0395956 -0.0123096 0)
(-0.0397658 -0.0102989 0)
(-0.0405241 -0.00736553 0)
(-0.0414578 -0.00378855 0)
(-0.0419972 -6.62783e-05 0)
(-0.0420262 0.00337635 0)
(-0.0416148 0.00557364 0)
(-0.0407747 0.00741189 0)
(-0.0394665 0.00907774 0)
(-0.0376489 0.0105553 0)
(-0.0352961 0.0117601 0)
(-0.0324029 0.0125602 0)
(-0.0290058 0.0127536 0)
(-0.0252231 0.0120402 0)
(-0.0213199 0.010029 0)
(-0.0177806 0.00636089 0)
(-0.0152619 0.000992969 0)
(-0.0144605 -0.0059546 0)
(-0.0155637 -0.0124463 0)
(-0.0164589 -0.0152735 0)
(-0.0127573 -0.00718168 0)
(-0.0110075 0.0131426 0)
(-0.137374 0.0130383 0)
(0.40543 0.0684184 0)
(-0.254824 -0.182618 0)
(-0.0404873 -0.133896 0)
(-0.0468094 -0.106356 0)
(-0.0406365 -0.101211 0)
(-0.0298395 -0.10304 0)
(-0.0223936 -0.104708 0)
(-0.0179605 -0.103415 0)
(-0.0153226 -0.101622 0)
(-0.0143303 -0.0997844 0)
(-0.014783 -0.0982136 0)
(-0.0164318 -0.0969064 0)
(-0.0189449 -0.0957339 0)
(-0.0218782 -0.0945689 0)
(-0.0246915 -0.0934925 0)
(-0.0273761 -0.093242 0)
(-0.0301015 -0.0940728 0)
(-0.0329866 -0.0950849 0)
(-0.035683 -0.0963176 0)
(-0.0378042 -0.0974421 0)
(-0.0389938 -0.0967267 0)
(-0.0393743 -0.0953449 0)
(-0.0391681 -0.094041 0)
(-0.0383737 -0.0927167 0)
(-0.036953 -0.09127 0)
(-0.0348758 -0.0896931 0)
(-0.0321478 -0.0880789 0)
(-0.0288401 -0.0866549 0)
(-0.0251385 -0.0858265 0)
(-0.0214212 -0.0861574 0)
(-0.0183216 -0.088131 0)
(-0.0166046 -0.0913957 0)
(-0.0172115 -0.0931458 0)
(-0.0206043 -0.0932656 0)
(-0.0249988 -0.0944567 0)
(-0.029188 -0.0928665 0)
(-0.0462944 -0.0779037 0)
(-0.111689 -0.0641534 0)
(0.32797 -0.0413108 0)
(-1.02925 -0.0646237 0)
(0.284258 0.166871 0)
(0.0183025 0.616744 0)
(0.0379278 0.506218 0)
(0.0586527 0.432219 0)
(0.0638356 0.406326 0)
(0.0619499 0.397405 0)
(0.0580367 0.392377 0)
(0.0532231 0.385152 0)
(0.0480271 0.37858 0)
(0.0421396 0.373074 0)
(0.0355556 0.368623 0)
(0.0282934 0.365023 0)
(0.0203878 0.362104 0)
(0.0119652 0.359873 0)
(0.00335906 0.358163 0)
(-0.00591 0.355898 0)
(-0.0136435 0.354847 0)
(-0.0203545 0.355149 0)
(-0.0256667 0.356867 0)
(-0.0296564 0.359453 0)
(-0.0324088 0.359653 0)
(-0.0339356 0.359535 0)
(-0.0344185 0.35993 0)
(-0.0339799 0.360534 0)
(-0.0326977 0.361114 0)
(-0.0306801 0.361508 0)
(-0.0280861 0.361589 0)
(-0.0251541 0.361279 0)
(-0.0222268 0.360603 0)
(-0.0197725 0.359757 0)
(-0.0184637 0.359087 0)
(-0.0193058 0.358546 0)
(-0.0227603 0.354496 0)
(-0.0268945 0.347398 0)
(-0.0283302 0.343614 0)
(-0.0332145 0.343056 0)
(-0.0710034 0.335693 0)
(-0.154263 0.341659 0)
(0.451303 0.391015 0)
)
;

boundaryField
{
    floor
    {
        type            noSlip;
    }
    ceiling
    {
        type            noSlip;
    }
    sWall
    {
        type            noSlip;
    }
    nWall
    {
        type            noSlip;
    }
    sideWalls
    {
        type            empty;
    }
    glass1
    {
        type            noSlip;
    }
    glass2
    {
        type            noSlip;
    }
    sun
    {
        type            noSlip;
    }
    heatsource1
    {
        type            noSlip;
    }
    heatsource2
    {
        type            noSlip;
    }
    Table_master
    {
        type            noSlip;
    }
    Table_slave
    {
        type            noSlip;
    }
    inlet
    {
        type            fixedValue;
        value           uniform (0.2 0 0);
    }
    outlet
    {
        type            zeroGradient;
    }
}


// ************************************************************************* //
