// -*- C++ -*-
// File generated by PyFoam - sorry for the ugliness

FoamFile
{
 version 2.0;
 format ascii;
 class volVectorField;
 location "1400";
 object U;
}

dimensions [ 0 1 -1 0 0 0 0 ];

internalField nonuniform List<vector> 459
(
  (0.033105 0.0854147 0)
  (-0.166026 0.0256259 0)
  (-0.190545 0.0178398 0)
  (-0.22114 0.0123426 0)
  (-0.243484 0.00633382 0)
  (-0.256741 3.28117e-05 0)
  (-0.259584 -0.00661666 0)
  (-0.250789 -0.0136187 0)
  (-0.231008 -0.0205107 0)
  (-0.201673 -0.0262436 0)
  (-0.165754 -0.0299751 0)
  (-0.12666 -0.0314376 0)
  (-0.0876327 -0.0311619 0)
  (-0.0534368 -0.0308086 0)
  (-0.0377867 -0.0321167 0)
  (-0.00253215 0.00740159 0)
  (-0.0222844 -0.0174981 0)
  (0.0014238 -0.0261802 0)
  (0.0222487 -0.0193849 0)
  (0.0378931 -0.0130003 0)
  (0.0494358 -0.00829063 0)
  (0.0562441 -0.00497173 0)
  (0.0596407 -0.00323906 0)
  (0.06119 -0.00248906 0)
  (0.0620056 -0.00212509 0)
  (0.0625189 -0.00188863 0)
  (0.0627822 -0.00169483 0)
  (0.0627354 -0.00146177 0)
  (0.062173 -0.00100914 0)
  (0.0605289 3.73647e-05 0)
  (0.0566064 0.00222102 0)
  (0.0490848 0.00459881 0)
  (0.0413275 0.00665692 0)
  (-0.0105378 0.0203421 0)
  (0.205508 0.174522 0)
  (-0.154288 0.0670607 0)
  (-0.152534 0.052123 0)
  (-0.183776 0.0406791 0)
  (-0.205589 0.0278781 0)
  (-0.218802 0.0137131 0)
  (-0.222075 -0.00207787 0)
  (-0.213982 -0.019065 0)
  (-0.195702 -0.0351435 0)
  (-0.169043 -0.0478114 0)
  (-0.137201 -0.0552793 0)
  (-0.103589 -0.057076 0)
  (-0.0714297 -0.0538842 0)
  (-0.0444822 -0.0472941 0)
  (-0.027371 -0.0384713 0)
  (-0.0137929 -0.0188842 0)
  (-0.00720902 0.0131415 0)
  (0.0601991 0.031236 0)
  (0.0315795 -0.0198188 0)
  (0.0385601 -0.0304943 0)
  (0.0492909 -0.0258099 0)
  (0.0576788 -0.0177247 0)
  (0.0632073 -0.010359 0)
  (0.0653731 -0.00427162 0)
  (0.0656764 -0.000902446 0)
  (0.065591 0.00053941 0)
  (0.0656743 0.00121651 0)
  (0.0658351 0.00164865 0)
  (0.0659482 0.00202448 0)
  (0.0659749 0.00250124 0)
  (0.0658615 0.00343329 0)
  (0.0650751 0.00571173 0)
  (0.0611966 0.0120109 0)
  (0.051449 0.0173863 0)
  (0.0451803 0.0212222 0)
  (-0.0440517 0.0439546 0)
  (0.363465 0.260783 0)
  (-0.170081 0.106355 0)
  (-0.113936 0.0838764 0)
  (-0.143736 0.0635172 0)
  (-0.162703 0.0425144 0)
  (-0.174539 0.0196009 0)
  (-0.177086 -0.00600503 0)
  (-0.168088 -0.033135 0)
  (-0.149789 -0.0580386 0)
  (-0.124758 -0.0766616 0)
  (-0.0964766 -0.0866036 0)
  (-0.0679125 -0.0877416 0)
  (-0.04136 -0.0812339 0)
  (-0.0190305 -0.0686443 0)
  (-0.00276733 -0.0510128 0)
  (0.00970102 -0.0253862 0)
  (0.0164497 0.00892983 0)
  (0.10553 -0.0392951 0)
  (0.0728753 -0.0431419 0)
  (0.0689325 -0.0393505 0)
  (0.071105 -0.0314806 0)
  (0.0726338 -0.0223284 0)
  (0.0734364 -0.0146627 0)
  (0.0716924 -0.0119632 0)
  (0.0677149 -0.00857144 0)
  (0.0649738 -0.00673652 0)
  (0.0637307 -0.00568815 0)
  (0.0631892 -0.00502186 0)
  (0.0629331 -0.0045579 0)
  (0.0629903 -0.004111 0)
  (0.063828 -0.00331122 0)
  (0.0666518 -0.00019492 0)
  (0.0646015 0.0169894 0)
  (0.0513364 0.0291653 0)
  (0.0508504 0.0377975 0)
  (-0.0735666 0.0690257 0)
  (0.50556 0.329965 0)
  (-0.20351 0.140998 0)
  (-0.0737148 0.110426 0)
  (-0.10128 0.0824115 0)
  (-0.114408 0.0554801 0)
  (-0.122276 0.0255251 0)
  (-0.121144 -0.00954764 0)
  (-0.108818 -0.0471955 0)
  (-0.089696 -0.0801443 0)
  (-0.0670445 -0.103158 0)
  (-0.0440828 -0.114031 0)
  (-0.0226108 -0.113766 0)
  (-0.00341011 -0.104165 0)
  (0.0129749 -0.0869625 0)
  (0.0263839 -0.0650605 0)
  (0.0407191 -0.0390838 0)
  (0.0628133 -0.0125027 0)
  (0.0933246 -4.09477e-05 0)
  (0.101002 -0.0330072 0)
  (0.0874686 -0.0382463 0)
  (0.0789293 -0.0339954 0)
  (0.074784 -0.0276977 0)
  (0.0720864 -0.0203075 0)
  (0.0708263 -0.0117473 0)
  (0.0725858 -0.0068945 0)
  (0.076685 -0.00545831 0)
  (0.0800757 -0.00465213 0)
  (0.0823772 -0.00402245 0)
  (0.0837815 -0.00320412 0)
  (0.083723 -0.00194235 0)
  (0.0811474 -2.47579e-05 0)
  (0.074821 0.00283665 0)
  (0.0619583 0.00717471 0)
  (0.0510214 0.0273906 0)
  (0.0403523 0.0441455 0)
  (0.0537698 0.0576581 0)
  (-0.104084 0.0918118 0)
  (0.627571 0.383466 0)
  (-0.244317 0.169226 0)
  (-0.0346673 0.125079 0)
  (-0.0572105 0.0925924 0)
  (-0.0619649 0.062354 0)
  (-0.0627241 0.0275166 0)
  (-0.051833 -0.0161872 0)
  (-0.0339317 -0.0631043 0)
  (-0.0150085 -0.100642 0)
  (0.00269571 -0.124435 0)
  (0.0171935 -0.133167 0)
  (0.0285644 -0.129886 0)
  (0.0373325 -0.117636 0)
  (0.0442116 -0.0989483 0)
  (0.0503362 -0.0764865 0)
  (0.0576791 -0.0528945 0)
  (0.06883 -0.0336135 0)
  (0.0792805 -0.0289383 0)
  (0.0808638 -0.0347163 0)
  (0.0743381 -0.0334581 0)
  (0.0663431 -0.028474 0)
  (0.0602498 -0.0228969 0)
  (0.0559694 -0.017166 0)
  (0.0537134 -0.0112988 0)
  (0.0538373 -0.00620001 0)
  (0.0559852 -0.00386987 0)
  (0.0583776 -0.00303005 0)
  (0.0607025 -0.00232132 0)
  (0.0628592 -0.000811467 0)
  (0.0644689 0.00204916 0)
  (0.0643617 0.00637036 0)
  (0.0619533 0.012322 0)
  (0.0565537 0.0205552 0)
  (0.0500008 0.0359438 0)
  (0.0409847 0.0544061 0)
  (0.0620309 0.0748615 0)
  (-0.0172095 0.104024 0)
  (0.0455984 0.034082 0)
  (-0.0610634 -0.0342444 0)
  (-0.268973 -0.0565446 0)
  (0.715253 0.428013 0)
  (-0.283634 0.18805 0)
  (-0.00560576 0.119911 0)
  (-0.0118029 0.0916957 0)
  (-0.00498126 0.0623672 0)
  (0.00522894 0.0208224 0)
  (0.0338927 -0.0334811 0)
  (0.0549788 -0.0816967 0)
  (0.0698265 -0.116091 0)
  (0.0783898 -0.135274 0)
  (0.0814381 -0.140441 0)
  (0.0804587 -0.134309 0)
  (0.0768213 -0.119911 0)
  (0.0719315 -0.100233 0)
  (0.067267 -0.0781689 0)
  (0.06419 -0.0564035 0)
  (0.06359 -0.0386534 0)
  (0.0631094 -0.0294893 0)
  (0.0590744 -0.0271053 0)
  (0.0514676 -0.0248999 0)
  (0.0432442 -0.0212528 0)
  (0.036671 -0.0172632 0)
  (0.0321719 -0.0134049 0)
  (0.0299125 -0.0097349 0)
  (0.0298614 -0.00691978 0)
  (0.0315459 -0.00600254 0)
  (0.0340436 -0.0059908 0)
  (0.037013 -0.00570897 0)
  (0.0402937 -0.00419742 0)
  (0.0436711 -0.000598408 0)
  (0.0466478 0.00535455 0)
  (0.0482034 0.0133586 0)
  (0.0485506 0.0236172 0)
  (0.0491036 0.0378901 0)
  (0.0484185 0.0557689 0)
  (0.0704244 0.0785665 0)
  (0.0523144 0.0970286 0)
  (0.091594 0.0681748 0)
  (0.114543 0.0445934 0)
  (-0.127915 -0.00710491 0)
  (0.768052 0.468633 0)
  (-0.302204 0.173433 0)
  (0.0220585 0.0677247 0)
  (0.0494539 0.0629973 0)
  (0.0701309 0.0440672 0)
  (0.102974 -0.00348639 0)
  (0.134765 -0.0571556 0)
  (0.153129 -0.0982154 0)
  (0.159196 -0.124013 0)
  (0.155041 -0.135519 0)
  (0.143289 -0.134879 0)
  (0.126798 -0.124938 0)
  (0.108107 -0.108596 0)
  (0.0893722 -0.0887736 0)
  (0.0723457 -0.0680551 0)
  (0.0581366 -0.0485028 0)
  (0.0472576 -0.0327616 0)
  (0.0385999 -0.0232031 0)
  (0.0301773 -0.0188681 0)
  (0.0216304 -0.0164608 0)
  (0.0139681 -0.0141497 0)
  (0.0081615 -0.0120004 0)
  (0.00440263 -0.0101771 0)
  (0.00268336 -0.00868577 0)
  (0.00283014 -0.0079045 0)
  (0.00434024 -0.00819859 0)
  (0.00660559 -0.00892112 0)
  (0.00941084 -0.00923203 0)
  (0.0128055 -0.00828505 0)
  (0.0169231 -0.00506719 0)
  (0.0226884 0.00138023 0)
  (0.0284065 0.010154 0)
  (0.0338491 0.0205072 0)
  (0.0408416 0.0331054 0)
  (0.0486599 0.0476956 0)
  (0.0704423 0.0660392 0)
  (0.0840842 0.074294 0)
  (0.115983 0.05231 0)
  (0.155449 0.0440024 0)
  (-0.0359257 0.0926531 0)
  (0.872817 0.470002 0)
  (-0.0644778 0.152109 0)
  (0.10994 -0.0138884 0)
  (0.181683 -0.0410414 0)
  (0.212218 -0.0526886 0)
  (0.243722 -0.0752106 0)
  (0.261548 -0.0975077 0)
  (0.262386 -0.113392 0)
  (0.247815 -0.120892 0)
  (0.221913 -0.120056 0)
  (0.189171 -0.112112 0)
  (0.153625 -0.0988729 0)
  (0.118421 -0.0820971 0)
  (0.0859529 -0.0639726 0)
  (0.0578356 -0.0464192 0)
  (0.0346909 -0.0306379 0)
  (0.0173111 -0.0187663 0)
  (0.00477748 -0.0121093 0)
  (-0.0048331 -0.0094893 0)
  (-0.0121682 -0.00869763 0)
  (-0.017976 -0.00827821 0)
  (-0.0221932 -0.00806105 0)
  (-0.024936 -0.00806372 0)
  (-0.0263556 -0.00831113 0)
  (-0.0266887 -0.00896444 0)
  (-0.026345 -0.0100774 0)
  (-0.0257031 -0.0113337 0)
  (-0.0248663 -0.0122893 0)
  (-0.0236808 -0.0124503 0)
  (-0.0217512 -0.0112159 0)
  (-0.0181067 -0.00785658 0)
  (-0.00948498 -0.00168035 0)
  (-0.00120673 0.00629391 0)
  (0.00929407 0.014428 0)
  (0.0209359 0.0214279 0)
  (0.0406326 0.0286876 0)
  (0.059557 0.0221646 0)
  (0.0794666 -0.00483046 0)
  (0.138011 0.0392555 0)
  (-0.404943 0.202654 0)
  (1.01969 0.42309 0)
  (0.485102 0.279615 0)
  (0.499956 0.183101 0)
  (0.526356 0.111822 0)
  (0.507374 0.060515 0)
  (0.465501 0.0133511 0)
  (0.416777 -0.0259703 0)
  (0.363241 -0.052904 0)
  (0.305186 -0.0666609 0)
  (0.245515 -0.0692479 0)
  (0.187693 -0.06404 0)
  (0.134316 -0.0542024 0)
  (0.0869558 -0.0416174 0)
  (0.0471708 -0.0285014 0)
  (0.0150504 -0.0166617 0)
  (-0.0104355 -0.00716833 0)
  (-0.0254405 -0.00290894 0)
  (-0.0346912 -0.00185531 0)
  (-0.0409008 -0.00234366 0)
  (-0.0457027 -0.0033328 0)
  (-0.0496169 -0.00434995 0)
  (-0.0527893 -0.00535435 0)
  (-0.0553394 -0.00636482 0)
  (-0.057432 -0.00741025 0)
  (-0.059311 -0.00854773 0)
  (-0.0613252 -0.00975681 0)
  (-0.0638193 -0.0108326 0)
  (-0.0670849 -0.0114064 0)
  (-0.0714378 -0.0109466 0)
  (-0.0773029 -0.00874694 0)
  (-0.0852207 -0.00399363 0)
  (-0.0951491 0.00386707 0)
  (-0.105277 0.0143151 0)
  (-0.120059 0.0275851 0)
  (-0.143266 0.0438034 0)
  (-0.177399 0.0619187 0)
  (-0.2258 0.0780833 0)
  (-0.281447 0.08975 0)
  (-0.349429 0.0968574 0)
  (-0.609122 0.099969 0)
  (-0.150869 0.00203031 0)
  (0.121423 0.00181014 0)
  (0.200612 -0.0315313 0)
  (0.1876 -0.041687 0)
  (0.17153 -0.0398582 0)
  (0.14946 -0.0350837 0)
  (0.120021 -0.0289574 0)
  (0.0862869 -0.0216283 0)
  (0.0517688 -0.0135673 0)
  (0.0169263 -0.0053893 0)
  (-0.0165759 0.002219 0)
  (-0.0390063 0.00653708 0)
  (-0.0544863 0.00888505 0)
  (-0.0637509 0.00939356 0)
  (-0.0688725 0.0085706 0)
  (-0.0724236 0.00764705 0)
  (-0.0752224 0.0068939 0)
  (-0.0776875 0.00630971 0)
  (-0.0801506 0.00581162 0)
  (-0.0827478 0.00514709 0)
  (-0.0854612 0.0043844 0)
  (-0.088373 0.00353635 0)
  (-0.0916056 0.00265021 0)
  (-0.0952972 0.00185159 0)
  (-0.0995225 0.00138701 0)
  (-0.104278 0.00157879 0)
  (-0.109492 0.00276268 0)
  (-0.114989 0.00524259 0)
  (-0.120161 0.0095354 0)
  (-0.124277 0.016538 0)
  (-0.127697 0.0273611 0)
  (-0.130631 0.0423878 0)
  (-0.133747 0.0608075 0)
  (-0.13748 0.0792154 0)
  (-0.138785 0.0881123 0)
  (-0.121391 0.0670414 0)
  (-0.0785934 -0.0230724 0)
  (-0.273987 -0.198286 0)
  (0.0154102 0.194648 0)
  (0.0413143 0.0704064 0)
  (0.000382399 0.00595411 0)
  (-0.0125858 -0.00214458 0)
  (-0.0259009 -0.000187281 0)
  (-0.0407984 9.10467e-05 0)
  (-0.0570655 0.00117421 0)
  (-0.0725692 0.00342493 0)
  (-0.084812 0.00555605 0)
  (-0.0915629 0.00592578 0)
  (-0.0958844 0.00403132 0)
  (-0.097676 4.68395e-05 0)
  (-0.0979733 -0.0044721 0)
  (-0.0974214 -0.00932825 0)
  (-0.0969236 -0.0145196 0)
  (-0.0970159 -0.0195848 0)
  (-0.0977286 -0.0242462 0)
  (-0.0989712 -0.0282471 0)
  (-0.100623 -0.0313882 0)
  (-0.102605 -0.0335536 0)
  (-0.104975 -0.0348876 0)
  (-0.107633 -0.0353476 0)
  (-0.110479 -0.0348849 0)
  (-0.113425 -0.0336874 0)
  (-0.116357 -0.0318061 0)
  (-0.119049 -0.0290192 0)
  (-0.121131 -0.0249087 0)
  (-0.122123 -0.0188581 0)
  (-0.121598 -0.010952 0)
  (-0.118676 -0.000879833 0)
  (-0.111995 0.0120855 0)
  (-0.100275 0.0285908 0)
  (-0.0830756 0.0481506 0)
  (-0.0611475 0.0668519 0)
  (-0.0373503 0.0777775 0)
  (0.00244878 0.0619456 0)
  (0.142708 -0.00821059 0)
  (-0.204913 -0.108494 0)
  (-0.0435255 -0.319863 0)
  (-0.413211 -0.123201 0)
  (-0.301249 0.0643725 0)
  (-0.249786 -0.0172769 0)
  (-0.20996 -0.0227069 0)
  (-0.198678 -0.011731 0)
  (-0.194211 -0.00208051 0)
  (-0.190744 0.00591264 0)
  (-0.186235 0.0134146 0)
  (-0.179774 0.0208754 0)
  (-0.171187 0.0283762 0)
  (-0.160785 0.0358204 0)
  (-0.149709 0.0430426 0)
  (-0.139117 0.0500252 0)
  (-0.129805 0.057041 0)
  (-0.122046 0.0640413 0)
  (-0.115885 0.070982 0)
  (-0.111149 0.077645 0)
  (-0.107603 0.083624 0)
  (-0.105044 0.0885499 0)
  (-0.103291 0.0921601 0)
  (-0.102186 0.0943374 0)
  (-0.101637 0.0951366 0)
  (-0.101602 0.0944979 0)
  (-0.102043 0.092374 0)
  (-0.102885 0.0891414 0)
  (-0.104002 0.0851259 0)
  (-0.105173 0.080476 0)
  (-0.106013 0.0752443 0)
  (-0.105846 0.0694979 0)
  (-0.103411 0.0645081 0)
  (-0.0968764 0.0611819 0)
  (-0.0838804 0.0603937 0)
  (-0.0626302 0.0630918 0)
  (-0.0335802 0.0698001 0)
  (0.0120923 0.0795948 0)
  (0.055074 0.0805665 0)
  (0.0958475 0.0678474 0)
  (0.160928 0.0421749 0)
  (-0.231921 -0.0079136 0)
)
;

boundaryField
{
  floor
  {
    type noSlip;
  }
  ceiling
  {
    type noSlip;
  }
  sWall
  {
    type noSlip;
  }
  nWall
  {
    type noSlip;
  }
  sideWalls
  {
    type empty;
  }
  glass1
  {
    type noSlip;
  }
  glass2
  {
    type noSlip;
  }
  sun
  {
    type noSlip;
  }
  heatsource1
  {
    type noSlip;
  }
  heatsource2
  {
    type noSlip;
  }
  Table_master
  {
    type noSlip;
  }
  Table_slave
  {
    type noSlip;
  }
  inlet
  {
    type fixedValue;
    value uniform (0.277164 -0.114805 0);
  }
  outlet
  {
    type zeroGradient;
  }
} 	// ************************************************************************* //

