// -*- C++ -*-
// File generated by PyFoam - sorry for the ugliness

FoamFile
{
 version 2.0;
 format ascii;
 class volScalarField;
 location "350";
 object T;
}

dimensions [ 0 0 0 1 0 0 0 ];

internalField nonuniform List<scalar> 459
(
  303.622
  303.495
  303.491
  303.492
  303.493
  303.493
  303.493
  303.491
  303.487
  303.483
  303.48
  303.481
  303.483
  303.478
  303.456
  303.45
  303.526
  303.561
  303.579
  303.591
  303.599
  303.602
  303.603
  303.603
  303.603
  303.602
  303.602
  303.601
  303.601
  303.6
  303.599
  303.598
  303.593
  303.558
  303.711
  303.525
  303.519
  303.523
  303.525
  303.526
  303.524
  303.517
  303.505
  303.492
  303.485
  303.486
  303.492
  303.496
  303.489
  303.495
  303.499
  303.535
  303.565
  303.585
  303.603
  303.62
  303.633
  303.638
  303.641
  303.643
  303.646
  303.648
  303.65
  303.652
  303.653
  303.652
  303.647
  303.639
  303.624
  303.617
  303.801
  303.553
  303.54
  303.549
  303.556
  303.561
  303.56
  303.548
  303.523
  303.496
  303.481
  303.482
  303.493
  303.503
  303.506
  303.507
  303.506
  303.545
  303.567
  303.592
  303.617
  303.64
  303.659
  303.66
  303.662
  303.664
  303.667
  303.67
  303.673
  303.675
  303.677
  303.678
  303.676
  303.667
  303.65
  303.64
  303.893
  303.583
  303.561
  303.575
  303.592
  303.605
  303.609
  303.589
  303.546
  303.5
  303.475
  303.475
  303.491
  303.508
  303.518
  303.521
  303.52
  303.525
  303.545
  303.573
  303.606
  303.64
  303.671
  303.696
  303.718
  303.737
  303.753
  303.768
  303.781
  303.792
  303.802
  303.811
  303.817
  303.78
  303.738
  303.696
  303.669
  303.984
  303.62
  303.581
  303.597
  303.624
  303.651
  303.663
  303.631
  303.566
  303.5
  303.467
  303.467
  303.489
  303.515
  303.535
  303.545
  303.55
  303.565
  303.589
  303.619
  303.653
  303.687
  303.719
  303.747
  303.773
  303.794
  303.812
  303.828
  303.841
  303.85
  303.856
  303.859
  303.856
  303.836
  303.798
  303.751
  303.708
  303.71
  303.715
  303.745
  304.069
  303.667
  303.609
  303.616
  303.646
  303.691
  303.703
  303.653
  303.57
  303.494
  303.455
  303.459
  303.49
  303.529
  303.561
  303.582
  303.597
  303.618
  303.645
  303.677
  303.711
  303.745
  303.776
  303.803
  303.827
  303.846
  303.861
  303.874
  303.883
  303.89
  303.893
  303.892
  303.886
  303.871
  303.844
  303.808
  303.766
  303.75
  303.742
  303.758
  304.147
  303.742
  303.676
  303.668
  303.69
  303.733
  303.724
  303.651
  303.549
  303.466
  303.432
  303.45
  303.499
  303.556
  303.603
  303.635
  303.66
  303.685
  303.713
  303.745
  303.777
  303.808
  303.835
  303.857
  303.876
  303.89
  303.9
  303.907
  303.911
  303.913
  303.913
  303.91
  303.903
  303.891
  303.871
  303.845
  303.811
  303.786
  303.769
  303.772
  304.259
  303.944
  303.862
  303.821
  303.818
  303.81
  303.732
  303.603
  303.477
  303.402
  303.397
  303.448
  303.527
  303.605
  303.665
  303.705
  303.734
  303.76
  303.787
  303.815
  303.842
  303.866
  303.886
  303.901
  303.911
  303.918
  303.921
  303.922
  303.921
  303.919
  303.915
  303.91
  303.904
  303.895
  303.88
  303.862
  303.837
  303.815
  303.798
  303.846
  304.416
  304.267
  304.157
  304.064
  303.987
  303.835
  303.616
  303.419
  303.308
  303.298
  303.366
  303.479
  303.593
  303.688
  303.748
  303.785
  303.81
  303.833
  303.855
  303.875
  303.893
  303.908
  303.918
  303.924
  303.927
  303.927
  303.925
  303.922
  303.917
  303.912
  303.905
  303.898
  303.89
  303.882
  303.876
  303.87
  303.869
  303.875
  303.887
  303.922
  301.428
  301.998
  302.243
  302.375
  302.545
  302.753
  302.99
  303.221
  303.426
  303.606
  303.721
  303.788
  303.828
  303.853
  303.871
  303.888
  303.902
  303.913
  303.922
  303.927
  303.929
  303.929
  303.927
  303.924
  303.92
  303.916
  303.911
  303.905
  303.9
  303.895
  303.89
  303.886
  303.883
  303.883
  303.885
  303.894
  303.91
  303.951
  301.501
  301.978
  302.23
  302.484
  302.757
  303.033
  303.305
  303.504
  303.65
  303.754
  303.818
  303.855
  303.879
  303.894
  303.906
  303.915
  303.922
  303.927
  303.929
  303.929
  303.928
  303.926
  303.923
  303.92
  303.917
  303.913
  303.91
  303.906
  303.903
  303.9
  303.897
  303.894
  303.892
  303.891
  303.893
  303.898
  303.913
  303.938
  302.241
  302.202
  302.201
  302.619
  302.956
  303.239
  303.426
  303.564
  303.674
  303.754
  303.809
  303.848
  303.873
  303.889
  303.899
  303.906
  303.91
  303.913
  303.914
  303.913
  303.912
  303.909
  303.907
  303.904
  303.901
  303.899
  303.896
  303.895
  303.893
  303.893
  303.892
  303.892
  303.891
  303.891
  303.891
  303.892
  303.893
  303.897
  303.902
  303.935
)
;

boundaryField
{
  floor
  {
    type wallHeatTransfer;
    Tinf uniform 300.653;
    alphaWall uniform 0.24;
    value nonuniform List<scalar> 29
(
  303.092
  302.944
  303.103
  303.136
  303.155
  303.163
  303.161
  303.145
  303.124
  303.102
  303.079
  303.057
  303.036
  303.016
  302.996
  302.975
  302.953
  302.927
  302.882
  302.836
  302.836
  302.981
  303.039
  303.11
  303.092
  302.944
  303.144
  303.185
  303.238
)
;
  }
  ceiling
  {
    type wallHeatTransfer;
    Tinf uniform 300.653;
    alphaWall uniform 0.24;
    value nonuniform List<scalar> 43
(
  302.104
  302.074
  302.078
  302.477
  302.793
  303.055
  303.23
  303.361
  303.463
  303.534
  303.579
  303.608
  303.624
  303.635
  303.642
  303.647
  303.65
  303.653
  303.653
  303.653
  303.651
  303.649
  303.646
  303.643
  303.64
  303.636
  303.632
  303.627
  303.621
  303.614
  303.607
  303.599
  303.592
  303.586
  303.581
  303.579
  303.577
  303.577
  303.584
  303.608
  304.204
  304.092
  301.427
)
;
  }
  sWall
  {
    type wallHeatTransfer;
    Tinf uniform 310.178;
    alphaWall uniform 0.36;
    value uniform 303.23;
  }
  nWall
  {
    type wallHeatTransfer;
    Tinf uniform 306.167;
    alphaWall uniform 0.36;
    value nonuniform List<scalar> 6
(
  304.328
  304.254
  304.211
  304.249
  304.213
  304.254
)
;
  }
  sideWalls
  {
    type empty;
  }
  glass1
  {
    type wallHeatTransfer;
    Tinf uniform 310.178;
    alphaWall uniform 4.3;
    value nonuniform List<scalar> 9
(
  308.284
  307.99
  307.796
  307.643
  307.511
  307.387
  307.284
  307.305
  307.406
)
;
  }
  glass2
  {
    type wallHeatTransfer;
    Tinf uniform 306.167;
    alphaWall uniform 4.3;
    value nonuniform List<scalar> 2
(
  305.442
  305.44
)
;
  }
  sun
  {
    type wallHeatTransfer;
    Tinf uniform 300.653;
    alphaWall uniform 0.24;
    value nonuniform List<scalar> 14
(
  303.268
  303.179
  303.184
  303.196
  303.207
  303.216
  303.225
  303.231
  303.232
  303.23
  303.226
  303.219
  303.201
  303.158
)
;
  }
  heatsource1
  {
    type fixedGradient;
    gradient uniform 0;
  }
  heatsource2
  {
    type fixedGradient;
    gradient uniform 0;
  }
  Table_master
  {
    type zeroGradient;
  }
  Table_slave
  {
    type zeroGradient;
  }
  inlet
  {
    type fixedValue;
    value uniform 300.15;
  }
  outlet
  {
    type zeroGradient;
  }
} 	// ************************************************************************* //

