// -*- C++ -*-
// File generated by PyFoam - sorry for the ugliness

FoamFile
{
 version 2.0;
 format ascii;
 class volVectorField;
 location "1100";
 object U;
}

dimensions [ 0 1 -1 0 0 0 0 ];

internalField nonuniform List<vector> 459
(
  (0.0995197 0.0581724 0)
  (-0.122771 -0.00456266 0)
  (-0.0872753 -0.00577271 0)
  (-0.0821794 -0.0030962 0)
  (-0.0788903 -0.00196738 0)
  (-0.07683 -0.00156163 0)
  (-0.0752275 -0.0015766 0)
  (-0.0736023 -0.00192929 0)
  (-0.0715248 -0.0026241 0)
  (-0.0685131 -0.00370981 0)
  (-0.063829 -0.00526614 0)
  (-0.0563279 -0.00747306 0)
  (-0.0452565 -0.0107888 0)
  (-0.0336366 -0.0158324 0)
  (-0.0345181 -0.021182 0)
  (0.0854813 -0.005508 0)
  (-0.0221576 -0.000206618 0)
  (-0.00307409 -0.00190065 0)
  (-0.000229294 -0.00250573 0)
  (0.00117431 -0.00273114 0)
  (0.00366072 -0.00394108 0)
  (0.0078253 -0.00550268 0)
  (0.0134363 -0.00488761 0)
  (0.0183911 -0.00399899 0)
  (0.022052 -0.00327761 0)
  (0.0247865 -0.00279805 0)
  (0.0268792 -0.00250316 0)
  (0.0283799 -0.00208512 0)
  (0.0290863 -0.00150246 0)
  (0.0288438 -0.00085526 0)
  (0.0280908 -0.000278523 0)
  (0.0276775 -0.000722218 0)
  (0.0303568 -7.65838e-05 0)
  (-0.0101732 0.0122091 0)
  (0.278265 0.12858 0)
  (-0.144074 0.0053067 0)
  (-0.0823135 -0.00866698 0)
  (-0.0836047 -0.00521113 0)
  (-0.0830024 -0.00324424 0)
  (-0.0819873 -0.00236703 0)
  (-0.0808216 -0.00215976 0)
  (-0.0795082 -0.00255461 0)
  (-0.0778508 -0.0035945 0)
  (-0.0755297 -0.00538924 0)
  (-0.0720337 -0.00807742 0)
  (-0.0666287 -0.0118701 0)
  (-0.0586619 -0.0172121 0)
  (-0.0483612 -0.0246695 0)
  (-0.0372388 -0.0333005 0)
  (-0.0261006 -0.0387335 0)
  (0.0199026 0.00475625 0)
  (0.0715425 -0.00508677 0)
  (-5.85612e-05 0.00438293 0)
  (-0.00684388 0.00371924 0)
  (-0.0081236 0.00230636 0)
  (-0.00883506 0.000906883 0)
  (-0.00916624 -0.00292064 0)
  (-0.0108446 -0.00770168 0)
  (-0.00983899 -0.00635352 0)
  (-0.00896688 -0.0045135 0)
  (-0.00942326 -0.00306915 0)
  (-0.0103876 -0.00169613 0)
  (-0.0116765 -8.34683e-05 0)
  (-0.0140964 0.00167035 0)
  (-0.0162718 0.00269128 0)
  (-0.0171798 0.00195755 0)
  (-0.0165281 -0.00110615 0)
  (-0.0107499 -0.00387462 0)
  (0.00814348 0.00205656 0)
  (-0.0859518 0.0276434 0)
  (0.419015 0.194937 0)
  (-0.176671 0.0264615 0)
  (-0.0707891 -0.0037439 0)
  (-0.0783715 -0.00422026 0)
  (-0.0811803 -0.00360578 0)
  (-0.0813203 -0.00334188 0)
  (-0.0807623 -0.003393 0)
  (-0.0800179 -0.00401332 0)
  (-0.0791969 -0.00541725 0)
  (-0.0782438 -0.00784989 0)
  (-0.0769516 -0.0115718 0)
  (-0.0750099 -0.0168509 0)
  (-0.0721456 -0.023915 0)
  (-0.068274 -0.0325571 0)
  (-0.0637458 -0.0410662 0)
  (-0.0612557 -0.0457986 0)
  (-0.0691775 -0.0443811 0)
  (-0.00112759 0.0180583 0)
  (-0.0389473 0.0112016 0)
  (-0.0399052 0.00765833 0)
  (-0.0395418 0.00337534 0)
  (-0.0384815 -0.000592066 0)
  (-0.0371607 -0.00477844 0)
  (-0.0352366 -0.00671329 0)
  (-0.0445865 -0.00609032 0)
  (-0.0491238 -0.00476596 0)
  (-0.0521323 -0.00387337 0)
  (-0.0539721 -0.00319004 0)
  (-0.0545973 -0.0026366 0)
  (-0.0539788 -0.00225539 0)
  (-0.0531362 -0.00241434 0)
  (-0.0512079 -0.00362681 0)
  (-0.0445309 -0.00438954 0)
  (-0.0399724 -0.000555319 0)
  (-0.0465415 0.0037582 0)
  (-0.0876207 0.00701193 0)
  (0.528528 0.247437 0)
  (-0.202439 0.0511517 0)
  (-0.0537039 0.00665192 0)
  (-0.0644195 0.00030501 0)
  (-0.0728089 -0.0020477 0)
  (-0.0749481 -0.00318766 0)
  (-0.075276 -0.00375623 0)
  (-0.0750937 -0.00444438 0)
  (-0.0749482 -0.0056806 0)
  (-0.0751738 -0.0078817 0)
  (-0.0759609 -0.0113951 0)
  (-0.0774666 -0.0164586 0)
  (-0.0799146 -0.0230297 0)
  (-0.0837026 -0.0304051 0)
  (-0.0899219 -0.0366763 0)
  (-0.101445 -0.03813 0)
  (-0.118341 -0.0273825 0)
  (-0.118734 0.00649859 0)
  (-0.0920795 0.0155816 0)
  (-0.0873857 0.0106132 0)
  (-0.0828505 0.00634276 0)
  (-0.0827313 0.00229453 0)
  (-0.0840534 -0.00163033 0)
  (-0.0859669 -0.00509074 0)
  (-0.0856433 -0.00489013 0)
  (-0.0817468 -0.00471398 0)
  (-0.0774201 -0.00519559 0)
  (-0.0725529 -0.00557887 0)
  (-0.0672468 -0.00589939 0)
  (-0.0615626 -0.00619847 0)
  (-0.0553321 -0.00654274 0)
  (-0.0480108 -0.00708487 0)
  (-0.0393656 -0.00809021 0)
  (-0.0328611 -0.0110021 0)
  (-0.0231073 -0.0118194 0)
  (-0.0105742 -0.0147609 0)
  (-0.0182458 -0.0205229 0)
  (0.61464 0.287272 0)
  (-0.220545 0.0752991 0)
  (-0.0338644 0.01665 0)
  (-0.0368157 0.00730357 0)
  (-0.0504522 0.00331915 0)
  (-0.0585724 -0.000604385 0)
  (-0.0619932 -0.00302838 0)
  (-0.0630596 -0.00435162 0)
  (-0.0634297 -0.00535021 0)
  (-0.0640482 -0.00684054 0)
  (-0.0654451 -0.00931994 0)
  (-0.0680101 -0.0130717 0)
  (-0.0720252 -0.0180448 0)
  (-0.0777164 -0.0236837 0)
  (-0.0854136 -0.0288557 0)
  (-0.0952487 -0.0315881 0)
  (-0.104626 -0.0280096 0)
  (-0.107976 -0.0140862 0)
  (-0.103239 -0.000682279 0)
  (-0.096174 0.00410358 0)
  (-0.0905994 0.0037051 0)
  (-0.087342 0.00171311 0)
  (-0.0854804 -0.000966633 0)
  (-0.0844935 -0.00327063 0)
  (-0.0830973 -0.00419537 0)
  (-0.0807618 -0.00527781 0)
  (-0.078011 -0.00619354 0)
  (-0.0749323 -0.00696555 0)
  (-0.0715391 -0.00766221 0)
  (-0.067841 -0.00840103 0)
  (-0.0637572 -0.00939855 0)
  (-0.0590512 -0.0110673 0)
  (-0.0535112 -0.0140817 0)
  (-0.046917 -0.0189226 0)
  (-0.0378904 -0.0241016 0)
  (-0.024177 -0.0312326 0)
  (-0.00685746 -0.0386994 0)
  (0.0272221 -0.0483477 0)
  (0.0768099 -0.0265408 0)
  (-0.0541446 0.0220842 0)
  (0.673173 0.319681 0)
  (-0.236721 0.0900477 0)
  (-0.0133112 0.0151484 0)
  (0.00356333 0.0115548 0)
  (-0.00855974 0.0153383 0)
  (-0.0245498 0.00897356 0)
  (-0.0357579 0.00149855 0)
  (-0.0417568 -0.00275266 0)
  (-0.0439753 -0.00455371 0)
  (-0.0453106 -0.00573929 0)
  (-0.0468327 -0.00726296 0)
  (-0.0493185 -0.00962306 0)
  (-0.0532068 -0.0129487 0)
  (-0.0587004 -0.0168495 0)
  (-0.0658273 -0.0203576 0)
  (-0.074076 -0.0217975 0)
  (-0.0813904 -0.0190464 0)
  (-0.0849731 -0.0120355 0)
  (-0.0840782 -0.00504255 0)
  (-0.0807156 -0.0012966 0)
  (-0.0771794 -0.000396072 0)
  (-0.0744063 -0.00123361 0)
  (-0.0726305 -0.00300323 0)
  (-0.0716008 -0.00483105 0)
  (-0.0707779 -0.00613986 0)
  (-0.0698471 -0.00733805 0)
  (-0.068852 -0.00841901 0)
  (-0.0678387 -0.00934995 0)
  (-0.0668657 -0.0101591 0)
  (-0.0660249 -0.0109643 0)
  (-0.0654017 -0.012053 0)
  (-0.0650273 -0.0139941 0)
  (-0.064831 -0.0176523 0)
  (-0.0643538 -0.0238328 0)
  (-0.0623027 -0.032788 0)
  (-0.057021 -0.0454698 0)
  (-0.0475268 -0.0604348 0)
  (-0.0331699 -0.0690412 0)
  (0.0331791 -0.0272139 0)
  (-0.111068 0.0697642 0)
  (0.689886 0.348198 0)
  (-0.243154 0.0645452 0)
  (0.0269924 -0.0453574 0)
  (0.0588483 -0.00152454 0)
  (0.0466947 0.027158 0)
  (0.0241724 0.0260361 0)
  (0.00677579 0.0142251 0)
  (-0.00584392 0.00377999 0)
  (-0.0140367 -0.00153036 0)
  (-0.0183022 -0.00405433 0)
  (-0.0207546 -0.00544894 0)
  (-0.0232173 -0.00680663 0)
  (-0.0265717 -0.00876546 0)
  (-0.0312155 -0.0112769 0)
  (-0.0371649 -0.013723 0)
  (-0.0438485 -0.0149113 0)
  (-0.0498455 -0.013612 0)
  (-0.0534917 -0.0100531 0)
  (-0.0542864 -0.00621439 0)
  (-0.0532088 -0.00375147 0)
  (-0.0515642 -0.00283929 0)
  (-0.0501234 -0.00310473 0)
  (-0.0492166 -0.0041338 0)
  (-0.0488625 -0.00541838 0)
  (-0.0488657 -0.00661073 0)
  (-0.049074 -0.00771289 0)
  (-0.0494737 -0.00866724 0)
  (-0.0500986 -0.00940208 0)
  (-0.0510518 -0.0098773 0)
  (-0.0525441 -0.0101446 0)
  (-0.0549194 -0.0104656 0)
  (-0.0586448 -0.0114629 0)
  (-0.0641731 -0.0141588 0)
  (-0.0716398 -0.019723 0)
  (-0.0807701 -0.0291357 0)
  (-0.090835 -0.0428468 0)
  (-0.0986699 -0.058293 0)
  (-0.0982113 -0.0635406 0)
  (-0.0980133 -0.0271892 0)
  (-0.169335 0.113931 0)
  (0.781776 0.359346 0)
  (-0.0457375 0.0163789 0)
  (0.0935023 -0.0990727 0)
  (0.147114 -0.0186731 0)
  (0.110386 0.0359407 0)
  (0.0682663 0.0411743 0)
  (0.0476937 0.0290829 0)
  (0.036705 0.0164892 0)
  (0.0274778 0.00714266 0)
  (0.0196644 0.00113539 0)
  (0.0139952 -0.00216556 0)
  (0.010403 -0.00387672 0)
  (0.00712868 -0.00520043 0)
  (0.00330912 -0.00666442 0)
  (-0.00143596 -0.00826134 0)
  (-0.00671699 -0.00932272 0)
  (-0.0116419 -0.00910488 0)
  (-0.0151729 -0.00762161 0)
  (-0.0168984 -0.0057618 0)
  (-0.0172643 -0.00436798 0)
  (-0.0170074 -0.00371029 0)
  (-0.0166843 -0.00374169 0)
  (-0.016621 -0.00429282 0)
  (-0.0169402 -0.00510433 0)
  (-0.0176138 -0.00595874 0)
  (-0.0185858 -0.00676706 0)
  (-0.0198291 -0.00742775 0)
  (-0.0213241 -0.00781401 0)
  (-0.0230835 -0.00778394 0)
  (-0.0252069 -0.00722603 0)
  (-0.0279727 -0.00617581 0)
  (-0.0319725 -0.00501329 0)
  (-0.0382285 -0.00469422 0)
  (-0.0481971 -0.0068897 0)
  (-0.0636844 -0.0137583 0)
  (-0.0862841 -0.0270322 0)
  (-0.114463 -0.0469598 0)
  (-0.143008 -0.0719577 0)
  (-0.19001 -0.0980652 0)
  (-0.394466 -0.12056 0)
  (0.908467 0.338413 0)
  (0.418661 0.151565 0)
  (0.152288 0.0527363 0)
  (0.230539 0.0918484 0)
  (0.147476 0.102392 0)
  (0.0827795 0.0799632 0)
  (0.0669294 0.0526198 0)
  (0.0649639 0.0321143 0)
  (0.0620417 0.0187518 0)
  (0.0581124 0.0103465 0)
  (0.0544249 0.00522273 0)
  (0.0508415 0.00217491 0)
  (0.047411 0.000322232 0)
  (0.0440798 -0.000941586 0)
  (0.0404486 -0.00200128 0)
  (0.0364948 -0.00282884 0)
  (0.0325901 -0.00315612 0)
  (0.0293245 -0.00288594 0)
  (0.0270455 -0.00228329 0)
  (0.0256475 -0.00171215 0)
  (0.0247823 -0.00138273 0)
  (0.0241119 -0.00136094 0)
  (0.0233897 -0.00161832 0)
  (0.022475 -0.00205476 0)
  (0.0213015 -0.00254929 0)
  (0.0198562 -0.0030331 0)
  (0.0181612 -0.00342762 0)
  (0.0162787 -0.0036252 0)
  (0.0143167 -0.00348276 0)
  (0.0124311 -0.00283323 0)
  (0.0108124 -0.00154759 0)
  (0.00964577 0.000329739 0)
  (0.00904638 0.00239605 0)
  (0.00897038 0.00374628 0)
  (0.00905055 0.00309281 0)
  (0.00860968 -0.000356722 0)
  (0.00871462 -0.00570187 0)
  (0.0155533 -0.0153743 0)
  (0.0552228 -0.06294 0)
  (-0.266131 -0.161951 0)
  (-1.54317 0.0600057 0)
  (0.0141728 0.122486 0)
  (0.00545327 0.0919668 0)
  (0.0150295 0.0640701 0)
  (0.0478516 0.042535 0)
  (0.0716494 0.0285331 0)
  (0.0828708 0.0209203 0)
  (0.0875708 0.017461 0)
  (0.0896223 0.0162887 0)
  (0.0902843 0.0160392 0)
  (0.0899141 0.0158442 0)
  (0.0885569 0.0152577 0)
  (0.0864513 0.0142475 0)
  (0.0837696 0.0129593 0)
  (0.0807773 0.0116131 0)
  (0.0778473 0.010366 0)
  (0.0752348 0.00933878 0)
  (0.0730368 0.0084767 0)
  (0.071194 0.00769213 0)
  (0.0695766 0.00691757 0)
  (0.0680457 0.00612092 0)
  (0.0664914 0.00531461 0)
  (0.0648188 0.00456513 0)
  (0.062983 0.00387814 0)
  (0.0609911 0.00328296 0)
  (0.058893 0.00283674 0)
  (0.0567935 0.00261484 0)
  (0.0548735 0.00269331 0)
  (0.0534016 0.00309099 0)
  (0.0527094 0.00363731 0)
  (0.0531011 0.00377204 0)
  (0.0546854 0.00239533 0)
  (0.0571806 -0.001962 0)
  (0.0598749 -0.0104048 0)
  (0.0623848 -0.0229083 0)
  (0.0654524 -0.0401659 0)
  (0.0886177 -0.0718436 0)
  (-0.0544222 -0.126741 0)
  (-0.649462 0.0908312 0)
  (0.208472 0.0518835 0)
  (0.0763925 0.00182944 0)
  (0.0600619 -0.0148559 0)
  (0.0867763 -0.0311881 0)
  (0.111519 -0.0482057 0)
  (0.125151 -0.0636466 0)
  (0.13131 -0.0765003 0)
  (0.13353 -0.0859631 0)
  (0.133558 -0.0917158 0)
  (0.132294 -0.0941606 0)
  (0.130332 -0.0941986 0)
  (0.12805 -0.0927608 0)
  (0.12565 -0.090569 0)
  (0.12323 -0.0880709 0)
  (0.120844 -0.085506 0)
  (0.118581 -0.0831191 0)
  (0.116491 -0.0810506 0)
  (0.114555 -0.0793514 0)
  (0.112705 -0.0780094 0)
  (0.110852 -0.0769762 0)
  (0.108923 -0.0761704 0)
  (0.106914 -0.075326 0)
  (0.104815 -0.0745093 0)
  (0.102644 -0.0737495 0)
  (0.100431 -0.0730364 0)
  (0.0982411 -0.0723407 0)
  (0.096189 -0.0716294 0)
  (0.0944432 -0.0708869 0)
  (0.0931905 -0.0701486 0)
  (0.0925366 -0.069547 0)
  (0.0923253 -0.0693436 0)
  (0.0919389 -0.0698899 0)
  (0.090209 -0.0714744 0)
  (0.0857138 -0.0741395 0)
  (0.076673 -0.0777353 0)
  (0.0872897 -0.0844679 0)
  (-0.0901834 -0.0990523 0)
  (0.534027 0.199592 0)
  (0.274481 -0.179662 0)
  (-0.195777 0.177136 0)
  (0.213238 0.122038 0)
  (0.218186 0.123095 0)
  (0.181474 0.144923 0)
  (0.173603 0.171347 0)
  (0.175921 0.199978 0)
  (0.176063 0.227727 0)
  (0.173879 0.25147 0)
  (0.171735 0.269102 0)
  (0.170575 0.27983 0)
  (0.170278 0.284186 0)
  (0.170483 0.283639 0)
  (0.170875 0.279893 0)
  (0.171216 0.274402 0)
  (0.171348 0.268184 0)
  (0.171195 0.261868 0)
  (0.170746 0.255907 0)
  (0.169995 0.250558 0)
  (0.168943 0.245935 0)
  (0.167593 0.242042 0)
  (0.165959 0.238816 0)
  (0.164067 0.236151 0)
  (0.161929 0.233645 0)
  (0.159625 0.231348 0)
  (0.157195 0.229296 0)
  (0.15467 0.227467 0)
  (0.152077 0.225795 0)
  (0.149437 0.22419 0)
  (0.146741 0.222535 0)
  (0.143905 0.220696 0)
  (0.140703 0.218508 0)
  (0.136656 0.215774 0)
  (0.130907 0.21228 0)
  (0.122116 0.207862 0)
  (0.108506 0.202523 0)
  (0.0883217 0.196744 0)
  (0.0959374 0.187811 0)
  (-0.179536 0.235254 0)
)
;

boundaryField
{
  floor
  {
    type noSlip;
  }
  ceiling
  {
    type noSlip;
  }
  sWall
  {
    type noSlip;
  }
  nWall
  {
    type noSlip;
  }
  sideWalls
  {
    type empty;
  }
  glass1
  {
    type noSlip;
  }
  glass2
  {
    type noSlip;
  }
  sun
  {
    type noSlip;
  }
  heatsource1
  {
    type noSlip;
  }
  heatsource2
  {
    type noSlip;
  }
  Table_master
  {
    type noSlip;
  }
  Table_slave
  {
    type noSlip;
  }
  inlet
  {
    type fixedValue;
    value uniform (0.0707107 -0.0707107 0);
  }
  outlet
  {
    type zeroGradient;
  }
} 	// ************************************************************************* //

