/*--------------------------------*- C++ -*----------------------------------*\
  =========                 |
  \\      /  F ield         | OpenFOAM: The Open Source CFD Toolbox
   \\    /   O peration     | Website:  https://openfoam.org
    \\  /    A nd           | Version:  6
     \\/     M anipulation  |
\*---------------------------------------------------------------------------*/
FoamFile
{
    version     2.0;
    format      ascii;
    class       volScalarField;
    location    "100";
    object      nut;
}
// * * * * * * * * * * * * * * * * * * * * * * * * * * * * * * * * * * * * * //

dimensions      [0 2 -1 0 0 0 0];

internalField   nonuniform List<scalar> 
459
(
0.000775367
0.000793403
0.000701106
0.000724551
0.000753245
0.000781297
0.000808453
0.000835306
0.000863003
0.000889546
0.000910702
0.000924536
0.00092933
0.000923677
0.000902449
0.000472146
0.000536396
0.000545816
0.000455391
0.000314101
0.000253594
0.000231814
0.000230296
0.000221502
0.000212866
0.00020923
0.000206769
0.000205694
0.000226783
0.000305545
0.000466533
0.000597479
0.000604615
0.00053001
0.0013614
0.00250024
0.00174433
0.00244144
0.00267895
0.0028986
0.0031257
0.0033389
0.00350768
0.0036255
0.00367947
0.00362897
0.00340897
0.00291642
0.0020471
0.000963686
0.00067702
0.000576582
0.00127792
0.00139486
0.00125162
0.000931157
0.000592184
0.000482778
0.000404521
0.000388389
0.000390172
0.000387674
0.000382015
0.000416006
0.000565503
0.000905344
0.00137866
0.00165359
0.00172462
0.000630395
0.00185944
0.00415503
0.00185726
0.00336969
0.00400769
0.00426527
0.00447575
0.00465485
0.00479049
0.00488116
0.00490669
0.00481907
0.00454378
0.00398424
0.00308362
0.0019854
0.0010139
0.000931435
0.00230936
0.00199066
0.00164094
0.00133918
0.00104208
0.000334188
0.000223661
0.000212346
0.000230107
0.00027009
0.00033137
0.000411558
0.00051675
0.000683533
0.00166495
0.00181837
0.00144914
0.000719631
0.002316
0.00611221
0.0021747
0.00343275
0.00464455
0.00495145
0.0051325
0.00529078
0.0054302
0.00554702
0.005652
0.0057039
0.00561784
0.00526261
0.00448956
0.00326965
0.00193338
0.00113249
0.00232947
0.00247684
0.00220466
0.00189611
0.00159531
0.00125295
0.000947345
0.000972375
0.00100281
0.00103439
0.00106453
0.00109155
0.00111571
0.00113196
0.00114201
0.00200964
0.00253747
0.00284973
0.00107135
0.00272788
0.00811775
0.00288912
0.00310348
0.0047348
0.00513374
0.00528933
0.00542385
0.00556627
0.00572114
0.00595857
0.00627
0.0066021
0.00687213
0.00697904
0.00683756
0.00643598
0.00585074
0.00536548
0.00495335
0.00472904
0.00457989
0.0044555
0.00436593
0.00432058
0.0043715
0.00444903
0.00452309
0.00456876
0.00457833
0.00456881
0.0045641
0.00457182
0.00461026
0.004518
0.00416026
0.00324659
0.00136326
0.00120507
0.0011359
0.0031053
0.00981661
0.00416672
0.00286793
0.0042617
0.00483406
0.0050281
0.00513681
0.00522466
0.00533366
0.00561597
0.0060593
0.00662729
0.00724927
0.00781623
0.00820024
0.00829141
0.00807342
0.00765746
0.0071889
0.00678073
0.00647436
0.00625152
0.00608003
0.00594072
0.00584145
0.00577689
0.00571827
0.00563113
0.00550489
0.00536613
0.00525852
0.00520599
0.005199
0.00522132
0.00520401
0.00487196
0.00418191
0.00272026
0.00141639
0.00344975
0.0109861
0.00637022
0.00346977
0.00328297
0.00394788
0.00445162
0.00469783
0.00472011
0.00474722
0.0049473
0.00532194
0.00588311
0.0066049
0.00738817
0.00807476
0.00849668
0.00859555
0.00843736
0.00814817
0.00784039
0.00757066
0.00734309
0.00713824
0.00694186
0.00676772
0.00663124
0.00650989
0.00634843
0.00610714
0.00580158
0.00549074
0.00522763
0.00502874
0.00486085
0.00463377
0.00423577
0.00370441
0.00300655
0.00137337
0.00352026
0.0110236
0.00834265
0.00605103
0.00435209
0.00381713
0.00414371
0.00453048
0.00446403
0.00439097
0.00442287
0.00457773
0.00488834
0.00540071
0.00611728
0.00693571
0.00760525
0.00800162
0.00814577
0.00811575
0.00800392
0.00787535
0.00775938
0.00766203
0.00757939
0.00751258
0.00747026
0.00744394
0.00737835
0.00719765
0.0068655
0.00639837
0.00581534
0.00517066
0.0045266
0.00394273
0.00344337
0.0029964
0.00256944
0.00160377
0.00340416
0.00405102
0.00499934
0.00511205
0.00471988
0.00425392
0.00396466
0.00385017
0.00381154
0.0038342
0.00389347
0.00398097
0.00411333
0.00433611
0.00471174
0.00526483
0.0059041
0.0064829
0.00690657
0.00716328
0.00729392
0.00734979
0.00737446
0.00740634
0.00748423
0.00764113
0.00787865
0.0081472
0.00837808
0.00854045
0.00859956
0.0085245
0.00836767
0.00816961
0.00790623
0.00735829
0.00631429
0.00530022
0.00483498
0.00179232
0.00590531
0.00747613
0.00585452
0.00508515
0.00460961
0.00429811
0.00408643
0.00393469
0.00382356
0.00374199
0.00368937
0.00367946
0.00374336
0.00392376
0.00424507
0.00467874
0.00514736
0.00557077
0.0059043
0.00614177
0.00630304
0.0064251
0.00655932
0.00676668
0.00709671
0.00754936
0.00805276
0.00847755
0.00875925
0.0088904
0.00889898
0.00882794
0.00870449
0.0085048
0.00810275
0.00711604
0.00623263
0.00178284
0.0035788
0.00757543
0.00607471
0.0053244
0.00480871
0.00441095
0.00409079
0.00382327
0.00356945
0.00333349
0.00312761
0.00296287
0.00285221
0.00281291
0.00286576
0.00302636
0.00328921
0.00361831
0.00395898
0.0042633
0.00450833
0.0046995
0.00486518
0.00504985
0.00530578
0.00567534
0.0061566
0.00666244
0.00710417
0.00743028
0.00762014
0.00768081
0.00762499
0.00743895
0.00698952
0.00606129
0.00507822
0.00161079
0.00228286
0.00262547
0.00302251
0.00306646
0.00260018
0.00232367
0.00210932
0.00193039
0.00177714
0.00164402
0.00153038
0.00143142
0.00134357
0.00126502
0.00119506
0.00113371
0.00108149
0.00103925
0.00100787
0.000987714
0.000978093
0.000977176
0.000982532
0.000991957
0.00100418
0.00101934
0.00103916
0.0010666
0.00110443
0.00115831
0.00122836
0.00130742
0.00138507
0.00145004
0.0014925
0.00150413
0.00148338
0.00144748
0.00141529
0.00131338
)
;

boundaryField
{
    floor
    {
        type            nutkWallFunction;
        Cmu             0.09;
        kappa           0.41;
        E               9.8;
        value           nonuniform List<scalar> 
29
(
0.000109163
5.61791e-05
6.438e-05
6.5568e-05
5.4015e-05
3.53557e-05
2.70418e-05
2.39833e-05
2.37704e-05
2.25238e-05
2.12919e-05
2.07684e-05
2.04119e-05
2.02557e-05
2.32707e-05
3.42015e-05
5.54796e-05
7.20829e-05
7.29704e-05
6.35761e-05
6.3576e-05
7.61639e-05
8.71359e-05
0.00012905
0.000109163
5.6179e-05
6.94365e-05
0.000112606
0.000136162
)
;
    }
    ceiling
    {
        type            nutkWallFunction;
        Cmu             0.09;
        kappa           0.41;
        E               9.8;
        value           nonuniform List<scalar> 
43
(
0.000264029
0.000300562
0.000342288
0.000346859
0.000297867
0.00026839
0.000245287
0.000225811
0.000208977
0.000194226
0.000181532
0.000170392
0.000160432
0.000151465
0.000143427
0.000136334
0.000130262
0.000125327
0.000121647
0.000119276
0.000118143
0.000118036
0.000118668
0.000119778
0.000121215
0.000122995
0.000125317
0.000128525
0.000132932
0.000139182
0.000147257
0.00015631
0.000165143
0.000172491
0.000177277
0.000178589
0.000176258
0.000172212
0.000168573
0.000156999
0.000381937
0.000448005
0.000399829
)
;
    }
    sWall
    {
        type            nutkWallFunction;
        Cmu             0.09;
        kappa           0.41;
        E               9.8;
        value           uniform 0.000264093;
    }
    nWall
    {
        type            nutkWallFunction;
        Cmu             0.09;
        kappa           0.41;
        E               9.8;
        value           nonuniform List<scalar> 6(0.000136563 0.000168637 0.000163824 0.000209592 0.000190527 0.000157013);
    }
    sideWalls
    {
        type            empty;
    }
    glass1
    {
        type            nutkWallFunction;
        Cmu             0.09;
        kappa           0.41;
        E               9.8;
        value           nonuniform List<scalar> 9(9.391e-05 0.000162653 0.000218352 0.000267971 0.00031184 0.00035143 0.000387129 0.000394404 0.000382462);
    }
    glass2
    {
        type            nutkWallFunction;
        Cmu             0.09;
        kappa           0.41;
        E               9.8;
        value           nonuniform List<scalar> 2(0.000189827 0.000210748);
    }
    sun
    {
        type            nutkWallFunction;
        Cmu             0.09;
        kappa           0.41;
        E               9.8;
        value           nonuniform List<scalar> 
14
(
9.3916e-05
9.60971e-05
8.48668e-05
8.77349e-05
9.12303e-05
9.46321e-05
9.79115e-05
0.000101142
0.000104461
0.00010763
0.000110147
0.00011179
0.000112358
0.000111686
)
;
    }
    heatsource1
    {
        type            nutkWallFunction;
        Cmu             0.09;
        kappa           0.41;
        E               9.8;
        value           nonuniform List<scalar> 3(0.000162555 0.000144486 0.000136549);
    }
    heatsource2
    {
        type            nutkWallFunction;
        Cmu             0.09;
        kappa           0.41;
        E               9.8;
        value           nonuniform List<scalar> 4(0.000116415 8.19055e-05 8.19055e-05 0.000122324);
    }
    Table_master
    {
        type            nutkWallFunction;
        Cmu             0.09;
        kappa           0.41;
        E               9.8;
        value           nonuniform List<scalar> 9(3.80708e-05 2.28637e-05 2.12597e-05 2.3767e-05 2.93321e-05 3.76683e-05 4.82919e-05 6.18495e-05 8.26923e-05);
    }
    Table_slave
    {
        type            nutkWallFunction;
        Cmu             0.09;
        kappa           0.41;
        E               9.8;
        value           nonuniform List<scalar> 9(0.00011449 0.000117451 0.000121041 0.000124754 0.000128286 0.000131444 0.000134259 0.000136145 0.000137302);
    }
    inlet
    {
        type            calculated;
        value           uniform 0.00590531;
    }
    outlet
    {
        type            calculated;
        value           nonuniform List<scalar> 2(0.00228286 0.00262547);
    }
}


// ************************************************************************* //
