// -*- C++ -*-
// File generated by PyFoam - sorry for the ugliness

FoamFile
{
 version 2.0;
 format ascii;
 class volScalarField;
 location "100";
 object T;
}

dimensions [ 0 0 0 1 0 0 0 ];

internalField nonuniform List<scalar> 459
(
  301.567
  301.178
  301.171
  301.181
  301.19
  301.197
  301.204
  301.21
  301.215
  301.219
  301.219
  301.215
  301.208
  301.198
  301.189
  300.729
  300.707
  300.704
  300.695
  300.669
  300.608
  300.547
  300.494
  300.48
  300.48
  300.482
  300.489
  300.504
  300.526
  300.574
  300.677
  300.702
  300.686
  300.687
  301.844
  301.258
  301.221
  301.236
  301.254
  301.271
  301.286
  301.298
  301.308
  301.314
  301.312
  301.302
  301.281
  301.249
  301.207
  301.159
  301.029
  300.754
  300.741
  300.729
  300.723
  300.694
  300.609
  300.459
  300.386
  300.372
  300.374
  300.384
  300.405
  300.441
  300.516
  300.64
  300.783
  300.741
  300.697
  300.684
  302.1
  301.356
  301.284
  301.305
  301.334
  301.361
  301.386
  301.407
  301.423
  301.433
  301.43
  301.414
  301.381
  301.331
  301.267
  301.196
  301.133
  300.861
  300.859
  300.878
  300.906
  300.909
  300.861
  300.464
  300.354
  300.344
  300.362
  300.403
  300.466
  300.548
  300.646
  300.774
  300.897
  300.78
  300.744
  300.737
  302.334
  301.465
  301.351
  301.374
  301.416
  301.458
  301.497
  301.531
  301.557
  301.573
  301.573
  301.554
  301.513
  301.451
  301.371
  301.276
  301.177
  301.102
  301.05
  301.093
  301.137
  301.17
  301.184
  301.191
  301.197
  301.192
  301.188
  301.183
  301.178
  301.173
  301.166
  301.156
  301.143
  301.104
  301.031
  300.967
  300.954
  302.549
  301.58
  301.421
  301.44
  301.494
  301.551
  301.606
  301.657
  301.698
  301.726
  301.734
  301.72
  301.682
  301.623
  301.548
  301.467
  301.388
  301.326
  301.285
  301.277
  301.288
  301.295
  301.293
  301.286
  301.275
  301.263
  301.251
  301.24
  301.232
  301.226
  301.222
  301.218
  301.211
  301.194
  301.163
  301.116
  301.078
  301.057
  301.031
  301.125
  302.733
  301.703
  301.507
  301.501
  301.56
  301.629
  301.699
  301.767
  301.827
  301.872
  301.892
  301.887
  301.857
  301.803
  301.733
  301.653
  301.575
  301.51
  301.464
  301.436
  301.421
  301.409
  301.396
  301.379
  301.36
  301.339
  301.318
  301.299
  301.288
  301.285
  301.288
  301.294
  301.301
  301.308
  301.315
  301.326
  301.336
  301.288
  301.149
  301.137
  302.883
  301.886
  301.677
  301.603
  301.63
  301.695
  301.77
  301.849
  301.93
  301.99
  302.025
  302.034
  302.019
  301.979
  301.919
  301.843
  301.765
  301.695
  301.637
  301.595
  301.564
  301.54
  301.518
  301.493
  301.465
  301.434
  301.4
  301.371
  301.353
  301.352
  301.365
  301.386
  301.411
  301.438
  301.464
  301.489
  301.504
  301.496
  301.419
  301.183
  303.132
  302.351
  302.138
  301.949
  301.842
  301.829
  301.874
  301.941
  302.027
  302.087
  302.124
  302.144
  302.147
  302.129
  302.09
  302.028
  301.956
  301.885
  301.821
  301.768
  301.725
  301.691
  301.66
  301.629
  301.595
  301.555
  301.51
  301.465
  301.432
  301.421
  301.433
  301.462
  301.498
  301.536
  301.57
  301.601
  301.627
  301.65
  301.668
  301.681
  303.476
  303.144
  302.969
  302.73
  302.507
  302.359
  302.278
  302.245
  302.229
  302.227
  302.234
  302.242
  302.245
  302.239
  302.219
  302.182
  302.131
  302.071
  302.009
  301.951
  301.901
  301.858
  301.82
  301.784
  301.747
  301.706
  301.658
  301.602
  301.548
  301.509
  301.488
  301.483
  301.491
  301.509
  301.532
  301.562
  301.598
  301.639
  301.692
  301.828
  303.019
  302.792
  302.626
  302.519
  302.453
  302.415
  302.395
  302.379
  302.368
  302.358
  302.348
  302.337
  302.32
  302.297
  302.264
  302.223
  302.175
  302.124
  302.075
  302.029
  301.986
  301.947
  301.908
  301.866
  301.82
  301.767
  301.71
  301.656
  301.607
  301.569
  301.544
  301.533
  301.531
  301.535
  301.543
  301.559
  301.584
  301.645
  302.951
  302.783
  302.674
  302.599
  302.549
  302.516
  302.495
  302.479
  302.463
  302.449
  302.435
  302.419
  302.402
  302.382
  302.359
  302.332
  302.299
  302.262
  302.223
  302.183
  302.144
  302.105
  302.066
  302.026
  301.983
  301.935
  301.882
  301.825
  301.767
  301.712
  301.665
  301.629
  301.604
  301.588
  301.58
  301.583
  301.598
  301.657
  302.952
  302.906
  302.913
  302.77
  302.693
  302.644
  302.609
  302.584
  302.565
  302.55
  302.535
  302.52
  302.505
  302.489
  302.473
  302.456
  302.438
  302.419
  302.398
  302.376
  302.351
  302.324
  302.296
  302.265
  302.233
  302.199
  302.163
  302.124
  302.081
  302.034
  301.981
  301.925
  301.869
  301.817
  301.773
  301.739
  301.712
  301.689
  301.67
  301.691
)
;

boundaryField
{
  floor
  {
    type wallHeatTransfer;
    Tinf uniform 305.2;
    alphaWall uniform 0.24;
    value nonuniform List<scalar> 29
(
  301.671
  301.574
  301.487
  301.475
  301.567
  301.776
  301.877
  301.899
  301.865
  301.885
  301.915
  301.93
  301.943
  301.958
  301.9
  301.722
  301.538
  301.427
  301.408
  301.477
  301.477
  301.386
  301.369
  301.403
  301.671
  301.574
  301.489
  301.37
  301.517
)
;
  }
  ceiling
  {
    type wallHeatTransfer;
    Tinf uniform 303.2;
    alphaWall uniform 0.24;
    value nonuniform List<scalar> 43
(
  302.967
  302.921
  302.926
  302.79
  302.72
  302.675
  302.646
  302.625
  302.611
  302.599
  302.588
  302.577
  302.567
  302.555
  302.544
  302.531
  302.518
  302.504
  302.487
  302.468
  302.447
  302.424
  302.398
  302.37
  302.34
  302.309
  302.275
  302.238
  302.197
  302.15
  302.097
  302.04
  301.984
  301.933
  301.89
  301.857
  301.834
  301.816
  301.801
  301.828
  303.464
  303.146
  302.961
)
;
  }
  sWall
  {
    type wallHeatTransfer;
    Tinf uniform 315.2;
    alphaWall uniform 0.36;
    value uniform 303.998;
  }
  nWall
  {
    type wallHeatTransfer;
    Tinf uniform 307.2;
    alphaWall uniform 0.36;
    value nonuniform List<scalar> 6
(
  302.003
  301.881
  301.939
  302.218
  302.275
  302.408
)
;
  }
  sideWalls
  {
    type empty;
  }
  glass1
  {
    type wallHeatTransfer;
    Tinf uniform 315.2;
    alphaWall uniform 4.3;
    value nonuniform List<scalar> 9
(
  311.664
  310.38
  309.632
  309.123
  308.772
  308.512
  308.31
  308.398
  308.678
)
;
  }
  glass2
  {
    type wallHeatTransfer;
    Tinf uniform 307.2;
    alphaWall uniform 4.3;
    value nonuniform List<scalar> 2
(
  305.007
  304.941
)
;
  }
  sun
  {
    type wallHeatTransfer;
    Tinf uniform 305.2;
    alphaWall uniform 0.24;
    value nonuniform List<scalar> 14
(
  302.056
  301.709
  301.753
  301.748
  301.74
  301.732
  301.725
  301.718
  301.71
  301.702
  301.694
  301.686
  301.678
  301.671
)
;
  }
  heatsource1
  {
    type fixedGradient;
    gradient uniform 0;
  }
  heatsource2
  {
    type fixedGradient;
    gradient uniform 0;
  }
  Table_master
  {
    type zeroGradient;
  }
  Table_slave
  {
    type zeroGradient;
  }
  inlet
  {
    type fixedValue;
    value uniform 293.15;
  }
  outlet
  {
    type zeroGradient;
  }
} 	// ************************************************************************* //

