/*--------------------------------*- C++ -*----------------------------------*\
  =========                 |
  \\      /  F ield         | OpenFOAM: The Open Source CFD Toolbox
   \\    /   O peration     | Website:  https://openfoam.org
    \\  /    A nd           | Version:  6
     \\/     M anipulation  |
\*---------------------------------------------------------------------------*/
FoamFile
{
    version     2.0;
    format      ascii;
    class       surfaceScalarField;
    location    "290";
    object      phi;
}
// * * * * * * * * * * * * * * * * * * * * * * * * * * * * * * * * * * * * * //

dimensions      [1 0 -1 0 0 0 0];

internalField   nonuniform List<scalar> 
852
(
-0.00258238
0.00261878
-0.00368825
0.00110585
-0.00445927
0.000770999
-0.00495662
0.000497323
-0.00514434
0.000187701
-0.00498366
-0.000160699
-0.00444673
-0.000536957
-0.00357051
-0.000876241
-0.00247001
-0.00110053
-0.00129651
-0.00117352
-0.000211567
-0.00108497
0.000544477
-0.000756076
0.000917725
-0.00037328
0.000822312
9.53782e-05
0.000817942
-4.9311e-05
4.29123e-05
-0.00042937
0.000379993
-0.000277457
-0.000151974
0.00017761
-0.000455125
0.000615881
-0.000438331
0.000962787
-0.000346967
0.00117555
-0.000212827
0.00128208
-0.000106595
0.00134593
-6.39083e-05
0.00139101
-4.51464e-05
0.00142223
-3.1286e-05
0.00144023
-1.80684e-05
0.00144066
-5.0282e-07
0.00141053
3.00693e-05
0.00132051
8.99431e-05
0.0011211
0.000199335
0.000764187
0.000356842
7.87163e-05
0.000685394
7.01987e-05
-0.00189155
0.00461058
-0.00289102
0.00210529
-0.00365352
0.00153348
-0.00414936
0.000993144
-0.00434708
0.000385395
-0.00420595
-0.000301846
-0.00371014
-0.00103278
-0.00291967
-0.00166673
-0.0019714
-0.00204881
-0.00101605
-0.0021289
-0.000184837
-0.00191621
0.000473149
-0.00141409
0.000918404
-0.000818568
0.00121785
-0.000204101
0.0016121
0.000423657
0.000904013
0.000708002
0.000903926
-0.000157084
0.000186242
0.000108864
0.000113983
0.000506937
-0.000550102
0.000805351
-0.000753594
0.0010587
-0.000691741
0.00125385
-0.000542168
0.00130478
-0.000263822
0.00131827
-0.000120147
0.00133154
-7.72409e-05
0.00134267
-5.63326e-05
0.00135084
-3.95249e-05
0.00135677
-2.40612e-05
0.00135856
-2.36583e-06
0.00135074
3.78288e-05
0.00130369
0.000136922
0.00112423
0.000378716
0.000823036
0.000657967
0.00052754
0.000980814
0.000576398
-0.00134961
0.00611614
-0.00216595
0.0029216
-0.00283586
0.00220337
-0.00327236
0.00142962
-0.00345016
0.000563175
-0.00330094
-0.00045109
-0.00280901
-0.00152473
-0.00207309
-0.00240266
-0.00125324
-0.00286867
-0.000476624
-0.00290554
0.000167961
-0.00256082
0.000688837
-0.001935
0.0010735
-0.00120326
0.00132525
-0.000455891
0.00145708
0.000291797
0.00117084
0.000994206
0.00207473
1.01009e-05
0.000155408
0.000974725
-0.000850693
0.00131257
-0.000887993
0.00143605
-0.000877135
0.00153104
-0.000786779
0.00166113
-0.000672319
0.0013974
0.00127735
0.00120019
0.00114395
0.00110451
0.00108054
0.00107826
0.00111617
0.00125317
0.00108946
0.000542356
0.000924242
0.000823109
0.000746323
0.00115866
0.00129061
-0.000947903
0.00726899
-0.00154553
0.0035192
-0.00200032
0.00265814
-0.00229531
0.00172459
-0.00239019
0.000658036
-0.0021638
-0.000677503
-0.00164465
-0.00204389
-0.000981242
-0.00306608
-0.000323558
-0.00352636
0.000248218
-0.00347733
0.00070465
-0.00301728
0.00107559
-0.00230598
0.00136461
-0.00149232
0.00158283
-0.000674144
0.00177326
0.000101321
0.0020096
0.000757834
0.00289364
0.00119066
0.00231128
0.000561337
0.0025602
-9.35464e-05
0.00222051
-0.000511046
0.00206857
-0.000736108
0.00194566
-0.000754273
0.00183464
-0.000675813
0.00167299
-0.000510727
0.00188234
-0.000209571
0.00195264
-7.05155e-05
0.00195753
-5.1085e-06
0.00191627
4.10362e-05
0.00183465
8.13895e-05
0.0017145
0.000119927
0.00155116
0.000163116
0.00132831
0.000222612
0.0010056
0.000322486
0.000976354
0.000571522
0.000957758
0.000841628
0.00101796
0.00109838
0.00226754
-0.000660691
0.00817745
-0.00105795
0.00391643
-0.00117606
0.00277623
-0.00123913
0.00178764
-0.00113521
0.000554092
-0.000731017
-0.00108172
-0.000187159
-0.00258775
0.000331192
-0.00358442
0.000756397
-0.00395157
0.00107714
-0.00379808
0.00131642
-0.00325659
0.00149637
-0.00248597
0.00163773
-0.00163372
0.0017725
-0.000808954
0.00195509
-8.13125e-05
0.00223209
0.000480792
0.00264946
0.000773249
0.00277931
0.000431449
0.00266745
1.82823e-05
0.00244516
-0.000288802
0.00218976
-0.000480756
0.00196506
-0.000529628
0.00176848
-0.000479295
0.00161073
-0.000353038
0.00156902
-0.000167934
0.00151883
-2.0395e-05
0.00144016
7.34845e-05
0.00134558
0.00013554
0.00124179
0.000185096
0.00112951
0.00023213
0.00100822
0.000284317
0.000880861
0.000349892
0.000769884
0.000433379
0.000777948
0.000563376
0.000948594
0.000670902
0.00153456
0.000512335
0.00259485
0.00120717
0.00124984
0.00134473
-0.000241949
0.0014915
-0.00029233
-0.000554732
0.00901682
-0.000760198
0.00412188
-0.000400481
0.00241649
-8.38232e-05
0.00147096
0.000391872
7.83674e-05
0.000995996
-0.00168586
0.00146755
-0.0030593
0.00175558
-0.00387245
0.00190254
-0.00409853
0.00193665
-0.00383221
0.0018954
-0.00321538
0.00182042
-0.00241103
0.00175058
-0.00156393
0.00172404
-0.000782459
0.00177791
-0.000135229
0.00192855
0.000330107
0.00216465
0.000537102
0.0022293
0.000366758
0.00214425
0.000103283
0.00198093
-0.000125526
0.00176716
-0.000267045
0.00154803
-0.00031056
0.00134179
-0.000273118
0.00116405
-0.000175376
0.00103328
-3.72428e-05
0.00092676
8.60473e-05
0.000830173
0.000169989
0.000738686
0.000226944
0.000651523
0.000272174
0.000569321
0.000314246
0.000495235
0.000358317
0.000437844
0.000407197
0.000413675
0.000457462
0.000468806
0.00050816
0.000610416
0.00052921
0.00072051
0.000402161
0.000846048
0.00108155
0.000391957
0.00179874
-0.000385334
0.0022687
-0.000726852
-0.000553174
0.00988814
-0.000329051
0.00389773
0.000719022
0.00136839
0.00158817
0.000601779
0.00238132
-0.000714814
0.00294316
-0.00224772
0.00321979
-0.00333592
0.00321883
-0.00387148
0.00300902
-0.00388872
0.00266933
-0.00349254
0.00227346
-0.00281955
0.00188932
-0.00202694
0.00156919
-0.00124387
0.00135064
-0.000563968
0.00125368
-3.83291e-05
0.00128277
0.000300975
0.00139237
0.000427448
0.00142813
0.000330953
0.00137558
0.000155769
0.0012496
4.00572e-07
0.0010749
-9.24146e-05
0.00088137
-0.0001171
0.000688692
-8.05179e-05
0.000511254
1.98066e-06
0.000371375
0.000102551
0.000270792
0.000186543
0.000193669
0.000247024
0.000129302
0.00029122
7.48583e-05
0.000326527
3.20298e-05
0.000356984
6.17867e-06
0.000384077
6.07569e-06
0.000407209
4.03871e-05
0.00042306
0.000117111
0.000431347
0.000206944
0.000439291
0.000189382
0.000419638
0.000227506
0.00104335
1.48672e-06
0.00202467
-0.000148823
0.00241892
-0.000921997
0.00225901
0.00798558
0.00295703
0.00319968
0.00337758
0.00094782
0.0042439
-0.000264586
0.00499652
-0.00146745
0.00524739
-0.00249858
0.00505777
-0.00314628
0.00453522
-0.00334891
0.00380793
-0.00316143
0.00299852
-0.00268317
0.00220137
-0.00202246
0.00150403
-0.00132967
0.000960671
-0.000700585
0.0005921
-0.000195469
0.000417442
0.000136263
0.000406245
0.000312112
0.000471316
0.00036232
0.000502475
0.000299733
0.000465352
0.000192826
0.000366753
9.89263e-05
0.000226333
4.79277e-05
6.26049e-05
4.65439e-05
-0.000100159
8.21582e-05
-0.000234758
0.000136488
-0.00032674
0.000194439
-0.000386526
0.000246235
-0.000426428
0.000286831
-0.000452788
0.000317486
-0.000466173
0.000339817
-0.000463083
0.0003538
-0.000437122
0.000358021
-0.000380356
0.000350348
-0.000286664
0.000329274
-0.000155344
0.000299934
-9.76511e-07
0.000284832
0.000111201
0.00030737
0.000403396
0.000751069
0.000764497
0.00166349
0.00166265
0.00152068
0.000453137
0.00834218
0.0115072
0.0103593
0.00209573
0.00972492
0.000369796
0.00890782
-0.000650321
0.00780708
-0.00139779
0.00649186
-0.00183102
0.00508161
-0.00193866
0.00369745
-0.0017773
0.00243231
-0.00141809
0.00132908
-0.00091932
0.000462349
-0.00046303
-0.000131966
-0.000106362
-0.000455962
0.000128446
-0.000564404
0.000244633
-0.000552182
0.00029982
-0.000499235
0.000309303
-0.000473203
0.000273625
-0.000499951
0.000219494
-0.000574451
0.000173339
-0.00067651
0.000149894
-0.000781987
0.000151926
-0.000872145
0.000172218
-0.000936931
0.000201175
-0.000974563
0.000231971
-0.000988991
0.000260563
-0.000986153
0.000283893
-0.000969124
0.000300357
-0.000937686
0.000308279
-0.000889257
0.000305272
-0.000819728
0.000288391
-0.000724307
0.000254829
-0.000598663
0.000203531
-0.000437731
0.000138904
-0.000228281
7.52854e-05
1.84523e-05
6.05418e-05
0.000458287
0.000311145
0.00113515
0.000986538
0.00183304
0.000822695
0.00197722
0.00622192
0.00221064
0.00540142
0.0011904
0.00504278
-0.000291614
0.00444276
-0.000797764
0.00348751
-0.00087581
0.00235783
-0.000809069
0.00123001
-0.00064959
0.000196778
-0.000384975
-0.000624734
-9.79315e-05
-0.00115566
6.77881e-05
-0.00143076
0.000168646
-0.00152406
0.000221665
-0.00152592
0.000246402
-0.00148531
0.000259128
-0.00143572
0.00025963
-0.00140678
0.000244593
-0.00140837
0.000220986
-0.00143386
0.000198732
-0.00146901
0.000184948
-0.00149922
0.000182023
-0.00151497
0.000187863
-0.0015127
0.000198805
-0.00149272
0.000211884
-0.00145705
0.000224786
-0.0014084
0.000235144
-0.00134891
0.000240757
-0.00128004
0.000239301
-0.00120303
0.000228164
-0.00111934
0.000204591
-0.00103088
0.000166271
-0.000939664
0.000112209
-0.000844897
4.40342e-05
-0.000736327
-3.33854e-05
-0.000624286
-5.1598e-05
-0.000500923
0.000187686
-0.000265312
0.000750833
-8.7961e-05
0.000645248
0.00183393
0.000932383
0.00124206
0.00145102
0.00067177
0.00111648
4.28985e-05
0.000516681
-0.000198062
-0.00014975
-0.000209519
-0.000834311
-0.000124635
-0.00146514
-1.88863e-05
-0.0019374
8.71717e-05
-0.00219877
0.000163326
-0.00232642
0.000195327
-0.0023641
0.000206229
-0.00234536
0.000202836
-0.00229483
0.000195775
-0.00222694
0.000191139
-0.00215483
0.000187421
-0.00209141
0.00018107
-0.00204285
0.000172318
-0.00200776
0.000163539
-0.00198002
0.000157099
-0.00195223
0.000154117
-0.00191862
0.000154152
-0.00187601
0.000156085
-0.00182309
0.000158852
-0.00175978
0.000161364
-0.00168705
0.000162307
-0.00160673
0.000160326
-0.00152161
0.000154079
-0.00143594
0.000142381
-0.00135608
0.000124625
-0.00129142
0.000101503
-0.00125448
7.51618e-05
-0.0012577
4.7147e-05
-0.00131503
2.38437e-05
-0.00139208
2.53505e-05
-0.00132892
0.000124433
-0.000955792
0.000377602
-0.000847654
0.000537011
0.00091552
-0.00412632
-0.00468035
-0.00348981
-0.00286936
-0.00288031
-0.00313285
-0.00339763
-0.00357894
-0.00365664
-0.00363053
-0.00353069
-0.00340093
-0.00326168
-0.00312672
-0.00299932
-0.00287683
-0.00275822
-0.0026461
-0.0025429
-0.00244869
-0.00236115
-0.00227683
-0.00219266
-0.00210672
-0.00201809
-0.00192696
-0.00183483
-0.00174452
-0.00166021
-0.00158726
-0.00153166
-0.00149876
-0.00149187
-0.00151293
-0.0015576
-0.0016009
-0.00154398
-0.0012311
-0.000756738
)
;

boundaryField
{
    floor
    {
        type            calculated;
        value           nonuniform List<scalar> 
29
(
0
0
0
0
0
0
0
0
0
0
0
0
0
0
0
0
0
0
0
0
8.43087e-06
2.12613e-05
3.20306e-05
4.09529e-05
4.33289e-06
6.32033e-06
1.36871e-05
2.06722e-05
2.09781e-05
)
;
    }
    ceiling
    {
        type            calculated;
        value           nonuniform List<scalar> 
43
(
5.96767e-05
5.49966e-05
5.13858e-05
5.11679e-05
5.36961e-05
5.43534e-05
5.51341e-05
5.65549e-05
5.86926e-05
6.09509e-05
6.33814e-05
6.54523e-05
6.6878e-05
6.77639e-05
6.82712e-05
6.85431e-05
6.87007e-05
6.88379e-05
6.90057e-05
6.92142e-05
6.94465e-05
6.96755e-05
6.98749e-05
7.00249e-05
7.01114e-05
7.01251e-05
7.0058e-05
6.99036e-05
6.96573e-05
6.93217e-05
6.89159e-05
6.84919e-05
6.81629e-05
6.81086e-05
6.83993e-05
6.85543e-05
6.74029e-05
6.46253e-05
6.25422e-05
6.80809e-05
4.15715e-05
3.45912e-05
3.62204e-05
)
;
    }
    sWall
    {
        type            calculated;
        value           uniform -0.000179209;
    }
    nWall
    {
        type            calculated;
        value           nonuniform List<scalar> 6(5.00751e-05 4.90877e-05 4.62251e-05 5.52286e-05 7.06552e-05 9.0598e-05);
    }
    sideWalls
    {
        type            empty;
        value           nonuniform 0();
    }
    glass1
    {
        type            calculated;
        value           nonuniform List<scalar> 9(-3.64322e-05 -0.00010027 -0.000155962 -0.000204969 -0.000247783 -0.00028466 -0.000318169 -0.000356465 -0.000398184);
    }
    glass2
    {
        type            calculated;
        value           nonuniform List<scalar> 2(0.00028742 0.000308862);
    }
    sun
    {
        type            calculated;
        value           uniform 0;
    }
    heatsource1
    {
        type            calculated;
        value           nonuniform List<scalar> 3(2.02488e-07 2.02802e-07 2.02973e-07);
    }
    heatsource2
    {
        type            calculated;
        value           nonuniform List<scalar> 4(5.08358e-08 5.09556e-08 0 0);
    }
    Table_master
    {
        type            calculated;
        value           nonuniform List<scalar> 9(-1.52301e-07 -1.52437e-07 -1.52478e-07 -1.52501e-07 -1.52513e-07 -1.52516e-07 -1.52513e-07 -1.52489e-07 -1.52434e-07);
    }
    Table_slave
    {
        type            calculated;
        value           nonuniform List<scalar> 9(1.52088e-07 1.52115e-07 1.52105e-07 1.52095e-07 1.521e-07 1.52117e-07 1.52148e-07 1.52193e-07 1.5226e-07);
    }
    inlet
    {
        type            calculated;
        value           uniform -0.00633678;
    }
    outlet
    {
        type            calculated;
        value           nonuniform List<scalar> 2(0.00424571 0.000498908);
    }
}


// ************************************************************************* //
