// -*- C++ -*-
// File generated by PyFoam - sorry for the ugliness

FoamFile
{
 version 2.0;
 format ascii;
 class volVectorField;
 location "680";
 object U;
}

dimensions [ 0 1 -1 0 0 0 0 ];

internalField nonuniform List<vector> 459
(
  (0.0114999 0.0570092 0)
  (-0.111825 0.019278 0)
  (-0.133661 0.0124582 0)
  (-0.155808 0.00718157 0)
  (-0.17032 0.00151107 0)
  (-0.17589 -0.00463627 0)
  (-0.170593 -0.0113888 0)
  (-0.154086 -0.018796 0)
  (-0.127085 -0.0256989 0)
  (-0.0926222 -0.0306687 0)
  (-0.0556286 -0.0325349 0)
  (-0.022024 -0.0302908 0)
  (0.0107244 -0.0163117 0)
  (0.0197254 -0.00186208 0)
  (0.043012 0.0166867 0)
  (-0.0828506 0.00796086 0)
  (0.0221706 -0.00581337 0)
  (0.0149916 -0.011964 0)
  (0.0292048 -0.0133009 0)
  (0.0448951 -0.0118742 0)
  (0.0582782 -0.00908578 0)
  (0.0671411 -0.00521277 0)
  (0.0715015 -0.0029827 0)
  (0.0728993 -0.00218748 0)
  (0.0731307 -0.00191728 0)
  (0.0730295 -0.0017293 0)
  (0.0726571 -0.00149936 0)
  (0.0718351 -0.001134 0)
  (0.070196 -0.000404884 0)
  (0.0669043 0.00122425 0)
  (0.0602538 0.00465292 0)
  (0.0483923 0.00972257 0)
  (0.016578 0.0181049 0)
  (0.0578855 0.00630546 0)
  (0.116454 0.116796 0)
  (-0.103563 0.0508838 0)
  (-0.110241 0.0390894 0)
  (-0.133138 0.0286546 0)
  (-0.147965 0.0166973 0)
  (-0.154308 0.00282396 0)
  (-0.150184 -0.0132609 0)
  (-0.135456 -0.0301856 0)
  (-0.111364 -0.0448105 0)
  (-0.081248 -0.0539026 0)
  (-0.0497178 -0.055425 0)
  (-0.0212951 -0.0485097 0)
  (0.00335605 -0.0306357 0)
  (0.019336 -0.00978144 0)
  (0.0350949 0.0123521 0)
  (0.0368534 0.0181885 0)
  (0.0263291 0.0245847 0)
  (-0.0959006 0.00468872 0)
  (0.0267568 -0.0245547 0)
  (0.0304987 -0.0261354 0)
  (0.0422176 -0.0249247 0)
  (0.0542594 -0.0213311 0)
  (0.0641058 -0.0158583 0)
  (0.0694366 -0.00632865 0)
  (0.0705624 -0.000630024 0)
  (0.0703458 0.00154772 0)
  (0.0703648 0.00237188 0)
  (0.0706211 0.00287972 0)
  (0.0707917 0.00332496 0)
  (0.0707945 0.0039625 0)
  (0.0705825 0.00528499 0)
  (0.0695549 0.00845103 0)
  (0.0649905 0.0167288 0)
  (0.0549017 0.0256231 0)
  (0.021762 0.0361084 0)
  (0.0969665 0.0261028 0)
  (0.214676 0.175388 0)
  (-0.110877 0.0798808 0)
  (-0.085428 0.0628214 0)
  (-0.107751 0.0449327 0)
  (-0.121909 0.0252428 0)
  (-0.128778 0.00267145 0)
  (-0.125248 -0.0230978 0)
  (-0.111195 -0.0497694 0)
  (-0.0890176 -0.0715861 0)
  (-0.0625834 -0.0835879 0)
  (-0.0361359 -0.0835494 0)
  (-0.0129614 -0.0716825 0)
  (0.00701988 -0.0483955 0)
  (0.0215834 -0.0231206 0)
  (0.0326954 0.00154076 0)
  (0.0368018 0.0202532 0)
  (0.0325769 0.047289 0)
  (-0.0175522 -0.0249413 0)
  (0.0376484 -0.0376295 0)
  (0.049215 -0.0392008 0)
  (0.0553283 -0.0356204 0)
  (0.0617607 -0.0305122 0)
  (0.0678995 -0.0259994 0)
  (0.0712517 -0.018889 0)
  (0.0661774 -0.0122194 0)
  (0.0619592 -0.00876909 0)
  (0.0606302 -0.00690651 0)
  (0.0606638 -0.00570732 0)
  (0.0611374 -0.00476953 0)
  (0.0620395 -0.00383053 0)
  (0.0640959 -0.00238661 0)
  (0.0690159 0.0020061 0)
  (0.0696745 0.0221526 0)
  (0.0618125 0.0378319 0)
  (0.0262247 0.0544677 0)
  (0.119955 0.0560056 0)
  (0.306771 0.223099 0)
  (-0.129639 0.104747 0)
  (-0.0581999 0.0838016 0)
  (-0.0792504 0.060153 0)
  (-0.0909038 0.0348245 0)
  (-0.0972187 0.00475193 0)
  (-0.0926483 -0.0311048 0)
  (-0.0781023 -0.0677664 0)
  (-0.0581074 -0.0957896 0)
  (-0.0363739 -0.109538 0)
  (-0.0160233 -0.107489 0)
  (0.00156604 -0.0911589 0)
  (0.0163507 -0.0650328 0)
  (0.0289997 -0.0364471 0)
  (0.040823 -0.00878223 0)
  (0.0529291 0.0159202 0)
  (0.0681517 0.0399778 0)
  (0.0939973 -0.00696972 0)
  (0.0905287 -0.0237034 0)
  (0.0799658 -0.034945 0)
  (0.0708795 -0.0384435 0)
  (0.0653479 -0.0361681 0)
  (0.0623401 -0.0315063 0)
  (0.0596565 -0.0253969 0)
  (0.061279 -0.0157315 0)
  (0.0705139 -0.0111002 0)
  (0.0785032 -0.0086539 0)
  (0.0841939 -0.00717548 0)
  (0.0885789 -0.00593688 0)
  (0.091743 -0.0045089 0)
  (0.0927448 -0.00248429 0)
  (0.0896181 0.000729439 0)
  (0.0800998 0.00575203 0)
  (0.0698877 0.0276981 0)
  (0.0669345 0.0473569 0)
  (0.0365709 0.0697518 0)
  (0.136017 0.099745 0)
  (0.391258 0.259949 0)
  (-0.155778 0.12378 0)
  (-0.0293207 0.0970537 0)
  (-0.0477511 0.0701035 0)
  (-0.0547324 0.0415154 0)
  (-0.0587626 0.00584198 0)
  (-0.049163 -0.0394638 0)
  (-0.0339166 -0.0844661 0)
  (-0.0179745 -0.115557 0)
  (-0.00316803 -0.128673 0)
  (0.00931229 -0.123508 0)
  (0.0190587 -0.104547 0)
  (0.0275727 -0.0771396 0)
  (0.0356043 -0.0473934 0)
  (0.0442081 -0.0198427 0)
  (0.0550538 0.00228155 0)
  (0.0694292 0.0133491 0)
  (0.0803008 -0.00351826 0)
  (0.0793618 -0.0179515 0)
  (0.0712957 -0.0268542 0)
  (0.0629844 -0.0304664 0)
  (0.0562797 -0.0300867 0)
  (0.0513281 -0.0271412 0)
  (0.0481367 -0.021893 0)
  (0.0488069 -0.0134749 0)
  (0.053268 -0.00898393 0)
  (0.0581896 -0.0073157 0)
  (0.0627144 -0.0064494 0)
  (0.0669794 -0.00523411 0)
  (0.0707993 -0.00290549 0)
  (0.0737575 0.0013274 0)
  (0.0747556 0.00784984 0)
  (0.0731992 0.0172898 0)
  (0.0710006 0.0332127 0)
  (0.0748703 0.0505823 0)
  (0.0670078 0.0689373 0)
  (0.118854 0.100494 0)
  (0.113818 0.0790399 0)
  (0.124111 0.057448 0)
  (-0.239056 0.0450296 0)
  (0.458599 0.290037 0)
  (-0.184913 0.135258 0)
  (-0.00425158 0.0972876 0)
  (-0.0147244 0.0740421 0)
  (-0.0154484 0.0465682 0)
  (-0.0153382 0.00845346 0)
  (0.00682662 -0.051894 0)
  (0.0201719 -0.0998047 0)
  (0.0292347 -0.128554 0)
  (0.0346826 -0.13823 0)
  (0.0371025 -0.130709 0)
  (0.0376727 -0.11008 0)
  (0.0376869 -0.0819804 0)
  (0.03818 -0.0523947 0)
  (0.040272 -0.0263687 0)
  (0.0450887 -0.00753242 0)
  (0.0530985 0.00102749 0)
  (0.0575693 -0.00470399 0)
  (0.0559988 -0.0139097 0)
  (0.0500717 -0.0204771 0)
  (0.0431375 -0.0237531 0)
  (0.0368067 -0.0243281 0)
  (0.0317633 -0.0228755 0)
  (0.0286026 -0.019721 0)
  (0.0283429 -0.0154013 0)
  (0.0308366 -0.0130385 0)
  (0.0345189 -0.0122273 0)
  (0.038602 -0.0116593 0)
  (0.0428974 -0.0104452 0)
  (0.0473268 -0.00784298 0)
  (0.0517929 -0.00287386 0)
  (0.0565315 0.00528463 0)
  (0.0600714 0.0163272 0)
  (0.0636712 0.0303727 0)
  (0.070927 0.0448697 0)
  (0.073694 0.0555593 0)
  (0.0946841 0.0707063 0)
  (0.0923205 0.055619 0)
  (0.124208 0.055186 0)
  (-0.174216 0.0757464 0)
  (0.500184 0.315789 0)
  (-0.20418 0.124409 0)
  (0.0166084 0.068434 0)
  (0.0251219 0.0636928 0)
  (0.0313343 0.0408835 0)
  (0.0501906 -0.00861023 0)
  (0.0705575 -0.0664606 0)
  (0.0798536 -0.108828 0)
  (0.080239 -0.132213 0)
  (0.0744689 -0.137429 0)
  (0.064891 -0.127051 0)
  (0.0537335 -0.10515 0)
  (0.0430056 -0.0772491 0)
  (0.0341353 -0.0489936 0)
  (0.0284651 -0.0254693 0)
  (0.0267205 -0.0095881 0)
  (0.0282613 -0.00251492 0)
  (0.0293578 -0.00442473 0)
  (0.027439 -0.0100024 0)
  (0.0228437 -0.0148556 0)
  (0.017118 -0.0178212 0)
  (0.0114861 -0.0190556 0)
  (0.00678902 -0.0189874 0)
  (0.00375361 -0.0180003 0)
  (0.00304788 -0.0166407 0)
  (0.0044527 -0.0160941 0)
  (0.00698717 -0.0160999 0)
  (0.0100408 -0.0159343 0)
  (0.0134538 -0.0150443 0)
  (0.0173474 -0.0128831 0)
  (0.022038 -0.00856679 0)
  (0.0286388 -0.000752451 0)
  (0.036789 0.0104738 0)
  (0.0448506 0.0231072 0)
  (0.0546885 0.0352587 0)
  (0.0628384 0.0441636 0)
  (0.0770774 0.0553847 0)
  (0.0829408 0.0577808 0)
  (0.135741 0.0759864 0)
  (-0.117034 0.139668 0)
  (0.580362 0.319392 0)
  (-0.066926 0.0975694 0)
  (0.0656265 0.00695587 0)
  (0.10308 -0.00315846 0)
  (0.108245 -0.024255 0)
  (0.13394 -0.0571215 0)
  (0.148121 -0.0883488 0)
  (0.146154 -0.111968 0)
  (0.131968 -0.123682 0)
  (0.11021 -0.122309 0)
  (0.0852214 -0.109226 0)
  (0.0602873 -0.0873161 0)
  (0.0380218 -0.0613666 0)
  (0.0199682 -0.0364514 0)
  (0.00793562 -0.0175444 0)
  (0.00190958 -0.00621497 0)
  (0.000204661 -0.0017799 0)
  (-0.000582836 -0.0029804 0)
  (-0.00288058 -0.00659809 0)
  (-0.00690946 -0.0100887 0)
  (-0.0118253 -0.0126304 0)
  (-0.0167349 -0.0143327 0)
  (-0.0209231 -0.0155003 0)
  (-0.02386 -0.0163666 0)
  (-0.0252771 -0.0171268 0)
  (-0.0254225 -0.0179928 0)
  (-0.0248371 -0.0187668 0)
  (-0.023905 -0.0191274 0)
  (-0.0227911 -0.0188319 0)
  (-0.0214382 -0.0176997 0)
  (-0.0194688 -0.0154467 0)
  (-0.0158667 -0.0113624 0)
  (-0.00717074 -0.0042402 0)
  (0.00563877 0.00562159 0)
  (0.0171626 0.0134221 0)
  (0.0276973 0.0174531 0)
  (0.041089 0.0202515 0)
  (0.0521438 0.0176621 0)
  (0.136584 0.0721389 0)
  (-0.379096 0.21482 0)
  (0.685319 0.312681 0)
  (0.330534 0.217295 0)
  (0.336649 0.168439 0)
  (0.334329 0.110198 0)
  (0.315996 0.0596085 0)
  (0.28803 0.00843143 0)
  (0.252608 -0.0378011 0)
  (0.213021 -0.0699594 0)
  (0.169831 -0.0852542 0)
  (0.125342 -0.0855099 0)
  (0.0832464 -0.0745793 0)
  (0.0457879 -0.0560133 0)
  (0.0152988 -0.0349013 0)
  (-0.0077708 -0.0159536 0)
  (-0.0201646 -0.00530075 0)
  (-0.0262721 -0.000249038 0)
  (-0.028911 0.00119289 0)
  (-0.0304872 0.00014813 0)
  (-0.0329123 -0.00198948 0)
  (-0.0363749 -0.00430114 0)
  (-0.0404497 -0.00638758 0)
  (-0.0446884 -0.00827762 0)
  (-0.0487149 -0.0100725 0)
  (-0.0522757 -0.0117914 0)
  (-0.0552808 -0.0134139 0)
  (-0.0578332 -0.0149028 0)
  (-0.0601451 -0.0161044 0)
  (-0.0624685 -0.0168388 0)
  (-0.0651897 -0.0169513 0)
  (-0.0689241 -0.0162198 0)
  (-0.0743869 -0.0140773 0)
  (-0.0820474 -0.00923103 0)
  (-0.0921952 8.58631e-06 0)
  (-0.10283 0.0131644 0)
  (-0.117719 0.0300904 0)
  (-0.142827 0.052311 0)
  (-0.177785 0.0811612 0)
  (-0.220919 0.114281 0)
  (-0.289237 0.146363 0)
  (-0.576238 0.169817 0)
  (0.19268 0.0249283 0)
  (0.221261 0.0452235 0)
  (0.22258 0.020232 0)
  (0.205196 -0.0101462 0)
  (0.181431 -0.0322455 0)
  (0.150172 -0.0453095 0)
  (0.111881 -0.0495449 0)
  (0.0702933 -0.0457118 0)
  (0.0308593 -0.0356001 0)
  (-0.00494879 -0.0198795 0)
  (-0.0294049 -0.00564969 0)
  (-0.0434348 0.00295969 0)
  (-0.0506805 0.00684174 0)
  (-0.0540809 0.0084156 0)
  (-0.0556409 0.00868359 0)
  (-0.0569429 0.0081456 0)
  (-0.0585969 0.00706807 0)
  (-0.0609873 0.00545337 0)
  (-0.0640473 0.00381489 0)
  (-0.0677411 0.00228508 0)
  (-0.0720101 0.000953006 0)
  (-0.0767983 5.75298e-06 0)
  (-0.0820576 -0.000367747 0)
  (-0.0877195 3.91344e-05 0)
  (-0.0936613 0.001498 0)
  (-0.0997113 0.00426543 0)
  (-0.105764 0.00841434 0)
  (-0.111978 0.0135966 0)
  (-0.118724 0.0187045 0)
  (-0.12604 0.0224368 0)
  (-0.13227 0.0271473 0)
  (-0.137197 0.0355445 0)
  (-0.141149 0.0490009 0)
  (-0.144176 0.067565 0)
  (-0.143519 0.0880176 0)
  (-0.132938 0.0942906 0)
  (-0.118362 0.0429863 0)
  (-0.228107 -0.173314 0)
  (0.0613016 0.1434 0)
  (0.0386271 0.0772822 0)
  (0.0426592 0.020137 0)
  (0.0423033 -0.0204761 0)
  (0.040413 -0.0419477 0)
  (0.0265384 -0.0474241 0)
  (0.00452187 -0.0483377 0)
  (-0.0199099 -0.0483126 0)
  (-0.0405951 -0.0485287 0)
  (-0.056575 -0.0488868 0)
  (-0.0658544 -0.0510458 0)
  (-0.0702686 -0.0535048 0)
  (-0.0720669 -0.0557061 0)
  (-0.0726857 -0.0578473 0)
  (-0.0728403 -0.0600756 0)
  (-0.0730595 -0.0625386 0)
  (-0.073649 -0.0650992 0)
  (-0.0748008 -0.0672405 0)
  (-0.076649 -0.0688249 0)
  (-0.0791587 -0.0703136 0)
  (-0.0823979 -0.0722548 0)
  (-0.0865248 -0.0748956 0)
  (-0.091707 -0.0784233 0)
  (-0.0980801 -0.0828542 0)
  (-0.105644 -0.0878527 0)
  (-0.114082 -0.0925399 0)
  (-0.122586 -0.0953533 0)
  (-0.129939 -0.094062 0)
  (-0.135076 -0.0878683 0)
  (-0.137453 -0.0754434 0)
  (-0.136656 -0.0579459 0)
  (-0.131203 -0.0359531 0)
  (-0.119225 -0.0101098 0)
  (-0.0991861 0.0181883 0)
  (-0.0714455 0.0442543 0)
  (-0.0407161 0.0548785 0)
  (0.105421 -0.0363032 0)
  (-0.18364 -0.10323 0)
  (-0.123781 -0.255622 0)
  (-0.306787 -0.0509276 0)
  (-0.22233 0.149431 0)
  (-0.175295 0.127316 0)
  (-0.119452 0.127492 0)
  (-0.0949935 0.143616 0)
  (-0.0891221 0.156573 0)
  (-0.0906405 0.157232 0)
  (-0.096477 0.161075 0)
  (-0.101047 0.167466 0)
  (-0.10265 0.175095 0)
  (-0.101537 0.182911 0)
  (-0.0990518 0.191032 0)
  (-0.0961859 0.197296 0)
  (-0.0935962 0.201561 0)
  (-0.0915457 0.204804 0)
  (-0.090111 0.20764 0)
  (-0.089354 0.210362 0)
  (-0.0893551 0.212846 0)
  (-0.090114 0.214512 0)
  (-0.0915635 0.215043 0)
  (-0.093658 0.215241 0)
  (-0.096324 0.216096 0)
  (-0.0994202 0.21817 0)
  (-0.10276 0.221955 0)
  (-0.106137 0.227649 0)
  (-0.109338 0.234909 0)
  (-0.112151 0.242593 0)
  (-0.114363 0.248587 0)
  (-0.115722 0.249944 0)
  (-0.115779 0.24645 0)
  (-0.113551 0.237963 0)
  (-0.107344 0.226806 0)
  (-0.0949633 0.215283 0)
  (-0.0745737 0.206001 0)
  (-0.0464894 0.20153 0)
  (-0.00972806 0.202505 0)
  (0.0300452 0.205967 0)
  (0.144636 0.23363 0)
  (-0.297071 0.213995 0)
)
;

boundaryField
{
  floor
  {
    type noSlip;
  }
  ceiling
  {
    type noSlip;
  }
  sWall
  {
    type noSlip;
  }
  nWall
  {
    type noSlip;
  }
  sideWalls
  {
    type empty;
  }
  glass1
  {
    type noSlip;
  }
  glass2
  {
    type noSlip;
  }
  sun
  {
    type noSlip;
  }
  heatsource1
  {
    type noSlip;
  }
  heatsource2
  {
    type noSlip;
  }
  Table_master
  {
    type noSlip;
  }
  Table_slave
  {
    type noSlip;
  }
  inlet
  {
    type fixedValue;
    value uniform (0.277164 -0.114805 0);
  }
  outlet
  {
    type zeroGradient;
  }
} 	// ************************************************************************* //

