// -*- C++ -*-
// File generated by PyFoam - sorry for the ugliness

FoamFile
{
 version 2.0;
 format ascii;
 class volVectorField;
 location "300";
 object U;
}

dimensions [ 0 1 -1 0 0 0 0 ];

internalField nonuniform List<vector> 459
(
  (0.0560207 0.0811066 0)
  (-0.158139 0.0186609 0)
  (-0.173161 0.0166108 0)
  (-0.203508 0.0132287 0)
  (-0.229046 0.00919647 0)
  (-0.249285 0.004879 0)
  (-0.263482 0.000204633 0)
  (-0.270658 -0.0049878 0)
  (-0.269399 -0.0108746 0)
  (-0.2586 -0.0177803 0)
  (-0.237306 -0.0256358 0)
  (-0.204537 -0.0343788 0)
  (-0.160647 -0.0449617 0)
  (-0.113951 -0.0598848 0)
  (-0.0931712 -0.0794135 0)
  (0.0371828 0.0224976 0)
  (0.00415397 -0.0248745 0)
  (0.0288606 -0.0215085 0)
  (0.0493655 -0.0148761 0)
  (0.0626275 -0.00977369 0)
  (0.0694193 -0.00630564 0)
  (0.072206 -0.00408057 0)
  (0.073043 -0.00287232 0)
  (0.0731697 -0.00224013 0)
  (0.0730536 -0.00186423 0)
  (0.0727683 -0.0015992 0)
  (0.0722808 -0.00136806 0)
  (0.0714985 -0.00107591 0)
  (0.0701577 -0.000544705 0)
  (0.067613 0.000606532 0)
  (0.0626029 0.00290134 0)
  (0.0537663 0.00538727 0)
  (0.0452808 0.00711295 0)
  (-0.0129971 0.0223171 0)
  (0.249729 0.169629 0)
  (-0.159797 0.0526577 0)
  (-0.143133 0.0497101 0)
  (-0.17628 0.0432583 0)
  (-0.201768 0.0358902 0)
  (-0.221959 0.0277785 0)
  (-0.236378 0.0185244 0)
  (-0.244156 0.00765355 0)
  (-0.243853 -0.00521579 0)
  (-0.234623 -0.0197638 0)
  (-0.216319 -0.0346933 0)
  (-0.189268 -0.0486953 0)
  (-0.155722 -0.0616028 0)
  (-0.122229 -0.0740468 0)
  (-0.0980628 -0.0797539 0)
  (-0.0711341 -0.0535757 0)
  (-0.0273772 -0.0307408 0)
  (0.103361 -0.0252186 0)
  (0.0513505 -0.0318108 0)
  (0.051063 -0.0265267 0)
  (0.0616339 -0.0177409 0)
  (0.068542 -0.0102492 0)
  (0.071445 -0.004474 0)
  (0.0719993 -0.000805434 0)
  (0.0714551 0.00107159 0)
  (0.0710178 0.00196293 0)
  (0.070819 0.00242716 0)
  (0.0707039 0.00272921 0)
  (0.0705761 0.00302019 0)
  (0.0704082 0.00348875 0)
  (0.0701221 0.00450465 0)
  (0.0691348 0.00699896 0)
  (0.0648943 0.013703 0)
  (0.0543852 0.0193052 0)
  (0.0492665 0.0222695 0)
  (-0.0531164 0.0479686 0)
  (0.425302 0.25604 0)
  (-0.192781 0.0883712 0)
  (-0.108393 0.0821114 0)
  (-0.144005 0.0685132 0)
  (-0.166444 0.055418 0)
  (-0.184758 0.0414305 0)
  (-0.198355 0.0256354 0)
  (-0.206236 0.00737538 0)
  (-0.206523 -0.0135498 0)
  (-0.198045 -0.0366261 0)
  (-0.181294 -0.059829 0)
  (-0.157429 -0.0805523 0)
  (-0.129084 -0.0971299 0)
  (-0.100218 -0.107433 0)
  (-0.0735998 -0.104828 0)
  (-0.0460943 -0.0804697 0)
  (-0.0153478 -0.0544687 0)
  (0.0945435 -0.0666578 0)
  (0.0461946 -0.0504307 0)
  (0.0473343 -0.0345638 0)
  (0.0557624 -0.0231798 0)
  (0.0608411 -0.0143079 0)
  (0.0628362 -0.00670939 0)
  (0.0618988 -0.00557441 0)
  (0.060314 -0.00445479 0)
  (0.0597021 -0.00396703 0)
  (0.0599242 -0.00372765 0)
  (0.0604654 -0.00358098 0)
  (0.0611532 -0.0034308 0)
  (0.0621194 -0.003131 0)
  (0.0639027 -0.00233481 0)
  (0.067885 0.000838416 0)
  (0.0664721 0.0189378 0)
  (0.0526896 0.03169 0)
  (0.056143 0.0391686 0)
  (-0.0884566 0.0745019 0)
  (0.579141 0.326729 0)
  (-0.241845 0.122944 0)
  (-0.0693668 0.110146 0)
  (-0.109187 0.0905039 0)
  (-0.125721 0.0741473 0)
  (-0.140279 0.0567361 0)
  (-0.151933 0.0365966 0)
  (-0.159394 0.0125331 0)
  (-0.159918 -0.0159909 0)
  (-0.151667 -0.0475717 0)
  (-0.136374 -0.07844 0)
  (-0.116004 -0.104721 0)
  (-0.0929512 -0.124224 0)
  (-0.0694426 -0.134264 0)
  (-0.0466733 -0.130077 0)
  (-0.0239253 -0.109764 0)
  (-0.00100866 -0.0784692 0)
  (0.0422656 -0.00515688 0)
  (0.0583062 -0.0502926 0)
  (0.048289 -0.0485309 0)
  (0.0449736 -0.0353898 0)
  (0.0473646 -0.0253225 0)
  (0.0508171 -0.0171546 0)
  (0.0555624 -0.00851685 0)
  (0.062254 -0.00661527 0)
  (0.0698985 -0.00647411 0)
  (0.0768318 -0.00617675 0)
  (0.08269 -0.00553716 0)
  (0.0869653 -0.00439472 0)
  (0.0888254 -0.00267602 0)
  (0.0868291 -0.000250375 0)
  (0.0800479 0.00306132 0)
  (0.0659678 0.00785516 0)
  (0.0535249 0.0295237 0)
  (0.0409941 0.047343 0)
  (0.0605894 0.0602653 0)
  (-0.128612 0.0976673 0)
  (0.708551 0.383176 0)
  (-0.293695 0.154563 0)
  (-0.0282906 0.127254 0)
  (-0.0725941 0.104767 0)
  (-0.0816455 0.0871559 0)
  (-0.0907618 0.0678626 0)
  (-0.0989121 0.0447263 0)
  (-0.104749 0.0160996 0)
  (-0.104068 -0.0190384 0)
  (-0.0947332 -0.0582956 0)
  (-0.0810055 -0.0950597 0)
  (-0.0651166 -0.124411 0)
  (-0.0486262 -0.144914 0)
  (-0.0325585 -0.154532 0)
  (-0.0176127 -0.149585 0)
  (-0.00369789 -0.129419 0)
  (0.00929669 -0.0985871 0)
  (0.0272951 -0.0665029 0)
  (0.0380087 -0.0608691 0)
  (0.0368492 -0.04912 0)
  (0.0327895 -0.0361542 0)
  (0.0323054 -0.0269504 0)
  (0.0345367 -0.0204531 0)
  (0.0389791 -0.0151423 0)
  (0.0451411 -0.012071 0)
  (0.0521735 -0.0105469 0)
  (0.0587853 -0.00933463 0)
  (0.0647027 -0.00750214 0)
  (0.0695421 -0.00439217 0)
  (0.0726493 0.000407075 0)
  (0.0727523 0.00652229 0)
  (0.069317 0.0137639 0)
  (0.0621263 0.0228117 0)
  (0.0535628 0.039359 0)
  (0.0411324 0.0592936 0)
  (0.0678329 0.0807723 0)
  (-0.0342942 0.112309 0)
  (0.0409632 0.0206254 0)
  (-0.0730871 -0.0412602 0)
  (-0.278662 -0.0638363 0)
  (0.799293 0.432201 0)
  (-0.339424 0.179565 0)
  (0.0051585 0.126191 0)
  (-0.0335807 0.111393 0)
  (-0.0355552 0.0946682 0)
  (-0.039087 0.0743723 0)
  (-0.0426477 0.0499229 0)
  (-0.0454343 0.0191467 0)
  (-0.0393253 -0.0219138 0)
  (-0.0274156 -0.0687766 0)
  (-0.0164819 -0.108825 0)
  (-0.00691324 -0.138249 0)
  (0.00123579 -0.157714 0)
  (0.0079787 -0.165837 0)
  (0.0131316 -0.159231 0)
  (0.0167117 -0.137903 0)
  (0.0189512 -0.107202 0)
  (0.0224395 -0.0746272 0)
  (0.0237944 -0.0550239 0)
  (0.0196935 -0.0427836 0)
  (0.0150354 -0.0334058 0)
  (0.0138139 -0.0272246 0)
  (0.0154058 -0.0231632 0)
  (0.0190763 -0.0200099 0)
  (0.0241722 -0.0179509 0)
  (0.0299155 -0.0169308 0)
  (0.0356657 -0.0158382 0)
  (0.0412859 -0.0137087 0)
  (0.0466028 -0.00970309 0)
  (0.0512508 -0.00306119 0)
  (0.0546421 0.00593457 0)
  (0.0552147 0.0161694 0)
  (0.0539171 0.0277932 0)
  (0.0528606 0.0431885 0)
  (0.0491128 0.0625206 0)
  (0.0759277 0.0875223 0)
  (0.0463524 0.107661 0)
  (0.0930201 0.0701107 0)
  (0.119218 0.0443328 0)
  (-0.143279 -0.0161425 0)
  (0.83076 0.476322 0)
  (-0.361926 0.16864 0)
  (0.0265953 0.0799275 0)
  (0.0187849 0.106584 0)
  (0.0184972 0.102452 0)
  (0.0171788 0.0792031 0)
  (0.0181989 0.0503679 0)
  (0.0195116 0.0150133 0)
  (0.037242 -0.0339896 0)
  (0.0492959 -0.0810047 0)
  (0.0544023 -0.117582 0)
  (0.0549658 -0.143294 0)
  (0.0525708 -0.159793 0)
  (0.0484964 -0.166169 0)
  (0.0429575 -0.158283 0)
  (0.0356313 -0.135554 0)
  (0.0261506 -0.10394 0)
  (0.0171786 -0.0711504 0)
  (0.00915289 -0.0480087 0)
  (0.00144575 -0.0363416 0)
  (-0.00372263 -0.0302966 0)
  (-0.00558415 -0.0271261 0)
  (-0.005422 -0.0251099 0)
  (-0.00375466 -0.0236076 0)
  (-0.000971771 -0.0226368 0)
  (0.00252966 -0.0220594 0)
  (0.00628764 -0.0211987 0)
  (0.0103852 -0.0192935 0)
  (0.0149508 -0.0154652 0)
  (0.02011 -0.00859751 0)
  (0.0275909 0.00217734 0)
  (0.0332387 0.0140346 0)
  (0.0378665 0.0261236 0)
  (0.0442654 0.0398564 0)
  (0.0504988 0.0555881 0)
  (0.0757932 0.0762273 0)
  (0.086287 0.0848494 0)
  (0.12186 0.0556866 0)
  (0.163892 0.0423827 0)
  (-0.0366282 0.0929378 0)
  (0.929666 0.488867 0)
  (-0.1145 0.150452 0)
  (0.0920754 0.00943775 0)
  (0.136689 0.0394176 0)
  (0.120326 0.0628326 0)
  (0.106987 0.0502043 0)
  (0.106294 0.0207838 0)
  (0.112234 -0.0195485 0)
  (0.131484 -0.0564104 0)
  (0.136072 -0.0891223 0)
  (0.129486 -0.115932 0)
  (0.116452 -0.136091 0)
  (0.100569 -0.150163 0)
  (0.0843234 -0.155566 0)
  (0.0677163 -0.146323 0)
  (0.0493276 -0.121626 0)
  (0.027423 -0.0891428 0)
  (0.00691514 -0.0568531 0)
  (-0.00832014 -0.0356259 0)
  (-0.017026 -0.029243 0)
  (-0.0226129 -0.0267993 0)
  (-0.026044 -0.0256222 0)
  (-0.0281589 -0.024925 0)
  (-0.0293063 -0.0245138 0)
  (-0.0297495 -0.024345 0)
  (-0.0297444 -0.0242394 0)
  (-0.0294387 -0.0238408 0)
  (-0.0287599 -0.0227107 0)
  (-0.0274554 -0.0203306 0)
  (-0.0250101 -0.0161126 0)
  (-0.0199636 -0.00935088 0)
  (-0.00722173 0.00064217 0)
  (0.00140388 0.0113528 0)
  (0.0128666 0.0202976 0)
  (0.0246774 0.0278765 0)
  (0.0475849 0.036937 0)
  (0.0677933 0.0298046 0)
  (0.0888932 -0.00454673 0)
  (0.150204 0.0379709 0)
  (-0.433522 0.211583 0)
  (1.06012 0.448079 0)
  (0.513978 0.299119 0)
  (0.517978 0.227285 0)
  (0.494883 0.186794 0)
  (0.419633 0.158548 0)
  (0.353594 0.118913 0)
  (0.316293 0.0735273 0)
  (0.297901 0.0286289 0)
  (0.270407 -0.0165726 0)
  (0.236979 -0.055793 0)
  (0.201523 -0.0861011 0)
  (0.166042 -0.108247 0)
  (0.133329 -0.124746 0)
  (0.10489 -0.132346 0)
  (0.0788262 -0.123133 0)
  (0.0513388 -0.096693 0)
  (0.0173264 -0.0641979 0)
  (-0.0125747 -0.0345395 0)
  (-0.0266817 -0.0245856 0)
  (-0.0355727 -0.0226739 0)
  (-0.0422416 -0.0223438 0)
  (-0.0476732 -0.0223094 0)
  (-0.0524212 -0.0223444 0)
  (-0.0567631 -0.0224283 0)
  (-0.0609258 -0.0225186 0)
  (-0.0651333 -0.0224512 0)
  (-0.0695836 -0.0219208 0)
  (-0.0744578 -0.0204933 0)
  (-0.0799948 -0.017607 0)
  (-0.0865632 -0.0126012 0)
  (-0.0945566 -0.00482988 0)
  (-0.104045 0.00599008 0)
  (-0.112693 0.0187295 0)
  (-0.127889 0.0337121 0)
  (-0.152945 0.0512309 0)
  (-0.189924 0.0698634 0)
  (-0.24335 0.0846658 0)
  (-0.30512 0.0930429 0)
  (-0.375763 0.0957948 0)
  (-0.640553 0.0935057 0)
  (-0.242186 0.0898173 0)
  (0.172174 0.157897 0)
  (0.265525 0.150243 0)
  (0.263177 0.118448 0)
  (0.260907 0.0765899 0)
  (0.257059 0.033387 0)
  (0.245505 -0.00399055 0)
  (0.223447 -0.0327497 0)
  (0.193486 -0.054309 0)
  (0.159001 -0.0718208 0)
  (0.125693 -0.0891835 0)
  (0.0942274 -0.0994543 0)
  (0.0642701 -0.0898442 0)
  (0.0327761 -0.0601694 0)
  (-0.0115051 -0.0291865 0)
  (-0.0345816 -0.0163761 0)
  (-0.0455583 -0.0147272 0)
  (-0.0536634 -0.0154764 0)
  (-0.0608124 -0.0162069 0)
  (-0.0676368 -0.0166715 0)
  (-0.074388 -0.0169284 0)
  (-0.0812057 -0.0170085 0)
  (-0.08821 -0.0168597 0)
  (-0.0954915 -0.0163184 0)
  (-0.103066 -0.0151007 0)
  (-0.110834 -0.012813 0)
  (-0.118554 -0.00898699 0)
  (-0.125804 -0.00314371 0)
  (-0.131866 0.005139 0)
  (-0.135509 0.0160438 0)
  (-0.137978 0.0304998 0)
  (-0.139981 0.0487419 0)
  (-0.142595 0.0698979 0)
  (-0.146438 0.08996 0)
  (-0.148449 0.0978097 0)
  (-0.130328 0.0713688 0)
  (-0.0805563 -0.0297047 0)
  (-0.287573 -0.214567 0)
  (-0.115655 0.245661 0)
  (0.0881627 0.169509 0)
  (0.0999306 0.118213 0)
  (0.125937 0.0943448 0)
  (0.15254 0.0666342 0)
  (0.168719 0.037935 0)
  (0.170994 0.0161629 0)
  (0.163078 -5.69095e-07 0)
  (0.145 -0.0144499 0)
  (0.119613 -0.0307285 0)
  (0.092558 -0.0560014 0)
  (0.0536017 -0.0709712 0)
  (0.0170294 -0.0532709 0)
  (-0.0224275 0.00650318 0)
  (-0.0461403 0.0207488 0)
  (-0.0561367 0.0194058 0)
  (-0.0622546 0.013608 0)
  (-0.0681363 0.00940537 0)
  (-0.0744002 0.00665256 0)
  (-0.0809224 0.00468186 0)
  (-0.0875772 0.00316536 0)
  (-0.094291 0.00196758 0)
  (-0.101006 0.00105502 0)
  (-0.107636 0.000468099 0)
  (-0.114018 0.000312674 0)
  (-0.119884 0.000758217 0)
  (-0.124838 0.00204298 0)
  (-0.12831 0.00449478 0)
  (-0.129432 0.00868047 0)
  (-0.12708 0.0158296 0)
  (-0.119787 0.0268597 0)
  (-0.106441 0.0424679 0)
  (-0.0872143 0.0622488 0)
  (-0.0635042 0.0817465 0)
  (-0.0385487 0.0927854 0)
  (0.00397357 0.0747297 0)
  (0.146155 4.55142e-05 0)
  (-0.210562 -0.125791 0)
  (-0.128651 -0.354814 0)
  (-0.434001 -0.101476 0)
  (-0.31625 0.141102 0)
  (-0.172355 0.0465037 0)
  (-0.0922058 0.0209125 0)
  (-0.00799251 0.0201602 0)
  (0.054631 0.000792053 0)
  (0.0915052 -0.0212469 0)
  (0.111409 -0.0423135 0)
  (0.115341 -0.060397 0)
  (0.105693 -0.0751502 0)
  (0.0840308 -0.0911067 0)
  (0.0559706 -0.11519 0)
  (-0.0215762 -0.108877 0)
  (-0.0692403 -0.0729629 0)
  (-0.0757033 -0.0678554 0)
  (-0.0741448 -0.0653286 0)
  (-0.0734598 -0.0643023 0)
  (-0.0749005 -0.0606945 0)
  (-0.0784606 -0.0562102 0)
  (-0.0830586 -0.0515487 0)
  (-0.0881599 -0.0470679 0)
  (-0.093516 -0.0428722 0)
  (-0.0989879 -0.038958 0)
  (-0.104458 -0.0352702 0)
  (-0.109772 -0.0317161 0)
  (-0.114692 -0.028167 0)
  (-0.118855 -0.0244535 0)
  (-0.121743 -0.0203538 0)
  (-0.122614 -0.0155651 0)
  (-0.120317 -0.00976521 0)
  (-0.112819 -0.00278883 0)
  (-0.0974398 0.0060592 0)
  (-0.0722427 0.0176974 0)
  (-0.0381447 0.0327417 0)
  (0.0163119 0.0518985 0)
  (0.0658614 0.0532797 0)
  (0.112591 0.0341913 0)
  (0.170874 -0.0012167 0)
  (-0.200512 -0.0637324 0)
)
;

boundaryField
{
  floor
  {
    type noSlip;
  }
  ceiling
  {
    type noSlip;
  }
  sWall
  {
    type noSlip;
  }
  nWall
  {
    type noSlip;
  }
  sideWalls
  {
    type empty;
  }
  glass1
  {
    type noSlip;
  }
  glass2
  {
    type noSlip;
  }
  sun
  {
    type noSlip;
  }
  heatsource1
  {
    type noSlip;
  }
  heatsource2
  {
    type noSlip;
  }
  Table_master
  {
    type noSlip;
  }
  Table_slave
  {
    type noSlip;
  }
  inlet
  {
    type fixedValue;
    value uniform (0.277164 -0.114805 0);
  }
  outlet
  {
    type zeroGradient;
  }
} 	// ************************************************************************* //

