/*--------------------------------*- C++ -*----------------------------------*\
  =========                 |
  \\      /  F ield         | OpenFOAM: The Open Source CFD Toolbox
   \\    /   O peration     | Website:  https://openfoam.org
    \\  /    A nd           | Version:  6
     \\/     M anipulation  |
\*---------------------------------------------------------------------------*/
FoamFile
{
    version     2.0;
    format      ascii;
    class       volScalarField;
    location    "100";
    object      alphat;
}
// * * * * * * * * * * * * * * * * * * * * * * * * * * * * * * * * * * * * * //

dimensions      [1 -1 -1 0 0 0 0];

internalField   nonuniform List<scalar> 
459
(
0.000844265
0.000877619
0.000860271
0.000886918
0.00090962
0.000928559
0.000944589
0.000958595
0.000971484
0.000984074
0.000993004
0.000997362
0.000997277
0.000994848
0.000990971
0.000806472
0.000756846
0.00071709
0.000693814
0.000678785
0.000661617
0.000635375
0.000609007
0.000583538
0.000559197
0.000536233
0.000514766
0.000494789
0.000476164
0.000458556
0.000441387
0.000423892
0.0004176
0.000390239
0.00130248
0.00200949
0.00167777
0.00197015
0.00210065
0.0022396
0.0023776
0.00250179
0.0025943
0.00263748
0.00263974
0.00257258
0.00239824
0.00206681
0.00154401
0.00102194
0.000961575
0.000957116
0.00166068
0.00217656
0.00257037
0.00275561
0.00265384
0.00212509
0.00182637
0.00160651
0.00143683
0.0013005
0.00118807
0.00109253
0.00100682
0.000924245
0.000851954
0.000792158
0.000983549
0.000513283
0.00172615
0.00307423
0.00179432
0.00276046
0.00296294
0.00309878
0.00320326
0.00328231
0.00333928
0.00336852
0.00337203
0.00332094
0.00317941
0.00290385
0.00245684
0.00185842
0.00113144
0.00109565
0.00313377
0.00382971
0.00403884
0.00398683
0.00332105
0.00082743
0.000722348
0.000647233
0.000591811
0.000549517
0.000516251
0.000489561
0.000468244
0.000452676
0.000522151
0.000633624
0.00116035
0.000608004
0.00216383
0.00471018
0.00175183
0.00308329
0.00343076
0.00353482
0.00358701
0.00361729
0.00364073
0.00365937
0.0036735
0.00366399
0.00360442
0.0034595
0.00317291
0.00266394
0.00190767
0.00119687
0.003533
0.00408708
0.00437341
0.0044457
0.00432148
0.00358065
0.000856728
0.000807857
0.000790431
0.000782222
0.000772343
0.000753731
0.000724624
0.000693562
0.000655439
0.000641577
0.000686204
0.00143159
0.000677662
0.00260748
0.00685859
0.00216036
0.00292402
0.00362533
0.00373618
0.00375525
0.00375195
0.00375334
0.0037702
0.00379884
0.0038325
0.00384392
0.00380603
0.00369398
0.00351732
0.00338026
0.00342948
0.00379153
0.00416588
0.00430492
0.00435243
0.00433318
0.00417395
0.00364854
0.00358136
0.00358291
0.00356713
0.00350342
0.00337458
0.0031321
0.00272074
0.00221927
0.00171265
0.00129346
0.00135468
0.000938039
0.000816708
0.000966032
0.00108463
0.00305542
0.00912147
0.00365888
0.00251728
0.0034564
0.0037491
0.00382251
0.00382456
0.00379726
0.00378306
0.0038196
0.0038884
0.00394506
0.00395634
0.00387045
0.00363286
0.00328069
0.00308893
0.00348168
0.00404871
0.00416183
0.00417205
0.00419264
0.00422669
0.00423836
0.00428767
0.00431487
0.00429322
0.00422087
0.00410527
0.00395401
0.00366936
0.00322533
0.00264942
0.00206362
0.00151564
0.00124288
0.00109762
0.00156256
0.00114723
0.00350894
0.0109588
0.00678654
0.00335146
0.00264619
0.00298395
0.00343641
0.00375706
0.00392843
0.00376546
0.00381072
0.00389126
0.00396565
0.0040142
0.00398216
0.0037684
0.00327995
0.00276569
0.00314554
0.00400697
0.00412382
0.0040849
0.00408526
0.00413779
0.00420577
0.00426076
0.00427251
0.00423261
0.00415897
0.00407353
0.00399772
0.0039308
0.00363911
0.00315028
0.0026162
0.00207906
0.00174392
0.0017102
0.0018102
0.00136319
0.00363024
0.0111464
0.00883041
0.00660673
0.004663
0.00356225
0.00328686
0.00348557
0.00378319
0.00381073
0.00382457
0.00386483
0.00392018
0.00396765
0.00396927
0.0038421
0.00338335
0.00258706
0.00281641
0.00404262
0.00419147
0.00409879
0.00406278
0.00408077
0.00410242
0.00409454
0.00404454
0.00396379
0.00388308
0.00383932
0.00386136
0.00395707
0.00400991
0.00367019
0.00336181
0.00327811
0.00363007
0.00449956
0.00556654
0.00200736
0.00356325
0.00434916
0.00485865
0.00500417
0.00477094
0.00432969
0.00394884
0.00373814
0.00366668
0.00365291
0.00369062
0.00375408
0.00381747
0.00385883
0.00385846
0.0037656
0.0033647
0.00249171
0.00249896
0.00411408
0.00433993
0.00418815
0.00412205
0.0041016
0.00406243
0.00397699
0.00383992
0.00366562
0.00348414
0.00332714
0.00321106
0.00313205
0.00307959
0.0030474
0.00305988
0.00310077
0.00307712
0.00291152
0.00267721
0.00182837
0.00266424
0.00426176
0.00460247
0.00451726
0.0043279
0.00415802
0.00403994
0.00395477
0.00389576
0.00384638
0.00379002
0.00371792
0.00363128
0.00350782
0.00312384
0.00223563
0.00218112
0.00426922
0.00453042
0.00430701
0.00426697
0.00426755
0.00422365
0.00412089
0.00396022
0.00375417
0.00353106
0.00333017
0.00318996
0.00313095
0.00312808
0.00314963
0.00317001
0.0031414
0.00299973
0.00272002
0.00232946
0.00148734
0.00278726
0.00486865
0.00510029
0.00490886
0.00470086
0.00448338
0.0042711
0.00406853
0.00383067
0.00355859
0.00328031
0.00301723
0.00278822
0.00259255
0.00231688
0.0017482
0.00180056
0.00410396
0.0041027
0.00391978
0.00393953
0.00397151
0.00395329
0.003892
0.00380187
0.00369718
0.00359157
0.00349275
0.00340333
0.00337937
0.00341084
0.00347326
0.00353282
0.00357448
0.00354497
0.00348755
0.00293273
0.00151012
0.00244377
0.00256445
0.00266953
0.00282165
0.00266828
0.00242639
0.00225497
0.0020989
0.0019541
0.00181981
0.00170146
0.00159677
0.00149975
0.00140769
0.00131995
0.00123711
0.00115895
0.001081
0.00103798
0.00110617
0.00110498
0.00109872
0.0011003
0.00110247
0.00110414
0.00110728
0.0011143
0.00112757
0.00114948
0.00118291
0.00123123
0.00129029
0.00136133
0.00144293
0.0015329
0.00165345
0.00168367
0.00164082
0.0015293
0.00140925
)
;

boundaryField
{
    floor
    {
        type            compressible::alphatWallFunction;
        Prt             0.85;
        value           nonuniform List<scalar> 
29
(
0.000140958
0.000114648
0.000107453
0.00010165
9.82337e-05
9.60202e-05
9.34843e-05
8.95933e-05
8.56634e-05
8.18476e-05
7.81816e-05
7.47049e-05
7.14378e-05
6.83823e-05
6.55197e-05
6.28004e-05
6.01363e-05
5.74079e-05
5.64217e-05
5.21169e-05
5.21162e-05
7.12006e-05
8.54958e-05
9.58343e-05
0.000140957
0.000114646
0.000136178
0.000155627
0.000169653
)
;
    }
    ceiling
    {
        type            compressible::alphatWallFunction;
        Prt             0.85;
        value           nonuniform List<scalar> 
43
(
0.000334195
0.00034954
0.000362842
0.000382084
0.000362797
0.00033211
0.000310156
0.00029001
0.000271171
0.000253564
0.00023793
0.000223999
0.000210998
0.000198576
0.000186649
0.000175307
0.000164525
0.000153688
0.000147685
0.000157215
0.000157049
0.000156176
0.000156395
0.000156698
0.00015693
0.000157366
0.000158343
0.000160188
0.000163228
0.000167852
0.000174512
0.000182609
0.000192296
0.000203352
0.000215462
0.000231564
0.000235581
0.000229885
0.000214981
0.000198802
0.000474278
0.000569605
0.000377608
)
;
    }
    sWall
    {
        type            compressible::alphatWallFunction;
        Prt             0.85;
        value           uniform 0.000332961;
    }
    nWall
    {
        type            compressible::alphatWallFunction;
        Prt             0.85;
        value           nonuniform List<scalar> 6(0.000153828 0.000162525 0.000192146 0.000208967 0.000212028 0.000198426);
    }
    sideWalls
    {
        type            empty;
    }
    glass1
    {
        type            compressible::alphatWallFunction;
        Prt             0.85;
        value           nonuniform List<scalar> 9(0.000116488 0.000179432 0.000235588 0.000292165 0.000348379 0.000404197 0.000459897 0.000474812 0.000466892);
    }
    glass2
    {
        type            compressible::alphatWallFunction;
        Prt             0.85;
        value           nonuniform List<scalar> 2(0.000275568 0.00025237);
    }
    sun
    {
        type            compressible::alphatWallFunction;
        Prt             0.85;
        value           nonuniform List<scalar> 
14
(
0.000120108
0.00012487
0.000122386
0.000126198
0.000129436
0.000132129
0.000134404
0.000136388
0.00013821
0.000139988
0.000141247
0.000141861
0.000141848
0.000141505
)
;
    }
    heatsource1
    {
        type            compressible::alphatWallFunction;
        Prt             0.85;
        value           nonuniform List<scalar> 3(0.000116303 0.000137626 0.000154282);
    }
    heatsource2
    {
        type            compressible::alphatWallFunction;
        Prt             0.85;
        value           nonuniform List<scalar> 4(0.000145508 0.000136998 0.000136996 0.000160795);
    }
    Table_master
    {
        type            compressible::alphatWallFunction;
        Prt             0.85;
        value           nonuniform List<scalar> 9(0.000117859 0.000102604 9.15359e-05 8.32688e-05 7.68957e-05 7.18404e-05 6.7755e-05 6.44717e-05 6.20622e-05);
    }
    Table_slave
    {
        type            compressible::alphatWallFunction;
        Prt             0.85;
        value           nonuniform List<scalar> 9(0.000122075 0.000115039 0.000112517 0.000111326 0.000109891 0.000107183 0.000102934 9.8376e-05 9.27477e-05);
    }
    inlet
    {
        type            fixedValue;
        value           uniform 1.94e-05;
    }
    outlet
    {
        type            zeroGradient;
    }
}


// ************************************************************************* //
