/*--------------------------------*- C++ -*----------------------------------*\
  =========                 |
  \\      /  F ield         | OpenFOAM: The Open Source CFD Toolbox
   \\    /   O peration     | Website:  https://openfoam.org
    \\  /    A nd           | Version:  6
     \\/     M anipulation  |
\*---------------------------------------------------------------------------*/
FoamFile
{
    version     2.0;
    format      ascii;
    class       volScalarField;
    location    "500";
    object      epsilon;
}
// * * * * * * * * * * * * * * * * * * * * * * * * * * * * * * * * * * * * * //

dimensions      [0 2 -3 0 0 0 0];

internalField   nonuniform List<scalar> 
459
(
0.000123925
0.000137843
0.000121844
0.000136854
0.000152433
0.000167645
0.000182561
0.000197535
0.000213188
0.000229625
0.000243505
0.000252927
0.000255952
0.000251193
0.000236262
3.73532e-05
6.07333e-05
6.5119e-05
6.7613e-05
6.50948e-05
5.46213e-05
4.13544e-05
3.13829e-05
2.32877e-05
1.67473e-05
1.16674e-05
7.96551e-06
5.44913e-06
3.83559e-06
2.83573e-06
2.29406e-06
3.76467e-06
3.27438e-05
1.53864e-05
0.000530858
0.00122557
0.000132556
0.000104615
0.000107462
0.000112642
0.00011925
0.000128235
0.000140678
0.000157037
0.000175251
0.00019344
0.000208176
0.000214834
0.000216274
0.000265606
9.71501e-05
9.7758e-05
0.00011912
6.87704e-05
5.88886e-05
5.51542e-05
5.01515e-05
2.9377e-05
2.26096e-05
1.68793e-05
1.20645e-05
8.5245e-06
6.13762e-06
4.60609e-06
3.65203e-06
3.05854e-06
3.12406e-06
9.91512e-06
0.000109093
3.54086e-05
0.00130433
0.00408844
0.000269188
0.000112298
0.000107657
0.000113359
0.000121759
0.000133093
0.000147758
0.000165738
0.000184879
0.000202276
0.000214947
0.00022091
0.000222159
0.000231923
0.000282892
0.000187062
0.000164927
8.24941e-05
5.95863e-05
5.38574e-05
5.19778e-05
2.19453e-05
1.55104e-05
1.24742e-05
9.52206e-06
7.52556e-06
6.29793e-06
5.43482e-06
4.82359e-06
4.57301e-06
1.18167e-05
2.64005e-05
0.00029848
5.85361e-05
0.00258971
0.00933644
0.000629388
0.000136034
0.000115609
0.000123425
0.000135131
0.000149787
0.000167753
0.000189228
0.000212015
0.000230737
0.000242548
0.000247452
0.000247374
0.000248064
0.000263737
0.000311586
0.000178353
9.73867e-05
5.56551e-05
4.67109e-05
5.1296e-05
6.65698e-05
9.71626e-05
0.000102521
0.000110814
0.000121663
0.000127647
0.000131726
0.000130718
0.000120862
0.000102324
8.06851e-05
7.50853e-05
0.000361438
0.000126588
0.00446016
0.0167395
0.00146052
0.000188559
0.000125505
0.000133985
0.000151144
0.000173431
0.000201188
0.000234453
0.000269421
0.000295607
0.00031064
0.000316753
0.000313719
0.000296836
0.000262001
0.000201675
0.000112535
6.07596e-05
4.10558e-05
3.79929e-05
4.03255e-05
4.60386e-05
5.47243e-05
6.45094e-05
7.66049e-05
9.12341e-05
0.00010219
0.000109682
0.000112793
0.000106154
8.83004e-05
7.21463e-05
6.57562e-05
0.000153812
0.00018972
0.000143359
0.000153936
0.000235568
0.00699388
0.0239773
0.00331032
0.000378777
0.000164148
0.000154808
0.000172192
0.000201529
0.000243146
0.000300455
0.000355621
0.000387268
0.000399695
0.000403497
0.000402719
0.000388464
0.000342279
0.000257136
0.000158123
8.64774e-05
5.54925e-05
4.5918e-05
4.31081e-05
4.31047e-05
4.644e-05
5.39927e-05
6.61797e-05
8.31606e-05
0.000104094
0.000125744
0.000145842
0.000155099
0.000142385
0.0001061
8.23409e-05
9.81216e-05
0.000122825
0.000116125
0.000297936
0.000289698
0.0102276
0.027656
0.00753683
0.00162377
0.000560399
0.000332871
0.000288234
0.000299425
0.000341968
0.000436964
0.000499972
0.000513126
0.000498361
0.000475742
0.000455627
0.000434324
0.000393973
0.000319999
0.000223639
0.000140065
9.11719e-05
6.83649e-05
5.6892e-05
5.01933e-05
4.76814e-05
5.13188e-05
6.25273e-05
8.23747e-05
0.000110502
0.000145968
0.000189394
0.000229146
0.000252047
0.000215323
0.000165278
0.000158885
0.000193841
0.000257599
0.000488141
0.000479561
0.0111721
0.0350631
0.0164997
0.00901651
0.00447207
0.00217006
0.00125309
0.000920504
0.000818501
0.000809287
0.000761937
0.000691605
0.000615806
0.000545291
0.000485281
0.000435247
0.000386368
0.000326099
0.000253565
0.000184744
0.000133286
0.000100154
7.97033e-05
6.70963e-05
5.85778e-05
5.64764e-05
6.44954e-05
8.68536e-05
0.000125373
0.000179234
0.00024686
0.000326067
0.000415883
0.000516204
0.000554422
0.000770144
0.00132494
0.0020186
0.00493889
0.00134595
0.0103769
0.0181555
0.0145277
0.0106594
0.00747791
0.00502523
0.00337725
0.0023624
0.00176739
0.00136146
0.0010747
0.000866415
0.000710147
0.000589194
0.000493263
0.000415547
0.000350131
0.000291399
0.000236646
0.00018775
0.00014774
0.000117846
9.80085e-05
8.53199e-05
7.56542e-05
6.80691e-05
6.87911e-05
8.924e-05
0.000136066
0.000209951
0.000303376
0.000414603
0.000545673
0.000699061
0.000883857
0.00110755
0.00137474
0.00159553
0.00179093
0.00108734
0.00608589
0.00830377
0.00624879
0.00457515
0.00332736
0.00244461
0.00183694
0.0014102
0.00110156
0.000873733
0.000701746
0.000568501
0.000462617
0.000376777
0.000306337
0.000248245
0.000200469
0.000161725
0.000131032
0.000107508
9.07434e-05
8.07771e-05
7.81884e-05
7.89043e-05
7.33326e-05
8.23764e-05
0.000123351
0.00019788
0.000291068
0.00039662
0.000520512
0.00066334
0.000817632
0.000957288
0.00105596
0.00106063
0.000941426
0.000601833
0.00427514
0.0068374
0.00517069
0.00383598
0.0028983
0.00219783
0.00167989
0.00130021
0.00102117
0.000812132
0.000651925
0.000525975
0.000424618
0.000341748
0.000273686
0.000218203
0.000173717
0.00013876
0.00011183
9.15707e-05
7.70667e-05
6.81812e-05
6.59374e-05
7.05172e-05
7.27723e-05
6.89675e-05
9.49166e-05
0.000145645
0.000201825
0.000280159
0.000390545
0.000543405
0.000721097
0.000894084
0.000995355
0.00105016
0.000833007
0.000629876
0.00239483
0.00294231
0.0034775
0.00415597
0.00352116
0.00275633
0.00222003
0.00178922
0.00144159
0.00116005
0.000938429
0.000768761
0.000631742
0.000517787
0.000421854
0.000341185
0.000274126
0.000219424
0.000175803
0.000141794
0.000115807
9.63344e-05
8.26579e-05
7.32862e-05
6.64098e-05
5.99291e-05
5.28376e-05
4.77498e-05
6.41442e-05
0.000115692
0.000152982
0.000201026
0.000277668
0.000384676
0.000525667
0.000703507
0.000753581
0.000687439
0.000558379
0.000435851
)
;

boundaryField
{
    floor
    {
        Cmu             0.09;
        kappa           0.41;
        E               9.8;
        type            epsilonWallFunction;
        value           nonuniform List<scalar> 
29
(
0.000236262
3.73532e-05
6.07333e-05
6.5119e-05
6.7613e-05
6.50948e-05
5.46213e-05
4.13544e-05
3.13829e-05
2.32877e-05
1.67473e-05
1.16674e-05
7.96551e-06
5.44913e-06
3.83559e-06
2.83573e-06
2.29406e-06
3.76467e-06
3.27438e-05
1.53864e-05
1.53864e-05
3.54086e-05
5.85361e-05
0.000126588
0.000236262
3.73532e-05
9.7758e-05
0.000187062
0.000311586
)
;
    }
    ceiling
    {
        Cmu             0.09;
        kappa           0.41;
        E               9.8;
        type            epsilonWallFunction;
        value           nonuniform List<scalar> 
43
(
0.00239483
0.00294231
0.0034775
0.00415597
0.00352116
0.00275633
0.00222003
0.00178922
0.00144159
0.00116005
0.000938429
0.000768761
0.000631742
0.000517787
0.000421854
0.000341185
0.000274126
0.000219424
0.000175803
0.000141794
0.000115807
9.63344e-05
8.26579e-05
7.32862e-05
6.64098e-05
5.99291e-05
5.28376e-05
4.77498e-05
6.41442e-05
0.000115692
0.000152982
0.000201026
0.000277668
0.000384676
0.000525667
0.000703507
0.000753581
0.000687439
0.000558379
0.000435851
0.0103769
0.0181555
0.00427514
)
;
    }
    sWall
    {
        Cmu             0.09;
        kappa           0.41;
        E               9.8;
        type            epsilonWallFunction;
        value           uniform 0.00239483;
    }
    nWall
    {
        Cmu             0.09;
        kappa           0.41;
        E               9.8;
        type            epsilonWallFunction;
        value           nonuniform List<scalar> 6(0.000235568 0.000289698 0.000479561 0.000601833 0.000629876 0.000435851);
    }
    sideWalls
    {
        type            empty;
    }
    glass1
    {
        Cmu             0.09;
        kappa           0.41;
        E               9.8;
        type            epsilonWallFunction;
        value           nonuniform List<scalar> 9(0.000123925 0.000530858 0.00130433 0.00258971 0.00446016 0.00699388 0.0102276 0.0111721 0.0103769);
    }
    glass2
    {
        Cmu             0.09;
        kappa           0.41;
        E               9.8;
        type            epsilonWallFunction;
        value           nonuniform List<scalar> 2(0.00134595 0.00108734);
    }
    sun
    {
        Cmu             0.09;
        kappa           0.41;
        E               9.8;
        type            epsilonWallFunction;
        value           nonuniform List<scalar> 
14
(
0.000123925
0.000137843
0.000121844
0.000136854
0.000152433
0.000167645
0.000182561
0.000197535
0.000213188
0.000229625
0.000243505
0.000252927
0.000255952
0.000251193
)
;
    }
    heatsource1
    {
        Cmu             0.09;
        kappa           0.41;
        E               9.8;
        type            epsilonWallFunction;
        value           nonuniform List<scalar> 3(0.000143359 0.000153936 0.000235568);
    }
    heatsource2
    {
        Cmu             0.09;
        kappa           0.41;
        E               9.8;
        type            epsilonWallFunction;
        value           nonuniform List<scalar> 4(0.000265606 9.71501e-05 9.71501e-05 0.000282892);
    }
    Table_master
    {
        Cmu             0.09;
        kappa           0.41;
        E               9.8;
        type            epsilonWallFunction;
        value           nonuniform List<scalar> 9(2.19453e-05 1.55104e-05 1.24742e-05 9.52206e-06 7.52556e-06 6.29793e-06 5.43482e-06 4.82359e-06 4.57301e-06);
    }
    Table_slave
    {
        Cmu             0.09;
        kappa           0.41;
        E               9.8;
        type            epsilonWallFunction;
        value           nonuniform List<scalar> 9(9.71626e-05 0.000102521 0.000110814 0.000121663 0.000127647 0.000131726 0.000130718 0.000120862 0.000102324);
    }
    inlet
    {
        type            turbulentMixingLengthDissipationRateInlet;
        mixingLength    0.01;
        phi             phi;
        k               k;
        value           uniform 0.000101881;
    }
    outlet
    {
        type            zeroGradient;
    }
}


// ************************************************************************* //
