// -*- C++ -*-
// File generated by PyFoam - sorry for the ugliness

FoamFile
{
 version 2.0;
 format ascii;
 class volVectorField;
 location "300";
 object U;
}

dimensions [ 0 1 -1 0 0 0 0 ];

internalField nonuniform List<vector> 459
(
  (0.349245 -0.148081 0)
  (0.262534 -0.148092 0)
  (0.396169 -0.0994184 0)
  (0.499825 -0.065325 0)
  (0.547731 -0.0455973 0)
  (0.565768 -0.032513 0)
  (0.57171 -0.0223517 0)
  (0.568252 -0.0135553 0)
  (0.554817 -0.00533122 0)
  (0.530803 0.00299559 0)
  (0.495333 0.0121911 0)
  (0.446597 0.0234316 0)
  (0.380762 0.0394651 0)
  (0.285715 0.0699261 0)
  (0.211185 0.151179 0)
  (0.0174905 0.0105995 0)
  (-0.0240328 -0.00422445 0)
  (-0.0161213 -0.00520632 0)
  (-0.0151102 -0.00356383 0)
  (-0.0140369 -0.00329947 0)
  (-0.0119516 -0.00487824 0)
  (-0.00643817 -0.0083206 0)
  (0.00151123 -0.0102182 0)
  (0.00815993 -0.0069215 0)
  (0.0130809 -0.00535944 0)
  (0.016211 -0.00439365 0)
  (0.0188084 -0.00358472 0)
  (0.0211625 -0.00291963 0)
  (0.0230651 -0.00217389 0)
  (0.024231 -0.0010561 0)
  (0.0231543 0.000243844 0)
  (0.0216842 -0.000111153 0)
  (0.0248773 0.000351268 0)
  (-0.0130137 0.00963512 0)
  (0.464938 -0.324422 0)
  (0.212324 -0.251197 0)
  (0.328385 -0.138857 0)
  (0.410634 -0.0713465 0)
  (0.441882 -0.036768 0)
  (0.453658 -0.014532 0)
  (0.459648 0.00388377 0)
  (0.459031 0.019965 0)
  (0.449598 0.0346363 0)
  (0.430786 0.049286 0)
  (0.40214 0.0652478 0)
  (0.363376 0.0840278 0)
  (0.315766 0.108047 0)
  (0.262675 0.142206 0)
  (0.232895 0.202214 0)
  (0.204448 0.175297 0)
  (0.0983376 0.12129 0)
  (0.0710154 0.00789298 0)
  (0.034372 0.00561164 0)
  (0.0202965 0.0032756 0)
  (0.0130865 0.00286136 0)
  (0.00737012 0.00315323 0)
  (0.000234884 0.001193 0)
  (-0.00159056 -0.00813666 0)
  (-0.00288642 -0.0123744 0)
  (-0.00259836 -0.00633333 0)
  (0.00108282 -0.00313464 0)
  (0.00177641 -0.00270191 0)
  (0.00102336 -0.00248675 0)
  (-8.97828e-05 -0.00173935 0)
  (-0.00177988 -0.000108691 0)
  (-0.00385894 0.00123997 0)
  (-0.00377146 0.00120425 0)
  (-0.00121147 -0.00159989 0)
  (0.013073 0.00222678 0)
  (-0.0715393 0.0217568 0)
  (0.510158 -0.500137 0)
  (0.079075 -0.340082 0)
  (0.221203 -0.183609 0)
  (0.283922 -0.103765 0)
  (0.297924 -0.0647297 0)
  (0.30543 -0.0377249 0)
  (0.312617 -0.0140833 0)
  (0.317373 0.00908024 0)
  (0.315366 0.0329546 0)
  (0.306033 0.0583323 0)
  (0.288972 0.0858065 0)
  (0.264231 0.115838 0)
  (0.233261 0.148873 0)
  (0.19709 0.184844 0)
  (0.168661 0.222914 0)
  (0.13021 0.186369 0)
  (0.0703242 0.144672 0)
  (0.0479128 -0.0139872 0)
  (-0.0127912 -0.00136297 0)
  (-0.00737735 0.00437086 0)
  (-0.00504142 0.00494896 0)
  (-0.00274536 0.00486948 0)
  (-0.00154513 0.00426091 0)
  (0.00769273 -0.00324185 0)
  (-0.00956664 -0.0137797 0)
  (-0.0192637 -0.00992685 0)
  (-0.0233984 -0.00801086 0)
  (-0.0265986 -0.00652575 0)
  (-0.0291758 -0.00508949 0)
  (-0.0308822 -0.00376184 0)
  (-0.0311114 -0.00254223 0)
  (-0.0291708 -0.00156912 0)
  (-0.0249071 0.000739694 0)
  (-0.0216677 0.00363713 0)
  (-0.0301537 0.00721826 0)
  (-0.0807309 0.0106258 0)
  (0.529651 -0.612491 0)
  (-0.0526998 -0.385645 0)
  (0.14104 -0.204597 0)
  (0.173489 -0.118017 0)
  (0.166448 -0.0755 0)
  (0.171184 -0.043779 0)
  (0.178836 -0.0159009 0)
  (0.186578 0.0114031 0)
  (0.189358 0.0398832 0)
  (0.18667 0.0707247 0)
  (0.177964 0.10421 0)
  (0.162915 0.14004 0)
  (0.141973 0.177352 0)
  (0.114041 0.214364 0)
  (0.0888987 0.248405 0)
  (0.0566939 0.23132 0)
  (0.0264845 0.196989 0)
  (-0.053017 0.0421777 0)
  (-0.0409748 0.00166594 0)
  (-0.0452984 0.0029322 0)
  (-0.0453287 0.00463189 0)
  (-0.0473853 0.0052119 0)
  (-0.0508543 0.00397279 0)
  (-0.0553587 0.00119622 0)
  (-0.0586412 -0.00125901 0)
  (-0.0585999 -0.00266986 0)
  (-0.0572867 -0.00370597 0)
  (-0.0547524 -0.0044129 0)
  (-0.0514052 -0.0049138 0)
  (-0.0474636 -0.00530381 0)
  (-0.0429214 -0.00566476 0)
  (-0.0374732 -0.00600738 0)
  (-0.0304941 -0.00603652 0)
  (-0.0233438 -0.00531167 0)
  (-0.0131215 -0.00469029 0)
  (-0.00062863 -0.00428568 0)
  (-0.0146532 -0.000121889 0)
  (0.519866 -0.673406 0)
  (-0.14507 -0.413917 0)
  (0.089607 -0.217769 0)
  (0.0802561 -0.116603 0)
  (0.0510914 -0.079266 0)
  (0.0603188 -0.0501136 0)
  (0.0690103 -0.0231908 0)
  (0.077653 0.00587591 0)
  (0.081485 0.0384207 0)
  (0.081283 0.0744854 0)
  (0.0766623 0.113591 0)
  (0.0670796 0.154848 0)
  (0.0525858 0.197025 0)
  (0.0314555 0.238303 0)
  (0.0142536 0.275848 0)
  (-0.00997643 0.267314 0)
  (-0.0196211 0.220443 0)
  (-0.0576338 0.0508444 0)
  (-0.0509283 0.00877543 0)
  (-0.0600118 0.0058271 0)
  (-0.0635898 0.00702955 0)
  (-0.0650577 0.00771011 0)
  (-0.0655202 0.0069304 0)
  (-0.0654829 0.0048098 0)
  (-0.0649276 0.00208132 0)
  (-0.0638332 -0.000586603 0)
  (-0.0623484 -0.00255748 0)
  (-0.0604668 -0.00395367 0)
  (-0.0582609 -0.00498992 0)
  (-0.0557902 -0.00592251 0)
  (-0.0529969 -0.0070656 0)
  (-0.0496047 -0.00878326 0)
  (-0.0450358 -0.0113733 0)
  (-0.0383343 -0.0148252 0)
  (-0.0282027 -0.0189443 0)
  (-0.0127574 -0.0238191 0)
  (0.0135144 -0.0267636 0)
  (0.0447034 -0.035765 0)
  (0.0844678 -0.0171545 0)
  (-0.0477222 0.0286544 0)
  (0.469586 -0.686304 0)
  (-0.185972 -0.424841 0)
  (0.0351144 -0.208899 0)
  (-0.00447542 -0.0873263 0)
  (-0.0440177 -0.0790664 0)
  (-0.030469 -0.0573498 0)
  (-0.0245539 -0.0319467 0)
  (-0.0182292 -0.000829812 0)
  (-0.0157717 0.0360164 0)
  (-0.0154619 0.0761997 0)
  (-0.0174375 0.119684 0)
  (-0.0224964 0.165474 0)
  (-0.0307501 0.212171 0)
  (-0.0429312 0.256852 0)
  (-0.0497951 0.291585 0)
  (-0.0593844 0.281805 0)
  (-0.053474 0.219666 0)
  (-0.0632641 0.0613319 0)
  (-0.0590241 0.0188976 0)
  (-0.0653384 0.010584 0)
  (-0.0675446 0.00862516 0)
  (-0.0673721 0.00742244 0)
  (-0.0659438 0.00558084 0)
  (-0.0640947 0.00298561 0)
  (-0.0622961 0.000116441 0)
  (-0.0607492 -0.00246692 0)
  (-0.0595513 -0.00442048 0)
  (-0.0586429 -0.00578727 0)
  (-0.0580661 -0.00674741 0)
  (-0.0579161 -0.00758882 0)
  (-0.0582558 -0.0087549 0)
  (-0.0589868 -0.0108572 0)
  (-0.059707 -0.0145636 0)
  (-0.0595101 -0.0204272 0)
  (-0.0569767 -0.0288089 0)
  (-0.0503272 -0.0402399 0)
  (-0.0383783 -0.0533473 0)
  (-0.0247403 -0.0621038 0)
  (0.0478053 -0.0162786 0)
  (-0.0958805 0.075824 0)
  (0.361674 -0.630868 0)
  (-0.190848 -0.391622 0)
  (-0.0712851 -0.180258 0)
  (-0.082352 -0.0571671 0)
  (-0.136119 -0.0760552 0)
  (-0.123806 -0.0613087 0)
  (-0.119044 -0.0356477 0)
  (-0.114338 -0.00246005 0)
  (-0.109489 0.0354814 0)
  (-0.106863 0.0770214 0)
  (-0.104587 0.122004 0)
  (-0.103069 0.169564 0)
  (-0.102263 0.217884 0)
  (-0.101877 0.262469 0)
  (-0.0962056 0.291997 0)
  (-0.0896595 0.277139 0)
  (-0.071695 0.203617 0)
  (-0.0647858 0.0639119 0)
  (-0.0612546 0.0236321 0)
  (-0.0630438 0.012499 0)
  (-0.0621367 0.00815212 0)
  (-0.0595726 0.00539745 0)
  (-0.0562712 0.0028918 0)
  (-0.0529707 0.000370014 0)
  (-0.050279 -0.00197883 0)
  (-0.0485376 -0.00389325 0)
  (-0.0475932 -0.00523042 0)
  (-0.0473908 -0.00595898 0)
  (-0.0480154 -0.00614251 0)
  (-0.0497487 -0.0060026 0)
  (-0.0530453 -0.00604089 0)
  (-0.0583487 -0.00710007 0)
  (-0.0658693 -0.010118 0)
  (-0.0752658 -0.0158369 0)
  (-0.0859072 -0.0248999 0)
  (-0.096649 -0.0376848 0)
  (-0.103987 -0.0517882 0)
  (-0.103507 -0.0549733 0)
  (-0.100268 -0.0138162 0)
  (-0.158311 0.130981 0)
  (0.197715 -0.493387 0)
  (-0.298138 -0.308924 0)
  (-0.282232 -0.165898 0)
  (-0.182088 -0.0339505 0)
  (-0.24851 -0.0867164 0)
  (-0.220122 -0.072801 0)
  (-0.209573 -0.0437856 0)
  (-0.201948 -0.00786717 0)
  (-0.194058 0.0316782 0)
  (-0.187453 0.0735383 0)
  (-0.17925 0.118033 0)
  (-0.169025 0.164719 0)
  (-0.156456 0.211584 0)
  (-0.141242 0.253263 0)
  (-0.121231 0.277261 0)
  (-0.0997074 0.257818 0)
  (-0.0727865 0.179592 0)
  (-0.0563144 0.0599592 0)
  (-0.0523678 0.0229377 0)
  (-0.0502056 0.010578 0)
  (-0.0457594 0.00479655 0)
  (-0.0401951 0.00125418 0)
  (-0.0348125 -0.00106358 0)
  (-0.0306188 -0.00267685 0)
  (-0.0278182 -0.00389478 0)
  (-0.0261709 -0.0047903 0)
  (-0.0254284 -0.00527107 0)
  (-0.0253849 -0.00517699 0)
  (-0.0259736 -0.00435933 0)
  (-0.0273513 -0.00276389 0)
  (-0.0299431 -0.000538519 0)
  (-0.0343509 0.00182596 0)
  (-0.042501 0.00310329 0)
  (-0.056568 0.00103192 0)
  (-0.0786322 -0.00728293 0)
  (-0.108404 -0.0233354 0)
  (-0.139663 -0.0450111 0)
  (-0.171913 -0.0703311 0)
  (-0.221201 -0.0944879 0)
  (-0.416621 -0.114291 0)
  (-0.0466556 -0.349584 0)
  (-0.618595 -0.301529 0)
  (-0.819863 -0.286169 0)
  (-0.229612 -0.152918 0)
  (-0.341636 -0.127359 0)
  (-0.289804 -0.0916661 0)
  (-0.275923 -0.0545124 0)
  (-0.268782 -0.0174837 0)
  (-0.26099 0.0216518 0)
  (-0.250761 0.0627656 0)
  (-0.236014 0.104949 0)
  (-0.215904 0.148218 0)
  (-0.190116 0.190936 0)
  (-0.159078 0.228011 0)
  (-0.12378 0.247636 0)
  (-0.0886008 0.227276 0)
  (-0.0535924 0.15258 0)
  (-0.029034 0.0523663 0)
  (-0.0250444 0.0197006 0)
  (-0.0207414 0.00759538 0)
  (-0.0127753 0.00165412 0)
  (-0.00601355 -0.00115339 0)
  (-0.001081 -0.00216543 0)
  (0.00226246 -0.00245092 0)
  (0.00419369 -0.00258904 0)
  (0.00512807 -0.00270042 0)
  (0.00536246 -0.00266342 0)
  (0.00516931 -0.00225933 0)
  (0.00478099 -0.00124615 0)
  (0.0043798 0.000573495 0)
  (0.00414913 0.00329768 0)
  (0.00422785 0.00687934 0)
  (0.0047072 0.0109788 0)
  (0.00539582 0.0143147 0)
  (0.00604487 0.0150266 0)
  (0.00822392 0.0119401 0)
  (0.00914327 0.00519479 0)
  (0.0145611 -0.0047782 0)
  (0.0472802 -0.0574248 0)
  (-0.289639 -0.174218 0)
  (-1.81314 -0.303638 0)
  (-0.105023 -0.269524 0)
  (-0.326792 -0.163325 0)
  (-0.310176 -0.0978756 0)
  (-0.31095 -0.0449908 0)
  (-0.309974 -0.00128038 0)
  (-0.303773 0.0333566 0)
  (-0.291557 0.0625082 0)
  (-0.271535 0.0931788 0)
  (-0.242287 0.125609 0)
  (-0.203671 0.158528 0)
  (-0.157086 0.187837 0)
  (-0.106067 0.203744 0)
  (-0.0565268 0.186996 0)
  (-0.00825606 0.120965 0)
  (0.0267268 0.043623 0)
  (0.0312008 0.0178669 0)
  (0.0351732 0.00547715 0)
  (0.038988 -0.00179063 0)
  (0.0409653 -0.0040455 0)
  (0.041882 -0.00391903 0)
  (0.0422149 -0.00311004 0)
  (0.0421867 -0.00233805 0)
  (0.0418968 -0.00173032 0)
  (0.0413933 -0.00112702 0)
  (0.0407647 -0.000282613 0)
  (0.040177 0.00104888 0)
  (0.0398949 0.00305705 0)
  (0.040236 0.00573011 0)
  (0.0416457 0.00837331 0)
  (0.0446573 0.0106173 0)
  (0.0493701 0.0110086 0)
  (0.0555614 0.00711933 0)
  (0.0633473 -0.00294843 0)
  (0.0701058 -0.0164287 0)
  (0.0757097 -0.0313916 0)
  (0.0919962 -0.0612198 0)
  (-0.0332702 -0.12395 0)
  (-0.274822 0.0345854 0)
  (-0.0273635 -0.240618 0)
  (-0.236477 -0.173869 0)
  (-0.28766 -0.146947 0)
  (-0.321822 -0.12616 0)
  (-0.337603 -0.102264 0)
  (-0.337518 -0.0701914 0)
  (-0.323584 -0.0304238 0)
  (-0.297688 0.00494296 0)
  (-0.25881 0.038446 0)
  (-0.207042 0.0710783 0)
  (-0.144522 0.100817 0)
  (-0.0762846 0.119338 0)
  (-0.00172856 0.103606 0)
  (0.0640292 0.0352451 0)
  (0.101009 -0.0276292 0)
  (0.110056 -0.0654229 0)
  (0.107818 -0.0857712 0)
  (0.101503 -0.0904609 0)
  (0.0948497 -0.0882217 0)
  (0.0894883 -0.0838971 0)
  (0.0856774 -0.0797369 0)
  (0.0830385 -0.0764975 0)
  (0.0810806 -0.0742209 0)
  (0.0794359 -0.0726671 0)
  (0.0779424 -0.0715285 0)
  (0.0766485 -0.0705181 0)
  (0.0758 -0.0694041 0)
  (0.075799 -0.0680134 0)
  (0.076704 -0.0661251 0)
  (0.0787269 -0.0641935 0)
  (0.0819446 -0.0632349 0)
  (0.0858184 -0.0641341 0)
  (0.0886277 -0.0662869 0)
  (0.0894902 -0.0691909 0)
  (0.0868143 -0.0710932 0)
  (0.109758 -0.0788409 0)
  (-0.0140081 -0.119396 0)
  (0.595006 0.216547 0)
  (0.21422 -0.229273 0)
  (-0.198132 0.271827 0)
  (-0.0373299 0.127502 0)
  (-0.195763 0.177058 0)
  (-0.256351 0.204338 0)
  (-0.29884 0.216413 0)
  (-0.323428 0.218884 0)
  (-0.331165 0.213162 0)
  (-0.321246 0.20246 0)
  (-0.293233 0.199157 0)
  (-0.24749 0.201385 0)
  (-0.185214 0.208429 0)
  (-0.110877 0.219541 0)
  (-0.0270314 0.231558 0)
  (0.0717902 0.226459 0)
  (0.132447 0.220956 0)
  (0.167145 0.228497 0)
  (0.178238 0.240712 0)
  (0.176817 0.249036 0)
  (0.170886 0.246576 0)
  (0.164704 0.239004 0)
  (0.158766 0.230707 0)
  (0.15288 0.223905 0)
  (0.147053 0.219289 0)
  (0.14142 0.21673 0)
  (0.136122 0.215733 0)
  (0.131293 0.215683 0)
  (0.127054 0.215997 0)
  (0.123508 0.216184 0)
  (0.12071 0.215836 0)
  (0.118623 0.21453 0)
  (0.117004 0.212098 0)
  (0.115082 0.208534 0)
  (0.11131 0.203748 0)
  (0.103502 0.197366 0)
  (0.0888864 0.189167 0)
  (0.0628201 0.177535 0)
  (0.121264 0.167006 0)
  (-0.373927 0.30665 0)
)
;

boundaryField
{
  floor
  {
    type noSlip;
  }
  ceiling
  {
    type noSlip;
  }
  sWall
  {
    type noSlip;
  }
  nWall
  {
    type noSlip;
  }
  sideWalls
  {
    type empty;
  }
  glass1
  {
    type noSlip;
  }
  glass2
  {
    type noSlip;
  }
  sun
  {
    type noSlip;
  }
  heatsource1
  {
    type noSlip;
  }
  heatsource2
  {
    type noSlip;
  }
  Table_master
  {
    type noSlip;
  }
  Table_slave
  {
    type noSlip;
  }
  inlet
  {
    type fixedValue;
    value uniform (0.1 0 0);
  }
  outlet
  {
    type zeroGradient;
  }
} 	// ************************************************************************* //

