/*--------------------------------*- C++ -*----------------------------------*\
  =========                 |
  \\      /  F ield         | OpenFOAM: The Open Source CFD Toolbox
   \\    /   O peration     | Website:  https://openfoam.org
    \\  /    A nd           | Version:  6
     \\/     M anipulation  |
\*---------------------------------------------------------------------------*/
FoamFile
{
    version     2.0;
    format      ascii;
    class       volScalarField;
    location    "200";
    object      epsilon;
}
// * * * * * * * * * * * * * * * * * * * * * * * * * * * * * * * * * * * * * //

dimensions      [0 2 -3 0 0 0 0];

internalField   nonuniform List<scalar> 
459
(
0.00608
0.00519185
0.00452143
0.00402058
0.00363563
0.00332632
0.00306895
0.00284384
0.00263783
0.00244112
0.00224526
0.00204152
0.00181839
0.00155473
0.00124922
7.75331e-06
4.93465e-06
1.43929e-06
1.15331e-06
1.39369e-06
1.68267e-06
2.02904e-06
2.43277e-06
2.87453e-06
3.38079e-06
3.9463e-06
4.53583e-06
5.32401e-06
6.71628e-06
9.03352e-06
1.27384e-05
1.81395e-05
3.05881e-05
2.66194e-05
0.00883813
0.00604693
0.00450433
0.00344269
0.00278507
0.00236178
0.00207245
0.00186511
0.00170924
0.00158963
0.001497
0.00142202
0.00134835
0.00122984
0.00106282
0.00105441
0.000660043
1.90771e-05
3.88031e-05
5.56453e-06
1.85281e-06
1.99531e-06
2.30113e-06
2.67862e-06
3.40868e-06
4.34843e-06
5.54502e-06
7.0264e-06
8.8955e-06
1.13712e-05
1.46761e-05
1.92967e-05
2.43329e-05
3.77529e-05
0.000105848
6.58056e-05
0.0112427
0.00720185
0.0045593
0.00296846
0.00215735
0.00171857
0.00146583
0.00131211
0.00120726
0.00113504
0.00108785
0.0010601
0.00104135
0.000994287
0.000927063
0.000948015
0.000668163
3.43171e-05
3.71213e-05
8.83796e-06
7.01908e-06
7.15959e-06
6.6788e-06
3.92751e-06
5.08082e-06
6.78687e-06
9.03839e-06
1.20588e-05
1.63288e-05
2.29616e-05
3.48961e-05
6.0789e-05
5.07506e-05
7.3737e-05
0.000193806
0.000111847
0.0135511
0.00870919
0.00432568
0.00213969
0.00129474
0.000941642
0.00078608
0.000733614
0.0007314
0.000748643
0.000772994
0.000800705
0.000827968
0.000828964
0.000819574
0.000900165
0.000703247
7.27468e-05
2.92719e-05
2.49821e-05
2.31235e-05
2.71252e-05
3.32854e-05
4.23748e-05
5.65497e-05
6.05447e-05
6.47658e-05
6.89787e-05
7.33949e-05
7.87897e-05
8.63301e-05
9.83747e-05
0.000120945
6.83501e-05
8.85463e-05
0.000161964
9.79035e-05
0.0160282
0.0108146
0.00403335
0.00130607
0.000685678
0.000506626
0.000451582
0.000448392
0.000477015
0.000521991
0.000574012
0.00062809
0.000679196
0.000702646
0.000719756
0.000782663
0.000582866
0.000114316
3.34632e-05
3.03432e-05
3.21979e-05
3.60114e-05
4.01911e-05
4.42931e-05
4.79181e-05
5.06573e-05
5.32635e-05
5.54995e-05
5.75665e-05
5.97221e-05
6.21921e-05
6.51274e-05
6.83563e-05
7.05364e-05
7.72356e-05
8.88291e-05
0.000109907
0.000104231
0.000110836
0.000120683
0.0189604
0.0138819
0.0043202
0.000793563
0.000532365
0.000381033
0.000335285
0.000333369
0.000360223
0.000405558
0.000460153
0.000517673
0.000569442
0.000597825
0.000623085
0.000653361
0.000470864
0.000126347
5.14806e-05
5.02244e-05
5.65947e-05
6.38011e-05
7.05073e-05
7.64592e-05
8.14568e-05
8.55635e-05
8.81655e-05
9.00268e-05
9.15578e-05
9.30572e-05
9.47382e-05
9.67549e-05
9.91999e-05
0.000101997
0.000104995
0.00010757
0.00011157
0.000123949
0.000156509
0.000226326
0.0228193
0.01886
0.00781301
0.00101575
0.00058891
0.000348249
0.000283237
0.000281464
0.000305752
0.000342901
0.000388942
0.000438236
0.000482486
0.000511581
0.000535944
0.000543111
0.000386288
0.000137021
8.8981e-05
0.000102235
0.000121859
0.000139293
0.000151901
0.000161151
0.000165249
0.000165679
0.000164948
0.000164027
0.000163384
0.000163292
0.000163947
0.000165511
0.000168036
0.000171146
0.00017364
0.000173895
0.000173803
0.000187726
0.00024877
0.000368611
0.0290044
0.0308079
0.0224863
0.00217754
0.000789218
0.000369691
0.000262076
0.000249391
0.000272095
0.000305107
0.000344074
0.000385486
0.000422929
0.000448993
0.0004652
0.000456048
0.000325362
0.000162522
0.000171388
0.000230018
0.000292016
0.000341257
0.000361252
0.000358457
0.000346752
0.000333216
0.00032112
0.000311524
0.000304507
0.000299848
0.000297341
0.000296895
0.000298397
0.000301213
0.000303425
0.000301588
0.000293747
0.000295245
0.000379976
0.000554031
0.0412325
0.0639129
0.0898039
0.0131565
0.00148309
0.000579829
0.000341192
0.000266672
0.000265689
0.000294008
0.000329106
0.000366534
0.000399636
0.00041961
0.000422084
0.000399454
0.000296904
0.00022606
0.000347913
0.000530822
0.000711832
0.000798657
0.000806399
0.000774087
0.000728503
0.000684147
0.000647104
0.000618752
0.000598355
0.000584526
0.00057594
0.000571594
0.000570697
0.000572094
0.000573269
0.000569329
0.000553793
0.000532018
0.000584199
0.000825934
0.208932
0.0353504
0.00320917
0.00120053
0.000709897
0.000491344
0.000414678
0.000406712
0.000424891
0.000453093
0.000478051
0.000486798
0.000476022
0.000469647
0.000415524
0.000476566
0.000796162
0.00124252
0.00159215
0.00176247
0.00177743
0.00170286
0.00159622
0.00149197
0.00140537
0.00134025
0.00129492
0.00126555
0.00124802
0.00123877
0.00123502
0.00123416
0.00123241
0.00122268
0.00119332
0.00113803
0.00113269
0.00131935
0.0282259
0.00496354
0.00472214
0.00245959
0.00163795
0.00106488
0.000721791
0.00054247
0.000480297
0.000469873
0.00047721
0.000478811
0.000468727
0.00044812
0.000526562
0.000886548
0.00161811
0.00257888
0.00338335
0.00380006
0.00385682
0.00370533
0.00348337
0.0032722
0.0031066
0.00299419
0.0029293
0.00290091
0.00289694
0.00290659
0.00292112
0.00293292
0.0029331
0.00290891
0.00284754
0.00275592
0.00287888
0.00223698
0.000540269
0.000543739
0.00367394
0.00212336
0.000986635
0.000827689
0.000763576
0.000724505
0.000709829
0.000716909
0.000716586
0.000719804
0.000726011
0.000728195
0.000710866
0.000689708
0.000710124
0.000778852
0.000895117
0.00106937
0.00132153
0.00158228
0.00178647
0.00190548
0.00194591
0.00193146
0.00188761
0.00183417
0.0017835
0.00174142
0.00170888
0.00168371
0.00166204
0.00163909
0.00160927
0.00156563
0.00149952
0.00140165
0.00127494
0.000852
)
;

boundaryField
{
    floor
    {
        Cmu             0.09;
        kappa           0.41;
        E               9.8;
        type            epsilonWallFunction;
        value           nonuniform List<scalar> 
29
(
0.00124922
7.75331e-06
4.93465e-06
1.43929e-06
1.15331e-06
1.39369e-06
1.68267e-06
2.02904e-06
2.43277e-06
2.87453e-06
3.38079e-06
3.9463e-06
4.53583e-06
5.32401e-06
6.71628e-06
9.03352e-06
1.27384e-05
1.81395e-05
3.05881e-05
2.66194e-05
2.66194e-05
6.58056e-05
0.000111847
9.79035e-05
0.00124922
7.75331e-06
1.90771e-05
3.43171e-05
7.27468e-05
)
;
    }
    ceiling
    {
        Cmu             0.09;
        kappa           0.41;
        E               9.8;
        type            epsilonWallFunction;
        value           nonuniform List<scalar> 
43
(
0.000540269
0.000543739
0.00367394
0.00212336
0.000986635
0.000827689
0.000763576
0.000724505
0.000709829
0.000716909
0.000716586
0.000719804
0.000726011
0.000728195
0.000710866
0.000689708
0.000710124
0.000778852
0.000895117
0.00106937
0.00132153
0.00158228
0.00178647
0.00190548
0.00194591
0.00193146
0.00188761
0.00183417
0.0017835
0.00174142
0.00170888
0.00168371
0.00166204
0.00163909
0.00160927
0.00156563
0.00149952
0.00140165
0.00127494
0.000852
0.0412325
0.0639129
0.0282259
)
;
    }
    sWall
    {
        Cmu             0.09;
        kappa           0.41;
        E               9.8;
        type            epsilonWallFunction;
        value           uniform 0.000540269;
    }
    nWall
    {
        Cmu             0.09;
        kappa           0.41;
        E               9.8;
        type            epsilonWallFunction;
        value           nonuniform List<scalar> 6(0.000120683 0.000226326 0.000368611 0.00131935 0.00223698 0.000852);
    }
    sideWalls
    {
        type            empty;
    }
    glass1
    {
        Cmu             0.09;
        kappa           0.41;
        E               9.8;
        type            epsilonWallFunction;
        value           nonuniform List<scalar> 9(0.00608 0.00883813 0.0112427 0.0135511 0.0160282 0.0189604 0.0228193 0.0290044 0.0412325);
    }
    glass2
    {
        Cmu             0.09;
        kappa           0.41;
        E               9.8;
        type            epsilonWallFunction;
        value           nonuniform List<scalar> 2(0.000554031 0.000825934);
    }
    sun
    {
        Cmu             0.09;
        kappa           0.41;
        E               9.8;
        type            epsilonWallFunction;
        value           nonuniform List<scalar> 
14
(
0.00608
0.00519185
0.00452143
0.00402058
0.00363563
0.00332632
0.00306895
0.00284384
0.00263783
0.00244112
0.00224526
0.00204152
0.00181839
0.00155473
)
;
    }
    heatsource1
    {
        Cmu             0.09;
        kappa           0.41;
        E               9.8;
        type            epsilonWallFunction;
        value           nonuniform List<scalar> 3(0.000104231 0.000110836 0.000120683);
    }
    heatsource2
    {
        Cmu             0.09;
        kappa           0.41;
        E               9.8;
        type            epsilonWallFunction;
        value           nonuniform List<scalar> 4(0.00105441 0.000660043 0.000660043 0.000668163);
    }
    Table_master
    {
        Cmu             0.09;
        kappa           0.41;
        E               9.8;
        type            epsilonWallFunction;
        value           nonuniform List<scalar> 9(3.92751e-06 5.08082e-06 6.78687e-06 9.03839e-06 1.20588e-05 1.63288e-05 2.29616e-05 3.48961e-05 6.0789e-05);
    }
    Table_slave
    {
        Cmu             0.09;
        kappa           0.41;
        E               9.8;
        type            epsilonWallFunction;
        value           nonuniform List<scalar> 9(5.65497e-05 6.05447e-05 6.47658e-05 6.89787e-05 7.33949e-05 7.87897e-05 8.63301e-05 9.83747e-05 0.000120945);
    }
    inlet
    {
        type            turbulentMixingLengthDissipationRateInlet;
        mixingLength    0.01;
        phi             phi;
        k               k;
        value           uniform 0.208932;
    }
    outlet
    {
        type            zeroGradient;
    }
}


// ************************************************************************* //
