/*--------------------------------*- C++ -*----------------------------------*\
  =========                 |
  \\      /  F ield         | OpenFOAM: The Open Source CFD Toolbox
   \\    /   O peration     | Website:  https://openfoam.org
    \\  /    A nd           | Version:  6
     \\/     M anipulation  |
\*---------------------------------------------------------------------------*/
FoamFile
{
    version     2.0;
    format      ascii;
    class       volScalarField;
    location    "700";
    object      epsilon;
}
// * * * * * * * * * * * * * * * * * * * * * * * * * * * * * * * * * * * * * //

dimensions      [0 2 -3 0 0 0 0];

internalField   nonuniform List<scalar> 
459
(
9.91419e-05
0.000108773
7.33795e-05
7.648e-05
8.16269e-05
8.69216e-05
9.25145e-05
9.88525e-05
0.000105364
0.000111836
0.000118148
0.000124014
0.000129021
0.000132521
0.000132527
1.13679e-05
9.54141e-06
6.22895e-06
4.05539e-06
3.35967e-06
3.25271e-06
3.45333e-06
3.96695e-06
4.55714e-06
5.09504e-06
5.42646e-06
5.41257e-06
5.47045e-06
6.01862e-06
7.41566e-06
1.01205e-05
1.36167e-05
2.64218e-05
2.01715e-05
0.000531708
0.001094
0.000128966
6.30914e-05
5.85985e-05
5.97474e-05
6.196e-05
6.49597e-05
6.85842e-05
7.29503e-05
7.85323e-05
8.59174e-05
9.57323e-05
0.000108538
0.000127127
0.000178637
3.95832e-05
2.72475e-05
2.6367e-05
1.37276e-05
9.13528e-06
8.01252e-06
7.89227e-06
8.09326e-06
9.68445e-06
1.14668e-05
1.30642e-05
1.44893e-05
1.61397e-05
1.85333e-05
2.25775e-05
2.87772e-05
3.54356e-05
5.00324e-05
0.000120686
6.3337e-05
0.00146894
0.00388119
0.000473096
0.000123404
8.73367e-05
8.21863e-05
8.17445e-05
8.26632e-05
8.44502e-05
8.69988e-05
9.08666e-05
9.66596e-05
0.000104848
0.000115509
0.000128967
0.000151268
0.000211109
6.33182e-05
3.8225e-05
1.84029e-05
1.39444e-05
1.27773e-05
1.20683e-05
8.93665e-06
1.063e-05
1.28982e-05
1.57799e-05
1.9709e-05
2.55016e-05
3.47224e-05
5.10164e-05
8.35116e-05
6.58912e-05
0.000103307
0.000271316
0.000127773
0.00305977
0.00871894
0.00151913
0.000360224
0.000192782
0.000153509
0.000137246
0.000128024
0.000122596
0.000119443
0.000118892
0.000121437
0.000127199
0.000135373
0.000143815
0.000149864
0.000155029
0.000179065
5.50882e-05
3.62839e-05
2.89978e-05
3.03216e-05
3.50887e-05
4.37074e-05
5.95274e-05
5.88217e-05
5.89208e-05
5.97853e-05
6.18285e-05
6.5662e-05
7.24329e-05
8.47945e-05
0.000109962
7.14806e-05
0.000110122
0.000248566
0.000123253
0.00526718
0.0147777
0.00379532
0.00115887
0.000573432
0.000381692
0.000290423
0.000236838
0.000203016
0.000180823
0.000167474
0.000161971
0.000163322
0.000169727
0.000177298
0.000179331
0.000167047
0.000132565
8.70439e-05
6.10795e-05
5.18072e-05
4.94231e-05
4.95721e-05
5.02107e-05
5.04423e-05
4.95596e-05
4.88859e-05
4.85678e-05
4.87375e-05
4.95757e-05
5.13332e-05
5.43681e-05
5.88816e-05
6.34183e-05
7.30022e-05
8.81176e-05
0.000107804
8.3824e-05
9.46612e-05
0.000111057
0.00793395
0.0197626
0.00777286
0.00331208
0.00177058
0.0010876
0.000725042
0.000517618
0.000385996
0.00030304
0.000252015
0.000223464
0.000210927
0.000210378
0.00021665
0.000221026
0.000211842
0.000181961
0.000144028
0.000115402
9.87066e-05
8.93959e-05
8.45677e-05
8.20306e-05
8.02018e-05
7.85162e-05
7.71782e-05
7.62199e-05
7.56753e-05
7.56381e-05
7.6245e-05
7.76963e-05
8.01873e-05
8.33346e-05
8.58223e-05
8.62394e-05
8.64772e-05
9.71851e-05
0.00013283
0.000208972
0.010434
0.0205167
0.0131895
0.00797292
0.00472433
0.002838
0.00177662
0.00116474
0.000795975
0.000565082
0.000418484
0.000330672
0.00028196
0.000260183
0.000257729
0.000263711
0.0002621
0.000243688
0.000214682
0.000187142
0.000166412
0.000152192
0.000143269
0.00013791
0.000134447
0.000131982
0.00013022
0.000128962
0.000128133
0.00012784
0.000128314
0.000129865
0.000132697
0.000136152
0.00013787
0.000135187
0.000130945
0.000144152
0.000210802
0.000346791
0.0101685
0.0203487
0.0202805
0.0150002
0.00964161
0.00584398
0.00356196
0.00222425
0.00143338
0.000960499
0.000674452
0.000498338
0.000391822
0.000334506
0.000312568
0.000311881
0.000317067
0.0003147
0.000301682
0.000283872
0.00026685
0.000253098
0.00024341
0.000237255
0.000233553
0.00023148
0.000230508
0.00023007
0.000229882
0.000230083
0.000231066
0.000233289
0.000236967
0.000241244
0.000243108
0.000237597
0.000223645
0.000224057
0.000319133
0.000535979
0.00864637
0.0125808
0.054098
0.036652
0.0197307
0.0105015
0.00577823
0.00333726
0.00203958
0.00132469
0.000917415
0.000680497
0.000543563
0.00046826
0.000433102
0.000425438
0.000435479
0.000448915
0.000457093
0.000458972
0.000456819
0.000453343
0.00045072
0.000449695
0.000450301
0.000452372
0.000455518
0.000458566
0.000460992
0.000463186
0.000465906
0.000469829
0.000475057
0.000480263
0.000481625
0.00047249
0.00044643
0.00041595
0.000477621
0.000824361
0.139751
0.0994747
0.0216171
0.00872483
0.00480677
0.00298293
0.00201353
0.00147056
0.00116066
0.000986151
0.000893888
0.000853148
0.00084571
0.000860095
0.000885864
0.000917261
0.000948591
0.000975687
0.000997114
0.0010141
0.00102928
0.00104301
0.00105619
0.00106965
0.00108339
0.00109427
0.00110156
0.00110675
0.00111168
0.00111759
0.00112461
0.00113086
0.00113125
0.00111599
0.00107042
0.000988213
0.00097912
0.00137771
0.0862202
0.0407264
0.0143801
0.00687751
0.00418756
0.00306234
0.00252807
0.00226082
0.00213968
0.00210758
0.00213082
0.00218782
0.00226463
0.00235107
0.00243846
0.00251762
0.00258308
0.00263448
0.00267459
0.00270705
0.00273469
0.00276098
0.00278802
0.00281722
0.00284823
0.00287241
0.00288784
0.00289822
0.00290765
0.00291826
0.00292926
0.00293576
0.0029272
0.00288681
0.00279995
0.00268783
0.00284058
0.00254073
0.00120581
0.00282141
0.0265361
0.0148803
0.00676765
0.00347306
0.00266441
0.00227066
0.00203323
0.00187981
0.00178023
0.00171871
0.00168456
0.00166991
0.00166896
0.00167746
0.00169163
0.0017081
0.00172372
0.00173619
0.00174458
0.00174918
0.00175096
0.00175068
0.00174921
0.00174706
0.00174431
0.00174335
0.00174125
0.001736
0.00172758
0.00171622
0.00170143
0.00168122
0.00165148
0.00160544
0.00153419
0.00143067
0.00131053
0.000907441
)
;

boundaryField
{
    floor
    {
        Cmu             0.09;
        kappa           0.41;
        E               9.8;
        type            epsilonWallFunction;
        value           nonuniform List<scalar> 
29
(
0.000132527
1.13679e-05
9.54141e-06
6.22895e-06
4.05539e-06
3.35967e-06
3.25271e-06
3.45333e-06
3.96695e-06
4.55714e-06
5.09504e-06
5.42646e-06
5.41257e-06
5.47045e-06
6.01862e-06
7.41566e-06
1.01205e-05
1.36167e-05
2.64218e-05
2.01715e-05
2.01715e-05
6.3337e-05
0.000127773
0.000123253
0.000132527
1.13679e-05
2.72475e-05
6.33182e-05
0.000179065
)
;
    }
    ceiling
    {
        Cmu             0.09;
        kappa           0.41;
        E               9.8;
        type            epsilonWallFunction;
        value           nonuniform List<scalar> 
43
(
0.00120581
0.00282141
0.0265361
0.0148803
0.00676765
0.00347306
0.00266441
0.00227066
0.00203323
0.00187981
0.00178023
0.00171871
0.00168456
0.00166991
0.00166896
0.00167746
0.00169163
0.0017081
0.00172372
0.00173619
0.00174458
0.00174918
0.00175096
0.00175068
0.00174921
0.00174706
0.00174431
0.00174335
0.00174125
0.001736
0.00172758
0.00171622
0.00170143
0.00168122
0.00165148
0.00160544
0.00153419
0.00143067
0.00131053
0.000907441
0.00864637
0.0125808
0.0862202
)
;
    }
    sWall
    {
        Cmu             0.09;
        kappa           0.41;
        E               9.8;
        type            epsilonWallFunction;
        value           uniform 0.00120581;
    }
    nWall
    {
        Cmu             0.09;
        kappa           0.41;
        E               9.8;
        type            epsilonWallFunction;
        value           nonuniform List<scalar> 6(0.000111057 0.000208972 0.000346791 0.00137771 0.00254073 0.000907441);
    }
    sideWalls
    {
        type            empty;
    }
    glass1
    {
        Cmu             0.09;
        kappa           0.41;
        E               9.8;
        type            epsilonWallFunction;
        value           nonuniform List<scalar> 9(9.91419e-05 0.000531708 0.00146894 0.00305977 0.00526718 0.00793395 0.010434 0.0101685 0.00864637);
    }
    glass2
    {
        Cmu             0.09;
        kappa           0.41;
        E               9.8;
        type            epsilonWallFunction;
        value           nonuniform List<scalar> 2(0.000535979 0.000824361);
    }
    sun
    {
        Cmu             0.09;
        kappa           0.41;
        E               9.8;
        type            epsilonWallFunction;
        value           nonuniform List<scalar> 
14
(
9.91419e-05
0.000108773
7.33795e-05
7.648e-05
8.16269e-05
8.69216e-05
9.25145e-05
9.88525e-05
0.000105364
0.000111836
0.000118148
0.000124014
0.000129021
0.000132521
)
;
    }
    heatsource1
    {
        Cmu             0.09;
        kappa           0.41;
        E               9.8;
        type            epsilonWallFunction;
        value           nonuniform List<scalar> 3(8.3824e-05 9.46612e-05 0.000111057);
    }
    heatsource2
    {
        Cmu             0.09;
        kappa           0.41;
        E               9.8;
        type            epsilonWallFunction;
        value           nonuniform List<scalar> 4(0.000178637 3.95832e-05 3.95832e-05 0.000211109);
    }
    Table_master
    {
        Cmu             0.09;
        kappa           0.41;
        E               9.8;
        type            epsilonWallFunction;
        value           nonuniform List<scalar> 9(8.93665e-06 1.063e-05 1.28982e-05 1.57799e-05 1.9709e-05 2.55016e-05 3.47224e-05 5.10164e-05 8.35116e-05);
    }
    Table_slave
    {
        Cmu             0.09;
        kappa           0.41;
        E               9.8;
        type            epsilonWallFunction;
        value           nonuniform List<scalar> 9(5.95274e-05 5.88217e-05 5.89208e-05 5.97853e-05 6.18285e-05 6.5662e-05 7.24329e-05 8.47945e-05 0.000109962);
    }
    inlet
    {
        type            turbulentMixingLengthDissipationRateInlet;
        mixingLength    0.01;
        phi             phi;
        k               k;
        value           uniform 3.77337e-06;
    }
    outlet
    {
        type            zeroGradient;
    }
}


// ************************************************************************* //
