/*--------------------------------*- C++ -*----------------------------------*\
  =========                 |
  \\      /  F ield         | OpenFOAM: The Open Source CFD Toolbox
   \\    /   O peration     | Website:  https://openfoam.org
    \\  /    A nd           | Version:  6
     \\/     M anipulation  |
\*---------------------------------------------------------------------------*/
FoamFile
{
    version     2.0;
    format      ascii;
    class       volScalarField;
    location    "1100";
    object      alphat;
}
// * * * * * * * * * * * * * * * * * * * * * * * * * * * * * * * * * * * * * //

dimensions      [1 -1 -1 0 0 0 0];

internalField   nonuniform List<scalar> 
459
(
0.00125363
0.00137076
0.00139638
0.00146352
0.00152568
0.00158388
0.00164096
0.00169669
0.00173599
0.00175248
0.00174029
0.00169577
0.00161875
0.00151568
0.00140256
0.000550553
0.000673213
0.000757079
0.000752087
0.00072604
0.000691951
0.000649318
0.000607101
0.000568774
0.000534723
0.000504551
0.000477726
0.000453857
0.000432414
0.000412631
0.000393518
0.000373615
0.000359361
0.00032726
0.0017068
0.00417311
0.00399553
0.00465086
0.00529508
0.00593935
0.00650784
0.00693619
0.00732346
0.00763814
0.00783627
0.00786809
0.00765764
0.00701419
0.00524674
0.0014302
0.000841802
0.000595446
0.00124877
0.0017228
0.00206014
0.00223724
0.00222713
0.00179163
0.00154595
0.00136997
0.00123481
0.00112731
0.00103986
0.000964518
0.000894341
0.000826299
0.000765829
0.000713248
0.000834884
0.000427408
0.0020833
0.00569994
0.00495869
0.00621768
0.00684705
0.00731496
0.00767914
0.00797031
0.00828566
0.00861394
0.00891643
0.00913834
0.00921887
0.00906822
0.0084475
0.00651386
0.00142264
0.00118793
0.00170498
0.00218107
0.00260231
0.00288451
0.00280084
0.000929499
0.000820873
0.000733615
0.000663205
0.000605838
0.000558596
0.000519386
0.000486873
0.000460501
0.00049616
0.000573586
0.000937924
0.000494155
0.00244415
0.00728398
0.00497489
0.00658113
0.00713403
0.00732448
0.0074503
0.00760265
0.0078552
0.0081917
0.00857189
0.00892767
0.00919593
0.00930597
0.00917388
0.00850818
0.00622858
0.0017024
0.00211012
0.00272068
0.00330475
0.00376077
0.00403277
0.00376948
0.0010486
0.000954585
0.000887265
0.000836002
0.00079254
0.000752712
0.000714503
0.000674439
0.000628001
0.000589102
0.00060208
0.00107018
0.000545933
0.00281178
0.0093172
0.00547113
0.00633905
0.00707036
0.00712333
0.00706857
0.00715301
0.0073764
0.00771815
0.00814391
0.00855998
0.00887898
0.00903055
0.00898982
0.0087079
0.00798944
0.00660729
0.00613049
0.005968
0.00590576
0.00586222
0.00578957
0.00555879
0.00469143
0.00427573
0.00403583
0.00385221
0.00365899
0.00337918
0.00299866
0.00253413
0.00201623
0.00149351
0.00110084
0.00110078
0.000732354
0.000672473
0.000814226
0.000913946
0.00320129
0.0115302
0.00753098
0.00631895
0.00687005
0.00712108
0.00696871
0.00703721
0.00720529
0.00751071
0.00793955
0.0083946
0.0087449
0.00888957
0.00880567
0.00854777
0.0082043
0.00784574
0.00763962
0.00748248
0.00730513
0.00710613
0.00688791
0.00662098
0.00623247
0.00588784
0.0055837
0.005292
0.00499367
0.00466754
0.00425398
0.00373728
0.00311769
0.00243088
0.00182236
0.00135981
0.00102316
0.000868399
0.00123722
0.000953525
0.00355518
0.0130752
0.0105467
0.00815028
0.0077125
0.00761581
0.00735863
0.00719751
0.00725187
0.00754947
0.00802435
0.0085314
0.00889985
0.00901094
0.00885333
0.00854022
0.00826935
0.00817166
0.00817168
0.0080844
0.00786148
0.00754641
0.00717753
0.00677341
0.00634995
0.00595696
0.0055954
0.0052564
0.00494034
0.00465507
0.00440103
0.00405623
0.00357104
0.00297673
0.00240367
0.00188884
0.00151034
0.00138953
0.0014167
0.00108469
0.00362134
0.0116184
0.0103307
0.00954601
0.00884411
0.00803424
0.00740485
0.00715873
0.00731893
0.00779767
0.00843071
0.00900881
0.00933688
0.00932264
0.00901351
0.008604
0.00835435
0.00834251
0.00833433
0.00807043
0.00762526
0.00708606
0.00652097
0.00598522
0.00551488
0.00511737
0.00477772
0.00448798
0.00425234
0.00408083
0.00398323
0.00393239
0.00369152
0.00330551
0.0029625
0.00277743
0.00286694
0.00329573
0.00405975
0.00169147
0.00352154
0.00417902
0.00464186
0.00475822
0.00485923
0.00513467
0.00568606
0.00652203
0.00754453
0.00857606
0.00942621
0.00991582
0.00992773
0.00952093
0.00891328
0.00849217
0.00824648
0.0080277
0.0076733
0.00712521
0.00646366
0.00578759
0.00517714
0.00467151
0.00426912
0.00394578
0.00367701
0.00344825
0.00325071
0.00307598
0.00291513
0.00276753
0.00265096
0.00256451
0.00252904
0.00253663
0.00252135
0.00242252
0.00226729
0.00159123
0.00175992
0.0036072
0.00585728
0.00772366
0.00917427
0.0102761
0.0109665
0.0112338
0.01112
0.0106158
0.0098288
0.00885251
0.0080219
0.00749936
0.0070715
0.00655515
0.00593593
0.00528427
0.00467145
0.00414363
0.00372566
0.00340204
0.00314764
0.00294298
0.00277717
0.00264536
0.00254586
0.0024784
0.00244571
0.00244553
0.00246159
0.00248921
0.00251974
0.00252621
0.00246476
0.00232111
0.00210452
0.00132482
0.00235286
0.00604304
0.0089938
0.0101097
0.0106666
0.0108346
0.0105852
0.00999048
0.00917177
0.00824654
0.00737047
0.00658815
0.00595396
0.00541198
0.0048693
0.00434194
0.00388046
0.00350925
0.00322438
0.00300797
0.00283276
0.00268433
0.00255634
0.00245201
0.00237437
0.00232307
0.00229692
0.0022944
0.0023215
0.00237505
0.00245106
0.00254097
0.00262632
0.00268508
0.00266337
0.00269447
0.00273606
0.00135055
0.00208715
0.0022121
0.0023002
0.00246255
0.00237599
0.00227636
0.00221176
0.00212115
0.00199179
0.00183142
0.00165114
0.00146373
0.00128172
0.00112546
0.00100736
0.000923485
0.000864164
0.000821588
0.000790931
0.000769367
0.000755099
0.000747029
0.000744433
0.000747497
0.000756716
0.000771759
0.000792423
0.000819119
0.000852517
0.000893494
0.000940998
0.000995091
0.00105635
0.00112528
0.00120132
0.00129168
0.00132071
0.0012869
0.00120946
0.00112714
)
;

boundaryField
{
    floor
    {
        type            compressible::alphatWallFunction;
        Prt             0.85;
        value           nonuniform List<scalar> 
29
(
0.000197848
7.69451e-05
9.52679e-05
0.000107558
0.000106832
0.00010303
9.80295e-05
9.17331e-05
8.54485e-05
7.96961e-05
7.45453e-05
6.99471e-05
6.583e-05
6.2142e-05
5.88077e-05
5.5713e-05
5.27048e-05
4.95523e-05
4.72813e-05
4.21231e-05
4.21225e-05
5.80266e-05
6.83552e-05
7.6246e-05
0.000197846
7.69442e-05
8.37036e-05
0.000168502
0.000238021
)
;
    }
    ceiling
    {
        type            compressible::alphatWallFunction;
        Prt             0.85;
        value           nonuniform List<scalar> 
43
(
0.000288351
0.000304498
0.000315828
0.000336706
0.000325709
0.000312963
0.000304665
0.000292972
0.000276177
0.000255184
0.000231342
0.000206245
0.000181524
0.000159981
0.000143471
0.000131609
0.000123143
0.000117024
0.000112595
0.000109468
0.000107393
0.000106217
0.000105838
0.000106285
0.000107629
0.000109816
0.000112812
0.00011667
0.000121474
0.000127339
0.000134098
0.000141746
0.000150349
0.00015996
0.000170486
0.000182894
0.00018686
0.000182241
0.000171609
0.000160223
0.000469224
0.000549189
0.000322407
)
;
    }
    sWall
    {
        type            compressible::alphatWallFunction;
        Prt             0.85;
        value           uniform 0.000287142;
    }
    nWall
    {
        type            compressible::alphatWallFunction;
        Prt             0.85;
        value           nonuniform List<scalar> 6(0.000129934 0.000135548 0.000153974 0.000187095 0.000190598 0.000159901);
    }
    sideWalls
    {
        type            empty;
    }
    glass1
    {
        type            compressible::alphatWallFunction;
        Prt             0.85;
        value           nonuniform List<scalar> 9(0.000173262 0.000233514 0.000282352 0.000328355 0.000374549 0.000422851 0.000466255 0.000474451 0.000462508);
    }
    glass2
    {
        type            compressible::alphatWallFunction;
        Prt             0.85;
        value           nonuniform List<scalar> 2(0.00023502 0.000221792);
    }
    sun
    {
        type            compressible::alphatWallFunction;
        Prt             0.85;
        value           nonuniform List<scalar> 
14
(
0.000177566
0.000193539
0.000197015
0.000206091
0.000214454
0.000222249
0.000229862
0.000237268
0.000242473
0.000244654
0.00024304
0.000237144
0.000226899
0.000213106
)
;
    }
    heatsource1
    {
        type            compressible::alphatWallFunction;
        Prt             0.85;
        value           nonuniform List<scalar> 3(9.52624e-05 0.000115947 0.000130236);
    }
    heatsource2
    {
        type            compressible::alphatWallFunction;
        Prt             0.85;
        value           nonuniform List<scalar> 4(0.000201709 0.000119918 0.000119917 0.000200685);
    }
    Table_master
    {
        type            compressible::alphatWallFunction;
        Prt             0.85;
        value           nonuniform List<scalar> 9(0.000132445 0.000116903 0.00010424 9.38905e-05 8.53586e-05 7.82579e-05 7.23077e-05 6.7331e-05 6.32636e-05);
    }
    Table_slave
    {
        type            compressible::alphatWallFunction;
        Prt             0.85;
        value           nonuniform List<scalar> 9(0.000149247 0.000136006 0.000126432 0.000119084 0.000112812 0.000107029 0.000101446 9.55527e-05 8.86682e-05);
    }
    inlet
    {
        type            fixedValue;
        value           uniform 1.94e-05;
    }
    outlet
    {
        type            zeroGradient;
    }
}


// ************************************************************************* //
