/*--------------------------------*- C++ -*----------------------------------*\
  =========                 |
  \\      /  F ield         | OpenFOAM: The Open Source CFD Toolbox
   \\    /   O peration     | Website:  https://openfoam.org
    \\  /    A nd           | Version:  6
     \\/     M anipulation  |
\*---------------------------------------------------------------------------*/
FoamFile
{
    version     2.0;
    format      ascii;
    class       volScalarField;
    location    "590";
    object      alphat;
}
// * * * * * * * * * * * * * * * * * * * * * * * * * * * * * * * * * * * * * //

dimensions      [1 -1 -1 0 0 0 0];

internalField   nonuniform List<scalar> 
459
(
0.000742651
0.000826268
0.000865566
0.000915203
0.000962501
0.00101058
0.00106066
0.00110489
0.00113838
0.00115437
0.00114453
0.00105261
0.000947337
0.00082236
0.000711103
0.000451019
0.000650156
0.000669822
0.000679651
0.000676169
0.000659812
0.000626096
0.000589086
0.00055452
0.000523341
0.00049537
0.000470452
0.000447941
0.000427183
0.000407379
0.000387386
0.00036535
0.000331211
0.000295368
0.000934153
0.00231536
0.00228938
0.00266059
0.00305914
0.00342802
0.00372147
0.00403267
0.00434604
0.00463132
0.00483837
0.00487117
0.00456906
0.00381508
0.00249068
0.000856211
0.000693323
0.000683075
0.00222502
0.00231313
0.00262604
0.00281174
0.00270386
0.00195741
0.001645
0.00144143
0.00129188
0.00117582
0.00107602
0.000985645
0.000898542
0.000810878
0.00073339
0.00068711
0.000560725
0.000356774
0.00109522
0.00315629
0.00291126
0.00331812
0.00356641
0.00375365
0.00392337
0.00416557
0.00450571
0.00494415
0.00540205
0.0057364
0.00573505
0.00538687
0.00441277
0.00277772
0.000828388
0.000749385
0.00191185
0.00268415
0.00330862
0.00365661
0.00330896
0.000839624
0.000737469
0.000655759
0.000590727
0.000538592
0.000496583
0.000462665
0.000435697
0.000415871
0.000472257
0.00057952
0.000604925
0.000388212
0.00124848
0.00379117
0.00298377
0.00339247
0.00342991
0.00342685
0.00349506
0.00367638
0.00403647
0.00460075
0.0052247
0.00570951
0.00592404
0.00587188
0.00540907
0.00433344
0.00229544
0.000946912
0.00147145
0.00235067
0.00336473
0.00414608
0.00452084
0.0040071
0.000917754
0.00083866
0.000785975
0.000748574
0.000718795
0.000690451
0.000661113
0.000630357
0.000593864
0.000561465
0.000582869
0.000674318
0.000434964
0.00140699
0.00456331
0.00303786
0.00333068
0.0032825
0.00317132
0.0031837
0.00332285
0.00370212
0.00436162
0.00504125
0.00555981
0.00583754
0.00591089
0.00577562
0.00529844
0.00442697
0.00407882
0.00450218
0.00503171
0.00545597
0.00568016
0.00568018
0.00536457
0.00435493
0.00392102
0.00370493
0.00356993
0.00344937
0.00329815
0.00303441
0.00263823
0.0021383
0.00161357
0.00120404
0.00103757
0.000717664
0.000500929
0.000508033
0.000519928
0.00158163
0.0055031
0.00368072
0.00330835
0.00334916
0.00318695
0.00311758
0.00321064
0.00360957
0.00428697
0.00501221
0.00554652
0.005811
0.0059009
0.00594987
0.00596446
0.00594527
0.00621593
0.00655034
0.00673823
0.00674294
0.00657801
0.00628429
0.00589803
0.00544243
0.00511768
0.00489981
0.00473348
0.00457811
0.00440061
0.00416526
0.0038016
0.00330852
0.00271622
0.00212867
0.00171198
0.00131766
0.0010377
0.00116728
0.000700571
0.00175458
0.00625721
0.00499533
0.00383217
0.0036722
0.00344571
0.00321323
0.00323969
0.00366579
0.00440885
0.00518779
0.00573229
0.00597472
0.00607594
0.00627761
0.00660569
0.00693519
0.00727435
0.00743052
0.00735188
0.00707611
0.0066629
0.00618419
0.00571385
0.00532208
0.00505667
0.00488015
0.00474393
0.00461374
0.00446239
0.00427633
0.0040605
0.00376297
0.00334651
0.00285839
0.00240645
0.00196977
0.00161515
0.00154809
0.000839477
0.00180563
0.00589752
0.00510454
0.00451633
0.00411634
0.00356133
0.00320524
0.00329088
0.00386783
0.0047467
0.00558065
0.00610722
0.00632135
0.00644097
0.00668212
0.00693959
0.00717293
0.00733919
0.00729809
0.00702054
0.00657525
0.0060524
0.00554482
0.00512209
0.0048165
0.00461216
0.00446535
0.00434284
0.00422243
0.00408363
0.00392349
0.00378161
0.00369927
0.00356067
0.00330955
0.00306283
0.00281239
0.00241696
0.00261332
0.00110937
0.00178079
0.00212567
0.0023478
0.00242216
0.00240105
0.00240973
0.00265409
0.00330669
0.0043185
0.00539743
0.0061991
0.00658867
0.00670157
0.00665451
0.00655595
0.00654002
0.00659031
0.00658285
0.00642997
0.00611505
0.00571036
0.00530397
0.00495842
0.00468866
0.0044802
0.0043043
0.00413565
0.00396157
0.0037737
0.00355168
0.00327275
0.00296537
0.00269303
0.00248406
0.00230921
0.00214697
0.00199818
0.00186322
0.0017672
0.0011529
0.000587403
0.00102682
0.00153593
0.00229198
0.00336652
0.00463055
0.00579507
0.00657576
0.00685943
0.00678291
0.00645428
0.00617373
0.0060348
0.00598828
0.00595866
0.00588787
0.00575896
0.00558935
0.00540071
0.00521513
0.00504934
0.00489866
0.0047471
0.00457343
0.00435887
0.00409328
0.00378065
0.00344005
0.00309355
0.00275371
0.0024699
0.0022626
0.00212495
0.00203292
0.00194939
0.00184175
0.0017275
0.00122179
0.00110634
0.00341238
0.00493945
0.00629242
0.00704554
0.00748715
0.00762937
0.00748198
0.00707248
0.00656314
0.00618333
0.00597804
0.00589417
0.00587051
0.00586888
0.00586987
0.00586483
0.00585116
0.00582622
0.00578421
0.00572143
0.00566363
0.00560796
0.00553742
0.00542485
0.00523856
0.00495377
0.00456812
0.00413286
0.00367797
0.00325028
0.00288202
0.00259233
0.00237751
0.00220911
0.00208078
0.0026286
0.00132818
0.00147641
0.00153977
0.00160415
0.00189252
0.00189226
0.00183358
0.00176273
0.0017141
0.00166618
0.00160232
0.00152991
0.00146671
0.00142684
0.00140692
0.00139903
0.00139744
0.00139815
0.0013985
0.00139716
0.00139386
0.00138921
0.00138449
0.00138186
0.00137818
0.00137142
0.00135873
0.00133733
0.00130614
0.00126768
0.00122938
0.00119268
0.00116225
0.00113982
0.00112699
0.00112427
0.00112964
0.00113582
0.00112357
0.00111069
0.00108526
)
;

boundaryField
{
    floor
    {
        type            compressible::alphatWallFunction;
        Prt             0.85;
        value           nonuniform List<scalar> 
29
(
0.000101018
6.18608e-05
9.20325e-05
9.49459e-05
9.63979e-05
9.58847e-05
9.34672e-05
8.84604e-05
8.29258e-05
7.77177e-05
7.29851e-05
6.87093e-05
6.48744e-05
6.13878e-05
5.81529e-05
5.50476e-05
5.1893e-05
4.83912e-05
4.29105e-05
3.70744e-05
3.70738e-05
4.70206e-05
5.20238e-05
5.93687e-05
0.000101017
6.186e-05
9.6899e-05
0.000106617
0.000134995
)
;
    }
    ceiling
    {
        type            compressible::alphatWallFunction;
        Prt             0.85;
        value           nonuniform List<scalar> 
43
(
0.000208004
0.00021652
0.000225134
0.000263277
0.000263249
0.00025555
0.000246215
0.000239784
0.000233425
0.00022492
0.000215231
0.000206731
0.000201349
0.000198652
0.000197585
0.000197368
0.000197466
0.000197513
0.000197331
0.000196884
0.000196253
0.000195613
0.000195256
0.000194756
0.000193838
0.000192113
0.000189201
0.000184946
0.000179684
0.000174426
0.000169369
0.000165162
0.000162054
0.000160272
0.000159894
0.00016064
0.000161498
0.000159796
0.000158006
0.000154463
0.0002486
0.000293654
0.000157349
)
;
    }
    sWall
    {
        type            compressible::alphatWallFunction;
        Prt             0.85;
        value           uniform 0.00020773;
    }
    nWall
    {
        type            compressible::alphatWallFunction;
        Prt             0.85;
        value           nonuniform List<scalar> 6(7.22573e-05 9.92555e-05 0.000119433 0.000173136 0.000187706 0.000154221);
    }
    sideWalls
    {
        type            empty;
    }
    glass1
    {
        type            compressible::alphatWallFunction;
        Prt             0.85;
        value           nonuniform List<scalar> 9(0.000104974 0.000132428 0.000155012 0.000176152 0.000197714 0.000221159 0.0002441 0.000250835 0.000247588);
    }
    glass2
    {
        type            compressible::alphatWallFunction;
        Prt             0.85;
        value           nonuniform List<scalar> 2(0.000157075 0.000163123);
    }
    sun
    {
        type            compressible::alphatWallFunction;
        Prt             0.85;
        value           nonuniform List<scalar> 
14
(
0.000105634
0.000117754
0.0001234
0.000130488
0.0001372
0.000143984
0.00015101
0.000157182
0.000161838
0.000164054
0.000162691
0.000149883
0.000135053
0.000117193
)
;
    }
    heatsource1
    {
        type            compressible::alphatWallFunction;
        Prt             0.85;
        value           nonuniform List<scalar> 3(6.94894e-05 7.05764e-05 7.2392e-05);
    }
    heatsource2
    {
        type            compressible::alphatWallFunction;
        Prt             0.85;
        value           nonuniform List<scalar> 4(0.000121988 9.83367e-05 9.83355e-05 0.000117988);
    }
    Table_master
    {
        type            compressible::alphatWallFunction;
        Prt             0.85;
        value           nonuniform List<scalar> 9(0.000119604 0.000104805 9.27894e-05 8.3096e-05 7.52298e-05 6.88223e-05 6.3599e-05 5.94113e-05 5.63116e-05);
    }
    Table_slave
    {
        type            compressible::alphatWallFunction;
        Prt             0.85;
        value           nonuniform List<scalar> 9(0.00013078 0.000119468 0.000111863 0.000106427 0.000102075 9.79135e-05 9.35835e-05 8.90192e-05 8.35677e-05);
    }
    inlet
    {
        type            fixedValue;
        value           uniform 1.94e-05;
    }
    outlet
    {
        type            zeroGradient;
    }
}


// ************************************************************************* //
