/*--------------------------------*- C++ -*----------------------------------*\
  =========                 |
  \\      /  F ield         | OpenFOAM: The Open Source CFD Toolbox
   \\    /   O peration     | Website:  https://openfoam.org
    \\  /    A nd           | Version:  6
     \\/     M anipulation  |
\*---------------------------------------------------------------------------*/
FoamFile
{
    version     2.0;
    format      ascii;
    class       surfaceScalarField;
    location    "590";
    object      phi;
}
// * * * * * * * * * * * * * * * * * * * * * * * * * * * * * * * * * * * * * //

dimensions      [1 0 -1 0 0 0 0];

internalField   nonuniform List<scalar> 
852
(
-0.00154395
0.0015563
-0.00223617
0.000692208
-0.0027299
0.00049373
-0.00306157
0.000331666
-0.00321092
0.000149345
-0.00315258
-5.83516e-05
-0.00285815
-0.000294429
-0.00232509
-0.000533069
-0.00159868
-0.000726416
-0.000770461
-0.000828225
3.08893e-05
-0.000801357
0.000556842
-0.000525959
0.000785073
-0.000228238
0.000660512
0.000124554
0.000658982
-9.93486e-06
7.79915e-06
0.000103253
-0.000113199
0.00041266
-0.000309418
0.000765656
-0.000353007
0.00107451
-0.000308864
0.00130592
-0.00023142
0.0014304
-0.000124494
0.00147917
-4.87861e-05
0.00149938
-2.02128e-05
0.00150748
-8.12082e-06
0.00150648
9.92988e-07
0.00149663
9.83941e-06
0.00147434
2.22796e-05
0.00142756
4.67612e-05
0.00132734
0.00010021
0.00112322
0.000204105
0.000769724
0.000353484
0.000205052
0.000564658
0.000202132
-0.0011769
0.00276809
-0.00180321
0.00131851
-0.00229107
0.000981593
-0.00262331
0.000663898
-0.00278283
0.000308864
-0.00274414
-9.70489e-05
-0.0024847
-0.000553873
-0.00201298
-0.0010048
-0.00139215
-0.00134725
-0.000725723
-0.00149466
-0.000128906
-0.00139818
0.000349772
-0.00100464
0.000666385
-0.000544858
0.000871384
-8.0452e-05
0.0011626
0.000367763
0.000636191
0.000526347
0.000636132
-7.47318e-05
7.75397e-05
0.000391506
-0.000579446
0.000720096
-0.000638018
0.000990851
-0.000623773
0.00121579
-0.000533818
0.00137992
-0.000395561
0.00141685
-0.000161425
0.00142417
-5.6125e-05
0.00143154
-2.75877e-05
0.00143765
-1.4247e-05
0.00144138
-2.74859e-06
0.00144277
8.43295e-06
0.001441
2.4045e-05
0.00143216
5.55833e-05
0.00138656
0.000145799
0.00120728
0.000383374
0.000899374
0.000661376
0.000522607
0.000941412
0.000716778
-0.000878689
0.00370214
-0.00139389
0.00183371
-0.00182858
0.00141628
-0.00213071
0.000966025
-0.00228929
0.000467436
-0.00226869
-0.000117657
-0.00203315
-0.000789411
-0.00160682
-0.00143113
-0.00107075
-0.00188332
-0.000524332
-0.00204109
-5.02977e-05
-0.00187222
0.000347525
-0.00140247
0.000646942
-0.000844283
0.000852522
-0.000286039
0.000971116
0.000249161
0.000787729
0.000709727
0.00142385
0.000566294
-0.000496509
0.000807883
-0.000821043
0.00104384
-0.000873981
0.00120173
-0.000781672
0.00132597
-0.000658074
0.00148664
-0.000556241
0.00132536
0.00126938
0.00124193
0.00122783
0.00122522
0.0012338
0.00125799
0.00131371
0.00145965
0.00126956
0.000573457
0.00104078
0.000890138
0.000700531
0.00128165
0.00140461
-0.000648701
0.00442487
-0.00102428
0.00220928
-0.00133253
0.00172452
-0.00155677
0.00119027
-0.00168757
0.000598233
-0.00166454
-0.000140694
-0.00143246
-0.0010215
-0.00105113
-0.00181246
-0.000612726
-0.00232173
-0.000194753
-0.00245907
0.000156656
-0.00222364
0.000462951
-0.00170878
0.000711373
-0.00109271
0.000907644
-0.000482319
0.00108555
7.125e-05
0.00129984
0.000495425
0.00200702
0.000716669
0.00184346
0.000155699
0.00175903
-0.000412082
0.00156919
-0.000631219
0.00141958
-0.000724373
0.00133552
-0.000697628
0.00128346
-0.000606025
0.00118679
-0.000459582
0.00140105
-0.000214425
0.0015247
-0.000123823
0.00162064
-9.61071e-05
0.00170137
-8.08972e-05
0.00176218
-6.0987e-05
0.00178788
-2.58662e-05
0.00175293
3.47748e-05
0.0016214
0.000131356
0.00133416
0.000287077
0.00128754
0.000620057
0.00117068
0.00100698
0.000984382
0.00146793
0.00237224
-0.000474878
0.0049907
-0.000710088
0.00244449
-0.000807837
0.00182227
-0.000891678
0.0012741
-0.000949542
0.000656092
-0.000875337
-0.000214903
-0.000629073
-0.00126777
-0.000318448
-0.00212309
-1.67083e-05
-0.00262347
0.000237352
-0.00271313
0.000441681
-0.00242798
0.000620756
-0.00188786
0.000772927
-0.0012449
0.000916017
-0.000625418
0.00109293
-0.000105672
0.00133346
0.000254888
0.00166371
0.000386409
0.00174074
7.8662e-05
0.00159598
-0.000267333
0.00143383
-0.000469073
0.00126901
-0.000559563
0.00113353
-0.000562166
0.00103127
-0.000503775
0.000971063
-0.000399389
0.00102379
-0.000267171
0.00109031
-0.000190353
0.00115646
-0.000162277
0.00122444
-0.000148896
0.00129116
-0.000127718
0.00134737
-8.20949e-05
0.00137583
6.2937e-06
0.00136005
0.000147123
0.00130625
0.000340854
0.00130746
0.000618831
0.00139544
0.000918982
0.00175113
0.00111223
0.00268783
0.00143553
0.00170959
0.000978021
0.00099897
0.000710394
0.00103345
-0.000405028
0.0055018
-0.000501163
0.00254062
-0.000297512
0.00161861
-0.00016571
0.0011423
-6.52787e-05
0.000555655
0.000129948
-0.000410135
0.000368834
-0.00150666
0.00056291
-0.00231717
0.000682845
-0.00274341
0.000739276
-0.00276957
0.000759131
-0.00244784
0.00076296
-0.0018917
0.000765381
-0.00124733
0.000791697
-0.000651746
0.000873685
-0.00018767
0.00102019
0.000108375
0.00120642
0.000200166
0.00124655
3.85237e-05
0.0011524
-0.000173188
0.00101161
-0.000328302
0.000859071
-0.000407032
0.000719977
-0.000423086
0.000610758
-0.000394571
0.000548215
-0.000336862
0.000550608
-0.000269581
0.000591703
-0.000231466
0.000650968
-0.00022156
0.000721056
-0.000219002
0.000798942
-0.000205623
0.000882319
-0.000165491
0.000967509
-7.89162e-05
0.00104382
7.07926e-05
0.00111121
0.000273448
0.00121531
0.000514705
0.00138349
0.000750786
0.00159367
0.000902032
0.0018588
0.00117039
0.00164564
0.00119116
0.00100355
0.00135247
0.00207206
-0.000434079
0.00605576
-0.00026544
0.00237197
0.000327394
0.00102577
0.000674136
0.000795549
0.000991107
0.000238679
0.00131487
-0.0007339
0.00150125
-0.00169305
0.00153834
-0.00235426
0.00144381
-0.00264888
0.00126064
-0.0025864
0.00103886
-0.00222607
0.000819079
-0.00167193
0.000631889
-0.00106015
0.000512731
-0.000532601
0.000482885
-0.000157837
0.000536635
5.46141e-05
0.000624075
0.000112716
0.000637091
2.54956e-05
0.000568788
-0.000104897
0.000451012
-0.000210539
0.000315223
-0.000271258
0.00018602
-0.000293899
8.27438e-05
-0.000291311
2.1789e-05
-0.000275925
1.23867e-05
-0.000260197
4.03631e-05
-0.000259461
8.83747e-05
-0.000269591
0.000147902
-0.000278549
0.000218086
-0.000275827
0.000304552
-0.000251977
0.000418659
-0.000193043
0.000561424
-7.19927e-05
0.000717624
0.000117228
0.000894007
0.000338303
0.00109915
0.000545623
0.00129216
0.000709002
0.00152899
0.000933549
0.00167046
0.00104967
0.00146918
0.00155372
0.00357777
0.0011116
0.00507903
0.00152757
0.00195599
0.00177883
0.000774507
0.0021008
0.000473572
0.00252884
-0.000189368
0.00281226
-0.00101732
0.00281925
-0.00170004
0.00258067
-0.00211568
0.00216696
-0.00223518
0.00166408
-0.00208353
0.00114878
-0.00171078
0.000680498
-0.00120366
0.000304365
-0.000684035
6.5028e-05
-0.000293279
-3.73421e-05
-5.54804e-05
-4.06224e-05
5.78815e-05
-7.78366e-06
7.98642e-05
-1.25841e-05
3.02822e-05
-7.34333e-05
-4.40632e-05
-0.000175435
-0.000108553
-0.000292651
-0.00015406
-0.000402556
-0.000184011
-0.000489659
-0.000204228
-0.00054418
-0.000221423
-0.000564164
-0.000240232
-0.000560223
-0.000263423
-0.000543571
-0.000286264
-0.000520623
-0.000301517
-0.000493063
-0.000303407
-0.00045603
-0.000289029
-0.000392049
-0.000257044
-0.000265398
-0.000198663
-6.90918e-05
-7.90978e-05
0.000164367
0.000104824
0.000405281
0.00030469
0.000616553
0.000497712
0.000853253
0.00069683
0.0010628
0.000840109
0.000698035
0.00191847
0.00441914
0.00521424
0.0071573
0.0063749
0.0015569
0.00596868
0.000879787
0.0056086
0.000170714
0.0050586
-0.000467322
0.00432325
-0.000964684
0.00346084
-0.00125326
0.0025441
-0.00131844
0.00165515
-0.00119459
0.00085563
-0.00091128
0.000187878
-0.000535931
-0.000270096
-0.000226081
-0.000519378
-4.40147e-05
-0.000621562
4.66877e-05
-0.000644745
8.1049e-05
-0.000644448
7.95506e-05
-0.000664172
4.99902e-05
-0.000717802
9.54955e-06
-0.000797711
-2.86635e-05
-0.000887645
-6.41442e-05
-0.000973044
-9.86327e-05
-0.00104768
-0.000129613
-0.00110808
-0.000161044
-0.00115513
-0.000193203
-0.00119427
-0.000224299
-0.0012314
-0.000249156
-0.0012727
-0.000260238
-0.00132735
-0.000248779
-0.00140921
-0.000207183
-0.00152976
-0.000136508
-0.00169225
-3.61939e-05
-0.00189309
0.000121723
-0.00214136
0.000353071
-0.00250596
0.000669281
-0.00309648
0.00108821
-0.00402578
0.00162611
-0.00532812
0.00214244
-0.00543991
0.00203024
-0.00086515
0.00582995
0.00220008
0.0052112
0.00149854
0.00474143
0.000640502
0.00416503
0.000109083
0.00337252
-0.00017217
0.00243916
-0.000319906
0.00147529
-0.000354591
0.000568832
-0.000288141
-0.000195878
-0.000146594
-0.00072789
-3.93946e-06
-0.001012
5.80047e-05
-0.00114335
8.73249e-05
-0.00119132
9.46327e-05
-0.00120379
9.3505e-05
-0.00120958
8.53177e-05
-0.00122715
6.75466e-05
-0.00126129
4.36691e-05
-0.00130723
1.72556e-05
-0.00136193
-9.46728e-06
-0.00142365
-3.69275e-05
-0.00149401
-5.9281e-05
-0.00157232
-8.27535e-05
-0.00165895
-0.000106593
-0.00175402
-0.000129251
-0.0018559
-0.000147288
-0.00196165
-0.000154513
-0.00206929
-0.000141157
-0.00218271
-9.37828e-05
-0.00230255
-1.66804e-05
-0.00242557
8.68077e-05
-0.00253625
0.000232381
-0.00262993
0.000446736
-0.00270473
0.000744064
-0.00274959
0.00113306
-0.00273773
0.00161424
-0.00256946
0.00197414
-0.00125814
0.000718914
-0.00208486
8.38675e-05
0.00210452
0.00042126
0.00116115
0.000397976
0.000663778
0.00023065
0.000276392
-1.97719e-05
7.82281e-05
-0.000362619
2.29198e-05
-0.000758345
4.11126e-05
-0.00112332
7.68066e-05
-0.00138141
0.000111476
-0.00151128
0.000125911
-0.00157413
0.000120833
-0.00159344
0.000106617
-0.00159054
9.17099e-05
-0.00157703
7.99792e-05
-0.00156147
6.97338e-05
-0.00155176
5.78193e-05
-0.00155191
4.37959e-05
-0.00156308
2.84017e-05
-0.00158597
1.34021e-05
-0.00162298
6.02111e-08
-0.0016707
-1.15799e-05
-0.00173293
-2.05427e-05
-0.00181337
-2.6176e-05
-0.00191511
-2.75294e-05
-0.00203855
-2.38659e-05
-0.00217842
-1.4662e-05
-0.00231987
2.72643e-07
-0.0024374
2.37272e-05
-0.0025109
5.68024e-05
-0.00253749
0.000113384
-0.00250011
0.00019498
-0.0023665
0.00031311
-0.0021045
0.00048205
-0.00166371
0.000692246
-0.00089075
0.000841262
0.000367597
0.00071578
0.00123946
-0.000152962
-0.000805123
-0.00555247
-0.00665041
-0.00455972
-0.00341257
-0.0027645
-0.00250586
-0.00244725
-0.00244532
-0.00242643
-0.00237316
-0.00228658
-0.00218675
-0.00209277
-0.00201343
-0.0019492
-0.00189678
-0.00185462
-0.0018244
-0.00180822
-0.00180747
-0.00182177
-0.00184946
-0.0018888
-0.00193713
-0.00199117
-0.00204675
-0.00209899
-0.00214255
-0.00217184
-0.0021784
-0.0021526
-0.00207087
-0.00190803
-0.00162738
-0.00117788
-0.000518125
0.000290727
0.00097379
0.000787833
)
;

boundaryField
{
    floor
    {
        type            calculated;
        value           nonuniform List<scalar> 
29
(
0
0
0
0
0
0
0
0
0
0
0
0
0
0
0
0
0
0
0
0
2.90592e-06
7.94605e-06
1.26841e-05
1.67384e-05
1.52354e-06
2.12169e-06
4.98054e-06
7.74577e-06
7.85186e-06
)
;
    }
    ceiling
    {
        type            calculated;
        value           nonuniform List<scalar> 
43
(
1.49669e-05
1.42996e-05
1.3816e-05
1.39761e-05
1.56827e-05
1.77323e-05
1.95896e-05
2.09769e-05
2.21941e-05
2.35112e-05
2.48755e-05
2.60568e-05
2.6834e-05
2.72567e-05
2.74568e-05
2.75354e-05
2.75596e-05
2.75722e-05
2.75944e-05
2.76326e-05
2.76822e-05
2.77281e-05
2.77398e-05
2.77683e-05
2.78481e-05
2.8028e-05
2.83596e-05
2.88745e-05
2.95489e-05
3.02631e-05
3.09895e-05
3.16287e-05
3.21279e-05
3.24374e-05
3.25366e-05
3.24718e-05
3.23938e-05
3.26989e-05
3.29779e-05
3.40856e-05
1.54867e-05
1.29294e-05
1.16963e-05
)
;
    }
    sWall
    {
        type            calculated;
        value           uniform -5.74298e-05;
    }
    nWall
    {
        type            calculated;
        value           nonuniform List<scalar> 6(-3.46994e-05 -3.50774e-05 -3.65422e-05 -3.84539e-05 -4.02943e-05 -5.13929e-05);
    }
    sideWalls
    {
        type            empty;
        value           nonuniform 0();
    }
    glass1
    {
        type            calculated;
        value           nonuniform List<scalar> 9(-1.23507e-05 -3.48962e-05 -5.53633e-05 -7.40395e-05 -9.09571e-05 -0.000106076 -0.000119886 -0.000134871 -0.000150694);
    }
    glass2
    {
        type            calculated;
        value           nonuniform List<scalar> 2(-0.000143351 -0.000155638);
    }
    sun
    {
        type            calculated;
        value           uniform 0;
    }
    heatsource1
    {
        type            calculated;
        value           nonuniform List<scalar> 3(2.06435e-07 2.06862e-07 2.07146e-07);
    }
    heatsource2
    {
        type            calculated;
        value           nonuniform List<scalar> 4(5.18208e-08 5.19069e-08 0 0);
    }
    Table_master
    {
        type            calculated;
        value           nonuniform List<scalar> 9(-1.55181e-07 -1.55286e-07 -1.55313e-07 -1.55329e-07 -1.55338e-07 -1.5534e-07 -1.55335e-07 -1.55319e-07 -1.55273e-07);
    }
    Table_slave
    {
        type            calculated;
        value           nonuniform List<scalar> 9(1.551e-07 1.55107e-07 1.55071e-07 1.55038e-07 1.55013e-07 1.55001e-07 1.55001e-07 1.55016e-07 1.55066e-07);
    }
    inlet
    {
        type            calculated;
        value           uniform -0.00647313;
    }
    outlet
    {
        type            calculated;
        value           nonuniform List<scalar> 2(0.00559492 0.00108363);
    }
}


// ************************************************************************* //
