/*--------------------------------*- C++ -*----------------------------------*\
  =========                 |
  \\      /  F ield         | OpenFOAM: The Open Source CFD Toolbox
   \\    /   O peration     | Website:  https://openfoam.org
    \\  /    A nd           | Version:  6
     \\/     M anipulation  |
\*---------------------------------------------------------------------------*/
FoamFile
{
    version     2.0;
    format      ascii;
    class       surfaceScalarField;
    location    "500";
    object      phi;
}
// * * * * * * * * * * * * * * * * * * * * * * * * * * * * * * * * * * * * * //

dimensions      [1 0 -1 0 0 0 0];

internalField   nonuniform List<scalar> 
852
(
-0.00250205
0.00254491
-0.00335229
0.000850233
-0.0040242
0.000671911
-0.00456398
0.000539772
-0.00493991
0.000375922
-0.00512778
0.000187871
-0.00510329
-2.44913e-05
-0.00484293
-0.000260366
-0.00434696
-0.000495975
-0.00365449
-0.000692481
-0.00283532
-0.000819174
-0.00197314
-0.000862177
-0.00115524
-0.000817909
-0.00047868
-0.000676561
-0.000482133
0.000144313
-0.000149248
0.000387315
-0.000243005
0.000758565
-0.000371254
0.00108679
-0.000328234
0.00133953
-0.000252742
0.00151668
-0.000177153
0.00160804
-9.13635e-05
0.00164028
-3.22445e-05
0.00164952
-9.24995e-06
0.00164863
8.87167e-07
0.0016398
8.82524e-06
0.00162223
1.75628e-05
0.00159071
3.15208e-05
0.00153055
6.01554e-05
0.0014071
0.000123445
0.00116039
0.000246707
0.000736086
0.000424296
2.88301e-05
0.000707251
2.21304e-05
-0.00181519
0.00447622
-0.00266753
0.00170256
-0.00337248
0.00137686
-0.00391107
0.00107835
-0.00428484
0.000749688
-0.00447971
0.000382741
-0.00446983
-3.43816e-05
-0.00423368
-0.000496512
-0.00378039
-0.000949268
-0.00316065
-0.00131223
-0.00245125
-0.00152858
-0.00173827
-0.00157516
-0.00110262
-0.00145356
-0.000601469
-0.00117771
-0.000304185
-0.000779421
7.95552e-06
-0.000312195
7.90135e-06
-4.24249e-05
-0.000118941
0.000648202
-0.000933636
0.00100056
-0.000723613
0.00125747
-0.000585155
0.00145642
-0.000451695
0.00159238
-0.00031312
0.00162331
-0.000122293
0.00163157
-4.05095e-05
0.00163944
-1.71245e-05
0.00164571
-5.39118e-06
0.00164957
4.96462e-06
0.00165094
1.61854e-05
0.00164875
3.37026e-05
0.00163818
7.07233e-05
0.00158411
0.000177509
0.00137413
0.00045668
0.00101186
0.000786561
0.000630364
0.00108874
0.000634254
-0.00130114
0.00595569
-0.00205361
0.00245503
-0.00269416
0.00201741
-0.00316741
0.0015516
-0.00350528
0.00108755
-0.00369183
0.000569287
-0.00368705
-3.91724e-05
-0.00345364
-0.000729926
-0.00301605
-0.00138685
-0.0024437
-0.00188459
-0.00181617
-0.00215611
-0.00120634
-0.00218499
-0.000669247
-0.00199066
-0.000249008
-0.00159796
4.56873e-05
-0.00107412
0.00019915
-0.000465663
0.000207048
0.000938806
-0.00107527
0.00104171
-0.00103654
0.0012656
-0.000947508
0.00142674
-0.000746306
0.00154158
-0.000566533
0.00166459
-0.000436142
0.00154245
0.00150208
0.0014851
0.00147986
0.00148497
0.0015013
0.00153515
0.00160602
0.00178367
0.00158122
0.000659124
0.00133272
0.00103506
0.000958008
0.00146345
0.00156342
-0.000936498
0.00712394
-0.0015495
0.00306803
-0.00199648
0.00246438
-0.00233029
0.00188542
-0.00258074
0.001338
-0.00272504
0.000713577
-0.00269721
-6.7008e-05
-0.00243576
-0.000991377
-0.0020055
-0.00181711
-0.00149525
-0.00239484
-0.000974295
-0.00267706
-0.00049143
-0.00266786
-6.87295e-05
-0.00241336
0.00029236
-0.00195905
0.000615564
-0.00139733
0.000971813
-0.000821916
0.00158368
-0.000404823
0.00208448
-0.000518082
0.00189768
-0.000888487
0.00172768
-0.000866538
0.00157453
-0.000794367
0.00149587
-0.00066765
0.0014595
-0.000530171
0.00140308
-0.000379719
0.00158677
-0.000183853
0.00171195
-0.000125339
0.0018234
-0.000111605
0.0019281
-0.000104856
0.00201927
-9.13219e-05
0.00208076
-6.16471e-05
0.00208201
-1.40676e-06
0.00197767
0.000104185
0.00169754
0.00027997
0.0016844
0.000672259
0.00158224
0.00113721
0.00138186
0.00166383
0.00290778
-0.000675881
0.00807736
-0.00115291
0.00354505
-0.00128996
0.00260143
-0.00141278
0.00200823
-0.00151417
0.00143938
-0.0015603
0.000759699
-0.00145112
-0.000176187
-0.00113312
-0.00130938
-0.000736581
-0.00221366
-0.000339357
-0.00279207
1.89884e-05
-0.00303541
0.000320308
-0.00296918
0.000565294
-0.00265835
0.000786108
-0.00217987
0.00101345
-0.00162467
0.00128694
-0.00109542
0.00160528
-0.000723165
0.00175957
-0.000672378
0.00159546
-0.000724382
0.00144009
-0.000711169
0.00129645
-0.000650731
0.00119214
-0.000563351
0.0011279
-0.000465933
0.0011094
-0.000361224
0.00118639
-0.000260851
0.00127654
-0.0002155
0.00137075
-0.000205817
0.00146819
-0.000202305
0.00156395
-0.000187087
0.00164835
-0.000146058
0.00170707
-6.01287e-05
0.00172276
8.84819e-05
0.00169529
0.000307441
0.00173642
0.000631114
0.00188575
0.000987874
0.00238566
0.00116392
0.00365868
0.00163476
0.00244692
0.00121155
0.00149302
0.000953687
0.00153298
-0.000596482
0.0089904
-0.00093065
0.00387922
-0.000630182
0.00230095
-0.000450737
0.00182878
-0.000346542
0.00133518
-0.000204
0.000617152
8.85287e-05
-0.000468722
0.000438392
-0.00165924
0.000735728
-0.00251099
0.000948386
-0.00300472
0.00107571
-0.00316273
0.0011389
-0.00303237
0.00116318
-0.00268263
0.00117602
-0.00219272
0.00120329
-0.00165195
0.0012622
-0.00115433
0.00133179
-0.000792759
0.00129542
-0.000636021
0.00115541
-0.00058437
0.000995327
-0.000551093
0.000849864
-0.000505274
0.000738095
-0.000451587
0.00066905
-0.000396893
0.000651634
-0.000343814
0.000691807
-0.000301031
0.000763296
-0.000286995
0.000849287
-0.000291815
0.000943189
-0.000296214
0.00104177
-0.000285679
0.00114366
-0.000247955
0.00124962
-0.00016609
0.00135166
-1.35667e-05
0.00144483
0.000214263
0.00157941
0.000496527
0.00178528
0.000781993
0.00200134
0.000947854
0.00229798
0.0013381
0.00201656
0.00149296
0.00123091
0.00173933
0.00280635
-0.00070269
0.0100445
-0.000620061
0.00379658
0.000231213
0.00144967
0.000701271
0.00135872
0.00101701
0.00101943
0.00143125
0.000202902
0.0018985
-0.000935976
0.00218609
-0.00194684
0.00229945
-0.00262435
0.00225963
-0.0029649
0.00210535
-0.00300844
0.00188241
-0.00280943
0.00163382
-0.00243405
0.00139389
-0.00195279
0.00118758
-0.00144564
0.00102727
-0.000994021
0.000900545
-0.000666043
0.000757297
-0.000492778
0.00059409
-0.000421168
0.000430977
-0.000387985
0.000289641
-0.000363944
0.000182159
-0.000344111
0.000115083
-0.000329824
9.31524e-05
-0.000321891
0.000115106
-0.000322991
0.000165659
-0.000337556
0.000231033
-0.000357196
0.000304606
-0.000369794
0.000384807
-0.000365888
0.000475394
-0.000338549
0.000588021
-0.000278726
0.000739643
-0.000165196
0.000916441
3.74566e-05
0.00110866
0.000304297
0.00132206
0.000568588
0.00148822
0.000781684
0.00170149
0.00112483
0.00180788
0.00138656
0.00152886
0.00201835
0.00437978
0.00202741
0.00840971
0.00258701
0.00323698
0.00265506
0.00138161
0.00290826
0.00110552
0.00327524
0.000652444
0.00377725
-0.000299121
0.00410471
-0.00126344
0.00412227
-0.0019644
0.00387642
-0.0023785
0.00344874
-0.00253722
0.00291814
-0.00247783
0.00235301
-0.0022443
0.00180817
-0.00188922
0.00131757
-0.00146219
0.000903349
-0.00103143
0.00057627
-0.000666949
0.000327512
-0.000417291
0.000127048
-0.000292321
-4.78127e-05
-0.000246313
-0.000199555
-0.000236249
-0.000323386
-0.000240121
-0.000417766
-0.000249738
-0.000482075
-0.000265521
-0.000516414
-0.000287559
-0.00052379
-0.000315623
-0.000512988
-0.000348366
-0.00049141
-0.000378783
-0.000463513
-0.000397698
-0.000432289
-0.00039712
-0.000397561
-0.000373285
-0.000347184
-0.000329111
-0.000247843
-0.000264544
-6.19092e-05
-0.000148485
0.000173494
6.88863e-05
0.000406987
0.000335088
0.000588839
0.000599824
0.000801708
0.000911954
0.000996142
0.00119212
0.000580328
0.00243415
0.00514863
0.00881201
0.0120192
0.0103521
0.00304865
0.0092945
0.00216315
0.00856398
0.00138297
0.00788538
0.000379472
0.00704288
-0.000420923
0.00607489
-0.000996403
0.00506301
-0.00136661
0.00405804
-0.00153224
0.00309559
-0.00151538
0.00221112
-0.00135984
0.00143985
-0.00111795
0.000791769
-0.000814118
0.000275134
-0.000514802
-0.000102687
-0.000289136
-0.000362757
-0.000157228
-0.000547276
-0.000107809
-0.000691946
-0.000101651
-0.000811308
-0.000116894
-0.000911269
-0.000140167
-0.000996905
-0.000164109
-0.00107044
-0.000191992
-0.00113376
-0.000224251
-0.00118918
-0.000260209
-0.00123985
-0.000297704
-0.00128767
-0.000330967
-0.00133473
-0.000350644
-0.00138794
-0.000343926
-0.00146428
-0.000296944
-0.00158567
-0.000207728
-0.00176587
-8.43564e-05
-0.00200642
9.20612e-05
-0.00229833
0.000360787
-0.00270319
0.000739942
-0.00336327
0.00125989
-0.0044161
0.00196478
-0.00593708
0.00271309
-0.00625519
0.00275226
-0.000903673
0.00382507
0.00345954
0.00368601
0.00230223
0.00437977
0.000689227
0.00461006
0.000149214
0.004426
-0.000236828
0.00397555
-0.000545935
0.00333844
-0.000729484
0.00258552
-0.000779315
0.00178431
-0.000714177
0.00100565
-0.000581191
0.00031738
-0.000429695
-0.000239518
-0.000257233
-0.000631567
-0.000122763
-0.000876484
-4.42273e-05
-0.00103074
-2.98396e-06
-0.00114046
1.90244e-06
-0.00122966
-1.24524e-05
-0.00131028
-3.62796e-05
-0.00138824
-6.2218e-05
-0.00147043
-8.19308e-05
-0.00155946
-0.000102965
-0.00165827
-0.000125452
-0.00176947
-0.000149012
-0.0018942
-0.000172984
-0.00203035
-0.000194821
-0.00217233
-0.000208674
-0.00231339
-0.000202876
-0.00245359
-0.000156753
-0.00259721
-6.4115e-05
-0.00274643
6.4855e-05
-0.00289027
0.000235895
-0.00301353
0.000484043
-0.00311533
0.00084173
-0.00318345
0.001328
-0.00317207
0.0019534
-0.00296001
0.00250103
-0.00130302
0.00109526
-0.0021629
0.000534737
0.00291157
0.00192826
0.000908728
0.00229574
0.000321769
0.00230644
0.000138536
0.00208204
-1.24188e-05
0.00169963
-0.000163527
0.00118846
-0.000218318
0.000615102
-0.000205977
6.32649e-05
-0.000162358
-0.000422696
-9.52492e-05
-0.000827037
-2.53684e-05
-0.00111198
2.76953e-05
-0.00129261
5.78564e-05
-0.00140327
6.64299e-05
-0.00146798
6.17106e-05
-0.00151546
4.93754e-05
-0.00156136
3.34419e-05
-0.00161485
1.72011e-05
-0.00167815
1.07722e-06
-0.00174635
-1.3742e-05
-0.00182261
-2.67158e-05
-0.00191032
-3.77418e-05
-0.00201391
-4.54345e-05
-0.00213887
-4.8031e-05
-0.00228981
-4.38864e-05
-0.00246675
-3.17415e-05
-0.00265862
-1.10118e-05
-0.00283611
2.07242e-05
-0.00296569
6.54607e-05
-0.00303355
0.00013271
-0.00303008
0.000232417
-0.00291609
0.000370049
-0.00264001
0.000565643
-0.00213518
0.000823165
-0.00120756
0.00102577
0.000345648
0.000947817
0.00141862
2.2279e-05
-0.000700117
-0.00356119
-0.00490449
-0.00201623
-0.00114048
-0.000857986
-0.000762152
-0.000819841
-0.00102992
-0.00129571
-0.00154985
-0.00176112
-0.00190631
-0.00198294
-0.00200781
-0.00200363
-0.00199169
-0.00198499
-0.00199095
-0.00201307
-0.00205165
-0.00210656
-0.00217641
-0.00225932
-0.00235331
-0.00245507
-0.00255961
-0.00266039
-0.00274978
-0.00281961
-0.00285918
-0.00285573
-0.00278687
-0.00262013
-0.00231745
-0.00182057
-0.00106721
-0.000112115
0.000764092
0.000716473
)
;

boundaryField
{
    floor
    {
        type            calculated;
        value           nonuniform List<scalar> 
29
(
0
0
0
0
0
0
0
0
0
0
0
0
0
0
0
0
0
0
0
0
6.69435e-06
1.82341e-05
2.88366e-05
3.74906e-05
3.45099e-06
4.93148e-06
1.21146e-05
1.75224e-05
1.72811e-05
)
;
    }
    ceiling
    {
        type            calculated;
        value           nonuniform List<scalar> 
43
(
2.82609e-05
2.50053e-05
2.33096e-05
3.29744e-05
3.9265e-05
4.26796e-05
4.52439e-05
4.65258e-05
4.74453e-05
4.8149e-05
4.88981e-05
4.99209e-05
5.12475e-05
5.25545e-05
5.36675e-05
5.44857e-05
5.50037e-05
5.53249e-05
5.5558e-05
5.57697e-05
5.59755e-05
5.60998e-05
5.61864e-05
5.62452e-05
5.63188e-05
5.64933e-05
5.68911e-05
5.76407e-05
5.88097e-05
6.02893e-05
6.19975e-05
6.38432e-05
6.56756e-05
6.73621e-05
6.87555e-05
6.97985e-05
7.06634e-05
7.16032e-05
6.98913e-05
7.21553e-05
3.63852e-05
2.98138e-05
1.3252e-05
)
;
    }
    sWall
    {
        type            calculated;
        value           uniform -0.000220939;
    }
    nWall
    {
        type            calculated;
        value           nonuniform List<scalar> 6(-4.01654e-05 -4.24625e-05 -4.45783e-05 -4.37987e-05 -4.41718e-05 -5.58062e-05);
    }
    sideWalls
    {
        type            empty;
        value           nonuniform 0();
    }
    glass1
    {
        type            calculated;
        value           nonuniform List<scalar> 9(-4.28658e-05 -0.000116114 -0.000178343 -0.000231756 -0.000277533 -0.000316565 -0.000351382 -0.000392653 -0.000438692);
    }
    glass2
    {
        type            calculated;
        value           nonuniform List<scalar> 2(-0.000188532 -0.00020289);
    }
    sun
    {
        type            calculated;
        value           uniform 0;
    }
    heatsource1
    {
        type            calculated;
        value           nonuniform List<scalar> 3(2.00233e-07 2.00761e-07 2.01165e-07);
    }
    heatsource2
    {
        type            calculated;
        value           nonuniform List<scalar> 4(5.03917e-08 5.04832e-08 0 0);
    }
    Table_master
    {
        type            calculated;
        value           nonuniform List<scalar> 9(-1.50744e-07 -1.50837e-07 -1.50862e-07 -1.50878e-07 -1.50886e-07 -1.50887e-07 -1.50882e-07 -1.50866e-07 -1.50814e-07);
    }
    Table_slave
    {
        type            calculated;
        value           nonuniform List<scalar> 9(1.50671e-07 1.50686e-07 1.50651e-07 1.50616e-07 1.50585e-07 1.50565e-07 1.50566e-07 1.50573e-07 1.50617e-07);
    }
    inlet
    {
        type            calculated;
        value           uniform -0.00423594;
    }
    outlet
    {
        type            calculated;
        value           nonuniform List<scalar> 2(0.00375388 0.0013183);
    }
}


// ************************************************************************* //
