// -*- C++ -*-
// File generated by PyFoam - sorry for the ugliness

FoamFile
{
 version 2.0;
 format ascii;
 class volScalarField;
 location "600";
 object T;
}

dimensions [ 0 0 0 1 0 0 0 ];

internalField nonuniform List<scalar> 459
(
  307.565
  307.386
  307.371
  307.363
  307.356
  307.35
  307.346
  307.343
  307.342
  307.341
  307.34
  307.337
  307.334
  307.328
  307.318
  306.565
  306.544
  306.517
  306.497
  306.495
  306.505
  306.518
  306.529
  306.537
  306.544
  306.549
  306.551
  306.558
  306.576
  306.613
  306.673
  306.724
  306.808
  306.875
  307.74
  307.551
  307.529
  307.505
  307.478
  307.455
  307.439
  307.428
  307.42
  307.415
  307.408
  307.4
  307.388
  307.371
  307.348
  307.323
  307.218
  306.678
  306.704
  306.704
  306.706
  306.715
  306.725
  306.73
  306.737
  306.747
  306.763
  306.788
  306.817
  306.848
  306.887
  306.939
  306.991
  306.973
  306.962
  307.018
  307.91
  307.73
  307.728
  307.696
  307.639
  307.585
  307.543
  307.514
  307.494
  307.482
  307.472
  307.461
  307.443
  307.417
  307.38
  307.335
  307.293
  306.928
  306.94
  306.953
  306.966
  306.969
  306.959
  306.915
  306.938
  306.965
  306.992
  307.021
  307.054
  307.093
  307.14
  307.199
  307.255
  307.238
  307.195
  307.176
  308.079
  307.921
  307.961
  307.942
  307.867
  307.781
  307.7
  307.637
  307.594
  307.565
  307.547
  307.533
  307.515
  307.487
  307.444
  307.382
  307.299
  307.214
  307.165
  307.239
  307.292
  307.335
  307.365
  307.386
  307.402
  307.403
  307.404
  307.405
  307.405
  307.405
  307.405
  307.403
  307.399
  307.385
  307.379
  307.367
  307.321
  308.245
  308.105
  308.171
  308.154
  308.089
  307.999
  307.902
  307.81
  307.733
  307.674
  307.64
  307.617
  307.6
  307.58
  307.552
  307.515
  307.472
  307.433
  307.406
  307.414
  307.426
  307.44
  307.449
  307.454
  307.455
  307.455
  307.454
  307.454
  307.453
  307.453
  307.453
  307.452
  307.451
  307.447
  307.445
  307.443
  307.447
  307.46
  307.468
  307.475
  308.398
  308.288
  308.339
  308.307
  308.251
  308.172
  308.078
  307.979
  307.886
  307.809
  307.755
  307.719
  307.689
  307.67
  307.647
  307.619
  307.586
  307.556
  307.533
  307.523
  307.518
  307.516
  307.514
  307.512
  307.509
  307.506
  307.504
  307.501
  307.499
  307.497
  307.496
  307.494
  307.491
  307.488
  307.484
  307.48
  307.478
  307.481
  307.485
  307.491
  308.564
  308.527
  308.439
  308.379
  308.33
  308.268
  308.189
  308.101
  308.011
  307.931
  307.868
  307.823
  307.791
  307.762
  307.738
  307.713
  307.686
  307.659
  307.635
  307.618
  307.605
  307.595
  307.586
  307.579
  307.573
  307.567
  307.561
  307.556
  307.551
  307.547
  307.542
  307.538
  307.533
  307.526
  307.519
  307.51
  307.504
  307.501
  307.502
  307.502
  308.742
  308.717
  308.441
  308.355
  308.311
  308.272
  308.222
  308.156
  308.084
  308.015
  307.957
  307.912
  307.878
  307.852
  307.826
  307.802
  307.778
  307.754
  307.731
  307.711
  307.694
  307.679
  307.666
  307.655
  307.644
  307.635
  307.626
  307.617
  307.609
  307.601
  307.593
  307.585
  307.577
  307.567
  307.556
  307.544
  307.532
  307.523
  307.517
  307.511
  309.043
  308.838
  308.117
  308.124
  308.173
  308.197
  308.189
  308.156
  308.109
  308.059
  308.013
  307.976
  307.946
  307.922
  307.901
  307.881
  307.859
  307.838
  307.818
  307.798
  307.779
  307.762
  307.746
  307.731
  307.717
  307.704
  307.691
  307.679
  307.667
  307.655
  307.644
  307.632
  307.62
  307.607
  307.593
  307.577
  307.56
  307.545
  307.532
  307.521
  307.493
  307.918
  308.043
  308.113
  308.142
  308.133
  308.106
  308.074
  308.043
  308.015
  307.991
  307.972
  307.954
  307.938
  307.921
  307.903
  307.885
  307.866
  307.848
  307.83
  307.813
  307.796
  307.779
  307.763
  307.747
  307.732
  307.717
  307.702
  307.687
  307.672
  307.656
  307.64
  307.623
  307.604
  307.584
  307.563
  307.545
  307.53
  307.636
  307.905
  307.98
  308.046
  308.093
  308.103
  308.092
  308.073
  308.053
  308.034
  308.016
  308
  307.985
  307.97
  307.955
  307.94
  307.924
  307.907
  307.89
  307.873
  307.855
  307.837
  307.82
  307.802
  307.785
  307.768
  307.75
  307.733
  307.716
  307.698
  307.68
  307.661
  307.642
  307.62
  307.597
  307.573
  307.55
  307.535
  311.586
  311.352
  308.045
  307.995
  307.976
  308.006
  308.047
  308.066
  308.064
  308.054
  308.041
  308.028
  308.015
  308.002
  307.99
  307.977
  307.964
  307.95
  307.936
  307.921
  307.906
  307.89
  307.874
  307.857
  307.84
  307.822
  307.804
  307.786
  307.767
  307.748
  307.729
  307.709
  307.689
  307.668
  307.645
  307.62
  307.593
  307.56
  307.517
  307.452
)
;

boundaryField
{
  floor
  {
    type wallHeatTransfer;
    Tinf uniform 305.2;
    alphaWall uniform 0.24;
    value nonuniform List<scalar> 29
(
  306.987
  306.262
  306.232
  306.172
  306.117
  306.098
  306.101
  306.114
  306.13
  306.144
  306.156
  306.163
  306.165
  306.174
  306.198
  306.247
  306.322
  306.389
  306.507
  306.546
  306.546
  306.736
  306.915
  307.048
  306.987
  306.262
  306.403
  306.642
  306.935
)
;
  }
  ceiling
  {
    type wallHeatTransfer;
    Tinf uniform 303.2;
    alphaWall uniform 0.24;
    value nonuniform List<scalar> 43
(
  310.789
  310.671
  307.866
  307.78
  307.702
  307.682
  307.71
  307.718
  307.708
  307.693
  307.678
  307.664
  307.651
  307.64
  307.63
  307.62
  307.611
  307.6
  307.589
  307.577
  307.564
  307.549
  307.534
  307.519
  307.503
  307.486
  307.47
  307.453
  307.435
  307.418
  307.4
  307.381
  307.362
  307.341
  307.319
  307.295
  307.266
  307.231
  307.183
  307.087
  308.739
  308.609
  307.522
)
;
  }
  sWall
  {
    type wallHeatTransfer;
    Tinf uniform 315.2;
    alphaWall uniform 0.36;
    value uniform 312.079;
  }
  nWall
  {
    type wallHeatTransfer;
    Tinf uniform 307.2;
    alphaWall uniform 0.36;
    value nonuniform List<scalar> 6
(
  307.419
  307.44
  307.455
  307.492
  307.503
  307.421
)
;
  }
  sideWalls
  {
    type empty;
  }
  glass1
  {
    type wallHeatTransfer;
    Tinf uniform 315.2;
    alphaWall uniform 4.3;
    value nonuniform List<scalar> 9
(
  313.156
  312.473
  312.089
  311.858
  311.724
  311.623
  311.725
  311.884
  312.111
)
;
  }
  glass2
  {
    type wallHeatTransfer;
    Tinf uniform 307.2;
    alphaWall uniform 4.3;
    value nonuniform List<scalar> 2
(
  307.304
  307.314
)
;
  }
  sun
  {
    type wallHeatTransfer;
    Tinf uniform 305.2;
    alphaWall uniform 0.24;
    value nonuniform List<scalar> 14
(
  307.256
  307.115
  307.061
  307.037
  307.019
  307.004
  306.994
  306.99
  306.989
  306.99
  306.993
  306.995
  306.996
  306.994
)
;
  }
  heatsource1
  {
    type fixedGradient;
    gradient uniform 0;
  }
  heatsource2
  {
    type fixedGradient;
    gradient uniform 0;
  }
  Table_master
  {
    type zeroGradient;
  }
  Table_slave
  {
    type zeroGradient;
  }
  inlet
  {
    type fixedValue;
    value uniform 299.15;
  }
  outlet
  {
    type zeroGradient;
  }
} 	// ************************************************************************* //

