/*--------------------------------*- C++ -*----------------------------------*\
  =========                 |
  \\      /  F ield         | OpenFOAM: The Open Source CFD Toolbox
   \\    /   O peration     | Website:  https://openfoam.org
    \\  /    A nd           | Version:  6
     \\/     M anipulation  |
\*---------------------------------------------------------------------------*/
FoamFile
{
    version     2.0;
    format      ascii;
    class       volScalarField;
    location    "300";
    object      nut;
}
// * * * * * * * * * * * * * * * * * * * * * * * * * * * * * * * * * * * * * //

dimensions      [0 2 -1 0 0 0 0];

internalField   nonuniform List<scalar> 
459
(
0.000701428
0.000728256
0.00071042
0.000733813
0.000754409
0.000772016
0.000787287
0.000800951
0.00081379
0.000826491
0.000835632
0.000840201
0.000840002
0.000836454
0.000829944
0.000335225
0.000348302
0.0003626
0.000342956
0.000330407
0.000323736
0.000310075
0.000299359
0.000291849
0.000286616
0.000271644
0.000246645
0.00022217
0.000208156
0.000208457
0.000240935
0.000338483
0.000431963
0.000351083
0.00109744
0.00173098
0.00143797
0.00171516
0.0018412
0.00197299
0.00210351
0.00222177
0.00231189
0.00235784
0.00236548
0.00230816
0.00215025
0.00184375
0.00135284
0.000853301
0.000778567
0.000554101
0.000853624
0.00106901
0.00131575
0.00156199
0.00167546
0.00145558
0.00133569
0.00125915
0.00117603
0.00106595
0.00088988
0.000676852
0.000480812
0.000365398
0.000428382
0.000740976
0.00122885
0.00054211
0.0014661
0.00269995
0.00154053
0.00242744
0.00263528
0.00277101
0.00287676
0.00295788
0.00301708
0.00304954
0.00305498
0.00300528
0.00286572
0.00259296
0.00215132
0.00157912
0.000948037
0.000799965
0.00250248
0.00277525
0.00282365
0.00278482
0.0023401
0.000590853
0.000527486
0.000483501
0.000448656
0.000417536
0.00038854
0.000360381
0.000332899
0.000308869
0.000464105
0.000949941
0.0020216
0.000644976
0.00184629
0.0041692
0.00155206
0.00269583
0.00307535
0.00319694
0.00326718
0.00331446
0.00335142
0.00337889
0.00339696
0.00338742
0.00332365
0.00316872
0.00286274
0.00232707
0.00158329
0.00100097
0.00301636
0.00344485
0.00365286
0.00365529
0.00344935
0.00273998
0.000601753
0.000564833
0.000567013
0.000592156
0.000628921
0.000664284
0.000683057
0.000669337
0.000641168
0.00075649
0.00118936
0.00185854
0.000729257
0.00223141
0.00607364
0.00204402
0.00251867
0.00325263
0.00340705
0.00346041
0.00348547
0.00350679
0.0035344
0.00356897
0.00360493
0.00361607
0.0035799
0.00347921
0.00331533
0.00312717
0.00294813
0.00303011
0.00324224
0.00352845
0.00368353
0.00364273
0.00336138
0.00274728
0.00273636
0.00288041
0.00307198
0.0032556
0.00338348
0.00341163
0.00330058
0.00289479
0.00242342
0.0019862
0.00176583
0.0020792
0.00102681
0.000941058
0.000900346
0.00262149
0.00808254
0.00366593
0.00229391
0.00299037
0.00336326
0.00351106
0.00357057
0.00358039
0.00357458
0.00361765
0.00368537
0.00373356
0.00373553
0.00366154
0.00347567
0.00316086
0.0027674
0.00248999
0.00261933
0.00311718
0.00345844
0.00356527
0.00349636
0.00340156
0.00348332
0.00367164
0.00390069
0.00411544
0.00427014
0.00433339
0.0042886
0.00410259
0.00371932
0.00327079
0.00287312
0.00277271
0.00259152
0.00264607
0.0011751
0.00300405
0.00972607
0.00669474
0.00367057
0.0026502
0.00267059
0.00304787
0.00340569
0.00365878
0.00357518
0.00363212
0.00370409
0.0037556
0.00376837
0.00371441
0.00353694
0.0031859
0.00266931
0.00216286
0.00213044
0.00279457
0.00328221
0.00343792
0.00343527
0.00348353
0.00365884
0.00391239
0.00418303
0.0044236
0.0046046
0.00471718
0.00477548
0.00480891
0.00475664
0.00457378
0.00438852
0.00424185
0.00390078
0.00354892
0.00139057
0.00309823
0.00966615
0.0080695
0.00663945
0.004981
0.00383188
0.00337833
0.00338843
0.00360501
0.00365554
0.00367328
0.00369522
0.00371084
0.00369825
0.00362994
0.00346864
0.00316176
0.00266299
0.00203767
0.00180882
0.00257423
0.00320138
0.00336602
0.0033732
0.00346473
0.00367318
0.00393661
0.00419744
0.00441975
0.00458863
0.00471213
0.00482672
0.00499285
0.0052687
0.00561437
0.0058706
0.00583013
0.00502849
0.00466487
0.00149095
0.00303141
0.00365433
0.00425255
0.0045048
0.00447771
0.00419604
0.00389356
0.00369397
0.00360944
0.00357345
0.00358042
0.00359799
0.00359727
0.00355531
0.00345424
0.00327583
0.00298841
0.00253665
0.00190739
0.00155791
0.00233737
0.00311698
0.00328662
0.00329067
0.00337414
0.00356033
0.00378901
0.00400854
0.00418492
0.00429429
0.004317
0.00423975
0.00407072
0.00384582
0.00357783
0.00327038
0.00288118
0.00247389
0.00220166
0.00142264
0.00270617
0.00499965
0.00477945
0.00455709
0.004332
0.00414317
0.00400388
0.00388836
0.00377796
0.00366205
0.003528
0.00336575
0.00316896
0.00293154
0.00263439
0.00221815
0.00161684
0.00124206
0.00207621
0.00290784
0.00309224
0.00311352
0.00317458
0.00331857
0.0035154
0.00373257
0.00394473
0.00414195
0.00431543
0.00444002
0.00448638
0.0044178
0.00423029
0.00392467
0.00351459
0.00306801
0.00259571
0.0012948
0.00254259
0.00549818
0.00517186
0.00485165
0.00459101
0.00435237
0.00412174
0.0038996
0.00365112
0.00336719
0.00307248
0.00277923
0.00249275
0.00221257
0.00192622
0.00158878
0.00113382
0.00084442
0.00162888
0.00222328
0.00238551
0.00246596
0.00256365
0.0026837
0.00282768
0.00299796
0.00320193
0.00343708
0.00369051
0.00395012
0.0041874
0.00436186
0.00443999
0.00439159
0.00415232
0.00386458
0.00320523
0.0013253
0.00203008
0.00219591
0.00233976
0.00248732
0.00231667
0.00216019
0.00198214
0.00182759
0.00168228
0.0015447
0.00142189
0.00131448
0.00121442
0.00111738
0.0010209
0.00092365
0.000825031
0.000724286
0.000611882
0.000469173
0.000487481
0.000513168
0.00053672
0.00055725
0.000580178
0.000606979
0.000637281
0.000671789
0.000713025
0.000766078
0.000838722
0.000936693
0.00106353
0.00119861
0.00131785
0.00140255
0.00142775
0.00136887
0.00127617
0.00115997
)
;

boundaryField
{
    floor
    {
        type            nutkWallFunction;
        Cmu             0.09;
        kappa           0.41;
        E               9.8;
        value           nonuniform List<scalar> 
29
(
0.000100502
3.81662e-05
3.99173e-05
4.18226e-05
3.91974e-05
3.75117e-05
3.66131e-05
3.47623e-05
3.33032e-05
3.22772e-05
3.15577e-05
2.94931e-05
2.60146e-05
2.25663e-05
2.05725e-05
2.0619e-05
2.52283e-05
3.86013e-05
5.09053e-05
4.02651e-05
4.0265e-05
6.50478e-05
7.7881e-05
8.82812e-05
0.000100502
3.81662e-05
6.65978e-05
9.68944e-05
0.000120831
)
;
    }
    ceiling
    {
        type            nutkWallFunction;
        Cmu             0.09;
        kappa           0.41;
        E               9.8;
        value           nonuniform List<scalar> 
43
(
0.000236588
0.000254535
0.00026999
0.000285841
0.000267636
0.000250805
0.000231482
0.000214554
0.000198496
0.000183151
0.000169328
0.000157129
0.000145664
0.000134443
0.000123176
0.000111696
9.99089e-05
8.76953e-05
7.38177e-05
5.57568e-05
5.81226e-05
6.1403e-05
6.43928e-05
6.69874e-05
6.98719e-05
7.32271e-05
7.70003e-05
8.12717e-05
8.63415e-05
9.28116e-05
0.000101582
0.000113269
0.000128195
0.000143863
0.000157534
0.000167161
0.000170014
0.000163342
0.000152772
0.000139397
0.000343407
0.000407776
0.000291508
)
;
    }
    sWall
    {
        type            nutkWallFunction;
        Cmu             0.09;
        kappa           0.41;
        E               9.8;
        value           uniform 0.000236651;
    }
    nWall
    {
        type            nutkWallFunction;
        Cmu             0.09;
        kappa           0.41;
        E               9.8;
        value           nonuniform List<scalar> 6(0.000108923 0.00014115 0.000165793 0.000154915 0.000158398 0.000139407);
    }
    sideWalls
    {
        type            empty;
    }
    glass1
    {
        type            nutkWallFunction;
        Cmu             0.09;
        kappa           0.41;
        E               9.8;
        value           nonuniform List<scalar> 9(8.48633e-05 0.000132241 0.000174549 0.000216942 0.000258918 0.00030065 0.000340946 0.000350792 0.000343831);
    }
    glass2
    {
        type            nutkWallFunction;
        Cmu             0.09;
        kappa           0.41;
        E               9.8;
        value           nonuniform List<scalar> 2(0.000177169 0.000169469);
    }
    sun
    {
        type            nutkWallFunction;
        Cmu             0.09;
        kappa           0.41;
        E               9.8;
        value           nonuniform List<scalar> 
14
(
8.49e-05
8.81841e-05
8.60029e-05
8.88623e-05
9.13707e-05
9.35088e-05
9.53585e-05
9.70099e-05
9.85586e-05
0.000100088
0.000101187
0.000101735
0.000101711
0.000101285
)
;
    }
    heatsource1
    {
        type            nutkWallFunction;
        Cmu             0.09;
        kappa           0.41;
        E               9.8;
        value           nonuniform List<scalar> 3(0.000123882 0.000113781 0.000108918);
    }
    heatsource2
    {
        type            nutkWallFunction;
        Cmu             0.09;
        kappa           0.41;
        E               9.8;
        value           nonuniform List<scalar> 4(0.000103304 9.43033e-05 9.43033e-05 0.000114586);
    }
    Table_master
    {
        type            nutkWallFunction;
        Cmu             0.09;
        kappa           0.41;
        E               9.8;
        value           nonuniform List<scalar> 9(7.12084e-05 6.32225e-05 5.76097e-05 5.31179e-05 4.90694e-05 4.52631e-05 4.15323e-05 3.78555e-05 3.46092e-05);
    }
    Table_slave
    {
        type            nutkWallFunction;
        Cmu             0.09;
        kappa           0.41;
        E               9.8;
        value           nonuniform List<scalar> 9(7.25783e-05 6.79446e-05 6.82125e-05 7.13608e-05 7.59391e-05 8.0313e-05 8.26221e-05 8.09289e-05 7.74488e-05);
    }
    inlet
    {
        type            calculated;
        value           uniform 0.000100623;
    }
    outlet
    {
        type            calculated;
        value           nonuniform List<scalar> 2(0.00203008 0.00219591);
    }
}


// ************************************************************************* //
