/*--------------------------------*- C++ -*----------------------------------*\
  =========                 |
  \\      /  F ield         | OpenFOAM: The Open Source CFD Toolbox
   \\    /   O peration     | Website:  https://openfoam.org
    \\  /    A nd           | Version:  6
     \\/     M anipulation  |
\*---------------------------------------------------------------------------*/
FoamFile
{
    version     2.0;
    format      ascii;
    class       surfaceScalarField;
    location    "300";
    object      phi;
}
// * * * * * * * * * * * * * * * * * * * * * * * * * * * * * * * * * * * * * //

dimensions      [1 0 -1 0 0 0 0];

internalField   nonuniform List<scalar> 
852
(
-0.00261487
0.00267765
-0.00305639
0.000441594
-0.0035718
0.000515484
-0.00406911
0.000497384
-0.00450383
0.000434797
-0.0048559
0.000352138
-0.00510776
0.000251929
-0.00523945
0.000131757
-0.00522793
-1.14486e-05
-0.00504484
-0.000183022
-0.00466622
-0.000378548
-0.00407825
-0.000587909
-0.00324784
-0.00083034
-0.00201553
-0.00123225
-0.00201346
-0.000598437
0.0006035
-0.000612899
1.45094e-05
-0.00050873
-0.000104102
-0.000459697
-4.89279e-05
-0.00044966
-9.90779e-06
-0.000460921
1.13979e-05
-0.000487961
2.71785e-05
-0.0005128
2.49679e-05
-0.000512416
-2.67947e-07
-0.000480709
-3.15926e-05
-0.000421417
-5.91776e-05
-0.000349294
-7.20127e-05
-0.00027167
-7.75206e-05
-0.000180215
-9.13558e-05
-3.55587e-05
-0.000144547
0.000133399
-0.000168836
0.000360709
-0.000227167
0.000559883
-0.000199027
0.000565791
-0.00190226
0.0047461
-0.00259288
0.00113229
-0.00322863
0.00115131
-0.00375597
0.00102479
-0.00420292
0.000881823
-0.00456713
0.000716417
-0.00483628
0.00052115
-0.00499291
0.000288455
-0.0050168
1.25185e-05
-0.00489304
-0.000306719
-0.00461012
-0.000661401
-0.00416033
-0.00103763
-0.00354582
-0.00144479
-0.00288312
-0.00189488
-0.00271765
-0.00217886
-0.000908389
-0.00180925
-0.00090838
0.00108287
-0.00046949
0.0011326
-3.52048e-05
0.000908388
0.000120147
0.000783138
7.63823e-05
0.000751753
2.15612e-05
0.000750551
1.2707e-05
0.000686648
9.11983e-05
0.000615661
9.60777e-05
0.000545965
6.95642e-05
0.000474125
4.03923e-05
0.000408429
6.66583e-06
0.000363011
-2.64554e-05
0.000340407
-5.47895e-05
0.000340728
-9.15611e-05
0.000352622
-0.000156313
0.000360019
-0.000176079
0.000454866
-0.000321828
0.000516315
-0.000260278
0.00109525
-0.0014013
0.00639671
-0.00215978
0.00189085
-0.0027718
0.0017634
-0.00325387
0.00150694
-0.00366885
0.00129688
-0.00401729
0.00106493
-0.00428708
0.000791009
-0.00446077
0.000462221
-0.00451927
7.10856e-05
-0.00444619
-0.000379736
-0.00423747
-0.000870052
-0.00390737
-0.00136766
-0.00350305
-0.00184905
-0.00312534
-0.00227253
-0.0027823
-0.00252184
-0.00197768
-0.00261382
-0.002886
-0.000139526
-0.000318606
4.44473e-05
-0.000219133
0.000311719
-0.000147069
0.000528509
-0.000140334
0.000732369
-0.000182211
0.00101465
-0.000269469
0.0011061
0.00120244
0.00127227
0.00131293
0.00131986
0.00129369
0.00123918
0.00114793
0.000991961
0.000663041
0.000153068
0.000378231
-3.67395e-05
0.000165092
-4.68288e-05
0.00127971
-0.00104535
0.00775853
-0.00179193
0.0026375
-0.00223871
0.00221026
-0.00261357
0.00188187
-0.00295459
0.00163797
-0.00325503
0.00136544
-0.00350197
0.00103801
-0.00367746
0.000637788
-0.00375811
0.000151809
-0.00372101
-0.000416774
-0.00357088
-0.00102011
-0.00334882
-0.00158966
-0.00312199
-0.00207581
-0.00295488
-0.00243958
-0.00282864
-0.00264802
-0.00274148
-0.00270092
-0.00331682
-0.00231061
-0.00186444
-0.00144162
-0.00111253
-0.00107047
-0.000531546
-0.000800071
-8.58833e-05
-0.000592677
0.000224372
-0.000450528
0.00041917
-0.000376945
0.000473893
-0.000324127
0.000689191
-0.00021539
0.000877172
-0.000188078
0.00107271
-0.000195641
0.00129304
-0.000220435
0.00154191
-0.000248985
0.0017998
-0.000258006
0.00200975
-0.000210068
0.00206656
-5.69321e-05
0.00184136
0.00022508
0.00138012
0.000614404
0.000224633
0.00111891
-0.000894267
0.00107229
0.000409607
-0.000776024
0.00890627
-0.00146999
0.00333154
-0.00164673
0.00238708
-0.00187471
0.00210993
-0.00211023
0.00187357
-0.00232637
0.00158166
-0.00251069
0.00122241
-0.0026494
0.00077657
-0.00271794
0.000220422
-0.00268064
-0.000454004
-0.0025501
-0.00115058
-0.00238494
-0.00175475
-0.00224343
-0.00221724
-0.00215679
-0.00252615
-0.00211992
-0.00268481
-0.00214783
-0.00267295
-0.00208235
-0.00237603
-0.00158034
-0.00194357
-0.00103143
-0.00161933
-0.00054054
-0.00129091
-0.000185891
-0.000947276
5.71478e-05
-0.000693517
0.000207545
-0.000527294
0.000301284
-0.000417819
0.000421564
-0.000335628
0.000545633
-0.000312111
0.000687893
-0.00033787
0.000864111
-0.000396628
0.00108034
-0.0004652
0.00132855
-0.000506197
0.00158254
-0.00046405
0.00179423
-0.000268601
0.00190286
0.000116466
0.00190276
0.000614552
0.00193859
0.00108318
0.001887
0.00112398
0.00155812
0.000738517
0.00115144
0.000406515
0.000309284
0.000842002
0.000362491
-0.000697236
0.0100216
-0.0012925
0.00392688
-0.00104086
0.00213552
-0.00103651
0.00210565
-0.00116557
0.00200271
-0.00128571
0.00170187
-0.00137374
0.00131052
-0.0014316
0.000834498
-0.00143803
0.000226933
-0.00136011
-0.000531853
-0.00123639
-0.00127422
-0.00112656
-0.00186451
-0.00106835
-0.00227538
-0.00107411
-0.00252032
-0.00113746
-0.00262139
-0.0012289
-0.00258143
-0.00121214
-0.00239272
-0.0010101
-0.00214554
-0.000696309
-0.00193306
-0.00038534
-0.00160182
-0.000176384
-0.00115618
-4.84955e-05
-0.000821362
2.36277e-05
-0.000599378
6.34654e-05
-0.000457622
0.000104811
-0.000376944
0.000157917
-0.000365195
0.000235223
-0.000415161
0.000348818
-0.000510216
0.000506874
-0.000623257
0.000714111
-0.000713437
0.000974279
-0.000724222
0.00128809
-0.000582411
0.00163047
-0.000225901
0.00196186
0.000283186
0.0023233
0.000721791
0.00261052
0.000836795
0.00267364
0.000675413
0.0024386
0.000641562
0.0019411
0.0013395
0.00235647
-0.00092521
0.0114053
-0.00102358
0.00402532
-0.000166204
0.00127822
0.000109549
0.00182998
2.46406e-05
0.0020877
-5.9272e-05
0.00178586
-5.70134e-05
0.00130833
1.00203e-07
0.00077746
0.000119189
0.000107919
0.00026043
-0.000673021
0.000352664
-0.00136638
0.000367389
-0.00187916
0.000301394
-0.0022093
0.000165512
-0.00238436
-2.14045e-05
-0.0024344
-0.000218629
-0.00238413
-0.000352238
-0.00225903
-0.000378972
-0.00211872
-0.000300333
-0.00201163
-0.000181408
-0.00172069
-0.000128537
-0.00120901
-0.000131146
-0.000818715
-0.000160432
-0.000570061
-0.000203243
-0.000414787
-0.000242785
-0.000337387
-0.000270332
-0.000337641
-0.000278827
-0.000406669
-0.000261894
-0.000527159
-0.000212369
-0.000672795
-0.000118349
-0.00080747
4.17642e-05
-0.000884344
0.000300349
-0.000840998
0.000698738
-0.000624282
0.00119853
-0.00021659
0.0017075
0.000212859
0.00213103
0.000413298
0.00243348
0.000372976
0.00266661
0.000408455
0.00237558
0.00163055
0.00478619
0.00213619
0.00977945
0.0026044
0.00355718
0.00269693
0.00118577
0.00249402
0.00203296
0.00217482
0.00240696
0.00198216
0.0019786
0.00193944
0.00135113
0.00201346
0.000703517
0.00217037
-4.89206e-05
0.0022669
-0.000769476
0.00222129
-0.0013207
0.00204583
-0.00170363
0.00177837
-0.00194176
0.00145419
-0.0020601
0.0011034
-0.00208352
0.000757119
-0.00203776
0.000452532
-0.00195436
0.000220047
-0.00188615
8.70486e-05
-0.00187855
2.52025e-05
-0.00165878
-7.16164e-05
-0.00111215
-0.000201497
-0.000688802
-0.00033014
-0.000441394
-0.000454731
-0.000290182
-0.000572735
-0.00021938
-0.000685291
-0.000225091
-0.000795488
-0.000296486
-0.000906621
-0.000416044
-0.00101916
-0.000560278
-0.00112605
-0.000700589
-0.00120764
-0.000802765
-0.00122173
-0.000826908
-0.0011083
-0.000737707
-0.000808898
-0.000515968
-0.000420084
-0.000175922
-0.000180698
0.000173948
-0.000155378
0.000347695
-0.000162042
0.000415165
-0.000372281
0.00184079
0.00470557
0.0103383
0.013888
0.0121955
0.00287841
0.00991436
0.00431413
0.00823801
0.00408339
0.00709296
0.00312372
0.00632199
0.00212217
0.005823
0.00120259
0.00536718
0.000406968
0.00484773
-0.000249949
0.004293
-0.0007659
0.00372534
-0.0011359
0.00315674
-0.00137308
0.00259729
-0.00150057
0.00205739
-0.00154354
0.00154859
-0.00152888
0.00108544
-0.00149112
0.000688535
-0.00148915
0.000405544
-0.00159547
0.000212655
-0.00146583
-2.69773e-05
-0.000872474
-0.000261247
-0.000454505
-0.000458666
-0.000243957
-0.000633549
-0.000115293
-0.000801633
-5.13005e-05
-0.000977926
-4.88123e-05
-0.00117887
-9.55635e-05
-0.00142294
-0.000171999
-0.00173082
-0.000252418
-0.00212369
-0.000307738
-0.00261959
-0.000306889
-0.00322431
-0.000222192
-0.00392407
-3.79506e-05
-0.00469822
0.000258172
-0.00553725
0.000663108
-0.00649705
0.00113374
-0.00775597
0.00160661
-0.00920616
0.00186534
-0.00825736
0.000891959
-0.00323524
0.00336815
0.00383838
0.00414852
0.00353382
0.00538884
0.00284313
0.00580981
0.00270281
0.00585476
0.0020773
0.00577628
0.00128113
0.0055988
0.000584515
0.00529298
5.59516e-05
0.00485773
-0.000330579
0.00433088
-0.000608971
0.00375285
-0.000794967
0.0031555
-0.000903154
0.00256144
-0.000949393
0.00198473
-0.000952093
0.00143366
-0.000939963
0.000925881
-0.000981285
0.000552429
-0.00122194
0.000291832
-0.00120518
-5.39032e-05
-0.000526702
-0.000323748
-0.000184639
-0.00051793
-4.97623e-05
-0.000661717
2.84982e-05
-0.000783579
7.05541e-05
-0.000911237
7.88288e-05
-0.001064
5.7174e-05
-0.00125016
1.41272e-05
-0.00146943
-3.31777e-05
-0.00171757
-5.9632e-05
-0.00198608
-3.84063e-05
-0.00226699
5.86949e-05
-0.00256326
0.0002583
-0.00285683
0.000551724
-0.00310255
0.00090881
-0.00323554
0.00126672
-0.00312632
0.00149737
-0.00244518
0.00118418
-0.000965881
-0.000587361
-0.00412574
-0.000493308
0.00436747
0.00137715
0.00166341
0.00248477
0.00173557
0.00336458
0.00182306
0.00405953
0.00138242
0.00448275
0.000857983
0.00463595
0.000431386
0.00456995
0.000122028
0.00433701
-9.75647e-05
0.00397805
-0.000249939
0.00353405
-0.000350895
0.00304058
-0.000409608
0.00252434
-0.00043307
0.0020016
-0.000429274
0.00147665
-0.000414931
0.000948996
-0.000453552
0.000469877
-0.000742745
3.06212e-05
-0.000765885
-0.000296543
-0.00019951
-0.000472696
-8.46871e-06
-0.000578592
5.61445e-05
-0.000630619
8.05302e-05
-0.000652299
9.22316e-05
-0.000670014
9.65341e-05
-0.00070101
8.8152e-05
-0.00075537
6.84627e-05
-0.000831528
4.2948e-05
-0.000915824
2.46275e-05
-0.000992696
3.8428e-05
-0.00104331
0.000109275
-0.00103832
0.000253277
-0.000936329
0.000449699
-0.000688666
0.00066112
-0.000237784
0.000815811
0.000468613
0.000790946
0.00133947
0.000313298
0.00148404
-0.000731975
-0.00255943
-0.0066839
-0.00878685
-0.00439123
-0.00271578
-0.000972481
0.000855473
0.00224142
0.00310239
0.00353657
0.00366137
0.00356664
0.00331961
0.00297172
0.00256525
0.0021355
0.00170983
0.00129888
0.000849901
0.000112441
-0.000648219
-0.000842871
-0.000846786
-0.000786348
-0.000701754
-0.000605667
-0.000505465
-0.000413807
-0.000341979
-0.000295786
-0.000268014
-0.000226525
-0.000114249
0.000141986
0.000594582
0.00125852
0.00207707
0.00287069
0.00318666
0.00245735
)
;

boundaryField
{
    floor
    {
        type            calculated;
        value           nonuniform List<scalar> 
29
(
0
0
0
0
0
0
0
0
0
0
0
0
0
0
0
0
0
0
0
0
-5.78093e-06
-1.3006e-05
-1.91784e-05
-2.40406e-05
-2.00613e-06
-5.00831e-06
-9.87284e-06
-1.13213e-05
-1.07052e-05
)
;
    }
    ceiling
    {
        type            calculated;
        value           nonuniform List<scalar> 
43
(
-3.08734e-05
-2.95573e-05
-2.81068e-05
-1.19743e-05
-7.67003e-06
-4.82908e-06
-3.46122e-06
-2.9237e-06
-2.71662e-06
-2.70403e-06
-2.76342e-06
-2.83402e-06
-2.92959e-06
-3.06354e-06
-3.25304e-06
-3.52343e-06
-3.91636e-06
-4.49571e-06
-5.2321e-06
-5.21031e-06
-4.84036e-06
-4.54099e-06
-4.28376e-06
-4.05659e-06
-3.85136e-06
-3.66825e-06
-3.50917e-06
-3.37319e-06
-3.25812e-06
-3.16313e-06
-3.08866e-06
-3.03571e-06
-3.00091e-06
-2.94358e-06
-2.86195e-06
-2.77912e-06
-2.71739e-06
-2.71385e-06
-2.7158e-06
-2.16136e-06
1.07622e-05
7.54801e-06
-3.57773e-05
)
;
    }
    sWall
    {
        type            calculated;
        value           uniform -0.000233765;
    }
    nWall
    {
        type            calculated;
        value           nonuniform List<scalar> 6(-5.32636e-05 -5.28029e-05 -5.40791e-05 -7.54348e-05 -8.23191e-05 -9.99658e-05);
    }
    sideWalls
    {
        type            empty;
        value           nonuniform 0();
    }
    glass1
    {
        type            calculated;
        value           nonuniform List<scalar> 9(-6.26997e-05 -0.000166115 -0.000249237 -0.000316399 -0.000371638 -0.000417982 -0.00045845 -0.000510288 -0.000569591);
    }
    glass2
    {
        type            calculated;
        value           nonuniform List<scalar> 2(-0.000291589 -0.000316585);
    }
    sun
    {
        type            calculated;
        value           uniform 0;
    }
    heatsource1
    {
        type            calculated;
        value           nonuniform List<scalar> 3(2.05043e-07 2.05232e-07 2.05552e-07);
    }
    heatsource2
    {
        type            calculated;
        value           nonuniform List<scalar> 4(5.09573e-08 5.11805e-08 0 0);
    }
    Table_master
    {
        type            calculated;
        value           nonuniform List<scalar> 9(-1.53815e-07 -1.53898e-07 -1.53946e-07 -1.53995e-07 -1.54046e-07 -1.54099e-07 -1.5416e-07 -1.54232e-07 -1.54322e-07);
    }
    Table_slave
    {
        type            calculated;
        value           nonuniform List<scalar> 9(1.53689e-07 1.53658e-07 1.53579e-07 1.53488e-07 1.53388e-07 1.53288e-07 1.53211e-07 1.53195e-07 1.53207e-07);
    }
    inlet
    {
        type            calculated;
        value           uniform -0.00432812;
    }
    outlet
    {
        type            calculated;
        value           nonuniform List<scalar> 2(0.00694858 0.00213254);
    }
}


// ************************************************************************* //
