/*--------------------------------*- C++ -*----------------------------------*\
  =========                 |
  \\      /  F ield         | OpenFOAM: The Open Source CFD Toolbox
   \\    /   O peration     | Website:  https://openfoam.org
    \\  /    A nd           | Version:  6
     \\/     M anipulation  |
\*---------------------------------------------------------------------------*/
FoamFile
{
    version     2.0;
    format      ascii;
    class       volScalarField;
    location    "460";
    object      alphat;
}
// * * * * * * * * * * * * * * * * * * * * * * * * * * * * * * * * * * * * * //

dimensions      [1 -1 -1 0 0 0 0];

internalField   nonuniform List<scalar> 
459
(
0.000945802
0.00104975
0.00109462
0.00115679
0.00121696
0.00127911
0.00134064
0.00139115
0.00142297
0.00142689
0.0013904
0.0012664
0.00113744
0.000989399
0.000854752
0.00051413
0.000701484
0.000788146
0.000806779
0.000804844
0.000785855
0.00074429
0.00069859
0.000656086
0.000617927
0.000583793
0.000553489
0.000526262
0.000501292
0.000477616
0.000453891
0.000427871
0.000388526
0.000344175
0.00120786
0.00303725
0.00299388
0.00348317
0.00399653
0.00444827
0.00482536
0.00520721
0.00556923
0.00586745
0.00604041
0.00594673
0.00551234
0.0045451
0.00298224
0.00103054
0.000835069
0.000770837
0.00259148
0.0027367
0.00313739
0.00338047
0.00325232
0.0023266
0.00194686
0.00170089
0.00152118
0.00138286
0.00126589
0.00116014
0.00105839
0.000955855
0.000864561
0.00080493
0.000652655
0.000408899
0.001426
0.00411944
0.00376342
0.00431554
0.00462578
0.00486179
0.00509783
0.00541827
0.0058509
0.00635977
0.00684753
0.00708264
0.00697745
0.00649714
0.00530063
0.00333706
0.000998512
0.00086302
0.00224393
0.0031517
0.003926
0.00437736
0.00397443
0.00100205
0.000877718
0.000778298
0.000699243
0.000635946
0.000584953
0.000543848
0.000511217
0.000487288
0.000553733
0.000676052
0.000696886
0.000443279
0.00163306
0.00498988
0.00382947
0.00439882
0.00445354
0.00448242
0.00459974
0.00486176
0.00535343
0.00601486
0.00669508
0.00710894
0.00725166
0.00710897
0.00649821
0.00518562
0.00273027
0.00113285
0.00168832
0.00270009
0.00393153
0.00492516
0.00543117
0.00483847
0.00110085
0.00100476
0.000939348
0.00089176
0.000853178
0.000816487
0.000780196
0.000742015
0.000696988
0.000656159
0.000677789
0.000770725
0.000495367
0.00184575
0.0060739
0.00396828
0.00433903
0.00430019
0.00421908
0.00425953
0.00447276
0.0050202
0.00577175
0.00648332
0.00696653
0.00718335
0.00718721
0.00695386
0.00634393
0.00525593
0.00477914
0.00529107
0.00596239
0.00653325
0.00686778
0.00691974
0.00656561
0.00532242
0.00477255
0.00448833
0.0043049
0.00414013
0.00393768
0.00358971
0.00309686
0.00249246
0.00187122
0.00139259
0.00119088
0.000818116
0.000571193
0.000579326
0.000596448
0.00207705
0.00735302
0.00494992
0.00442609
0.00451079
0.00428254
0.00420348
0.00437637
0.00492671
0.0057244
0.00648419
0.00697996
0.00718323
0.00722411
0.00723798
0.00721676
0.00715179
0.00744717
0.0078889
0.0081704
0.00823519
0.00808879
0.00777272
0.00732479
0.00676289
0.00634286
0.00604697
0.00581054
0.00558366
0.00532664
0.00499076
0.00451182
0.00389198
0.0031713
0.0024726
0.00197954
0.00151528
0.00119227
0.00133282
0.000804727
0.00229866
0.00832776
0.00672425
0.00530978
0.00506119
0.00458443
0.00428886
0.00442559
0.00503927
0.00592265
0.00673608
0.00723239
0.00741856
0.00751442
0.00776344
0.00812714
0.00849028
0.00889462
0.00912546
0.00907532
0.00878414
0.00831644
0.00775298
0.00718033
0.00668033
0.00631939
0.00606196
0.00584931
0.00563736
0.00539741
0.00512382
0.00482932
0.00443742
0.00391898
0.00333078
0.00279254
0.00227534
0.00186158
0.00175901
0.000964677
0.00235528
0.00765282
0.00667683
0.00600843
0.00527017
0.00452416
0.00421762
0.00452653
0.00536224
0.00639622
0.00724839
0.00770959
0.00789284
0.00806976
0.00839674
0.00866667
0.00892975
0.00912921
0.00910585
0.00879012
0.00825803
0.0076097
0.0069547
0.00638866
0.00596398
0.00567156
0.00545766
0.00527294
0.00508242
0.00486571
0.00463775
0.00445363
0.00435052
0.0041609
0.00386331
0.0035737
0.00327958
0.00281308
0.00302283
0.0012811
0.00231173
0.00275271
0.00299981
0.00302136
0.00300876
0.00314675
0.00370937
0.00476806
0.00608512
0.00725348
0.00799391
0.00827404
0.00841827
0.00832593
0.00820961
0.00820508
0.00825908
0.0082321
0.00802245
0.00761918
0.00707782
0.0065135
0.00601563
0.00562358
0.00532556
0.00508603
0.00486947
0.004652
0.00441169
0.00411999
0.00377155
0.00341553
0.00310956
0.00287522
0.00267373
0.00248349
0.0023053
0.00214066
0.00202168
0.00132376
0.000829722
0.00143628
0.0023279
0.00369683
0.0053278
0.00685718
0.00796472
0.00849194
0.00861039
0.00827682
0.00785178
0.00752802
0.00735903
0.00728373
0.00721504
0.00708208
0.00686891
0.00660732
0.00633501
0.00607305
0.00584051
0.00563131
0.00542445
0.00519543
0.00492424
0.00460305
0.00424019
0.00385545
0.00346363
0.00308876
0.00278929
0.00257472
0.0024324
0.00233268
0.00223388
0.0021012
0.00195651
0.00137113
0.0013909
0.00444632
0.00655636
0.00795397
0.008759
0.00910537
0.00905478
0.0086548
0.00803764
0.00746433
0.00706896
0.00685875
0.00676502
0.00672658
0.00670478
0.00668046
0.00664832
0.00661211
0.00657614
0.00653773
0.00648912
0.00642084
0.00633985
0.00622938
0.00605958
0.00580095
0.00543961
0.00500594
0.0045292
0.00403843
0.00358488
0.00319874
0.00289888
0.00267633
0.00249618
0.00234862
0.00290488
0.00148179
0.00165716
0.00174737
0.00183165
0.00214449
0.00213567
0.00205285
0.001992
0.00194152
0.00186994
0.00178125
0.00169411
0.00163084
0.00159511
0.00157836
0.00157281
0.00157283
0.00157431
0.00157465
0.00157294
0.0015694
0.00156455
0.00155899
0.00155269
0.00154586
0.0015345
0.0015157
0.00148762
0.00145107
0.00141094
0.00136929
0.00133077
0.00130028
0.00127942
0.00126995
0.00127196
0.00128252
0.00129237
0.00127516
0.001247
0.00121139
)
;

boundaryField
{
    floor
    {
        type            compressible::alphatWallFunction;
        Prt             0.85;
        value           nonuniform List<scalar> 
29
(
0.000121876
7.16008e-05
9.96355e-05
0.000112281
0.000114978
0.0001147
0.000111952
0.000105908
9.92154e-05
9.29432e-05
8.72695e-05
8.21576e-05
7.75883e-05
7.34562e-05
6.96431e-05
6.60054e-05
6.23371e-05
5.82856e-05
5.20981e-05
4.50237e-05
4.50231e-05
5.53114e-05
6.06887e-05
6.87363e-05
0.000121875
7.15999e-05
0.000109766
0.000123064
0.000161098
)
;
    }
    ceiling
    {
        type            compressible::alphatWallFunction;
        Prt             0.85;
        value           nonuniform List<scalar> 
43
(
0.000232206
0.000244168
0.000255283
0.000296097
0.000294971
0.000284243
0.000276332
0.000269746
0.000260372
0.000248703
0.000237175
0.000228765
0.000224
0.000221762
0.000221021
0.000221024
0.000221222
0.000221268
0.000221039
0.000220566
0.000219916
0.000219171
0.000218328
0.000217412
0.000215889
0.000213365
0.000209589
0.000204662
0.000199238
0.000193588
0.000188346
0.000184183
0.00018133
0.000180031
0.000180307
0.000181752
0.0001831
0.000180744
0.000176883
0.000171988
0.000317678
0.000373702
0.000196416
)
;
    }
    sWall
    {
        type            compressible::alphatWallFunction;
        Prt             0.85;
        value           uniform 0.000231717;
    }
    nWall
    {
        type            compressible::alphatWallFunction;
        Prt             0.85;
        value           nonuniform List<scalar> 6(8.37529e-05 0.000114358 0.00013721 0.000193484 0.000208447 0.000171639);
    }
    sideWalls
    {
        type            empty;
    }
    glass1
    {
        type            compressible::alphatWallFunction;
        Prt             0.85;
        value           nonuniform List<scalar> 9(0.000133458 0.00016986 0.000199491 0.000227163 0.000255201 0.000285304 0.000313816 0.000321085 0.000315572);
    }
    glass2
    {
        type            compressible::alphatWallFunction;
        Prt             0.85;
        value           nonuniform List<scalar> 2(0.000180396 0.00018624);
    }
    sun
    {
        type            compressible::alphatWallFunction;
        Prt             0.85;
        value           nonuniform List<scalar> 
14
(
0.000134865
0.000149508
0.000155778
0.000164416
0.000172726
0.00018126
0.000189663
0.000196527
0.000200838
0.000201367
0.000196423
0.000179518
0.000161734
0.000141027
)
;
    }
    heatsource1
    {
        type            compressible::alphatWallFunction;
        Prt             0.85;
        value           nonuniform List<scalar> 3(8.01605e-05 8.13847e-05 8.39547e-05);
    }
    heatsource2
    {
        type            compressible::alphatWallFunction;
        Prt             0.85;
        value           nonuniform List<scalar> 4(0.000146714 0.000118951 0.00011895 0.000142209);
    }
    Table_master
    {
        type            compressible::alphatWallFunction;
        Prt             0.85;
        value           nonuniform List<scalar> 9(0.000142708 0.000125067 0.000110748 9.92053e-05 8.98495e-05 8.22295e-05 7.60272e-05 7.1062e-05 6.73957e-05);
    }
    Table_slave
    {
        type            compressible::alphatWallFunction;
        Prt             0.85;
        value           nonuniform List<scalar> 9(0.000156548 0.000143093 0.000133848 0.000127076 0.000121553 0.000116274 0.000111024 0.00010547 9.88748e-05);
    }
    inlet
    {
        type            fixedValue;
        value           uniform 1.94e-05;
    }
    outlet
    {
        type            zeroGradient;
    }
}


// ************************************************************************* //
