// -*- C++ -*-
// File generated by PyFoam - sorry for the ugliness

FoamFile
{
 version 2.0;
 format ascii;
 class volVectorField;
 location "200";
 object U;
}

dimensions [ 0 1 -1 0 0 0 0 ];

internalField nonuniform List<vector> 459
(
  (0.342749 -0.138814 0)
  (0.254028 -0.145379 0)
  (0.387623 -0.0983863 0)
  (0.491739 -0.0647431 0)
  (0.540659 -0.045235 0)
  (0.559981 -0.0323873 0)
  (0.567439 -0.0224677 0)
  (0.566183 -0.0140265 0)
  (0.555298 -0.00615314 0)
  (0.534178 0.00187727 0)
  (0.501764 0.0108933 0)
  (0.455899 0.0221832 0)
  (0.392185 0.0387328 0)
  (0.297432 0.0709528 0)
  (0.222475 0.158938 0)
  (-0.0317722 0.00657131 0)
  (-0.0123837 0.0111999 0)
  (-0.0307951 0.00736615 0)
  (-0.0402995 0.00446471 0)
  (-0.0468786 0.00212319 0)
  (-0.0503198 5.20684e-05 0)
  (-0.0508341 -0.00157029 0)
  (-0.0497938 -0.00219037 0)
  (-0.0480048 -0.00280358 0)
  (-0.0445959 -0.00381913 0)
  (-0.0390771 -0.00495993 0)
  (-0.0327407 -0.00494541 0)
  (-0.027091 -0.00379109 0)
  (-0.0232674 -0.00241725 0)
  (-0.0207631 -0.000994807 0)
  (-0.0196503 -0.000365101 0)
  (-0.0219725 -0.00101919 0)
  (-0.0207742 -0.00259719 0)
  (0.0307181 -0.0114827 0)
  (0.463061 -0.314945 0)
  (0.209937 -0.249289 0)
  (0.325227 -0.139881 0)
  (0.407502 -0.072968 0)
  (0.439233 -0.0386388 0)
  (0.45174 -0.0169422 0)
  (0.4587 0.000631243 0)
  (0.460091 0.0160457 0)
  (0.453151 0.0301903 0)
  (0.437352 0.0445383 0)
  (0.412125 0.0605483 0)
  (0.376973 0.0799539 0)
  (0.33291 0.105538 0)
  (0.283408 0.142799 0)
  (0.255851 0.209254 0)
  (0.229853 0.183095 0)
  (0.122475 0.136188 0)
  (-0.0551892 0.0151159 0)
  (-0.00480712 0.0183924 0)
  (-0.0168476 0.0150237 0)
  (-0.0196321 0.011221 0)
  (-0.0210235 0.00783857 0)
  (-0.0220848 0.0046587 0)
  (-0.025476 0.00125178 0)
  (-0.0280453 -0.000866975 0)
  (-0.0284836 -0.00268042 0)
  (-0.0274151 -0.00520897 0)
  (-0.024756 -0.00834916 0)
  (-0.0231915 -0.00785915 0)
  (-0.0216205 -0.00460852 0)
  (-0.0220186 -0.00106383 0)
  (-0.0230189 0.000979112 0)
  (-0.0212296 -0.00280316 0)
  (-0.0194322 -0.00656209 0)
  (-0.0245394 -0.00784059 0)
  (0.0629667 -0.0162187 0)
  (0.50978 -0.489377 0)
  (0.0788985 -0.33794 0)
  (0.220812 -0.184877 0)
  (0.283855 -0.105199 0)
  (0.297962 -0.066251 0)
  (0.30568 -0.040008 0)
  (0.313466 -0.0177439 0)
  (0.319894 0.00375973 0)
  (0.320299 0.0262041 0)
  (0.314146 0.0504533 0)
  (0.301068 0.0773191 0)
  (0.281062 0.107617 0)
  (0.255384 0.14224 0)
  (0.224971 0.181561 0)
  (0.200473 0.225309 0)
  (0.162114 0.197477 0)
  (0.102167 0.178108 0)
  (-0.0710826 0.0285204 0)
  (-0.0102804 0.0197026 0)
  (-0.0163252 0.0152911 0)
  (-0.013209 0.0102751 0)
  (-0.00803431 0.00513068 0)
  (-0.000938608 -0.00137111 0)
  (0.00848167 -0.00442247 0)
  (0.0109682 -0.00548787 0)
  (0.00839804 -0.00628654 0)
  (0.00592756 -0.00821939 0)
  (-0.00287903 -0.0135476 0)
  (-0.0141344 -0.0123353 0)
  (-0.0208184 -0.00921321 0)
  (-0.0267364 -0.00769382 0)
  (-0.0273858 -0.00923177 0)
  (-0.0100604 -0.017035 0)
  (-0.00433111 -0.0148266 0)
  (-0.0154386 -0.0135462 0)
  (0.0832864 -0.0133453 0)
  (0.530554 -0.601399 0)
  (-0.0524003 -0.384054 0)
  (0.141452 -0.207025 0)
  (0.175037 -0.119455 0)
  (0.167394 -0.076833 0)
  (0.171852 -0.0464173 0)
  (0.180116 -0.0210251 0)
  (0.18922 0.00383127 0)
  (0.194862 0.0302277 0)
  (0.195832 0.0591163 0)
  (0.191863 0.0910963 0)
  (0.18276 0.126311 0)
  (0.1689 0.164454 0)
  (0.149476 0.204364 0)
  (0.132404 0.244424 0)
  (0.108331 0.241894 0)
  (0.0883035 0.233483 0)
  (0.0173702 0.118349 0)
  (-0.0678253 0.0269543 0)
  (-0.0245521 0.0143966 0)
  (-0.0228305 0.0102408 0)
  (-0.0169658 0.00458005 0)
  (-0.0107826 -0.00216872 0)
  (-0.00560436 -0.00829236 0)
  (-0.000764019 -0.0106222 0)
  (0.00737168 -0.009214 0)
  (0.0134302 -0.00756877 0)
  (0.0175988 -0.00570674 0)
  (0.0186696 -0.00310377 0)
  (0.0161054 -0.000921717 0)
  (0.0124004 -0.00248768 0)
  (0.0136887 -0.00615582 0)
  (0.0209346 -0.00915688 0)
  (0.0195244 -0.0190523 0)
  (0.0154824 -0.0187975 0)
  (0.00531855 -0.0164022 0)
  (0.0937953 -0.00332957 0)
  (0.52228 -0.661998 0)
  (-0.14526 -0.412696 0)
  (0.0894124 -0.221732 0)
  (0.0833502 -0.117289 0)
  (0.0523159 -0.0797763 0)
  (0.0616034 -0.0527282 0)
  (0.0717392 -0.0291391 0)
  (0.0789025 -0.00376558 0)
  (0.0877966 0.0256694 0)
  (0.0920161 0.0585613 0)
  (0.0928067 0.0949495 0)
  (0.0900705 0.134313 0)
  (0.0841316 0.175884 0)
  (0.0740019 0.218477 0)
  (0.0667248 0.260552 0)
  (0.0520549 0.270674 0)
  (0.0452587 0.261823 0)
  (0.00113438 0.139256 0)
  (-0.0302789 0.0301645 0)
  (-0.0221619 0.0113903 0)
  (-0.0245075 0.00509135 0)
  (-0.019869 -0.00215456 0)
  (-0.0130228 -0.00892503 0)
  (-0.00654741 -0.0129504 0)
  (-0.000396589 -0.0120019 0)
  (0.00551638 -0.00956137 0)
  (0.0101746 -0.00655383 0)
  (0.0137503 -0.00307469 0)
  (0.0166072 0.000520476 0)
  (0.0188335 0.00255607 0)
  (0.0209135 0.00126169 0)
  (0.0222876 -0.00249193 0)
  (0.0223542 -0.00703922 0)
  (0.0201191 -0.0139201 0)
  (0.0157946 -0.016849 0)
  (0.00895945 -0.0171946 0)
  (0.0239362 -0.00509675 0)
  (0.0310189 -0.0100208 0)
  (0.058107 -0.00969925 0)
  (-0.0586389 0.0141631 0)
  (0.473655 -0.674003 0)
  (-0.187117 -0.423268 0)
  (0.033406 -0.215019 0)
  (0.000707235 -0.0864785 0)
  (-0.0414437 -0.0798606 0)
  (-0.0261753 -0.060837 0)
  (-0.0182639 -0.0388408 0)
  (-0.012129 -0.012764 0)
  (-0.00473492 0.0185384 0)
  (-0.00127064 0.0545079 0)
  (0.00181309 0.0943179 0)
  (0.00338482 0.13629 0)
  (0.00383474 0.180274 0)
  (0.00165001 0.225043 0)
  (0.00399276 0.268433 0)
  (-0.0027314 0.282553 0)
  (0.00325192 0.271731 0)
  (-0.0192615 0.151862 0)
  (-0.0231855 0.0455405 0)
  (-0.0229849 0.0160023 0)
  (-0.0250915 0.00260184 0)
  (-0.0204669 -0.00849784 0)
  (-0.0135408 -0.0163631 0)
  (-0.00675542 -0.0195294 0)
  (-0.000696776 -0.0180321 0)
  (0.00429814 -0.0146887 0)
  (0.00821347 -0.0108815 0)
  (0.0113824 -0.00695629 0)
  (0.0142642 -0.00332939 0)
  (0.0168848 -0.00110872 0)
  (0.0185133 -0.00130236 0)
  (0.0182845 -0.00313566 0)
  (0.0158914 -0.00585034 0)
  (0.0106668 -0.00949967 0)
  (0.00183882 -0.0116196 0)
  (-0.00994947 -0.0125861 0)
  (-0.0138816 -0.0129102 0)
  (-0.00989265 -0.0179051 0)
  (0.0264048 5.07097e-05 0)
  (-0.140196 0.0611072 0)
  (0.367554 -0.61775 0)
  (-0.192872 -0.389265 0)
  (-0.0746327 -0.187935 0)
  (-0.0753984 -0.0580895 0)
  (-0.129769 -0.079205 0)
  (-0.114504 -0.0674138 0)
  (-0.107437 -0.0455977 0)
  (-0.100934 -0.0175248 0)
  (-0.0942782 0.0151854 0)
  (-0.0897279 0.0515649 0)
  (-0.0841712 0.0911622 0)
  (-0.0780951 0.133371 0)
  (-0.0713296 0.177681 0)
  (-0.0644971 0.222497 0)
  (-0.053048 0.263583 0)
  (-0.0474067 0.279718 0)
  (-0.0299093 0.265302 0)
  (-0.0334816 0.152468 0)
  (-0.0259191 0.0536675 0)
  (-0.0258181 0.018621 0)
  (-0.0243562 -0.000884737 0)
  (-0.0183913 -0.0152382 0)
  (-0.0117668 -0.0235844 0)
  (-0.00566163 -0.0258891 0)
  (-0.000353269 -0.0234736 0)
  (0.0038644 -0.0190038 0)
  (0.00701121 -0.0142155 0)
  (0.00935542 -0.0097219 0)
  (0.0112253 -0.0058153 0)
  (0.0124778 -0.00286261 0)
  (0.0122044 -0.000957584 0)
  (0.00939788 0.000526816 0)
  (0.00297083 0.00221596 0)
  (-0.0108895 0.00360343 0)
  (-0.0298146 0.00413613 0)
  (-0.0496785 0.0030852 0)
  (-0.0636367 0.000324901 0)
  (-0.0693557 -0.00214844 0)
  (-0.0835829 0.0011004 0)
  (-0.162539 0.0116539 0)
  (0.206911 -0.482188 0)
  (-0.298541 -0.308475 0)
  (-0.286193 -0.179159 0)
  (-0.172117 -0.0407186 0)
  (-0.238483 -0.0927388 0)
  (-0.207192 -0.0815106 0)
  (-0.194879 -0.0560389 0)
  (-0.186327 -0.0246448 0)
  (-0.178549 0.0100788 0)
  (-0.17167 0.0462722 0)
  (-0.163021 0.0844374 0)
  (-0.151869 0.124899 0)
  (-0.137819 0.167285 0)
  (-0.120754 0.209858 0)
  (-0.0987957 0.247567 0)
  (-0.0787016 0.26392 0)
  (-0.0508754 0.246132 0)
  (-0.0389685 0.141431 0)
  (-0.0250923 0.0533527 0)
  (-0.022738 0.0172481 0)
  (-0.0171554 -0.00530404 0)
  (-0.0106697 -0.0203803 0)
  (-0.00564602 -0.027896 0)
  (-0.0017829 -0.0290517 0)
  (0.00138629 -0.025645 0)
  (0.00396206 -0.0202083 0)
  (0.00587174 -0.0145593 0)
  (0.00714943 -0.00951607 0)
  (0.00795543 -0.00517969 0)
  (0.00817114 -0.00135506 0)
  (0.00729537 0.00234308 0)
  (0.00500946 0.00652834 0)
  (0.00114397 0.0116985 0)
  (-0.00555619 0.0168278 0)
  (-0.01538 0.0200103 0)
  (-0.0287146 0.0196266 0)
  (-0.0425336 0.0114586 0)
  (-0.05597 -0.0104156 0)
  (-0.0845673 -0.0454385 0)
  (-0.198857 -0.0973661 0)
  (-0.0297337 -0.346069 0)
  (-0.606525 -0.307711 0)
  (-0.79972 -0.299482 0)
  (-0.219667 -0.158461 0)
  (-0.330785 -0.134829 0)
  (-0.278281 -0.101355 0)
  (-0.263544 -0.0670114 0)
  (-0.25662 -0.0343938 0)
  (-0.251006 -0.00131506 0)
  (-0.242915 0.0345757 0)
  (-0.2311 0.0710492 0)
  (-0.214326 0.108607 0)
  (-0.192025 0.147258 0)
  (-0.163871 0.185623 0)
  (-0.129819 0.219037 0)
  (-0.0948665 0.234551 0)
  (-0.0570666 0.216461 0)
  (-0.0319823 0.123441 0)
  (-0.0116183 0.0484549 0)
  (-0.00616183 0.0148656 0)
  (0.00258836 -0.0078906 0)
  (0.00632307 -0.0214206 0)
  (0.00701792 -0.0277226 0)
  (0.0061996 -0.0285589 0)
  (0.00514823 -0.025221 0)
  (0.00452516 -0.0195293 0)
  (0.00425707 -0.0133459 0)
  (0.0041455 -0.00772033 0)
  (0.00412979 -0.0027661 0)
  (0.00411262 0.00186263 0)
  (0.00396837 0.00630886 0)
  (0.00368718 0.0113626 0)
  (0.00349613 0.0172655 0)
  (0.00349745 0.0231748 0)
  (0.00381504 0.0278726 0)
  (0.00435939 0.0310181 0)
  (0.00649 0.0323375 0)
  (0.0116828 0.0289637 0)
  (0.0186451 0.000106561 0)
  (-0.120591 -0.0973745 0)
  (-1.70836 -0.323349 0)
  (-0.102376 -0.277013 0)
  (-0.320312 -0.173215 0)
  (-0.304482 -0.108395 0)
  (-0.306554 -0.055527 0)
  (-0.307684 -0.0115161 0)
  (-0.304962 0.0235196 0)
  (-0.296642 0.0483596 0)
  (-0.28276 0.0724322 0)
  (-0.26126 0.0982306 0)
  (-0.231182 0.125802 0)
  (-0.192245 0.154087 0)
  (-0.145478 0.179441 0)
  (-0.0956168 0.192255 0)
  (-0.0461412 0.177702 0)
  (-0.00475484 0.0967603 0)
  (0.0226699 0.038667 0)
  (0.0318756 0.010842 0)
  (0.0364092 -0.0139628 0)
  (0.0328239 -0.0276017 0)
  (0.0259351 -0.034386 0)
  (0.0183386 -0.036719 0)
  (0.0116391 -0.0352664 0)
  (0.00668784 -0.0308774 0)
  (0.00345529 -0.0250074 0)
  (0.00148702 -0.0189018 0)
  (0.000421885 -0.0129702 0)
  (0.000183464 -0.00697535 0)
  (0.000974145 -0.00115252 0)
  (0.00270539 0.00462617 0)
  (0.00559569 0.010883 0)
  (0.0100969 0.0170149 0)
  (0.0163443 0.0219194 0)
  (0.0241631 0.0246805 0)
  (0.0334158 0.024187 0)
  (0.0420564 0.0181776 0)
  (0.0442087 -0.00343085 0)
  (0.00131407 -0.0847508 0)
  (-0.240407 0.0147154 0)
  (-0.03271 -0.247567 0)
  (-0.230177 -0.184526 0)
  (-0.285001 -0.161496 0)
  (-0.323716 -0.145797 0)
  (-0.345262 -0.128223 0)
  (-0.352132 -0.104033 0)
  (-0.345995 -0.0696098 0)
  (-0.329649 -0.0351162 0)
  (-0.302625 -0.00392949 0)
  (-0.264052 0.0259568 0)
  (-0.213705 0.0552077 0)
  (-0.153157 0.0821612 0)
  (-0.0871863 0.0996215 0)
  (-0.0182085 0.0893933 0)
  (0.0451138 0.00190379 0)
  (0.0728678 -0.0570029 0)
  (0.0799426 -0.0953694 0)
  (0.0723224 -0.103998 0)
  (0.0583625 -0.0990049 0)
  (0.0442693 -0.091611 0)
  (0.0320779 -0.0857505 0)
  (0.0219487 -0.0817852 0)
  (0.0140514 -0.0791198 0)
  (0.00841215 -0.0772953 0)
  (0.004694 -0.0762379 0)
  (0.00251169 -0.0761999 0)
  (0.00175252 -0.0772664 0)
  (0.00241106 -0.0777096 0)
  (0.00457332 -0.0744552 0)
  (0.00872938 -0.0712227 0)
  (0.0151006 -0.0689597 0)
  (0.0234553 -0.0686471 0)
  (0.0332009 -0.0715134 0)
  (0.0436377 -0.0784671 0)
  (0.0537007 -0.0859437 0)
  (0.0686413 -0.0969068 0)
  (0.02938 -0.164177 0)
  (0.542342 0.210151 0)
  (0.228401 -0.19809 0)
  (-0.165853 0.338138 0)
  (-0.0415582 0.137236 0)
  (-0.19891 0.191334 0)
  (-0.265123 0.224733 0)
  (-0.312806 0.241438 0)
  (-0.343383 0.247831 0)
  (-0.35895 0.245496 0)
  (-0.359304 0.23533 0)
  (-0.344213 0.227131 0)
  (-0.314076 0.224745 0)
  (-0.268794 0.227043 0)
  (-0.208826 0.233751 0)
  (-0.138008 0.24479 0)
  (-0.0653474 0.258941 0)
  (0.0311085 0.266486 0)
  (0.0835337 0.27679 0)
  (0.107997 0.291761 0)
  (0.113716 0.307572 0)
  (0.107705 0.300508 0)
  (0.09732 0.284089 0)
  (0.0848048 0.270362 0)
  (0.0704586 0.263523 0)
  (0.0551371 0.263215 0)
  (0.0405852 0.267188 0)
  (0.0283002 0.273006 0)
  (0.0186469 0.279221 0)
  (0.0113522 0.285947 0)
  (0.00615525 0.294131 0)
  (0.00298575 0.301252 0)
  (0.00201402 0.302259 0)
  (0.0033279 0.302678 0)
  (0.00648416 0.302593 0)
  (0.0107822 0.302349 0)
  (0.0148932 0.303206 0)
  (0.0167961 0.307292 0)
  (0.0169235 0.31019 0)
  (0.0419352 0.315798 0)
  (-0.149394 0.444892 0)
)
;

boundaryField
{
  floor
  {
    type noSlip;
  }
  ceiling
  {
    type noSlip;
  }
  sWall
  {
    type noSlip;
  }
  nWall
  {
    type noSlip;
  }
  sideWalls
  {
    type empty;
  }
  glass1
  {
    type noSlip;
  }
  glass2
  {
    type noSlip;
  }
  sun
  {
    type noSlip;
  }
  heatsource1
  {
    type noSlip;
  }
  heatsource2
  {
    type noSlip;
  }
  Table_master
  {
    type noSlip;
  }
  Table_slave
  {
    type noSlip;
  }
  inlet
  {
    type fixedValue;
    value uniform (0.092388 -0.0382683 0);
  }
  outlet
  {
    type zeroGradient;
  }
} 	// ************************************************************************* //

