/*--------------------------------*- C++ -*----------------------------------*\
  =========                 |
  \\      /  F ield         | OpenFOAM: The Open Source CFD Toolbox
   \\    /   O peration     | Website:  https://openfoam.org
    \\  /    A nd           | Version:  6
     \\/     M anipulation  |
\*---------------------------------------------------------------------------*/
FoamFile
{
    version     2.0;
    format      ascii;
    class       volScalarField;
    location    "200";
    object      epsilon;
}
// * * * * * * * * * * * * * * * * * * * * * * * * * * * * * * * * * * * * * //

dimensions      [0 2 -3 0 0 0 0];

internalField   nonuniform List<scalar> 
459
(
0.00171596
0.0044374
0.00393626
0.0034066
0.00296662
0.00259719
0.00228474
0.00200178
0.00173229
0.00146528
0.00119121
0.000897159
0.000557776
0.000194555
3.51007e-05
7.00347e-06
1.54617e-05
1.68766e-05
1.93961e-05
1.95512e-05
1.29329e-05
7.29551e-06
4.84372e-06
3.94773e-06
3.54835e-06
3.34087e-06
3.25526e-06
3.09255e-06
2.89871e-06
2.74148e-06
2.95369e-06
4.63346e-06
1.0604e-05
4.97856e-06
0.00570144
0.00555348
0.00448104
0.00344748
0.00269575
0.00218765
0.00184467
0.00160695
0.00143135
0.00127987
0.00111355
0.000892405
0.000574747
0.000233944
6.8045e-05
3.84152e-05
2.18856e-05
2.02004e-05
3.22312e-05
2.13607e-05
2.10307e-05
2.13074e-05
1.92972e-05
1.18646e-05
7.74551e-06
6.2319e-06
5.73202e-06
5.45881e-06
4.99421e-06
4.36567e-06
3.66839e-06
3.06494e-06
4.79707e-06
9.54858e-06
2.91654e-05
1.0512e-05
0.0084157
0.00812162
0.00544267
0.00359724
0.00260763
0.00204923
0.00168189
0.00144047
0.00127857
0.00115079
0.0010073
0.000800868
0.000495944
0.000207025
8.07976e-05
4.42736e-05
2.88085e-05
6.34557e-05
3.6892e-05
3.1317e-05
3.11985e-05
3.20454e-05
3.38938e-05
2.36598e-05
1.37722e-05
1.01814e-05
8.28103e-06
7.0515e-06
6.09304e-06
5.30016e-06
4.59332e-06
4.28427e-06
1.59636e-05
2.75377e-05
6.40316e-05
2.03071e-05
0.0098241
0.0105653
0.00532199
0.00269571
0.00170639
0.0013365
0.00119228
0.00111844
0.00105594
0.000975296
0.000848935
0.000655606
0.000382096
0.000160107
7.24821e-05
5.16807e-05
5.60785e-05
9.66893e-05
5.14197e-05
3.93588e-05
3.73329e-05
3.74299e-05
3.94376e-05
4.63653e-05
6.77039e-05
6.46096e-05
6.54915e-05
7.0156e-05
7.74728e-05
8.50885e-05
9.07205e-05
9.10376e-05
8.31822e-05
5.97658e-05
4.84638e-05
6.12099e-05
6.09461e-05
0.0109582
0.0125433
0.00410105
0.00146359
0.000798829
0.000720686
0.000806198
0.000847942
0.00083641
0.000775525
0.000661835
0.000497631
0.000282878
0.000123216
6.52681e-05
5.09395e-05
5.00501e-05
5.20425e-05
4.46903e-05
4.28141e-05
4.38347e-05
4.58224e-05
4.78869e-05
5.0187e-05
5.30855e-05
5.48789e-05
5.75153e-05
6.19121e-05
6.81748e-05
7.48188e-05
8.07075e-05
8.30106e-05
7.8261e-05
6.4611e-05
5.2056e-05
4.94729e-05
5.25438e-05
7.55984e-05
7.22475e-05
0.000128425
0.0121275
0.0138609
0.00283986
0.000719844
0.000486107
0.000519865
0.000599186
0.000642678
0.000639988
0.000591696
0.000500106
0.000369913
0.000205066
9.38521e-05
5.76963e-05
5.01348e-05
5.02637e-05
5.16726e-05
5.23895e-05
5.52571e-05
5.98402e-05
6.52371e-05
6.98388e-05
7.32467e-05
7.56635e-05
7.75007e-05
8.00215e-05
8.44094e-05
9.15038e-05
0.000101055
0.000111698
0.000121507
0.000125654
0.000116439
8.84246e-05
6.81067e-05
5.88907e-05
6.15671e-05
0.000130051
0.000153955
0.0136585
0.0143486
0.00379
0.000582876
0.000394816
0.000412051
0.000460337
0.00049034
0.000487941
0.000450179
0.000378414
0.000274536
0.000149442
7.62301e-05
5.63125e-05
5.56372e-05
6.04676e-05
6.64404e-05
7.24443e-05
7.96052e-05
8.85107e-05
9.84393e-05
0.000107059
0.000112994
0.000115949
0.00011701
0.00011814
0.000121245
0.000127671
0.000138078
0.00015288
0.000172573
0.000194317
0.000212428
0.00019881
0.000165356
0.000154667
0.00016428
0.000271045
0.000277099
0.0160507
0.0175741
0.0102516
0.00068201
0.000361572
0.000345777
0.000372573
0.000390211
0.000385501
0.00035437
0.000296142
0.000211872
0.000120791
7.59243e-05
6.74601e-05
7.29212e-05
8.34631e-05
9.56239e-05
0.00010807
0.00012147
0.000136843
0.000154791
0.000170942
0.000182405
0.000187765
0.000187939
0.00018607
0.000185534
0.00018874
0.000197101
0.000212723
0.000239284
0.000281583
0.000346401
0.000443934
0.000553189
0.000712484
0.000903307
0.00224404
0.000582359
0.0210352
0.0316922
0.04314
0.00595769
0.000612898
0.000359047
0.000343725
0.000345032
0.000335459
0.000307936
0.000260199
0.000195076
0.000135237
0.000111506
0.00011208
0.000123406
0.000140016
0.000158803
0.000179239
0.000201762
0.000227146
0.00025819
0.000287915
0.000310567
0.000322675
0.000322983
0.000315902
0.00030744
0.000301868
0.000299932
0.000303124
0.00031626
0.000345651
0.000395662
0.000465786
0.000558024
0.00067194
0.000800685
0.000936206
0.000616049
0.103261
0.0222597
0.00168656
0.000570915
0.00042669
0.000393961
0.000376108
0.000352588
0.000319145
0.000280933
0.000256711
0.000257577
0.000273727
0.000295381
0.000321032
0.000350319
0.000383544
0.000421324
0.000463778
0.000511383
0.000557126
0.000593616
0.000615793
0.000618113
0.000602964
0.000581268
0.000563795
0.000548546
0.000529321
0.000503937
0.000481093
0.000497325
0.000560531
0.000637184
0.000703688
0.00074991
0.000723507
0.000649564
0.0215409
0.00299713
0.0019674
0.00075908
0.000497447
0.000409582
0.000375164
0.000359601
0.000361318
0.000393465
0.000466892
0.000541648
0.000609157
0.000673474
0.000738433
0.000808379
0.000888816
0.000986774
0.00110872
0.00124063
0.00134897
0.00142459
0.00146232
0.00145588
0.00141168
0.00135515
0.00131654
0.00130636
0.00131185
0.00130377
0.00121729
0.00104041
0.000869986
0.000752477
0.000653336
0.000626648
0.000992407
0.000823474
0.00176871
0.00310872
0.00800756
0.000860436
0.000625684
0.000542653
0.000555491
0.000565022
0.000567402
0.000565686
0.00056422
0.000570561
0.000586694
0.000609409
0.000632067
0.000654634
0.000677522
0.000700931
0.000724887
0.000748846
0.000770091
0.000783731
0.000793629
0.000792892
0.000774954
0.000740702
0.000698695
0.000663788
0.000649272
0.000656467
0.000673782
0.000682011
0.00066825
0.000657255
0.000636934
0.000602668
0.000538796
0.000450784
0.000415254
0.000369729
)
;

boundaryField
{
    floor
    {
        Cmu             0.09;
        kappa           0.41;
        E               9.8;
        type            epsilonWallFunction;
        value           nonuniform List<scalar> 
29
(
3.51007e-05
7.00347e-06
1.54617e-05
1.68766e-05
1.93961e-05
1.95512e-05
1.29329e-05
7.29551e-06
4.84372e-06
3.94773e-06
3.54835e-06
3.34087e-06
3.25526e-06
3.09255e-06
2.89871e-06
2.74148e-06
2.95369e-06
4.63346e-06
1.0604e-05
4.97856e-06
4.97856e-06
1.0512e-05
2.03071e-05
6.09461e-05
3.51007e-05
7.00347e-06
2.02004e-05
6.34557e-05
9.66893e-05
)
;
    }
    ceiling
    {
        Cmu             0.09;
        kappa           0.41;
        E               9.8;
        type            epsilonWallFunction;
        value           nonuniform List<scalar> 
43
(
0.00176871
0.00310872
0.00800756
0.000860436
0.000625684
0.000542653
0.000555491
0.000565022
0.000567402
0.000565686
0.00056422
0.000570561
0.000586694
0.000609409
0.000632067
0.000654634
0.000677522
0.000700931
0.000724887
0.000748846
0.000770091
0.000783731
0.000793629
0.000792892
0.000774954
0.000740702
0.000698695
0.000663788
0.000649272
0.000656467
0.000673782
0.000682011
0.00066825
0.000657255
0.000636934
0.000602668
0.000538796
0.000450784
0.000415254
0.000369729
0.0210352
0.0316922
0.0215409
)
;
    }
    sWall
    {
        Cmu             0.09;
        kappa           0.41;
        E               9.8;
        type            epsilonWallFunction;
        value           uniform 0.00176871;
    }
    nWall
    {
        Cmu             0.09;
        kappa           0.41;
        E               9.8;
        type            epsilonWallFunction;
        value           nonuniform List<scalar> 6(0.000128425 0.000153955 0.000277099 0.000649564 0.000823474 0.000369729);
    }
    sideWalls
    {
        type            empty;
    }
    glass1
    {
        Cmu             0.09;
        kappa           0.41;
        E               9.8;
        type            epsilonWallFunction;
        value           nonuniform List<scalar> 9(0.00171596 0.00570144 0.0084157 0.0098241 0.0109582 0.0121275 0.0136585 0.0160507 0.0210352);
    }
    glass2
    {
        Cmu             0.09;
        kappa           0.41;
        E               9.8;
        type            epsilonWallFunction;
        value           nonuniform List<scalar> 2(0.000582359 0.000616049);
    }
    sun
    {
        Cmu             0.09;
        kappa           0.41;
        E               9.8;
        type            epsilonWallFunction;
        value           nonuniform List<scalar> 
14
(
0.00171596
0.0044374
0.00393626
0.0034066
0.00296662
0.00259719
0.00228474
0.00200178
0.00173229
0.00146528
0.00119121
0.000897159
0.000557776
0.000194555
)
;
    }
    heatsource1
    {
        Cmu             0.09;
        kappa           0.41;
        E               9.8;
        type            epsilonWallFunction;
        value           nonuniform List<scalar> 3(7.55984e-05 7.22475e-05 0.000128425);
    }
    heatsource2
    {
        Cmu             0.09;
        kappa           0.41;
        E               9.8;
        type            epsilonWallFunction;
        value           nonuniform List<scalar> 4(3.84152e-05 2.18856e-05 2.18856e-05 2.88085e-05);
    }
    Table_master
    {
        Cmu             0.09;
        kappa           0.41;
        E               9.8;
        type            epsilonWallFunction;
        value           nonuniform List<scalar> 9(2.36598e-05 1.37722e-05 1.01814e-05 8.28103e-06 7.0515e-06 6.09304e-06 5.30016e-06 4.59332e-06 4.28427e-06);
    }
    Table_slave
    {
        Cmu             0.09;
        kappa           0.41;
        E               9.8;
        type            epsilonWallFunction;
        value           nonuniform List<scalar> 9(6.77039e-05 6.46096e-05 6.54915e-05 7.0156e-05 7.74728e-05 8.50885e-05 9.07205e-05 9.10376e-05 8.31822e-05);
    }
    inlet
    {
        type            turbulentMixingLengthDissipationRateInlet;
        mixingLength    0.01;
        phi             phi;
        k               k;
        value           uniform 3.77336e-06;
    }
    outlet
    {
        type            zeroGradient;
    }
}


// ************************************************************************* //
