/*--------------------------------*- C++ -*----------------------------------*\
  =========                 |
  \\      /  F ield         | OpenFOAM: The Open Source CFD Toolbox
   \\    /   O peration     | Website:  https://openfoam.org
    \\  /    A nd           | Version:  6
     \\/     M anipulation  |
\*---------------------------------------------------------------------------*/
FoamFile
{
    version     2.0;
    format      ascii;
    class       surfaceScalarField;
    location    "200";
    object      phi;
}
// * * * * * * * * * * * * * * * * * * * * * * * * * * * * * * * * * * * * * //

dimensions      [1 0 -1 0 0 0 0];

internalField   nonuniform List<scalar> 
852
(
-0.00065955
0.000696421
0.00431881
-0.00497839
0.00736697
-0.00304819
0.00872727
-0.00136033
0.0092224
-0.00049516
0.00921044
1.19461e-05
0.00880566
0.000404764
0.00807425
0.000731393
0.00708952
0.000984726
0.00591018
0.00117934
0.00456688
0.00134332
0.00306546
0.00150154
0.0015008
0.00156544
0.000431073
0.00107165
0.000431977
-9.64975e-05
9.75694e-05
-0.000106615
1.01486e-05
-0.000106938
3.48178e-07
-6.74826e-05
-3.94273e-05
-6.04772e-08
-6.7393e-05
-1.48477e-05
1.48057e-05
-0.000182857
0.000168001
-0.000312315
0.000129443
-0.000378056
6.57306e-05
-0.000403358
2.52976e-05
-0.000402062
-1.29469e-06
-0.000380805
-2.1251e-05
-0.000341948
-3.88495e-05
-0.000279093
-6.28442e-05
-0.000186555
-9.25252e-05
-4.96793e-05
-0.000136855
0.000167173
-0.000216826
0.00033857
-0.000171378
0.000339978
0.00610675
-0.00531361
0.007419
-0.00629068
0.00820476
-0.00383399
0.00870035
-0.00185596
0.00886062
-0.000655475
0.00863996
0.000232553
0.0080643
0.000980373
0.00720728
0.00158837
0.00613973
0.00205223
0.00492729
0.00239174
0.00363734
0.00263325
0.00236939
0.00276962
0.00134258
0.0025931
0.000745698
0.00167016
0.000549163
0.000629318
0.000358706
0.000190619
0.000358694
2.69593e-05
7.28945e-05
-0.000179686
0.000216803
-0.000253585
7.42585e-05
-0.000207823
-8.51766e-05
-6.50605e-05
-0.000210142
8.42025e-05
-0.000134449
7.25739e-05
0.000179625
6.58021e-05
0.000136207
6.0485e-05
7.10436e-05
5.05301e-05
3.52534e-05
3.24479e-05
1.6792e-05
1.43196e-05
-3.1162e-06
4.01513e-06
-2.85351e-05
2.56865e-06
-6.13842e-05
4.13471e-06
-9.40737e-05
4.14228e-05
-0.0001741
0.000105612
-0.00028097
8.31936e-05
-0.000148933
0.000426822
0.00513781
-0.0102974
0.00611045
-0.00726338
0.00611557
-0.00383914
0.00625518
-0.0019956
0.0063172
-0.000717532
0.00611486
0.000434836
0.00565858
0.00143657
0.00499103
0.00225583
0.00415158
0.00289158
0.00319645
0.00334679
0.00220417
0.00362549
0.00130396
0.00367003
0.000743831
0.00315434
0.000539577
0.00187593
0.000346474
0.000823072
0.00012346
0.000413781
0.000482177
-0.000469412
0.000544803
-0.000540173
0.000287559
-0.000557365
9.14501e-05
-0.000520617
-0.000121923
-0.000406818
-0.000323936
2.6043e-06
-0.000543866
0.000182363
0.000318715
0.000389912
0.000425324
0.00044228
0.000439332
0.000410969
0.000349759
0.000255862
0.000208703
-0.000126873
-0.000208447
0.000136216
-0.000565424
0.000208073
-0.000133408
0.00279636
-0.0128818
0.00322104
-0.00768811
0.00324642
-0.00386455
0.00330295
-0.00205213
0.00331082
-0.000725377
0.00316277
0.000582866
0.00286343
0.00173584
0.00243007
0.00268909
0.00187075
0.00345078
0.00124147
0.00397597
0.000624809
0.00424216
0.000169071
0.00412619
4.89994e-05
0.00327593
4.59379e-06
0.00192156
-0.000244674
0.00107263
-0.000548877
0.000718032
-0.000644447
0.000577764
-0.00104377
0.000401578
-0.000916424
0.000417438
-0.000925416
0.000296536
-0.000929498
9.55224e-05
-0.000932269
-0.000119159
-0.000947015
-0.000309194
-0.00109006
-0.00040082
-0.00077424
-0.000315979
-0.000472886
-0.000301508
-0.000155082
-0.000317956
0.000185037
-0.000340271
0.000550637
-0.000365751
0.000939404
-0.000388917
0.00132892
-0.000389664
0.00166929
-0.000340514
0.00188135
-0.000212199
0.00174484
9.64601e-06
0.00152553
0.000355554
0.00109595
0.000637696
0.000967038
0.000971266
-0.0135827
0.00110634
-0.00782324
0.00123357
-0.00399179
0.000920966
-0.00173948
0.000645465
-0.000449797
0.00043525
0.000793098
0.000246979
0.00192406
1.54168e-05
0.00292055
-0.000260825
0.00372693
-0.000535537
0.00425067
-0.000727842
0.00443468
-0.000723536
0.00412264
-0.000535744
0.00308962
-0.000519103
0.00190559
-0.000702453
0.00125605
-0.000899571
0.000915112
-0.00101862
0.000696768
-0.00114661
0.000529507
-0.00114213
0.000412929
-0.00110653
0.0002609
-0.00107062
5.95973e-05
-0.00103511
-0.000154676
-0.00100167
-0.000342641
-0.000944451
-0.000458037
-0.000760648
-0.000499785
-0.000524876
-0.000537285
-0.000261407
-0.00058143
2.85353e-05
-0.000630217
0.000341291
-0.000678509
0.00067168
-0.000719306
0.00101527
-0.000733253
0.00135147
-0.000676699
0.00162915
-0.000489875
0.00176285
-0.000124034
0.00175867
0.00035975
0.00160918
0.000787222
0.00154073
0.00103556
0.000299692
0.00124093
-0.000588318
0.000887851
-0.000555643
-3.13982e-05
-0.0132221
-9.28225e-05
-0.00776186
-0.000437395
-0.00364723
-0.00125361
-0.000923223
-0.00171977
1.64015e-05
-0.00188413
0.000957481
-0.001928
0.00196791
-0.00193896
0.00293147
-0.00191668
0.00370467
-0.00183827
0.00417241
-0.00164226
0.0042391
-0.00128804
0.00376932
-0.000932484
0.00273513
-0.000842334
0.00181571
-0.00090136
0.00131504
-0.000984092
0.000997749
-0.00104833
0.000760917
-0.00109044
0.000571537
-0.00108881
0.00041125
-0.001058
0.000230055
-0.00101915
2.07276e-05
-0.000979847
-0.000193984
-0.000935288
-0.00038719
-0.000859701
-0.00053361
-0.00072799
-0.000631485
-0.000558718
-0.000706552
-0.000368732
-0.000771417
-0.000164691
-0.000834261
5.60608e-05
-0.000899261
0.000297465
-0.000960707
0.000563843
-0.000999623
0.000860412
-0.000973255
0.00117631
-0.000805758
0.00147087
-0.000418571
0.00167263
0.000158009
0.00179202
0.000667864
0.00185914
0.000968501
0.00195925
0.00114089
0.00170714
0.00114002
0.00119027
-0.000692744
-0.012142
-0.00131466
-0.00714
-0.00217909
-0.00278282
-0.00323337
0.00013109
-0.00358904
0.00037211
-0.00362054
0.000989014
-0.00350652
0.00185391
-0.00329755
0.00272254
-0.00300422
0.00341147
-0.002618
0.00378648
-0.00211821
0.00373987
-0.00154283
0.00319473
-0.00110613
0.00229902
-0.000921472
0.0016311
-0.000853764
0.00124722
-0.000830419
0.00097427
-0.00082472
0.000755093
-0.000822328
0.000569042
-0.000809243
0.000398091
-0.000790372
0.000211141
-0.000774396
4.73378e-06
-0.000763533
-0.000204832
-0.000749033
-0.000401652
-0.000713393
-0.000569202
-0.00064555
-0.000699287
-0.00055579
-0.000796284
-0.000457752
-0.000869443
-0.000361638
-0.000930371
-0.000268791
-0.000992105
-0.00017013
-0.00105936
-4.78644e-05
-0.00112188
0.000121667
-0.00114277
0.000367615
-0.00105168
0.000712718
-0.000763647
0.00108409
-0.000213335
0.00141281
0.000339175
0.00173069
0.000650661
0.00212575
0.000745882
0.00209335
0.00117247
0.00332342
-0.00286944
-0.00882925
-0.0044258
-0.0055837
-0.00465309
-0.00255556
-0.00518076
0.000658778
-0.00498774
0.000179116
-0.00474463
0.000745935
-0.00442824
0.00153758
-0.00401824
0.00231265
-0.00350643
0.00289985
-0.00289415
0.00317454
-0.00220182
0.00304804
-0.00152352
0.00251698
-0.00104803
0.00182376
-0.000773051
0.00135605
-0.000595822
0.00106984
-0.000475289
0.000853576
-0.00039436
0.000674012
-0.000342769
0.000517319
-0.000311764
0.000366988
-0.000304316
0.000203637
-0.000320814
2.12251e-05
-0.000354279
-0.00017133
-0.000394969
-0.000360887
-0.000429315
-0.000534759
-0.000448324
-0.000680184
-0.000459161
-0.000785378
-0.000474359
-0.000854207
-0.000508815
-0.000895899
-0.000571045
-0.000929868
-0.000660292
-0.000970103
-0.000766445
-0.00101571
-0.000862977
-0.00104621
-0.000897967
-0.00101667
-0.000789923
-0.00087166
-0.000434373
-0.000568852
6.72418e-06
-0.00010188
0.000378347
0.000279075
0.000699705
0.000424563
0.000379288
0.00149293
0.00387526
-0.00834682
-0.013938
-0.00953235
-0.00696132
-0.00681863
-0.00205501
-0.00577806
-0.000861489
-0.00518839
0.000156281
-0.00468733
0.00103657
-0.00412921
0.00175464
-0.00347334
0.00224417
-0.00273139
0.00243287
-0.00195817
0.00227518
-0.00126866
0.00182776
-0.000778739
0.00133388
-0.000437525
0.00101473
-0.000179174
0.000811339
1.72533e-05
0.000656984
0.000160694
0.000530416
0.000259802
0.000418069
0.000319846
0.000306827
0.000336495
0.00018691
0.000307242
5.04617e-05
0.000244228
-0.000108275
0.000153179
-0.000269738
4.12811e-05
-0.000422712
-8.05183e-05
-0.00055822
-0.000207869
-0.000657894
-0.000347419
-0.000714572
-0.000516193
-0.000727087
-0.00073475
-0.000711297
-0.00102529
-0.000679555
-0.00141298
-0.000627997
-0.00191541
-0.000543763
-0.00252896
-0.00040309
-0.00321016
-0.000190433
-0.00389677
0.000117793
-0.00456982
0.00057121
-0.00541158
0.00112087
-0.00652697
0.00153998
-0.00614604
0.00111204
-0.00208228
-0.00730449
0.00106704
-0.00584156
-0.003518
-0.00521787
-0.00148525
-0.004796
-0.000265646
-0.00432085
0.000561426
-0.00372734
0.00116119
-0.00301479
0.00153173
-0.00222903
0.00164729
-0.00145414
0.00150048
-0.000801456
0.00117518
-0.000313444
0.000845823
5.60264e-05
0.000645135
0.00034389
0.000523335
0.000567572
0.000433158
0.00073966
0.000358187
0.000868444
0.000289154
0.000955762
0.000219395
0.000998778
0.000143807
0.000991314
5.7886e-05
0.000934916
-5.18526e-05
0.000822488
-0.000157215
0.000657899
-0.000257959
0.000453447
-0.000353557
0.000225122
-0.000429355
-1.63992e-05
-0.000472884
-0.000262124
-0.000481282
-0.000515453
-0.000457937
-0.000785431
-0.000409568
-0.00107387
-0.000339549
-0.00137064
-0.000246987
-0.00166237
-0.000111338
-0.00194482
9.20335e-05
-0.00218925
0.000362252
-0.00233454
0.000716526
-0.00230028
0.00108664
-0.00180086
0.00104058
-0.000618525
-7.0276e-05
-0.00265537
-0.00112115
0.00217869
-0.00304663
-0.0015926
-0.00390295
-0.000629008
-0.00402398
-0.000144691
-0.00371351
0.000250903
-0.0031374
0.000585063
-0.00239849
0.00079284
-0.00158773
0.000836589
-0.000807434
0.000720227
-0.000156347
0.000524087
0.000323362
0.00036603
0.000667369
0.000301015
0.000931933
0.000258651
0.0011409
0.000224065
0.00130576
0.000193212
0.00143157
0.000163228
0.00151903
0.000131829
0.00156559
9.71587e-05
0.00156613
5.72999e-05
0.00149776
1.65169e-05
0.00136556
-2.49458e-05
0.00117929
-7.1539e-05
0.000948044
-0.000122094
0.000691371
-0.000172427
0.000433853
-0.000215131
0.000193846
-0.000241114
-2.1358e-05
-0.000242656
-0.000219089
-0.000211817
-0.000403342
-0.000155293
-0.00057493
-7.53981e-05
-0.000700842
1.45805e-05
-0.000728673
0.000119875
-0.000631068
0.000264663
-0.000308876
0.000394353
0.000358244
0.000419539
0.00124315
0.000155696
0.00173615
-0.00056326
-0.000871565
0.00424963
-0.00262399
-0.000460438
-0.00208576
-0.00275068
-0.00293243
-0.00271814
-0.0021692
-0.00141203
-0.000610623
7.49383e-05
0.00056469
0.000896679
0.00116394
0.00138906
0.00157979
0.00173984
0.00187008
0.00196913
0.00203375
0.00205877
0.0020433
0.00198681
0.00188431
0.00173196
0.00153011
0.00128647
0.00101775
0.000748253
0.000510137
0.000328857
0.00022754
0.000215979
0.000309475
0.000547417
0.000914566
0.00130605
0.00143239
0.000839192
)
;

boundaryField
{
    floor
    {
        type            calculated;
        value           nonuniform List<scalar> 
29
(
0
0
0
0
0
0
0
0
0
0
0
0
0
0
0
0
0
0
0
0
-1.39663e-06
-3.6354e-06
-5.12596e-06
-4.3997e-06
-2.36734e-07
-1.03605e-06
-2.27301e-06
-2.50537e-06
-2.28083e-06
)
;
    }
    ceiling
    {
        type            calculated;
        value           nonuniform List<scalar> 
43
(
4.16503e-05
2.90131e-05
1.51117e-05
3.2629e-05
3.58054e-05
3.69505e-05
3.64976e-05
3.60395e-05
3.56031e-05
3.51399e-05
3.46355e-05
3.42487e-05
3.39382e-05
3.36473e-05
3.3421e-05
3.32302e-05
3.30525e-05
3.28731e-05
3.26783e-05
3.24564e-05
3.22098e-05
3.19465e-05
3.15604e-05
3.10571e-05
3.04442e-05
2.96971e-05
2.88168e-05
2.78726e-05
2.70067e-05
2.63664e-05
2.5999e-05
2.59158e-05
2.61351e-05
2.63762e-05
2.67244e-05
2.7211e-05
2.80681e-05
2.93601e-05
2.99486e-05
3.14832e-05
9.94693e-06
7.4324e-06
9.43478e-06
)
;
    }
    sWall
    {
        type            calculated;
        value           uniform -0.000159289;
    }
    nWall
    {
        type            calculated;
        value           nonuniform List<scalar> 6(-3.28194e-05 -3.87131e-05 -3.97439e-05 -4.54231e-05 -4.76493e-05 -6.38539e-05);
    }
    sideWalls
    {
        type            empty;
        value           nonuniform 0();
    }
    glass1
    {
        type            calculated;
        value           nonuniform List<scalar> 9(-3.68609e-05 -9.67453e-05 -0.000154112 -0.000211968 -0.000270376 -0.000329249 -0.000387468 -0.000443347 -0.000492446);
    }
    glass2
    {
        type            calculated;
        value           nonuniform List<scalar> 2(-0.000172503 -0.000188471);
    }
    sun
    {
        type            calculated;
        value           uniform 0;
    }
    heatsource1
    {
        type            calculated;
        value           nonuniform List<scalar> 3(2.02161e-07 2.02447e-07 2.02573e-07);
    }
    heatsource2
    {
        type            calculated;
        value           nonuniform List<scalar> 4(5.05802e-08 5.06225e-08 0 0);
    }
    Table_master
    {
        type            calculated;
        value           nonuniform List<scalar> 9(-1.52044e-07 -1.52058e-07 -1.5206e-07 -1.52068e-07 -1.52081e-07 -1.52099e-07 -1.52122e-07 -1.52154e-07 -1.52192e-07);
    }
    Table_slave
    {
        type            calculated;
        value           nonuniform List<scalar> 9(1.51645e-07 1.51764e-07 1.51865e-07 1.51911e-07 1.51842e-07 1.51714e-07 1.51587e-07 1.51479e-07 1.51415e-07);
    }
    inlet
    {
        type            calculated;
        value           uniform -0.000723952;
    }
    outlet
    {
        type            calculated;
        value           nonuniform List<scalar> 2(-0.00413175 0.00684474);
    }
}


// ************************************************************************* //
