/*--------------------------------*- C++ -*----------------------------------*\
  =========                 |
  \\      /  F ield         | OpenFOAM: The Open Source CFD Toolbox
   \\    /   O peration     | Website:  https://openfoam.org
    \\  /    A nd           | Version:  6
     \\/     M anipulation  |
\*---------------------------------------------------------------------------*/
FoamFile
{
    version     2.0;
    format      ascii;
    class       surfaceScalarField;
    location    "600";
    object      phi;
}
// * * * * * * * * * * * * * * * * * * * * * * * * * * * * * * * * * * * * * //

dimensions      [1 0 -1 0 0 0 0];

internalField   nonuniform List<scalar> 
852
(
-0.00292663
0.002983
-0.00394939
0.00102276
-0.00473277
0.00078338
-0.00535248
0.000619714
-0.00578
0.000427521
-0.00599387
0.00021387
-0.00597272
-2.11556e-05
-0.00569662
-0.000276096
-0.00517068
-0.000525937
-0.00443817
-0.000732511
-0.00357261
-0.000865562
-0.00265955
-0.000913054
-0.0017709
-0.00088865
-0.000921397
-0.000849502
-0.000919967
-0.000648727
0.000651442
-0.000293438
-0.000355287
0.000316549
-0.000609985
0.000776472
-0.000459921
0.00107445
-0.000297978
0.00125517
-0.000180715
0.00135157
-9.64012e-05
0.00139942
-4.78416e-05
0.00142613
-2.67059e-05
0.00144192
-1.57936e-05
0.00145011
-8.18126e-06
0.00145166
-1.5555e-06
0.00144456
7.10301e-06
0.00142034
2.4223e-05
0.0013566
6.3747e-05
0.00121583
0.00014077
0.000984287
0.000231549
0.000699718
0.000284572
0.000703392
-0.00208642
0.0052211
-0.0030808
0.00201715
-0.00388216
0.00158475
-0.00448793
0.00122548
-0.00490436
0.000843947
-0.00511975
0.000429266
-0.00510956
-3.13476e-05
-0.00485562
-0.000530037
-0.00437292
-0.00100864
-0.00371514
-0.00139028
-0.00295935
-0.00162136
-0.0021863
-0.0016861
-0.00146964
-0.00160531
-0.000906019
-0.00141312
-0.000709534
-0.00111645
-0.000141223
-0.00056836
-0.000141273
0.000429576
0.000229533
0.00084689
-0.000772598
0.00108257
-0.00084566
0.00128206
-0.000659409
0.00142713
-0.000443048
0.00150813
-0.000261715
0.00151919
-0.000107456
0.00152233
-5.09818e-05
0.00152619
-3.05617e-05
0.00152942
-1.90185e-05
0.00153157
-1.03287e-05
0.00153252
-2.50519e-06
0.00153136
8.26512e-06
0.00152451
3.10784e-05
0.00148315
0.000105105
0.00130804
0.000315882
0.00100567
0.000533928
0.000625335
0.000664906
0.00133813
-0.00146059
0.00691356
-0.00231749
0.00287405
-0.0030222
0.00228946
-0.00353409
0.00173737
-0.00389235
0.00120221
-0.00408215
0.000619071
-0.00406121
-5.22882e-05
-0.00379966
-0.000791586
-0.00333065
-0.00147765
-0.00272437
-0.00199656
-0.00205946
-0.00228628
-0.00140468
-0.00234087
-0.000813613
-0.00219638
-0.000346893
-0.00187984
-3.34803e-05
-0.00142986
0.000198535
-0.000800374
5.72641e-05
0.0014709
-0.00123341
0.00168298
-0.000984674
0.00166427
-0.000826945
0.00166621
-0.000661349
0.00168665
-0.000463488
0.00168776
-0.000262822
0.00158046
0.00152963
0.00149923
0.00148036
0.00147019
0.00146784
0.00147626
0.0015075
0.00161276
0.0013315
0.000597144
0.000988708
0.000876721
0.000551473
0.00110214
0.00190392
-0.0010215
0.00823509
-0.00170175
0.00355429
-0.00216006
0.00274777
-0.00248755
0.00206486
-0.00271918
0.00143385
-0.00282907
0.000728963
-0.00274591
-0.000135453
-0.00243856
-0.00109893
-0.00197686
-0.00193935
-0.00144524
-0.00252817
-0.000911279
-0.00282024
-0.000419238
-0.00283292
1.12767e-05
-0.00262689
0.000371851
-0.00224041
0.000685007
-0.00174302
0.00106119
-0.00117656
0.00178815
-0.000669697
0.00238308
-0.000587646
0.00196561
-0.000815938
0.00184818
-0.00086724
0.00175199
-0.000730754
0.00167177
-0.000581124
0.00163429
-0.000426008
0.001634
-0.00026253
0.00174492
-0.000111071
0.0018205
-7.57351e-05
0.00188406
-6.37102e-05
0.00193445
-5.0535e-05
0.00195704
-2.27386e-05
0.0019301
2.67827e-05
0.00182877
0.000101182
0.001621
0.000207621
0.0012533
0.000367551
0.00112254
0.000727905
0.000833451
0.00116581
0.000389008
0.00154659
0.0023117
-0.00071771
0.00931066
-0.00123641
0.00407299
-0.00132255
0.00283391
-0.00137571
0.00211803
-0.00140547
0.00146361
-0.00134952
0.00067302
-0.00111705
-0.000367928
-0.000737257
-0.00147872
-0.000312779
-0.00236383
8.41412e-05
-0.00292509
0.000417132
-0.00315323
0.00067788
-0.00309366
0.000873924
-0.00282293
0.00103483
-0.00240131
0.00118963
-0.00189782
0.00139072
-0.00137765
0.00166521
-0.000944183
0.00181668
-0.000739113
0.00172214
-0.000721398
0.00155423
-0.000699331
0.0014187
-0.000595221
0.00131217
-0.000474592
0.0012447
-0.00035854
0.00122864
-0.000246469
0.0012791
-0.000161528
0.00133437
-0.000130996
0.00139437
-0.000123713
0.00145492
-0.000111082
0.00150488
-7.26924e-05
0.00152407
7.58948e-06
0.00149171
0.000133549
0.00139647
0.000302866
0.00123952
0.000524502
0.00110203
0.000865398
0.000953794
0.00131406
0.000626514
0.00187387
0.000538557
0.00239966
-0.000983604
0.00152196
-0.00144466
0.000460859
-0.00139742
-0.000628208
0.0103455
-0.000987674
0.00443245
-0.000565319
0.00241156
-0.000209555
0.00176227
5.92206e-05
0.00119483
0.000395708
0.000336534
0.000850893
-0.000823112
0.0012689
-0.00189672
0.0015724
-0.00266733
0.00174419
-0.00309689
0.00180211
-0.00321115
0.00177681
-0.00306835
0.00169486
-0.00274099
0.00159187
-0.00229832
0.00150082
-0.00180677
0.00144926
-0.00132608
0.00143326
-0.000928187
0.00137797
-0.000683813
0.0012351
-0.000578527
0.00104844
-0.000512674
0.000888596
-0.000435374
0.000771643
-0.000357637
0.000702352
-0.000289246
0.000686698
-0.000230813
0.000718947
-0.000193775
0.000774929
-0.000186976
0.000844705
-0.000193485
0.000923751
-0.000190125
0.00100622
-0.000155155
0.00108021
-6.6405e-05
0.00112765
8.61176e-05
0.0011442
0.000286319
0.0011386
0.000530099
0.00115924
0.000844763
0.00125402
0.00121928
0.00143562
0.00169228
0.00187373
0.00196155
0.0021301
0.00126559
0.00174123
0.000849734
0.000400707
-0.000689359
0.0114855
-0.000577803
0.0043209
0.000540423
0.00129333
0.00130296
0.000999736
0.00192073
0.000577064
0.00257021
-0.000312947
0.00313514
-0.00138804
0.0034597
-0.00222128
0.00353538
-0.00274301
0.00340172
-0.00296323
0.00311513
-0.00292457
0.00273614
-0.00268936
0.00231777
-0.00232262
0.00190677
-0.00188732
0.00153953
-0.00143952
0.00123516
-0.00102171
0.000994064
-0.000687094
0.000786228
-0.000475974
0.000580282
-0.000372578
0.00038843
-0.00032082
0.000236177
-0.000283119
0.000132122
-0.000253579
7.55081e-05
-0.00023263
6.47875e-05
-0.00022009
9.14675e-05
-0.000220452
0.000140436
-0.000235942
0.000203023
-0.00025607
0.000278796
-0.000265895
0.000372224
-0.00024858
0.000488224
-0.000182402
0.000613915
-3.95694e-05
0.000738227
0.000162009
0.000872236
0.000396094
0.00105526
0.000661744
0.00133581
0.000938728
0.00177555
0.00125254
0.00243971
0.0012974
0.00297759
0.000727717
0.00300492
0.000822406
0.00346749
0.00257522
0.00941448
0.00326718
0.00362894
0.00363727
0.000923248
0.00423882
0.000398187
0.00497935
-0.000163469
0.00563895
-0.000972538
0.00592116
-0.00167025
0.00582762
-0.00212774
0.00542498
-0.00234037
0.0048006
-0.00233884
0.00404696
-0.00217094
0.00324887
-0.00189126
0.00247048
-0.00154423
0.001761
-0.00117784
0.00115482
-0.000833337
0.000662265
-0.000529154
0.000289477
-0.000314304
1.49266e-05
-0.000201421
-0.000194076
-0.000163574
-0.00035371
-0.000161183
-0.000470377
-0.00016645
-0.000548967
-0.000174986
-0.00059504
-0.000186555
-0.000613524
-0.000201602
-0.000611845
-0.000222128
-0.000599798
-0.000247985
-0.000582536
-0.000273328
-0.000558605
-0.000289823
-0.000519299
-0.000287882
-0.000445476
-0.000256222
-0.000306956
-0.000178086
-0.00012155
-2.33935e-05
9.41628e-05
0.000180384
0.000364762
0.000391148
0.000703167
0.000600327
0.00115113
0.000804577
0.00164486
0.000803674
0.001855
0.000517574
0.00110326
0.00157415
0.00482177
0.00996741
0.0135883
0.0124259
0.0020856
0.0116915
0.00113261
0.0110534
0.000474602
0.0102289
-0.000148011
0.00913552
-0.000576876
0.00787321
-0.000865446
0.0065356
-0.00100276
0.00519474
-0.000997976
0.00391537
-0.000891571
0.00275152
-0.000727414
0.00172809
-0.000520796
0.000866294
-0.000316048
0.000177177
-0.000144217
-0.000323474
-2.85004e-05
-0.000644857
7.08277e-06
-0.000846364
8.8023e-08
-0.000986275
-2.36599e-05
-0.00109516
-5.22944e-05
-0.00118177
-7.98407e-05
-0.00125105
-0.000105705
-0.00130776
-0.000129836
-0.00135691
-0.00015245
-0.00140485
-0.000174187
-0.00145946
-0.000193372
-0.00152801
-0.00020477
-0.00161751
-0.000200324
-0.00173647
-0.000168914
-0.00189553
-9.71582e-05
-0.00210063
2.70187e-05
-0.00233749
0.000213464
-0.00263275
0.00047565
-0.0030715
0.0008299
-0.0037458
0.00127463
-0.00472219
0.00178097
-0.00611642
0.00219791
-0.00780911
0.00221027
-0.00733419
0.00109923
-0.00223464
0.00469972
0.00355075
0.00390091
0.0019314
0.0043523
2.3196e-05
0.00437864
-0.000174361
0.00399332
-0.000191556
0.00337987
-0.000252005
0.00263871
-0.000261602
0.00183778
-0.000197046
0.00102534
-7.91228e-05
0.000241535
5.63928e-05
-0.000439272
0.000160015
-0.000947744
0.000192427
-0.00128178
0.000189826
-0.00147852
0.00016824
-0.00159803
0.000126591
-0.00167986
8.19201e-05
-0.00174599
4.24725e-05
-0.0018091
1.08231e-05
-0.00187359
-1.53442e-05
-0.00194075
-3.85441e-05
-0.00201181
-5.87702e-05
-0.00208933
-7.49305e-05
-0.00217561
-8.7902e-05
-0.00227274
-9.62375e-05
-0.00238174
-9.57686e-05
-0.00250146
-8.06044e-05
-0.00262758
-4.2786e-05
-0.00275234
2.76091e-05
-0.00286341
0.000138087
-0.00295719
0.00030725
-0.00304214
0.000560603
-0.00312447
0.000912229
-0.0032006
0.00135077
-0.00322547
0.00180583
-0.00314636
0.00211881
-0.00278612
0.00185003
-0.00152163
-0.00016526
-0.0036836
-0.000566909
0.00418094
0.000290813
0.00107367
-1.32718e-05
0.000327281
-0.000303979
0.000116347
-0.000570313
7.47802e-05
-0.000898848
7.65332e-05
-0.00126549
0.00010504
-0.00161233
0.000149803
-0.00188681
0.00019536
-0.00206124
0.000230821
-0.00214912
0.000247904
-0.00219117
0.000234475
-0.00220411
0.000202776
-0.00220253
0.000166658
-0.00220631
0.000130375
-0.00222264
9.82503e-05
-0.00225148
7.13132e-05
-0.00228975
4.91013e-05
-0.00233671
3.16171e-05
-0.00239237
1.71209e-05
-0.00245522
4.08626e-06
-0.00252319
-6.96041e-06
-0.00259508
-1.60057e-05
-0.00266878
-2.25407e-05
-0.00273984
-2.46991e-05
-0.00280107
-1.93683e-05
-0.00284132
-2.53592e-06
-0.00284907
3.53653e-05
-0.00281459
0.000103608
-0.00271621
0.000208874
-0.00252224
0.000366634
-0.00220591
0.000595903
-0.00174883
0.000893692
-0.00112407
0.00118108
-0.000159262
0.001154
0.00114574
0.000545027
0.00158449
-0.000604007
-0.00201947
-0.00725874
-0.0101461
-0.00592239
-0.0048283
-0.00448925
-0.00436538
-0.00428575
-0.0042064
-0.00410016
-0.00395053
-0.00375656
-0.00352825
-0.00328394
-0.00305409
-0.00285683
-0.00269643
-0.00257288
-0.00248188
-0.00241814
-0.00237684
-0.00235319
-0.00234414
-0.00234818
-0.00236327
-0.00238736
-0.00241791
-0.0024505
-0.0024776
-0.00248769
-0.00245966
-0.00236314
-0.0021611
-0.00180105
-0.00121148
-0.000323906
0.000851238
0.00199927
0.0025381
0.00192754
)
;

boundaryField
{
    floor
    {
        type            calculated;
        value           nonuniform List<scalar> 
29
(
0
0
0
0
0
0
0
0
0
0
0
0
0
0
0
0
0
0
0
0
-3.6708e-06
-9.40138e-06
-1.4312e-05
-1.87665e-05
-1.42783e-06
-2.71276e-06
-7.66473e-06
-7.95514e-06
-7.2835e-06
)
;
    }
    ceiling
    {
        type            calculated;
        value           nonuniform List<scalar> 
43
(
-4.54425e-05
-4.4113e-05
-4.27966e-05
-2.04185e-05
-1.17664e-05
-7.51838e-06
-4.83998e-06
-2.82022e-06
-1.19189e-06
1.79728e-07
1.39138e-06
2.5147e-06
3.59652e-06
4.62346e-06
5.52557e-06
6.25779e-06
6.82466e-06
7.25428e-06
7.57501e-06
7.80871e-06
7.97172e-06
8.07678e-06
8.12955e-06
8.13051e-06
8.08883e-06
8.00924e-06
7.89309e-06
7.74167e-06
7.55569e-06
7.33369e-06
7.09182e-06
6.84043e-06
6.58654e-06
6.33977e-06
6.11803e-06
5.93717e-06
5.97641e-06
6.19726e-06
6.55762e-06
7.7459e-06
1.11513e-05
8.08589e-06
-6.32963e-05
)
;
    }
    sWall
    {
        type            calculated;
        value           uniform -0.000274305;
    }
    nWall
    {
        type            calculated;
        value           nonuniform List<scalar> 6(-4.74466e-05 -5.68923e-05 -6.18582e-05 -7.26602e-05 -7.96367e-05 -9.96732e-05);
    }
    sideWalls
    {
        type            empty;
        value           nonuniform 0();
    }
    glass1
    {
        type            calculated;
        value           nonuniform List<scalar> 9(-5.63666e-05 -0.000151685 -0.000231858 -0.000300031 -0.000357857 -0.000406606 -0.000450683 -0.000504178 -0.000564083);
    }
    glass2
    {
        type            calculated;
        value           nonuniform List<scalar> 2(-0.000251015 -0.000277778);
    }
    sun
    {
        type            calculated;
        value           uniform 0;
    }
    heatsource1
    {
        type            calculated;
        value           nonuniform List<scalar> 3(2.03987e-07 2.03942e-07 2.03958e-07);
    }
    heatsource2
    {
        type            calculated;
        value           nonuniform List<scalar> 4(5.10831e-08 5.1212e-08 0 0);
    }
    Table_master
    {
        type            calculated;
        value           nonuniform List<scalar> 9(-1.52988e-07 -1.53064e-07 -1.53091e-07 -1.5311e-07 -1.53123e-07 -1.53132e-07 -1.53135e-07 -1.53129e-07 -1.53097e-07);
    }
    Table_slave
    {
        type            calculated;
        value           nonuniform List<scalar> 9(1.52868e-07 1.52891e-07 1.52873e-07 1.52858e-07 1.52853e-07 1.52857e-07 1.52873e-07 1.52915e-07 1.52995e-07);
    }
    inlet
    {
        type            calculated;
        value           uniform -0.00616487;
    }
    outlet
    {
        type            calculated;
        value           nonuniform List<scalar> 2(0.00757849 0.00293151);
    }
}


// ************************************************************************* //
