/*--------------------------------*- C++ -*----------------------------------*\
  =========                 |
  \\      /  F ield         | OpenFOAM: The Open Source CFD Toolbox
   \\    /   O peration     | Website:  https://openfoam.org
    \\  /    A nd           | Version:  6
     \\/     M anipulation  |
\*---------------------------------------------------------------------------*/
FoamFile
{
    version     2.0;
    format      ascii;
    class       surfaceScalarField;
    location    "700";
    object      phi;
}
// * * * * * * * * * * * * * * * * * * * * * * * * * * * * * * * * * * * * * //

dimensions      [1 0 -1 0 0 0 0];

internalField   nonuniform List<scalar> 
852
(
-0.00293394
0.00299018
-0.00396927
0.00103533
-0.00475712
0.000787856
-0.00537502
0.000617901
-0.00579396
0.000418938
-0.00599168
0.000197713
-0.00594654
-4.51314e-05
-0.00564051
-0.000306036
-0.00508406
-0.000556443
-0.00432688
-0.000757189
-0.00344777
-0.000879109
-0.00253464
-0.000913127
-0.0016615
-0.000873139
-0.000848674
-0.000812828
-0.000847243
-0.000668733
0.000671414
-0.000332635
-0.000336097
0.000275853
-0.000608489
0.000746259
-0.000470406
0.00105681
-0.000310548
0.00124885
-0.000192048
0.00135281
-0.000103952
0.00140442
-5.16093e-05
0.00143352
-2.91035e-05
0.00145122
-1.77003e-05
0.00146094
-9.72058e-06
0.00146375
-2.80537e-06
0.00145765
6.09508e-06
0.00143422
2.34353e-05
0.0013709
6.33114e-05
0.00122989
0.000141012
0.000996499
0.000233393
0.000705182
0.000291317
0.000708795
-0.00209238
0.00523396
-0.00309495
0.0020379
-0.00389959
0.0015925
-0.00450394
0.00122225
-0.00491269
0.000827681
-0.00511275
0.00039778
-0.00507917
-7.87153e-05
-0.00479655
-0.000588652
-0.00428611
-0.00106688
-0.00360722
-0.00143608
-0.0028408
-0.00164553
-0.00206736
-0.00168657
-0.00135943
-0.00158106
-0.000807287
-0.00136497
-0.000604978
-0.00104955
-9.28447e-05
-0.000512184
-9.28959e-05
0.00039039
0.000288646
0.000813801
-0.000759508
0.00105981
-0.000854494
0.00126659
-0.000677187
0.00141963
-0.000463592
0.00150826
-0.000280677
0.00152158
-0.00011727
0.00152518
-5.52119e-05
0.00152955
-3.34686e-05
0.00153324
-2.139e-05
0.00153571
-1.2191e-05
0.00153687
-3.96387e-06
0.00153588
7.08202e-06
0.00152914
3.01708e-05
0.00148786
0.000104591
0.00131279
0.000316085
0.00101003
0.000536158
0.000627957
0.000673385
0.00134605
-0.00146431
0.0069298
-0.00232576
0.00289936
-0.00303314
0.00229988
-0.00354432
0.00173342
-0.0038959
0.00117926
-0.00407072
0.000572606
-0.00402479
-0.00012465
-0.00373406
-0.000879383
-0.00324047
-0.00156048
-0.00261837
-0.00205817
-0.00194889
-0.00231502
-0.00129722
-0.00233824
-0.000714814
-0.00216347
-0.000255465
-0.00182432
5.10538e-05
-0.00135607
0.000259358
-0.000720488
0.000166462
0.0014814
-0.00118478
0.00169498
-0.000973089
0.00167505
-0.00083456
0.00167611
-0.000678244
0.00169766
-0.000485144
0.00170729
-0.000290309
0.00159017
0.00153511
0.0015018
0.00148056
0.00146852
0.00146471
0.00147195
0.00150227
0.00160702
0.00132684
0.000596261
0.000985619
0.000877378
0.000550576
0.00110843
0.00191079
-0.0010229
0.00825243
-0.001704
0.00358046
-0.0021644
0.00276028
-0.00249143
0.00206045
-0.00271665
0.00140449
-0.00280953
0.000665477
-0.00269626
-0.000237912
-0.00235987
-0.00121578
-0.00188045
-0.00203989
-0.0013415
-0.00259712
-0.00081054
-0.00284598
-0.000325107
-0.00282367
9.64771e-05
-0.00258505
0.000448308
-0.00217615
0.000756052
-0.00166382
0.00112662
-0.00109105
0.00187829
-0.000585215
0.00242835
-0.00054281
0.00202383
-0.00078026
0.00189969
-0.00084895
0.00179336
-0.000728236
0.00170311
-0.000587988
0.00165535
-0.000437385
0.00163904
-0.000273996
0.00175232
-0.000113434
0.00182533
-7.31679e-05
0.00188509
-5.99074e-05
0.00193164
-4.67092e-05
0.00195099
-1.94965e-05
0.00192195
2.88809e-05
0.00181979
0.000102013
0.00161217
0.000207462
0.00124516
0.000366864
0.00111511
0.000726301
0.000828875
0.00116362
0.000390673
0.00154663
0.00232005
-0.000717515
0.00932759
-0.00123398
0.00409692
-0.00132046
0.00284676
-0.00137222
0.00211221
-0.00139506
0.00142734
-0.00131345
0.000583863
-0.00104428
-0.000507087
-0.000642034
-0.00161802
-0.00021173
-0.00247019
0.000178779
-0.00298763
0.000500544
-0.00316775
0.000749619
-0.00307274
0.000937629
-0.00277306
0.00109314
-0.00233167
0.00124632
-0.001817
0.00144942
-0.00129415
0.00173168
-0.000867474
0.00187287
-0.000683995
0.00177653
-0.000683929
0.00160382
-0.000676232
0.00145988
-0.000584298
0.00134336
-0.000471473
0.00126489
-0.00035891
0.00123738
-0.000246491
0.00128088
-0.00015693
0.00133036
-0.000122643
0.00138474
-0.000114294
0.00144045
-0.000102413
0.00148684
-6.58868e-05
0.00150429
1.14277e-05
0.00147227
0.000134031
0.00137895
0.00030078
0.00122499
0.00052083
0.00109073
0.000860562
0.000946591
0.00130775
0.000627268
0.00186595
0.000553996
0.00239332
-0.000970166
0.00152396
-0.00143328
0.000462914
-0.00138629
-0.000626644
0.0103607
-0.000980837
0.00445111
-0.000554737
0.00242066
-0.000191011
0.00174848
8.77905e-05
0.00114854
0.000465611
0.000206043
0.000954552
-0.000996028
0.00137494
-0.00203841
0.001665
-0.00276025
0.00181757
-0.00314021
0.00185975
-0.00320993
0.0018203
-0.00303329
0.0017286
-0.00268136
0.00162065
-0.00222371
0.00152951
-0.00172586
0.00148149
-0.00124613
0.00147113
-0.000857115
0.00141663
-0.000629487
0.00127304
-0.000540343
0.00108386
-0.000487052
0.000918548
-0.000418986
0.000793813
-0.000346738
0.000715312
-0.000280409
0.000690165
-0.000221345
0.000714825
-0.00018159
0.000765026
-0.000172844
0.000830103
-0.000179371
0.000905399
-0.000177708
0.000985254
-0.000145742
0.00105786
-6.1183e-05
0.0011056
8.62962e-05
0.00112411
0.000282274
0.00112154
0.0005234
0.00114547
0.000836625
0.00124361
0.00120961
0.00142913
0.00168044
0.00187056
0.00195189
0.00213023
0.00126429
0.00174089
0.000852259
0.000411184
-0.000682374
0.0114938
-0.000562769
0.00433151
0.000569649
0.00128824
0.00135836
0.000959769
0.00202898
0.000477921
0.00271906
-0.000484036
0.0032678
-0.00154477
0.0035631
-0.00233372
0.00360679
-0.00280394
0.00344297
-0.00297639
0.00313253
-0.00289949
0.00273643
-0.0026372
0.00230786
-0.00225279
0.00189347
-0.00180933
0.00152889
-0.00136128
0.00123105
-0.000948292
0.000998807
-0.00062487
0.000798198
-0.000428878
0.000596973
-0.000339118
0.000406657
-0.000296735
0.000252361
-0.00026469
0.00014349
-0.000237867
8.06248e-05
-0.000217543
6.35774e-05
-0.000204297
8.53326e-05
-0.000203345
0.000130917
-0.000218428
0.00019111
-0.000239564
0.000264966
-0.000251564
0.000356634
-0.000237411
0.000470981
-0.000175529
0.000595805
-3.85284e-05
0.000720523
0.000157557
0.000856051
0.000387872
0.00104053
0.000652142
0.00132237
0.000927777
0.00176293
0.00123988
0.00242855
0.00128627
0.00296859
0.000724251
0.00299221
0.000828639
0.00346468
0.00259006
0.009408
0.00329253
0.00362904
0.00368936
0.000891408
0.00436133
0.000287803
0.00516109
-0.000321839
0.0057969
-0.00111985
0.00603114
-0.001779
0.005887
-0.00218958
0.00543905
-0.00235598
0.00477836
-0.0023157
0.00399968
-0.0021208
0.00318718
-0.0018247
0.00240292
-0.00146852
0.00169588
-0.00110229
0.00109897
-0.000764371
0.000619604
-0.000468922
0.000263273
-0.000268539
3.43631e-06
-0.000169041
-0.000195513
-0.000140169
-0.000350318
-0.00014193
-0.000466266
-0.000148742
-0.000546354
-0.000157779
-0.00059463
-0.000169267
-0.000614964
-0.000183964
-0.000614172
-0.000204138
-0.000602213
-0.000230387
-0.000584742
-0.000257034
-0.000560748
-0.000275558
-0.00052187
-0.00027629
-0.000449402
-0.000247997
-0.000314236
-0.000173695
-0.00013241
-2.42695e-05
8.1062e-05
0.0001744
0.000350055
0.000383149
0.000686719
0.000591113
0.00113215
0.000794448
0.00162379
0.000794625
0.00183464
0.000513408
0.00109269
0.00157058
0.00480684
0.00996106
0.013582
0.012447
0.00202645
0.0117352
0.000999567
0.0110837
0.000329627
0.010216
-0.000252161
0.00908262
-0.000645582
0.007787
-0.000893955
0.00642319
-0.000992172
0.00506445
-0.00095697
0.0037774
-0.000833745
0.00261498
-0.000662291
0.00159885
-0.000452392
0.000752928
-0.000256364
8.48413e-05
-9.62847e-05
-0.000390158
6.07702e-06
-0.000686567
2.78694e-05
-0.000870329
1.47218e-05
-0.000999557
-1.09407e-05
-0.00110245
-3.90412e-05
-0.00118595
-6.52397e-05
-0.00125329
-9.04362e-05
-0.00130831
-0.000114243
-0.00135535
-0.000136933
-0.00140098
-0.000158503
-0.00145333
-0.000178038
-0.00151987
-0.000190497
-0.0016077
-0.000187727
-0.0017254
-0.000158591
-0.00188344
-8.99509e-05
-0.00208759
3.04471e-05
-0.00232447
0.000212617
-0.00262052
0.000470453
-0.00305801
0.00082063
-0.00372854
0.00126165
-0.00469917
0.00176507
-0.00608645
0.00218191
-0.00777255
0.00219951
-0.00730326
0.00110129
-0.00222043
0.00468268
0.00351867
0.00381669
0.00186556
0.00421387
-6.75509e-05
0.00422437
-0.00026266
0.00382448
-0.000245698
0.00319763
-0.000267107
0.00244898
-0.000243516
0.00164633
-0.000154327
0.000832974
-2.03846e-05
5.82514e-05
0.000112432
-0.000590563
0.000196422
-0.00105519
0.000208259
-0.00135279
0.00020132
-0.00152343
0.000176714
-0.00162897
0.000133413
-0.00170416
8.99107e-05
-0.00176665
5.1545e-05
-0.00182591
2.02208e-05
-0.00188649
-4.66005e-06
-0.00194999
-2.69342e-05
-0.00201723
-4.69994e-05
-0.0020901
-6.40674e-05
-0.00217195
-7.6647e-05
-0.00226498
-8.5014e-05
-0.00237017
-8.53058e-05
-0.00248647
-7.14306e-05
-0.00260983
-3.52244e-05
-0.00273271
3.29264e-05
-0.00284288
0.000140617
-0.00293698
0.000306718
-0.0030229
0.000556372
-0.00310615
0.000903881
-0.00318261
0.00133812
-0.00320742
0.00178988
-0.00312875
0.00210324
-0.0027687
0.00183946
-0.00150633
-0.000161082
-0.00365468
-0.000543894
0.00412704
0.000295862
0.0010258
-6.66857e-05
0.000294996
-0.000421328
9.19831e-05
-0.000737153
7.01273e-05
-0.00109067
8.64134e-05
-0.0014572
0.000123007
-0.00178278
0.000171253
-0.00201938
0.000216219
-0.00215601
0.00024906
-0.00221956
0.00025997
-0.00224833
0.000237035
-0.00224963
0.00020262
-0.00223958
0.000166662
-0.00223777
0.000131607
-0.0022494
0.000101538
-0.00227433
7.64718e-05
-0.00230992
5.58094e-05
-0.0023535
3.89272e-05
-0.00240593
2.5497e-05
-0.00246612
1.31857e-05
-0.00253188
1.69094e-06
-0.0026006
-7.9221e-06
-0.00267045
-1.51624e-05
-0.00273743
-1.83257e-05
-0.00279459
-1.42734e-05
-0.00283093
1.11861e-06
-0.00283591
3.79034e-05
-0.00279971
0.000104418
-0.00270079
0.000207797
-0.00250782
0.0003634
-0.00219399
0.00059005
-0.00174016
0.000884291
-0.00111842
0.00116813
-0.000157777
0.0011426
0.00114172
0.00053996
0.00158269
-0.000602055
-0.00199304
-0.00723103
-0.0101291
-0.00595927
-0.00491345
-0.00460719
-0.0045082
-0.00443371
-0.00434491
-0.00422114
-0.00405049
-0.0038361
-0.00359002
-0.00333415
-0.00310225
-0.00290566
-0.00274576
-0.00262146
-0.00252768
-0.00245929
-0.00241181
-0.00238141
-0.00236456
-0.00236011
-0.00236718
-0.00238384
-0.00240766
-0.00243453
-0.00245719
-0.00246425
-0.00243428
-0.00233754
-0.00213714
-0.00178085
-0.00119764
-0.000319934
0.00084182
0.00197801
0.00251133
0.00190225
)
;

boundaryField
{
    floor
    {
        type            calculated;
        value           nonuniform List<scalar> 
29
(
0
0
0
0
0
0
0
0
0
0
0
0
0
0
0
0
0
0
0
0
-3.61254e-06
-9.29335e-06
-1.41687e-05
-1.85848e-05
-1.43139e-06
-2.68149e-06
-7.62119e-06
-7.97431e-06
-7.24875e-06
)
;
    }
    ceiling
    {
        type            calculated;
        value           nonuniform List<scalar> 
43
(
-4.54158e-05
-4.40971e-05
-4.27879e-05
-2.00191e-05
-1.12603e-05
-7.00485e-06
-4.37077e-06
-2.38047e-06
-7.65541e-07
6.05716e-07
1.83014e-06
2.97783e-06
4.09426e-06
5.13711e-06
6.03386e-06
6.7548e-06
7.31604e-06
7.74916e-06
8.08212e-06
8.33481e-06
8.52143e-06
8.65168e-06
8.73203e-06
8.76168e-06
8.73639e-06
8.66365e-06
8.54521e-06
8.38338e-06
8.1805e-06
7.93674e-06
7.6714e-06
7.39446e-06
7.11332e-06
6.83812e-06
6.58826e-06
6.37809e-06
6.40915e-06
6.64317e-06
7.03023e-06
8.2544e-06
1.11461e-05
8.0886e-06
-6.44692e-05
)
;
    }
    sWall
    {
        type            calculated;
        value           uniform -0.000274858;
    }
    nWall
    {
        type            calculated;
        value           nonuniform List<scalar> 6(-4.71988e-05 -5.6586e-05 -6.12916e-05 -7.20736e-05 -7.89534e-05 -9.9046e-05);
    }
    sideWalls
    {
        type            empty;
        value           nonuniform 0();
    }
    glass1
    {
        type            calculated;
        value           nonuniform List<scalar> 9(-5.62418e-05 -0.000151405 -0.000231525 -0.000299732 -0.000357642 -0.000406488 -0.000450696 -0.000504267 -0.000564205);
    }
    glass2
    {
        type            calculated;
        value           nonuniform List<scalar> 2(-0.000249464 -0.000275998);
    }
    sun
    {
        type            calculated;
        value           uniform 0;
    }
    heatsource1
    {
        type            calculated;
        value           nonuniform List<scalar> 3(2.03957e-07 2.03915e-07 2.03932e-07);
    }
    heatsource2
    {
        type            calculated;
        value           nonuniform List<scalar> 4(5.10929e-08 5.12162e-08 0 0);
    }
    Table_master
    {
        type            calculated;
        value           nonuniform List<scalar> 9(-1.52967e-07 -1.53047e-07 -1.53076e-07 -1.53095e-07 -1.53109e-07 -1.53118e-07 -1.53122e-07 -1.53115e-07 -1.53083e-07);
    }
    Table_slave
    {
        type            calculated;
        value           nonuniform List<scalar> 9(1.52847e-07 1.52872e-07 1.52855e-07 1.5284e-07 1.52836e-07 1.52839e-07 1.52855e-07 1.52897e-07 1.52977e-07);
    }
    inlet
    {
        type            calculated;
        value           uniform -0.0061749;
    }
    outlet
    {
        type            calculated;
        value           nonuniform List<scalar> 2(0.0075513 0.00294216);
    }
}


// ************************************************************************* //
