/*--------------------------------*- C++ -*----------------------------------*\
  =========                 |
  \\      /  F ield         | OpenFOAM: The Open Source CFD Toolbox
   \\    /   O peration     | Website:  https://openfoam.org
    \\  /    A nd           | Version:  6
     \\/     M anipulation  |
\*---------------------------------------------------------------------------*/
FoamFile
{
    version     2.0;
    format      ascii;
    class       surfaceScalarField;
    location    "440";
    object      phi;
}
// * * * * * * * * * * * * * * * * * * * * * * * * * * * * * * * * * * * * * //

dimensions      [1 0 -1 0 0 0 0];

internalField   nonuniform List<scalar> 
852
(
0.00064301
-0.000646585
0.00089546
-0.00025251
0.00194741
-0.00105201
0.00292532
-0.000977978
0.0035737
-0.000648437
0.00393734
-0.000363707
0.00409544
-0.000158157
0.00410669
-1.13091e-05
0.004007
9.96297e-05
0.0038143
0.000192632
0.00353201
0.000282234
0.00314283
0.000389116
0.00259241
0.000550359
0.00171709
0.000875256
0.00171345
8.32261e-06
-1.30185e-05
-9.06895e-05
9.89306e-05
0.000236406
-0.000327174
0.00069205
-0.000455723
0.0010561
-0.000364133
0.00129945
-0.000243427
0.00143833
-0.000138955
0.00151361
-7.53675e-05
0.00156266
-4.91222e-05
0.00159843
-3.58538e-05
0.00162386
-2.55126e-05
0.00163832
-1.45428e-05
0.00163586
2.38477e-06
0.00160137
3.44024e-05
0.0015021
9.9189e-05
0.00128229
0.000219722
0.000892485
0.000389723
0.000184284
0.000708116
0.00017757
0.000255954
-0.000912666
0.000785258
-0.000781875
0.00166387
-0.00193069
0.00246336
-0.00177754
0.00298548
-0.00117062
0.00325994
-0.000638234
0.00336054
-0.000258824
0.00334034
8.8225e-06
0.00323196
0.00020795
0.00305992
0.000364606
0.0028372
0.000504891
0.00256984
0.000656404
0.00227238
0.000847758
0.0020513
0.00109627
0.00234309
0.0014216
0.00112545
0.00121752
0.00112533
-6.08584e-05
3.75909e-05
0.000429487
-0.000391494
0.000820175
-0.000717939
0.00111164
-0.000747264
0.00133105
-0.000583623
0.00146548
-0.000377939
0.00149407
-0.000167619
0.00150453
-8.59072e-05
0.00151426
-5.89306e-05
0.00152251
-4.41902e-05
0.001529
-3.20767e-05
0.00153381
-1.94405e-05
0.00153463
1.48974e-06
0.00152504
4.39084e-05
0.00147204
0.000152108
0.00126152
0.000430158
0.000928086
0.000723069
0.000565726
0.00107039
0.000726009
3.66861e-05
-0.000965553
0.000455293
-0.00120054
0.00117602
-0.00265149
0.00184574
-0.00244734
0.00221178
-0.00153674
0.00235973
-0.000786263
0.0023779
-0.000277059
0.00232135
6.53038e-05
0.0022286
0.00030063
0.00212022
0.00047291
0.00200531
0.000619735
0.0018912
0.000770443
0.00179308
0.000945812
0.00173042
0.00115886
0.00168402
0.00146794
0.00121564
0.00168583
0.00234091
0.000249461
-0.000229242
0.000981679
-0.00112379
0.00135538
-0.00109171
0.00152274
-0.000914703
0.00161585
-0.000676808
0.00165967
-0.000421836
0.00149212
0.00140629
0.00134744
0.00130332
0.00127132
0.00125195
0.00125351
0.00129749
0.00144967
0.00118509
0.000694659
0.000955472
0.0009526
0.000726434
0.00129934
0.00142617
-0.00014869
-0.000838757
1.89322e-05
-0.00136823
0.000560736
-0.00319337
0.0011142
-0.0030009
0.00131501
-0.00173765
0.00132884
-0.000800176
0.00127369
-0.000221989
0.00121517
0.000123758
0.00118257
0.000333152
0.00117346
0.000481949
0.00118068
0.000612448
0.00120385
0.000747196
0.0012492
0.0009004
0.00132465
0.00108334
0.00146989
0.00132262
0.00170303
0.00145263
0.00255956
0.00148431
0.0021068
0.000429186
0.0023859
-0.000508405
0.00208772
-0.000825676
0.00193066
-0.000934729
0.00183215
-0.00081627
0.00176447
-0.000609212
0.00170921
-0.000366653
0.00181378
-0.000104809
0.00181033
3.2154e-06
0.00175046
5.96246e-05
0.00165366
9.65598e-05
0.00152661
0.000126814
0.00137013
0.000156234
0.00117948
0.000190407
0.000941163
0.000238078
0.000617086
0.000323833
0.000719237
0.00059242
0.00077352
0.000898231
0.000878826
0.00119395
0.00227174
-0.000363797
-0.000502233
-0.000404728
-0.00132736
-2.84093e-05
-0.00356977
0.000364119
-0.00339354
0.000436852
-0.00181048
0.000367986
-0.000731402
0.000302592
-0.000156678
0.00029247
0.000133803
0.000331782
0.000293766
0.00040304
0.000410617
0.000497345
0.00051807
0.000615126
0.000629343
0.000766003
0.000749452
0.000970977
0.000878295
0.00128201
0.00101152
0.00168841
0.00104616
0.00221848
0.000954171
0.00241467
0.00023293
0.00226517
-0.000358978
0.00206744
-0.000628024
0.00183432
-0.000701679
0.00163239
-0.000614425
0.00146686
-0.000443759
0.00133966
-0.000239543
0.00127102
-3.62519e-05
0.00117648
9.76646e-05
0.00106533
0.000170684
0.000945673
0.00021613
0.000819083
0.000253314
0.000684436
0.00029079
0.00054089
0.000333862
0.000392891
0.000385986
0.000288124
0.000428509
0.000365745
0.000514708
0.000640481
0.000623407
0.00130217
0.000532169
0.00232192
0.00125191
0.0010545
0.00126712
-9.16351e-05
0.00114584
-0.000123823
-0.000458299
-7.60386e-05
-0.000751117
-0.0010346
-0.000504184
-0.00381678
-0.000266487
-0.00363135
-0.000221504
-0.00185558
-0.000269582
-0.000683418
-0.000302785
-0.000123559
-0.000287589
0.000118528
-0.000229472
0.00023557
-0.000134983
0.000316051
-6.31911e-06
0.000389329
0.000156653
0.000466294
0.000357951
0.00054808
0.000611486
0.000624686
0.000939764
0.000683171
0.00132031
0.000665537
0.00175062
0.000523789
0.0018815
0.000101975
0.00176879
-0.000246345
0.00157026
-0.000429573
0.00132772
-0.000459225
0.00109149
-0.000378274
0.000884873
-0.000237232
0.00071335
-6.811e-05
0.000582755
9.42523e-05
0.000477521
0.000202807
0.000380018
0.000268095
0.000282219
0.000313836
0.000181941
0.0003535
8.08865e-05
0.000391751
-1.2343e-05
0.000426998
-7.56332e-05
0.000449183
-7.74641e-05
0.000430246
5.44323e-05
0.000382719
0.000304345
0.000373403
0.000521094
0.00031533
0.000723611
0.00104931
0.000338221
0.00165242
-0.000295482
0.00177945
-0.000450682
-0.000313564
0.000201828
-0.00090344
-0.00044478
-0.000741
-0.00397929
-0.00055485
-0.00381761
-0.000510827
-0.00189973
-0.00055703
-0.000637314
-0.00060527
-7.54084e-05
-0.000610114
0.000123288
-0.000568041
0.000193414
-0.000485045
0.000232972
-0.000365339
0.00026954
-0.000207908
0.000308782
-7.62128e-06
0.000347712
0.000234932
0.000382053
0.00051642
0.000401604
0.000812788
0.00036909
0.00107848
0.000258016
0.0011353
4.50788e-05
0.00102653
-0.00013766
0.000828177
-0.000231311
0.00059336
-0.000224498
0.000361393
-0.0001464
0.000154079
-3.00114e-05
-8.32797e-06
9.42029e-05
-0.000114554
0.000200384
-0.000187118
0.000275276
-0.000250247
0.000331128
-0.000312087
0.000375581
-0.000370814
0.000412131
-0.000418387
0.000439229
-0.000441545
0.000450062
-0.000424494
0.000432035
-0.000363739
0.000369395
-0.000263687
0.000282573
-0.000135499
0.000245123
-7.24088e-05
0.000252148
8.36988e-05
0.000893109
-3.54915e-05
0.00177152
-0.000168688
0.00191255
-0.000648631
-9.09399e-05
0.000252573
-0.000798077
0.000262312
-0.000446305
-0.00433111
-0.000310043
-0.00395397
-0.000446979
-0.00176293
-0.00066024
-0.00042416
-0.000796097
6.03532e-05
-0.000845002
0.000172101
-0.000831531
0.000179851
-0.000773323
0.000174674
-0.000679859
0.000175988
-0.000555451
0.000184284
-0.000403369
0.000195543
-0.000227014
0.000205611
-3.33267e-05
0.000207829
0.000147302
0.000188374
0.000268163
0.000137066
0.000263595
4.95569e-05
0.000150048
-2.42057e-05
-3.2791e-05
-4.85654e-05
-0.00023809
-1.92942e-05
-0.000426648
4.20616e-05
-0.000571232
0.000114474
-0.000662742
0.000185615
-0.0007146
0.000252144
-0.000747321
0.000307898
-0.000770379
0.000354089
-0.000785488
0.000390591
-0.000788344
0.00041489
-0.000771075
0.000421861
-0.000725087
0.000403975
-0.000646185
0.000353035
-0.000544161
0.000267274
-0.00043261
0.000170926
-0.000302337
0.000114754
-0.00020151
0.000151227
0.000109893
0.000581615
0.000442627
0.00143869
0.00115087
0.00120421
0.000338609
0.00017388
0.000401372
0.000871366
-0.00480114
0.000438697
-0.00352139
-0.000325485
-0.000998886
-0.000838913
8.91551e-05
-0.00106583
0.000287172
-0.00114401
0.000250177
-0.00115162
0.000187366
-0.00112009
0.000143044
-0.00106313
0.000118936
-0.000988002
0.000109057
-0.000900487
0.000107932
-0.000806816
0.000111845
-0.000716378
0.000117296
-0.000646838
0.000118738
-0.00062015
0.000110282
-0.000659151
8.8461e-05
-0.000754547
7.10909e-05
-0.000877552
7.434e-05
-0.000994948
9.80016e-05
-0.00108522
0.00013223
-0.00114253
0.000171691
-0.0011704
0.000213378
-0.00117385
0.000255494
-0.00116057
0.000294521
-0.00113434
0.00032775
-0.00109545
0.000351605
-0.00104212
0.00036146
-0.000971971
0.000351611
-0.000883942
0.000315846
-0.000780835
0.000249828
-0.000670661
0.000157
-0.00055567
5.5835e-05
-0.000413333
-2.76815e-05
-0.000243716
-1.84867e-05
0.00010905
0.000228755
0.000701636
0.000846013
0.00127505
0.000630701
0.00143667
0.00331016
-0.00165863
0.000596289
-0.00080759
-0.000830274
0.000427541
-0.00136569
0.000624457
-0.00150904
0.000430416
-0.00153979
0.000280828
-0.0015357
0.000183171
-0.00151784
0.000125073
-0.00149255
9.35449e-05
-0.00146276
7.91665e-05
-0.00143114
7.62074e-05
-0.00140075
8.13549e-05
-0.00137548
9.19304e-05
-0.00136096
0.000104112
-0.00136353
0.000112755
-0.0013894
0.000114226
-0.00143209
0.000113679
-0.00147602
0.000118159
-0.00150743
0.000129313
-0.00152048
0.000145171
-0.00151372
0.000164826
-0.00148807
0.000187633
-0.001445
0.000212317
-0.00138688
0.000236297
-0.00131572
0.000256484
-0.00123341
0.00026919
-0.00114229
0.000270237
-0.00104589
0.000255117
-0.000949844
0.000219693
-0.000862213
0.000162094
-0.000791387
8.6072e-05
-0.000740439
4.78645e-06
-0.000696067
-7.21541e-05
-0.000636724
-7.79297e-05
-0.000540404
0.000132338
-0.000271898
0.00057741
-0.000104406
0.000463111
0.00129755
-0.00178303
8.65496e-05
-0.00256916
-2.15679e-05
-0.00240187
0.000260142
-0.00216133
0.000383804
-0.00202751
0.000296486
-0.00195052
0.000203739
-0.00190762
0.000140163
-0.00188429
0.000101632
-0.00187102
8.01753e-05
-0.00186201
7.00473e-05
-0.00185366
6.77533e-05
-0.00184364
7.12323e-05
-0.00183071
7.88954e-05
-0.00181537
8.86677e-05
-0.00180036
9.76319e-05
-0.00178957
0.00010333
-0.00178272
0.000106725
-0.00177499
0.00011032
-0.00176105
0.00011527
-0.00173758
0.000121598
-0.00170233
0.000129467
-0.00165359
0.000138788
-0.00159023
0.000148854
-0.00151223
0.000158186
-0.00142074
0.000164892
-0.00131843
0.000166776
-0.00120981
0.000161514
-0.00110175
0.000146956
-0.00100403
0.000121861
-0.000929352
8.73155e-05
-0.000891387
4.8004e-05
-0.000896813
1.01099e-05
-0.000959829
-9.2393e-06
-0.00103979
1.93256e-06
-0.000989968
8.24128e-05
-0.000681195
0.000268537
-0.000618631
0.000400447
0.00063461
-0.00400657
-0.00326936
-0.00324023
-0.00331671
-0.00311124
-0.00278254
-0.00254132
-0.00239286
-0.00230798
-0.00226167
-0.00223687
-0.00222227
-0.00221004
-0.00219439
-0.00217114
-0.00213815
-0.00209625
-0.00204873
-0.00199794
-0.00194369
-0.00188465
-0.00181942
-0.00174642
-0.00166417
-0.00157187
-0.00147017
-0.00136162
-0.00125094
-0.00114516
-0.00105345
-0.000986285
-0.000953073
-0.00095867
-0.0010019
-0.00106449
-0.00111613
-0.00108701
-0.000870643
-0.000521939
)
;

boundaryField
{
    floor
    {
        type            calculated;
        value           nonuniform List<scalar> 
29
(
0
0
0
0
0
0
0
0
0
0
0
0
0
0
0
0
0
0
0
0
6.62556e-06
1.72001e-05
2.61837e-05
3.31665e-05
3.57669e-06
4.60811e-06
1.01654e-05
1.72937e-05
2.35062e-05
)
;
    }
    ceiling
    {
        type            calculated;
        value           nonuniform List<scalar> 
43
(
6.59033e-05
6.28787e-05
5.73105e-05
5.47983e-05
5.45694e-05
5.49855e-05
5.51582e-05
5.51736e-05
5.51773e-05
5.5209e-05
5.52672e-05
5.534e-05
5.54147e-05
5.54802e-05
5.55307e-05
5.55721e-05
5.56227e-05
5.57046e-05
5.58243e-05
5.59692e-05
5.61192e-05
5.62558e-05
5.63642e-05
5.64313e-05
5.64431e-05
5.6384e-05
5.62371e-05
5.59869e-05
5.56233e-05
5.51483e-05
5.45866e-05
5.39988e-05
5.34973e-05
5.32377e-05
5.32458e-05
5.347e-05
5.31859e-05
5.20707e-05
5.16392e-05
5.69521e-05
3.58687e-05
3.47793e-05
3.77452e-05
)
;
    }
    sWall
    {
        type            calculated;
        value           uniform 4.11101e-05;
    }
    nWall
    {
        type            calculated;
        value           nonuniform List<scalar> 6(3.18779e-05 3.12756e-05 2.91598e-05 3.46153e-05 4.42083e-05 5.56151e-05);
    }
    sideWalls
    {
        type            empty;
        value           nonuniform 0();
    }
    glass1
    {
        type            calculated;
        value           nonuniform List<scalar> 9(3.51744e-06 1.00694e-05 1.61435e-05 2.18376e-05 2.72164e-05 3.20488e-05 3.56435e-05 4.01503e-05 4.27797e-05);
    }
    glass2
    {
        type            calculated;
        value           nonuniform List<scalar> 2(0.000163534 0.000176883);
    }
    sun
    {
        type            calculated;
        value           uniform 0;
    }
    heatsource1
    {
        type            calculated;
        value           nonuniform List<scalar> 3(2.06005e-07 2.06415e-07 2.06576e-07);
    }
    heatsource2
    {
        type            calculated;
        value           nonuniform List<scalar> 4(5.17098e-08 5.18497e-08 0 0);
    }
    Table_master
    {
        type            calculated;
        value           nonuniform List<scalar> 9(-1.54892e-07 -1.54978e-07 -1.55001e-07 -1.55012e-07 -1.55015e-07 -1.55013e-07 -1.55005e-07 -1.54977e-07 -1.54914e-07);
    }
    Table_slave
    {
        type            calculated;
        value           nonuniform List<scalar> 9(1.54692e-07 1.5472e-07 1.54705e-07 1.54709e-07 1.54725e-07 1.54751e-07 1.54787e-07 1.54833e-07 1.54896e-07);
    }
    inlet
    {
        type            calculated;
        value           uniform -0.00645269;
    }
    outlet
    {
        type            calculated;
        value           nonuniform List<scalar> 2(0.00389944 -0.000800199);
    }
}


// ************************************************************************* //
