// -*- C++ -*-
// File generated by PyFoam - sorry for the ugliness

FoamFile
{
 version 2.0;
 format ascii;
 class volVectorField;
 location "100";
 object U;
}

dimensions [ 0 1 -1 0 0 0 0 ];

internalField nonuniform List<vector> 459
(
  (0.00905977 0.0923242 0)
  (-0.184637 0.0295548 0)
  (-0.218632 0.013136 0)
  (-0.24433 0.000327563 0)
  (-0.249108 -0.0131481 0)
  (-0.230231 -0.0275456 0)
  (-0.190167 -0.0417986 0)
  (-0.134512 -0.0525989 0)
  (-0.0728531 -0.0573702 0)
  (-0.00875156 -0.0526428 0)
  (0.0445383 -0.0371694 0)
  (0.0752244 -0.0224256 0)
  (0.0905671 -0.00736083 0)
  (0.0847651 0.0122432 0)
  (0.0656667 0.0503703 0)
  (-0.0412966 0.016678 0)
  (-0.0548471 -0.012571 0)
  (-0.0300043 -0.0311448 0)
  (0.000423302 -0.0366856 0)
  (0.0340488 -0.0305694 0)
  (0.060987 -0.0225366 0)
  (0.080355 -0.0132284 0)
  (0.0920255 -0.00805787 0)
  (0.0977466 -0.00608674 0)
  (0.100617 -0.00531239 0)
  (0.102538 -0.00482995 0)
  (0.103971 -0.00443127 0)
  (0.104831 -0.00399444 0)
  (0.104749 -0.00321638 0)
  (0.102747 -0.00144963 0)
  (0.0967839 0.00222162 0)
  (0.084338 0.00741876 0)
  (0.0635397 0.0152406 0)
  (0.0311752 0.0314087 0)
  (0.173746 0.190447 0)
  (-0.16203 0.0839131 0)
  (-0.172559 0.0539837 0)
  (-0.199321 0.0266873 0)
  (-0.205022 -0.00460143 0)
  (-0.187632 -0.0390022 0)
  (-0.150972 -0.0701821 0)
  (-0.1021 -0.0904491 0)
  (-0.0500976 -0.0961589 0)
  (0.000872129 -0.0847126 0)
  (0.041149 -0.0612565 0)
  (0.06907 -0.0350178 0)
  (0.086419 -0.00743771 0)
  (0.0952245 0.0222208 0)
  (0.0982765 0.0578621 0)
  (0.0969986 0.0575056 0)
  (0.0642206 0.0587936 0)
  (0.00356299 0.0518013 0)
  (0.00904481 -0.0123972 0)
  (0.0334446 -0.0454116 0)
  (0.051274 -0.0505645 0)
  (0.0692992 -0.0444499 0)
  (0.0851536 -0.0333339 0)
  (0.0932734 -0.0156567 0)
  (0.095563 -0.00465725 0)
  (0.0957426 -0.000349941 0)
  (0.0960749 0.00128025 0)
  (0.0966678 0.00214934 0)
  (0.0971647 0.00274591 0)
  (0.0974765 0.00344403 0)
  (0.097548 0.00492731 0)
  (0.0965335 0.00853503 0)
  (0.0910561 0.0177994 0)
  (0.0773857 0.0283108 0)
  (0.0556263 0.0414282 0)
  (0.00878072 0.0645295 0)
  (0.325506 0.283459 0)
  (-0.166474 0.129107 0)
  (-0.128767 0.0847406 0)
  (-0.154626 0.0393503 0)
  (-0.159001 -0.0120975 0)
  (-0.139384 -0.0668144 0)
  (-0.103349 -0.113467 0)
  (-0.0604758 -0.13962 0)
  (-0.0181653 -0.142479 0)
  (0.0207748 -0.12243 0)
  (0.0502298 -0.0911715 0)
  (0.072893 -0.056043 0)
  (0.0881537 -0.0203129 0)
  (0.0974193 0.0154274 0)
  (0.101811 0.0491504 0)
  (0.0958939 0.067214 0)
  (0.0785423 0.107969 0)
  (0.0672733 0.000732139 0)
  (0.0821803 -0.0441353 0)
  (0.0908193 -0.0623307 0)
  (0.0970315 -0.0640408 0)
  (0.102789 -0.0566806 0)
  (0.109164 -0.0475755 0)
  (0.108972 -0.0364195 0)
  (0.0965159 -0.0239541 0)
  (0.0865563 -0.0170696 0)
  (0.0818844 -0.0131202 0)
  (0.0797119 -0.0105183 0)
  (0.0782151 -0.00869531 0)
  (0.0771167 -0.007247 0)
  (0.0771842 -0.00536558 0)
  (0.0806638 0.000250752 0)
  (0.0792082 0.0238689 0)
  (0.0656515 0.0437167 0)
  (0.0484167 0.0653658 0)
  (-0.0126483 0.0994732 0)
  (0.464255 0.357456 0)
  (-0.189714 0.167239 0)
  (-0.0850873 0.111862 0)
  (-0.108285 0.0515735 0)
  (-0.106021 -0.0192538 0)
  (-0.0792529 -0.0951471 0)
  (-0.043756 -0.15401 0)
  (-0.00925626 -0.181419 0)
  (0.0219147 -0.178411 0)
  (0.0464 -0.152887 0)
  (0.0663828 -0.115006 0)
  (0.0815485 -0.0730218 0)
  (0.092216 -0.0315878 0)
  (0.100354 0.00753004 0)
  (0.108584 0.0429931 0)
  (0.121059 0.0717089 0)
  (0.141704 0.109944 0)
  (0.180517 0.0847995 0)
  (0.169902 0.0173946 0)
  (0.15533 -0.0287989 0)
  (0.142304 -0.0523091 0)
  (0.130524 -0.058109 0)
  (0.120342 -0.0531228 0)
  (0.111087 -0.0419555 0)
  (0.109571 -0.0246148 0)
  (0.118538 -0.0150654 0)
  (0.123803 -0.0095676 0)
  (0.122818 -0.00587946 0)
  (0.1182 -0.00298856 0)
  (0.111356 -0.000437592 0)
  (0.102197 0.00215888 0)
  (0.0896687 0.00537517 0)
  (0.0698866 0.0101088 0)
  (0.0559311 0.0355169 0)
  (0.0482877 0.0589252 0)
  (0.0441755 0.0856377 0)
  (-0.028505 0.131307 0)
  (0.585907 0.413585 0)
  (-0.223375 0.196399 0)
  (-0.0442385 0.127706 0)
  (-0.06006 0.0571854 0)
  (-0.0398949 -0.0328618 0)
  (-0.00415422 -0.126665 0)
  (0.0268929 -0.188223 0)
  (0.0485218 -0.20908 0)
  (0.0644116 -0.200388 0)
  (0.0755205 -0.170236 0)
  (0.0830968 -0.127964 0)
  (0.087909 -0.0821388 0)
  (0.0912191 -0.0385112 0)
  (0.0955741 0.000265394 0)
  (0.102599 0.0330038 0)
  (0.115652 0.0560446 0)
  (0.137216 0.064882 0)
  (0.154687 0.0236029 0)
  (0.154987 -0.0129234 0)
  (0.1473 -0.0341193 0)
  (0.13515 -0.0444941 0)
  (0.12109 -0.0463517 0)
  (0.10746 -0.0413883 0)
  (0.0958213 -0.0306296 0)
  (0.0896067 -0.0134551 0)
  (0.088271 -0.00232064 0)
  (0.0858722 0.00367818 0)
  (0.0816929 0.0072696 0)
  (0.0765562 0.0100707 0)
  (0.0709788 0.0128335 0)
  (0.0648366 0.0161612 0)
  (0.0578661 0.020801 0)
  (0.0490806 0.0279313 0)
  (0.0420306 0.044838 0)
  (0.039627 0.0666847 0)
  (0.052572 0.0949566 0)
  (0.0237706 0.138952 0)
  (0.0644212 0.0785596 0)
  (-0.0449875 -0.0313073 0)
  (-0.24367 -0.0481518 0)
  (0.679456 0.458095 0)
  (-0.259079 0.213226 0)
  (-0.010641 0.121748 0)
  (-0.00421743 0.0438688 0)
  (0.0473003 -0.0710856 0)
  (0.0812229 -0.157729 0)
  (0.101208 -0.207752 0)
  (0.108869 -0.221577 0)
  (0.107968 -0.206723 0)
  (0.101902 -0.172302 0)
  (0.0934396 -0.127251 0)
  (0.0848006 -0.0802824 0)
  (0.0779867 -0.0375715 0)
  (0.0750588 -0.00211963 0)
  (0.0773717 0.024749 0)
  (0.0866046 0.0400352 0)
  (0.102417 0.0402717 0)
  (0.114427 0.018033 0)
  (0.116314 -0.00377287 0)
  (0.109895 -0.0198386 0)
  (0.0987537 -0.029184 0)
  (0.08571 -0.0316666 0)
  (0.072676 -0.0282009 0)
  (0.0611532 -0.0199392 0)
  (0.0529606 -0.00831529 0)
  (0.0478292 0.000653934 0)
  (0.0439593 0.0061778 0)
  (0.0404534 0.00970243 0)
  (0.0371411 0.012588 0)
  (0.0341625 0.0156179 0)
  (0.031586 0.0194215 0)
  (0.0296196 0.0246864 0)
  (0.0281648 0.0322282 0)
  (0.0292241 0.0450498 0)
  (0.034207 0.0635647 0)
  (0.0544133 0.08903 0)
  (0.0560579 0.118597 0)
  (0.0888094 0.0850125 0)
  (0.104841 0.0499613 0)
  (-0.112016 0.00423654 0)
  (0.755155 0.497441 0)
  (-0.274862 0.192293 0)
  (0.0363792 0.0493928 0)
  (0.0996175 -0.0332023 0)
  (0.15106 -0.1205 0)
  (0.175721 -0.184779 0)
  (0.179785 -0.216416 0)
  (0.167412 -0.216734 0)
  (0.144135 -0.193403 0)
  (0.116241 -0.155238 0)
  (0.0884889 -0.109631 0)
  (0.0645273 -0.0646853 0)
  (0.0467627 -0.0262278 0)
  (0.0360932 0.00279214 0)
  (0.0356855 0.0213622 0)
  (0.0428214 0.0299778 0)
  (0.0543957 0.028148 0)
  (0.0626872 0.0147426 0)
  (0.0637997 -0.000364016 0)
  (0.0589583 -0.0120348 0)
  (0.0497627 -0.0185692 0)
  (0.0385879 -0.0198542 0)
  (0.0271239 -0.0167012 0)
  (0.0168578 -0.0102106 0)
  (0.00916228 -0.00185814 0)
  (0.00406196 0.00506265 0)
  (0.00153894 0.00940788 0)
  (-8.45229e-05 0.0122109 0)
  (-0.00103999 0.014504 0)
  (-0.00123102 0.0169022 0)
  (-0.000395274 0.0198823 0)
  (0.00198181 0.0239632 0)
  (0.00616525 0.0296303 0)
  (0.0136311 0.0385223 0)
  (0.0245851 0.0518027 0)
  (0.0471803 0.0711637 0)
  (0.066268 0.089311 0)
  (0.0967735 0.0680642 0)
  (0.137265 0.0493469 0)
  (-0.0596983 0.0891358 0)
  (0.867113 0.484679 0)
  (-0.0176075 0.163173 0)
  (0.143136 -0.0487864 0)
  (0.26061 -0.127879 0)
  (0.292261 -0.169856 0)
  (0.284438 -0.19501 0)
  (0.254963 -0.20017 0)
  (0.210258 -0.184912 0)
  (0.157118 -0.154395 0)
  (0.103885 -0.115635 0)
  (0.0563332 -0.0735753 0)
  (0.0197785 -0.0357005 0)
  (-0.00413388 -0.00682691 0)
  (-0.0149072 0.0100948 0)
  (-0.0142496 0.018847 0)
  (-0.00812189 0.0221867 0)
  (0.000435338 0.0197093 0)
  (0.0060796 0.0111306 0)
  (0.00633527 0.00150027 0)
  (0.00261105 -0.00589502 0)
  (-0.00496371 -0.00965753 0)
  (-0.014047 -0.00974084 0)
  (-0.0231036 -0.00690075 0)
  (-0.0308403 -0.0021064 0)
  (-0.0364736 0.00327695 0)
  (-0.0388552 0.00749373 0)
  (-0.0395653 0.0103208 0)
  (-0.0393402 0.0122743 0)
  (-0.038335 0.0137763 0)
  (-0.0364005 0.0150805 0)
  (-0.0331811 0.0163397 0)
  (-0.0281857 0.0176708 0)
  (-0.0210784 0.0192354 0)
  (-0.0114028 0.0217253 0)
  (0.00151192 0.0264715 0)
  (0.0247472 0.0357631 0)
  (0.0503992 0.0391781 0)
  (0.0762254 0.0152441 0)
  (0.14595 0.043779 0)
  (-0.387735 0.182669 0)
  (1.02538 0.421469 0)
  (0.48684 0.273927 0)
  (0.507375 0.156085 0)
  (0.510516 0.0296331 0)
  (0.456196 -0.0609131 0)
  (0.374204 -0.110229 0)
  (0.28612 -0.12456 0)
  (0.198227 -0.11324 0)
  (0.11455 -0.0868303 0)
  (0.0419413 -0.0548268 0)
  (-0.0169233 -0.0223627 0)
  (-0.0491579 -0.00269275 0)
  (-0.0642998 0.00771845 0)
  (-0.0677043 0.0129132 0)
  (-0.0656695 0.0155378 0)
  (-0.0607882 0.0160845 0)
  (-0.0552972 0.0139889 0)
  (-0.0520384 0.00924202 0)
  (-0.0523332 0.00388907 0)
  (-0.0553974 -0.000212729 0)
  (-0.0606229 -0.00216116 0)
  (-0.0668666 -0.00208888 0)
  (-0.0728225 -0.000540366 0)
  (-0.0773379 0.00176902 0)
  (-0.0795543 0.00407732 0)
  (-0.0801002 0.00587759 0)
  (-0.0797005 0.00714027 0)
  (-0.0788844 0.00802253 0)
  (-0.0780076 0.00872611 0)
  (-0.0773886 0.00948758 0)
  (-0.0774831 0.0106184 0)
  (-0.0791267 0.0126327 0)
  (-0.0837775 0.0164932 0)
  (-0.0933069 0.0237644 0)
  (-0.109335 0.036033 0)
  (-0.132675 0.0535539 0)
  (-0.168634 0.0731054 0)
  (-0.2211 0.0908322 0)
  (-0.296374 0.104214 0)
  (-0.554333 0.106036 0)
  (-0.0194756 -0.0558755 0)
  (0.134455 -0.0938192 0)
  (0.167128 -0.106541 0)
  (0.121828 -0.0892918 0)
  (0.0653292 -0.0626385 0)
  (0.00491637 -0.0329365 0)
  (-0.0508737 -0.00825314 0)
  (-0.0883241 0.00514509 0)
  (-0.109559 0.0114773 0)
  (-0.117853 0.0132149 0)
  (-0.120042 0.0140074 0)
  (-0.118877 0.0146189 0)
  (-0.115968 0.0152275 0)
  (-0.112328 0.0155111 0)
  (-0.109107 0.0149968 0)
  (-0.107612 0.0136564 0)
  (-0.108403 0.0123448 0)
  (-0.111036 0.0120033 0)
  (-0.114608 0.0130953 0)
  (-0.118108 0.0154086 0)
  (-0.120789 0.0184904 0)
  (-0.122274 0.0219347 0)
  (-0.122497 0.0254327 0)
  (-0.121737 0.0287573 0)
  (-0.120349 0.0317028 0)
  (-0.118685 0.0340451 0)
  (-0.117088 0.0355962 0)
  (-0.115893 0.0363387 0)
  (-0.115382 0.0366052 0)
  (-0.115718 0.0372366 0)
  (-0.116877 0.0396632 0)
  (-0.118559 0.0458453 0)
  (-0.120007 0.0576695 0)
  (-0.119988 0.0750092 0)
  (-0.117109 0.0916316 0)
  (-0.105134 0.0893853 0)
  (-0.0806459 0.0306002 0)
  (-0.201192 -0.175286 0)
  (0.137755 0.121957 0)
  (-0.009604 0.0166002 0)
  (-0.0423177 -0.028044 0)
  (-0.0905154 -0.0269265 0)
  (-0.130452 -0.017615 0)
  (-0.156707 -0.0109673 0)
  (-0.169825 -0.00916571 0)
  (-0.174018 -0.0105521 0)
  (-0.174126 -0.0129427 0)
  (-0.171903 -0.0158713 0)
  (-0.168815 -0.0182528 0)
  (-0.165245 -0.0200348 0)
  (-0.161387 -0.0215997 0)
  (-0.157503 -0.023634 0)
  (-0.154094 -0.0268492 0)
  (-0.151773 -0.0316153 0)
  (-0.15084 -0.0376687 0)
  (-0.151094 -0.0443699 0)
  (-0.152018 -0.0510694 0)
  (-0.153065 -0.0573717 0)
  (-0.153857 -0.0630977 0)
  (-0.154211 -0.0681742 0)
  (-0.154067 -0.0725442 0)
  (-0.153424 -0.0760938 0)
  (-0.152275 -0.0785334 0)
  (-0.150581 -0.0793593 0)
  (-0.148269 -0.0779333 0)
  (-0.145229 -0.0736259 0)
  (-0.141267 -0.0659511 0)
  (-0.135975 -0.0546157 0)
  (-0.128499 -0.0394183 0)
  (-0.117392 -0.0200853 0)
  (-0.100811 0.00338938 0)
  (-0.0773669 0.0288492 0)
  (-0.0480678 0.0483915 0)
  (-0.0108385 0.0425848 0)
  (0.118236 -0.0415386 0)
  (-0.148006 -0.101958 0)
  (-0.0352346 -0.296772 0)
  (-0.384204 -0.111691 0)
  (-0.301366 0.0586792 0)
  (-0.294898 0.0402239 0)
  (-0.270616 0.0465946 0)
  (-0.26926 0.0555474 0)
  (-0.267288 0.0645653 0)
  (-0.261141 0.0726704 0)
  (-0.252424 0.0793852 0)
  (-0.243255 0.0847534 0)
  (-0.234985 0.0893898 0)
  (-0.228025 0.0935834 0)
  (-0.222166 0.0977347 0)
  (-0.216831 0.102235 0)
  (-0.211511 0.107541 0)
  (-0.205959 0.114091 0)
  (-0.200275 0.122176 0)
  (-0.1948 0.131821 0)
  (-0.189843 0.14271 0)
  (-0.185505 0.154259 0)
  (-0.181683 0.165826 0)
  (-0.178161 0.176943 0)
  (-0.174699 0.18739 0)
  (-0.171074 0.197099 0)
  (-0.16711 0.206003 0)
  (-0.162696 0.21389 0)
  (-0.157779 0.220331 0)
  (-0.152319 0.224739 0)
  (-0.146244 0.226523 0)
  (-0.139393 0.225282 0)
  (-0.131431 0.220964 0)
  (-0.121642 0.213959 0)
  (-0.10862 0.205154 0)
  (-0.0903621 0.196041 0)
  (-0.0656141 0.188874 0)
  (-0.0357306 0.186223 0)
  (0.00444113 0.187377 0)
  (0.0393996 0.188346 0)
  (0.141402 0.204848 0)
  (-0.29588 0.196501 0)
)
;

boundaryField
{
  floor
  {
    type noSlip;
  }
  ceiling
  {
    type noSlip;
  }
  sWall
  {
    type noSlip;
  }
  nWall
  {
    type noSlip;
  }
  sideWalls
  {
    type empty;
  }
  glass1
  {
    type noSlip;
  }
  glass2
  {
    type noSlip;
  }
  sun
  {
    type noSlip;
  }
  heatsource1
  {
    type noSlip;
  }
  heatsource2
  {
    type noSlip;
  }
  Table_master
  {
    type noSlip;
  }
  Table_slave
  {
    type noSlip;
  }
  inlet
  {
    type fixedValue;
    value uniform (0.277164 -0.114805 0);
  }
  outlet
  {
    type zeroGradient;
  }
} 	// ************************************************************************* //

