// -*- C++ -*-
// File generated by PyFoam - sorry for the ugliness

FoamFile
{
 version 2.0;
 format ascii;
 class volVectorField;
 location "120";
 object U;
}

dimensions [ 0 1 -1 0 0 0 0 ];

internalField nonuniform List<vector> 459
(
  (-0.00858931 0.0719488 0)
  (-0.151001 0.0208799 0)
  (-0.17569 7.65615e-05 0)
  (-0.179591 -0.0173359 0)
  (-0.154057 -0.0370711 0)
  (-0.103486 -0.0586325 0)
  (-0.0362167 -0.0744966 0)
  (0.0519807 -0.0606018 0)
  (0.104251 -0.0444483 0)
  (0.144952 -0.0298428 0)
  (0.169169 -0.0172785 0)
  (0.176156 -0.00600106 0)
  (0.165092 0.00669485 0)
  (0.132015 0.0266958 0)
  (0.118404 0.072991 0)
  (-0.109069 0.00707007 0)
  (-0.00235724 0.00790464 0)
  (-0.0239521 -0.0139722 0)
  (0.00115334 -0.027565 0)
  (0.0278153 -0.0239851 0)
  (0.0492007 -0.0175707 0)
  (0.0645621 -0.0103058 0)
  (0.0738988 -0.00628936 0)
  (0.0786064 -0.00473012 0)
  (0.0810973 -0.0040749 0)
  (0.0828254 -0.00362995 0)
  (0.0841061 -0.00321279 0)
  (0.0847756 -0.00268475 0)
  (0.0843002 -0.00171845 0)
  (0.0816307 0.000290272 0)
  (0.0747408 0.00433347 0)
  (0.062414 0.0105761 0)
  (0.00436941 0.0247917 0)
  (0.124165 0.00582186 0)
  (0.109266 0.152728 0)
  (-0.129305 0.0698217 0)
  (-0.138916 0.0313672 0)
  (-0.145288 -0.00674034 0)
  (-0.124062 -0.0511779 0)
  (-0.0802054 -0.0938604 0)
  (-0.0238816 -0.116578 0)
  (0.0385812 -0.0997364 0)
  (0.0839897 -0.0719519 0)
  (0.118799 -0.0445437 0)
  (0.139959 -0.0194073 0)
  (0.148436 0.00406717 0)
  (0.145942 0.0270941 0)
  (0.135805 0.0531578 0)
  (0.13513 0.0912508 0)
  (0.124915 0.0840057 0)
  (0.0778065 0.0752051 0)
  (-0.167596 0.0167204 0)
  (0.0254401 0.0148173 0)
  (0.0219841 -0.0275362 0)
  (0.0376196 -0.0393668 0)
  (0.0539448 -0.0356711 0)
  (0.0677168 -0.0263856 0)
  (0.0742767 -0.0124477 0)
  (0.0762442 -0.00398359 0)
  (0.0765607 -0.000756346 0)
  (0.0769215 0.000429324 0)
  (0.0774134 0.00107505 0)
  (0.0778038 0.0016377 0)
  (0.0780433 0.00255961 0)
  (0.0779507 0.00442473 0)
  (0.0768045 0.0084826 0)
  (0.0714952 0.0182393 0)
  (0.0621354 0.0290773 0)
  (-0.00046203 0.0458139 0)
  (0.196045 0.0294332 0)
  (0.215531 0.227499 0)
  (-0.126963 0.106138 0)
  (-0.107605 0.0480329 0)
  (-0.11443 -0.0136821 0)
  (-0.0940533 -0.0827001 0)
  (-0.054281 -0.14402 0)
  (-0.00795891 -0.168467 0)
  (0.0365006 -0.146623 0)
  (0.0728373 -0.109303 0)
  (0.100396 -0.0702582 0)
  (0.117236 -0.0341787 0)
  (0.124838 -0.00157532 0)
  (0.125428 0.028958 0)
  (0.121458 0.0586082 0)
  (0.118689 0.0885053 0)
  (0.105082 0.0934648 0)
  (0.0796766 0.12076 0)
  (-0.22212 0.00905866 0)
  (0.0784673 -0.0362774 0)
  (0.0672894 -0.0520856 0)
  (0.0731302 -0.0544306 0)
  (0.0812907 -0.0476809 0)
  (0.0885 -0.038678 0)
  (0.0870958 -0.0296045 0)
  (0.0768171 -0.0192765 0)
  (0.0688809 -0.013618 0)
  (0.0650822 -0.0104227 0)
  (0.063137 -0.00836948 0)
  (0.0617347 -0.00691732 0)
  (0.0608348 -0.00560776 0)
  (0.0615681 -0.00357369 0)
  (0.0662125 0.00201445 0)
  (0.0658081 0.0241583 0)
  (0.0606952 0.0408944 0)
  (-0.00799875 0.0612818 0)
  (0.238331 0.0610355 0)
  (0.310866 0.287534 0)
  (-0.13649 0.137417 0)
  (-0.0785894 0.064641 0)
  (-0.0819057 -0.0182095 0)
  (-0.0571967 -0.112049 0)
  (-0.0210087 -0.187633 0)
  (0.0137289 -0.209562 0)
  (0.0431893 -0.183549 0)
  (0.0686181 -0.138002 0)
  (0.0869737 -0.0888196 0)
  (0.0973824 -0.0436688 0)
  (0.101625 -0.00454302 0)
  (0.102108 0.0295021 0)
  (0.101565 0.0595692 0)
  (0.104846 0.0873749 0)
  (0.112376 0.105573 0)
  (0.124578 0.133755 0)
  (0.155902 0.0350299 0)
  (0.107128 0.00522041 0)
  (0.119067 -0.0344224 0)
  (0.111814 -0.0531516 0)
  (0.104991 -0.0553528 0)
  (0.10061 -0.0484714 0)
  (0.0961852 -0.0364536 0)
  (0.0977784 -0.0216119 0)
  (0.10633 -0.0129393 0)
  (0.110514 -0.00774182 0)
  (0.108651 -0.00414322 0)
  (0.103113 -0.00134176 0)
  (0.0952662 0.00103213 0)
  (0.085274 0.00330574 0)
  (0.0724604 0.00598429 0)
  (0.052952 0.00996415 0)
  (0.0428926 0.0325335 0)
  (0.0502635 0.0482261 0)
  (-0.0117997 0.0670814 0)
  (0.263208 0.102169 0)
  (0.394818 0.333565 0)
  (-0.152273 0.161198 0)
  (-0.0510234 0.0743472 0)
  (-0.0407597 -0.0268836 0)
  (-0.00807567 -0.142031 0)
  (0.0216792 -0.221045 0)
  (0.0411969 -0.236035 0)
  (0.056782 -0.206387 0)
  (0.0685964 -0.154382 0)
  (0.0752456 -0.0978138 0)
  (0.0769807 -0.0469325 0)
  (0.0759785 -0.00482185 0)
  (0.0748559 0.0293973 0)
  (0.0769288 0.0570412 0)
  (0.0852851 0.080134 0)
  (0.100254 0.0949116 0)
  (0.121779 0.100599 0)
  (0.144045 0.0446323 0)
  (0.148212 0.00849285 0)
  (0.141055 -0.0251729 0)
  (0.127448 -0.0424876 0)
  (0.113219 -0.0455683 0)
  (0.101032 -0.0398092 0)
  (0.0911142 -0.028557 0)
  (0.0856169 -0.0128577 0)
  (0.0832354 -0.00217411 0)
  (0.0790254 0.00424898 0)
  (0.0730384 0.00838229 0)
  (0.0659966 0.0114983 0)
  (0.0584115 0.0142239 0)
  (0.0503448 0.0170637 0)
  (0.0418919 0.0205932 0)
  (0.032394 0.0254496 0)
  (0.0271979 0.0363066 0)
  (0.0421316 0.0449356 0)
  (0.00910385 0.0524434 0)
  (0.144937 0.0978047 0)
  (0.118128 0.0864557 0)
  (-0.142118 0.0784448 0)
  (0.465578 -0.0130058 0)
  (0.46445 0.368788 0)
  (-0.17098 0.172854 0)
  (-0.0223908 0.0673489 0)
  (0.019025 -0.0620427 0)
  (0.0528813 -0.174932 0)
  (0.0703102 -0.2396 0)
  (0.0758505 -0.248577 0)
  (0.0748838 -0.213722 0)
  (0.069749 -0.156231 0)
  (0.0619023 -0.094982 0)
  (0.0529395 -0.0418479 0)
  (0.0448882 -0.000535196 0)
  (0.0421749 0.0295616 0)
  (0.0461329 0.05121 0)
  (0.0569706 0.0668887 0)
  (0.073751 0.0739795 0)
  (0.0967011 0.0685418 0)
  (0.115065 0.034764 0)
  (0.120476 0.00352464 0)
  (0.115878 -0.0188417 0)
  (0.104881 -0.03033 0)
  (0.0911657 -0.0321902 0)
  (0.0775446 -0.0272722 0)
  (0.0654696 -0.0180378 0)
  (0.0560699 -0.00633378 0)
  (0.0484983 0.00318115 0)
  (0.0424359 0.00943604 0)
  (0.0365808 0.0136233 0)
  (0.0307778 0.0168987 0)
  (0.0251048 0.0198874 0)
  (0.0196829 0.0230226 0)
  (0.0149446 0.0266091 0)
  (0.0109899 0.0304197 0)
  (0.0100173 0.0339399 0)
  (0.0230799 0.0337954 0)
  (0.00386072 0.0238268 0)
  (0.0568919 0.0612815 0)
  (0.0656681 0.0732398 0)
  (-0.163484 0.0831388 0)
  (0.433013 -0.0409265 0)
  (0.542878 0.397816 0)
  (-0.174765 0.150853 0)
  (0.0275018 -0.00383778 0)
  (0.0982672 -0.119573 0)
  (0.1263 -0.204356 0)
  (0.128341 -0.248173 0)
  (0.114909 -0.244035 0)
  (0.0927179 -0.201731 0)
  (0.0668127 -0.140383 0)
  (0.0422672 -0.0781818 0)
  (0.0221548 -0.027412 0)
  (0.00844116 0.00777544 0)
  (0.00673061 0.0290237 0)
  (0.012833 0.0428126 0)
  (0.0251067 0.0516779 0)
  (0.0420645 0.053604 0)
  (0.0622863 0.0457368 0)
  (0.0765534 0.0240078 0)
  (0.080537 0.00318369 0)
  (0.0764785 -0.0112416 0)
  (0.0664376 -0.0184409 0)
  (0.0535767 -0.0189833 0)
  (0.040259 -0.0144346 0)
  (0.0281651 -0.00669178 0)
  (0.0177175 0.00249375 0)
  (0.0107136 0.00989373 0)
  (0.00582762 0.0149174 0)
  (0.00177211 0.0185024 0)
  (-0.00185788 0.0214595 0)
  (-0.00496432 0.02408 0)
  (-0.0073607 0.0265928 0)
  (-0.00848928 0.0288756 0)
  (-0.00801184 0.0301216 0)
  (-0.00538709 0.028913 0)
  (0.00439995 0.0245491 0)
  (-0.00832996 0.0154686 0)
  (0.0167968 0.0504885 0)
  (0.0541239 0.0910302 0)
  (-0.218934 0.109606 0)
  (0.525257 -0.0512468 0)
  (0.645098 0.374809 0)
  (0.0137305 0.11137 0)
  (0.137273 -0.0778389 0)
  (0.216314 -0.163435 0)
  (0.222656 -0.212897 0)
  (0.193865 -0.230926 0)
  (0.14988 -0.21264 0)
  (0.0997981 -0.164762 0)
  (0.0498891 -0.103861 0)
  (0.00931846 -0.0465323 0)
  (-0.0175661 -0.0053307 0)
  (-0.0281965 0.0148391 0)
  (-0.0274431 0.0256218 0)
  (-0.0203621 0.0326838 0)
  (-0.00864686 0.036942 0)
  (0.00675102 0.0366713 0)
  (0.0219979 0.0301615 0)
  (0.0313803 0.0170067 0)
  (0.0327861 0.00454422 0)
  (0.0284048 -0.00390593 0)
  (0.019204 -0.00744866 0)
  (0.00781648 -0.00647948 0)
  (-0.00428372 -0.00188934 0)
  (-0.0144934 0.00419099 0)
  (-0.021173 0.0100135 0)
  (-0.0252065 0.0147492 0)
  (-0.0276641 0.0183845 0)
  (-0.0292554 0.0212838 0)
  (-0.0302105 0.0236885 0)
  (-0.0304333 0.0256301 0)
  (-0.0296052 0.0270149 0)
  (-0.0271793 0.0274717 0)
  (-0.0227724 0.0262996 0)
  (-0.0162834 0.0229904 0)
  (-0.00695175 0.0190451 0)
  (-0.00564511 0.0159885 0)
  (0.0149706 0.0422805 0)
  (0.0729656 0.0932292 0)
  (-0.181812 0.0988407 0)
  (0.89804 0.0175764 0)
  (0.787739 0.366567 0)
  (0.367033 0.254459 0)
  (0.37156 0.11156 0)
  (0.371597 -0.0357775 0)
  (0.320086 -0.126529 0)
  (0.237746 -0.157855 0)
  (0.151189 -0.143046 0)
  (0.0713338 -0.0990377 0)
  (0.00132516 -0.0456604 0)
  (-0.0423304 -0.00599706 0)
  (-0.0609 0.0119548 0)
  (-0.064688 0.0189384 0)
  (-0.0618244 0.0226473 0)
  (-0.0549108 0.0252681 0)
  (-0.0453968 0.0266808 0)
  (-0.0346521 0.025994 0)
  (-0.0251072 0.0224312 0)
  (-0.0201326 0.0159737 0)
  (-0.020846 0.00981988 0)
  (-0.0258847 0.00595626 0)
  (-0.0330844 0.00493936 0)
  (-0.041138 0.00644213 0)
  (-0.0479969 0.00930754 0)
  (-0.052842 0.0125564 0)
  (-0.0555888 0.0157942 0)
  (-0.0566316 0.0187837 0)
  (-0.0564568 0.0214049 0)
  (-0.055398 0.0236308 0)
  (-0.0535535 0.0253815 0)
  (-0.0508406 0.0264793 0)
  (-0.0470395 0.0266611 0)
  (-0.0418592 0.0255443 0)
  (-0.0351428 0.0227525 0)
  (-0.0269646 0.0183912 0)
  (-0.01744 0.0137371 0)
  (-0.00842275 0.0102788 0)
  (0.0148626 0.0230914 0)
  (0.0673696 0.0642808 0)
  (-0.142121 0.0586631 0)
  (0.881122 0.0624667 0)
  (0.206772 -0.118646 0)
  (0.241866 -0.128339 0)
  (0.197272 -0.124773 0)
  (0.112604 -0.102647 0)
  (0.027613 -0.0632267 0)
  (-0.0449462 -0.0122548 0)
  (-0.0841558 0.0128305 0)
  (-0.101276 0.0232474 0)
  (-0.1046 0.025897 0)
  (-0.102697 0.0259846 0)
  (-0.0983348 0.0257608 0)
  (-0.0925259 0.0257207 0)
  (-0.0859279 0.025613 0)
  (-0.0793821 0.0250099 0)
  (-0.0741617 0.0235798 0)
  (-0.0717008 0.021351 0)
  (-0.0722581 0.0193241 0)
  (-0.0749207 0.0182484 0)
  (-0.0783704 0.0184464 0)
  (-0.0814928 0.0197321 0)
  (-0.0834751 0.0215564 0)
  (-0.0840638 0.0234763 0)
  (-0.0832985 0.0252885 0)
  (-0.0813466 0.0268689 0)
  (-0.0783996 0.0280798 0)
  (-0.0746108 0.0287787 0)
  (-0.0700856 0.028801 0)
  (-0.0649116 0.0279547 0)
  (-0.0591878 0.0260285 0)
  (-0.0530776 0.0227914 0)
  (-0.0469183 0.0180413 0)
  (-0.0413 0.0117025 0)
  (-0.0368935 0.00389356 0)
  (-0.0327272 -0.00165041 0)
  (-0.0212185 0.00882091 0)
  (-0.0103921 0.0371914 0)
  (-0.200907 0.0318038 0)
  (0.537109 0.094521 0)
  (-0.22443 -0.0810525 0)
  (-0.000348338 -0.0773442 0)
  (-0.0421735 -0.0882661 0)
  (-0.0853521 -0.090921 0)
  (-0.120177 -0.088531 0)
  (-0.140128 -0.0822023 0)
  (-0.145187 -0.0811984 0)
  (-0.145229 -0.0831189 0)
  (-0.142583 -0.0859946 0)
  (-0.138951 -0.0876602 0)
  (-0.134754 -0.0876326 0)
  (-0.130043 -0.0863876 0)
  (-0.124901 -0.0847552 0)
  (-0.119633 -0.0836024 0)
  (-0.114813 -0.0836647 0)
  (-0.111102 -0.0852799 0)
  (-0.108749 -0.0880151 0)
  (-0.107501 -0.0911648 0)
  (-0.106817 -0.09404 0)
  (-0.106115 -0.0962552 0)
  (-0.104946 -0.0977661 0)
  (-0.103073 -0.0986223 0)
  (-0.100391 -0.0988865 0)
  (-0.0968702 -0.0986739 0)
  (-0.0925321 -0.0981557 0)
  (-0.0874432 -0.0975318 0)
  (-0.0817216 -0.097043 0)
  (-0.0755593 -0.097005 0)
  (-0.0692613 -0.0978347 0)
  (-0.0633429 -0.100038 0)
  (-0.0586995 -0.104072 0)
  (-0.0566019 -0.109845 0)
  (-0.0577729 -0.115197 0)
  (-0.060184 -0.114154 0)
  (-0.0612317 -0.0969452 0)
  (-0.0762774 -0.0603456 0)
  (-0.159081 -0.0416344 0)
  (0.41427 0.00615755 0)
  (0.0408224 -0.159459 0)
  (-0.174881 0.0261374 0)
  (-0.149666 0.36325 0)
  (-0.151405 0.293643 0)
  (-0.179378 0.273673 0)
  (-0.197905 0.28559 0)
  (-0.205383 0.301142 0)
  (-0.202948 0.30908 0)
  (-0.196169 0.317247 0)
  (-0.188416 0.324349 0)
  (-0.18144 0.32945 0)
  (-0.175685 0.33217 0)
  (-0.170702 0.333084 0)
  (-0.165907 0.333084 0)
  (-0.16087 0.333088 0)
  (-0.155426 0.333911 0)
  (-0.149703 0.336141 0)
  (-0.144036 0.339961 0)
  (-0.138713 0.345027 0)
  (-0.133818 0.350747 0)
  (-0.129242 0.356523 0)
  (-0.12476 0.361954 0)
  (-0.120159 0.366861 0)
  (-0.115286 0.371171 0)
  (-0.110034 0.374863 0)
  (-0.104355 0.377959 0)
  (-0.0982694 0.380485 0)
  (-0.0918919 0.38244 0)
  (-0.0854334 0.383818 0)
  (-0.0792013 0.384666 0)
  (-0.0736005 0.385167 0)
  (-0.069177 0.385738 0)
  (-0.0666477 0.387053 0)
  (-0.0663953 0.389542 0)
  (-0.0668858 0.391185 0)
  (-0.0654765 0.385843 0)
  (-0.0697631 0.367796 0)
  (-0.108602 0.340978 0)
  (-0.180115 0.334634 0)
  (0.516379 0.370158 0)
)
;

boundaryField
{
  floor
  {
    type noSlip;
  }
  ceiling
  {
    type noSlip;
  }
  sWall
  {
    type noSlip;
  }
  nWall
  {
    type noSlip;
  }
  sideWalls
  {
    type empty;
  }
  glass1
  {
    type noSlip;
  }
  glass2
  {
    type noSlip;
  }
  sun
  {
    type noSlip;
  }
  heatsource1
  {
    type noSlip;
  }
  heatsource2
  {
    type noSlip;
  }
  Table_master
  {
    type noSlip;
  }
  Table_slave
  {
    type noSlip;
  }
  inlet
  {
    type fixedValue;
    value uniform (0.277164 -0.114805 0);
  }
  outlet
  {
    type zeroGradient;
  }
} 	// ************************************************************************* //

