// -*- C++ -*-
// File generated by PyFoam - sorry for the ugliness

FoamFile
{
 version 2.0;
 format ascii;
 class volVectorField;
 location "440";
 object U;
}

dimensions [ 0 1 -1 0 0 0 0 ];

internalField nonuniform List<vector> 459
(
  (0.00455809 0.0581946 0)
  (-0.115402 0.0203467 0)
  (-0.139556 0.0113828 0)
  (-0.160538 0.00443435 0)
  (-0.171102 -0.0029108 0)
  (-0.169254 -0.0108347 0)
  (-0.153887 -0.0196516 0)
  (-0.125817 -0.0283915 0)
  (-0.0884027 -0.0351931 0)
  (-0.047495 -0.0379802 0)
  (-0.00522869 -0.0335542 0)
  (0.0271162 -0.0210337 0)
  (0.0428277 -0.00939171 0)
  (0.0442057 0.00456299 0)
  (0.0548844 0.0282462 0)
  (-0.0782627 0.00761495 0)
  (0.0128623 -0.000709833 0)
  (0.0092755 -0.0139793 0)
  (0.0258784 -0.0162849 0)
  (0.0430418 -0.0142924 0)
  (0.0579871 -0.0107162 0)
  (0.0680108 -0.00622571 0)
  (0.07313 -0.00366752 0)
  (0.0749891 -0.00270364 0)
  (0.0755351 -0.00232914 0)
  (0.0756958 -0.00207336 0)
  (0.0755556 -0.00179747 0)
  (0.0749353 -0.00139275 0)
  (0.0734563 -0.000620237 0)
  (0.0702528 0.00106401 0)
  (0.0635575 0.00457009 0)
  (0.0514142 0.0097383 0)
  (0.0193873 0.0184862 0)
  (0.0600735 0.00851273 0)
  (0.105569 0.119422 0)
  (-0.104016 0.054811 0)
  (-0.113712 0.0392502 0)
  (-0.13527 0.0253105 0)
  (-0.146383 0.00931357 0)
  (-0.145696 -0.00917308 0)
  (-0.132157 -0.0293479 0)
  (-0.107309 -0.0477872 0)
  (-0.0748743 -0.0601952 0)
  (-0.0404837 -0.063175 0)
  (-0.00802277 -0.0544701 0)
  (0.019015 -0.0355033 0)
  (0.03615 -0.0154449 0)
  (0.0470808 0.00599645 0)
  (0.0579574 0.0298522 0)
  (0.0563269 0.0321053 0)
  (0.0378127 0.034859 0)
  (-0.0968003 0.00566416 0)
  (0.0250295 -0.0207695 0)
  (0.0299349 -0.0271861 0)
  (0.0422159 -0.0278368 0)
  (0.0548276 -0.0239376 0)
  (0.0652236 -0.0175083 0)
  (0.0707452 -0.00723265 0)
  (0.071982 -0.00113746 0)
  (0.0718173 0.00119087 0)
  (0.0718682 0.00207205 0)
  (0.0721428 0.00260461 0)
  (0.0723469 0.00308436 0)
  (0.0723667 0.00376071 0)
  (0.0721544 0.00515168 0)
  (0.0710981 0.00844015 0)
  (0.0663822 0.0169624 0)
  (0.0559498 0.0261161 0)
  (0.0216022 0.0373404 0)
  (0.101444 0.02775 0)
  (0.200224 0.178827 0)
  (-0.107874 0.0848459 0)
  (-0.0874593 0.0622011 0)
  (-0.10828 0.0389867 0)
  (-0.119216 0.0128569 0)
  (-0.118903 -0.0169328 0)
  (-0.105685 -0.0486362 0)
  (-0.0827281 -0.0760773 0)
  (-0.0544824 -0.0923907 0)
  (-0.0263183 -0.0936731 0)
  (-0.000625722 -0.0794541 0)
  (0.0202241 -0.0553828 0)
  (0.0356929 -0.0294644 0)
  (0.0464562 -0.00360359 0)
  (0.0538737 0.0211785 0)
  (0.0529212 0.0366646 0)
  (0.0437148 0.0635265 0)
  (-0.0396232 -0.020837 0)
  (0.0394111 -0.0379803 0)
  (0.0518093 -0.0424178 0)
  (0.0583356 -0.0395845 0)
  (0.0649689 -0.0336959 0)
  (0.0710964 -0.0278568 0)
  (0.0736129 -0.0203452 0)
  (0.0677123 -0.0130796 0)
  (0.0629529 -0.00929921 0)
  (0.0612837 -0.00724848 0)
  (0.0610514 -0.00593834 0)
  (0.0612582 -0.00495655 0)
  (0.0619346 -0.00397356 0)
  (0.063827 -0.00245697 0)
  (0.068727 0.0020833 0)
  (0.0690694 0.0225594 0)
  (0.0608644 0.0384128 0)
  (0.0232972 0.0556847 0)
  (0.126973 0.0573539 0)
  (0.289475 0.226888 0)
  (-0.123155 0.110006 0)
  (-0.0594064 0.0824866 0)
  (-0.0785469 0.0522318 0)
  (-0.0877131 0.0179594 0)
  (-0.0855336 -0.022953 0)
  (-0.0706556 -0.0664789 0)
  (-0.0495712 -0.101646 0)
  (-0.026529 -0.120138 0)
  (-0.00561794 -0.118877 0)
  (0.0127611 -0.100141 0)
  (0.0275101 -0.0724592 0)
  (0.0395363 -0.0421132 0)
  (0.0489635 -0.0126499 0)
  (0.0575654 0.0146244 0)
  (0.0672665 0.0369886 0)
  (0.0811893 0.061579 0)
  (0.107125 0.0100378 0)
  (0.0996249 -0.0147256 0)
  (0.088774 -0.0334809 0)
  (0.0789008 -0.0409223 0)
  (0.0723594 -0.0396695 0)
  (0.0684719 -0.0343254 0)
  (0.0651887 -0.0267508 0)
  (0.0664627 -0.0161565 0)
  (0.074914 -0.0109171 0)
  (0.0815849 -0.00809486 0)
  (0.0855352 -0.00640064 0)
  (0.0880256 -0.00506116 0)
  (0.0893908 -0.00361484 0)
  (0.0885341 -0.00161091 0)
  (0.0839472 0.0014596 0)
  (0.0729505 0.00628414 0)
  (0.0632702 0.0287214 0)
  (0.0618561 0.0478607 0)
  (0.0300578 0.0698869 0)
  (0.144892 0.0994878 0)
  (0.371753 0.263624 0)
  (-0.146352 0.12859 0)
  (-0.0304827 0.0950382 0)
  (-0.0459225 0.06078 0)
  (-0.0512548 0.0212013 0)
  (-0.0420338 -0.0299087 0)
  (-0.0244156 -0.0836308 0)
  (-0.00700882 -0.122565 0)
  (0.00862616 -0.139902 0)
  (0.0201564 -0.134812 0)
  (0.0295119 -0.113775 0)
  (0.0371462 -0.0835974 0)
  (0.0434228 -0.0509888 0)
  (0.0490952 -0.0204341 0)
  (0.0561237 0.00596614 0)
  (0.0656615 0.025335 0)
  (0.0801699 0.0333249 0)
  (0.0921939 0.00661183 0)
  (0.0908888 -0.0137607 0)
  (0.082379 -0.0267009 0)
  (0.0729716 -0.0324024 0)
  (0.06459 -0.0324242 0)
  (0.0578577 -0.0287164 0)
  (0.0529996 -0.0221131 0)
  (0.0519794 -0.0122961 0)
  (0.0546322 -0.00680476 0)
  (0.0576071 -0.00458943 0)
  (0.0601437 -0.00352106 0)
  (0.062559 -0.00231751 0)
  (0.0647822 -0.000108543 0)
  (0.0664301 0.00371537 0)
  (0.0664083 0.00958346 0)
  (0.064263 0.0181781 0)
  (0.0622212 0.0333688 0)
  (0.0676079 0.0496929 0)
  (0.0587737 0.0668638 0)
  (0.11881 0.0986397 0)
  (0.113454 0.0772146 0)
  (0.115601 0.0543807 0)
  (-0.197107 0.0502236 0)
  (0.438039 0.293022 0)
  (-0.17335 0.138899 0)
  (-0.00587494 0.0943696 0)
  (-0.0112402 0.063554 0)
  (-0.00998489 0.0223867 0)
  (0.0146289 -0.0444026 0)
  (0.0317293 -0.100581 0)
  (0.0425087 -0.136022 0)
  (0.0477629 -0.14885 0)
  (0.0488555 -0.141112 0)
  (0.0476873 -0.118023 0)
  (0.045579 -0.0865365 0)
  (0.0436124 -0.0534314 0)
  (0.0429366 -0.023827 0)
  (0.0451699 -0.00042394 0)
  (0.0508633 0.0146933 0)
  (0.0605648 0.018003 0)
  (0.0669806 0.00490799 0)
  (0.0660138 -0.0092198 0)
  (0.0597802 -0.0189322 0)
  (0.0516769 -0.0238453 0)
  (0.0435543 -0.0246577 0)
  (0.0364604 -0.0224286 0)
  (0.0312204 -0.0179596 0)
  (0.0289082 -0.0122283 0)
  (0.0294574 -0.00886333 0)
  (0.0313475 -0.00761002 0)
  (0.0338471 -0.00704951 0)
  (0.0368321 -0.00612082 0)
  (0.0402297 -0.00393328 0)
  (0.0441671 0.000505189 0)
  (0.0480765 0.00765803 0)
  (0.0513154 0.0173851 0)
  (0.0551058 0.0299594 0)
  (0.063269 0.0427858 0)
  (0.0655893 0.0513113 0)
  (0.089253 0.0662633 0)
  (0.0876354 0.0513015 0)
  (0.116101 0.0490354 0)
  (-0.169955 0.0781238 0)
  (0.484639 0.318012 0)
  (-0.190561 0.126454 0)
  (0.0177498 0.062017 0)
  (0.0332291 0.0446095 0)
  (0.0534751 0.000495341 0)
  (0.0808553 -0.0639742 0)
  (0.0943481 -0.11312 0)
  (0.0962164 -0.140729 0)
  (0.0893719 -0.147195 0)
  (0.0770672 -0.13543 0)
  (0.0625032 -0.110479 0)
  (0.0482439 -0.0789389 0)
  (0.0362813 -0.0472031 0)
  (0.0281215 -0.0204878 0)
  (0.0247304 -0.00123025 0)
  (0.0266642 0.00966813 0)
  (0.0321793 0.0114171 0)
  (0.0355914 0.00389542 0)
  (0.0346197 -0.00551206 0)
  (0.0297856 -0.0125909 0)
  (0.0228811 -0.0164523 0)
  (0.0154961 -0.0174744 0)
  (0.00882471 -0.0164307 0)
  (0.00385896 -0.0140927 0)
  (0.00143926 -0.0114249 0)
  (0.00146299 -0.0100839 0)
  (0.00292389 -0.00992675 0)
  (0.00515714 -0.0100743 0)
  (0.00798186 -0.00978566 0)
  (0.0115033 -0.00835634 0)
  (0.0160573 -0.00479387 0)
  (0.0230267 0.00210438 0)
  (0.0305681 0.0116053 0)
  (0.0386792 0.0223363 0)
  (0.0489286 0.0326263 0)
  (0.0566591 0.0395255 0)
  (0.0710455 0.0502511 0)
  (0.0770082 0.0531319 0)
  (0.128923 0.0702007 0)
  (-0.118843 0.13617 0)
  (0.56554 0.317198 0)
  (-0.0488381 0.0994534 0)
  (0.0735316 -0.00523941 0)
  (0.118088 -0.0403584 0)
  (0.15198 -0.0680371 0)
  (0.16794 -0.0967818 0)
  (0.167016 -0.120379 0)
  (0.151745 -0.132047 0)
  (0.126438 -0.129453 0)
  (0.09629 -0.113762 0)
  (0.0658035 -0.088436 0)
  (0.0384494 -0.059181 0)
  (0.0169887 -0.031652 0)
  (0.00312965 -0.0107602 0)
  (-0.00350188 0.00225501 0)
  (-0.00304132 0.00796787 0)
  (5.41928e-05 0.00817387 0)
  (0.00176301 0.0033916 0)
  (0.000560031 -0.0025438 0)
  (-0.00367806 -0.00718158 0)
  (-0.00969244 -0.00986497 0)
  (-0.0160728 -0.010978 0)
  (-0.0217089 -0.0111472 0)
  (-0.0257983 -0.0109183 0)
  (-0.027953 -0.010803 0)
  (-0.0284588 -0.0112631 0)
  (-0.0279998 -0.0121173 0)
  (-0.0270803 -0.0129444 0)
  (-0.0259058 -0.0133958 0)
  (-0.024387 -0.0131788 0)
  (-0.0220723 -0.0118824 0)
  (-0.0178699 -0.00879057 0)
  (-0.00864559 -0.00293806 0)
  (0.00328325 0.00469087 0)
  (0.0149297 0.0108203 0)
  (0.0245234 0.0136868 0)
  (0.0366462 0.0170672 0)
  (0.0462297 0.0166145 0)
  (0.129288 0.0711538 0)
  (-0.377088 0.209183 0)
  (0.673699 0.308125 0)
  (0.323758 0.213656 0)
  (0.33398 0.152812 0)
  (0.348975 0.0875767 0)
  (0.32813 0.025724 0)
  (0.288847 -0.0287123 0)
  (0.242766 -0.0667077 0)
  (0.191954 -0.0848166 0)
  (0.139119 -0.085236 0)
  (0.0885959 -0.0724847 0)
  (0.0436831 -0.051265 0)
  (0.00730939 -0.0280733 0)
  (-0.0175625 -0.00891633 0)
  (-0.0297998 0.00142206 0)
  (-0.0345096 0.00633679 0)
  (-0.0345599 0.00797866 0)
  (-0.0332289 0.00735191 0)
  (-0.0328872 0.00472564 0)
  (-0.0345431 0.00154381 0)
  (-0.0378445 -0.00114574 0)
  (-0.0425319 -0.00303544 0)
  (-0.047447 -0.00442775 0)
  (-0.0518462 -0.00560214 0)
  (-0.055309 -0.00671766 0)
  (-0.0578128 -0.00790743 0)
  (-0.0596342 -0.00926545 0)
  (-0.0611707 -0.0106548 0)
  (-0.0628317 -0.0118546 0)
  (-0.0650679 -0.0126544 0)
  (-0.0684022 -0.0127494 0)
  (-0.0733813 -0.0114674 0)
  (-0.0804294 -0.0075706 0)
  (-0.0899429 0.000524271 0)
  (-0.100313 0.0122285 0)
  (-0.115247 0.0278515 0)
  (-0.139897 0.0488199 0)
  (-0.173666 0.076174 0)
  (-0.215488 0.107072 0)
  (-0.281176 0.135602 0)
  (-0.552004 0.152467 0)
  (0.202059 -0.00921023 0)
  (0.219789 -0.00529085 0)
  (0.214085 -0.0295662 0)
  (0.186748 -0.0448533 0)
  (0.148254 -0.0493112 0)
  (0.104013 -0.0464196 0)
  (0.0580608 -0.0379379 0)
  (0.0143013 -0.0242015 0)
  (-0.0242139 -0.0066722 0)
  (-0.0469448 0.00393654 0)
  (-0.0593298 0.00965447 0)
  (-0.0641415 0.0119804 0)
  (-0.0653887 0.0129311 0)
  (-0.06504 0.0131691 0)
  (-0.0644081 0.0128702 0)
  (-0.0645226 0.0119919 0)
  (-0.0658083 0.010946 0)
  (-0.0679975 0.0100942 0)
  (-0.0706325 0.00942253 0)
  (-0.0735638 0.00869651 0)
  (-0.0766929 0.00777311 0)
  (-0.0799852 0.0070715 0)
  (-0.0835196 0.00677036 0)
  (-0.0873661 0.00697557 0)
  (-0.0915304 0.0079786 0)
  (-0.0959949 0.0100782 0)
  (-0.100761 0.0133534 0)
  (-0.105905 0.0174733 0)
  (-0.111624 0.0215998 0)
  (-0.117856 0.0247956 0)
  (-0.123254 0.0288989 0)
  (-0.127926 0.0361942 0)
  (-0.13182 0.0480901 0)
  (-0.134678 0.0650974 0)
  (-0.133729 0.0847206 0)
  (-0.123319 0.0922415 0)
  (-0.107685 0.0461727 0)
  (-0.200645 -0.172229 0)
  (0.0608073 0.112046 0)
  (0.0128867 0.0362901 0)
  (0.00207712 -0.00831262 0)
  (-0.000499653 -0.0298225 0)
  (-0.0130158 -0.0376537 0)
  (-0.0340133 -0.0403773 0)
  (-0.0554849 -0.0413376 0)
  (-0.0727256 -0.042215 0)
  (-0.0833852 -0.0442096 0)
  (-0.0879547 -0.0473218 0)
  (-0.0898076 -0.0502758 0)
  (-0.089779 -0.052751 0)
  (-0.0887905 -0.0544231 0)
  (-0.0873215 -0.0557728 0)
  (-0.0857821 -0.0574586 0)
  (-0.0845885 -0.0599217 0)
  (-0.0839814 -0.0630356 0)
  (-0.0839607 -0.0664147 0)
  (-0.084445 -0.0697566 0)
  (-0.0854205 -0.072882 0)
  (-0.0870041 -0.075772 0)
  (-0.0893349 -0.0787199 0)
  (-0.0924673 -0.0818773 0)
  (-0.0965119 -0.0857376 0)
  (-0.101518 -0.0900461 0)
  (-0.107268 -0.0939946 0)
  (-0.113218 -0.096534 0)
  (-0.118618 -0.0966058 0)
  (-0.122711 -0.092517 0)
  (-0.124938 -0.0825525 0)
  (-0.124535 -0.0673538 0)
  (-0.119872 -0.0470407 0)
  (-0.108947 -0.0224841 0)
  (-0.089948 0.00452705 0)
  (-0.0628031 0.0290179 0)
  (-0.0304611 0.0373606 0)
  (0.0994902 -0.0514804 0)
  (-0.154981 -0.112043 0)
  (-0.128178 -0.246691 0)
  (-0.293992 -0.0486868 0)
  (-0.223797 0.142822 0)
  (-0.192266 0.129932 0)
  (-0.155393 0.134536 0)
  (-0.143109 0.144965 0)
  (-0.140632 0.151882 0)
  (-0.140163 0.157795 0)
  (-0.13853 0.165715 0)
  (-0.134761 0.175548 0)
  (-0.129339 0.185714 0)
  (-0.123429 0.194125 0)
  (-0.118049 0.200416 0)
  (-0.113465 0.204809 0)
  (-0.109591 0.207879 0)
  (-0.106171 0.210474 0)
  (-0.103112 0.213275 0)
  (-0.100527 0.216547 0)
  (-0.0985889 0.22012 0)
  (-0.0974006 0.223678 0)
  (-0.0969911 0.226993 0)
  (-0.0973169 0.229954 0)
  (-0.0982625 0.232668 0)
  (-0.099696 0.235569 0)
  (-0.101451 0.239019 0)
  (-0.103368 0.243937 0)
  (-0.105267 0.250073 0)
  (-0.106927 0.256428 0)
  (-0.10809 0.261789 0)
  (-0.108464 0.26515 0)
  (-0.107584 0.264989 0)
  (-0.104531 0.260291 0)
  (-0.0978627 0.252467 0)
  (-0.0857553 0.242934 0)
  (-0.066752 0.234143 0)
  (-0.0412812 0.228982 0)
  (-0.00804346 0.228985 0)
  (0.0277146 0.233364 0)
  (0.137074 0.267608 0)
  (-0.292674 0.259024 0)
)
;

boundaryField
{
  floor
  {
    type noSlip;
  }
  ceiling
  {
    type noSlip;
  }
  sWall
  {
    type noSlip;
  }
  nWall
  {
    type noSlip;
  }
  sideWalls
  {
    type empty;
  }
  glass1
  {
    type noSlip;
  }
  glass2
  {
    type noSlip;
  }
  sun
  {
    type noSlip;
  }
  heatsource1
  {
    type noSlip;
  }
  heatsource2
  {
    type noSlip;
  }
  Table_master
  {
    type noSlip;
  }
  Table_slave
  {
    type noSlip;
  }
  inlet
  {
    type fixedValue;
    value uniform (0.277164 -0.114805 0);
  }
  outlet
  {
    type zeroGradient;
  }
} 	// ************************************************************************* //

