/*--------------------------------*- C++ -*----------------------------------*\
  =========                 |
  \\      /  F ield         | OpenFOAM: The Open Source CFD Toolbox
   \\    /   O peration     | Website:  https://openfoam.org
    \\  /    A nd           | Version:  6
     \\/     M anipulation  |
\*---------------------------------------------------------------------------*/
FoamFile
{
    version     2.0;
    format      ascii;
    class       volScalarField;
    location    "600";
    object      epsilon;
}
// * * * * * * * * * * * * * * * * * * * * * * * * * * * * * * * * * * * * * //

dimensions      [0 2 -3 0 0 0 0];

internalField   nonuniform List<scalar> 
459
(
0.000163815
0.00022068
0.000246521
0.000288768
0.000332923
0.000381048
0.000437466
0.00049062
0.000532324
0.000550928
0.000534679
0.000471916
0.000325757
0.000197289
0.000122151
2.75089e-05
8.14098e-05
9.34058e-05
9.79571e-05
9.68511e-05
9.05189e-05
7.75751e-05
6.46738e-05
5.39526e-05
4.53449e-05
3.84501e-05
3.29206e-05
2.83992e-05
2.46126e-05
2.1331e-05
1.83343e-05
1.53706e-05
1.14644e-05
7.91279e-06
0.000356111
0.000462295
0.000201911
0.000202221
0.000214568
0.000237638
0.000274971
0.000319044
0.000358281
0.000378592
0.000369997
0.000332002
0.000260632
0.000199959
0.000143086
0.000235509
0.000113605
9.36683e-05
0.000179823
0.000107632
8.836e-05
7.75996e-05
7.06752e-05
7.1746e-05
6.03173e-05
4.91339e-05
3.9887e-05
3.25001e-05
2.67132e-05
2.21552e-05
1.85609e-05
1.59342e-05
1.46681e-05
1.56703e-05
1.25879e-05
1.38211e-05
0.000601183
0.000974198
0.00021518
0.000181626
0.000193368
0.000222449
0.000267581
0.000320406
0.000366075
0.000392932
0.000391957
0.000359569
0.000300632
0.000242415
0.000186559
0.000172125
0.000219424
0.000149125
0.000135705
0.000111789
9.58555e-05
8.40742e-05
8.14927e-05
0.000190379
0.000129607
9.14547e-05
6.70473e-05
5.09338e-05
4.0001e-05
3.23956e-05
2.70677e-05
2.35231e-05
1.86122e-05
1.76502e-05
1.51313e-05
1.77534e-05
0.000920367
0.00189031
0.000283221
0.000171951
0.000180501
0.000216895
0.00027748
0.000341044
0.00039067
0.000422787
0.00042693
0.000393201
0.000334957
0.000274571
0.000224866
0.000192489
0.000185804
0.000338467
0.000223271
0.000162278
0.000129548
0.000108999
9.4857e-05
9.26256e-05
0.000249956
0.000192732
0.000160729
0.000140819
0.000126421
0.000113577
0.00010058
8.81062e-05
7.46329e-05
4.54154e-05
3.06128e-05
2.59985e-05
2.54069e-05
0.00134909
0.00333284
0.00048241
0.000179026
0.000172743
0.000223112
0.000325019
0.000398701
0.000447822
0.000481671
0.000482805
0.000439902
0.000365875
0.000287404
0.000225705
0.00018737
0.000173159
0.000174796
0.000163124
0.000150256
0.00013642
0.000121847
0.000107733
9.6641e-05
9.81651e-05
9.47866e-05
9.16086e-05
8.83427e-05
8.42871e-05
7.87378e-05
7.14517e-05
6.37602e-05
5.63267e-05
4.61542e-05
3.59624e-05
3.4057e-05
2.89644e-05
4.04306e-05
4.28334e-05
4.98419e-05
0.00194653
0.00508643
0.00104055
0.00027474
0.000207587
0.000289337
0.000449162
0.000511462
0.000549857
0.000577014
0.000569875
0.000508524
0.000406814
0.00030036
0.000219302
0.000173444
0.000159263
0.000161986
0.000165253
0.00016199
0.000152458
0.000138932
0.000124249
0.000111458
0.000104796
0.000103046
0.000103012
0.000102308
9.99857e-05
9.53977e-05
8.78234e-05
7.67549e-05
6.53514e-05
5.46709e-05
4.47614e-05
4.01479e-05
3.69707e-05
4.09147e-05
0.000172348
0.000123164
0.00269031
0.0063112
0.00232887
0.00084815
0.000576398
0.000657108
0.000699829
0.000700574
0.000709264
0.000721793
0.000696092
0.000602979
0.000462737
0.000322339
0.000222118
0.000172097
0.000162306
0.00017178
0.000180507
0.000180057
0.000171466
0.000158568
0.000145293
0.000134958
0.000130255
0.000130256
0.000131197
0.000131049
0.000129768
0.000127681
0.000124209
0.000116606
0.00010379
9.19997e-05
8.33535e-05
7.91095e-05
7.87994e-05
8.83037e-05
0.000259368
0.000209308
0.00292733
0.00796895
0.00417116
0.00253134
0.00178575
0.00138475
0.00111877
0.000980146
0.000939045
0.000928702
0.000868099
0.000720577
0.000526333
0.000347533
0.00023572
0.000190202
0.000187381
0.000198975
0.000206944
0.000205885
0.000198518
0.000189365
0.00018194
0.000177782
0.000176727
0.000176809
0.000175619
0.00017282
0.000170462
0.000171733
0.000178988
0.000192346
0.000206247
0.000220591
0.000252727
0.000308854
0.000405721
0.00050735
0.00176582
0.000508835
0.00278229
0.0047911
0.00361798
0.0026938
0.00205399
0.00160431
0.00133006
0.00122334
0.00122217
0.00120825
0.00108077
0.000832769
0.000569533
0.000364306
0.000279784
0.000254915
0.000255308
0.000262445
0.000267283
0.000268616
0.000267797
0.000267119
0.000268265
0.000270364
0.000271083
0.000267598
0.000257999
0.000243249
0.000228065
0.000219739
0.000224629
0.000245122
0.00028166
0.000335504
0.000413306
0.00052314
0.000664802
0.00082913
0.00100409
0.000551263
0.000843741
0.00109989
0.00121875
0.00131436
0.00148238
0.00165165
0.00172871
0.00159924
0.00126061
0.000812435
0.000572519
0.000478618
0.000454042
0.000454084
0.000463314
0.000473991
0.00048227
0.000489547
0.00049819
0.000505912
0.000514652
0.000521734
0.000522287
0.000510323
0.000480541
0.000431451
0.000368719
0.000306334
0.000263057
0.000250744
0.000262758
0.000299268
0.00036169
0.000450559
0.000555082
0.0006459
0.000706609
0.000566306
0.00055201
0.00236031
0.0029157
0.00329132
0.00332105
0.00320042
0.00292941
0.00243854
0.00187799
0.00142683
0.00118319
0.00107582
0.0010493
0.00106068
0.00109131
0.00113173
0.00117397
0.00121067
0.00123783
0.00125869
0.00128316
0.00130967
0.0013307
0.00133287
0.001299
0.00121488
0.00107986
0.000913908
0.000753688
0.000616946
0.000520458
0.000467355
0.000456113
0.000478357
0.000517073
0.000559183
0.000979908
0.000695444
0.000795021
0.000909147
0.00102024
0.00156995
0.00159952
0.00147086
0.00137121
0.00138752
0.0013463
0.00123133
0.001098
0.000962394
0.000867328
0.000817643
0.000795174
0.00078652
0.000783216
0.000779824
0.000773791
0.000765438
0.00075733
0.00075344
0.000748357
0.000739052
0.000721216
0.000690829
0.000646456
0.000591517
0.000534914
0.000488534
0.000452788
0.000430591
0.000420752
0.000423063
0.000436993
0.000459793
0.000482308
0.00046949
0.000425477
0.000383224
)
;

boundaryField
{
    floor
    {
        Cmu             0.09;
        kappa           0.41;
        E               9.8;
        type            epsilonWallFunction;
        value           nonuniform List<scalar> 
29
(
0.000122151
2.75089e-05
8.14098e-05
9.34058e-05
9.79571e-05
9.68511e-05
9.05189e-05
7.75751e-05
6.46738e-05
5.39526e-05
4.53449e-05
3.84501e-05
3.29206e-05
2.83992e-05
2.46126e-05
2.1331e-05
1.83343e-05
1.53706e-05
1.14644e-05
7.91279e-06
7.91279e-06
1.38211e-05
1.77534e-05
2.54069e-05
0.000122151
2.75089e-05
9.36683e-05
0.000149125
0.000338467
)
;
    }
    ceiling
    {
        Cmu             0.09;
        kappa           0.41;
        E               9.8;
        type            epsilonWallFunction;
        value           nonuniform List<scalar> 
43
(
0.000795021
0.000909147
0.00102024
0.00156995
0.00159952
0.00147086
0.00137121
0.00138752
0.0013463
0.00123133
0.001098
0.000962394
0.000867328
0.000817643
0.000795174
0.00078652
0.000783216
0.000779824
0.000773791
0.000765438
0.00075733
0.00075344
0.000748357
0.000739052
0.000721216
0.000690829
0.000646456
0.000591517
0.000534914
0.000488534
0.000452788
0.000430591
0.000420752
0.000423063
0.000436993
0.000459793
0.000482308
0.00046949
0.000425477
0.000383224
0.00278229
0.0047911
0.00055201
)
;
    }
    sWall
    {
        Cmu             0.09;
        kappa           0.41;
        E               9.8;
        type            epsilonWallFunction;
        value           uniform 0.000795021;
    }
    nWall
    {
        Cmu             0.09;
        kappa           0.41;
        E               9.8;
        type            epsilonWallFunction;
        value           nonuniform List<scalar> 6(4.98419e-05 0.000123164 0.000209308 0.000566306 0.000695444 0.000383224);
    }
    sideWalls
    {
        type            empty;
    }
    glass1
    {
        Cmu             0.09;
        kappa           0.41;
        E               9.8;
        type            epsilonWallFunction;
        value           nonuniform List<scalar> 9(0.000163815 0.000356111 0.000601183 0.000920367 0.00134909 0.00194653 0.00269031 0.00292733 0.00278229);
    }
    glass2
    {
        Cmu             0.09;
        kappa           0.41;
        E               9.8;
        type            epsilonWallFunction;
        value           nonuniform List<scalar> 2(0.000508835 0.000551263);
    }
    sun
    {
        Cmu             0.09;
        kappa           0.41;
        E               9.8;
        type            epsilonWallFunction;
        value           nonuniform List<scalar> 
14
(
0.000163815
0.00022068
0.000246521
0.000288768
0.000332923
0.000381048
0.000437466
0.00049062
0.000532324
0.000550928
0.000534679
0.000471916
0.000325757
0.000197289
)
;
    }
    heatsource1
    {
        Cmu             0.09;
        kappa           0.41;
        E               9.8;
        type            epsilonWallFunction;
        value           nonuniform List<scalar> 3(4.04306e-05 4.28334e-05 4.98419e-05);
    }
    heatsource2
    {
        Cmu             0.09;
        kappa           0.41;
        E               9.8;
        type            epsilonWallFunction;
        value           nonuniform List<scalar> 4(0.000235509 0.000113605 0.000113605 0.000219424);
    }
    Table_master
    {
        Cmu             0.09;
        kappa           0.41;
        E               9.8;
        type            epsilonWallFunction;
        value           nonuniform List<scalar> 9(0.000190379 0.000129607 9.14547e-05 6.70473e-05 5.09338e-05 4.0001e-05 3.23956e-05 2.70677e-05 2.35231e-05);
    }
    Table_slave
    {
        Cmu             0.09;
        kappa           0.41;
        E               9.8;
        type            epsilonWallFunction;
        value           nonuniform List<scalar> 9(0.000249956 0.000192732 0.000160729 0.000140819 0.000126421 0.000113577 0.00010058 8.81062e-05 7.46329e-05);
    }
    inlet
    {
        type            turbulentMixingLengthDissipationRateInlet;
        mixingLength    0.01;
        phi             phi;
        k               k;
        value           uniform 0.000101881;
    }
    outlet
    {
        type            zeroGradient;
    }
}


// ************************************************************************* //
