/*--------------------------------*- C++ -*----------------------------------*\
  =========                 |
  \\      /  F ield         | OpenFOAM: The Open Source CFD Toolbox
   \\    /   O peration     | Website:  https://openfoam.org
    \\  /    A nd           | Version:  6
     \\/     M anipulation  |
\*---------------------------------------------------------------------------*/
FoamFile
{
    version     2.0;
    format      ascii;
    class       volScalarField;
    location    "250";
    object      epsilon;
}
// * * * * * * * * * * * * * * * * * * * * * * * * * * * * * * * * * * * * * //

dimensions      [0 2 -3 0 0 0 0];

internalField   nonuniform List<scalar> 
459
(
0.0003225
0.000437936
0.000491403
0.000578179
0.000671434
0.000777309
0.000890579
0.00098644
0.00104297
0.00103944
0.000963939
0.000721294
0.000520423
0.000335091
0.000214279
4.56473e-05
0.000106198
0.000140133
0.000158633
0.000155879
0.000142631
0.000118144
9.52627e-05
7.71783e-05
6.3271e-05
5.25117e-05
4.40882e-05
3.74532e-05
3.2072e-05
2.75333e-05
2.34862e-05
1.96592e-05
1.47203e-05
1.18488e-05
0.000691335
0.000885529
0.000401972
0.000405801
0.000439853
0.000501692
0.000587931
0.000672796
0.000726261
0.000725731
0.000668266
0.000542856
0.000423935
0.000326258
0.000238715
0.000394635
0.00020372
0.000177669
0.000347637
0.000188089
0.000149479
0.00012972
0.000116568
0.000116311
9.46768e-05
7.45395e-05
5.86407e-05
4.64837e-05
3.72384e-05
3.02223e-05
2.48379e-05
2.08722e-05
1.86777e-05
2.06454e-05
1.90531e-05
2.28178e-05
0.00115168
0.00183781
0.000434527
0.000374702
0.000414823
0.000497094
0.000606862
0.000705664
0.000765857
0.000772434
0.00071914
0.000611704
0.000498373
0.000395894
0.000302109
0.000283221
0.000362344
0.000219996
0.000300722
0.000209591
0.000169362
0.000144324
0.000136043
0.000299577
0.00019559
0.000132711
9.38353e-05
6.89541e-05
5.24597e-05
4.13016e-05
3.37099e-05
2.88044e-05
2.20527e-05
2.1885e-05
2.53408e-05
3.11378e-05
0.00174318
0.00354429
0.000584271
0.000371722
0.000415138
0.000531809
0.000676545
0.000780524
0.000840231
0.000849676
0.000793717
0.000687536
0.000563892
0.000451795
0.000359958
0.000305286
0.000296492
0.000518569
0.00037767
0.00027445
0.00021838
0.000183765
0.000159281
0.000153663
0.000404804
0.000300738
0.00023797
0.000195945
0.000164591
0.00013974
0.000118472
9.87199e-05
7.901e-05
4.5183e-05
3.11794e-05
4.3127e-05
4.5039e-05
0.00252831
0.00619733
0.00101137
0.000419013
0.000452457
0.000662606
0.000840586
0.000928652
0.000976409
0.000975196
0.000905028
0.000772906
0.000615742
0.000475415
0.000370949
0.000304587
0.000281294
0.000289901
0.000266285
0.000246455
0.00022601
0.000203174
0.00017896
0.000157961
0.000156251
0.000144527
0.000132737
0.000121247
0.00010952
9.74499e-05
8.48665e-05
7.2071e-05
5.96289e-05
4.55108e-05
3.45175e-05
4.62215e-05
4.95841e-05
6.45495e-05
6.08189e-05
5.34993e-05
0.00360755
0.00933845
0.00216378
0.000701785
0.000651628
0.0010302
0.00114392
0.00117607
0.00119177
0.00116774
0.00106357
0.000882502
0.000672195
0.000489214
0.000361666
0.00029231
0.000272394
0.000278139
0.000280682
0.000274255
0.000257629
0.000232556
0.000202929
0.000173969
0.000152936
0.000139252
0.000129612
0.00012059
0.000110661
9.93491e-05
8.6631e-05
7.33583e-05
6.09316e-05
5.01213e-05
4.10878e-05
4.32147e-05
5.03992e-05
5.50211e-05
0.000138869
0.000101391
0.00485561
0.0114166
0.00460145
0.00211133
0.00182831
0.0017613
0.00163429
0.00154997
0.0015095
0.00144014
0.00127598
0.00102164
0.000739984
0.000508116
0.000360506
0.000294622
0.000287256
0.000304449
0.000315582
0.000309995
0.000289412
0.000258601
0.000223768
0.000191322
0.000167381
0.000153113
0.000144033
0.000135961
0.000127223
0.000117637
0.000107207
9.55315e-05
8.49676e-05
7.64872e-05
7.04482e-05
6.85647e-05
7.19316e-05
7.98551e-05
0.000225345
0.000167355
0.00518712
0.0131982
0.00727681
0.00489579
0.00364597
0.00277121
0.00226679
0.00203983
0.00193938
0.00180218
0.00153801
0.00117527
0.000801368
0.000526705
0.000377827
0.000329434
0.000335403
0.000355618
0.000363729
0.00035095
0.000323034
0.000288136
0.000253596
0.000225017
0.000205424
0.000193575
0.00018528
0.000177131
0.000168044
0.000159206
0.000153337
0.000153089
0.000157177
0.00016739
0.000191165
0.000223998
0.000275201
0.000344957
0.00137726
0.000319576
0.00486976
0.00821091
0.00621376
0.0046784
0.00358878
0.00291201
0.00261465
0.0025484
0.0024836
0.0022356
0.00178248
0.00126698
0.000797125
0.000559855
0.000466702
0.000441752
0.000448093
0.000459274
0.000458699
0.000442925
0.000416741
0.000388644
0.000363933
0.000345229
0.000333075
0.000324083
0.000313818
0.000298041
0.000275064
0.000247801
0.000223693
0.000212083
0.000222266
0.000252545
0.000304762
0.000382378
0.000487427
0.000619856
0.00076662
0.000422152
0.00132787
0.00171592
0.00219415
0.00287568
0.00335932
0.00349125
0.0031575
0.00243899
0.00157399
0.00111965
0.000897218
0.000808824
0.000781563
0.000782543
0.000793766
0.000804012
0.000808101
0.000806925
0.000804023
0.000802848
0.000804609
0.00080783
0.000808431
0.000802442
0.000786131
0.000750479
0.000688379
0.000602375
0.000508251
0.00042262
0.000356305
0.000326222
0.000339226
0.000395397
0.000485811
0.000590562
0.000708088
0.000739764
0.000913809
0.00412949
0.0062819
0.0065301
0.00618074
0.00538977
0.00427233
0.00321271
0.00242025
0.00199467
0.0018044
0.00174247
0.00174021
0.00177017
0.00182181
0.00188717
0.00195523
0.0020174
0.00207142
0.0021205
0.00216897
0.00221921
0.00227022
0.00231521
0.00233973
0.00232728
0.00225931
0.00212002
0.00190371
0.00162773
0.0013322
0.00105759
0.000843426
0.000706661
0.000637522
0.000628993
0.00149632
0.00108493
0.00119173
0.00144486
0.00170448
0.00267946
0.00286727
0.0027391
0.00274509
0.00259497
0.00236203
0.00206923
0.00180138
0.00162005
0.00151831
0.00146878
0.0014504
0.00144824
0.00145155
0.00145312
0.00145006
0.00144315
0.00143464
0.00142629
0.00141851
0.00141018
0.00139867
0.00138018
0.00135072
0.0013059
0.00124289
0.00116235
0.00106996
0.000974052
0.000882669
0.000803284
0.000740062
0.00069248
0.000652073
0.000610113
0.000654471
0.000603463
)
;

boundaryField
{
    floor
    {
        Cmu             0.09;
        kappa           0.41;
        E               9.8;
        type            epsilonWallFunction;
        value           nonuniform List<scalar> 
29
(
0.000214279
4.56473e-05
0.000106198
0.000140133
0.000158633
0.000155879
0.000142631
0.000118144
9.52627e-05
7.71783e-05
6.3271e-05
5.25117e-05
4.40882e-05
3.74532e-05
3.2072e-05
2.75333e-05
2.34862e-05
1.96592e-05
1.47203e-05
1.18488e-05
1.18488e-05
2.28178e-05
3.11378e-05
4.5039e-05
0.000214279
4.56473e-05
0.000177669
0.000219996
0.000518569
)
;
    }
    ceiling
    {
        Cmu             0.09;
        kappa           0.41;
        E               9.8;
        type            epsilonWallFunction;
        value           nonuniform List<scalar> 
43
(
0.00119173
0.00144486
0.00170448
0.00267946
0.00286727
0.0027391
0.00274509
0.00259497
0.00236203
0.00206923
0.00180138
0.00162005
0.00151831
0.00146878
0.0014504
0.00144824
0.00145155
0.00145312
0.00145006
0.00144315
0.00143464
0.00142629
0.00141851
0.00141018
0.00139867
0.00138018
0.00135072
0.0013059
0.00124289
0.00116235
0.00106996
0.000974052
0.000882669
0.000803284
0.000740062
0.00069248
0.000652073
0.000610113
0.000654471
0.000603463
0.00486976
0.00821091
0.000913809
)
;
    }
    sWall
    {
        Cmu             0.09;
        kappa           0.41;
        E               9.8;
        type            epsilonWallFunction;
        value           uniform 0.00119173;
    }
    nWall
    {
        Cmu             0.09;
        kappa           0.41;
        E               9.8;
        type            epsilonWallFunction;
        value           nonuniform List<scalar> 6(5.34993e-05 0.000101391 0.000167355 0.000739764 0.00108493 0.000603463);
    }
    sideWalls
    {
        type            empty;
    }
    glass1
    {
        Cmu             0.09;
        kappa           0.41;
        E               9.8;
        type            epsilonWallFunction;
        value           nonuniform List<scalar> 9(0.0003225 0.000691335 0.00115168 0.00174318 0.00252831 0.00360755 0.00485561 0.00518712 0.00486976);
    }
    glass2
    {
        Cmu             0.09;
        kappa           0.41;
        E               9.8;
        type            epsilonWallFunction;
        value           nonuniform List<scalar> 2(0.000319576 0.000422152);
    }
    sun
    {
        Cmu             0.09;
        kappa           0.41;
        E               9.8;
        type            epsilonWallFunction;
        value           nonuniform List<scalar> 
14
(
0.0003225
0.000437936
0.000491403
0.000578179
0.000671434
0.000777309
0.000890579
0.00098644
0.00104297
0.00103944
0.000963939
0.000721294
0.000520423
0.000335091
)
;
    }
    heatsource1
    {
        Cmu             0.09;
        kappa           0.41;
        E               9.8;
        type            epsilonWallFunction;
        value           nonuniform List<scalar> 3(6.45495e-05 6.08189e-05 5.34993e-05);
    }
    heatsource2
    {
        Cmu             0.09;
        kappa           0.41;
        E               9.8;
        type            epsilonWallFunction;
        value           nonuniform List<scalar> 4(0.000394635 0.00020372 0.00020372 0.000362344);
    }
    Table_master
    {
        Cmu             0.09;
        kappa           0.41;
        E               9.8;
        type            epsilonWallFunction;
        value           nonuniform List<scalar> 9(0.000299577 0.00019559 0.000132711 9.38353e-05 6.89541e-05 5.24597e-05 4.13016e-05 3.37099e-05 2.88044e-05);
    }
    Table_slave
    {
        Cmu             0.09;
        kappa           0.41;
        E               9.8;
        type            epsilonWallFunction;
        value           nonuniform List<scalar> 9(0.000404804 0.000300738 0.00023797 0.000195945 0.000164591 0.00013974 0.000118472 9.87199e-05 7.901e-05);
    }
    inlet
    {
        type            turbulentMixingLengthDissipationRateInlet;
        mixingLength    0.01;
        phi             phi;
        k               k;
        value           uniform 0.000101881;
    }
    outlet
    {
        type            zeroGradient;
    }
}


// ************************************************************************* //
