/*--------------------------------*- C++ -*----------------------------------*\
  =========                 |
  \\      /  F ield         | OpenFOAM: The Open Source CFD Toolbox
   \\    /   O peration     | Website:  https://openfoam.org
    \\  /    A nd           | Version:  6
     \\/     M anipulation  |
\*---------------------------------------------------------------------------*/
FoamFile
{
    version     2.0;
    format      ascii;
    class       volScalarField;
    location    "320";
    object      nut;
}
// * * * * * * * * * * * * * * * * * * * * * * * * * * * * * * * * * * * * * //

dimensions      [0 2 -1 0 0 0 0];

internalField   nonuniform List<scalar> 
459
(
0.000930978
0.0010268
0.00106233
0.00111897
0.00117265
0.00122589
0.00128218
0.0013289
0.00136012
0.00136869
0.00134836
0.00129274
0.00114557
0.00097187
0.000819699
0.000505967
0.000681955
0.00069962
0.000714166
0.000709655
0.000690007
0.000649926
0.000606468
0.000566435
0.000530819
0.000499228
0.00047132
0.000446468
0.000423863
0.000402595
0.000381441
0.00035917
0.000325487
0.000309503
0.00121512
0.00300378
0.00290591
0.00337097
0.00385969
0.00432551
0.00467069
0.00502315
0.00536279
0.00565393
0.00585057
0.00590597
0.00574125
0.00520603
0.00353052
0.00102659
0.000794093
0.000778344
0.00245657
0.00242872
0.00269864
0.00288207
0.00278143
0.00200412
0.00167206
0.00145402
0.00129411
0.00117117
0.00106989
0.000978943
0.000892285
0.000806199
0.000730502
0.000703535
0.000609125
0.000392872
0.00145067
0.00405624
0.00362184
0.00425287
0.00458302
0.00483219
0.00503202
0.00530065
0.005653
0.00607664
0.00650457
0.00685522
0.00698175
0.00674561
0.00586141
0.00386675
0.00101004
0.000862172
0.00212261
0.00276148
0.00333947
0.00370806
0.00341456
0.000894607
0.000777837
0.000685405
0.000612387
0.000554187
0.000507377
0.00046972
0.000439831
0.000417742
0.000473467
0.00059881
0.000690421
0.000435131
0.00167432
0.00498259
0.00363083
0.00436002
0.00446585
0.00448072
0.00456292
0.00476027
0.00511454
0.00563694
0.00622089
0.00674895
0.00706021
0.00712985
0.00682978
0.00573054
0.00313738
0.00115947
0.00166044
0.00241642
0.00336264
0.00418347
0.00465321
0.00421767
0.000989082
0.000896488
0.000832243
0.000784949
0.000746996
0.000712278
0.000678907
0.000644466
0.000604576
0.000571436
0.00060595
0.000790453
0.000492783
0.00190312
0.00616948
0.00377232
0.00423767
0.00429939
0.00419089
0.00421309
0.00436322
0.00471715
0.00530684
0.00595008
0.00650439
0.00686699
0.00702556
0.00697693
0.00656841
0.00557651
0.00488942
0.00506367
0.00545344
0.00584156
0.00610196
0.00616312
0.00587881
0.00478542
0.0042739
0.00399176
0.00380429
0.00364386
0.00346262
0.00317016
0.00275657
0.00224028
0.00170365
0.00128685
0.00116475
0.000824241
0.000562504
0.000555576
0.00053687
0.00215022
0.00753785
0.00483201
0.00419134
0.00436689
0.00421884
0.00417054
0.00425925
0.0045998
0.00519343
0.00587946
0.00645724
0.00680702
0.00694407
0.00697095
0.00696445
0.0068979
0.00702948
0.00726061
0.0074246
0.00745759
0.0073458
0.00710014
0.00672466
0.00621086
0.00579008
0.00546931
0.00520918
0.00497551
0.00473552
0.00444249
0.00403579
0.00351378
0.00290807
0.002315
0.00189742
0.00148033
0.00115874
0.00128276
0.00068133
0.00238687
0.00856655
0.00670502
0.00505242
0.00484425
0.00458196
0.00432081
0.00430984
0.00466299
0.00532035
0.00606855
0.00667239
0.00700737
0.0071247
0.00720852
0.00743725
0.00777678
0.00811703
0.00829681
0.00826249
0.00804228
0.00767991
0.00722412
0.00672578
0.00624308
0.0058464
0.00553437
0.00528006
0.00505801
0.00484192
0.00460542
0.00433593
0.00400536
0.00358048
0.00309484
0.00264354
0.00218758
0.00176749
0.00166309
0.000811698
0.00244647
0.00788594
0.00680317
0.00601026
0.0054251
0.00472868
0.00430595
0.00435244
0.00487752
0.00570458
0.0065424
0.00715125
0.00745085
0.00756355
0.00769074
0.00793456
0.00816192
0.00830427
0.00828509
0.00805106
0.00764835
0.00713713
0.00658619
0.00606273
0.00562239
0.00528218
0.00501761
0.00480065
0.00461183
0.00443084
0.00423585
0.00403247
0.00387119
0.00372358
0.00346704
0.00320353
0.00290627
0.002414
0.00259718
0.00102421
0.00239784
0.00286935
0.00315517
0.00322213
0.00320464
0.00326374
0.00360157
0.00434015
0.00540394
0.00650816
0.00735429
0.00782498
0.0079726
0.00800801
0.00786367
0.00769731
0.00760656
0.00751351
0.00732681
0.0070273
0.00663823
0.00620323
0.00578774
0.00542647
0.00512943
0.00487931
0.0046491
0.00442155
0.00418931
0.00394073
0.0036449
0.00328046
0.00290639
0.00260366
0.00237197
0.00216893
0.0019894
0.0018344
0.00172771
0.00109532
0.00104289
0.00169158
0.00244448
0.00355129
0.00484078
0.00615421
0.00729902
0.00802714
0.00828095
0.00822701
0.00785668
0.00743731
0.00711791
0.00691827
0.00678643
0.00665772
0.00649889
0.00631617
0.00613132
0.00595932
0.00580116
0.00564549
0.00548326
0.00529758
0.00507005
0.00478902
0.00445314
0.00407351
0.00366885
0.00324874
0.00286052
0.00253477
0.00229325
0.00213337
0.00201885
0.00190867
0.00181773
0.00126794
0.00137038
0.0031458
0.00499698
0.00647201
0.00739631
0.00817414
0.00870562
0.00871593
0.00831073
0.00773263
0.00723151
0.0068894
0.00669935
0.00660762
0.00656646
0.00654481
0.00652717
0.0065094
0.006493
0.00647971
0.00646746
0.0064481
0.00641169
0.00634501
0.00623154
0.00605364
0.00579625
0.00545237
0.00502665
0.00452997
0.00401179
0.00351698
0.00308455
0.00273491
0.00246071
0.00226207
0.00292271
0.00142595
0.00141294
0.00149644
0.00156927
0.00179511
0.00184365
0.00183074
0.00185615
0.0018729
0.00185035
0.00179812
0.00173093
0.00166196
0.00161177
0.0015828
0.00156857
0.00156315
0.00156201
0.00156209
0.00156187
0.00156102
0.00155971
0.001558
0.00155569
0.00155233
0.00154671
0.0015372
0.00152204
0.00149963
0.00146913
0.00143107
0.00138769
0.00134363
0.00130202
0.00126657
0.00123981
0.00122176
0.00120695
0.00118532
0.00120336
0.00117118
)
;

boundaryField
{
    floor
    {
        type            nutkWallFunction;
        Cmu             0.09;
        kappa           0.41;
        E               9.8;
        value           nonuniform List<scalar> 
29
(
9.92706e-05
6.04791e-05
8.25087e-05
8.46806e-05
8.64637e-05
8.59116e-05
8.35011e-05
7.85581e-05
7.31571e-05
6.81402e-05
6.36405e-05
5.96183e-05
5.60388e-05
5.28292e-05
4.98904e-05
4.71072e-05
4.43206e-05
4.13656e-05
3.68509e-05
3.46879e-05
3.46878e-05
4.58278e-05
5.13563e-05
5.87921e-05
9.92706e-05
6.0479e-05
9.42771e-05
0.000104369
0.000139325
)
;
    }
    ceiling
    {
        type            nutkWallFunction;
        Cmu             0.09;
        kappa           0.41;
        E               9.8;
        value           nonuniform List<scalar> 
43
(
0.000168293
0.000177708
0.000185874
0.000210962
0.00021632
0.000214913
0.000217714
0.000219557
0.000217083
0.000211336
0.000203914
0.000196262
0.000190673
0.000187439
0.000185848
0.000185241
0.000185115
0.000185124
0.000185099
0.000185003
0.000184857
0.000184666
0.000184407
0.00018403
0.0001834
0.000182334
0.000180633
0.000178115
0.000174681
0.000170386
0.000165474
0.000160467
0.000155723
0.000151667
0.000148597
0.000146521
0.000144817
0.000142322
0.000144402
0.000140689
0.000276435
0.000326366
0.000163446
)
;
    }
    sWall
    {
        type            nutkWallFunction;
        Cmu             0.09;
        kappa           0.41;
        E               9.8;
        value           uniform 0.000168324;
    }
    nWall
    {
        type            nutkWallFunction;
        Cmu             0.09;
        kappa           0.41;
        E               9.8;
        value           nonuniform List<scalar> 6(6.4391e-05 8.24262e-05 9.8307e-05 0.000151837 0.000169822 0.0001407);
    }
    sideWalls
    {
        type            empty;
    }
    glass1
    {
        type            nutkWallFunction;
        Cmu             0.09;
        kappa           0.41;
        E               9.8;
        value           nonuniform List<scalar> 9(0.000112603 0.000145839 0.000172715 0.000197785 0.000223056 0.000249982 0.000275461 0.000281837 0.000276644);
    }
    glass2
    {
        type            nutkWallFunction;
        Cmu             0.09;
        kappa           0.41;
        E               9.8;
        value           nonuniform List<scalar> 2(0.000123591 0.00013191);
    }
    sun
    {
        type            nutkWallFunction;
        Cmu             0.09;
        kappa           0.41;
        E               9.8;
        value           nonuniform List<scalar> 
14
(
0.00011257
0.000123873
0.000128034
0.000134633
0.000140851
0.000146989
0.000153445
0.000158779
0.000162331
0.000163305
0.000160993
0.00015465
0.000137714
0.000117406
)
;
    }
    heatsource1
    {
        type            nutkWallFunction;
        Cmu             0.09;
        kappa           0.41;
        E               9.8;
        value           nonuniform List<scalar> 3(6.76374e-05 6.67636e-05 6.43978e-05);
    }
    heatsource2
    {
        type            nutkWallFunction;
        Cmu             0.09;
        kappa           0.41;
        E               9.8;
        value           nonuniform List<scalar> 4(0.000123851 9.61837e-05 9.61837e-05 0.000121907);
    }
    Table_master
    {
        type            nutkWallFunction;
        Cmu             0.09;
        kappa           0.41;
        E               9.8;
        value           nonuniform List<scalar> 9(0.000108248 9.42158e-05 8.29325e-05 7.38904e-05 6.65898e-05 6.06498e-05 5.58223e-05 5.19561e-05 4.90779e-05);
    }
    Table_slave
    {
        type            nutkWallFunction;
        Cmu             0.09;
        kappa           0.41;
        E               9.8;
        value           nonuniform List<scalar> 9(0.000119445 0.000108472 0.000100782 9.5077e-05 9.0469e-05 8.62294e-05 8.21312e-05 7.78761e-05 7.29133e-05);
    }
    inlet
    {
        type            calculated;
        value           uniform 0.000100623;
    }
    outlet
    {
        type            calculated;
        value           nonuniform List<scalar> 2(0.00141294 0.00149644);
    }
}


// ************************************************************************* //
