/*--------------------------------*- C++ -*----------------------------------*\
  =========                 |
  \\      /  F ield         | OpenFOAM: The Open Source CFD Toolbox
   \\    /   O peration     | Website:  https://openfoam.org
    \\  /    A nd           | Version:  6
     \\/     M anipulation  |
\*---------------------------------------------------------------------------*/
FoamFile
{
    version     2.0;
    format      ascii;
    class       volScalarField;
    location    "140";
    object      alphat;
}
// * * * * * * * * * * * * * * * * * * * * * * * * * * * * * * * * * * * * * //

dimensions      [1 -1 -1 0 0 0 0];

internalField   nonuniform List<scalar> 
459
(
0.0011852
0.00130957
0.00135319
0.00142691
0.00149815
0.00157049
0.00163989
0.00168992
0.00171178
0.00169927
0.00164871
0.00155353
0.00137166
0.00117082
0.00100439
0.000658433
0.00085332
0.000899334
0.000928195
0.000921493
0.000894388
0.000839485
0.000780958
0.000728005
0.000681722
0.000641345
0.000605936
0.000574934
0.0005472
0.00052146
0.000496146
0.000469953
0.00043066
0.000412185
0.00155695
0.00395593
0.00387959
0.00453064
0.00519595
0.00578421
0.0062484
0.00667969
0.00704491
0.00730606
0.00742265
0.00734542
0.00702284
0.00636811
0.0043738
0.00127235
0.000987311
0.00103761
0.0033072
0.00318518
0.00350557
0.00374008
0.00360418
0.00256943
0.00213171
0.00184711
0.00164092
0.00148444
0.00136187
0.00125494
0.00115252
0.00104789
0.000952055
0.000921107
0.000825595
0.000524832
0.00186369
0.0053562
0.0048207
0.00568192
0.00613336
0.00648383
0.00680489
0.00718502
0.00762334
0.00807889
0.00847689
0.00871367
0.00868154
0.0083299
0.00722208
0.00478049
0.00126028
0.00110991
0.00297667
0.00362793
0.00432057
0.00478672
0.00440978
0.00115925
0.0010051
0.000883739
0.000788341
0.000712643
0.000651864
0.000602965
0.000564264
0.000535882
0.000610704
0.000785013
0.000959868
0.000587681
0.00215552
0.00662581
0.00488269
0.0058327
0.00601468
0.00613652
0.00633793
0.00666695
0.00714691
0.00773239
0.00830862
0.00871348
0.00892796
0.00891468
0.00849625
0.00713198
0.00391154
0.00145272
0.00215774
0.00309907
0.00430206
0.00536199
0.00598053
0.00543997
0.00128615
0.00116464
0.00107585
0.0010062
0.000947177
0.000896048
0.000848156
0.000799397
0.000744879
0.000710142
0.000779561
0.00110405
0.000667805
0.0024539
0.00823804
0.00524958
0.00579203
0.00591293
0.00590101
0.00601985
0.00630074
0.00680447
0.00743647
0.00805815
0.00853717
0.00881926
0.00891622
0.00881016
0.00828359
0.0070508
0.00617719
0.00644703
0.00698398
0.00750581
0.00785746
0.00795402
0.00761413
0.00622552
0.00552386
0.00509444
0.00478201
0.00450434
0.0041702
0.00375481
0.00324056
0.00263027
0.00200676
0.00153776
0.00146623
0.00106953
0.000743743
0.000717676
0.000670868
0.00277323
0.010054
0.0068934
0.00610861
0.0062766
0.00606791
0.00603176
0.0062305
0.00672539
0.00740554
0.0080817
0.00858834
0.0088627
0.00895622
0.00897404
0.00896032
0.00888959
0.00906101
0.00936497
0.00957971
0.00962986
0.00950146
0.00921214
0.00876662
0.00813716
0.00758818
0.00714114
0.00675661
0.00639172
0.00598186
0.00549796
0.00491363
0.00422122
0.00346292
0.00275017
0.00224693
0.00175165
0.00136922
0.00147029
0.000788739
0.00306332
0.0113491
0.00943788
0.00765988
0.00709078
0.00645157
0.00616335
0.00633293
0.00690397
0.00768735
0.0084416
0.00897864
0.00924782
0.00935002
0.00947922
0.00977036
0.0101482
0.0105388
0.0107515
0.0107062
0.0104379
0.0100043
0.00947002
0.00889416
0.00833044
0.00784491
0.00743542
0.00707487
0.00673634
0.00638958
0.00600514
0.0055437
0.00499748
0.004379
0.0037418
0.0031589
0.00255019
0.00200797
0.0018824
0.000909668
0.00312373
0.0100869
0.00897817
0.00796144
0.00691446
0.00620642
0.00607466
0.00651612
0.00736657
0.00834669
0.00918583
0.00972193
0.00996757
0.010078
0.0102339
0.0104545
0.010673
0.0108272
0.0108018
0.0105258
0.0100416
0.00943194
0.0087823
0.00815962
0.00761414
0.00716285
0.00678496
0.00645283
0.006147
0.00585076
0.00554754
0.00522708
0.00489359
0.00448223
0.00407236
0.00367355
0.00323706
0.00258362
0.00280784
0.00109678
0.00304819
0.00361914
0.00411435
0.00421535
0.00440699
0.00492508
0.00584528
0.00710287
0.00844982
0.00957408
0.0103144
0.0106502
0.010726
0.0106056
0.0103176
0.0101094
0.0100098
0.00990631
0.00968845
0.00933186
0.0088523
0.00830754
0.00777591
0.00729671
0.00687941
0.0065078
0.00615661
0.00580527
0.00544223
0.00505802
0.00463561
0.00413485
0.00358517
0.00308543
0.00269909
0.00240643
0.00218808
0.00202405
0.00192261
0.00122483
0.00216862
0.00408234
0.00581126
0.00734273
0.00879416
0.0100309
0.0108518
0.0111872
0.0111922
0.0107789
0.0102393
0.00975416
0.00941061
0.00919573
0.00904923
0.00889546
0.00869536
0.00845469
0.00819823
0.00794793
0.00771325
0.00749012
0.00726238
0.00700758
0.00670673
0.00634389
0.00590692
0.00539166
0.00481665
0.00421926
0.00365132
0.00315698
0.0027671
0.00250173
0.0023385
0.00222546
0.002179
0.00155632
0.00215228
0.004759
0.00703022
0.0087643
0.0103339
0.0112336
0.01144
0.0110317
0.0103988
0.00980512
0.00934831
0.00905196
0.00888927
0.00881159
0.00877706
0.00875528
0.00872793
0.00868878
0.00863972
0.00858477
0.00852472
0.00845596
0.00837095
0.00825806
0.00810256
0.00788716
0.00759165
0.00719516
0.00668826
0.00608274
0.0054117
0.00473062
0.00410242
0.00357294
0.00315636
0.00285958
0.0036576
0.00180439
0.0016388
0.00177113
0.00192132
0.00204917
0.00218629
0.00231993
0.00239045
0.0023887
0.00234056
0.00228061
0.00220882
0.00215007
0.00211128
0.00208942
0.00207953
0.00207685
0.00207722
0.00207758
0.00207643
0.00207371
0.00206995
0.00206561
0.00206081
0.00205511
0.00204751
0.00203654
0.00202016
0.00199604
0.00196218
0.0019179
0.00186396
0.00180286
0.00173887
0.00167691
0.00162158
0.00157535
0.00153604
0.00150223
0.00158065
0.00153276
)
;

boundaryField
{
    floor
    {
        type            compressible::alphatWallFunction;
        Prt             0.85;
        value           nonuniform List<scalar> 
29
(
0.000143292
9.3421e-05
0.000121824
0.000128419
0.000132528
0.000131575
0.000127714
0.000119848
0.000111394
0.00010368
9.68815e-05
9.09043e-05
8.56244e-05
8.09698e-05
7.67795e-05
7.28666e-05
6.89945e-05
6.4961e-05
5.88554e-05
5.59538e-05
5.59531e-05
7.33668e-05
8.28729e-05
9.4813e-05
0.00014329
9.34199e-05
0.000147963
0.000158068
0.000205028
)
;
    }
    ceiling
    {
        type            compressible::alphatWallFunction;
        Prt             0.85;
        value           nonuniform List<scalar> 
43
(
0.000229828
0.000247366
0.000267107
0.000283855
0.000301647
0.000318858
0.000327902
0.000327689
0.000321534
0.000313849
0.000304614
0.000297032
0.000292013
0.000289181
0.000287898
0.000287551
0.0002876
0.000287646
0.000287498
0.000287145
0.000286656
0.000286092
0.000285469
0.000284727
0.000283739
0.000282313
0.00028018
0.000277036
0.000272617
0.000266826
0.000259753
0.000251715
0.000243264
0.000235049
0.000227685
0.00022151
0.000216244
0.000211706
0.000222228
0.000215818
0.000410936
0.000481417
0.000297052
)
;
    }
    sWall
    {
        type            compressible::alphatWallFunction;
        Prt             0.85;
        value           uniform 0.000228748;
    }
    nWall
    {
        type            compressible::alphatWallFunction;
        Prt             0.85;
        value           nonuniform List<scalar> 6(9.48557e-05 0.000112085 0.000129443 0.000218497 0.000251438 0.00021535);
    }
    sideWalls
    {
        type            empty;
    }
    glass1
    {
        type            compressible::alphatWallFunction;
        Prt             0.85;
        value           nonuniform List<scalar> 9(0.000165211 0.000215238 0.000255577 0.000293333 0.000331408 0.000371641 0.000407799 0.000415366 0.000406148);
    }
    glass2
    {
        type            compressible::alphatWallFunction;
        Prt             0.85;
        value           nonuniform List<scalar> 2(0.000155227 0.000172934);
    }
    sun
    {
        type            compressible::alphatWallFunction;
        Prt             0.85;
        value           nonuniform List<scalar> 
14
(
0.000168511
0.000185582
0.000191528
0.000201529
0.000211138
0.000220843
0.000230107
0.000236759
0.000239658
0.000238
0.000231283
0.000218577
0.000194042
0.000166517
)
;
    }
    heatsource1
    {
        type            compressible::alphatWallFunction;
        Prt             0.85;
        value           nonuniform List<scalar> 3(0.000105716 0.000101906 9.50211e-05);
    }
    heatsource2
    {
        type            compressible::alphatWallFunction;
        Prt             0.85;
        value           nonuniform List<scalar> 4(0.000180233 0.000140634 0.000140632 0.00017858);
    }
    Table_master
    {
        type            compressible::alphatWallFunction;
        Prt             0.85;
        value           nonuniform List<scalar> 9(0.000164661 0.000143145 0.000125936 0.000112212 0.00010118 9.22205e-05 8.49375e-05 7.91218e-05 7.48252e-05);
    }
    Table_slave
    {
        type            compressible::alphatWallFunction;
        Prt             0.85;
        value           nonuniform List<scalar> 9(0.000182128 0.000165408 0.000153064 0.000143298 0.000134961 0.00012769 0.000120834 0.000113807 0.000105889);
    }
    inlet
    {
        type            fixedValue;
        value           uniform 1.94e-05;
    }
    outlet
    {
        type            zeroGradient;
    }
}


// ************************************************************************* //
