/*--------------------------------*- C++ -*----------------------------------*\
  =========                 |
  \\      /  F ield         | OpenFOAM: The Open Source CFD Toolbox
   \\    /   O peration     | Website:  https://openfoam.org
    \\  /    A nd           | Version:  6
     \\/     M anipulation  |
\*---------------------------------------------------------------------------*/
FoamFile
{
    version     2.0;
    format      ascii;
    class       volScalarField;
    location    "140";
    object      T;
}
// * * * * * * * * * * * * * * * * * * * * * * * * * * * * * * * * * * * * * //

dimensions      [0 0 0 1 0 0 0];

internalField   nonuniform List<scalar> 
459
(
305.836
305.67
305.665
305.665
305.665
305.664
305.661
305.655
305.647
305.639
305.634
305.632
305.629
305.621
305.593
305.641
305.7
305.727
305.744
305.755
305.763
305.765
305.765
305.765
305.764
305.763
305.762
305.761
305.761
305.761
305.761
305.761
305.763
305.765
305.957
305.717
305.707
305.712
305.714
305.713
305.706
305.69
305.669
305.652
305.642
305.642
305.644
305.644
305.634
305.64
305.648
305.707
305.727
305.746
305.765
305.783
305.797
305.803
305.808
305.811
305.814
305.817
305.82
305.823
305.824
305.824
305.821
305.813
305.801
305.814
306.078
305.758
305.742
305.752
305.761
305.764
305.752
305.722
305.683
305.653
305.638
305.639
305.646
305.651
305.652
305.653
305.654
305.699
305.722
305.747
305.775
305.801
305.822
305.825
305.828
305.832
305.835
305.839
305.843
305.847
305.85
305.852
305.852
305.845
305.831
305.836
306.201
305.804
305.775
305.794
305.816
305.828
305.811
305.757
305.694
305.648
305.63
305.633
305.645
305.656
305.663
305.665
305.665
305.669
305.69
305.72
305.757
305.797
305.833
305.863
305.889
305.91
305.928
305.944
305.957
305.97
305.982
305.992
305.999
305.961
305.918
305.878
305.863
306.322
305.859
305.81
305.833
305.871
305.898
305.865
305.78
305.695
305.639
305.619
305.626
305.645
305.666
305.68
305.687
305.693
305.707
305.733
305.768
305.809
305.851
305.891
305.925
305.956
305.981
306.002
306.019
306.033
306.043
306.05
306.053
306.05
306.027
305.986
305.938
305.899
305.904
305.911
305.941
306.434
305.928
305.861
305.877
305.927
305.952
305.888
305.781
305.681
305.619
305.602
305.62
305.653
305.686
305.711
305.727
305.742
305.766
305.799
305.839
305.882
305.925
305.965
305.998
306.027
306.05
306.069
306.083
306.094
306.101
306.103
306.101
306.094
306.075
306.043
306.004
305.96
305.945
305.94
305.956
306.54
306.035
305.965
305.975
306.022
305.989
305.877
305.739
305.63
305.577
305.58
305.62
305.676
305.727
305.766
305.794
305.819
305.849
305.885
305.927
305.969
306.01
306.046
306.075
306.099
306.116
306.129
306.139
306.144
306.145
306.143
306.136
306.126
306.108
306.083
306.053
306.012
305.984
305.967
305.971
306.688
306.303
306.218
306.198
306.137
305.982
305.785
305.619
305.526
305.514
305.564
305.644
305.729
305.8
305.85
305.887
305.916
305.949
305.986
306.024
306.063
306.097
306.124
306.145
306.159
306.169
306.174
306.175
306.173
306.169
306.161
306.151
306.139
306.122
306.1
306.076
306.043
306.016
305.997
306.04
306.898
306.712
306.543
306.377
306.07
305.716
305.462
305.351
305.367
305.464
305.597
305.725
305.834
305.913
305.961
305.994
306.023
306.055
306.088
306.119
306.146
306.167
306.183
306.192
306.197
306.197
306.194
306.187
306.179
306.167
306.154
306.138
306.122
306.106
306.091
306.08
306.074
306.076
306.088
306.122
301.724
302.566
303.273
303.915
304.483
304.949
305.308
305.577
305.78
305.9
305.979
306.03
306.065
306.094
306.119
306.145
306.168
306.187
306.201
306.209
306.213
306.213
306.21
306.203
306.195
306.185
306.173
306.161
306.148
306.135
306.122
306.111
306.102
306.096
306.096
306.104
306.126
306.199
301.915
302.73
303.572
304.369
305.029
305.424
305.675
305.847
305.963
306.035
306.083
306.117
306.143
306.164
306.182
306.197
306.21
306.218
306.223
306.224
306.222
306.218
306.211
306.204
306.195
306.186
306.176
306.166
306.156
306.146
306.136
306.127
306.12
306.114
306.113
306.118
306.143
306.186
303.53
303.421
303.418
304.65
305.218
305.525
305.744
305.888
305.984
306.05
306.098
306.132
306.157
306.175
306.19
306.201
306.21
306.216
306.219
306.219
306.218
306.214
306.209
306.203
306.196
306.188
306.181
306.174
306.167
306.161
306.155
306.15
306.145
306.141
306.137
306.134
306.133
306.141
306.165
306.214
)
;

boundaryField
{
    floor
    {
        type            wallHeatTransfer;
        Tinf            uniform 301.25;
        alphaWall       uniform 0.24;
        value           nonuniform List<scalar> 
29
(
305.053
304.905
305.077
305.124
305.152
305.159
305.152
305.126
305.093
305.058
305.025
304.993
304.962
304.933
304.905
304.878
304.849
304.817
304.765
304.739
304.739
304.924
305.006
305.097
305.053
304.905
305.166
305.185
305.253
)
;
    }
    ceiling
    {
        type            wallHeatTransfer;
        Tinf            uniform 301.25;
        alphaWall       uniform 0.24;
        value           nonuniform List<scalar> 
43
(
303.334
303.246
303.254
304.405
304.947
305.247
305.458
305.593
305.678
305.733
305.769
305.794
305.812
305.826
305.839
305.849
305.857
305.862
305.865
305.865
305.863
305.859
305.854
305.847
305.84
305.832
305.822
305.812
305.801
305.789
305.775
305.76
305.744
305.729
305.714
305.702
305.693
305.692
305.731
305.766
306.603
306.465
301.869
)
;
    }
    sWall
    {
        type            wallHeatTransfer;
        Tinf            uniform 314.15;
        alphaWall       uniform 0.36;
        value           uniform 304.846;
    }
    nWall
    {
        type            wallHeatTransfer;
        Tinf            uniform 308.15;
        alphaWall       uniform 0.36;
        value           nonuniform List<scalar> 6(306.449 306.41 306.381 306.449 306.412 306.466);
    }
    sideWalls
    {
        type            empty;
    }
    glass1
    {
        type            wallHeatTransfer;
        Tinf            uniform 314.15;
        alphaWall       uniform 4.3;
        value           nonuniform List<scalar> 9(311.594 311.208 310.958 310.764 310.599 310.444 310.33 310.372 310.516);
    }
    glass2
    {
        type            wallHeatTransfer;
        Tinf            uniform 308.15;
        alphaWall       uniform 4.3;
        value           nonuniform List<scalar> 2(307.525 307.509);
    }
    sun
    {
        type            wallHeatTransfer;
        Tinf            uniform 301.25;
        alphaWall       uniform 0.24;
        value           nonuniform List<scalar> 
14
(
305.332
305.219
305.226
305.243
305.258
305.272
305.283
305.286
305.282
305.273
305.259
305.24
305.198
305.135
)
;
    }
    heatsource1
    {
        type            fixedGradient;
        gradient        uniform 0;
    }
    heatsource2
    {
        type            fixedGradient;
        gradient        uniform 0;
    }
    Table_master
    {
        type            zeroGradient;
    }
    Table_slave
    {
        type            zeroGradient;
    }
    inlet
    {
        type            fixedValue;
        value           uniform 299.15;
    }
    outlet
    {
        type            zeroGradient;
    }
}


// ************************************************************************* //
