/*--------------------------------*- C++ -*----------------------------------*\
  =========                 |
  \\      /  F ield         | OpenFOAM: The Open Source CFD Toolbox
   \\    /   O peration     | Website:  https://openfoam.org
    \\  /    A nd           | Version:  6
     \\/     M anipulation  |
\*---------------------------------------------------------------------------*/
FoamFile
{
    version     2.0;
    format      ascii;
    class       volScalarField;
    location    "600";
    object      alphat;
}
// * * * * * * * * * * * * * * * * * * * * * * * * * * * * * * * * * * * * * //

dimensions      [1 -1 -1 0 0 0 0];

internalField   nonuniform List<scalar> 
459
(
0.00289668
0.00274858
0.002622
0.00251818
0.00243197
0.00235784
0.00229228
0.00223167
0.00217321
0.00211439
0.00205258
0.00198441
0.0019046
0.00180195
0.00166765
0.000201829
0.000207878
0.000212566
0.000208226
0.000202328
0.000194723
0.000180884
0.000170811
0.00016284
0.000166571
0.000178664
0.000199233
0.000224766
0.00023938
0.000237159
0.000236972
0.000230735
0.000221937
0.000207399
0.00329782
0.00349385
0.00345217
0.00333668
0.00327101
0.00325041
0.00325602
0.00323779
0.00318998
0.00311279
0.00300769
0.0028728
0.00269356
0.00241465
0.00203239
0.0015723
0.00130978
0.000326836
0.000556469
0.000735489
0.000846954
0.000826073
0.00051561
0.000252931
0.000221968
0.000240094
0.000300945
0.000392471
0.000518614
0.000655432
0.000746998
0.000746096
0.000816583
0.000682281
0.000527918
0.00030985
0.00358189
0.00384234
0.00349107
0.00315385
0.00302749
0.00303123
0.00310108
0.00318264
0.0032434
0.0032671
0.00324413
0.00316608
0.00301736
0.00275121
0.00239347
0.00206717
0.00130833
0.000480836
0.00148011
0.00150647
0.00139862
0.00122265
0.000967774
0.000293611
0.000232001
0.000257192
0.000285984
0.000316892
0.000351659
0.000392235
0.000442281
0.000511605
0.00126845
0.00126509
0.00133899
0.000519404
0.00381882
0.00413959
0.00321428
0.00262641
0.00260225
0.0027999
0.00303319
0.00319734
0.00328935
0.00332781
0.00332781
0.00328353
0.0031708
0.00293295
0.0025943
0.00226646
0.00144363
0.000719834
0.0018013
0.00188366
0.00161311
0.00130051
0.00101052
0.000772375
0.000599044
0.000611168
0.000624109
0.000636907
0.000649506
0.000664639
0.000685188
0.000715092
0.000761408
0.00184505
0.00181602
0.00167025
0.000751708
0.0040457
0.0043172
0.00271918
0.00225775
0.00305181
0.00377412
0.00416075
0.00410815
0.00379052
0.00354242
0.00341304
0.00333358
0.00321749
0.00293316
0.00259226
0.00225186
0.00168312
0.00237758
0.00302292
0.00306356
0.00296868
0.00290859
0.00290795
0.0029683
0.00306613
0.00316974
0.0031945
0.00315042
0.00307362
0.00297401
0.00285844
0.00273237
0.00259748
0.00244885
0.0021633
0.00183721
0.00148586
0.000899615
0.000882887
0.000711486
0.00428725
0.00436481
0.00222544
0.00270183
0.00402966
0.00455947
0.00465553
0.0044101
0.00388325
0.00354699
0.00337989
0.00326941
0.00311133
0.00282692
0.00253217
0.00227905
0.00216019
0.00351032
0.00411065
0.00425492
0.00433961
0.00443918
0.0045511
0.00466275
0.00475379
0.00480001
0.00478051
0.00471305
0.00460818
0.00446797
0.00429092
0.00407332
0.00380995
0.00349428
0.00312254
0.00271558
0.00231817
0.00196477
0.00162636
0.00100874
0.00457125
0.00436141
0.00226423
0.00254259
0.00372297
0.00409614
0.00403173
0.00383191
0.00358184
0.00337749
0.00324021
0.00312054
0.00295425
0.00271716
0.00251639
0.00245424
0.00288538
0.00443123
0.00496322
0.00522043
0.00542976
0.00560319
0.00573815
0.00582966
0.00588055
0.00588224
0.00584265
0.00577228
0.00567632
0.0055565
0.00541152
0.00523637
0.00502079
0.00474598
0.00438129
0.00389128
0.00328618
0.00271657
0.00228181
0.00132332
0.00496459
0.00488587
0.00329321
0.00192067
0.00300573
0.0034611
0.00346058
0.00335313
0.0032735
0.00318396
0.00309584
0.00299475
0.00285421
0.00268401
0.0025949
0.00276389
0.00368392
0.00508021
0.00568787
0.00611092
0.00641353
0.00661694
0.00673221
0.00676924
0.00675401
0.00670247
0.00662618
0.00653252
0.00642542
0.00630679
0.00617721
0.00603635
0.00588259
0.00571073
0.0055048
0.00521679
0.00472861
0.00399109
0.00347021
0.00149643
0.00560287
0.00652099
0.00725549
0.00300906
0.00284634
0.00342575
0.00340332
0.00330207
0.00320112
0.00314355
0.00308861
0.00301658
0.00291295
0.00279872
0.00279236
0.00313648
0.00428754
0.00552898
0.00637041
0.00694082
0.00730323
0.00751107
0.00758171
0.00755666
0.00747484
0.00736361
0.00723957
0.00711119
0.00698146
0.00684998
0.00671464
0.00657281
0.0064222
0.00626123
0.0060884
0.00589668
0.00565303
0.0052708
0.00470017
0.00163435
0.0119634
0.00507984
0.00379728
0.00421676
0.00411544
0.00398248
0.00377108
0.00358652
0.00348609
0.00341047
0.00332438
0.00324055
0.00328704
0.00378981
0.00486098
0.00595859
0.0069745
0.00765677
0.00810949
0.00834526
0.00839952
0.00833119
0.00819595
0.00803479
0.00787268
0.0077214
0.00758329
0.00745474
0.00732896
0.00719814
0.00705485
0.00689282
0.00670673
0.00648979
0.00622199
0.00583402
0.00499334
0.00180325
0.00531288
0.00384137
0.00510354
0.00512288
0.00501252
0.00467495
0.00426181
0.00383357
0.00360331
0.00349378
0.00342577
0.00337201
0.00338605
0.00375865
0.00458369
0.00564878
0.0068068
0.00782908
0.00848893
0.0087811
0.00880323
0.0086736
0.00848626
0.00830043
0.00814535
0.00802895
0.00794584
0.00788367
0.00782765
0.00776342
0.00767818
0.00756029
0.00739768
0.00717494
0.00686871
0.0064298
0.00577898
0.0020629
0.000923519
0.0010907
0.00298576
0.00245173
0.00162671
0.0015083
0.00147023
0.0014466
0.00144042
0.00144708
0.00144931
0.00145447
0.00146064
0.00146287
0.00145039
0.00144871
0.00147056
0.00151746
0.00158373
0.0016738
0.00177615
0.00186326
0.00192212
0.00195241
0.00196022
0.00195327
0.00193847
0.00192098
0.00190407
0.00188925
0.00187669
0.00186562
0.00185473
0.00184242
0.00182679
0.00180533
0.0017744
0.00172936
0.00168259
0.00148427
)
;

boundaryField
{
    floor
    {
        type            compressible::alphatWallFunction;
        Prt             0.85;
        value           nonuniform List<scalar> 
29
(
0.000233789
2.12676e-05
2.23113e-05
2.31179e-05
2.23716e-05
2.13563e-05
2.00405e-05
1.76265e-05
1.58538e-05
1.44373e-05
1.50989e-05
1.72333e-05
2.08195e-05
2.52008e-05
2.76776e-05
2.73026e-05
2.72708e-05
2.62149e-05
2.47183e-05
2.22271e-05
2.22267e-05
3.93556e-05
7.23215e-05
0.000106942
0.000233787
2.12672e-05
4.21203e-05
6.64015e-05
0.000102272
)
;
    }
    ceiling
    {
        type            compressible::alphatWallFunction;
        Prt             0.85;
        value           nonuniform List<scalar> 
43
(
0.000132301
0.000155809
0.000403329
0.0003359
0.000228381
0.000212531
0.000207409
0.000204224
0.000203391
0.000204291
0.000204593
0.000205289
0.000206119
0.000206416
0.000204722
0.000204484
0.000207423
0.000213727
0.000222604
0.000234603
0.000248154
0.000259617
0.000267331
0.000271289
0.000272306
0.000271395
0.000269459
0.00026717
0.000264953
0.000263008
0.000261359
0.000259903
0.000258471
0.000256851
0.000254791
0.000251962
0.00024788
0.000241922
0.000235716
0.000209202
0.000718604
0.000825347
0.000684543
)
;
    }
    sWall
    {
        type            compressible::alphatWallFunction;
        Prt             0.85;
        value           uniform 0.000131638;
    }
    nWall
    {
        type            compressible::alphatWallFunction;
        Prt             0.85;
        value           nonuniform List<scalar> 6(0.000100954 0.000143581 0.000187155 0.000251426 0.000285383 0.000208946);
    }
    sideWalls
    {
        type            empty;
    }
    glass1
    {
        type            compressible::alphatWallFunction;
        Prt             0.85;
        value           nonuniform List<scalar> 9(0.000388386 0.000438069 0.000472876 0.000501693 0.000529121 0.000558154 0.000592087 0.00063877 0.000713822);
    }
    glass2
    {
        type            compressible::alphatWallFunction;
        Prt             0.85;
        value           nonuniform List<scalar> 2(0.000210416 0.000228862);
    }
    sun
    {
        type            compressible::alphatWallFunction;
        Prt             0.85;
        value           nonuniform List<scalar> 
14
(
0.000391939
0.000373333
0.000357348
0.000344179
0.000333198
0.000323724
0.000315318
0.000307524
0.000299985
0.000292378
0.000284358
0.000275484
0.000265052
0.000251565
)
;
    }
    heatsource1
    {
        type            compressible::alphatWallFunction;
        Prt             0.85;
        value           nonuniform List<scalar> 3(0.000128203 0.000125812 0.000101012);
    }
    heatsource2
    {
        type            compressible::alphatWallFunction;
        Prt             0.85;
        value           nonuniform List<scalar> 4(0.000220829 0.000185366 0.000185364 0.000185169);
    }
    Table_master
    {
        type            compressible::alphatWallFunction;
        Prt             0.85;
        value           nonuniform List<scalar> 9(3.674e-05 2.64524e-05 3.069e-05 3.54657e-05 4.05209e-05 4.61297e-05 5.25845e-05 6.04283e-05 7.11102e-05);
    }
    Table_slave
    {
        type            compressible::alphatWallFunction;
        Prt             0.85;
        value           nonuniform List<scalar> 9(8.43384e-05 8.61516e-05 8.80821e-05 8.99865e-05 9.18567e-05 9.40973e-05 9.71303e-05 0.000101525 0.000108288);
    }
    inlet
    {
        type            fixedValue;
        value           uniform 1.94e-05;
    }
    outlet
    {
        type            zeroGradient;
    }
}


// ************************************************************************* //
