/*--------------------------------*- C++ -*----------------------------------*\
  =========                 |
  \\      /  F ield         | OpenFOAM: The Open Source CFD Toolbox
   \\    /   O peration     | Website:  https://openfoam.org
    \\  /    A nd           | Version:  6
     \\/     M anipulation  |
\*---------------------------------------------------------------------------*/
FoamFile
{
    version     2.0;
    format      ascii;
    class       volScalarField;
    location    "800";
    object      alphat;
}
// * * * * * * * * * * * * * * * * * * * * * * * * * * * * * * * * * * * * * //

dimensions      [1 -1 -1 0 0 0 0];

internalField   nonuniform List<scalar> 
459
(
0.00125463
0.00137197
0.00139773
0.00146498
0.00152726
0.00158558
0.00164281
0.00169855
0.00173776
0.00175404
0.00174151
0.0016966
0.00161909
0.00151545
0.00140159
0.000550952
0.000673422
0.000757577
0.000752926
0.000726995
0.000692937
0.000650217
0.000607885
0.000569455
0.000535321
0.000505083
0.000478206
0.000454292
0.000432812
0.000413001
0.000393862
0.000373938
0.000359647
0.000327495
0.00170779
0.00417857
0.00400182
0.00465833
0.00530397
0.00594931
0.00651788
0.0069469
0.00733439
0.00764875
0.00784614
0.00787718
0.00766648
0.0070242
0.00525944
0.00142982
0.000839283
0.000595381
0.00124989
0.00172544
0.00206434
0.00224273
0.00223285
0.00179478
0.00154809
0.00137146
0.00123585
0.00112807
0.00104044
0.000965069
0.000894876
0.000826792
0.000766232
0.000713595
0.000835416
0.000427493
0.00208421
0.00570713
0.00496763
0.00622668
0.00685641
0.00732456
0.00768889
0.00798098
0.0082972
0.00862605
0.00892846
0.00914986
0.00922958
0.00907731
0.00845295
0.00651495
0.00142409
0.00118668
0.00170507
0.00218312
0.00260671
0.00289092
0.00280749
0.000930903
0.000821998
0.000734512
0.000663921
0.000606412
0.000559059
0.000519762
0.000487182
0.00046076
0.00049641
0.000573934
0.000939038
0.000494209
0.0024449
0.00729091
0.00498458
0.00659027
0.00714202
0.0073321
0.00745852
0.00761234
0.00786644
0.0082044
0.008585
0.00894055
0.00920789
0.00931552
0.00918099
0.00851109
0.00621515
0.00170282
0.00211013
0.00272145
0.00330783
0.00376675
0.00404108
0.00377779
0.00105036
0.000956048
0.000888472
0.000836986
0.000793334
0.000753382
0.000715058
0.000674885
0.000628339
0.000589414
0.00060257
0.00107188
0.000546007
0.00281233
0.00932333
0.00548072
0.00634938
0.00707814
0.00713017
0.00707571
0.0071626
0.00738746
0.00773131
0.0081576
0.00857343
0.00889103
0.00904062
0.008998
0.0087145
0.0079939
0.00661393
0.0061385
0.00597791
0.00591781
0.00587599
0.00580413
0.00557262
0.00470176
0.00428359
0.00404197
0.00385719
0.00366316
0.00338235
0.00300117
0.00253607
0.00201762
0.00149455
0.00110193
0.00110277
0.000733058
0.000672287
0.00081403
0.000913819
0.00320165
0.0115358
0.00754068
0.00633144
0.00688158
0.0071316
0.00697789
0.0070471
0.00721614
0.00752331
0.00795363
0.00840874
0.00875751
0.00889981
0.00881394
0.0085556
0.00821355
0.00785805
0.00765493
0.00750025
0.00732464
0.00712643
0.00690802
0.00663987
0.00624907
0.0059022
0.00559631
0.00530337
0.00500407
0.00467667
0.00426179
0.00374379
0.00312289
0.00243495
0.00182572
0.00136303
0.00102515
0.000869475
0.00123841
0.000953483
0.00355527
0.0130797
0.0105556
0.00816437
0.00772935
0.00762772
0.00736667
0.00720542
0.00726193
0.00756248
0.00803952
0.00854674
0.00891331
0.00902157
0.00886188
0.0085492
0.00828197
0.0081894
0.00819315
0.00810788
0.00788597
0.00757122
0.00720203
0.00679679
0.00637135
0.00597619
0.00561283
0.00527247
0.00495536
0.00466912
0.00441405
0.00406823
0.00358177
0.00298575
0.00241085
0.00189427
0.00151396
0.00139215
0.00141904
0.00108508
0.00362131
0.0116187
0.0103331
0.00955091
0.00884387
0.00803125
0.00740478
0.00716398
0.00732994
0.0078134
0.00844883
0.00902622
0.00935117
0.00933341
0.00902253
0.00861527
0.00837162
0.00836544
0.00835922
0.00809645
0.00765219
0.00711339
0.0065477
0.00601018
0.00553741
0.00513761
0.00479614
0.00450495
0.00426806
0.00409534
0.00399667
0.00394507
0.00370438
0.00331697
0.00297222
0.0027848
0.00287213
0.00329937
0.00406267
0.00169138
0.00352147
0.00417867
0.00464058
0.00475477
0.00485751
0.00513785
0.00569589
0.00653873
0.00756652
0.00860062
0.0094496
0.00993432
0.00993989
0.00952914
0.00892237
0.00851016
0.00826781
0.00805045
0.00769679
0.00714968
0.00648912
0.00581314
0.00520144
0.00469378
0.00428933
0.00396426
0.00369397
0.00346358
0.00326408
0.00308694
0.00292339
0.00277326
0.00265475
0.00256724
0.00253117
0.00253825
0.00252247
0.00242331
0.00226802
0.00159117
0.00175645
0.00360414
0.00587501
0.00775323
0.00920923
0.010311
0.0109974
0.0112586
0.0111361
0.0106242
0.00983096
0.00885571
0.00803119
0.00751437
0.0070873
0.00657034
0.00595123
0.00530063
0.00468893
0.00416197
0.00374396
0.00342003
0.00316508
0.00295942
0.0027921
0.00265826
0.00255638
0.00248642
0.00245144
0.00244926
0.00246379
0.00249042
0.00252044
0.0025267
0.0024652
0.00232154
0.00210482
0.00132494
0.00235119
0.00605117
0.00900564
0.0101288
0.0106856
0.0108494
0.010594
0.00999377
0.00917087
0.00824538
0.00737051
0.00659092
0.00595914
0.00541743
0.00487411
0.00434667
0.00388563
0.00351527
0.00323161
0.00301671
0.00284347
0.00269679
0.00256996
0.00246535
0.00238676
0.00233399
0.00230599
0.0023018
0.0023271
0.00237892
0.00245336
0.00254198
0.00262638
0.00268456
0.00266252
0.00269334
0.00273487
0.00135067
0.00208638
0.00221129
0.00229933
0.002462
0.00237583
0.00227721
0.00221302
0.00212229
0.00199256
0.00183178
0.00165121
0.00146361
0.00128181
0.00112621
0.00100879
0.000925347
0.000866233
0.000823716
0.00079304
0.000771418
0.000757063
0.00074887
0.000746118
0.00074897
0.000757925
0.000772802
0.000793319
0.000819893
0.000853204
0.000894054
0.000941437
0.000995418
0.00105657
0.0011254
0.00120133
0.00129157
0.0013205
0.00128664
0.00120931
0.00112712
)
;

boundaryField
{
    floor
    {
        type            compressible::alphatWallFunction;
        Prt             0.85;
        value           nonuniform List<scalar> 
29
(
0.000197717
7.70057e-05
9.5299e-05
0.000107631
0.000106954
0.00010317
9.81748e-05
9.18667e-05
8.5566e-05
7.97991e-05
7.46365e-05
7.00288e-05
6.59041e-05
6.22096e-05
5.88702e-05
5.57712e-05
5.27594e-05
4.96039e-05
4.73271e-05
4.21612e-05
4.21606e-05
5.80402e-05
6.83637e-05
7.62577e-05
0.000197714
7.70048e-05
8.3694e-05
0.000168329
0.000238078
)
;
    }
    ceiling
    {
        type            compressible::alphatWallFunction;
        Prt             0.85;
        value           nonuniform List<scalar> 
43
(
0.000288251
0.000304394
0.000315717
0.000336636
0.000325688
0.000313073
0.000304828
0.00029312
0.000276277
0.000255233
0.000231351
0.00020623
0.000181537
0.000160086
0.000143672
0.000131874
0.00012344
0.000117331
0.000112901
0.000109766
0.000107679
0.000106485
0.000106084
0.0001065
0.000107804
0.000109968
0.000112942
0.000116782
0.000121574
0.00012742
0.000134162
0.000141794
0.000150382
0.000159979
0.00017049
0.000182882
0.000186834
0.000182209
0.00017159
0.000160222
0.000469215
0.000549147
0.000322192
)
;
    }
    sWall
    {
        type            compressible::alphatWallFunction;
        Prt             0.85;
        value           uniform 0.000287042;
    }
    nWall
    {
        type            compressible::alphatWallFunction;
        Prt             0.85;
        value           nonuniform List<scalar> 6(0.000129916 0.000135542 0.00015403 0.000187114 0.000190616 0.0001599);
    }
    sideWalls
    {
        type            empty;
    }
    glass1
    {
        type            compressible::alphatWallFunction;
        Prt             0.85;
        value           nonuniform List<scalar> 9(0.000173396 0.000233644 0.000282469 0.000328449 0.000374618 0.000422895 0.000466266 0.000474447 0.000462499);
    }
    glass2
    {
        type            compressible::alphatWallFunction;
        Prt             0.85;
        value           nonuniform List<scalar> 2(0.000235009 0.000221786);
    }
    sun
    {
        type            compressible::alphatWallFunction;
        Prt             0.85;
        value           nonuniform List<scalar> 
14
(
0.000177702
0.000193704
0.000197198
0.000206288
0.000214666
0.000222476
0.000230109
0.000237516
0.000242708
0.00024486
0.000243203
0.000237253
0.000226946
0.000213075
)
;
    }
    heatsource1
    {
        type            compressible::alphatWallFunction;
        Prt             0.85;
        value           nonuniform List<scalar> 3(9.52345e-05 0.000115918 0.000130219);
    }
    heatsource2
    {
        type            compressible::alphatWallFunction;
        Prt             0.85;
        value           nonuniform List<scalar> 4(0.000201657 0.000119555 0.000119554 0.000200882);
    }
    Table_master
    {
        type            compressible::alphatWallFunction;
        Prt             0.85;
        value           nonuniform List<scalar> 9(0.000132645 0.000117065 0.000104372 9.39966e-05 8.54446e-05 7.8328e-05 7.23652e-05 6.73786e-05 6.33038e-05);
    }
    Table_slave
    {
        type            compressible::alphatWallFunction;
        Prt             0.85;
        value           nonuniform List<scalar> 9(0.000149493 0.000136214 0.000126605 0.000119226 0.000112927 0.000107127 0.000101527 9.56185e-05 8.87185e-05);
    }
    inlet
    {
        type            fixedValue;
        value           uniform 1.94e-05;
    }
    outlet
    {
        type            zeroGradient;
    }
}


// ************************************************************************* //
