// -*- C++ -*-
// File generated by PyFoam - sorry for the ugliness

FoamFile
{
 version 2.0;
 format ascii;
 class volVectorField;
 location "400";
 object U;
}

dimensions [ 0 1 -1 0 0 0 0 ];

internalField nonuniform List<vector> 459
(
  (0.0812923 0.0605275 0)
  (-0.122769 0.00299659 0)
  (-0.107775 0.00432454 0)
  (-0.118131 0.00487736 0)
  (-0.127986 0.00397621 0)
  (-0.136447 0.00249922 0)
  (-0.142809 0.000627729 0)
  (-0.146517 -0.00163324 0)
  (-0.146977 -0.00433942 0)
  (-0.143515 -0.00765325 0)
  (-0.135187 -0.0117777 0)
  (-0.12038 -0.0169944 0)
  (-0.0977702 -0.0241874 0)
  (-0.0710057 -0.0349868 0)
  (-0.0571456 -0.0491019 0)
  (0.0456269 -0.0100613 0)
  (0.00397566 -0.00260998 0)
  (0.000613007 0.00145024 0)
  (0.0049923 0.000955561 0)
  (0.00552093 9.91773e-05 0)
  (0.00614191 -0.000445162 0)
  (0.00779458 -0.00186149 0)
  (0.0103002 -0.002066 0)
  (0.0127343 -0.00201962 0)
  (0.01469 -0.00204412 0)
  (0.0161839 -0.00214716 0)
  (0.0174047 -0.00206513 0)
  (0.0175645 -0.00157358 0)
  (0.0161168 -0.000146014 0)
  (0.0132828 0.00210095 0)
  (0.00886636 0.0047305 0)
  (0.00551512 0.00643225 0)
  (0.00873644 0.00553832 0)
  (-0.0509568 -0.00225316 0)
  (0.259533 0.131212 0)
  (-0.140221 0.0181544 0)
  (-0.0943823 0.0157205 0)
  (-0.108558 0.0160025 0)
  (-0.118887 0.0145029 0)
  (-0.127534 0.0119433 0)
  (-0.134157 0.00855352 0)
  (-0.138413 0.00432442 0)
  (-0.139828 -0.000843214 0)
  (-0.137861 -0.00708192 0)
  (-0.132158 -0.0144144 0)
  (-0.122015 -0.0229744 0)
  (-0.107178 -0.0335864 0)
  (-0.0893039 -0.0477204 0)
  (-0.0725973 -0.064064 0)
  (-0.0593021 -0.0707575 0)
  (0.0378094 0.0156405 0)
  (0.0305845 -0.0036377 0)
  (-0.015083 0.00627364 0)
  (-0.0144247 0.00504252 0)
  (-0.0155302 0.00240676 0)
  (-0.0160067 0.000465597 0)
  (-0.0153209 -0.0018343 0)
  (-0.0142343 -0.00385109 0)
  (-0.0128879 -0.00270405 0)
  (-0.0122653 -0.00141866 0)
  (-0.012589 -0.000142539 0)
  (-0.0134969 0.00143342 0)
  (-0.0153713 0.00336739 0)
  (-0.0170416 0.00535145 0)
  (-0.0183959 0.0071197 0)
  (-0.0184291 0.00718761 0)
  (-0.0151058 0.00407118 0)
  (-0.00771548 0.00474902 0)
  (-0.0011955 0.00474724 0)
  (-0.012859 -0.003006 0)
  (0.408642 0.199415 0)
  (-0.178651 0.0411189 0)
  (-0.0760318 0.0297786 0)
  (-0.0951551 0.0264007 0)
  (-0.105146 0.0229698 0)
  (-0.113288 0.0184854 0)
  (-0.119692 0.0128823 0)
  (-0.124185 0.00607178 0)
  (-0.126427 -0.00200622 0)
  (-0.12585 -0.0113236 0)
  (-0.122682 -0.0218537 0)
  (-0.117017 -0.0334903 0)
  (-0.109441 -0.0463962 0)
  (-0.101171 -0.0604052 0)
  (-0.0937834 -0.072961 0)
  (-0.0903281 -0.0785228 0)
  (-0.0997154 -0.0759476 0)
  (-0.0364732 0.0299331 0)
  (-0.0428792 0.0118512 0)
  (-0.0448275 0.00618008 0)
  (-0.0446284 0.00170223 0)
  (-0.0429886 -0.00238458 0)
  (-0.0399517 -0.00596291 0)
  (-0.0355618 -0.00616752 0)
  (-0.0416874 -0.00614808 0)
  (-0.0443879 -0.00545975 0)
  (-0.0460015 -0.00498232 0)
  (-0.0465826 -0.00463056 0)
  (-0.0459439 -0.00438982 0)
  (-0.0447119 -0.00456387 0)
  (-0.0428597 -0.00560854 0)
  (-0.0384294 -0.00882829 0)
  (-0.0280107 -0.0126367 0)
  (-0.0160601 -0.00809078 0)
  (-0.00706606 -0.00392684 0)
  (0.0328775 0.00323659 0)
  (0.527969 0.255457 0)
  (-0.217908 0.0677849 0)
  (-0.0549542 0.0437189 0)
  (-0.0792713 0.0365941 0)
  (-0.0887024 0.0313994 0)
  (-0.0954129 0.0254498 0)
  (-0.100695 0.0183489 0)
  (-0.104525 0.0097893 0)
  (-0.106675 -0.000363131 0)
  (-0.106601 -0.0118712 0)
  (-0.105046 -0.024187 0)
  (-0.102843 -0.036842 0)
  (-0.101204 -0.0495137 0)
  (-0.10155 -0.0613477 0)
  (-0.105806 -0.0698605 0)
  (-0.117981 -0.0703859 0)
  (-0.13918 -0.054078 0)
  (-0.138412 -0.00758732 0)
  (-0.101779 0.0195657 0)
  (-0.0871637 0.00958519 0)
  (-0.0807445 0.0042915 0)
  (-0.0790925 -0.000121495 0)
  (-0.0789141 -0.00412859 0)
  (-0.0800175 -0.00709607 0)
  (-0.0788826 -0.00576777 0)
  (-0.0743565 -0.00514857 0)
  (-0.0699494 -0.00543483 0)
  (-0.0654048 -0.0057958 0)
  (-0.0606412 -0.0062798 0)
  (-0.0554728 -0.00697511 0)
  (-0.0492647 -0.00806125 0)
  (-0.0409723 -0.00997138 0)
  (-0.031002 -0.0134799 0)
  (-0.0260611 -0.0189429 0)
  (-0.0210286 -0.0183665 0)
  (-0.013638 -0.0153615 0)
  (0.0410517 0.0055558 0)
  (0.619195 0.301219 0)
  (-0.249629 0.095625 0)
  (-0.0354514 0.0546707 0)
  (-0.0603812 0.0451079 0)
  (-0.0696527 0.0380017 0)
  (-0.0742926 0.0304848 0)
  (-0.0773865 0.022061 0)
  (-0.0792626 0.0121619 0)
  (-0.0797278 0.000497623 0)
  (-0.0783682 -0.0123888 0)
  (-0.0765442 -0.0251867 0)
  (-0.0753415 -0.0371039 0)
  (-0.0759463 -0.0477743 0)
  (-0.0792843 -0.0566491 0)
  (-0.0860962 -0.0624458 0)
  (-0.0967208 -0.0628118 0)
  (-0.107439 -0.053007 0)
  (-0.108807 -0.0283919 0)
  (-0.0991308 -0.00763749 0)
  (-0.0871379 -0.00078678 0)
  (-0.0789654 -0.000369925 0)
  (-0.074118 -0.00204982 0)
  (-0.0715289 -0.00428589 0)
  (-0.0702771 -0.00572068 0)
  (-0.0687329 -0.00542018 0)
  (-0.0663521 -0.00553718 0)
  (-0.063792 -0.00576663 0)
  (-0.0611875 -0.00608344 0)
  (-0.0585193 -0.00655495 0)
  (-0.0557102 -0.00732765 0)
  (-0.0525064 -0.00868796 0)
  (-0.0485612 -0.0112242 0)
  (-0.0441239 -0.0158478 0)
  (-0.040149 -0.0226732 0)
  (-0.035644 -0.027498 0)
  (-0.0261929 -0.0311007 0)
  (-0.00394774 -0.0290384 0)
  (0.025527 -0.0385158 0)
  (0.0683185 -0.0232797 0)
  (-0.0447555 0.0183142 0)
  (0.674259 0.341754 0)
  (-0.272741 0.119307 0)
  (-0.022655 0.0560298 0)
  (-0.0342296 0.0514307 0)
  (-0.044113 0.0439008 0)
  (-0.0477177 0.0334635 0)
  (-0.0482233 0.0231243 0)
  (-0.0472729 0.0119806 0)
  (-0.0444784 -0.000865135 0)
  (-0.0408879 -0.0145115 0)
  (-0.0381187 -0.0268281 0)
  (-0.0371264 -0.0369934 0)
  (-0.038748 -0.0449879 0)
  (-0.0434368 -0.0508246 0)
  (-0.0512084 -0.0538197 0)
  (-0.0611147 -0.0522207 0)
  (-0.069904 -0.0434915 0)
  (-0.0729955 -0.0282386 0)
  (-0.069693 -0.0150934 0)
  (-0.0637691 -0.00849613 0)
  (-0.0588162 -0.00596959 0)
  (-0.0554971 -0.00570506 0)
  (-0.0536411 -0.00650745 0)
  (-0.0527589 -0.00724832 0)
  (-0.0520779 -0.0073743 0)
  (-0.0512494 -0.00753261 0)
  (-0.0504002 -0.00777733 0)
  (-0.0496434 -0.008083 0)
  (-0.0490726 -0.00850258 0)
  (-0.0487966 -0.00919212 0)
  (-0.0489033 -0.0104876 0)
  (-0.049495 -0.0130163 0)
  (-0.0508282 -0.0175668 0)
  (-0.0529468 -0.024264 0)
  (-0.0544828 -0.0319605 0)
  (-0.0524438 -0.0408275 0)
  (-0.0436 -0.0499933 0)
  (-0.0296774 -0.0574579 0)
  (0.0256152 -0.0234166 0)
  (-0.102309 0.0627778 0)
  (0.691804 0.378718 0)
  (-0.27916 0.114073 0)
  (-0.00501837 0.0215142 0)
  (0.0147274 0.0505144 0)
  (0.00288775 0.0537437 0)
  (-0.00513274 0.0356689 0)
  (-0.00467166 0.0208355 0)
  (-0.00191512 0.00808519 0)
  (0.00413343 -0.00603167 0)
  (0.0083415 -0.0190669 0)
  (0.0104227 -0.0294593 0)
  (0.0100981 -0.0368805 0)
  (0.00708448 -0.0417257 0)
  (0.00116773 -0.0445681 0)
  (-0.00746134 -0.0453863 0)
  (-0.0173443 -0.0431728 0)
  (-0.0261715 -0.036666 0)
  (-0.0312777 -0.0268364 0)
  (-0.0322044 -0.0177225 0)
  (-0.0309089 -0.0118419 0)
  (-0.0293893 -0.00870282 0)
  (-0.0284047 -0.00745574 0)
  (-0.0281364 -0.00730669 0)
  (-0.0284288 -0.00750105 0)
  (-0.0289294 -0.0076329 0)
  (-0.0294419 -0.00777131 0)
  (-0.030004 -0.00789717 0)
  (-0.0307114 -0.00795957 0)
  (-0.0317223 -0.00794548 0)
  (-0.0333061 -0.00793586 0)
  (-0.0358922 -0.00820948 0)
  (-0.0401216 -0.009369 0)
  (-0.046759 -0.0122633 0)
  (-0.0562806 -0.0174809 0)
  (-0.0682394 -0.0250834 0)
  (-0.0808205 -0.035086 0)
  (-0.0898285 -0.0458742 0)
  (-0.0911933 -0.0486829 0)
  (-0.0944557 -0.0163625 0)
  (-0.156195 0.0990848 0)
  (0.782454 0.393725 0)
  (-0.0960447 0.0862945 0)
  (0.0752295 -0.0550191 0)
  (0.123236 0.0085616 0)
  (0.0977142 0.0342822 0)
  (0.0775549 0.0231735 0)
  (0.0731886 0.00916627 0)
  (0.0726701 -0.00253585 0)
  (0.0726182 -0.0135686 0)
  (0.0717978 -0.0230134 0)
  (0.0690209 -0.0301418 0)
  (0.0643551 -0.0347094 0)
  (0.0579586 -0.0369544 0)
  (0.0499672 -0.0373492 0)
  (0.0405634 -0.0362989 0)
  (0.0303762 -0.0336755 0)
  (0.0207672 -0.028985 0)
  (0.0134758 -0.0225832 0)
  (0.00915519 -0.016286 0)
  (0.00688974 -0.0115841 0)
  (0.00547168 -0.00862912 0)
  (0.00423759 -0.00709585 0)
  (0.0028826 -0.00651659 0)
  (0.00135134 -0.00641388 0)
  (-0.000252393 -0.00646965 0)
  (-0.00183168 -0.00656262 0)
  (-0.00340546 -0.00658729 0)
  (-0.00502886 -0.00643135 0)
  (-0.00678876 -0.00597759 0)
  (-0.00885399 -0.00513435 0)
  (-0.0115624 -0.00392197 0)
  (-0.0155479 -0.00260741 0)
  (-0.0217814 -0.00179829 0)
  (-0.0322267 -0.00280164 0)
  (-0.0494116 -0.00791266 0)
  (-0.0740777 -0.0193538 0)
  (-0.102044 -0.0377286 0)
  (-0.130074 -0.0630395 0)
  (-0.174056 -0.0927365 0)
  (-0.345172 -0.127553 0)
  (0.909071 0.382637 0)
  (0.427791 0.239816 0)
  (0.362109 0.140255 0)
  (0.372874 0.137549 0)
  (0.284507 0.11162 0)
  (0.225726 0.0758036 0)
  (0.198897 0.0466509 0)
  (0.181795 0.0244069 0)
  (0.165731 0.00643438 0)
  (0.14932 -0.00774879 0)
  (0.13442 -0.017296 0)
  (0.120913 -0.0227899 0)
  (0.108485 -0.0251505 0)
  (0.0968458 -0.0252883 0)
  (0.085752 -0.0239063 0)
  (0.0751141 -0.0213886 0)
  (0.0652547 -0.0179257 0)
  (0.0568909 -0.0138681 0)
  (0.0504808 -0.00994797 0)
  (0.0457619 -0.00681244 0)
  (0.0421425 -0.00465615 0)
  (0.0391612 -0.00339377 0)
  (0.0365095 -0.00278971 0)
  (0.0340227 -0.00258049 0)
  (0.031657 -0.00255847 0)
  (0.0294011 -0.00258532 0)
  (0.0272309 -0.00254943 0)
  (0.0251315 -0.00234454 0)
  (0.0231146 -0.0018517 0)
  (0.0212247 -0.000937263 0)
  (0.019542 0.00051055 0)
  (0.0182644 0.00251847 0)
  (0.0175183 0.00501007 0)
  (0.0171054 0.00756781 0)
  (0.0170121 0.00908655 0)
  (0.0173866 0.00857062 0)
  (0.0176 0.00600484 0)
  (0.020526 -0.000792468 0)
  (0.0376913 -0.0439048 0)
  (-0.217962 -0.148787 0)
  (-1.05708 0.0211561 0)
  (0.236994 0.13107 0)
  (0.158435 0.104075 0)
  (0.157771 0.0777172 0)
  (0.171158 0.053778 0)
  (0.175966 0.033887 0)
  (0.173045 0.0193517 0)
  (0.166638 0.00997383 0)
  (0.158174 0.00389517 0)
  (0.148561 -0.000295804 0)
  (0.138252 -0.00273934 0)
  (0.127678 -0.00366803 0)
  (0.11728 -0.00335665 0)
  (0.107394 -0.00204302 0)
  (0.0983136 -2.99441e-05 0)
  (0.0903819 0.00230029 0)
  (0.0838284 0.00447521 0)
  (0.0785902 0.00610972 0)
  (0.0743904 0.00705532 0)
  (0.0709284 0.00732047 0)
  (0.0679152 0.00716188 0)
  (0.0651774 0.00673413 0)
  (0.062619 0.00616176 0)
  (0.0601756 0.00559168 0)
  (0.0578234 0.00513391 0)
  (0.0555796 0.00488012 0)
  (0.0535104 0.00491484 0)
  (0.051743 0.00530921 0)
  (0.0504781 0.0060712 0)
  (0.0500277 0.00698996 0)
  (0.0506639 0.0077415 0)
  (0.0527717 0.00763049 0)
  (0.0566118 0.00475116 0)
  (0.0617523 -0.00185967 0)
  (0.0670479 -0.0114432 0)
  (0.0710715 -0.0234968 0)
  (0.0785688 -0.0505535 0)
  (-0.0173241 -0.115514 0)
  (-0.522541 0.0914186 0)
  (0.21968 0.0216636 0)
  (0.101611 0.0238472 0)
  (0.10942 0.0303865 0)
  (0.136098 0.0163386 0)
  (0.153366 -0.00496784 0)
  (0.161229 -0.0258616 0)
  (0.163331 -0.0445306 0)
  (0.161377 -0.0601212 0)
  (0.155837 -0.0715785 0)
  (0.147437 -0.0787218 0)
  (0.137516 -0.082424 0)
  (0.127336 -0.0836129 0)
  (0.117848 -0.0827314 0)
  (0.109726 -0.0806662 0)
  (0.103312 -0.0782155 0)
  (0.0985921 -0.0759835 0)
  (0.0952623 -0.0743156 0)
  (0.0928777 -0.0732961 0)
  (0.0909844 -0.072804 0)
  (0.0892784 -0.0727664 0)
  (0.0875755 -0.0729929 0)
  (0.0857703 -0.0732971 0)
  (0.0838429 -0.0735757 0)
  (0.0818361 -0.0737572 0)
  (0.079837 -0.0738006 0)
  (0.077971 -0.07369 0)
  (0.0764035 -0.0734378 0)
  (0.0753336 -0.0730981 0)
  (0.074904 -0.0727424 0)
  (0.0752058 -0.0724963 0)
  (0.0763467 -0.0723308 0)
  (0.0779573 -0.072545 0)
  (0.0794133 -0.0733313 0)
  (0.0802661 -0.0744667 0)
  (0.0791346 -0.0745948 0)
  (0.097107 -0.0808505 0)
  (0.00486453 -0.136328 0)
  (0.654855 0.191703 0)
  (0.137419 -0.266479 0)
  (-0.313923 0.144349 0)
  (0.139134 0.060094 0)
  (0.0266535 0.109336 0)
  (0.0441565 0.135381 0)
  (0.0764082 0.144684 0)
  (0.100335 0.155908 0)
  (0.113645 0.172237 0)
  (0.119033 0.19205 0)
  (0.119708 0.212316 0)
  (0.118128 0.229731 0)
  (0.115803 0.242057 0)
  (0.113364 0.249728 0)
  (0.111124 0.253741 0)
  (0.109284 0.254504 0)
  (0.10793 0.253296 0)
  (0.107083 0.251235 0)
  (0.1067 0.249077 0)
  (0.106659 0.247238 0)
  (0.106795 0.245869 0)
  (0.106946 0.244915 0)
  (0.106985 0.244353 0)
  (0.106816 0.244048 0)
  (0.1064 0.243849 0)
  (0.105742 0.243677 0)
  (0.104867 0.243478 0)
  (0.103818 0.243217 0)
  (0.102643 0.242877 0)
  (0.101383 0.242454 0)
  (0.100055 0.241964 0)
  (0.0986187 0.24142 0)
  (0.0968979 0.240694 0)
  (0.0944224 0.238939 0)
  (0.0903712 0.235935 0)
  (0.0833591 0.231575 0)
  (0.0711343 0.225819 0)
  (0.0497258 0.217877 0)
  (0.101928 0.213383 0)
  (-0.307673 0.363991 0)
)
;

boundaryField
{
  floor
  {
    type noSlip;
  }
  ceiling
  {
    type noSlip;
  }
  sWall
  {
    type noSlip;
  }
  nWall
  {
    type noSlip;
  }
  sideWalls
  {
    type empty;
  }
  glass1
  {
    type noSlip;
  }
  glass2
  {
    type noSlip;
  }
  sun
  {
    type noSlip;
  }
  heatsource1
  {
    type noSlip;
  }
  heatsource2
  {
    type noSlip;
  }
  Table_master
  {
    type noSlip;
  }
  Table_slave
  {
    type noSlip;
  }
  inlet
  {
    type fixedValue;
    value uniform (0.0707107 -0.0707107 0);
  }
  outlet
  {
    type zeroGradient;
  }
} 	// ************************************************************************* //

