// -*- C++ -*-
// File generated by PyFoam - sorry for the ugliness

FoamFile
{
 version 2.0;
 format ascii;
 class volScalarField;
 location "1000";
 object T;
}

dimensions [ 0 0 0 1 0 0 0 ];

internalField nonuniform List<scalar> 459
(
  308.491
  308.378
  308.33
  308.303
  308.284
  308.27
  308.26
  308.251
  308.242
  308.233
  308.224
  308.215
  308.205
  308.193
  308.175
  304.403
  304.41
  304.418
  304.411
  304.415
  304.426
  304.439
  304.452
  304.43
  304.411
  304.397
  304.389
  304.389
  304.39
  304.386
  304.389
  304.387
  304.378
  304.367
  308.438
  308.264
  308.183
  308.138
  308.11
  308.091
  308.082
  308.079
  308.079
  308.083
  308.09
  308.1
  308.113
  308.13
  308.144
  308.132
  308.105
  304.603
  304.6
  304.603
  304.599
  304.577
  304.536
  304.514
  304.518
  304.516
  304.51
  304.506
  304.503
  304.506
  304.539
  304.591
  304.631
  304.612
  304.567
  304.542
  308.393
  308.142
  308.03
  307.966
  307.926
  307.902
  307.891
  307.894
  307.907
  307.928
  307.956
  307.99
  308.027
  308.066
  308.1
  308.106
  308.082
  304.981
  304.896
  304.85
  304.832
  304.81
  304.78
  304.67
  304.574
  304.604
  304.657
  304.708
  304.758
  304.811
  304.868
  304.947
  305.07
  305.076
  305.113
  305.229
  308.351
  308.038
  307.903
  307.827
  307.781
  307.756
  307.744
  307.749
  307.772
  307.809
  307.855
  307.909
  307.964
  308.02
  308.068
  308.078
  307.858
  305.609
  305.332
  305.31
  305.344
  305.417
  305.514
  305.616
  305.697
  305.709
  305.717
  305.723
  305.726
  305.726
  305.722
  305.713
  305.693
  305.655
  305.677
  305.716
  305.759
  308.307
  307.962
  307.82
  307.737
  307.704
  307.691
  307.682
  307.683
  307.707
  307.749
  307.804
  307.868
  307.934
  307.998
  308.045
  307.979
  307.471
  305.741
  305.573
  305.578
  305.613
  305.66
  305.709
  305.752
  305.782
  305.799
  305.813
  305.824
  305.834
  305.845
  305.855
  305.866
  305.878
  305.891
  305.918
  305.95
  305.981
  306.015
  306.001
  305.981
  308.259
  307.921
  307.78
  307.699
  307.694
  307.693
  307.687
  307.681
  307.702
  307.745
  307.801
  307.866
  307.931
  307.981
  307.978
  307.775
  307.077
  305.832
  305.716
  305.73
  305.758
  305.788
  305.817
  305.841
  305.86
  305.875
  305.887
  305.896
  305.906
  305.917
  305.93
  305.946
  305.964
  305.986
  306.008
  306.03
  306.046
  306.054
  306.039
  305.975
  308.202
  307.914
  307.787
  307.708
  307.711
  307.719
  307.724
  307.73
  307.746
  307.779
  307.825
  307.876
  307.92
  307.932
  307.848
  307.516
  306.763
  305.916
  305.838
  305.856
  305.883
  305.907
  305.927
  305.942
  305.955
  305.963
  305.967
  305.97
  305.974
  305.978
  305.985
  305.995
  306.01
  306.028
  306.047
  306.066
  306.081
  306.091
  306.092
  306.079
  308.152
  307.932
  307.837
  307.721
  307.721
  307.741
  307.759
  307.774
  307.789
  307.811
  307.839
  307.867
  307.877
  307.837
  307.677
  307.27
  306.567
  306.013
  305.967
  305.995
  306.028
  306.054
  306.069
  306.076
  306.077
  306.074
  306.07
  306.064
  306.058
  306.052
  306.048
  306.047
  306.049
  306.057
  306.069
  306.086
  306.104
  306.123
  306.141
  306.166
  308.122
  308.003
  308.005
  307.738
  307.695
  307.724
  307.753
  307.776
  307.792
  307.805
  307.816
  307.818
  307.794
  307.712
  307.511
  307.099
  306.502
  306.142
  306.12
  306.159
  306.202
  306.224
  306.23
  306.227
  306.219
  306.208
  306.196
  306.182
  306.168
  306.152
  306.138
  306.125
  306.115
  306.109
  306.108
  306.11
  306.115
  306.12
  306.129
  306.156
  308.359
  307.8
  307.647
  307.669
  307.699
  307.723
  307.74
  307.748
  307.746
  307.731
  307.688
  307.592
  307.399
  307.049
  306.551
  306.354
  306.328
  306.354
  306.378
  306.388
  306.387
  306.379
  306.366
  306.35
  306.332
  306.312
  306.292
  306.27
  306.248
  306.226
  306.207
  306.19
  306.177
  306.167
  306.159
  306.152
  306.145
  306.144
  308.326
  307.93
  307.6
  307.603
  307.622
  307.638
  307.648
  307.651
  307.644
  307.623
  307.58
  307.501
  307.359
  307.046
  306.77
  306.654
  306.607
  306.585
  306.57
  306.558
  306.543
  306.526
  306.506
  306.484
  306.46
  306.435
  306.409
  306.381
  306.353
  306.326
  306.299
  306.273
  306.251
  306.23
  306.21
  306.19
  306.166
  306.15
  312.279
  312.16
  309.663
  308.324
  307.548
  307.526
  307.529
  307.532
  307.534
  307.536
  307.531
  307.516
  307.489
  307.442
  307.336
  307.154
  307.034
  306.966
  306.918
  306.877
  306.835
  306.794
  306.754
  306.715
  306.678
  306.642
  306.606
  306.57
  306.535
  306.499
  306.463
  306.428
  306.392
  306.357
  306.322
  306.287
  306.252
  306.213
  306.157
  306.048
)
;

boundaryField
{
  floor
  {
    type wallHeatTransfer;
    Tinf uniform 305.2;
    alphaWall uniform 0.24;
    value nonuniform List<scalar> 29
(
  307.931
  304.665
  304.664
  304.667
  304.669
  304.678
  304.693
  304.711
  304.725
  304.716
  304.699
  304.68
  304.661
  304.644
  304.636
  304.632
  304.631
  304.631
  304.629
  304.633
  304.633
  304.722
  305.223
  305.678
  307.931
  304.665
  304.757
  305.025
  305.549
)
;
  }
  ceiling
  {
    type wallHeatTransfer;
    Tinf uniform 303.2;
    alphaWall uniform 0.24;
    value nonuniform List<scalar> 43
(
  311.347
  311.245
  309.266
  307.911
  307.139
  307.108
  307.108
  307.109
  307.112
  307.117
  307.114
  307.103
  307.081
  307.04
  306.945
  306.778
  306.669
  306.61
  306.575
  306.549
  306.525
  306.499
  306.47
  306.438
  306.405
  306.371
  306.337
  306.303
  306.268
  306.234
  306.2
  306.166
  306.132
  306.098
  306.064
  306.029
  305.992
  305.949
  305.89
  305.783
  307.955
  307.858
  308.121
)
;
  }
  sWall
  {
    type wallHeatTransfer;
    Tinf uniform 315.2;
    alphaWall uniform 0.36;
    value uniform 312.708;
  }
  nWall
  {
    type wallHeatTransfer;
    Tinf uniform 307.2;
    alphaWall uniform 0.36;
    value nonuniform List<scalar> 6
(
  306.235
  306.228
  306.25
  306.265
  306.261
  306.201
)
;
  }
  sideWalls
  {
    type empty;
  }
  glass1
  {
    type wallHeatTransfer;
    Tinf uniform 315.2;
    alphaWall uniform 4.3;
    value nonuniform List<scalar> 9
(
  311.932
  311.721
  311.588
  311.483
  311.388
  311.29
  311.178
  311.044
  310.868
)
;
  }
  glass2
  {
    type wallHeatTransfer;
    Tinf uniform 307.2;
    alphaWall uniform 4.3;
    value nonuniform List<scalar> 2
(
  306.818
  306.8
)
;
  }
  sun
  {
    type wallHeatTransfer;
    Tinf uniform 305.2;
    alphaWall uniform 0.24;
    value nonuniform List<scalar> 14
(
  308.31
  308.197
  308.146
  308.115
  308.092
  308.074
  308.061
  308.048
  308.036
  308.024
  308.011
  307.997
  307.981
  307.961
)
;
  }
  heatsource1
  {
    type fixedGradient;
    gradient uniform 0;
  }
  heatsource2
  {
    type fixedGradient;
    gradient uniform 0;
  }
  Table_master
  {
    type zeroGradient;
  }
  Table_slave
  {
    type zeroGradient;
  }
  inlet
  {
    type fixedValue;
    value uniform 290.15;
  }
  outlet
  {
    type zeroGradient;
  }
} 	// ************************************************************************* //

