/*--------------------------------*- C++ -*----------------------------------*\
  =========                 |
  \\      /  F ield         | OpenFOAM: The Open Source CFD Toolbox
   \\    /   O peration     | Website:  https://openfoam.org
    \\  /    A nd           | Version:  6
     \\/     M anipulation  |
\*---------------------------------------------------------------------------*/
FoamFile
{
    version     2.0;
    format      ascii;
    class       surfaceScalarField;
    location    "500";
    object      phi;
}
// * * * * * * * * * * * * * * * * * * * * * * * * * * * * * * * * * * * * * //

dimensions      [1 0 -1 0 0 0 0];

internalField   nonuniform List<scalar> 
852
(
-0.00283225
0.00289432
-0.00358148
0.000749253
-0.00430689
0.000725435
-0.00495481
0.00064794
-0.00549437
0.000539579
-0.00591018
0.00041583
-0.00618533
0.000275169
-0.00629794
0.000112636
-0.0062209
-7.70151e-05
-0.00592369
-0.000297193
-0.00538917
-0.000534505
-0.00461843
-0.000770718
-0.00359826
-0.00102015
-0.00218922
-0.00140902
-0.00218721
0.00049291
-0.00048999
0.00104645
-0.000553518
0.00142162
-0.000375141
0.00165835
-0.000236703
0.0018081
-0.000149731
0.00188981
-8.16842e-05
0.00191918
-2.93456e-05
0.00192383
-4.62095e-06
0.0019186
5.25467e-06
0.00190796
1.06627e-05
0.00189287
1.51254e-05
0.00187241
2.04835e-05
0.00184233
3.01054e-05
0.00179133
5.10283e-05
0.0016936
9.77585e-05
0.00150659
0.000187037
0.00121121
0.000295406
0.000839569
0.000371665
0.000843942
-0.0020386
0.00509951
-0.00289436
0.00160503
-0.0036973
0.0015284
-0.00435531
0.00130598
-0.00489311
0.0010774
-0.00531061
0.000833352
-0.00559511
0.000559695
-0.00572599
0.000243534
-0.0056799
-0.000123081
-0.00544037
-0.000536701
-0.00500439
-0.000970467
-0.00438548
-0.00138961
-0.00361393
-0.00179168
-0.00284687
-0.00217606
-0.00275446
-0.0022796
-0.00112466
-0.00162983
-0.00112469
0.000786217
-0.00126855
0.0011208
-0.000888072
0.00133496
-0.000589275
0.00150081
-0.000402537
0.00161228
-0.000261174
0.00166953
-0.000138904
0.00167451
-3.43024e-05
0.00167595
-6.0302e-06
0.0016771
4.13401e-06
0.00167803
9.75613e-06
0.00167872
1.44671e-05
0.00167894
2.02877e-05
0.00167757
3.15059e-05
0.00167008
5.8545e-05
0.00162557
0.000142292
0.00143574
0.000376895
0.00110673
0.000624442
0.000700258
0.000778168
0.00155574
-0.00146508
0.00681738
-0.00227897
0.00241895
-0.00301417
0.00226362
-0.00358772
0.00187955
-0.00406378
0.00155348
-0.00444349
0.00121308
-0.0047118
0.000828034
-0.00484514
0.000376891
-0.00481607
-0.000152126
-0.00460312
-0.000749627
-0.00421036
-0.00136321
-0.00366882
-0.00193113
-0.00304086
-0.00241962
-0.00244075
-0.00277616
-0.00188457
-0.00283575
-0.000982954
-0.00253142
-0.00210762
0.000566552
-0.00182334
0.000902402
-0.0012239
0.00109539
-0.000782232
0.00123745
-0.000544577
0.00134247
-0.000366162
0.0013852
-0.000181608
0.00135108
0.00134523
0.00134954
0.00135948
0.00137413
0.0013946
0.00142629
0.00148502
0.00162749
0.00135102
0.000653395
0.0010088
0.000966695
0.000579065
0.00120793
0.00215243
-0.00106736
0.00820844
-0.00179863
0.00315025
-0.00230728
0.00277229
-0.00272018
0.00229247
-0.0030866
0.00191993
-0.00339641
0.00152292
-0.00363008
0.00106173
-0.00375859
0.000505425
-0.00374164
-0.000169051
-0.00354867
-0.000942577
-0.0032
-0.00171186
-0.00274911
-0.00238201
-0.00225857
-0.00291014
-0.00177365
-0.00326107
-0.00125657
-0.00335282
-0.000676555
-0.00311142
-0.000252732
-0.00253142
0.00114723
-0.0013875
0.000764454
-0.00144053
0.000797055
-0.00125647
0.000899752
-0.000884904
0.000995668
-0.000640467
0.00110489
-0.000475353
0.00125164
-0.00032833
0.00146578
-0.000214265
0.00165552
-0.000189866
0.00182386
-0.00016847
0.00195852
-0.000134786
0.00203796
-7.9558e-05
0.00203592
1.91336e-06
0.00193105
0.000104747
0.00169969
0.000231233
0.00129439
0.000405175
0.00114904
0.000798775
0.000836284
0.00127948
0.000365614
0.00167863
0.00254112
-0.000773714
0.00936418
-0.00141552
0.00379207
-0.00157795
0.00293475
-0.00179154
0.00250608
-0.00201663
0.00214504
-0.00222154
0.00172785
-0.00238484
0.00122505
-0.0024812
0.000601814
-0.00245352
-0.000196709
-0.00226263
-0.00113344
-0.00196169
-0.00201278
-0.00161751
-0.00272618
-0.00127659
-0.00325105
-0.000948762
-0.00358889
-0.00061087
-0.00369071
-0.000280642
-0.00344163
2.89152e-05
-0.00284095
0.000584316
-0.00194287
0.000652892
-0.00150908
0.000587203
-0.00119076
0.000599326
-0.000897
0.000660115
-0.000701228
0.000758662
-0.000573872
0.000901398
-0.000471038
0.00108737
-0.00040021
0.00126066
-0.000363124
0.00142033
-0.000328118
0.00155746
-0.000271885
0.00165532
-0.000177385
0.00168955
-3.22889e-05
0.00164121
0.000153113
0.00150919
0.000363282
0.00130533
0.000609066
0.00112826
0.000975878
0.000938397
0.00146938
0.000524747
0.00209231
0.00033419
0.0027317
-0.00120655
0.00154057
-0.00163952
0.000432797
-0.00158808
-0.000674319
0.0104688
-0.00119381
0.00431159
-0.000861151
0.00260212
-0.000814681
0.00245963
-0.000897723
0.00222811
-0.000986827
0.00181697
-0.00104059
0.00127885
-0.00105121
0.000612458
-0.000957368
-0.000290531
-0.000755756
-0.00133503
-0.00052603
-0.00224249
-0.000320366
-0.00293183
-0.000158533
-0.00341288
-2.94281e-05
-0.003718
8.83977e-05
-0.00380853
0.000190129
-0.00354334
0.000268153
-0.00291895
0.00041526
-0.00208995
0.00037882
-0.00147261
0.00027625
-0.00108816
0.000239919
-0.000860641
0.000269296
-0.000730577
0.000343582
-0.000648129
0.000457506
-0.000584933
0.000596619
-0.000539295
0.000739861
-0.000506337
0.000881318
-0.000469546
0.00101718
-0.000407716
0.00113888
-0.000299055
0.00122782
-0.000121199
0.00126053
0.000120433
0.0012446
0.000379244
0.00119822
0.000655472
0.00118166
0.000992469
0.00125196
0.00139911
0.00140723
0.00193706
0.00188537
0.00225359
0.00212343
0.00130254
0.00174561
0.000810651
0.000219618
-0.00092201
0.011862
-0.00091917
0.00430877
4.41957e-05
0.00163877
0.000354857
0.002149
0.00035729
0.0022257
0.000346577
0.00182771
0.00041232
0.00121313
0.0005686
0.000456203
0.000784425
-0.000506329
0.00097075
-0.00152133
0.0010702
-0.00234193
0.00107768
-0.0029393
0.00101188
-0.00334709
0.000904773
-0.0036109
0.00078067
-0.00368442
0.00063675
-0.0033994
0.000466051
-0.00274822
0.000303634
-0.0019275
9.51257e-05
-0.00126407
-6.34515e-05
-0.000929552
-0.000139448
-0.000784616
-0.000156332
-0.000713664
-0.000135257
-0.000669174
-8.32209e-05
-0.00063694
-8.62332e-06
-0.000613863
7.89635e-05
-0.000593895
0.000175176
-0.000565729
0.000282285
-0.000514796
0.000405925
-0.000422666
0.000550373
-0.000265618
0.000685781
-1.49451e-05
0.00079853
0.000266525
0.00091409
0.000539943
0.00108242
0.000824165
0.00136502
0.00111655
0.00182646
0.00147565
0.00255569
0.0015244
0.00311488
0.000743378
0.00322849
0.000697072
0.00351842
0.00235059
0.0100347
0.00284092
0.00381845
0.00276559
0.00171412
0.00264955
0.00226506
0.00245575
0.00241953
0.00237229
0.00191119
0.00243698
0.00114847
0.00266197
0.000231235
0.00289129
-0.000735622
0.00292446
-0.00155448
0.00276899
-0.00218645
0.00247905
-0.00264936
0.00211636
-0.0029844
0.00174128
-0.00323583
0.00137761
-0.00332075
0.000987864
-0.00300964
0.000552768
-0.0023131
0.000116794
-0.00149149
-0.00022491
-0.000922335
-0.000427895
-0.000726536
-0.000548657
-0.000663824
-0.000625751
-0.000636541
-0.000674291
-0.000620605
-0.000701069
-0.000610133
-0.000712167
-0.000602736
-0.000712168
-0.000593865
-0.000701905
-0.000575963
-0.000677195
-0.000539477
-0.000626353
-0.000473478
-0.00052552
-0.000366422
-0.00033472
-0.000205715
-0.000105354
3.71887e-05
0.000135482
0.000299137
0.000428224
0.000531454
0.000792065
0.000752736
0.00129583
0.000971912
0.00187043
0.000949826
0.00206412
0.000549719
0.001169
0.00159222
0.00496361
0.0106065
0.0144178
0.0121896
0.00394237
0.0102283
0.00422643
0.00867205
0.00397576
0.00764335
0.00293992
0.00698734
0.0018045
0.00644913
0.000769467
0.00583655
-0.000123028
0.0051395
-0.00085742
0.00439479
-0.00144173
0.00363685
-0.00189143
0.00290684
-0.00225441
0.00226637
-0.00259538
0.00170771
-0.00276208
0.00111021
-0.00241211
0.000408224
-0.00161108
-0.000220092
-0.000863135
-0.000596046
-0.000546349
-0.000823546
-0.000499005
-0.00099125
-0.000496091
-0.0011305
-0.000497265
-0.00125346
-0.000497613
-0.00136669
-0.000496866
-0.0014757
-0.000493707
-0.00158536
-0.00048417
-0.00170001
-0.00046129
-0.00182424
-0.000415217
-0.00196417
-0.00033351
-0.00212846
-0.000202108
-0.00232602
-8.12131e-06
-0.0025386
0.000249795
-0.00281606
0.000576627
-0.00327261
0.000988032
-0.0040052
0.00148536
-0.00507031
0.00203705
-0.00657355
0.0024531
-0.0083939
0.0023701
-0.00783691
0.00103526
-0.00256675
0.00504263
0.00483752
0.0048398
0.00442924
0.00578373
0.00303182
0.00618511
0.00253853
0.00619062
0.001799
0.00601216
0.000947924
0.00566864
0.000220489
0.00514229
-0.000331075
0.0044617
-0.000761147
0.00368261
-0.00111235
0.00287921
-0.00145102
0.00217429
-0.00189048
0.00154146
-0.00212923
0.000823402
-0.00169401
-0.000106025
-0.000681606
-0.000699181
-0.000269944
-0.0010022
-0.000243293
-0.00122007
-0.000281109
-0.00141122
-0.000304908
-0.0015926
-0.000315855
-0.00177058
-0.000319601
-0.00194892
-0.000318498
-0.00213035
-0.000312253
-0.00231615
-0.000298334
-0.00250529
-0.000272119
-0.00269345
-0.000227029
-0.00287204
-0.000154892
-0.00302706
-4.70595e-05
-0.00314232
0.000107164
-0.00322089
0.000328394
-0.00328296
0.000638725
-0.00334622
0.00105132
-0.00341547
0.00155464
-0.00343592
0.00205753
-0.00333358
0.00235078
-0.00293142
0.00196797
-0.00163793
-0.000258205
-0.0041236
-0.000497527
0.00537959
0.0015813
0.0023504
0.00269067
0.00192245
0.00349113
0.00173805
0.00406875
0.00122137
0.00433416
0.000682506
0.00430139
0.000253256
0.0040353
-6.49974e-05
0.00358237
-0.000308216
0.00297763
-0.000507615
0.00226428
-0.000737679
0.00153934
-0.00116554
0.000711706
-0.00130153
-0.000232227
-0.000750022
-0.00090276
-1.10376e-05
-0.00119384
2.11688e-05
-0.00137856
-5.85425e-05
-0.00154891
-0.000110725
-0.00172102
-0.000132771
-0.00189498
-0.000141865
-0.00206913
-0.000145423
-0.00224205
-0.000145544
-0.00241209
-0.000142186
-0.00257638
-0.000134016
-0.00272987
-0.000118596
-0.00286441
-9.2458e-05
-0.0029682
-5.10722e-05
-0.00302677
1.15418e-05
-0.00302071
0.000101131
-0.00292522
0.000232928
-0.0027085
0.000422035
-0.0023468
0.000689655
-0.001836
0.00104387
-0.00115834
0.00137991
-0.000125411
0.00131787
0.00122615
0.000616441
0.00160283
-0.000634861
-0.00243152
-0.00815173
-0.0105628
-0.00514624
-0.00277589
-0.000838772
0.000910571
0.00214187
0.00283398
0.00309702
0.00304225
0.00274466
0.00224813
0.00152209
0.000368782
-0.00092332
-0.00166743
-0.0016731
-0.00164681
-0.00170045
-0.00180651
-0.00193483
-0.00207248
-0.0022139
-0.00235565
-0.00249423
-0.00262483
-0.00274018
-0.00282956
-0.00287771
-0.0028634
-0.00275967
-0.00252429
-0.00209998
-0.00140824
-0.0003625
0.00101897
0.00233819
0.00295589
0.00232233
)
;

boundaryField
{
    floor
    {
        type            calculated;
        value           nonuniform List<scalar> 
29
(
0
0
0
0
0
0
0
0
0
0
0
0
0
0
0
0
0
0
0
0
-4.34484e-06
-1.15078e-05
-1.75999e-05
-2.30434e-05
-1.99274e-06
-2.891e-06
-7.63476e-06
-1.17378e-05
-1.24425e-05
)
;
    }
    ceiling
    {
        type            calculated;
        value           nonuniform List<scalar> 
43
(
-3.938e-05
-3.82236e-05
-3.69591e-05
-1.99557e-05
-1.46699e-05
-1.12949e-05
-9.92796e-06
-9.60412e-06
-9.7866e-06
-1.02205e-05
-1.06281e-05
-1.10819e-05
-1.16384e-05
-1.22158e-05
-9.26891e-06
-5.8741e-06
-5.34233e-06
-5.0893e-06
-4.87024e-06
-4.64269e-06
-4.41277e-06
-4.18843e-06
-3.97326e-06
-3.76862e-06
-3.57475e-06
-3.39124e-06
-3.21717e-06
-3.05118e-06
-2.89138e-06
-2.73507e-06
-2.57818e-06
-2.41667e-06
-2.24529e-06
-2.05774e-06
-1.84437e-06
-1.5317e-06
-1.3188e-06
-1.23572e-06
-1.26784e-06
-5.81634e-07
1.05329e-05
7.17175e-06
-4.45645e-05
)
;
    }
    sWall
    {
        type            calculated;
        value           uniform -0.000251328;
    }
    nWall
    {
        type            calculated;
        value           nonuniform List<scalar> 6(-5.16224e-05 -6.20542e-05 -7.02807e-05 -8.10636e-05 -8.92215e-05 -0.000108578);
    }
    sideWalls
    {
        type            empty;
        value           nonuniform 0();
    }
    glass1
    {
        type            calculated;
        value           nonuniform List<scalar> 9(-6.20518e-05 -0.000166575 -0.000252784 -0.000323683 -0.000382009 -0.000430254 -0.00047117 -0.000523307 -0.000582377);
    }
    glass2
    {
        type            calculated;
        value           nonuniform List<scalar> 2(-0.000276161 -0.000306522);
    }
    sun
    {
        type            calculated;
        value           uniform 0;
    }
    heatsource1
    {
        type            calculated;
        value           nonuniform List<scalar> 3(2.04502e-07 2.04397e-07 2.0441e-07);
    }
    heatsource2
    {
        type            calculated;
        value           nonuniform List<scalar> 4(5.09948e-08 5.11971e-08 0 0);
    }
    Table_master
    {
        type            calculated;
        value           nonuniform List<scalar> 9(-1.53459e-07 -1.53498e-07 -1.53509e-07 -1.53515e-07 -1.5352e-07 -1.53521e-07 -1.53519e-07 -1.53507e-07 -1.53466e-07);
    }
    Table_slave
    {
        type            calculated;
        value           nonuniform List<scalar> 9(1.5338e-07 1.53343e-07 1.5329e-07 1.53248e-07 1.53226e-07 1.53232e-07 1.53242e-07 1.53287e-07 1.53377e-07);
    }
    inlet
    {
        type            calculated;
        value           uniform -0.00593779;
    }
    outlet
    {
        type            calculated;
        value           nonuniform List<scalar> 2(0.00844243 0.00244928);
    }
}


// ************************************************************************* //
