/*--------------------------------*- C++ -*----------------------------------*\
  =========                 |
  \\      /  F ield         | OpenFOAM: The Open Source CFD Toolbox
   \\    /   O peration     | Website:  https://openfoam.org
    \\  /    A nd           | Version:  6
     \\/     M anipulation  |
\*---------------------------------------------------------------------------*/
FoamFile
{
    version     2.0;
    format      ascii;
    class       volScalarField;
    location    "380";
    object      alphat;
}
// * * * * * * * * * * * * * * * * * * * * * * * * * * * * * * * * * * * * * //

dimensions      [1 -1 -1 0 0 0 0];

internalField   nonuniform List<scalar> 
459
(
0.000993023
0.00110697
0.00115928
0.00122812
0.00129672
0.0013712
0.00143749
0.00148748
0.00151114
0.00149383
0.00139137
0.00128376
0.00115323
0.00102868
0.000902372
0.000535995
0.000704181
0.000827741
0.000855561
0.000853898
0.00083245
0.000786516
0.000736647
0.000690612
0.000649528
0.000612977
0.000580495
0.000551513
0.00052509
0.000500155
0.00047528
0.000448131
0.00040784
0.000362359
0.00125332
0.00323826
0.00326584
0.00381701
0.00437381
0.0047871
0.00519213
0.00558783
0.00594793
0.00621217
0.0061976
0.00585496
0.00528855
0.00413516
0.00267108
0.0010462
0.000870097
0.000786454
0.0027999
0.00292911
0.0033576
0.00361931
0.00346913
0.00245368
0.00204132
0.00177617
0.0015837
0.00143643
0.00131718
0.00120903
0.00110407
0.000996542
0.000899037
0.000833554
0.00067594
0.000423213
0.00146839
0.00441745
0.00411303
0.00463212
0.00493046
0.00515136
0.00542008
0.00579901
0.00631669
0.00688649
0.00720411
0.00717449
0.00685909
0.00609871
0.00479537
0.00295895
0.00099744
0.000851533
0.0024835
0.00334118
0.0041625
0.00466023
0.00422643
0.00105515
0.000922151
0.000815663
0.000730933
0.000663067
0.000608231
0.000564112
0.000529237
0.000503869
0.000571868
0.000699004
0.0007236
0.000457401
0.0016719
0.00533015
0.00426007
0.00471538
0.00473503
0.00477991
0.00491888
0.00528154
0.00592234
0.00668444
0.00718462
0.00737674
0.0072942
0.00691279
0.0060762
0.0046589
0.00241833
0.00110551
0.00164171
0.00269121
0.00404329
0.0051692
0.00576763
0.00515687
0.0011634
0.00105985
0.00098636
0.000930298
0.000882857
0.000839098
0.000796831
0.000751956
0.000699635
0.000651979
0.00068297
0.000802957
0.000507524
0.00188017
0.00642731
0.00450691
0.00477936
0.00467645
0.00457554
0.0045909
0.00495587
0.00568649
0.00649682
0.00709413
0.0073661
0.00737106
0.00718336
0.00674738
0.00596909
0.0048137
0.00441926
0.00509212
0.00596455
0.00673546
0.00723764
0.00740759
0.00709482
0.00574187
0.00511444
0.00476697
0.00452338
0.00429175
0.00398067
0.00354511
0.00299381
0.00235972
0.00173762
0.00129025
0.00115161
0.000808149
0.000577543
0.000581707
0.000588854
0.00210506
0.00771226
0.00560354
0.00514731
0.00498139
0.00463854
0.00452601
0.00487633
0.00565405
0.00653966
0.00718664
0.00746721
0.00748279
0.0074136
0.00733747
0.00719617
0.00703633
0.00739164
0.00801846
0.0084828
0.00871466
0.00870805
0.00849466
0.00809456
0.00749538
0.0069968
0.00660454
0.00626043
0.00591828
0.00553553
0.00504506
0.00444156
0.00373265
0.00297246
0.00228657
0.00184959
0.00143397
0.00114987
0.00131807
0.000783961
0.00231141
0.00864562
0.00738766
0.00617378
0.00547528
0.0047723
0.0045479
0.00495748
0.00585114
0.00683335
0.00751379
0.00778705
0.00783844
0.00796407
0.00821743
0.00846618
0.00876335
0.00923656
0.00961477
0.00970358
0.00954098
0.00918089
0.00869089
0.00813762
0.00758203
0.00711088
0.00671426
0.00634829
0.00598667
0.00561015
0.00521722
0.00482018
0.00432281
0.00374919
0.00315043
0.00264401
0.00216619
0.00178136
0.0017113
0.000939661
0.00235896
0.00768603
0.00691016
0.00610684
0.00511281
0.00444968
0.00445917
0.00517559
0.00631371
0.00740438
0.00807014
0.00833059
0.00847806
0.00875466
0.00893767
0.00916539
0.00946862
0.00975979
0.0098522
0.00964011
0.00918956
0.00858291
0.00791137
0.00726104
0.00670058
0.00625433
0.00588661
0.00555536
0.005235
0.00491421
0.00460836
0.00436495
0.00420916
0.0039836
0.00368
0.00340725
0.00312742
0.00266791
0.0029256
0.00122969
0.00231185
0.00272997
0.00292469
0.00292381
0.00294467
0.00334641
0.00433529
0.00577147
0.00722783
0.00828422
0.00873872
0.00897261
0.00887894
0.00872089
0.00868443
0.00878892
0.00893575
0.00897532
0.00880321
0.0084202
0.0078687
0.00723463
0.00662179
0.00609107
0.00565914
0.00530858
0.0050005
0.00470423
0.00439713
0.00405604
0.00367251
0.0032876
0.00296395
0.00272658
0.00253557
0.00236218
0.00220214
0.00205469
0.00194816
0.00128673
0.000707472
0.00142306
0.00278437
0.00468319
0.00656491
0.00803562
0.00886468
0.00919594
0.00891411
0.00847405
0.00809887
0.00789198
0.00782569
0.0078157
0.00777033
0.0076192
0.0073532
0.00701824
0.00667292
0.00635721
0.00608224
0.00583703
0.00559671
0.00534461
0.00505985
0.00473213
0.00436389
0.00396785
0.00355866
0.00316421
0.00282758
0.0025723
0.00240252
0.00229339
0.0021994
0.00208093
0.0019533
0.00138164
0.00162489
0.00630643
0.00864889
0.00936397
0.00962156
0.00954917
0.00915512
0.00853071
0.00790585
0.00744624
0.00719468
0.00708328
0.00704114
0.00702004
0.00699207
0.00694295
0.00687306
0.00679409
0.00671899
0.00665526
0.00660146
0.00654804
0.00647864
0.00637702
0.00622374
0.00600086
0.00569682
0.00531122
0.00485489
0.00435665
0.00386613
0.00342179
0.00305484
0.00277037
0.00254418
0.00236707
0.00296742
0.00150955
0.00181841
0.00193724
0.00205388
0.00238253
0.00231708
0.00217384
0.00207307
0.00197757
0.0018737
0.00177396
0.00170026
0.00165746
0.00163703
0.00163022
0.00163067
0.0016338
0.00163627
0.00163607
0.00163302
0.00162819
0.00162276
0.00161728
0.00161144
0.00160423
0.00159432
0.00157958
0.00155831
0.00152954
0.00149362
0.00145262
0.00141053
0.00137185
0.0013398
0.00131734
0.00130571
0.00130278
0.00129953
0.00127645
0.00126348
0.00123347
)
;

boundaryField
{
    floor
    {
        type            compressible::alphatWallFunction;
        Prt             0.85;
        value           nonuniform List<scalar> 
29
(
0.000128693
7.49406e-05
0.000100041
0.000118009
0.00012201
0.000121772
0.00011869
0.000112056
0.0001048
9.805e-05
9.19791e-05
8.65386e-05
8.16701e-05
7.72975e-05
7.32861e-05
6.94773e-05
6.56537e-05
6.14513e-05
5.51538e-05
4.79468e-05
4.79461e-05
5.7566e-05
6.28911e-05
7.06081e-05
0.000128691
7.49396e-05
0.00011204
0.000121422
0.000157299
)
;
    }
    ceiling
    {
        type            compressible::alphatWallFunction;
        Prt             0.85;
        value           nonuniform List<scalar> 
43
(
0.000253559
0.000269149
0.000284353
0.000326723
0.000318356
0.000299932
0.000286892
0.000274469
0.000260882
0.000247758
0.000238009
0.000232327
0.000229609
0.000228704
0.000228764
0.000229182
0.000229511
0.000229485
0.000229079
0.000228434
0.00022771
0.000226979
0.0002262
0.000225236
0.000223913
0.000221943
0.000219097
0.000215241
0.000210414
0.000204888
0.000199198
0.000193952
0.00018959
0.000186527
0.000184938
0.000184537
0.000184092
0.000180934
0.000179158
0.00017504
0.000317695
0.00037084
0.000227888
)
;
    }
    sWall
    {
        type            compressible::alphatWallFunction;
        Prt             0.85;
        value           uniform 0.000253072;
    }
    nWall
    {
        type            compressible::alphatWallFunction;
        Prt             0.85;
        value           nonuniform List<scalar> 6(8.26284e-05 0.000111368 0.000133682 0.00019493 0.0002122 0.000174697);
    }
    sideWalls
    {
        type            empty;
    }
    glass1
    {
        type            compressible::alphatWallFunction;
        Prt             0.85;
        value           nonuniform List<scalar> 9(0.000140104 0.000176091 0.0002052 0.000232321 0.000259714 0.000288935 0.000315461 0.000321567 0.000315601);
    }
    glass2
    {
        type            compressible::alphatWallFunction;
        Prt             0.85;
        value           nonuniform List<scalar> 2(0.00017344 0.000181275);
    }
    sun
    {
        type            compressible::alphatWallFunction;
        Prt             0.85;
        value           nonuniform List<scalar> 
14
(
0.000141544
0.000157501
0.000164764
0.000174266
0.000183674
0.000193824
0.000202805
0.000209547
0.000212729
0.000210398
0.00019656
0.000181899
0.000163928
0.000146559
)
;
    }
    heatsource1
    {
        type            compressible::alphatWallFunction;
        Prt             0.85;
        value           nonuniform List<scalar> 3(8.1117e-05 8.17427e-05 8.28156e-05);
    }
    heatsource2
    {
        type            compressible::alphatWallFunction;
        Prt             0.85;
        value           nonuniform List<scalar> 4(0.00014891 0.000123979 0.000123978 0.000142058);
    }
    Table_master
    {
        type            compressible::alphatWallFunction;
        Prt             0.85;
        value           nonuniform List<scalar> 9(0.000150163 0.000131404 0.000116154 0.000103851 9.3872e-05 8.57181e-05 7.90922e-05 7.3809e-05 6.99387e-05);
    }
    Table_slave
    {
        type            compressible::alphatWallFunction;
        Prt             0.85;
        value           nonuniform List<scalar> 9(0.000165233 0.000150825 0.000140501 0.000132564 0.000125804 0.000119531 0.000113435 0.00010692 9.92638e-05);
    }
    inlet
    {
        type            fixedValue;
        value           uniform 1.94e-05;
    }
    outlet
    {
        type            zeroGradient;
    }
}


// ************************************************************************* //
