// -*- C++ -*-
// File generated by PyFoam - sorry for the ugliness

FoamFile
{
 version 2.0;
 format ascii;
 class volScalarField;
 location "1000";
 object T;
}

dimensions [ 0 0 0 1 0 0 0 ];

internalField nonuniform List<scalar> 459
(
  303.567
  303.308
  303.295
  303.292
  303.288
  303.284
  303.279
  303.273
  303.265
  303.254
  303.242
  303.231
  303.222
  303.218
  303.22
  303.312
  303.291
  303.283
  303.286
  303.29
  303.293
  303.297
  303.301
  303.305
  303.309
  303.313
  303.317
  303.321
  303.324
  303.328
  303.332
  303.336
  303.342
  303.361
  303.741
  303.351
  303.328
  303.33
  303.333
  303.334
  303.331
  303.325
  303.31
  303.287
  303.261
  303.237
  303.219
  303.208
  303.204
  303.201
  303.2
  303.313
  303.275
  303.269
  303.272
  303.277
  303.281
  303.283
  303.285
  303.287
  303.288
  303.29
  303.291
  303.293
  303.295
  303.297
  303.301
  303.307
  303.316
  303.345
  303.922
  303.402
  303.363
  303.374
  303.387
  303.398
  303.402
  303.397
  303.374
  303.335
  303.29
  303.25
  303.22
  303.204
  303.199
  303.199
  303.201
  303.255
  303.254
  303.26
  303.27
  303.28
  303.288
  303.288
  303.288
  303.289
  303.289
  303.289
  303.29
  303.291
  303.291
  303.292
  303.295
  303.299
  303.308
  303.339
  304.106
  303.465
  303.4
  303.416
  303.443
  303.47
  303.488
  303.486
  303.45
  303.388
  303.319
  303.26
  303.219
  303.198
  303.194
  303.197
  303.204
  303.215
  303.228
  303.247
  303.266
  303.284
  303.3
  303.312
  303.323
  303.331
  303.34
  303.347
  303.353
  303.358
  303.362
  303.365
  303.366
  303.343
  303.323
  303.315
  303.338
  304.284
  303.544
  303.442
  303.453
  303.491
  303.536
  303.574
  303.572
  303.518
  303.428
  303.335
  303.26
  303.212
  303.189
  303.187
  303.196
  303.21
  303.228
  303.249
  303.273
  303.297
  303.318
  303.337
  303.352
  303.366
  303.377
  303.386
  303.393
  303.399
  303.401
  303.4
  303.397
  303.39
  303.372
  303.347
  303.327
  303.336
  303.408
  303.455
  303.46
  304.445
  303.646
  303.515
  303.504
  303.541
  303.597
  303.647
  303.626
  303.546
  303.437
  303.328
  303.243
  303.192
  303.173
  303.178
  303.199
  303.225
  303.253
  303.282
  303.312
  303.339
  303.363
  303.382
  303.396
  303.409
  303.419
  303.427
  303.433
  303.436
  303.435
  303.43
  303.423
  303.412
  303.394
  303.369
  303.345
  303.34
  303.37
  303.387
  303.422
  304.593
  303.809
  303.678
  303.649
  303.667
  303.714
  303.716
  303.645
  303.525
  303.39
  303.271
  303.19
  303.151
  303.148
  303.173
  303.211
  303.253
  303.294
  303.331
  303.363
  303.39
  303.412
  303.428
  303.441
  303.45
  303.458
  303.463
  303.467
  303.467
  303.464
  303.456
  303.445
  303.431
  303.414
  303.391
  303.367
  303.355
  303.363
  303.373
  303.401
  304.808
  304.221
  304.077
  303.991
  303.95
  303.888
  303.76
  303.584
  303.4
  303.245
  303.14
  303.092
  303.093
  303.128
  303.184
  303.248
  303.306
  303.354
  303.393
  303.421
  303.443
  303.459
  303.471
  303.48
  303.486
  303.49
  303.493
  303.493
  303.491
  303.486
  303.479
  303.467
  303.454
  303.438
  303.421
  303.403
  303.397
  303.408
  303.427
  303.548
  305.114
  304.838
  304.582
  304.347
  304.116
  303.811
  303.479
  303.201
  303.015
  302.928
  302.921
  302.971
  303.058
  303.15
  303.241
  303.33
  303.387
  303.425
  303.452
  303.472
  303.487
  303.498
  303.505
  303.511
  303.514
  303.515
  303.515
  303.514
  303.512
  303.509
  303.507
  303.506
  303.508
  303.514
  303.527
  303.549
  303.579
  303.611
  303.632
  303.684
  296.339
  298.192
  299.39
  300.25
  300.976
  301.588
  302.084
  302.469
  302.761
  302.993
  303.183
  303.296
  303.372
  303.425
  303.46
  303.484
  303.501
  303.513
  303.521
  303.528
  303.532
  303.535
  303.536
  303.537
  303.538
  303.538
  303.538
  303.539
  303.54
  303.542
  303.546
  303.554
  303.566
  303.584
  303.607
  303.63
  303.649
  303.67
  296.989
  298.82
  300.268
  301.249
  301.869
  302.323
  302.668
  302.925
  303.111
  303.244
  303.345
  303.412
  303.457
  303.488
  303.508
  303.523
  303.533
  303.54
  303.545
  303.548
  303.55
  303.552
  303.554
  303.555
  303.556
  303.557
  303.558
  303.559
  303.56
  303.562
  303.565
  303.571
  303.579
  303.591
  303.606
  303.624
  303.623
  303.652
  299.72
  299.642
  299.637
  301.478
  302.29
  302.679
  302.907
  303.075
  303.203
  303.301
  303.374
  303.428
  303.467
  303.494
  303.512
  303.523
  303.531
  303.537
  303.54
  303.543
  303.545
  303.547
  303.549
  303.551
  303.553
  303.555
  303.557
  303.559
  303.561
  303.563
  303.565
  303.567
  303.57
  303.574
  303.579
  303.588
  303.597
  303.603
  303.605
  303.644
)
;

boundaryField
{
  floor
  {
    type wallHeatTransfer;
    Tinf uniform 305.2;
    alphaWall uniform 0.24;
    value nonuniform List<scalar> 29
(
  303.412
  303.67
  303.607
  303.575
  303.578
  303.589
  303.602
  303.619
  303.638
  303.656
  303.674
  303.691
  303.707
  303.723
  303.739
  303.754
  303.769
  303.786
  303.801
  303.841
  303.841
  303.759
  303.717
  303.693
  303.412
  303.67
  303.652
  303.469
  303.38
)
;
  }
  ceiling
  {
    type wallHeatTransfer;
    Tinf uniform 303.2;
    alphaWall uniform 0.24;
    value nonuniform List<scalar> 43
(
  299.967
  299.883
  299.871
  301.585
  302.348
  302.714
  302.927
  303.083
  303.203
  303.293
  303.359
  303.406
  303.439
  303.46
  303.473
  303.481
  303.486
  303.489
  303.49
  303.492
  303.493
  303.494
  303.496
  303.498
  303.5
  303.502
  303.505
  303.507
  303.511
  303.514
  303.517
  303.521
  303.526
  303.531
  303.537
  303.548
  303.557
  303.561
  303.561
  303.593
  305.026
  304.772
  297.39
)
;
  }
  sWall
  {
    type wallHeatTransfer;
    Tinf uniform 315.2;
    alphaWall uniform 0.36;
    value uniform 301.319;
  }
  nWall
  {
    type wallHeatTransfer;
    Tinf uniform 307.2;
    alphaWall uniform 0.36;
    value nonuniform List<scalar> 6
(
  304.164
  304.112
  304.035
  304.181
  304.158
  304.223
)
;
  }
  sideWalls
  {
    type empty;
  }
  glass1
  {
    type wallHeatTransfer;
    Tinf uniform 315.2;
    alphaWall uniform 4.3;
    value nonuniform List<scalar> 9
(
  311.516
  310.887
  310.49
  310.188
  309.936
  309.708
  309.54
  309.612
  309.838
)
;
  }
  glass2
  {
    type wallHeatTransfer;
    Tinf uniform 307.2;
    alphaWall uniform 4.3;
    value nonuniform List<scalar> 2
(
  305.821
  305.916
)
;
  }
  sun
  {
    type wallHeatTransfer;
    Tinf uniform 305.2;
    alphaWall uniform 0.24;
    value nonuniform List<scalar> 14
(
  303.739
  303.495
  303.48
  303.47
  303.461
  303.452
  303.444
  303.434
  303.423
  303.412
  303.402
  303.395
  303.394
  303.399
)
;
  }
  heatsource1
  {
    type fixedGradient;
    gradient uniform 0;
  }
  heatsource2
  {
    type fixedGradient;
    gradient uniform 0;
  }
  Table_master
  {
    type zeroGradient;
  }
  Table_slave
  {
    type zeroGradient;
  }
  inlet
  {
    type fixedValue;
    value uniform 293.15;
  }
  outlet
  {
    type zeroGradient;
  }
} 	// ************************************************************************* //

