// -*- C++ -*-
// File generated by PyFoam - sorry for the ugliness

FoamFile
{
 version 2.0;
 format ascii;
 class volVectorField;
 location "100";
 object U;
}

dimensions [ 0 1 -1 0 0 0 0 ];

internalField nonuniform List<vector> 459
(
  (0.343209 -0.166766 0)
  (0.277623 -0.151116 0)
  (0.409159 -0.100583 0)
  (0.510231 -0.0664852 0)
  (0.557321 -0.0468512 0)
  (0.575814 -0.0339085 0)
  (0.582894 -0.0239212 0)
  (0.581304 -0.0153599 0)
  (0.570036 -0.00729438 0)
  (0.548365 0.00101114 0)
  (0.515093 0.0103925 0)
  (0.467911 0.0221499 0)
  (0.402276 0.0393084 0)
  (0.30469 0.0724356 0)
  (0.227819 0.162131 0)
  (-0.0571619 -0.00302658 0)
  (0.0182009 0.00336224 0)
  (-0.000279413 0.0030873 0)
  (-0.00544165 -1.63231e-05 0)
  (-0.00751761 -0.000589237 0)
  (-0.00930173 0.00127437 0)
  (-0.0133171 0.00233029 0)
  (-0.0167962 0.00149191 0)
  (-0.0185006 0.000996196 0)
  (-0.0197622 0.00102208 0)
  (-0.0212351 0.00141611 0)
  (-0.0232713 0.00195895 0)
  (-0.0267081 0.00224022 0)
  (-0.0319199 0.00167472 0)
  (-0.0357181 -0.000665112 0)
  (-0.0327018 -0.00560887 0)
  (-0.028126 -0.00907265 0)
  (-0.0250504 -0.00950469 0)
  (0.0490283 -0.0112157 0)
  (0.43484 -0.335291 0)
  (0.213699 -0.2497 0)
  (0.330178 -0.136391 0)
  (0.411424 -0.0697584 0)
  (0.443125 -0.0360724 0)
  (0.455964 -0.0148849 0)
  (0.463303 0.00233973 0)
  (0.465219 0.0175644 0)
  (0.458733 0.0316862 0)
  (0.443181 0.0462095 0)
  (0.417851 0.0625957 0)
  (0.382125 0.0825638 0)
  (0.336995 0.108869 0)
  (0.285891 0.146987 0)
  (0.257786 0.214542 0)
  (0.23029 0.187334 0)
  (0.119885 0.136767 0)
  (-0.0694234 0.00255869 0)
  (-0.00190565 0.0057251 0)
  (-0.0145533 0.00530072 0)
  (-0.0174063 0.00346442 0)
  (-0.0182887 0.00392552 0)
  (-0.017898 0.00546523 0)
  (-0.0180565 0.00568614 0)
  (-0.0191941 0.00443186 0)
  (-0.0192623 0.00397632 0)
  (-0.0191399 0.00401845 0)
  (-0.0188436 0.00431953 0)
  (-0.0181867 0.00479361 0)
  (-0.0177727 0.00538973 0)
  (-0.0196263 0.0056844 0)
  (-0.0218518 0.00293751 0)
  (-0.0105935 -0.0108123 0)
  (-0.00641377 -0.0130949 0)
  (-0.0182287 -0.0107005 0)
  (0.0789462 -0.0102706 0)
  (0.469128 -0.507156 0)
  (0.0861362 -0.341111 0)
  (0.222274 -0.184842 0)
  (0.283302 -0.104868 0)
  (0.297841 -0.0663295 0)
  (0.306302 -0.0405638 0)
  (0.314697 -0.018676 0)
  (0.321814 0.00273251 0)
  (0.322753 0.0255403 0)
  (0.31686 0.0505988 0)
  (0.303622 0.0786493 0)
  (0.282907 0.110393 0)
  (0.255928 0.146544 0)
  (0.223527 0.187235 0)
  (0.197536 0.231947 0)
  (0.157771 0.200928 0)
  (0.095958 0.173611 0)
  (-0.0795666 0.0218729 0)
  (-0.0225593 0.0103197 0)
  (-0.0325074 0.00663317 0)
  (-0.0346139 0.00399632 0)
  (-0.0343738 0.0028434 0)
  (-0.0310978 0.00200857 0)
  (-0.0225372 -0.00167286 0)
  (-0.0217332 -0.00563856 0)
  (-0.0202819 -0.00709909 0)
  (-0.0189542 -0.00759048 0)
  (-0.0174596 -0.00730288 0)
  (-0.0152062 -0.00630597 0)
  (-0.0121376 -0.00447478 0)
  (-0.0112803 -0.00145805 0)
  (-0.018012 0.000962267 0)
  (0.0206217 -0.0290269 0)
  (0.0197472 -0.0186427 0)
  (0.00811916 -0.00819875 0)
  (0.0822094 0.000387041 0)
  (0.480988 -0.617791 0)
  (-0.0347608 -0.390011 0)
  (0.140944 -0.20729 0)
  (0.172577 -0.1185 0)
  (0.166076 -0.0766823 0)
  (0.172087 -0.0469454 0)
  (0.181446 -0.0218189 0)
  (0.190775 0.00311008 0)
  (0.196823 0.0299867 0)
  (0.197715 0.059884 0)
  (0.193116 0.0933819 0)
  (0.182698 0.130521 0)
  (0.16674 0.170728 0)
  (0.144184 0.212471 0)
  (0.123803 0.253646 0)
  (0.0952049 0.247621 0)
  (0.0703898 0.23075 0)
  (-0.0112232 0.0964227 0)
  (-0.0680519 0.0277749 0)
  (-0.0475122 0.0140469 0)
  (-0.0564993 0.0098147 0)
  (-0.0625495 0.00590219 0)
  (-0.0675523 0.00203926 0)
  (-0.0705505 -0.00187233 0)
  (-0.0708081 -0.00495019 0)
  (-0.0677087 -0.006182 0)
  (-0.062039 -0.00820474 0)
  (-0.0535257 -0.0104371 0)
  (-0.042122 -0.0129287 0)
  (-0.0278302 -0.0155735 0)
  (-0.010466 -0.018035 0)
  (0.0123132 -0.0195834 0)
  (0.0347351 -0.0224629 0)
  (0.0430522 -0.0313102 0)
  (0.0428232 -0.0208845 0)
  (0.0353234 -0.00189798 0)
  (0.0898287 0.0317534 0)
  (0.466391 -0.679318 0)
  (-0.120199 -0.420737 0)
  (0.0858553 -0.219005 0)
  (0.0798525 -0.115807 0)
  (0.051567 -0.0814939 0)
  (0.0634125 -0.0552007 0)
  (0.0746807 -0.0312595 0)
  (0.082326 -0.00528037 0)
  (0.0906762 0.0251576 0)
  (0.0939952 0.0597488 0)
  (0.0933945 0.0984164 0)
  (0.088593 0.140496 0)
  (0.0796608 0.184954 0)
  (0.0652345 0.230292 0)
  (0.0534671 0.274544 0)
  (0.0328295 0.282419 0)
  (0.0235873 0.266609 0)
  (-0.0323585 0.108712 0)
  (-0.0426144 0.0388029 0)
  (-0.0479463 0.021943 0)
  (-0.056975 0.0165288 0)
  (-0.0614062 0.0118725 0)
  (-0.0641411 0.0071734 0)
  (-0.0654833 0.00262131 0)
  (-0.0649924 -0.00157284 0)
  (-0.0624587 -0.00560311 0)
  (-0.0579347 -0.00966115 0)
  (-0.0513244 -0.0139614 0)
  (-0.0425 -0.0186123 0)
  (-0.0314546 -0.02346 0)
  (-0.018355 -0.0280106 0)
  (-0.00278871 -0.0313672 0)
  (0.0131421 -0.0337245 0)
  (0.0245067 -0.0366225 0)
  (0.0337612 -0.027036 0)
  (0.0432972 -0.00667354 0)
  (0.0731232 0.0273084 0)
  (0.0802558 0.0251893 0)
  (0.0764299 0.0243571 0)
  (-0.0505023 0.0384449 0)
  (0.415041 -0.693251 0)
  (-0.162354 -0.43248 0)
  (0.029877 -0.208235 0)
  (-0.00208176 -0.0869808 0)
  (-0.0417922 -0.0838496 0)
  (-0.0246069 -0.0646449 0)
  (-0.0160494 -0.0416787 0)
  (-0.00949995 -0.0143595 0)
  (-0.00269293 0.0186397 0)
  (-0.00044036 0.0570808 0)
  (0.000822589 0.0995496 0)
  (2.20492e-05 0.145407 0)
  (-0.00287645 0.19352 0)
  (-0.00941794 0.242222 0)
  (-0.0118489 0.287577 0)
  (-0.0230087 0.299313 0)
  (-0.0185173 0.275794 0)
  (-0.0463298 0.12854 0)
  (-0.040398 0.0532586 0)
  (-0.0464399 0.0300033 0)
  (-0.0517425 0.020791 0)
  (-0.0540058 0.014022 0)
  (-0.0550277 0.00769349 0)
  (-0.0551394 0.00161334 0)
  (-0.054123 -0.00403994 0)
  (-0.0521378 -0.00944022 0)
  (-0.0491067 -0.0149361 0)
  (-0.0449155 -0.0207903 0)
  (-0.0393992 -0.0270789 0)
  (-0.0324872 -0.0335101 0)
  (-0.0243261 -0.0393636 0)
  (-0.0152217 -0.0438155 0)
  (-0.00597975 -0.0466593 0)
  (0.00214249 -0.0473166 0)
  (0.00991112 -0.040411 0)
  (0.0199821 -0.0256276 0)
  (0.0408736 -0.000836465 0)
  (0.0525628 0.00937441 0)
  (0.0650777 0.0285223 0)
  (-0.0639869 0.0674786 0)
  (0.310421 -0.637271 0)
  (-0.177121 -0.398847 0)
  (-0.07414 -0.180467 0)
  (-0.078871 -0.0576675 0)
  (-0.132829 -0.0833128 0)
  (-0.116262 -0.0715985 0)
  (-0.108735 -0.0486193 0)
  (-0.101932 -0.0186704 0)
  (-0.095588 0.0164484 0)
  (-0.0919213 0.0558127 0)
  (-0.0878421 0.0989422 0)
  (-0.0836741 0.145503 0)
  (-0.0794075 0.194557 0)
  (-0.0755879 0.243804 0)
  (-0.067524 0.286892 0)
  (-0.0642854 0.299443 0)
  (-0.0478844 0.268892 0)
  (-0.0531672 0.132689 0)
  (-0.0414323 0.0590751 0)
  (-0.0427319 0.0335694 0)
  (-0.0428479 0.0221732 0)
  (-0.0417532 0.0141882 0)
  (-0.040251 0.00712293 0)
  (-0.0384949 0.00042198 0)
  (-0.0366826 -0.00583418 0)
  (-0.0351738 -0.0117235 0)
  (-0.0338236 -0.0177447 0)
  (-0.0324924 -0.0242832 0)
  (-0.0309705 -0.0314165 0)
  (-0.029113 -0.0387116 0)
  (-0.0270061 -0.0451365 0)
  (-0.0250298 -0.0496648 0)
  (-0.0239124 -0.0519514 0)
  (-0.0243374 -0.0516587 0)
  (-0.0252578 -0.0475144 0)
  (-0.0235143 -0.0402636 0)
  (-0.0150066 -0.0318711 0)
  (0.0117796 -0.0234487 0)
  (0.0498588 0.0178588 0)
  (-0.0805117 0.0983811 0)
  (0.152027 -0.498283 0)
  (-0.294759 -0.315551 0)
  (-0.288122 -0.16869 0)
  (-0.17931 -0.0378398 0)
  (-0.246505 -0.0976769 0)
  (-0.213498 -0.0865201 0)
  (-0.200546 -0.0594584 0)
  (-0.191637 -0.025654 0)
  (-0.183813 0.0120147 0)
  (-0.177195 0.0516215 0)
  (-0.169091 0.0937855 0)
  (-0.158609 0.138908 0)
  (-0.145325 0.186297 0)
  (-0.129124 0.23336 0)
  (-0.108242 0.27289 0)
  (-0.0889072 0.284545 0)
  (-0.06212 0.249342 0)
  (-0.0506471 0.124126 0)
  (-0.0353863 0.0563324 0)
  (-0.0320669 0.0315488 0)
  (-0.0277872 0.0196968 0)
  (-0.0230891 0.0114649 0)
  (-0.0184753 0.00447597 0)
  (-0.0140766 -0.0016929 0)
  (-0.0115838 -0.00695806 0)
  (-0.0104758 -0.011813 0)
  (-0.010679 -0.0169118 0)
  (-0.012064 -0.0227016 0)
  (-0.0144862 -0.0292582 0)
  (-0.0178548 -0.0360397 0)
  (-0.0223139 -0.0416256 0)
  (-0.0283207 -0.0445055 0)
  (-0.0371905 -0.0441542 0)
  (-0.0504298 -0.0403689 0)
  (-0.0682513 -0.0314934 0)
  (-0.0882501 -0.014677 0)
  (-0.106755 0.0113727 0)
  (-0.122193 0.0421618 0)
  (-0.150214 0.0722959 0)
  (-0.290145 0.100916 0)
  (-0.086804 -0.354301 0)
  (-0.626 -0.309598 0)
  (-0.837539 -0.294384 0)
  (-0.229089 -0.164793 0)
  (-0.342778 -0.142357 0)
  (-0.287509 -0.107484 0)
  (-0.272011 -0.0707893 0)
  (-0.26471 -0.0353898 0)
  (-0.258775 0.000898407 0)
  (-0.250382 0.0404117 0)
  (-0.237968 0.0808622 0)
  (-0.220275 0.122892 0)
  (-0.196641 0.166277 0)
  (-0.166857 0.208835 0)
  (-0.13128 0.243958 0)
  (-0.0955715 0.25483 0)
  (-0.0587304 0.220223 0)
  (-0.0335215 0.108493 0)
  (-0.0143169 0.0490552 0)
  (-0.00817467 0.0269923 0)
  (-0.00117734 0.016261 0)
  (0.00623035 0.00884402 0)
  (0.0136025 0.00321743 0)
  (0.0182067 -0.00106917 0)
  (0.0204126 -0.00451298 0)
  (0.0207443 -0.00773611 0)
  (0.0193199 -0.0112739 0)
  (0.0161592 -0.0155121 0)
  (0.0111691 -0.0205653 0)
  (0.00413769 -0.0260141 0)
  (-0.0053449 -0.0301778 0)
  (-0.0167913 -0.0304488 0)
  (-0.0313712 -0.0260786 0)
  (-0.0505763 -0.0187551 0)
  (-0.0741449 -0.010947 0)
  (-0.0958912 -0.00419594 0)
  (-0.112242 -0.00169791 0)
  (-0.123937 -0.0112653 0)
  (-0.148145 -0.0446173 0)
  (-0.25316 -0.107096 0)
  (-1.85473 -0.315874 0)
  (-0.105601 -0.288993 0)
  (-0.328777 -0.182886 0)
  (-0.31289 -0.115961 0)
  (-0.315269 -0.060273 0)
  (-0.316397 -0.0132617 0)
  (-0.313285 0.0246048 0)
  (-0.304126 0.0519097 0)
  (-0.288713 0.079329 0)
  (-0.26477 0.109019 0)
  (-0.231288 0.140847 0)
  (-0.188204 0.173157 0)
  (-0.137258 0.2008 0)
  (-0.0847659 0.211092 0)
  (-0.0349457 0.18456 0)
  (0.010418 0.0829731 0)
  (0.0306214 0.041577 0)
  (0.0384249 0.0261074 0)
  (0.0450434 0.0180018 0)
  (0.051892 0.0102257 0)
  (0.0557721 0.00442134 0)
  (0.0571995 0.000507909 0)
  (0.056992 -0.00258041 0)
  (0.0554852 -0.00558498 0)
  (0.052695 -0.00893283 0)
  (0.0484323 -0.0128667 0)
  (0.0423725 -0.0174086 0)
  (0.0342062 -0.0221665 0)
  (0.0239884 -0.0259407 0)
  (0.0127445 -0.0265078 0)
  (0.00221861 -0.0215172 0)
  (-0.00520865 -0.0112606 0)
  (-0.0085114 0.00107901 0)
  (-0.00827414 0.011573 0)
  (-0.00556159 0.0220393 0)
  (0.00202135 0.0247901 0)
  (0.0454009 -0.0172397 0)
  (-0.0386799 -0.112438 0)
  (-0.263845 0.0192878 0)
  (-0.023108 -0.256875 0)
  (-0.232803 -0.190884 0)
  (-0.289843 -0.166969 0)
  (-0.330577 -0.149955 0)
  (-0.353241 -0.130512 0)
  (-0.359985 -0.103547 0)
  (-0.352421 -0.0651016 0)
  (-0.333595 -0.0272999 0)
  (-0.302662 0.00731061 0)
  (-0.258699 0.0409134 0)
  (-0.201793 0.0739291 0)
  (-0.134428 0.103296 0)
  (-0.0635024 0.11838 0)
  (0.016908 0.0887875 0)
  (0.0757237 -0.00248011 0)
  (0.0997683 -0.0547336 0)
  (0.106807 -0.0847255 0)
  (0.107501 -0.101157 0)
  (0.104839 -0.106003 0)
  (0.1006 -0.103041 0)
  (0.0960566 -0.0978156 0)
  (0.0918405 -0.0929151 0)
  (0.087775 -0.0891924 0)
  (0.0833278 -0.0866834 0)
  (0.0779264 -0.0850974 0)
  (0.0710914 -0.0840471 0)
  (0.0625765 -0.0831797 0)
  (0.0526422 -0.0822572 0)
  (0.0424582 -0.0811817 0)
  (0.0341215 -0.0800439 0)
  (0.0300367 -0.079148 0)
  (0.0317647 -0.0788769 0)
  (0.0378448 -0.0790081 0)
  (0.0480017 -0.0815922 0)
  (0.0611812 -0.0887256 0)
  (0.0857496 -0.0986786 0)
  (-0.00780038 -0.146693 0)
  (0.587992 0.219981 0)
  (0.250421 -0.19068 0)
  (-0.145904 0.325353 0)
  (-0.0314222 0.143796 0)
  (-0.191485 0.192689 0)
  (-0.263655 0.229023 0)
  (-0.314371 0.246565 0)
  (-0.346755 0.252877 0)
  (-0.362853 0.24981 0)
  (-0.362177 0.238375 0)
  (-0.344219 0.230143 0)
  (-0.309172 0.228366 0)
  (-0.256931 0.231886 0)
  (-0.188785 0.240406 0)
  (-0.109735 0.25333 0)
  (-0.0210649 0.267348 0)
  (0.0760045 0.265321 0)
  (0.129924 0.272932 0)
  (0.155733 0.285217 0)
  (0.164356 0.294179 0)
  (0.165108 0.297451 0)
  (0.162382 0.293066 0)
  (0.157966 0.282546 0)
  (0.152652 0.27132 0)
  (0.146534 0.262202 0)
  (0.139675 0.256049 0)
  (0.1322 0.252639 0)
  (0.12423 0.25125 0)
  (0.115837 0.25103 0)
  (0.107028 0.251316 0)
  (0.0978014 0.25195 0)
  (0.0883033 0.253387 0)
  (0.0790093 0.256249 0)
  (0.0706771 0.260605 0)
  (0.0639222 0.266029 0)
  (0.0587696 0.271968 0)
  (0.0541759 0.277645 0)
  (0.0467861 0.278578 0)
  (0.0796771 0.271759 0)
  (-0.203909 0.377729 0)
)
;

boundaryField
{
  floor
  {
    type noSlip;
  }
  ceiling
  {
    type noSlip;
  }
  sWall
  {
    type noSlip;
  }
  nWall
  {
    type noSlip;
  }
  sideWalls
  {
    type empty;
  }
  glass1
  {
    type noSlip;
  }
  glass2
  {
    type noSlip;
  }
  sun
  {
    type noSlip;
  }
  heatsource1
  {
    type noSlip;
  }
  heatsource2
  {
    type noSlip;
  }
  Table_master
  {
    type noSlip;
  }
  Table_slave
  {
    type noSlip;
  }
  inlet
  {
    type fixedValue;
    value uniform (0.1 0 0);
  }
  outlet
  {
    type zeroGradient;
  }
} 	// ************************************************************************* //

