// -*- C++ -*-
// File generated by PyFoam - sorry for the ugliness

FoamFile
{
 version 2.0;
 format ascii;
 class volVectorField;
 location "310";
 object U;
}

dimensions [ 0 1 -1 0 0 0 0 ];

internalField nonuniform List<vector> 459
(
  (0.0139229 0.0696189 0)
  (-0.136747 0.0233299 0)
  (-0.162924 0.0145088 0)
  (-0.18885 0.00777906 0)
  (-0.204816 0.000574594 0)
  (-0.209145 -0.00715722 0)
  (-0.199787 -0.0155411 0)
  (-0.177154 -0.0242428 0)
  (-0.142982 -0.0316318 0)
  (-0.101671 -0.036127 0)
  (-0.0590797 -0.0368009 0)
  (-0.0213884 -0.0330108 0)
  (0.0134383 -0.0170939 0)
  (0.0221132 -0.00145529 0)
  (0.0529584 0.0195676 0)
  (-0.113915 0.00770848 0)
  (0.0347468 -0.0012221 0)
  (0.00818916 -0.00893355 0)
  (0.0236346 -0.0133112 0)
  (0.0397565 -0.0125868 0)
  (0.0535988 -0.00974424 0)
  (0.0629437 -0.00569545 0)
  (0.0678737 -0.00334403 0)
  (0.0697939 -0.00247306 0)
  (0.0704452 -0.00214857 0)
  (0.0706946 -0.00192498 0)
  (0.0706401 -0.0016762 0)
  (0.0701087 -0.00129142 0)
  (0.0687257 -0.000536529 0)
  (0.0656446 0.00112593 0)
  (0.0591598 0.0046067 0)
  (0.0482269 0.00985873 0)
  (0.00191309 0.0201692 0)
  (0.0916534 0.000810655 0)
  (0.141994 0.14246 0)
  (-0.124879 0.0619243 0)
  (-0.132407 0.0463996 0)
  (-0.159088 0.0328785 0)
  (-0.175363 0.0173649 0)
  (-0.180519 -0.000489481 0)
  (-0.172286 -0.0205864 0)
  (-0.151722 -0.040331 0)
  (-0.121148 -0.0557294 0)
  (-0.0852569 -0.063541 0)
  (-0.0493176 -0.0626288 0)
  (-0.0178811 -0.0529706 0)
  (0.00892042 -0.032481 0)
  (0.0253897 -0.0103792 0)
  (0.0427073 0.0141983 0)
  (0.043836 0.0216048 0)
  (0.031048 0.0292136 0)
  (-0.121291 0.00152753 0)
  (0.0290855 -0.0201062 0)
  (0.0285326 -0.0235069 0)
  (0.0403558 -0.0249658 0)
  (0.052589 -0.0220215 0)
  (0.0623998 -0.0164251 0)
  (0.0674377 -0.00697728 0)
  (0.0686183 -0.00127151 0)
  (0.0685416 0.000932837 0)
  (0.0686438 0.00178186 0)
  (0.0689276 0.00230865 0)
  (0.0691378 0.00280681 0)
  (0.0691673 0.00350471 0)
  (0.0689713 0.00490286 0)
  (0.0679612 0.00814926 0)
  (0.0634422 0.016499 0)
  (0.0547999 0.0256547 0)
  (0.0085765 0.037583 0)
  (0.139643 0.0234797 0)
  (0.261199 0.213237 0)
  (-0.132569 0.0967467 0)
  (-0.100979 0.074173 0)
  (-0.12677 0.0511975 0)
  (-0.142155 0.0256945 0)
  (-0.147444 -0.00347666 0)
  (-0.138862 -0.0355787 0)
  (-0.118761 -0.0661711 0)
  (-0.0906575 -0.0883786 0)
  (-0.0596643 -0.0976799 0)
  (-0.0301363 -0.0936116 0)
  (-0.00482745 -0.0773598 0)
  (0.0158217 -0.0514335 0)
  (0.0307202 -0.0239626 0)
  (0.0416712 0.00342965 0)
  (0.0450547 0.0248719 0)
  (0.0390855 0.0563226 0)
  (-0.0627176 -0.0178465 0)
  (0.0396491 -0.0362682 0)
  (0.0518278 -0.0396706 0)
  (0.0580349 -0.0367068 0)
  (0.0644359 -0.0312907 0)
  (0.0701312 -0.0261441 0)
  (0.0719746 -0.0194868 0)
  (0.0662531 -0.0126339 0)
  (0.0616853 -0.0090385 0)
  (0.0599971 -0.00708073 0)
  (0.0596556 -0.00583192 0)
  (0.0597417 -0.00490534 0)
  (0.0603139 -0.00396638 0)
  (0.0620963 -0.00250051 0)
  (0.0668237 0.00193753 0)
  (0.0674199 0.0217248 0)
  (0.0616245 0.0371995 0)
  (0.0135336 0.0541851 0)
  (0.167347 0.0536522 0)
  (0.372115 0.270355 0)
  (-0.154435 0.126412 0)
  (-0.0673017 0.0984003 0)
  (-0.0912725 0.0680391 0)
  (-0.103685 0.0348745 0)
  (-0.106963 -0.0049008 0)
  (-0.0953287 -0.0496859 0)
  (-0.0747481 -0.0905803 0)
  (-0.049906 -0.117873 0)
  (-0.0253183 -0.127038 0)
  (-0.00336063 -0.119246 0)
  (0.0148898 -0.0976186 0)
  (0.0295628 -0.068535 0)
  (0.0419994 -0.0371392 0)
  (0.0534761 -0.00651099 0)
  (0.0653569 0.0212733 0)
  (0.0808905 0.0490829 0)
  (0.108297 -0.00828574 0)
  (0.102868 -0.0214914 0)
  (0.0930148 -0.0345693 0)
  (0.0819848 -0.039064 0)
  (0.0744508 -0.0367313 0)
  (0.0699631 -0.0314598 0)
  (0.0662456 -0.02442 0)
  (0.0667725 -0.0146254 0)
  (0.0740207 -0.00986962 0)
  (0.0797841 -0.00732619 0)
  (0.0830846 -0.00583454 0)
  (0.0851298 -0.0046911 0)
  (0.0862975 -0.00347378 0)
  (0.085663 -0.00175261 0)
  (0.0817578 0.000996759 0)
  (0.0721063 0.00541394 0)
  (0.0635575 0.0267261 0)
  (0.0644204 0.0453515 0)
  (0.0237436 0.0663794 0)
  (0.183969 0.0982711 0)
  (0.47238 0.314143 0)
  (-0.185083 0.14903 0)
  (-0.0327956 0.113104 0)
  (-0.0528372 0.0785531 0)
  (-0.0600092 0.041004 0)
  (-0.0565165 -0.00747818 0)
  (-0.038476 -0.064932 0)
  (-0.0184685 -0.112726 0)
  (0.0005089 -0.141106 0)
  (0.0161141 -0.147147 0)
  (0.0279901 -0.135369 0)
  (0.0372237 -0.111163 0)
  (0.0447985 -0.0800555 0)
  (0.0517419 -0.0474296 0)
  (0.0595451 -0.0171451 0)
  (0.0700151 0.00773398 0)
  (0.0846824 0.0208933 0)
  (0.0967609 0.00176217 0)
  (0.0954142 -0.0132981 0)
  (0.0860246 -0.0240639 0)
  (0.0758234 -0.0287536 0)
  (0.0669969 -0.02851 0)
  (0.0599632 -0.0251704 0)
  (0.054745 -0.0193084 0)
  (0.0530666 -0.010447 0)
  (0.054828 -0.00549254 0)
  (0.056976 -0.00353998 0)
  (0.0587937 -0.00269611 0)
  (0.0606195 -0.00181992 0)
  (0.0624575 -0.000125726 0)
  (0.0640478 0.00304369 0)
  (0.0644315 0.0082238 0)
  (0.0631795 0.0161625 0)
  (0.0623256 0.0303464 0)
  (0.0699112 0.0457404 0)
  (0.0569928 0.0607656 0)
  (0.133393 0.0956974 0)
  (0.124607 0.0767141 0)
  (0.109174 0.0561713 0)
  (-0.13181 0.0580734 0)
  (0.550365 0.349696 0)
  (-0.218663 0.16252 0)
  (-0.00438247 0.111735 0)
  (-0.0127302 0.0811694 0)
  (-0.0125942 0.0438125 0)
  (0.0081062 -0.0191199 0)
  (0.0310496 -0.0843501 0)
  (0.0467759 -0.13035 0)
  (0.0563017 -0.153811 0)
  (0.0605231 -0.156065 0)
  (0.0609786 -0.141299 0)
  (0.0592315 -0.11503 0)
  (0.0568519 -0.0831914 0)
  (0.0552663 -0.0510618 0)
  (0.0558702 -0.0229118 0)
  (0.0600639 -0.00208421 0)
  (0.0677497 0.00762642 0)
  (0.0723647 0.000927031 0)
  (0.0700916 -0.00923262 0)
  (0.0629495 -0.0166278 0)
  (0.0544425 -0.0203078 0)
  (0.0462089 -0.0207327 0)
  (0.0390401 -0.0187287 0)
  (0.0335712 -0.0148164 0)
  (0.0307426 -0.0097316 0)
  (0.0305527 -0.00675063 0)
  (0.0316577 -0.00572868 0)
  (0.0334091 -0.00544445 0)
  (0.0357227 -0.00496639 0)
  (0.0385689 -0.00351137 0)
  (0.0420398 -0.000151086 0)
  (0.0459989 0.0058303 0)
  (0.0496801 0.0144986 0)
  (0.0540691 0.025981 0)
  (0.0630424 0.0376269 0)
  (0.0634219 0.0434185 0)
  (0.0892868 0.0599946 0)
  (0.0876452 0.0490089 0)
  (0.103657 0.0485246 0)
  (-0.136745 0.0857851 0)
  (0.600878 0.380786 0)
  (-0.23868 0.148815 0)
  (0.0207873 0.0733801 0)
  (0.0368199 0.0617169 0)
  (0.0502841 0.026028 0)
  (0.0862846 -0.0438582 0)
  (0.108239 -0.10293 0)
  (0.11661 -0.140438 0)
  (0.114381 -0.156112 0)
  (0.10462 -0.152605 0)
  (0.0905322 -0.134333 0)
  (0.0749704 -0.106721 0)
  (0.0603685 -0.0755079 0)
  (0.048567 -0.0454408 0)
  (0.0408955 -0.0206255 0)
  (0.0379976 -0.00354804 0)
  (0.0392229 0.00418277 0)
  (0.0399021 0.0016757 0)
  (0.0375803 -0.00455874 0)
  (0.0322002 -0.00980035 0)
  (0.0253334 -0.0127841 0)
  (0.0182067 -0.0135785 0)
  (0.0117222 -0.0126859 0)
  (0.00668783 -0.0106702 0)
  (0.00388205 -0.0083418 0)
  (0.00331598 -0.00722773 0)
  (0.00415545 -0.0072963 0)
  (0.00581386 -0.00778723 0)
  (0.00810823 -0.00802194 0)
  (0.0110957 -0.00738025 0)
  (0.0150517 -0.00503866 0)
  (0.0209883 0.000125691 0)
  (0.028496 0.0083432 0)
  (0.036557 0.0181208 0)
  (0.0464549 0.0275607 0)
  (0.0522529 0.033073 0)
  (0.0649718 0.0451218 0)
  (0.0701305 0.0518528 0)
  (0.114048 0.0699702 0)
  (-0.110389 0.138274 0)
  (0.692581 0.380671 0)
  (-0.0592937 0.12119 0)
  (0.086147 0.000159377 0)
  (0.136578 -0.0293944 0)
  (0.16709 -0.059461 0)
  (0.192507 -0.0927028 0)
  (0.19977 -0.121437 0)
  (0.190183 -0.138731 0)
  (0.168021 -0.141881 0)
  (0.138442 -0.131634 0)
  (0.106294 -0.110909 0)
  (0.0752638 -0.0839054 0)
  (0.0482463 -0.0556911 0)
  (0.0271967 -0.0301312 0)
  (0.0134156 -0.0109403 0)
  (0.0062103 0.000782659 0)
  (0.00478978 0.00512911 0)
  (0.00420009 0.00332747 0)
  (0.00212751 -0.000744568 0)
  (-0.00198696 -0.00432623 0)
  (-0.00750744 -0.00646436 0)
  (-0.0133551 -0.00734329 0)
  (-0.018674 -0.00741139 0)
  (-0.022748 -0.00717293 0)
  (-0.025098 -0.00713621 0)
  (-0.0258534 -0.00775756 0)
  (-0.0256004 -0.00889281 0)
  (-0.0248094 -0.010133 0)
  (-0.0237102 -0.0111109 0)
  (-0.0223128 -0.0115307 0)
  (-0.0203303 -0.011078 0)
  (-0.0169531 -0.0092293 0)
  (-0.0100921 -0.00502676 0)
  (0.00145043 0.0016307 0)
  (0.0119211 0.00798841 0)
  (0.0190912 0.0112302 0)
  (0.0286806 0.0173088 0)
  (0.0365808 0.0219061 0)
  (0.112718 0.0752351 0)
  (-0.35917 0.204131 0)
  (0.816741 0.369311 0)
  (0.392007 0.256801 0)
  (0.400635 0.183285 0)
  (0.411267 0.108791 0)
  (0.392087 0.0464942 0)
  (0.349837 -0.0130531 0)
  (0.301194 -0.0594831 0)
  (0.248715 -0.0862167 0)
  (0.193466 -0.0936963 0)
  (0.139182 -0.0863016 0)
  (0.0894915 -0.0691153 0)
  (0.0466325 -0.046974 0)
  (0.0126994 -0.0254008 0)
  (-0.0115447 -0.00734096 0)
  (-0.024137 0.00250294 0)
  (-0.0296053 0.00688659 0)
  (-0.0309538 0.00772525 0)
  (-0.0318258 0.00618402 0)
  (-0.0337681 0.00378021 0)
  (-0.0368034 0.00163106 0)
  (-0.0406869 9.77245e-05 0)
  (-0.0448969 -0.000948853 0)
  (-0.0488016 -0.00181324 0)
  (-0.0519613 -0.00275071 0)
  (-0.0542029 -0.00391922 0)
  (-0.0557065 -0.00536918 0)
  (-0.0568748 -0.00696993 0)
  (-0.0580786 -0.00850708 0)
  (-0.0596801 -0.009767 0)
  (-0.0621427 -0.0104895 0)
  (-0.0660779 -0.0101828 0)
  (-0.0721096 -0.00782989 0)
  (-0.0808604 -0.00162145 0)
  (-0.0915114 0.00894847 0)
  (-0.105185 0.0238839 0)
  (-0.127886 0.0444586 0)
  (-0.158869 0.0720305 0)
  (-0.198412 0.103508 0)
  (-0.262412 0.131913 0)
  (-0.515126 0.146095 0)
  (0.132181 0.0174992 0)
  (0.203376 0.0198614 0)
  (0.218646 -0.0174881 0)
  (0.200307 -0.0433792 0)
  (0.172295 -0.0546168 0)
  (0.136244 -0.0559019 0)
  (0.0937813 -0.0499763 0)
  (0.0503629 -0.0386426 0)
  (0.00974514 -0.0229763 0)
  (-0.0241991 -0.00576286 0)
  (-0.0454073 0.00479711 0)
  (-0.0573221 0.0108063 0)
  (-0.0620653 0.0132781 0)
  (-0.0636374 0.0141625 0)
  (-0.0638814 0.0140899 0)
  (-0.0641977 0.013376 0)
  (-0.0652302 0.012437 0)
  (-0.0669613 0.0116592 0)
  (-0.0691054 0.0111636 0)
  (-0.0713278 0.0108061 0)
  (-0.07354 0.0104267 0)
  (-0.0758182 0.00985327 0)
  (-0.078301 0.00914891 0)
  (-0.0811293 0.00877506 0)
  (-0.0844243 0.00907176 0)
  (-0.0882061 0.0104059 0)
  (-0.0924052 0.0130862 0)
  (-0.0969534 0.0171661 0)
  (-0.101959 0.0220957 0)
  (-0.107622 0.0261355 0)
  (-0.113047 0.0306436 0)
  (-0.117913 0.0372626 0)
  (-0.121991 0.0479952 0)
  (-0.124868 0.0642976 0)
  (-0.124057 0.0850995 0)
  (-0.115804 0.0976611 0)
  (-0.103145 0.061957 0)
  (-0.161139 -0.165564 0)
  (0.0235547 0.125851 0)
  (0.0503401 0.048917 0)
  (0.0410642 -0.0170357 0)
  (0.0363645 -0.0490392 0)
  (0.0220383 -0.055374 0)
  (-0.00220668 -0.0556447 0)
  (-0.0282893 -0.0552648 0)
  (-0.0523392 -0.0537975 0)
  (-0.0709683 -0.0532305 0)
  (-0.0821562 -0.0545966 0)
  (-0.0870192 -0.0569148 0)
  (-0.088939 -0.0594498 0)
  (-0.0888658 -0.0620276 0)
  (-0.0878516 -0.0641943 0)
  (-0.0864782 -0.0662859 0)
  (-0.08523 -0.0686861 0)
  (-0.0843913 -0.0714394 0)
  (-0.0840132 -0.0743486 0)
  (-0.0840187 -0.0772531 0)
  (-0.0843328 -0.0801331 0)
  (-0.084956 -0.0830168 0)
  (-0.0859955 -0.0858967 0)
  (-0.0876844 -0.0889083 0)
  (-0.0902304 -0.0923807 0)
  (-0.0937055 -0.0963598 0)
  (-0.0980587 -0.100671 0)
  (-0.103019 -0.104796 0)
  (-0.108023 -0.107705 0)
  (-0.112316 -0.107695 0)
  (-0.115313 -0.102117 0)
  (-0.116295 -0.0907424 0)
  (-0.113553 -0.0730044 0)
  (-0.10471 -0.0493217 0)
  (-0.0872187 -0.0214744 0)
  (-0.0602102 0.0054752 0)
  (-0.0261674 0.0161794 0)
  (0.080996 -0.0824138 0)
  (-0.116129 -0.14047 0)
  (-0.0304419 -0.246996 0)
  (-0.299777 -0.0468304 0)
  (-0.218357 0.175029 0)
  (-0.170644 0.165909 0)
  (-0.135527 0.175761 0)
  (-0.125168 0.189509 0)
  (-0.125905 0.189946 0)
  (-0.131635 0.191918 0)
  (-0.136113 0.197251 0)
  (-0.136814 0.203985 0)
  (-0.134348 0.213157 0)
  (-0.12972 0.223414 0)
  (-0.124086 0.231992 0)
  (-0.118537 0.238757 0)
  (-0.113528 0.243912 0)
  (-0.109192 0.247829 0)
  (-0.105464 0.251185 0)
  (-0.102364 0.254451 0)
  (-0.0999523 0.257719 0)
  (-0.0982547 0.260872 0)
  (-0.0972541 0.263818 0)
  (-0.0969273 0.266582 0)
  (-0.097253 0.269255 0)
  (-0.0981666 0.271962 0)
  (-0.0995476 0.275023 0)
  (-0.101263 0.278977 0)
  (-0.103143 0.28408 0)
  (-0.104956 0.290338 0)
  (-0.106426 0.297349 0)
  (-0.107237 0.304146 0)
  (-0.106957 0.309161 0)
  (-0.10474 0.310291 0)
  (-0.0993027 0.307861 0)
  (-0.0889446 0.302249 0)
  (-0.0720578 0.295213 0)
  (-0.0488405 0.290014 0)
  (-0.0216071 0.291167 0)
  (0.0170196 0.299674 0)
  (0.120331 0.359862 0)
  (-0.272833 0.366682 0)
)
;

boundaryField
{
  floor
  {
    type noSlip;
  }
  ceiling
  {
    type noSlip;
  }
  sWall
  {
    type noSlip;
  }
  nWall
  {
    type noSlip;
  }
  sideWalls
  {
    type empty;
  }
  glass1
  {
    type noSlip;
  }
  glass2
  {
    type noSlip;
  }
  sun
  {
    type noSlip;
  }
  heatsource1
  {
    type noSlip;
  }
  heatsource2
  {
    type noSlip;
  }
  Table_master
  {
    type noSlip;
  }
  Table_slave
  {
    type noSlip;
  }
  inlet
  {
    type fixedValue;
    value uniform (0.277164 -0.114805 0);
  }
  outlet
  {
    type zeroGradient;
  }
} 	// ************************************************************************* //

