/*--------------------------------*- C++ -*----------------------------------*\
  =========                 |
  \\      /  F ield         | OpenFOAM: The Open Source CFD Toolbox
   \\    /   O peration     | Website:  https://openfoam.org
    \\  /    A nd           | Version:  6
     \\/     M anipulation  |
\*---------------------------------------------------------------------------*/
FoamFile
{
    version     2.0;
    format      ascii;
    class       surfaceScalarField;
    location    "300";
    object      phi;
}
// * * * * * * * * * * * * * * * * * * * * * * * * * * * * * * * * * * * * * //

dimensions      [1 0 -1 0 0 0 0];

internalField   nonuniform List<scalar> 
852
(
-0.00290973
0.00296632
-0.00390421
0.000994484
-0.00467902
0.000774817
-0.00530313
0.000624112
-0.0057489
0.000445777
-0.00599625
0.000247359
-0.00602321
2.69558e-05
-0.00580666
-0.000216545
-0.00534093
-0.000465728
-0.00465636
-0.000684566
-0.00381631
-0.000840048
-0.00290121
-0.000915091
-0.00197968
-0.000921529
-0.00105668
-0.000923
-0.00105526
-0.000613677
0.000616436
-0.000226875
-0.000386797
0.00038345
-0.000610319
0.00082448
-0.000441024
0.00110109
-0.000276601
0.00126319
-0.000162101
0.00134714
-8.39375e-05
0.00138862
-4.14709e-05
0.0014113
-2.26736e-05
0.00142391
-1.26089e-05
0.00142949
-5.56508e-06
0.00142885
6.4768e-07
0.00141987
8.9874e-06
0.00139405
2.58231e-05
0.00132922
6.48377e-05
0.00118855
0.000140678
0.000959659
0.000228902
0.000686857
0.00027281
0.000690605
-0.00207351
0.00519206
-0.00304964
0.00197061
-0.00384575
0.00157093
-0.00445571
0.00123407
-0.00488878
0.000878858
-0.00513608
0.000494655
-0.00517409
6.49745e-05
-0.00497869
-0.000411941
-0.0045517
-0.000892716
-0.00393523
-0.00130103
-0.00319959
-0.00157568
-0.0024252
-0.00168949
-0.00168882
-0.00165791
-0.00109673
-0.00151508
-0.000911362
-0.00124062
-0.000235245
-0.000676165
-0.000235291
0.000499929
0.00012423
0.000902181
-0.000789044
0.00111835
-0.000826484
0.00130516
-0.000627824
0.0014375
-0.00040894
0.00150658
-0.000231177
0.00151391
-9.12566e-05
0.00151623
-4.37817e-05
0.0015192
-2.5644e-05
0.00152171
-1.51131e-05
0.00152339
-7.22914e-06
0.00152399
4.82235e-08
0.00152256
1.04229e-05
0.00151552
3.2878e-05
0.00147412
0.000106249
0.00129942
0.000315382
0.000997858
0.000530472
0.000619946
0.000650731
0.00132008
-0.00145331
0.00687788
-0.00230009
0.00281739
-0.0030014
0.00227225
-0.00351665
0.00174932
-0.00388971
0.00125192
-0.00411036
0.000715314
-0.00414114
9.57512e-05
-0.00394131
-0.000611767
-0.0035231
-0.00131092
-0.00294775
-0.00187637
-0.00229114
-0.0022323
-0.00162733
-0.00235329
-0.00101758
-0.00226765
-0.000528028
-0.00200463
-0.000193231
-0.00157542
9.81425e-05
-0.000967534
-0.000137145
0.00143954
-0.00130737
0.00165144
-0.00100094
0.00163748
-0.000812526
0.00164292
-0.000633252
0.00166327
-0.00042929
0.00165241
-0.000220309
0.00156131
0.00151769
0.0014922
0.00147725
0.00147018
0.00147039
0.00148097
0.00151401
0.00162042
0.00133957
0.000596244
0.000995547
0.000874503
0.00055384
0.00109245
0.00188838
-0.00101979
0.00819828
-0.00169907
0.00349667
-0.00215614
0.00272932
-0.00248861
0.0020818
-0.00273696
0.00150027
-0.00288294
0.000861294
-0.00286127
7.40857e-05
-0.00261549
-0.000857538
-0.00219185
-0.00173456
-0.00167405
-0.00239417
-0.00113276
-0.00277359
-0.000622703
-0.00286335
-0.000172308
-0.00271805
0.000205632
-0.00238257
0.000535853
-0.00190563
0.000915333
-0.00134701
0.00160319
-0.000824995
0.00227974
-0.00066916
0.00184958
-0.000877208
0.00174827
-0.000899616
0.00167274
-0.000736994
0.00161159
-0.0005721
0.00159238
-0.000410072
0.00161866
-0.000246584
0.00172761
-0.000109099
0.00180868
-8.12138e-05
0.00187946
-7.09221e-05
0.00193702
-5.77034e-05
0.00196603
-2.91648e-05
0.00194405
2.18359e-05
0.00184598
9.79278e-05
0.00164002
0.000205818
0.0012732
0.000366671
0.00114092
0.000728536
0.000847599
0.00116783
0.000392652
0.0015474
0.00229996
-0.000719341
0.00927583
-0.00124438
0.00402172
-0.00133292
0.00281786
-0.00139635
0.00214524
-0.00144846
0.00155238
-0.00145061
0.000863449
-0.00129444
-8.20776e-05
-0.000959832
-0.00119214
-0.000548492
-0.0021459
-0.000139921
-0.00280274
0.000218293
-0.00313181
0.00050749
-0.00315254
0.000728506
-0.00293906
0.000902379
-0.00255644
0.00106548
-0.00206873
0.00126552
-0.00154705
0.00153282
-0.00109228
0.00170617
-0.000842512
0.00161927
-0.000790304
0.00146224
-0.000742579
0.00134269
-0.000617434
0.00125406
-0.000483467
0.00120564
-0.000361644
0.00120919
-0.000250127
0.00127222
-0.000172128
0.00133781
-0.00014679
0.00140737
-0.00014048
0.00147594
-0.000126262
0.00153186
-8.50812e-05
0.0015545
-8.00498e-07
0.00152286
0.000129578
0.00142641
0.000302278
0.0012668
0.000526289
0.00112591
0.000869432
0.000972674
0.00132108
0.000636016
0.00188407
0.000531013
0.00240498
-0.000993364
0.00152418
-0.00145403
0.000460472
-0.00140654
-0.000632308
0.0103148
-0.00100413
0.00439355
-0.000590626
0.00240436
-0.000259272
0.00181389
-2.08946e-05
0.00131401
0.000232873
0.000609687
0.000610331
-0.00045953
0.00101302
-0.00159483
0.00133957
-0.00247245
0.00155084
-0.00301402
0.00164707
-0.00322804
0.00165536
-0.00316083
0.00160064
-0.00288433
0.00151344
-0.00246925
0.00142865
-0.00198393
0.00137535
-0.00149375
0.00135401
-0.00107094
0.0013009
-0.000789405
0.00116179
-0.000651191
0.000981037
-0.000561817
0.000831663
-0.000468055
0.000728875
-0.000380673
0.000675954
-0.000308716
0.000676974
-0.000251141
0.000722611
-0.000217758
0.000788653
-0.000212824
0.000866233
-0.000218052
0.000951093
-0.000211114
0.00103718
-0.000171159
0.00111298
-7.65879e-05
0.00116011
8.24515e-05
0.00117426
0.000288136
0.00116516
0.000535396
0.00118207
0.000852535
0.00127297
0.00123019
0.00145023
0.00170681
0.00188236
0.00197285
0.00213466
0.00127189
0.00174364
0.000851504
0.000394294
-0.00070973
0.0114749
-0.000614955
0.00429878
0.000475961
0.00131345
0.00117727
0.00111258
0.00168106
0.000810227
0.00224437
4.63882e-05
0.00282248
-0.00103764
0.00319468
-0.00196702
0.00333198
-0.00260975
0.00326212
-0.00294416
0.00303095
-0.00299688
0.00269453
-0.00282441
0.00230557
-0.00249538
0.00190917
-0.00207284
0.00154333
-0.00161809
0.00123154
-0.00118195
0.00097728
-0.000816674
0.000758116
-0.000570237
0.000544792
-0.000437862
0.000351249
-0.000368268
0.000203703
-0.000320502
0.000109234
-0.000286198
6.44929e-05
-0.000263967
6.5387e-05
-0.000252028
0.000100911
-0.000253273
0.000155812
-0.000267718
0.000222353
-0.000284584
0.000300815
-0.000289568
0.000395987
-0.000266322
0.00051274
-0.000193332
0.00063799
-4.27898e-05
0.000760621
0.000165513
0.000891813
0.000404214
0.00107234
0.000672016
0.00135113
0.000951408
0.00179021
0.00126775
0.00245216
0.00131091
0.00298758
0.000736485
0.00301508
0.000824012
0.00347172
0.00254062
0.00943778
0.00320797
0.00363143
0.00352349
0.000997933
0.00399833
0.000637757
0.00460184
0.000206718
0.00525759
-0.000609352
0.00561958
-0.00139963
0.00562799
-0.00197544
0.00532305
-0.00230481
0.00478135
-0.00240247
0.00408973
-0.00230525
0.00333192
-0.00206661
0.00257669
-0.00174015
0.00187044
-0.00136659
0.00125122
-0.000998866
0.000736611
-0.000667341
0.000333343
-0.000413401
3.1408e-05
-0.000268297
-0.000195163
-0.000211284
-0.00036171
-0.000201714
-0.000477773
-0.000204432
-0.00055215
-0.000211814
-0.000593284
-0.000222825
-0.000607768
-0.000237536
-0.000603971
-0.000257062
-0.000591255
-0.000280426
-0.000573987
-0.000301843
-0.000550211
-0.000313334
-0.000510954
-0.00030557
-0.000436756
-0.000267521
-0.000296397
-0.000183139
-0.00010968
-2.11949e-05
0.000105862
0.000188681
0.000376406
0.000401481
0.000715942
0.000611881
0.00116693
0.000816765
0.00166375
0.000814102
0.00187566
0.000524585
0.0011182
0.00158148
0.00484212
0.00998963
0.0136128
0.0123754
0.00223537
0.0115361
0.00147709
0.0108828
0.000859992
0.0101395
0.000133961
0.00914429
-0.000404448
0.00796685
-0.000798015
0.00669844
-0.00103641
0.00540918
-0.00111323
0.00416042
-0.00105649
0.00300505
-0.000911241
0.00197966
-0.000714746
0.00109041
-0.000477346
0.000358785
-0.000267235
-0.000196375
-0.000112174
-0.0005692
-4.05696e-05
-0.000802743
-3.4748e-05
-0.000959451
-5.45694e-05
-0.00107693
-8.42293e-05
-0.00116752
-0.000113834
-0.0012391
-0.000140228
-0.00129825
-0.000163659
-0.00135014
-0.000185643
-0.00140114
-0.000206046
-0.00145877
-0.000222789
-0.0015298
-0.000230803
-0.00162091
-0.00022222
-0.00174039
-0.000186077
-0.00189899
-0.000108917
-0.00210327
2.11586e-05
-0.00233786
0.000213404
-0.00262962
0.000480444
-0.00306672
0.000838589
-0.00374152
0.00128669
-0.00472078
0.00179603
-0.0061206
0.00221393
-0.00781976
0.00222376
-0.00734787
0.0011096
-0.00222651
0.00473162
0.00364296
0.00406907
0.00213958
0.00467567
0.000253313
0.00478013
2.94183e-05
0.00442854
-5.29035e-05
0.0038381
-0.000207594
0.00310581
-0.000304135
0.00229782
-0.000305232
0.00147252
-0.000231187
0.000670612
-0.000109326
-7.61698e-05
3.20454e-05
-0.000689488
0.00013598
-0.00111092
0.000154201
-0.0013673
0.000144219
-0.00151704
0.000109171
-0.00161512
6.3345e-05
-0.00169182
2.21408e-05
-0.00176397
-1.20754e-05
-0.00183665
-4.11432e-05
-0.00191156
-6.53094e-05
-0.00199142
-8.37878e-05
-0.00207731
-9.97458e-05
-0.00217126
-0.000112088
-0.00227534
-0.000118705
-0.00239039
-0.000115745
-0.00251513
-9.74686e-05
-0.00264508
-5.61184e-05
-0.00277221
1.82195e-05
-0.00288432
0.00013328
-0.00297745
0.000306545
-0.00306104
0.000564046
-0.00314213
0.000919679
-0.00321806
0.00136264
-0.00324484
0.00182281
-0.00317075
0.00213986
-0.00282227
0.00187529
-0.00155542
-0.000157246
-0.00370871
-0.000575752
0.00427979
0.000387058
0.00117673
0.000225968
0.000414385
5.81444e-05
0.000197242
-0.00010138
0.000106635
-0.000367929
5.89643e-05
-0.000732263
6.0209e-05
-0.00113097
9.34838e-05
-0.00150002
0.000137878
-0.00178874
0.000179396
-0.00196574
0.000209053
-0.0020483
0.000218544
-0.00209119
0.000197102
-0.00210986
0.000162894
-0.00212537
0.000124689
-0.00215041
8.83934e-05
-0.00218606
5.78027e-05
-0.00223187
3.3744e-05
-0.0022884
1.53986e-05
-0.00235357
-1.37484e-07
-0.00242502
-1.23307e-05
-0.00250225
-2.24981e-05
-0.00258367
-3.06646e-05
-0.00266646
-3.59077e-05
-0.00274589
-3.63009e-05
-0.00281458
-2.87701e-05
-0.00286139
-9.30166e-06
-0.00287353
3.03637e-05
-0.00284158
0.00010134
-0.00274429
0.000209266
-0.00254976
0.000369521
-0.00223118
0.000601116
-0.00177077
0.000902238
-0.00114301
0.00119506
-0.000174768
0.00117162
0.00114167
0.00055886
0.00158664
-0.000602212
-0.00204181
-0.00728589
-0.0101472
-0.00582457
-0.00462667
-0.00419943
-0.00399363
-0.00388136
-0.00381897
-0.00375705
-0.00366326
-0.00352631
-0.00334897
-0.00314303
-0.00292861
-0.00273656
-0.00257946
-0.00246113
-0.0023795
-0.00232874
-0.00230223
-0.00229419
-0.00230176
-0.00232155
-0.0023515
-0.00238956
-0.0024328
-0.00247632
-0.00251217
-0.00252839
-0.00250475
-0.00240992
-0.00220694
-0.00184348
-0.00124821
-0.000351629
0.000837919
0.00200399
0.00255709
0.00194879
)
;

boundaryField
{
    floor
    {
        type            calculated;
        value           nonuniform List<scalar> 
29
(
0
0
0
0
0
0
0
0
0
0
0
0
0
0
0
0
0
0
0
0
-3.73903e-06
-9.51523e-06
-1.44506e-05
-1.89272e-05
-1.41476e-06
-2.7527e-06
-7.71573e-06
-7.93982e-06
-7.38784e-06
)
;
    }
    ceiling
    {
        type            calculated;
        value           nonuniform List<scalar> 
43
(
-4.54751e-05
-4.4153e-05
-4.28349e-05
-2.1167e-05
-1.28371e-05
-8.54486e-06
-5.6172e-06
-3.42123e-06
-1.70752e-06
-2.93775e-07
9.35887e-07
2.05791e-06
3.12102e-06
4.13663e-06
5.05662e-06
5.80686e-06
6.36818e-06
6.76884e-06
7.04908e-06
7.2418e-06
7.36933e-06
7.4436e-06
7.46743e-06
7.45637e-06
7.41203e-06
7.33562e-06
7.22847e-06
7.09185e-06
6.92639e-06
6.73061e-06
6.51557e-06
6.29371e-06
6.07123e-06
5.85666e-06
5.66607e-06
5.51684e-06
5.56247e-06
5.76664e-06
6.09848e-06
7.25007e-06
1.13457e-05
8.22976e-06
-6.11008e-05
)
;
    }
    sWall
    {
        type            calculated;
        value           uniform -0.000274281;
    }
    nWall
    {
        type            calculated;
        value           nonuniform List<scalar> 6(-4.76837e-05 -5.71905e-05 -6.23357e-05 -7.32086e-05 -8.0251e-05 -0.000100261);
    }
    sideWalls
    {
        type            empty;
        value           nonuniform 0();
    }
    glass1
    {
        type            calculated;
        value           nonuniform List<scalar> 9(-5.65879e-05 -0.000152223 -0.000232513 -0.000300597 -0.000358204 -0.000406684 -0.000450325 -0.000503524 -0.000563188);
    }
    glass2
    {
        type            calculated;
        value           nonuniform List<scalar> 2(-0.000252191 -0.000279242);
    }
    sun
    {
        type            calculated;
        value           uniform 0;
    }
    heatsource1
    {
        type            calculated;
        value           nonuniform List<scalar> 3(2.04008e-07 2.03962e-07 2.03977e-07);
    }
    heatsource2
    {
        type            calculated;
        value           nonuniform List<scalar> 4(5.10561e-08 5.11938e-08 0 0);
    }
    Table_master
    {
        type            calculated;
        value           nonuniform List<scalar> 9(-1.53003e-07 -1.5307e-07 -1.53095e-07 -1.53112e-07 -1.53125e-07 -1.53133e-07 -1.53136e-07 -1.5313e-07 -1.53098e-07);
    }
    Table_slave
    {
        type            calculated;
        value           nonuniform List<scalar> 9(1.52887e-07 1.52905e-07 1.52885e-07 1.52868e-07 1.52862e-07 1.52866e-07 1.52881e-07 1.52923e-07 1.53003e-07);
    }
    inlet
    {
        type            calculated;
        value           uniform -0.00613925;
    }
    outlet
    {
        type            calculated;
        value           nonuniform List<scalar> 2(0.00760565 0.00290546);
    }
}


// ************************************************************************* //
