// -*- C++ -*-
// File generated by PyFoam - sorry for the ugliness

FoamFile
{
 version 2.0;
 format ascii;
 class volScalarField;
 location "400";
 object T;
}

dimensions [ 0 0 0 1 0 0 0 ];

internalField nonuniform List<scalar> 459
(
  303.445
  303.179
  303.168
  303.165
  303.163
  303.16
  303.156
  303.153
  303.146
  303.137
  303.126
  303.113
  303.101
  303.092
  303.087
  303.122
  303.105
  303.1
  303.1
  303.1
  303.1
  303.1
  303.1
  303.1
  303.1
  303.1
  303.1
  303.1
  303.1
  303.099
  303.098
  303.097
  303.096
  303.108
  303.629
  303.222
  303.2
  303.205
  303.211
  303.214
  303.215
  303.212
  303.204
  303.187
  303.164
  303.137
  303.112
  303.092
  303.077
  303.066
  303.054
  303.12
  303.1
  303.095
  303.093
  303.093
  303.091
  303.089
  303.086
  303.083
  303.081
  303.078
  303.075
  303.072
  303.069
  303.067
  303.067
  303.067
  303.068
  303.092
  303.819
  303.273
  303.235
  303.247
  303.264
  303.277
  303.287
  303.29
  303.28
  303.254
  303.214
  303.169
  303.129
  303.1
  303.081
  303.072
  303.066
  303.091
  303.091
  303.093
  303.097
  303.099
  303.1
  303.096
  303.092
  303.088
  303.083
  303.079
  303.075
  303.071
  303.067
  303.064
  303.062
  303.06
  303.06
  303.084
  304.009
  303.334
  303.268
  303.285
  303.314
  303.342
  303.366
  303.379
  303.37
  303.33
  303.269
  303.201
  303.143
  303.104
  303.081
  303.074
  303.073
  303.079
  303.084
  303.093
  303.101
  303.109
  303.114
  303.118
  303.121
  303.124
  303.127
  303.129
  303.131
  303.131
  303.131
  303.13
  303.128
  303.104
  303.082
  303.067
  303.083
  304.191
  303.412
  303.305
  303.315
  303.351
  303.393
  303.436
  303.465
  303.454
  303.397
  303.312
  303.22
  303.148
  303.102
  303.078
  303.072
  303.075
  303.083
  303.094
  303.107
  303.119
  303.129
  303.137
  303.143
  303.149
  303.154
  303.157
  303.16
  303.161
  303.16
  303.157
  303.152
  303.144
  303.127
  303.102
  303.078
  303.08
  303.141
  303.179
  303.188
  304.354
  303.513
  303.371
  303.354
  303.383
  303.428
  303.486
  303.532
  303.509
  303.431
  303.326
  303.222
  303.14
  303.09
  303.069
  303.068
  303.078
  303.093
  303.111
  303.128
  303.143
  303.155
  303.164
  303.171
  303.177
  303.181
  303.185
  303.186
  303.186
  303.184
  303.178
  303.169
  303.159
  303.142
  303.119
  303.093
  303.083
  303.106
  303.119
  303.152
  304.498
  303.675
  303.529
  303.48
  303.48
  303.508
  303.563
  303.582
  303.531
  303.425
  303.298
  303.185
  303.104
  303.062
  303.052
  303.063
  303.086
  303.112
  303.136
  303.157
  303.173
  303.184
  303.193
  303.199
  303.203
  303.207
  303.209
  303.209
  303.208
  303.203
  303.195
  303.184
  303.171
  303.155
  303.135
  303.111
  303.097
  303.101
  303.109
  303.136
  304.714
  304.098
  303.935
  303.821
  303.75
  303.723
  303.708
  303.635
  303.503
  303.344
  303.197
  303.09
  303.032
  303.018
  303.034
  303.068
  303.107
  303.142
  303.171
  303.19
  303.203
  303.212
  303.218
  303.223
  303.226
  303.228
  303.229
  303.228
  303.225
  303.221
  303.213
  303.202
  303.189
  303.175
  303.16
  303.144
  303.137
  303.149
  303.167
  303.296
  305.021
  304.736
  304.473
  304.242
  304.058
  303.913
  303.752
  303.515
  303.273
  303.081
  302.967
  302.924
  302.934
  302.979
  303.039
  303.098
  303.152
  303.185
  303.205
  303.219
  303.228
  303.235
  303.24
  303.243
  303.245
  303.246
  303.246
  303.246
  303.244
  303.242
  303.241
  303.243
  303.246
  303.254
  303.27
  303.294
  303.327
  303.36
  303.382
  303.436
  296.939
  299.483
  300.895
  301.441
  301.686
  301.924
  302.155
  302.377
  302.581
  302.755
  302.897
  303.019
  303.113
  303.168
  303.202
  303.222
  303.234
  303.243
  303.249
  303.254
  303.257
  303.26
  303.262
  303.264
  303.266
  303.268
  303.269
  303.272
  303.275
  303.278
  303.284
  303.293
  303.307
  303.327
  303.35
  303.372
  303.387
  303.403
  297.571
  299.629
  300.699
  301.323
  301.724
  302.042
  302.324
  302.586
  302.809
  302.965
  303.074
  303.148
  303.194
  303.221
  303.238
  303.248
  303.255
  303.26
  303.264
  303.267
  303.27
  303.273
  303.276
  303.278
  303.281
  303.283
  303.286
  303.289
  303.291
  303.295
  303.3
  303.307
  303.317
  303.331
  303.347
  303.363
  303.358
  303.386
  299.654
  299.581
  299.576
  301.189
  301.899
  302.289
  302.566
  302.775
  302.921
  303.03
  303.108
  303.162
  303.199
  303.224
  303.239
  303.249
  303.255
  303.26
  303.263
  303.267
  303.269
  303.272
  303.275
  303.278
  303.281
  303.283
  303.286
  303.289
  303.291
  303.294
  303.297
  303.3
  303.303
  303.308
  303.314
  303.325
  303.334
  303.339
  303.339
  303.376
)
;

boundaryField
{
  floor
  {
    type wallHeatTransfer;
    Tinf uniform 305.2;
    alphaWall uniform 0.24;
    value nonuniform List<scalar> 29
(
  303.297
  303.538
  303.472
  303.446
  303.453
  303.463
  303.476
  303.492
  303.508
  303.524
  303.54
  303.555
  303.569
  303.583
  303.596
  303.609
  303.623
  303.638
  303.644
  303.677
  303.678
  303.563
  303.509
  303.479
  303.297
  303.538
  303.496
  303.329
  303.272
)
;
  }
  ceiling
  {
    type wallHeatTransfer;
    Tinf uniform 303.2;
    alphaWall uniform 0.24;
    value nonuniform List<scalar> 43
(
  299.901
  299.822
  299.81
  301.313
  301.984
  302.352
  302.612
  302.807
  302.944
  303.045
  303.117
  303.166
  303.199
  303.221
  303.233
  303.24
  303.245
  303.249
  303.252
  303.254
  303.257
  303.26
  303.262
  303.265
  303.268
  303.27
  303.273
  303.276
  303.278
  303.281
  303.284
  303.287
  303.291
  303.296
  303.302
  303.313
  303.321
  303.325
  303.325
  303.357
  304.937
  304.675
  297.92
)
;
  }
  sWall
  {
    type wallHeatTransfer;
    Tinf uniform 315.2;
    alphaWall uniform 0.36;
    value uniform 301.229;
  }
  nWall
  {
    type wallHeatTransfer;
    Tinf uniform 307.2;
    alphaWall uniform 0.36;
    value nonuniform List<scalar> 6
(
  303.926
  303.875
  303.798
  303.949
  303.927
  303.983
)
;
  }
  sideWalls
  {
    type empty;
  }
  glass1
  {
    type wallHeatTransfer;
    Tinf uniform 315.2;
    alphaWall uniform 4.3;
    value nonuniform List<scalar> 9
(
  311.62
  310.953
  310.528
  310.201
  309.93
  309.687
  309.499
  309.564
  309.787
)
;
  }
  glass2
  {
    type wallHeatTransfer;
    Tinf uniform 307.2;
    alphaWall uniform 4.3;
    value nonuniform List<scalar> 2
(
  305.699
  305.806
)
;
  }
  sun
  {
    type wallHeatTransfer;
    Tinf uniform 305.2;
    alphaWall uniform 0.24;
    value nonuniform List<scalar> 14
(
  303.64
  303.39
  303.378
  303.369
  303.361
  303.353
  303.345
  303.337
  303.328
  303.318
  303.307
  303.298
  303.292
  303.292
)
;
  }
  heatsource1
  {
    type fixedGradient;
    gradient uniform 0;
  }
  heatsource2
  {
    type fixedGradient;
    gradient uniform 0;
  }
  Table_master
  {
    type zeroGradient;
  }
  Table_slave
  {
    type zeroGradient;
  }
  inlet
  {
    type fixedValue;
    value uniform 293.15;
  }
  outlet
  {
    type zeroGradient;
  }
} 	// ************************************************************************* //

