/*--------------------------------*- C++ -*----------------------------------*\
  =========                 |
  \\      /  F ield         | OpenFOAM: The Open Source CFD Toolbox
   \\    /   O peration     | Website:  https://openfoam.org
    \\  /    A nd           | Version:  6
     \\/     M anipulation  |
\*---------------------------------------------------------------------------*/
FoamFile
{
    version     2.0;
    format      ascii;
    class       volScalarField;
    location    "1000";
    object      nut;
}
// * * * * * * * * * * * * * * * * * * * * * * * * * * * * * * * * * * * * * //

dimensions      [0 2 -1 0 0 0 0];

internalField   nonuniform List<scalar> 
459
(
0.00134043
0.00149274
0.00155438
0.00164911
0.00174981
0.0018469
0.00191623
0.00194548
0.001922
0.00179932
0.00167896
0.00154513
0.00139959
0.00126485
0.00111645
0.000629938
0.000742898
0.000872988
0.000965913
0.000994876
0.000978506
0.000918755
0.000853595
0.000795135
0.000744484
0.000700669
0.000662632
0.00062926
0.000599662
0.000572748
0.000546928
0.000519895
0.000488817
0.000442111
0.00172509
0.00465662
0.00470669
0.00546313
0.00613063
0.00662929
0.00704223
0.0073707
0.00758754
0.0075238
0.00715363
0.00659861
0.00574449
0.00446279
0.00292361
0.00126686
0.00106833
0.000610169
0.0015119
0.00264488
0.00351116
0.00404645
0.00397243
0.00268728
0.00220194
0.00189597
0.0016795
0.00151841
0.0013944
0.0012976
0.00121029
0.00111131
0.00101088
0.000916747
0.000864393
0.000478123
0.00204264
0.00641861
0.00592458
0.00658796
0.00692187
0.00715784
0.00740518
0.00777575
0.00822936
0.00848085
0.00843902
0.00815854
0.00764356
0.00662776
0.00513798
0.00322339
0.001202
0.000638618
0.00156633
0.00275974
0.00407144
0.00500475
0.00477167
0.00122788
0.00106591
0.000933697
0.000827542
0.000742242
0.000673276
0.000617171
0.0005728
0.000541879
0.000624968
0.000746435
0.000918754
0.000494322
0.00234524
0.00797828
0.0064184
0.0069446
0.00695453
0.00689938
0.00696723
0.00736554
0.00793828
0.00836954
0.00853362
0.0084514
0.0081692
0.00756926
0.00653238
0.004951
0.00262365
0.00130395
0.00145684
0.00231872
0.00379026
0.00533749
0.00638714
0.00598211
0.00139126
0.00126046
0.00115766
0.00107314
0.000997513
0.000925579
0.000854069
0.000780228
0.000698969
0.000641175
0.000690048
0.0009464
0.000506248
0.00265208
0.00985639
0.00745481
0.00757031
0.00722671
0.00679979
0.00672485
0.00713577
0.00776152
0.00827891
0.00851575
0.00849572
0.00831016
0.00797504
0.00739359
0.00644709
0.00509964
0.00458676
0.0052387
0.00627154
0.00740723
0.00832029
0.00880368
0.00860157
0.00698662
0.00605134
0.00538778
0.00473852
0.00409702
0.00346057
0.00282661
0.00219803
0.00158827
0.00108474
0.000853947
0.000945786
0.000593421
0.000521788
0.000614547
0.0006981
0.0029693
0.0118816
0.00974976
0.00880784
0.00763884
0.00683148
0.00668136
0.00713308
0.00783976
0.00841728
0.00867602
0.00867847
0.00858684
0.00852973
0.00842051
0.00816703
0.00785452
0.00815224
0.00910529
0.00994758
0.0105385
0.0107984
0.0107112
0.0102556
0.00936535
0.00842511
0.00744869
0.0064896
0.00555667
0.00465002
0.00376773
0.00291521
0.00211906
0.00147261
0.00111794
0.00103332
0.000765286
0.000663923
0.000941141
0.000727012
0.00321383
0.0130048
0.0120478
0.0096268
0.00770187
0.00670919
0.0066678
0.00730289
0.0081581
0.00880149
0.00907962
0.00919115
0.00941997
0.00979824
0.0100688
0.0102571
0.0105296
0.0111424
0.0118651
0.0122663
0.0123259
0.0120758
0.0115633
0.0108325
0.009904
0.00886945
0.00781834
0.00679683
0.00582275
0.00490453
0.00404586
0.00324229
0.00248712
0.00189654
0.00153334
0.00134793
0.00112562
0.00103746
0.00100135
0.000796251
0.00324146
0.0104363
0.00953207
0.00765424
0.00639524
0.00609468
0.00664328
0.00769915
0.00875328
0.00941525
0.00972145
0.010245
0.0109631
0.0113633
0.0116396
0.0119263
0.0122979
0.0127507
0.0130629
0.0130379
0.0126743
0.0120427
0.0112142
0.0102501
0.00921373
0.0081675
0.00714485
0.00616869
0.00526011
0.00444034
0.00372728
0.00312786
0.00263507
0.00225299
0.00196568
0.0018793
0.00187309
0.0019776
0.00261886
0.00120369
0.00314124
0.00363505
0.00380903
0.0038303
0.00434103
0.00553904
0.00713301
0.00867528
0.00966974
0.0100843
0.0106807
0.0113332
0.0117705
0.0119866
0.0121693
0.0123913
0.0126153
0.0127364
0.0126201
0.0122012
0.0115101
0.0106217
0.00961866
0.00857791
0.00755226
0.00656293
0.00560321
0.00466605
0.00376483
0.00295148
0.00231232
0.00190312
0.00169583
0.00162061
0.00161997
0.00165918
0.00169654
0.00169129
0.00162271
0.00117847
0.000910946
0.00298968
0.00649144
0.00888843
0.0101694
0.0107681
0.0106189
0.0104814
0.0107125
0.0109301
0.0110037
0.0110575
0.0111456
0.0112218
0.0111948
0.010967
0.010484
0.00976311
0.00888146
0.00793617
0.00700903
0.00614782
0.00536261
0.00463917
0.00396368
0.00333961
0.00278736
0.00233394
0.00199858
0.00178247
0.00167093
0.00164166
0.00166765
0.00171467
0.00174089
0.00171401
0.00158813
0.00109498
0.00215628
0.00873465
0.0100703
0.0101557
0.00970161
0.00912969
0.00866425
0.00836796
0.00816893
0.00802373
0.00795625
0.00795865
0.00798275
0.00796489
0.00784167
0.00756825
0.0071433
0.0066129
0.00604659
0.00550428
0.00501722
0.00458972
0.00421162
0.0038705
0.00355803
0.00327042
0.00300581
0.00276239
0.0025388
0.0023367
0.00216312
0.00202843
0.00193685
0.00187568
0.00181778
0.00180658
0.00204876
0.00115485
0.00190303
0.00206709
0.00216237
0.00233949
0.00207927
0.00191782
0.00178878
0.00166314
0.00155843
0.00148742
0.0014457
0.00142371
0.00141282
0.00140618
0.00139821
0.00138453
0.00136226
0.00133086
0.00129262
0.00125156
0.0012116
0.00117508
0.00114249
0.00111304
0.00108552
0.00105889
0.00103274
0.0010073
0.000983396
0.000962249
0.000945393
0.000934549
0.000931539
0.000937972
0.000954124
0.00097699
0.000990454
0.000966245
0.000937247
0.000946647
)
;

boundaryField
{
    floor
    {
        type            nutkWallFunction;
        Cmu             0.09;
        kappa           0.41;
        E               9.8;
        value           nonuniform List<scalar> 
29
(
0.000134343
7.60815e-05
8.99784e-05
0.000105674
0.000116718
0.000120136
0.000118207
0.000111132
0.000103355
9.63185e-05
9.01726e-05
8.48161e-05
8.01335e-05
7.59985e-05
7.23089e-05
6.89344e-05
6.56789e-05
6.225e-05
5.82803e-05
5.22542e-05
5.22541e-05
5.69047e-05
5.89813e-05
6.05047e-05
0.000134343
7.60814e-05
7.36196e-05
7.71558e-05
0.000155932
)
;
    }
    ceiling
    {
        type            nutkWallFunction;
        Cmu             0.09;
        kappa           0.41;
        E               9.8;
        value           nonuniform List<scalar> 
43
(
0.000222858
0.000240674
0.000250978
0.000270134
0.000242104
0.000224515
0.000210339
0.000196427
0.000184744
0.000176774
0.000172073
0.00016959
0.00016836
0.000167609
0.000166708
0.000165157
0.000162628
0.000159054
0.000154688
0.000149984
0.000145389
0.000141175
0.000137401
0.000133982
0.000130775
0.000127663
0.000124599
0.000121609
0.000118791
0.000116291
0.000114294
0.000113005
0.000112645
0.000113406
0.000115316
0.000118016
0.000119606
0.000116753
0.000113323
0.000114439
0.000354799
0.000405737
0.000250068
)
;
    }
    sWall
    {
        type            nutkWallFunction;
        Cmu             0.09;
        kappa           0.41;
        E               9.8;
        value           uniform 0.000222914;
    }
    nWall
    {
        type            nutkWallFunction;
        Cmu             0.09;
        kappa           0.41;
        E               9.8;
        value           nonuniform List<scalar> 6(8.44796e-05 8.80216e-05 9.6431e-05 0.000131865 0.000138823 0.000114443);
    }
    sideWalls
    {
        type            empty;
    }
    glass1
    {
        type            nutkWallFunction;
        Cmu             0.09;
        kappa           0.41;
        E               9.8;
        value           nonuniform List<scalar> 9(0.000160276 0.000203529 0.000238429 0.000271144 0.000303863 0.000337273 0.000362777 0.000365657 0.000355257);
    }
    glass2
    {
        type            nutkWallFunction;
        Cmu             0.09;
        kappa           0.41;
        E               9.8;
        value           nonuniform List<scalar> 2(0.000144463 0.00014156);
    }
    sun
    {
        type            nutkWallFunction;
        Cmu             0.09;
        kappa           0.41;
        E               9.8;
        value           nonuniform List<scalar> 
14
(
0.000160091
0.000177317
0.000184234
0.000194807
0.000205975
0.000216675
0.000224278
0.000227476
0.000224904
0.000211437
0.000198125
0.000183199
0.000166807
0.00015146
)
;
    }
    heatsource1
    {
        type            nutkWallFunction;
        Cmu             0.09;
        kappa           0.41;
        E               9.8;
        value           nonuniform List<scalar> 3(6.24783e-05 7.41463e-05 8.4482e-05);
    }
    heatsource2
    {
        type            nutkWallFunction;
        Cmu             0.09;
        kappa           0.41;
        E               9.8;
        value           nonuniform List<scalar> 4(0.000151685 0.000128735 0.000128735 0.000144235);
    }
    Table_master
    {
        type            nutkWallFunction;
        Cmu             0.09;
        kappa           0.41;
        E               9.8;
        value           nonuniform List<scalar> 9(0.000147232 0.000128464 0.000112904 0.000100225 8.9899e-05 8.14474e-05 7.44951e-05 6.89425e-05 6.50421e-05);
    }
    Table_slave
    {
        type            nutkWallFunction;
        Cmu             0.09;
        kappa           0.41;
        E               9.8;
        value           nonuniform List<scalar> 9(0.000165886 0.000150976 0.000139136 0.000129313 0.000120447 0.000111943 0.000103412 9.45145e-05 8.46072e-05);
    }
    inlet
    {
        type            calculated;
        value           uniform 0.000100623;
    }
    outlet
    {
        type            calculated;
        value           nonuniform List<scalar> 2(0.00190303 0.00206709);
    }
}


// ************************************************************************* //
