/*--------------------------------*- C++ -*----------------------------------*\
  =========                 |
  \\      /  F ield         | OpenFOAM: The Open Source CFD Toolbox
   \\    /   O peration     | Website:  https://openfoam.org
    \\  /    A nd           | Version:  6
     \\/     M anipulation  |
\*---------------------------------------------------------------------------*/
FoamFile
{
    version     2.0;
    format      ascii;
    class       volScalarField;
    location    "100";
    object      epsilon;
}
// * * * * * * * * * * * * * * * * * * * * * * * * * * * * * * * * * * * * * //

dimensions      [0 2 -3 0 0 0 0];

internalField   nonuniform List<scalar> 
459
(
0.000136162
0.000152873
0.000144537
0.000158319
0.000170666
0.000181407
0.00019081
0.000199259
0.000207229
0.000215162
0.000220781
0.000223341
0.000222875
0.00022086
0.000218025
0.000115829
9.50464e-05
8.04998e-05
7.24946e-05
6.75204e-05
6.23896e-05
5.54008e-05
4.89476e-05
4.32088e-05
3.8156e-05
3.37583e-05
2.99577e-05
2.66805e-05
2.38419e-05
2.13431e-05
1.90733e-05
1.69188e-05
1.611e-05
1.31173e-05
0.000494907
0.00111035
0.000141359
0.000120124
0.000117048
0.000116315
0.000117399
0.00012116
0.000128502
0.000139983
0.00015231
0.000163557
0.000171997
0.000178275
0.000191635
0.00023796
0.000198938
0.00019306
0.000101915
7.14212e-05
5.95807e-05
5.25458e-05
4.74617e-05
4.51994e-05
3.98432e-05
3.46207e-05
2.98469e-05
2.56665e-05
2.21074e-05
1.91197e-05
1.66355e-05
1.46813e-05
1.35964e-05
1.37191e-05
4.2831e-05
2.93932e-05
0.00114707
0.00364247
0.00023747
0.000122704
0.000115793
0.000118101
0.000123746
0.00013286
0.000145459
0.000160889
0.000175988
0.000186673
0.000190505
0.000189659
0.000193444
0.000218949
0.000319732
0.00028666
9.23434e-05
7.18253e-05
6.18765e-05
5.53287e-05
5.48413e-05
0.000121749
8.17957e-05
5.92011e-05
4.54328e-05
3.64668e-05
3.02987e-05
2.58856e-05
2.26894e-05
2.05327e-05
1.66033e-05
1.61244e-05
9.24399e-05
4.84171e-05
0.00225707
0.0086499
0.000524091
0.000138361
0.000122101
0.000128907
0.000139707
0.000154111
0.000172494
0.000194662
0.000215804
0.000227557
0.000226409
0.000215246
0.00020227
0.000202971
0.000250664
0.000371625
0.000169855
9.955e-05
7.55825e-05
6.20509e-05
5.51737e-05
5.64693e-05
0.000137341
0.000115329
0.000107898
0.000104419
0.000100375
9.31857e-05
8.28929e-05
7.27179e-05
6.13573e-05
3.81665e-05
2.85051e-05
0.000184661
6.69991e-05
0.00395469
0.0163322
0.00126984
0.000176841
0.000127235
0.000136259
0.000153192
0.000176534
0.000207719
0.000247095
0.000283384
0.000300325
0.000295145
0.000272788
0.000240075
0.000206905
0.000188465
0.000191348
0.000143793
0.000109869
8.18518e-05
6.62685e-05
5.95887e-05
5.85391e-05
6.53121e-05
6.87244e-05
7.18847e-05
7.4044e-05
7.38241e-05
6.99805e-05
6.27034e-05
5.61997e-05
5.0862e-05
4.28817e-05
3.64064e-05
0.000119464
8.24016e-05
0.000118419
0.000196722
0.000278055
0.00637969
0.0244349
0.00318528
0.000340474
0.000153616
0.000147742
0.000164869
0.000195593
0.000245267
0.00032388
0.000383387
0.000402883
0.000389723
0.000354841
0.000304975
0.000246539
0.000188337
0.000157776
0.000154026
0.000127726
9.43187e-05
7.7183e-05
7.04095e-05
6.99593e-05
7.43535e-05
8.10332e-05
8.85754e-05
9.54132e-05
9.94868e-05
9.81244e-05
8.87496e-05
7.38237e-05
6.11327e-05
5.08037e-05
4.60698e-05
7.83647e-05
8.34811e-05
9.51953e-05
0.000370665
0.000327922
0.0096886
0.0288253
0.00788791
0.0015376
0.000498839
0.000295178
0.000256462
0.000269792
0.000325602
0.000479531
0.000543615
0.00054334
0.000507127
0.000452443
0.000384874
0.000308389
0.000221216
0.000161731
0.000170411
0.000155982
0.000116975
9.69e-05
8.95313e-05
8.9335e-05
9.42277e-05
0.000103031
0.000114785
0.000128173
0.000141247
0.000151079
0.00015189
0.000131209
0.000109854
9.30988e-05
8.78623e-05
0.00010697
0.000146352
0.000257059
0.000594905
0.000545411
0.0107593
0.036481
0.0175597
0.00925758
0.00444653
0.00212485
0.00120904
0.000885002
0.000840582
0.000849143
0.000806761
0.000731523
0.000644065
0.000555396
0.000468794
0.00037985
0.000272815
0.000178026
0.000187857
0.000197683
0.000154341
0.000130235
0.000121152
0.00012001
0.000124444
0.000133821
0.000148081
0.000167683
0.000193424
0.000225757
0.000263305
0.000300118
0.000303769
0.000329359
0.000404795
0.000647692
0.00129535
0.0026342
0.00753847
0.00177335
0.0102153
0.018525
0.014933
0.0110639
0.00776756
0.00520692
0.00350005
0.0024727
0.0018681
0.0014482
0.00115326
0.000939156
0.000776743
0.000647243
0.000538906
0.000439784
0.000322395
0.000204838
0.000206705
0.000259397
0.000217537
0.000188024
0.000176012
0.000171752
0.000172297
0.000177537
0.000188525
0.000207497
0.000238088
0.000285199
0.000354571
0.000452545
0.000586833
0.000773055
0.00105262
0.00142336
0.00182596
0.00214211
0.00236822
0.00134446
0.00630339
0.00812661
0.00647814
0.00483949
0.00356234
0.00265107
0.00202105
0.00157549
0.00125309
0.00101411
0.000830881
0.000686041
0.000569681
0.000469085
0.000347317
0.000222385
0.000230073
0.000362303
0.000333081
0.000296631
0.00028432
0.000278613
0.000274136
0.00027096
0.000270419
0.000274729
0.000287478
0.000314127
0.000362624
0.000443091
0.000563256
0.00072993
0.000944302
0.0011732
0.00133641
0.00133442
0.00109527
0.000720227
0.00463152
0.0074202
0.00592681
0.00441522
0.00334426
0.00254214
0.00194263
0.00149731
0.00116373
0.000910673
0.000717204
0.000568902
0.000455935
0.000369001
0.000299994
0.000231419
0.000262631
0.000446023
0.000456356
0.000441493
0.000435683
0.000430317
0.000420791
0.000408141
0.000395663
0.000387698
0.000389069
0.000404827
0.000440879
0.000506539
0.000609274
0.000754357
0.000938614
0.0011514
0.00131672
0.00141649
0.000954741
0.000752836
0.00315442
0.00364698
0.00411595
0.004926
0.00418547
0.00316734
0.00254291
0.00204911
0.0016506
0.00132942
0.0010841
0.000893581
0.000737821
0.000607425
0.000497897
0.000406612
0.000330066
0.000259635
0.000239193
0.000288702
0.000281827
0.000277632
0.000278287
0.000279613
0.00028119
0.000284434
0.000291143
0.00030324
0.00032299
0.000353712
0.000400212
0.000461869
0.00054343
0.000647988
0.000777843
0.000977491
0.00103379
0.000957163
0.000775165
0.000606868
)
;

boundaryField
{
    floor
    {
        Cmu             0.09;
        kappa           0.41;
        E               9.8;
        type            epsilonWallFunction;
        value           nonuniform List<scalar> 
29
(
0.000218025
0.000115829
9.50464e-05
8.04998e-05
7.24946e-05
6.75204e-05
6.23896e-05
5.54008e-05
4.89476e-05
4.32088e-05
3.8156e-05
3.37583e-05
2.99577e-05
2.66805e-05
2.38419e-05
2.13431e-05
1.90733e-05
1.69188e-05
1.611e-05
1.31173e-05
1.31173e-05
2.93932e-05
4.84171e-05
6.69991e-05
0.000218025
0.000115829
0.00019306
0.00028666
0.000371625
)
;
    }
    ceiling
    {
        Cmu             0.09;
        kappa           0.41;
        E               9.8;
        type            epsilonWallFunction;
        value           nonuniform List<scalar> 
43
(
0.00315442
0.00364698
0.00411595
0.004926
0.00418547
0.00316734
0.00254291
0.00204911
0.0016506
0.00132942
0.0010841
0.000893581
0.000737821
0.000607425
0.000497897
0.000406612
0.000330066
0.000259635
0.000239193
0.000288702
0.000281827
0.000277632
0.000278287
0.000279613
0.00028119
0.000284434
0.000291143
0.00030324
0.00032299
0.000353712
0.000400212
0.000461869
0.00054343
0.000647988
0.000777843
0.000977491
0.00103379
0.000957163
0.000775165
0.000606868
0.0102153
0.018525
0.00463152
)
;
    }
    sWall
    {
        Cmu             0.09;
        kappa           0.41;
        E               9.8;
        type            epsilonWallFunction;
        value           uniform 0.00315442;
    }
    nWall
    {
        Cmu             0.09;
        kappa           0.41;
        E               9.8;
        type            epsilonWallFunction;
        value           nonuniform List<scalar> 6(0.000278055 0.000327922 0.000545411 0.000720227 0.000752836 0.000606868);
    }
    sideWalls
    {
        type            empty;
    }
    glass1
    {
        Cmu             0.09;
        kappa           0.41;
        E               9.8;
        type            epsilonWallFunction;
        value           nonuniform List<scalar> 9(0.000136162 0.000494907 0.00114707 0.00225707 0.00395469 0.00637969 0.0096886 0.0107593 0.0102153);
    }
    glass2
    {
        Cmu             0.09;
        kappa           0.41;
        E               9.8;
        type            epsilonWallFunction;
        value           nonuniform List<scalar> 2(0.00177335 0.00134446);
    }
    sun
    {
        Cmu             0.09;
        kappa           0.41;
        E               9.8;
        type            epsilonWallFunction;
        value           nonuniform List<scalar> 
14
(
0.000136162
0.000152873
0.000144537
0.000158319
0.000170666
0.000181407
0.00019081
0.000199259
0.000207229
0.000215162
0.000220781
0.000223341
0.000222875
0.00022086
)
;
    }
    heatsource1
    {
        Cmu             0.09;
        kappa           0.41;
        E               9.8;
        type            epsilonWallFunction;
        value           nonuniform List<scalar> 3(0.000118419 0.000196722 0.000278055);
    }
    heatsource2
    {
        Cmu             0.09;
        kappa           0.41;
        E               9.8;
        type            epsilonWallFunction;
        value           nonuniform List<scalar> 4(0.00023796 0.000198938 0.000198938 0.000319732);
    }
    Table_master
    {
        Cmu             0.09;
        kappa           0.41;
        E               9.8;
        type            epsilonWallFunction;
        value           nonuniform List<scalar> 9(0.000121749 8.17957e-05 5.92011e-05 4.54328e-05 3.64668e-05 3.02987e-05 2.58856e-05 2.26894e-05 2.05327e-05);
    }
    Table_slave
    {
        Cmu             0.09;
        kappa           0.41;
        E               9.8;
        type            epsilonWallFunction;
        value           nonuniform List<scalar> 9(0.000137341 0.000115329 0.000107898 0.000104419 0.000100375 9.31857e-05 8.28929e-05 7.27179e-05 6.13573e-05);
    }
    inlet
    {
        type            turbulentMixingLengthDissipationRateInlet;
        mixingLength    0.01;
        phi             phi;
        k               k;
        value           uniform 0.000101881;
    }
    outlet
    {
        type            zeroGradient;
    }
}


// ************************************************************************* //
