// -*- C++ -*-
// File generated by PyFoam - sorry for the ugliness

FoamFile
{
 version 2.0;
 format ascii;
 class volScalarField;
 location "100";
 object T;
}

dimensions [ 0 0 0 1 0 0 0 ];

internalField nonuniform List<scalar> 459
(
  307.136
  307.008
  307.008
  306.977
  306.907
  306.826
  306.768
  306.734
  306.712
  306.697
  306.688
  306.679
  306.669
  306.659
  306.647
  306.49
  306.512
  306.53
  306.539
  306.544
  306.538
  306.526
  306.516
  306.511
  306.509
  306.508
  306.508
  306.506
  306.505
  306.505
  306.507
  306.511
  306.509
  306.506
  307.27
  307.138
  307.18
  307.153
  307.1
  307.029
  306.954
  306.874
  306.815
  306.772
  306.738
  306.715
  306.695
  306.674
  306.653
  306.637
  306.626
  306.538
  306.549
  306.558
  306.565
  306.566
  306.563
  306.55
  306.547
  306.548
  306.55
  306.551
  306.55
  306.546
  306.541
  306.539
  306.548
  306.549
  306.545
  306.537
  307.45
  307.302
  307.242
  307.202
  307.175
  307.142
  307.086
  307.016
  306.945
  306.879
  306.813
  306.763
  306.724
  306.69
  306.659
  306.633
  306.614
  306.557
  306.567
  306.573
  306.576
  306.576
  306.573
  306.564
  306.564
  306.567
  306.57
  306.571
  306.571
  306.569
  306.564
  306.559
  306.572
  306.57
  306.565
  306.555
  307.637
  307.365
  307.225
  307.163
  307.15
  307.138
  307.116
  307.079
  307.028
  306.968
  306.905
  306.843
  306.77
  306.718
  306.676
  306.64
  306.608
  306.584
  306.577
  306.584
  306.587
  306.587
  306.584
  306.58
  306.576
  306.574
  306.573
  306.573
  306.573
  306.574
  306.576
  306.578
  306.579
  306.58
  306.58
  306.577
  306.568
  307.244
  307.02
  306.928
  306.902
  306.907
  306.944
  306.987
  307.013
  307.013
  306.987
  306.944
  306.892
  306.832
  306.763
  306.714
  306.679
  306.65
  306.628
  306.613
  306.61
  306.607
  306.603
  306.596
  306.589
  306.582
  306.576
  306.572
  306.57
  306.57
  306.572
  306.575
  306.578
  306.581
  306.583
  306.583
  306.581
  306.575
  306.575
  306.574
  306.577
  307.037
  306.686
  306.629
  306.661
  306.717
  306.803
  306.887
  306.949
  306.979
  306.978
  306.953
  306.913
  306.865
  306.813
  306.761
  306.722
  306.694
  306.672
  306.656
  306.646
  306.637
  306.628
  306.617
  306.605
  306.593
  306.583
  306.575
  306.569
  306.568
  306.569
  306.573
  306.578
  306.582
  306.585
  306.586
  306.585
  306.581
  306.578
  306.576
  306.578
  306.899
  306.454
  306.511
  306.665
  306.721
  306.787
  306.861
  306.923
  306.959
  306.967
  306.952
  306.921
  306.883
  306.843
  306.805
  306.771
  306.742
  306.72
  306.702
  306.689
  306.676
  306.663
  306.648
  306.631
  306.613
  306.596
  306.581
  306.57
  306.565
  306.566
  306.571
  306.577
  306.583
  306.586
  306.587
  306.587
  306.584
  306.581
  306.578
  306.579
  306.76
  306.391
  306.487
  306.762
  306.803
  306.822
  306.869
  306.918
  306.951
  306.959
  306.947
  306.923
  306.893
  306.863
  306.836
  306.811
  306.788
  306.768
  306.749
  306.734
  306.72
  306.704
  306.686
  306.664
  306.64
  306.616
  306.593
  306.575
  306.564
  306.562
  306.567
  306.574
  306.581
  306.586
  306.587
  306.588
  306.588
  306.589
  306.59
  306.595
  306.613
  306.275
  306.258
  306.802
  306.865
  306.871
  306.892
  306.922
  306.945
  306.951
  306.941
  306.921
  306.898
  306.876
  306.857
  306.839
  306.822
  306.807
  306.791
  306.776
  306.761
  306.744
  306.724
  306.7
  306.673
  306.642
  306.611
  306.584
  306.565
  306.557
  306.559
  306.567
  306.574
  306.58
  306.584
  306.586
  306.588
  306.589
  306.591
  306.592
  305.699
  306.802
  306.894
  306.905
  306.912
  306.927
  306.939
  306.941
  306.933
  306.917
  306.9
  306.885
  306.871
  306.858
  306.846
  306.834
  306.822
  306.808
  306.793
  306.776
  306.756
  306.731
  306.702
  306.668
  306.631
  306.596
  306.569
  306.553
  306.55
  306.555
  306.563
  306.57
  306.575
  306.579
  306.581
  306.582
  306.578
  306.575
  306.57
  306.873
  306.907
  306.915
  306.92
  306.926
  306.931
  306.931
  306.925
  306.913
  306.9
  306.889
  306.879
  306.869
  306.86
  306.849
  306.838
  306.826
  306.812
  306.795
  306.775
  306.751
  306.721
  306.686
  306.646
  306.606
  306.572
  306.549
  306.54
  306.542
  306.549
  306.557
  306.564
  306.569
  306.571
  306.57
  306.565
  306.567
  308.685
  308.168
  306.941
  306.897
  306.903
  306.907
  306.911
  306.914
  306.916
  306.914
  306.909
  306.9
  306.889
  306.88
  306.872
  306.864
  306.855
  306.846
  306.836
  306.824
  306.811
  306.796
  306.778
  306.756
  306.729
  306.695
  306.654
  306.609
  306.566
  306.533
  306.515
  306.512
  306.518
  306.527
  306.535
  306.54
  306.542
  306.538
  306.532
  306.518
)
;

boundaryField
{
  floor
  {
    type wallHeatTransfer;
    Tinf uniform 305.2;
    alphaWall uniform 0.24;
    value nonuniform List<scalar> 29
(
  306.432
  306.204
  306.227
  306.233
  306.246
  306.248
  306.214
  306.157
  306.098
  306.057
  306.033
  306.02
  306.017
  306.024
  306.055
  306.108
  306.161
  306.21
  306.241
  306.228
  306.228
  306.298
  306.331
  306.353
  306.432
  306.204
  306.303
  306.35
  306.396
)
;
  }
  ceiling
  {
    type wallHeatTransfer;
    Tinf uniform 303.2;
    alphaWall uniform 0.24;
    value nonuniform List<scalar> 43
(
  308.221
  307.731
  306.621
  306.579
  306.587
  306.59
  306.599
  306.607
  306.611
  306.61
  306.604
  306.594
  306.583
  306.576
  306.569
  306.563
  306.557
  306.551
  306.545
  306.537
  306.527
  306.515
  306.5
  306.48
  306.455
  306.424
  306.386
  306.344
  306.304
  306.273
  306.257
  306.254
  306.258
  306.264
  306.267
  306.266
  306.261
  306.251
  306.243
  306.213
  306.467
  306.158
  306.387
)
;
  }
  sWall
  {
    type wallHeatTransfer;
    Tinf uniform 315.2;
    alphaWall uniform 0.36;
    value uniform 309.479;
  }
  nWall
  {
    type wallHeatTransfer;
    Tinf uniform 307.2;
    alphaWall uniform 0.36;
    value nonuniform List<scalar> 6
(
  306.73
  306.719
  306.713
  306.65
  306.633
  306.608
)
;
  }
  sideWalls
  {
    type empty;
  }
  glass1
  {
    type wallHeatTransfer;
    Tinf uniform 315.2;
    alphaWall uniform 4.3;
    value nonuniform List<scalar> 9
(
  312.397
  312.247
  312.334
  312.32
  311.174
  310.919
  310.772
  310.627
  310.46
)
;
  }
  glass2
  {
    type wallHeatTransfer;
    Tinf uniform 307.2;
    alphaWall uniform 4.3;
    value nonuniform List<scalar> 2
(
  307.03
  306.986
)
;
  }
  sun
  {
    type wallHeatTransfer;
    Tinf uniform 305.2;
    alphaWall uniform 0.24;
    value nonuniform List<scalar> 14
(
  306.955
  306.854
  306.864
  306.839
  306.766
  306.675
  306.605
  306.56
  306.526
  306.502
  306.486
  306.473
  306.461
  306.448
)
;
  }
  heatsource1
  {
    type fixedGradient;
    gradient uniform 0;
  }
  heatsource2
  {
    type fixedGradient;
    gradient uniform 0;
  }
  Table_master
  {
    type zeroGradient;
  }
  Table_slave
  {
    type zeroGradient;
  }
  inlet
  {
    type fixedValue;
    value uniform 299.15;
  }
  outlet
  {
    type zeroGradient;
  }
} 	// ************************************************************************* //

