/*--------------------------------*- C++ -*----------------------------------*\
  =========                 |
  \\      /  F ield         | OpenFOAM: The Open Source CFD Toolbox
   \\    /   O peration     | Website:  https://openfoam.org
    \\  /    A nd           | Version:  6
     \\/     M anipulation  |
\*---------------------------------------------------------------------------*/
FoamFile
{
    version     2.0;
    format      ascii;
    class       volScalarField;
    location    "900";
    object      epsilon;
}
// * * * * * * * * * * * * * * * * * * * * * * * * * * * * * * * * * * * * * //

dimensions      [0 2 -3 0 0 0 0];

internalField   nonuniform List<scalar> 
459
(
9.74313e-05
0.000106917
7.6714e-05
8.19844e-05
8.90886e-05
9.63713e-05
0.00010391
0.000112076
0.000121072
0.000129759
0.000137873
0.000145046
0.000150853
0.000154667
0.000154184
8.19691e-06
7.07661e-06
5.33115e-06
3.89566e-06
3.35353e-06
3.24878e-06
3.41889e-06
3.94899e-06
4.57928e-06
5.17757e-06
5.58888e-06
5.59189e-06
5.51661e-06
5.84442e-06
6.84329e-06
8.87926e-06
1.13464e-05
2.03107e-05
1.41343e-05
0.000501549
0.00105831
0.000118012
6.31397e-05
6.14913e-05
6.42995e-05
6.79666e-05
7.23639e-05
7.78013e-05
8.39083e-05
9.10494e-05
9.97944e-05
0.000110786
0.00012464
0.000144894
0.00020404
4.5242e-05
2.05843e-05
1.92635e-05
1.26914e-05
9.28422e-06
8.17221e-06
7.91006e-06
7.95933e-06
9.60059e-06
1.1482e-05
1.31478e-05
1.45117e-05
1.59043e-05
1.78334e-05
2.09973e-05
2.57864e-05
3.03837e-05
4.07589e-05
9.39164e-05
4.92585e-05
0.00136209
0.00374335
0.000386122
9.90819e-05
7.68576e-05
7.75315e-05
8.14988e-05
8.63467e-05
9.19146e-05
9.77185e-05
0.000104053
0.000111558
0.000120854
0.000132185
0.000146196
0.000170279
0.000237426
6.1384e-05
3.55637e-05
1.9386e-05
1.51184e-05
1.37704e-05
1.27344e-05
8.84739e-06
1.05077e-05
1.27397e-05
1.55298e-05
1.92633e-05
2.46937e-05
3.31902e-05
4.79769e-05
7.70452e-05
5.88464e-05
8.85899e-05
0.000221294
0.00010512
0.00283625
0.00847497
0.00119979
0.000236911
0.000134007
0.000119664
0.000118973
0.000121692
0.000125991
0.00012998
0.000134033
0.000139198
0.000146285
0.000154965
0.000163209
0.000168374
0.000172498
0.00019714
5.63816e-05
3.79684e-05
3.0879e-05
3.19363e-05
3.65462e-05
4.50843e-05
6.10142e-05
5.96364e-05
5.91952e-05
5.95812e-05
6.11523e-05
6.44417e-05
7.04483e-05
8.14775e-05
0.000103764
6.44175e-05
9.37318e-05
0.000198597
0.000108752
0.00493577
0.014515
0.00307404
0.000746258
0.000353805
0.00025619
0.000220596
0.000204313
0.000196888
0.00019095
0.000186561
0.000185302
0.000188489
0.000195628
0.00020306
0.000203601
0.000187998
0.000147842
9.56669e-05
6.63308e-05
5.53152e-05
5.19387e-05
5.13622e-05
5.14549e-05
5.11736e-05
4.98017e-05
4.87381e-05
4.81202e-05
4.80708e-05
4.87702e-05
5.04752e-05
5.35356e-05
5.80865e-05
6.26116e-05
7.1968e-05
8.72879e-05
0.000111171
9.4187e-05
0.000105288
0.000115057
0.00757277
0.0196015
0.00651245
0.00234288
0.00119618
0.000745401
0.000537846
0.000426861
0.00035928
0.000312701
0.00027876
0.000256063
0.000244938
0.000244483
0.000250325
0.000253083
0.000239954
0.000203693
0.000158967
0.000125217
0.000105196
9.38516e-05
8.76901e-05
8.4165e-05
8.15034e-05
7.90985e-05
7.71617e-05
7.57052e-05
7.474e-05
7.43545e-05
7.47184e-05
7.61222e-05
7.8919e-05
8.29943e-05
8.75972e-05
9.27301e-05
0.000103241
0.000129893
0.000182653
0.000250933
0.010152
0.0208603
0.0116478
0.00655486
0.00383113
0.0023176
0.00150378
0.00104406
0.000755357
0.000574916
0.000456602
0.00037803
0.00032917
0.000304671
0.000299276
0.000302054
0.000295734
0.000270693
0.000234506
0.000200812
0.000175568
0.000158269
0.000147236
0.000140348
0.000135682
0.000132231
0.000129662
0.000127737
0.000126326
0.000125488
0.000125448
0.000126581
0.000129273
0.00013332
0.000137328
0.000140479
0.000149793
0.000193041
0.000309416
0.000434783
0.0100631
0.0209791
0.0180377
0.0134898
0.00893681
0.00556893
0.00351939
0.00229222
0.0015433
0.00107055
0.000768722
0.000579266
0.000462189
0.000394703
0.000363348
0.000355214
0.000353378
0.000343389
0.000322592
0.000297863
0.000275378
0.000257594
0.000245005
0.000236751
0.000231468
0.000228149
0.000226176
0.000224941
0.000224029
0.000223443
0.0002235
0.000224658
0.000227266
0.000230928
0.000233626
0.000232205
0.000228693
0.000264465
0.000466915
0.000646856
0.00867532
0.0127704
0.0464389
0.0337881
0.0193119
0.0109264
0.00633867
0.00381757
0.00240556
0.00159301
0.00111236
0.000819812
0.000641911
0.000537985
0.000485667
0.000467683
0.000467444
0.000470609
0.000469344
0.000463127
0.00045448
0.000445991
0.000439669
0.000436009
0.000434733
0.000435398
0.000437459
0.000439764
0.000441481
0.000442724
0.000444093
0.000446221
0.000449315
0.000452479
0.000452949
0.000445894
0.000426579
0.000412521
0.00056149
0.000910696
0.133098
0.10254
0.0221612
0.00992395
0.00559627
0.00348829
0.00234054
0.00168465
0.00130258
0.0010811
0.000957464
0.000894523
0.00086828
0.000865375
0.000877499
0.000897304
0.000918343
0.000936591
0.000950835
0.000961942
0.000972909
0.000983936
0.000995466
0.00100786
0.0010209
0.00103185
0.00103911
0.00104368
0.00104722
0.00105101
0.00105536
0.00105893
0.00105774
0.0010441
0.00100567
0.00093748
0.000953868
0.00139093
0.0827576
0.0423474
0.014866
0.00726135
0.00446024
0.00322843
0.0026229
0.00231663
0.00217574
0.00213215
0.00214462
0.00218701
0.00224423
0.00230668
0.00236653
0.00241767
0.00245782
0.00248869
0.00251364
0.00253623
0.00255795
0.00258098
0.00260625
0.00263426
0.00266432
0.00268909
0.00270454
0.00271331
0.00271912
0.00272422
0.002728
0.00272606
0.00270889
0.0026614
0.00256987
0.0024522
0.00263885
0.00244917
0.00136043
0.00338263
0.0260363
0.0146946
0.00660116
0.00371008
0.0028387
0.00234935
0.00204613
0.00185509
0.0017366
0.00166683
0.00162973
0.00161401
0.00161169
0.00161748
0.00162762
0.00163902
0.00164904
0.001656
0.00165947
0.00165995
0.00165856
0.00165596
0.00165281
0.00164944
0.00164579
0.00164368
0.00164117
0.00163553
0.00162632
0.00161359
0.00159685
0.00157424
0.00154195
0.00149372
0.00142107
0.00131739
0.00121162
0.000871215
)
;

boundaryField
{
    floor
    {
        Cmu             0.09;
        kappa           0.41;
        E               9.8;
        type            epsilonWallFunction;
        value           nonuniform List<scalar> 
29
(
0.000154184
8.19691e-06
7.07661e-06
5.33115e-06
3.89566e-06
3.35353e-06
3.24878e-06
3.41889e-06
3.94899e-06
4.57928e-06
5.17757e-06
5.58888e-06
5.59189e-06
5.51661e-06
5.84442e-06
6.84329e-06
8.87926e-06
1.13464e-05
2.03107e-05
1.41343e-05
1.41343e-05
4.92585e-05
0.00010512
0.000108752
0.000154184
8.19691e-06
2.05843e-05
6.1384e-05
0.00019714
)
;
    }
    ceiling
    {
        Cmu             0.09;
        kappa           0.41;
        E               9.8;
        type            epsilonWallFunction;
        value           nonuniform List<scalar> 
43
(
0.00136043
0.00338263
0.0260363
0.0146946
0.00660116
0.00371008
0.0028387
0.00234935
0.00204613
0.00185509
0.0017366
0.00166683
0.00162973
0.00161401
0.00161169
0.00161748
0.00162762
0.00163902
0.00164904
0.001656
0.00165947
0.00165995
0.00165856
0.00165596
0.00165281
0.00164944
0.00164579
0.00164368
0.00164117
0.00163553
0.00162632
0.00161359
0.00159685
0.00157424
0.00154195
0.00149372
0.00142107
0.00131739
0.00121162
0.000871215
0.00867532
0.0127704
0.0827576
)
;
    }
    sWall
    {
        Cmu             0.09;
        kappa           0.41;
        E               9.8;
        type            epsilonWallFunction;
        value           uniform 0.00136043;
    }
    nWall
    {
        Cmu             0.09;
        kappa           0.41;
        E               9.8;
        type            epsilonWallFunction;
        value           nonuniform List<scalar> 6(0.000115057 0.000250933 0.000434783 0.00139093 0.00244917 0.000871215);
    }
    sideWalls
    {
        type            empty;
    }
    glass1
    {
        Cmu             0.09;
        kappa           0.41;
        E               9.8;
        type            epsilonWallFunction;
        value           nonuniform List<scalar> 9(9.74313e-05 0.000501549 0.00136209 0.00283625 0.00493577 0.00757277 0.010152 0.0100631 0.00867532);
    }
    glass2
    {
        Cmu             0.09;
        kappa           0.41;
        E               9.8;
        type            epsilonWallFunction;
        value           nonuniform List<scalar> 2(0.000646856 0.000910696);
    }
    sun
    {
        Cmu             0.09;
        kappa           0.41;
        E               9.8;
        type            epsilonWallFunction;
        value           nonuniform List<scalar> 
14
(
9.74313e-05
0.000106917
7.6714e-05
8.19844e-05
8.90886e-05
9.63713e-05
0.00010391
0.000112076
0.000121072
0.000129759
0.000137873
0.000145046
0.000150853
0.000154667
)
;
    }
    heatsource1
    {
        Cmu             0.09;
        kappa           0.41;
        E               9.8;
        type            epsilonWallFunction;
        value           nonuniform List<scalar> 3(9.4187e-05 0.000105288 0.000115057);
    }
    heatsource2
    {
        Cmu             0.09;
        kappa           0.41;
        E               9.8;
        type            epsilonWallFunction;
        value           nonuniform List<scalar> 4(0.00020404 4.5242e-05 4.5242e-05 0.000237426);
    }
    Table_master
    {
        Cmu             0.09;
        kappa           0.41;
        E               9.8;
        type            epsilonWallFunction;
        value           nonuniform List<scalar> 9(8.84739e-06 1.05077e-05 1.27397e-05 1.55298e-05 1.92633e-05 2.46937e-05 3.31902e-05 4.79769e-05 7.70452e-05);
    }
    Table_slave
    {
        Cmu             0.09;
        kappa           0.41;
        E               9.8;
        type            epsilonWallFunction;
        value           nonuniform List<scalar> 9(6.10142e-05 5.96364e-05 5.91952e-05 5.95812e-05 6.11523e-05 6.44417e-05 7.04483e-05 8.14775e-05 0.000103764);
    }
    inlet
    {
        type            turbulentMixingLengthDissipationRateInlet;
        mixingLength    0.01;
        phi             phi;
        k               k;
        value           uniform 3.77337e-06;
    }
    outlet
    {
        type            zeroGradient;
    }
}


// ************************************************************************* //
