/*--------------------------------*- C++ -*----------------------------------*\
  =========                 |
  \\      /  F ield         | OpenFOAM: The Open Source CFD Toolbox
   \\    /   O peration     | Website:  https://openfoam.org
    \\  /    A nd           | Version:  6
     \\/     M anipulation  |
\*---------------------------------------------------------------------------*/
FoamFile
{
    version     2.0;
    format      ascii;
    class       volScalarField;
    location    "900";
    object      T;
}
// * * * * * * * * * * * * * * * * * * * * * * * * * * * * * * * * * * * * * //

dimensions      [0 0 0 1 0 0 0];

internalField   nonuniform List<scalar> 
459
(
306.913
306.71
306.706
306.71
306.713
306.716
306.717
306.718
306.718
306.717
306.713
306.707
306.699
306.688
306.673
305.71
305.673
305.639
305.618
305.618
305.629
305.644
305.655
305.662
305.668
305.673
305.674
305.674
305.682
305.706
305.751
305.791
305.865
305.956
307.083
306.796
306.78
306.788
306.796
306.802
306.806
306.808
306.807
306.803
306.794
306.781
306.76
306.732
306.694
306.657
306.54
305.832
305.863
305.863
305.866
305.874
305.881
305.883
305.885
305.889
305.9
305.918
305.949
305.984
306.025
306.08
306.14
306.117
306.1
306.191
307.237
306.878
306.843
306.851
306.865
306.876
306.885
306.891
306.893
306.89
306.88
306.863
306.834
306.792
306.735
306.668
306.609
306.154
306.154
306.173
306.191
306.197
306.176
306.102
306.131
306.164
306.199
306.236
306.276
306.323
306.382
306.457
306.529
306.506
306.454
306.449
307.378
306.975
306.92
306.92
306.936
306.952
306.966
306.977
306.984
306.985
306.977
306.96
306.929
306.882
306.816
306.727
306.615
306.506
306.438
306.513
306.576
306.628
306.663
306.686
306.704
306.706
306.707
306.709
306.711
306.713
306.715
306.716
306.713
306.702
306.7
306.693
306.676
307.511
307.091
307.032
307.02
307.027
307.04
307.055
307.069
307.079
307.083
307.079
307.066
307.04
307.001
306.949
306.887
306.822
306.765
306.725
306.723
306.735
306.748
306.757
306.76
306.76
306.759
306.758
306.758
306.759
306.761
306.764
306.767
306.77
306.773
306.779
306.785
306.794
306.806
306.814
306.819
307.633
307.227
307.192
307.18
307.168
307.163
307.167
307.173
307.179
307.182
307.18
307.169
307.147
307.114
307.07
307.017
306.962
306.912
306.875
306.854
306.842
306.835
306.829
306.824
306.818
306.813
306.809
306.806
306.804
306.803
306.803
306.804
306.805
306.808
306.811
306.816
306.823
306.833
306.844
306.854
307.751
307.396
307.418
307.406
307.367
307.335
307.316
307.303
307.293
307.284
307.276
307.264
307.245
307.217
307.18
307.132
307.084
307.037
306.997
306.967
306.943
306.925
306.911
306.899
306.888
306.879
306.87
306.863
306.857
306.852
306.848
306.844
306.841
306.838
306.835
306.834
306.836
306.844
306.855
306.867
307.91
307.661
307.648
307.606
307.553
307.504
307.466
307.436
307.411
307.389
307.368
307.348
307.327
307.302
307.27
307.233
307.191
307.149
307.109
307.075
307.046
307.022
307.001
306.984
306.968
306.955
306.942
306.931
306.92
306.911
306.902
306.893
306.885
306.876
306.868
306.859
306.853
306.853
306.86
306.873
308.126
308.015
307.766
307.683
307.624
307.576
307.537
307.503
307.474
307.449
307.427
307.405
307.383
307.359
307.333
307.304
307.271
307.237
307.203
307.171
307.142
307.116
307.092
307.071
307.052
307.034
307.018
307.002
306.988
306.974
306.96
306.947
306.934
306.921
306.908
306.894
306.882
306.871
306.868
306.873
306.713
307.333
307.461
307.476
307.473
307.463
307.449
307.435
307.421
307.406
307.391
307.375
307.358
307.338
307.316
307.292
307.266
307.241
307.215
307.19
307.167
307.145
307.124
307.104
307.084
307.066
307.048
307.03
307.013
306.996
306.98
306.963
306.946
306.928
306.911
306.894
306.881
306.872
306.835
307.161
307.244
307.317
307.362
307.383
307.391
307.391
307.388
307.382
307.374
307.364
307.354
307.341
307.327
307.311
307.293
307.274
307.253
307.233
307.212
307.191
307.17
307.15
307.129
307.109
307.089
307.07
307.05
307.031
307.011
306.991
306.971
306.95
306.929
306.907
306.885
306.873
309.147
308.734
307.037
307.069
307.121
307.203
307.267
307.302
307.321
307.33
307.334
307.335
307.333
307.329
307.323
307.316
307.308
307.298
307.286
307.273
307.259
307.243
307.226
307.209
307.191
307.172
307.152
307.132
307.112
307.091
307.07
307.049
307.027
307.004
306.98
306.955
306.927
306.895
306.853
306.785
)
;

boundaryField
{
    floor
    {
        type            wallHeatTransfer;
        Tinf            uniform 305.2;
        alphaWall       uniform 0.24;
        value           nonuniform List<scalar> 
29
(
306.47
305.577
305.546
305.515
305.493
305.49
305.497
305.508
305.519
305.528
305.535
305.541
305.541
305.541
305.548
305.57
305.61
305.646
305.721
305.779
305.779
306.013
306.26
306.455
306.47
305.577
305.695
305.991
306.336
)
;
    }
    ceiling
    {
        type            wallHeatTransfer;
        Tinf            uniform 303.2;
        alphaWall       uniform 0.24;
        value           nonuniform List<scalar> 
43
(
308.669
308.386
306.901
306.907
306.916
306.958
306.999
307.018
307.025
307.026
307.024
307.022
307.018
307.013
307.008
307.002
306.994
306.986
306.976
306.964
306.951
306.936
306.921
306.905
306.888
306.87
306.852
306.833
306.815
306.795
306.775
306.755
306.734
306.712
306.688
306.662
306.633
306.598
306.552
306.464
307.887
307.805
306.742
)
;
    }
    sWall
    {
        type            wallHeatTransfer;
        Tinf            uniform 315.2;
        alphaWall       uniform 0.36;
        value           uniform 309.849;
    }
    nWall
    {
        type            wallHeatTransfer;
        Tinf            uniform 307.2;
        alphaWall       uniform 0.36;
        value           nonuniform List<scalar> 6(306.898 306.914 306.918 306.91 306.906 306.839);
    }
    sideWalls
    {
        type            empty;
    }
    glass1
    {
        type            wallHeatTransfer;
        Tinf            uniform 315.2;
        alphaWall       uniform 4.3;
        value           nonuniform List<scalar> 9(313.281 312.579 312.11 311.765 311.517 311.34 311.241 311.331 311.523);
    }
    glass2
    {
        type            wallHeatTransfer;
        Tinf            uniform 307.2;
        alphaWall       uniform 4.3;
        value           nonuniform List<scalar> 2(307.088 307.081);
    }
    sun
    {
        type            wallHeatTransfer;
        Tinf            uniform 305.2;
        alphaWall       uniform 0.24;
        value           nonuniform List<scalar> 
14
(
306.65
306.482
306.461
306.468
306.476
306.482
306.487
306.492
306.496
306.498
306.499
306.496
306.491
306.483
)
;
    }
    heatsource1
    {
        type            fixedGradient;
        gradient        uniform 0;
    }
    heatsource2
    {
        type            fixedGradient;
        gradient        uniform 0;
    }
    Table_master
    {
        type            zeroGradient;
    }
    Table_slave
    {
        type            zeroGradient;
    }
    inlet
    {
        type            fixedValue;
        value           uniform 299.15;
    }
    outlet
    {
        type            zeroGradient;
    }
}


// ************************************************************************* //
