/*--------------------------------*- C++ -*----------------------------------*\
  =========                 |
  \\      /  F ield         | OpenFOAM: The Open Source CFD Toolbox
   \\    /   O peration     | Website:  https://openfoam.org
    \\  /    A nd           | Version:  6
     \\/     M anipulation  |
\*---------------------------------------------------------------------------*/
FoamFile
{
    version     2.0;
    format      ascii;
    class       volScalarField;
    location    "700";
    object      nut;
}
// * * * * * * * * * * * * * * * * * * * * * * * * * * * * * * * * * * * * * //

dimensions      [0 2 -1 0 0 0 0];

internalField   nonuniform List<scalar> 
459
(
0.000886117
0.000961649
0.000975934
0.00102187
0.00106413
0.00110334
0.00114125
0.00118011
0.00121357
0.00123618
0.00124323
0.00122989
0.00119138
0.0011234
0.00103025
0.000593118
0.000793779
0.000756479
0.000715861
0.000680175
0.000646132
0.00060846
0.00057177
0.000538273
0.000508332
0.000481642
0.000457632
0.000435775
0.000415495
0.000396068
0.00037639
0.000355999
0.000326526
0.000342124
0.0012239
0.0027747
0.00256836
0.00296871
0.00335488
0.00375916
0.00414512
0.00445204
0.00473279
0.00499601
0.00520868
0.0053243
0.00526547
0.00485367
0.00356411
0.00107393
0.000680434
0.000799226
0.00223274
0.00209533
0.00218471
0.00224949
0.00218848
0.00175727
0.00152514
0.00136067
0.0012324
0.00112439
0.00103027
0.000945272
0.000864531
0.000786883
0.00072207
0.00071863
0.00065016
0.000433952
0.00151023
0.0037675
0.00310209
0.00395241
0.00432676
0.00460369
0.00482089
0.00499857
0.00520374
0.00545728
0.00573994
0.00601756
0.00623614
0.00629849
0.0060089
0.00483185
0.00104835
0.00101089
0.00182542
0.0023959
0.00278316
0.00299166
0.00278811
0.000817906
0.000722331
0.000646791
0.000586693
0.0005384
0.000499187
0.000467172
0.000441337
0.000421823
0.000475267
0.000611096
0.000732011
0.000475443
0.00178871
0.00487025
0.00302266
0.00415385
0.00446638
0.00452926
0.00453945
0.00458697
0.0047264
0.00497018
0.00529965
0.00568735
0.00608683
0.00641314
0.00656872
0.00625916
0.00483384
0.00129631
0.00193298
0.00261212
0.00322214
0.00365598
0.00386843
0.003503
0.000901782
0.000826962
0.000779362
0.0007475
0.000723383
0.000700729
0.000674224
0.000646899
0.000614209
0.000587817
0.000627644
0.000836708
0.000534978
0.00207285
0.00631103
0.00321913
0.00390657
0.0043495
0.00428973
0.00415536
0.00412745
0.00425686
0.00450848
0.00486463
0.00530518
0.00577755
0.0061597
0.00640175
0.00641746
0.00607035
0.00520113
0.00502737
0.00503117
0.00504976
0.00503424
0.00496204
0.00473712
0.00402534
0.00374283
0.00361103
0.00353023
0.00345559
0.00335736
0.00319613
0.00286674
0.00240343
0.00186534
0.00141361
0.00126308
0.0008945
0.000608757
0.000599147
0.000574445
0.00237232
0.00789821
0.00442593
0.00357737
0.00405137
0.00413643
0.00404137
0.00390507
0.00405247
0.00430669
0.00467513
0.0051362
0.0056156
0.00601546
0.00626322
0.00633804
0.0062756
0.00614171
0.0060612
0.00596346
0.00581592
0.00562768
0.00541974
0.00519975
0.00495775
0.00479255
0.0046793
0.00459201
0.0045144
0.00442613
0.00429335
0.00404694
0.00364765
0.00310548
0.00251207
0.00205678
0.00159733
0.00123927
0.0013498
0.000715935
0.00266365
0.00913034
0.00664937
0.00435406
0.00385431
0.00393371
0.00401059
0.00401198
0.00409815
0.00431663
0.0046896
0.00517893
0.00569131
0.00611443
0.00636972
0.00645346
0.00644305
0.00641118
0.00634158
0.0061765
0.00593143
0.00565687
0.00539931
0.00518721
0.00502814
0.00491648
0.00482904
0.00475689
0.00470037
0.00464879
0.0045694
0.00442763
0.00418582
0.0038047
0.00332504
0.00284536
0.00234346
0.00187133
0.00174636
0.000844212
0.00273837
0.00873414
0.00729122
0.00610569
0.0052268
0.00480493
0.00450905
0.00428214
0.00425864
0.00447334
0.00489628
0.00544155
0.00599132
0.00642592
0.00667112
0.00672915
0.00667246
0.00654131
0.00632763
0.00604111
0.00574927
0.00549364
0.00529067
0.00513698
0.00501676
0.00490896
0.00479869
0.0046889
0.0045952
0.00452277
0.00443962
0.00431168
0.00417339
0.00400227
0.00371398
0.00339825
0.00304814
0.00250399
0.0026582
0.00106418
0.0026806
0.00322897
0.0037384
0.00389205
0.00389931
0.00383941
0.00382096
0.00393912
0.00424128
0.00472739
0.00533099
0.00595306
0.0065
0.00687844
0.00703846
0.00698826
0.00678309
0.00648721
0.00619089
0.00593387
0.00572918
0.0055719
0.00544864
0.00534068
0.00522758
0.00509047
0.00491739
0.00470993
0.00448508
0.00425967
0.00400473
0.00365208
0.00323052
0.00285984
0.0025652
0.00231159
0.00210104
0.0019303
0.00181705
0.00113998
0.00220698
0.00360673
0.00394547
0.00415859
0.00443678
0.00483948
0.00532619
0.00583811
0.00633651
0.00679222
0.00716212
0.00734968
0.00731119
0.00710706
0.00687257
0.00667391
0.00651722
0.00639035
0.00628471
0.00619454
0.00611192
0.0060254
0.00591968
0.00577532
0.00557023
0.00528474
0.00491178
0.00446968
0.00400053
0.00352461
0.00307489
0.00269861
0.0024178
0.00223293
0.00210898
0.00200092
0.00192863
0.00135534
0.00203591
0.00367007
0.00420093
0.00473694
0.00546395
0.00612935
0.00658364
0.00699654
0.00740806
0.00780049
0.00813028
0.00825009
0.00814077
0.0079117
0.00769372
0.00754851
0.00745032
0.00735793
0.0072684
0.00718929
0.00712277
0.00706978
0.0070269
0.00698057
0.00690201
0.00674739
0.00646849
0.00603573
0.00548565
0.00487547
0.00426164
0.00369815
0.00322123
0.00284803
0.00256705
0.0023714
0.0031557
0.00153751
0.00150944
0.00164658
0.0017921
0.00183925
0.00171351
0.00167013
0.00164778
0.00165888
0.00171483
0.00177499
0.00182804
0.00186277
0.00187059
0.00185087
0.00181734
0.00178686
0.00176456
0.0017476
0.00173407
0.00172424
0.00171714
0.0017121
0.00170903
0.00170707
0.00170407
0.00169636
0.00167928
0.00164886
0.00160463
0.00155297
0.00149856
0.00144504
0.00139642
0.00135563
0.00132528
0.00130573
0.00129228
0.00127639
0.00131669
0.00127859
)
;

boundaryField
{
    floor
    {
        type            nutkWallFunction;
        Cmu             0.09;
        kappa           0.41;
        E               9.8;
        value           nonuniform List<scalar> 
29
(
0.000124294
7.1474e-05
9.61446e-05
9.16208e-05
8.66646e-05
8.22825e-05
7.80767e-05
7.33912e-05
6.87942e-05
6.45658e-05
6.07591e-05
5.73424e-05
5.42488e-05
5.14149e-05
4.87696e-05
4.62204e-05
4.36219e-05
4.09112e-05
3.69576e-05
3.90582e-05
3.90581e-05
5.11781e-05
5.65454e-05
6.41479e-05
0.000124294
7.1474e-05
9.6803e-05
0.000122021
0.000155097
)
;
    }
    ceiling
    {
        type            nutkWallFunction;
        Cmu             0.09;
        kappa           0.41;
        E               9.8;
        value           nonuniform List<scalar> 
43
(
0.000179197
0.000194527
0.000210645
0.000215869
0.000201997
0.000197189
0.000194708
0.00019595
0.000202171
0.000208834
0.00021469
0.000218514
0.000219377
0.000217211
0.000213521
0.00021016
0.000207697
0.000205822
0.000204324
0.000203235
0.000202449
0.00020189
0.00020155
0.000201332
0.000200999
0.000200143
0.000198247
0.000194863
0.00018993
0.000184151
0.00017804
0.000172006
0.000166503
0.000161869
0.000158412
0.00015618
0.000154642
0.000152823
0.000157432
0.000153076
0.000306663
0.000364088
0.000237317
)
;
    }
    sWall
    {
        type            nutkWallFunction;
        Cmu             0.09;
        kappa           0.41;
        E               9.8;
        value           uniform 0.000179242;
    }
    nWall
    {
        type            nutkWallFunction;
        Cmu             0.09;
        kappa           0.41;
        E               9.8;
        value           nonuniform List<scalar> 6(6.91162e-05 8.66694e-05 0.000102225 0.000161855 0.000182439 0.000153092);
    }
    sideWalls
    {
        type            empty;
    }
    glass1
    {
        type            nutkWallFunction;
        Cmu             0.09;
        kappa           0.41;
        E               9.8;
        value           nonuniform List<scalar> 9(0.000107269 0.000146911 0.000179529 0.000210594 0.000241752 0.000274098 0.000305151 0.000313061 0.00030696);
    }
    glass2
    {
        type            nutkWallFunction;
        Cmu             0.09;
        kappa           0.41;
        E               9.8;
        value           nonuniform List<scalar> 2(0.000128299 0.000137134);
    }
    sun
    {
        type            nutkWallFunction;
        Cmu             0.09;
        kappa           0.41;
        E               9.8;
        value           nonuniform List<scalar> 
14
(
0.00010724
0.000116215
0.000117903
0.000123313
0.000128264
0.000132838
0.000137244
0.000141743
0.000145603
0.000148205
0.000149015
0.000147481
0.000143044
0.000135171
)
;
    }
    heatsource1
    {
        type            nutkWallFunction;
        Cmu             0.09;
        kappa           0.41;
        E               9.8;
        value           nonuniform List<scalar> 3(7.34223e-05 7.22211e-05 6.91226e-05);
    }
    heatsource2
    {
        type            nutkWallFunction;
        Cmu             0.09;
        kappa           0.41;
        E               9.8;
        value           nonuniform List<scalar> 4(0.000129414 8.231e-05 8.231e-05 0.000126422);
    }
    Table_master
    {
        type            nutkWallFunction;
        Cmu             0.09;
        kappa           0.41;
        E               9.8;
        value           nonuniform List<scalar> 9(9.90583e-05 8.74542e-05 7.81535e-05 7.06607e-05 6.45721e-05 5.95789e-05 5.54663e-05 5.21218e-05 4.95795e-05);
    }
    Table_slave
    {
        type            nutkWallFunction;
        Cmu             0.09;
        kappa           0.41;
        E               9.8;
        value           nonuniform List<scalar> 9(0.000109111 0.000100149 9.43989e-05 9.05266e-05 8.75826e-05 8.48067e-05 8.15451e-05 7.81664e-05 7.41018e-05);
    }
    inlet
    {
        type            calculated;
        value           uniform 6.7082e-05;
    }
    outlet
    {
        type            calculated;
        value           nonuniform List<scalar> 2(0.00150944 0.00164658);
    }
}


// ************************************************************************* //
