/*--------------------------------*- C++ -*----------------------------------*\
  =========                 |
  \\      /  F ield         | OpenFOAM: The Open Source CFD Toolbox
   \\    /   O peration     | Website:  https://openfoam.org
    \\  /    A nd           | Version:  6
     \\/     M anipulation  |
\*---------------------------------------------------------------------------*/
FoamFile
{
    version     2.0;
    format      ascii;
    class       surfaceScalarField;
    location    "1700";
    object      phi;
}
// * * * * * * * * * * * * * * * * * * * * * * * * * * * * * * * * * * * * * //

dimensions      [1 0 -1 0 0 0 0];

internalField   nonuniform List<scalar> 
852
(
-0.00288475
0.00293965
-0.00387933
0.000994543
-0.00466986
0.000790499
-0.00531312
0.000643223
-0.00578659
0.000473436
-0.00607298
0.000286362
-0.00614995
7.69272e-05
-0.00599064
-0.000159343
-0.0055773
-0.000413378
-0.00492493
-0.000652412
-0.00408576
-0.000839204
-0.00313763
-0.000948171
-0.00215455
-0.000983124
-0.0011509
-0.00100368
-0.00114987
-0.000562184
0.000564199
-0.000114293
-0.000447903
0.000535582
-0.000649891
0.000998631
-0.000463063
0.00128214
-0.000283516
0.00144055
-0.000158423
0.00152168
-8.11337e-05
0.00156585
-4.41728e-05
0.00159299
-2.71307e-05
0.00161082
-1.78297e-05
0.00162299
-1.21675e-05
0.00163053
-7.54214e-06
0.00163037
1.68787e-07
0.00161182
1.85481e-05
0.00154844
6.33787e-05
0.00139531
0.000153124
0.0011243
0.000270998
0.000742713
0.000381568
0.000745321
-0.00205281
0.00514076
-0.00301418
0.00195588
-0.0038156
0.00159189
-0.00443659
0.00126418
-0.00488999
0.000926809
-0.00517016
0.000566491
-0.00525431
0.000161047
-0.00511301
-0.000300683
-0.00473443
-0.000792003
-0.00414583
-0.00124105
-0.00340975
-0.00157533
-0.00260803
-0.00174993
-0.00182554
-0.00176566
-0.00118235
-0.0016469
-0.000972814
-0.00135944
-0.000231285
-0.000741613
-0.00023136
0.000471009
9.88196e-05
0.000959832
-0.000936746
0.00123454
-0.00092462
0.0014499
-0.00067845
0.00158704
-0.000420675
0.00164669
-0.000218087
0.00165222
-8.66744e-05
0.00165646
-4.84195e-05
0.00166026
-3.0941e-05
0.00166315
-2.07181e-05
0.00166517
-1.41829e-05
0.00166632
-8.68623e-06
0.0016654
1.08353e-06
0.00165778
2.61749e-05
0.00161273
0.000108423
0.001425
0.000340851
0.00109584
0.000600147
0.000665803
0.000811585
0.00141826
-0.00143481
0.0068025
-0.00225546
0.0027765
-0.00294809
0.00228448
-0.00346102
0.00177708
-0.00384182
0.00130758
-0.00408575
0.000810382
-0.00415961
0.000234872
-0.00401541
-0.000444914
-0.00364315
-0.00116431
-0.0030902
-0.00179405
-0.00242881
-0.00223678
-0.00173865
-0.00244014
-0.00109043
-0.00241393
-0.000561769
-0.00217561
-0.000196409
-0.00172484
0.000113995
-0.00105205
-0.000117398
0.00157628
-0.00147162
0.00178353
-0.00114402
0.00178349
-0.000924614
0.00179619
-0.000691173
0.00180652
-0.000431037
0.00174816
-0.000159751
0.00166162
0.00161334
0.00158255
0.00156198
0.00154795
0.00153942
0.00154066
0.00156698
0.00167556
0.00138894
0.000627465
0.00104104
0.000948038
0.000587829
0.00126478
0.00201728
-0.00100583
0.00810178
-0.00165674
0.00342738
-0.00208992
0.00271762
-0.00240583
0.00209297
-0.00264659
0.00154831
-0.00280176
0.000965514
-0.00282224
0.000255325
-0.00263405
-0.000633145
-0.00224805
-0.00155035
-0.00174251
-0.00229966
-0.00119081
-0.00278854
-0.000656051
-0.00297497
-0.000173708
-0.00289633
0.000238704
-0.00258807
0.000607777
-0.00209396
0.0010396
-0.00148391
0.00182695
-0.000904788
0.00258113
-0.000748692
0.00211522
-0.00100574
0.00198249
-0.00101133
0.00187382
-0.000815977
0.00178972
-0.000607106
0.00175954
-0.000400878
0.00180349
-0.000203731
0.00186696
-6.36417e-05
0.00190359
-3.67979e-05
0.00192509
-2.16647e-05
0.00192871
-3.77823e-06
0.00190421
2.43455e-05
0.00183798
6.6078e-05
0.00171228
0.000125554
0.00150147
0.000210656
0.00115644
0.00034489
0.00107555
0.000708347
0.000838965
0.00118462
0.000464409
0.00163931
0.0024966
-0.00071273
0.00916393
-0.00121498
0.0039296
-0.00127236
0.00277498
-0.00131608
0.00213665
-0.00135535
0.00158755
-0.00136111
0.000971247
-0.0012443
0.000138495
-0.000946677
-0.000930804
-0.000548119
-0.00194896
-0.000133304
-0.00271454
0.000241799
-0.00316372
0.000552741
-0.00328597
0.000796879
-0.00314052
0.000994853
-0.00278609
0.00118767
-0.00228681
0.00142853
-0.00172481
0.00174597
-0.00122227
0.00194819
-0.000950949
0.00183199
-0.000889577
0.00164386
-0.000823231
0.00149387
-0.00066602
0.00138047
-0.000493732
0.00131532
-0.000335744
0.00130754
-0.000195978
0.00134659
-0.000102697
0.00137816
-6.83778e-05
0.00140889
-5.24065e-05
0.00143459
-2.94805e-05
0.00144413
1.48055e-05
0.00142428
8.59341e-05
0.00136473
0.000185097
0.00125685
0.000318548
0.00110141
0.00050033
0.000987494
0.000822262
0.000881474
0.00129063
0.000634778
0.001886
0.000604085
0.00252727
-0.000994424
0.00159829
-0.0014402
0.000445564
-0.0013969
-0.000631259
0.0101913
-0.000995504
0.00429382
-0.000560141
0.0023396
-0.000214036
0.00179053
2.88667e-05
0.00134463
0.000256925
0.000743176
0.000611278
-0.000215863
0.00103327
-0.00135283
0.00138528
-0.00230104
0.00162326
-0.0029526
0.00174284
-0.00328338
0.00177048
-0.00331369
0.00173081
-0.00310092
0.00165501
-0.00271034
0.00158091
-0.00221276
0.00154018
-0.00168411
0.00153043
-0.00121255
0.00147158
-0.000892135
0.00130575
-0.000723776
0.00109094
-0.000608446
0.000910391
-0.000485494
0.00078412
-0.000367481
0.000716246
-0.000267885
0.000707551
-0.000187295
0.000740872
-0.000136027
0.000787815
-0.000115325
0.000840868
-0.000105462
0.000896911
-8.55249e-05
0.000949405
-3.7688e-05
0.000986408
4.89331e-05
0.00100139
0.000170119
0.000997539
0.0003224
0.000980659
0.000517212
0.0010031
0.000799822
0.00111456
0.00117917
0.00131855
0.00168199
0.00177271
0.00207309
0.00200785
0.00136313
0.0016259
0.000827507
0.000281711
-0.000732191
0.0113612
-0.000649415
0.00421102
0.000450992
0.00123918
0.00116155
0.00107996
0.00166397
0.000842218
0.00222102
0.000186127
0.00281279
-0.000807644
0.00322414
-0.00176422
0.00341136
-0.00248834
0.0033867
-0.00292804
0.0031881
-0.00308489
0.0028696
-0.00299528
0.00248537
-0.00271676
0.00208319
-0.00230821
0.00170475
-0.00183436
0.00137677
-0.00135616
0.0011018
-0.000937599
0.000853802
-0.000644162
0.000604676
-0.000474672
0.000376054
-0.000379843
0.000202254
-0.00031171
9.40299e-05
-0.000259269
4.62916e-05
-0.000220155
4.98109e-05
-0.000190819
8.7074e-05
-0.000173292
0.000139332
-0.000167584
0.000198813
-0.000164943
0.000266919
-0.000153629
0.000348469
-0.000119236
0.00043968
-4.22765e-05
0.000530514
7.9287e-05
0.00062522
0.000227697
0.000736921
0.000405514
0.000904343
0.0006324
0.00118147
0.000902041
0.00161745
0.001246
0.00228088
0.00140965
0.0027815
0.000862499
0.00287247
0.000736523
0.003215
0.0024831
0.00936696
0.00311651
0.00357758
0.00343899
0.000916679
0.00392021
0.000598737
0.00449381
0.000268617
0.00514882
-0.000468872
0.00558864
-0.00124751
0.0056838
-0.00185949
0.00545544
-0.00226011
0.00496977
-0.0024425
0.00430862
-0.00242385
0.00355643
-0.00224318
0.00278738
-0.00194778
0.00205224
-0.0015731
0.00139404
-0.00117618
0.00083666
-0.000798802
0.000386526
-0.000487479
3.86358e-05
-0.000296285
-0.000226889
-0.000209159
-0.000419672
-0.000187069
-0.00054697
-0.000184418
-0.000619244
-0.000186998
-0.000649471
-0.00018993
-0.000649159
-0.00019113
-0.000630541
-0.000191908
-0.000604612
-0.000193512
-0.000575514
-0.000194039
-0.000539686
-0.000189455
-0.000485498
-0.000173422
-0.000392326
-0.000135446
-0.000260339
-5.26979e-05
-0.000103401
7.07609e-05
8.91557e-05
0.000212958
0.000345337
0.000376219
0.000689152
0.000558225
0.00117788
0.000757263
0.00176366
0.000823863
0.00197427
0.000651872
0.000999208
0.00171157
0.00444262
0.00989912
0.0134661
0.0123159
0.00206687
0.0115146
0.00139998
0.010896
0.000887125
0.0102223
0.000204815
0.00930832
-0.000333787
0.00820017
-0.000751591
0.00697739
-0.00103755
0.00570585
-0.00117114
0.00444784
-0.00116596
0.00326053
-0.00105594
0.00218958
-0.000876866
0.00124278
-0.000626323
0.000444961
-0.000378359
-0.000176853
-0.000176985
-0.000607074
-5.72593e-05
-0.00088162
-2.17417e-05
-0.00106321
-2.75744e-05
-0.0011934
-5.68701e-05
-0.00128384
-9.39782e-05
-0.00134415
-0.000126689
-0.00138397
-0.000150105
-0.00141162
-0.000163471
-0.00143602
-0.000167513
-0.00146675
-0.000162771
-0.00151196
-0.000148831
-0.00157783
-0.000123587
-0.00166922
-8.20235e-05
-0.00178838
-1.62827e-05
-0.00193062
8.9541e-05
-0.00210032
0.000240461
-0.00233813
0.000450761
-0.00270061
0.000738701
-0.00326351
0.00112112
-0.00410546
0.00159921
-0.00535666
0.00207505
-0.00701056
0.00230577
-0.00695248
0.00165348
-0.00225823
0.00470374
0.0035089
0.00412065
0.00198235
0.00482996
0.000176927
0.00500763
2.62932e-05
0.00469951
-2.62228e-05
0.00413784
-0.000190249
0.00341562
-0.000315483
0.0025949
-0.000350469
0.00173615
-0.000307219
0.000888398
-0.000208161
7.87291e-05
-6.71666e-05
-0.000621645
7.41054e-05
-0.00113253
0.000132549
-0.00145661
0.000147104
-0.00164376
0.000129905
-0.00175749
9.1998e-05
-0.0018356
5.05355e-05
-0.00190296
1.05022e-05
-0.00196923
-2.77031e-05
-0.00203603
-5.98752e-05
-0.0021028
-8.3327e-05
-0.00216914
-9.71307e-05
-0.00223597
-0.000100672
-0.00230575
-9.29864e-05
-0.00238141
-7.31649e-05
-0.00246482
-4.01791e-05
-0.00255495
8.10866e-06
-0.00264421
7.29861e-05
-0.00272148
0.000166809
-0.00278861
0.000307586
-0.0028477
0.000509856
-0.00289902
0.000790011
-0.00293353
0.00115563
-0.00291189
0.00157757
-0.00279619
0.00195934
-0.00222659
0.00173617
-0.000779147
0.00020603
-0.00296758
-0.000370084
0.00394349
0.000589776
0.00102205
0.000396076
0.000370422
0.000241569
0.000180757
0.000116081
9.93082e-05
-0.000121371
4.73809e-05
-0.000479414
4.27004e-05
-0.000901861
7.20845e-05
-0.00132321
0.000114208
-0.00168884
0.000157525
-0.00195029
0.000194322
-0.00209202
0.000215856
-0.00216636
0.000206909
-0.00219669
0.000177457
-0.00220476
0.000137982
-0.00221034
9.75891e-05
-0.0022237
6.39103e-05
-0.00225099
3.78046e-05
-0.0023001
2.1426e-05
-0.00237118
1.12172e-05
-0.00245976
5.26109e-06
-0.00255968
2.79648e-06
-0.00266332
2.97805e-06
-0.00276157
5.27193e-06
-0.00284487
1.01369e-05
-0.00290426
1.92157e-05
-0.002932
3.58571e-05
-0.00292908
7.00688e-05
-0.00288524
0.000122975
-0.00278132
0.000203663
-0.00259328
0.000321813
-0.0022954
0.000492139
-0.0018611
0.000721325
-0.00122272
0.000939186
-0.000114745
0.000851364
0.00163473
-1.33109e-05
0.00318985
-0.00134908
0.000298363
-0.00678881
-0.00961903
-0.00563337
-0.00459281
-0.00421254
-0.00402676
-0.00392584
-0.00387952
-0.00384009
-0.00377317
-0.00366587
-0.00351697
-0.00333294
-0.00312899
-0.00293537
-0.00277224
-0.00264928
-0.00256716
-0.00251903
-0.00249726
-0.00249215
-0.00249753
-0.00250921
-0.00252372
-0.00253844
-0.00255123
-0.00255945
-0.0025588
-0.00254159
-0.00249012
-0.00238559
-0.00220012
-0.00189615
-0.00142143
-0.000717065
0.000205599
0.00104044
0.0010092
-0.000358531
)
;

boundaryField
{
    floor
    {
        type            calculated;
        value           nonuniform List<scalar> 
29
(
0
0
0
0
0
0
0
0
0
0
0
0
0
0
0
0
0
0
0
0
-2.63091e-06
-7.16384e-06
-1.1208e-05
-1.49399e-05
-1.0684e-06
-2.02248e-06
-5.63188e-06
-5.86536e-06
-5.52348e-06
)
;
    }
    ceiling
    {
        type            calculated;
        value           nonuniform List<scalar> 
43
(
-4.46556e-05
-4.34524e-05
-4.21569e-05
-1.84089e-05
-9.68936e-06
-4.88166e-06
-1.50577e-06
1.14285e-06
3.32201e-06
5.20334e-06
6.9497e-06
8.64684e-06
1.03208e-05
1.19221e-05
1.33068e-05
1.4349e-05
1.50409e-05
1.54831e-05
1.57946e-05
1.60593e-05
1.63235e-05
1.66174e-05
1.69518e-05
1.73213e-05
1.77062e-05
1.80709e-05
1.83722e-05
1.85731e-05
1.86528e-05
1.86072e-05
1.84516e-05
1.81951e-05
1.78484e-05
1.74257e-05
1.69598e-05
1.65231e-05
1.65285e-05
1.79331e-05
1.86528e-05
1.73229e-05
1.40826e-05
1.05768e-05
-6.47746e-05
)
;
    }
    sWall
    {
        type            calculated;
        value           uniform -0.000281171;
    }
    nWall
    {
        type            calculated;
        value           nonuniform List<scalar> 6(-4.35032e-05 -5.2731e-05 -6.08326e-05 -6.97897e-05 -7.60919e-05 -7.74797e-05);
    }
    sideWalls
    {
        type            empty;
        value           nonuniform 0();
    }
    glass1
    {
        type            calculated;
        value           nonuniform List<scalar> 9(-5.49312e-05 -0.000148337 -0.000226962 -0.000293495 -0.000349454 -0.000396164 -0.000437729 -0.000488909 -0.000546272);
    }
    glass2
    {
        type            calculated;
        value           nonuniform List<scalar> 2(-0.000228428 -0.000251634);
    }
    sun
    {
        type            calculated;
        value           uniform 0;
    }
    heatsource1
    {
        type            calculated;
        value           nonuniform List<scalar> 3(2.03274e-07 2.03263e-07 2.03278e-07);
    }
    heatsource2
    {
        type            calculated;
        value           nonuniform List<scalar> 4(5.08932e-08 5.10313e-08 0 0);
    }
    Table_master
    {
        type            calculated;
        value           nonuniform List<scalar> 9(-1.52477e-07 -1.52536e-07 -1.52559e-07 -1.52576e-07 -1.52589e-07 -1.52599e-07 -1.52606e-07 -1.52601e-07 -1.52568e-07);
    }
    Table_slave
    {
        type            calculated;
        value           nonuniform List<scalar> 9(1.52354e-07 1.5238e-07 1.52376e-07 1.52377e-07 1.52381e-07 1.52394e-07 1.52422e-07 1.52472e-07 1.52552e-07);
    }
    inlet
    {
        type            calculated;
        value           uniform -0.00614609;
    }
    outlet
    {
        type            calculated;
        value           nonuniform List<scalar> 2(0.00711465 0.00287367);
    }
}


// ************************************************************************* //
