// -*- C++ -*-
// File generated by PyFoam - sorry for the ugliness

FoamFile
{
 version 2.0;
 format ascii;
 class volVectorField;
 location "1700";
 object U;
}

dimensions [ 0 1 -1 0 0 0 0 ];

internalField nonuniform List<vector> 459
(
  (0.0345727 0.0837517 0)
  (-0.162684 0.0246878 0)
  (-0.186469 0.0181559 0)
  (-0.217663 0.0132489 0)
  (-0.241805 0.00796631 0)
  (-0.258402 0.00246286 0)
  (-0.266409 -0.00343232 0)
  (-0.264202 -0.00985584 0)
  (-0.251083 -0.0168518 0)
  (-0.227338 -0.0237383 0)
  (-0.1945 -0.0295931 0)
  (-0.155144 -0.0338474 0)
  (-0.112323 -0.0368941 0)
  (-0.0717667 -0.0405201 0)
  (-0.0500093 -0.0461423 0)
  (-0.000880419 0.00590752 0)
  (-0.0140027 -0.0197334 0)
  (0.013941 -0.0266401 0)
  (0.0326267 -0.018977 0)
  (0.0486094 -0.0122754 0)
  (0.0591957 -0.00764372 0)
  (0.0646764 -0.00485605 0)
  (0.06715 -0.00345139 0)
  (0.0683704 -0.00277383 0)
  (0.0691714 -0.00241601 0)
  (0.0697737 -0.00220471 0)
  (0.0701989 -0.00204788 0)
  (0.0703807 -0.00184234 0)
  (0.070059 -0.00137344 0)
  (0.0685337 -0.00021789 0)
  (0.0643844 0.00223175 0)
  (0.0559704 0.00532595 0)
  (0.0440277 0.00909224 0)
  (0.00297263 0.0219626 0)
  (0.208701 0.171425 0)
  (-0.152397 0.0642541 0)
  (-0.148615 0.0521712 0)
  (-0.180217 0.0422679 0)
  (-0.203364 0.0314876 0)
  (-0.219474 0.0197439 0)
  (-0.227619 0.00643177 0)
  (-0.225991 -0.00881678 0)
  (-0.213946 -0.0251587 0)
  (-0.192274 -0.0403611 0)
  (-0.162972 -0.0520511 0)
  (-0.129185 -0.0586396 0)
  (-0.0945783 -0.0600819 0)
  (-0.0640744 -0.0576516 0)
  (-0.0440922 -0.0510187 0)
  (-0.0275767 -0.0278861 0)
  (-0.0101247 0.00523981 0)
  (0.0507926 0.0275326 0)
  (0.0384735 -0.0257287 0)
  (0.0461581 -0.0327584 0)
  (0.0572456 -0.0253061 0)
  (0.0656819 -0.0157069 0)
  (0.0702978 -0.0077215 0)
  (0.0716268 -0.00293197 0)
  (0.0716074 -0.000502412 0)
  (0.0715245 0.000642848 0)
  (0.0716232 0.00122536 0)
  (0.0717623 0.00155364 0)
  (0.0718498 0.00180724 0)
  (0.071875 0.00223507 0)
  (0.0717379 0.00323775 0)
  (0.0708564 0.00583794 0)
  (0.066667 0.0128842 0)
  (0.0562794 0.0197102 0)
  (0.0446953 0.0262238 0)
  (-0.0247951 0.0465811 0)
  (0.369132 0.256248 0)
  (-0.171081 0.101896 0)
  (-0.109686 0.0836309 0)
  (-0.139839 0.0656417 0)
  (-0.159305 0.0478414 0)
  (-0.173366 0.0288651 0)
  (-0.180823 0.00734214 0)
  (-0.178761 -0.0172017 0)
  (-0.166412 -0.0430962 0)
  (-0.145487 -0.0663608 0)
  (-0.118609 -0.0832403 0)
  (-0.089148 -0.0915222 0)
  (-0.060214 -0.0911802 0)
  (-0.0347877 -0.0830614 0)
  (-0.0156123 -0.0669677 0)
  (-0.000107848 -0.0392305 0)
  (0.0114907 -0.000716958 0)
  (0.102799 -0.0550898 0)
  (0.0759123 -0.0526265 0)
  (0.0734325 -0.0439583 0)
  (0.0761479 -0.0323651 0)
  (0.0777756 -0.0204421 0)
  (0.0774038 -0.0103941 0)
  (0.0740708 -0.00902393 0)
  (0.0706597 -0.00694264 0)
  (0.0686088 -0.00580167 0)
  (0.0675765 -0.00514581 0)
  (0.066971 -0.00475304 0)
  (0.0665403 -0.00448904 0)
  (0.066344 -0.00418201 0)
  (0.0669328 -0.00339518 0)
  (0.0697658 -9.94083e-05 0)
  (0.0677021 0.0180254 0)
  (0.0546435 0.0321657 0)
  (0.0474334 0.044338 0)
  (-0.0496218 0.0733216 0)
  (0.513338 0.324193 0)
  (-0.20824 0.134979 0)
  (-0.0690708 0.10931 0)
  (-0.0976998 0.0844029 0)
  (-0.110371 0.0619853 0)
  (-0.119865 0.0380252 0)
  (-0.124763 0.00960706 0)
  (-0.119819 -0.0242356 0)
  (-0.10557 -0.0597896 0)
  (-0.0853236 -0.090155 0)
  (-0.0620496 -0.110763 0)
  (-0.0387903 -0.119487 0)
  (-0.0172897 -0.11719 0)
  (0.00184067 -0.104806 0)
  (0.0179249 -0.0836501 0)
  (0.0343797 -0.0559749 0)
  (0.060001 -0.0283915 0)
  (0.0947844 -0.0170293 0)
  (0.105522 -0.0449428 0)
  (0.091359 -0.0458712 0)
  (0.0820374 -0.0379658 0)
  (0.0779533 -0.0284293 0)
  (0.076007 -0.0182944 0)
  (0.0763607 -0.00729377 0)
  (0.0788904 -0.0039273 0)
  (0.0813359 -0.00344405 0)
  (0.0827837 -0.00310665 0)
  (0.0833556 -0.00268817 0)
  (0.0829453 -0.00201528 0)
  (0.0811179 -0.000981275 0)
  (0.0772102 0.000535695 0)
  (0.070235 0.00280631 0)
  (0.0570594 0.00638496 0)
  (0.0486112 0.0280705 0)
  (0.0409871 0.0464855 0)
  (0.0480582 0.0633352 0)
  (-0.0734269 0.0981326 0)
  (0.636272 0.376882 0)
  (-0.252299 0.162246 0)
  (-0.0297397 0.122738 0)
  (-0.0550927 0.0939865 0)
  (-0.0588325 0.0693163 0)
  (-0.0612752 0.0428882 0)
  (-0.0608904 0.00947504 0)
  (-0.0477695 -0.0333199 0)
  (-0.0305731 -0.0767076 0)
  (-0.0125534 -0.110808 0)
  (0.00448513 -0.131922 0)
  (0.0184999 -0.138442 0)
  (0.0297095 -0.133215 0)
  (0.0386706 -0.118699 0)
  (0.0464626 -0.0972475 0)
  (0.0552668 -0.0720785 0)
  (0.0678811 -0.0491483 0)
  (0.0805417 -0.0398409 0)
  (0.0833941 -0.0438824 0)
  (0.0762031 -0.0402907 0)
  (0.0674773 -0.0323716 0)
  (0.0613204 -0.0239708 0)
  (0.0575537 -0.0159911 0)
  (0.0562538 -0.00879684 0)
  (0.056888 -0.00420343 0)
  (0.0586328 -0.00205298 0)
  (0.0601521 -0.000949919 0)
  (0.0613669 0.000163592 0)
  (0.0622654 0.0018781 0)
  (0.0621625 0.00441286 0)
  (0.0606032 0.00791106 0)
  (0.0572314 0.012678 0)
  (0.0512308 0.0195193 0)
  (0.0450695 0.0348413 0)
  (0.0384696 0.0548029 0)
  (0.0559297 0.0777555 0)
  (-0.00574241 0.111291 0)
  (0.040252 0.0366482 0)
  (-0.0634425 -0.0373894 0)
  (-0.258937 -0.0578856 0)
  (0.722845 0.421303 0)
  (-0.293114 0.181117 0)
  (-0.00165737 0.116548 0)
  (-0.0126171 0.092864 0)
  (-0.00520307 0.0698812 0)
  (0.00143228 0.0414963 0)
  (0.0140779 0.00163497 0)
  (0.0378546 -0.0493341 0)
  (0.0555046 -0.0934643 0)
  (0.0678037 -0.124823 0)
  (0.0747702 -0.141887 0)
  (0.0770465 -0.145399 0)
  (0.0759658 -0.137734 0)
  (0.0728095 -0.121633 0)
  (0.06905 -0.100104 0)
  (0.0662941 -0.076546 0)
  (0.0656478 -0.0553021 0)
  (0.0651782 -0.0419094 0)
  (0.060746 -0.0364512 0)
  (0.0520654 -0.0313621 0)
  (0.0428272 -0.0248387 0)
  (0.0358969 -0.0183684 0)
  (0.0317319 -0.0126884 0)
  (0.030279 -0.00794037 0)
  (0.0309545 -0.00485483 0)
  (0.0328381 -0.00367074 0)
  (0.0350584 -0.00314503 0)
  (0.0373849 -0.00223061 0)
  (0.0397688 -0.000191243 0)
  (0.0419494 0.00330316 0)
  (0.0431447 0.00817793 0)
  (0.0434481 0.0145481 0)
  (0.0429055 0.0230024 0)
  (0.0430242 0.0362747 0)
  (0.0431382 0.0549196 0)
  (0.0640396 0.0794262 0)
  (0.0507727 0.103442 0)
  (0.0855057 0.0720246 0)
  (0.110214 0.0445449 0)
  (-0.131637 -0.0118446 0)
  (0.768607 0.461828 0)
  (-0.312034 0.166882 0)
  (0.0213081 0.0644382 0)
  (0.0435307 0.067521 0)
  (0.0608746 0.0583443 0)
  (0.0776925 0.0289961 0)
  (0.109965 -0.0202529 0)
  (0.134184 -0.068624 0)
  (0.147261 -0.106123 0)
  (0.149948 -0.130148 0)
  (0.144016 -0.140743 0)
  (0.131726 -0.139404 0)
  (0.115625 -0.128666 0)
  (0.0979659 -0.111234 0)
  (0.0806926 -0.0900735 0)
  (0.0653032 -0.0681185 0)
  (0.0526003 -0.0485145 0)
  (0.0419538 -0.0346041 0)
  (0.0314195 -0.0266008 0)
  (0.0208989 -0.0213696 0)
  (0.0118874 -0.016809 0)
  (0.00571111 -0.0129756 0)
  (0.00244109 -0.0100169 0)
  (0.00168199 -0.00778598 0)
  (0.00274899 -0.00647089 0)
  (0.00478963 -0.00607614 0)
  (0.00720027 -0.00588254 0)
  (0.00985822 -0.00519127 0)
  (0.0128509 -0.00331607 0)
  (0.0168188 0.000447749 0)
  (0.0210851 0.005959 0)
  (0.02502 0.012661 0)
  (0.0292838 0.020903 0)
  (0.0353853 0.0321044 0)
  (0.0428465 0.0468188 0)
  (0.0643775 0.0665784 0)
  (0.0783333 0.0799788 0)
  (0.108506 0.058396 0)
  (0.148868 0.0429177 0)
  (-0.0451965 0.0849669 0)
  (0.86984 0.465833 0)
  (-0.0760841 0.14665 0)
  (0.102794 -0.0169427 0)
  (0.170431 -0.029252 0)
  (0.184531 -0.0279868 0)
  (0.208582 -0.0478608 0)
  (0.235632 -0.0735898 0)
  (0.248208 -0.0966858 0)
  (0.244649 -0.113757 0)
  (0.227821 -0.122914 0)
  (0.201625 -0.123585 0)
  (0.169901 -0.11655 0)
  (0.136212 -0.103523 0)
  (0.103201 -0.0862242 0)
  (0.072904 -0.0669949 0)
  (0.0465649 -0.0480482 0)
  (0.0250072 -0.031649 0)
  (0.00841476 -0.0203666 0)
  (-0.00496072 -0.0142462 0)
  (-0.014597 -0.0116664 0)
  (-0.0214501 -0.0103033 0)
  (-0.0256752 -0.00954513 0)
  (-0.027761 -0.00912824 0)
  (-0.0282602 -0.00885718 0)
  (-0.0277217 -0.00875336 0)
  (-0.0266883 -0.00883282 0)
  (-0.0255054 -0.00890931 0)
  (-0.0242 -0.00871074 0)
  (-0.0225256 -0.00786368 0)
  (-0.0198302 -0.00582829 0)
  (-0.014405 -0.00201486 0)
  (-0.00763319 0.00316807 0)
  (-0.000670285 0.00897501 0)
  (0.00929029 0.0154961 0)
  (0.0208656 0.0222336 0)
  (0.0418233 0.0307055 0)
  (0.0637094 0.0294409 0)
  (0.0852663 0.00601398 0)
  (0.147243 0.0446086 0)
  (-0.411029 0.189675 0)
  (1.00998 0.42497 0)
  (0.481275 0.282642 0)
  (0.496982 0.187252 0)
  (0.518104 0.123031 0)
  (0.495802 0.0801975 0)
  (0.462106 0.0386381 0)
  (0.423567 -0.00249774 0)
  (0.379028 -0.0371563 0)
  (0.328292 -0.0613785 0)
  (0.273656 -0.0741622 0)
  (0.21829 -0.0767761 0)
  (0.164949 -0.0717205 0)
  (0.115957 -0.0616514 0)
  (0.0720916 -0.0481196 0)
  (0.0347214 -0.0334627 0)
  (0.00370644 -0.0196698 0)
  (-0.0192785 -0.00963362 0)
  (-0.0331702 -0.00533721 0)
  (-0.0425902 -0.00435935 0)
  (-0.049146 -0.0050774 0)
  (-0.0538328 -0.00625269 0)
  (-0.0569971 -0.0073938 0)
  (-0.0590594 -0.00833765 0)
  (-0.0604143 -0.00906404 0)
  (-0.0614396 -0.00964279 0)
  (-0.0625463 -0.0101185 0)
  (-0.0641259 -0.0104084 0)
  (-0.0664905 -0.0102516 0)
  (-0.0698561 -0.0091609 0)
  (-0.0743628 -0.00647978 0)
  (-0.0802763 -0.00158251 0)
  (-0.0866485 0.00511027 0)
  (-0.0947227 0.0135745 0)
  (-0.107111 0.0244895 0)
  (-0.126256 0.038425 0)
  (-0.154079 0.0550468 0)
  (-0.195398 0.071466 0)
  (-0.250384 0.0847875 0)
  (-0.325733 0.0923631 0)
  (-0.58003 0.0850202 0)
  (-0.178643 0.00374601 0)
  (0.131701 0.0212395 0)
  (0.227584 -0.000531016 0)
  (0.22139 -0.0178592 0)
  (0.208802 -0.0272265 0)
  (0.190696 -0.032498 0)
  (0.163606 -0.0347317 0)
  (0.130083 -0.0338694 0)
  (0.0934048 -0.0301897 0)
  (0.0562703 -0.0241917 0)
  (0.0211745 -0.0160856 0)
  (-0.0142603 -0.00515428 0)
  (-0.040109 0.00329228 0)
  (-0.0575559 0.00866722 0)
  (-0.0680235 0.0112389 0)
  (-0.0739328 0.0118702 0)
  (-0.0777625 0.0116857 0)
  (-0.080749 0.0110389 0)
  (-0.0836077 0.010111 0)
  (-0.0864661 0.00951334 0)
  (-0.089337 0.00953635 0)
  (-0.0921968 0.0101826 0)
  (-0.0950538 0.0113478 0)
  (-0.0979813 0.0128661 0)
  (-0.101098 0.0145 0)
  (-0.104534 0.0159658 0)
  (-0.108394 0.0170016 0)
  (-0.112545 0.0176037 0)
  (-0.116057 0.0191788 0)
  (-0.119057 0.0229923 0)
  (-0.121559 0.0300361 0)
  (-0.123532 0.0411033 0)
  (-0.124837 0.0564845 0)
  (-0.12489 0.0746432 0)
  (-0.121965 0.0890011 0)
  (-0.108697 0.0835609 0)
  (-0.0844266 0.0263227 0)
  (-0.182304 -0.174062 0)
  (0.00130203 0.189696 0)
  (0.0595639 0.0738826 0)
  (0.0216817 0.00900119 0)
  (0.0109629 -0.00136281 0)
  (0.00739898 -0.00230687 0)
  (0.00147679 -0.00681903 0)
  (-0.0116209 -0.0105043 0)
  (-0.0292219 -0.0116835 0)
  (-0.0482227 -0.0115865 0)
  (-0.0658133 -0.011493 0)
  (-0.0796309 -0.0123045 0)
  (-0.088196 -0.0149919 0)
  (-0.0925568 -0.020217 0)
  (-0.094596 -0.026946 0)
  (-0.095193 -0.034283 0)
  (-0.0953128 -0.0413776 0)
  (-0.0956019 -0.0475448 0)
  (-0.0964209 -0.052729 0)
  (-0.0980428 -0.0569446 0)
  (-0.100661 -0.0606957 0)
  (-0.104162 -0.0641555 0)
  (-0.108308 -0.0671884 0)
  (-0.112795 -0.0694798 0)
  (-0.117249 -0.070567 0)
  (-0.121251 -0.0699194 0)
  (-0.124394 -0.0670111 0)
  (-0.126369 -0.0613477 0)
  (-0.127013 -0.0526095 0)
  (-0.12616 -0.0415541 0)
  (-0.123041 -0.0282644 0)
  (-0.116575 -0.0127224 0)
  (-0.105508 0.00535526 0)
  (-0.088685 0.0258082 0)
  (-0.0656245 0.0458698 0)
  (-0.0383036 0.05739 0)
  (0.0161071 0.0286207 0)
  (0.144248 -0.0380262 0)
  (-0.0481737 -0.0825681 0)
  (0.000789462 -0.301833 0)
  (-0.395356 -0.120484 0)
  (-0.287818 0.0616966 0)
  (-0.232365 -0.0117902 0)
  (-0.193369 -0.0128696 0)
  (-0.177745 0.00282924 0)
  (-0.170962 0.0161601 0)
  (-0.16817 0.0271208 0)
  (-0.166582 0.0373486 0)
  (-0.164382 0.0473393 0)
  (-0.160735 0.0577225 0)
  (-0.155277 0.0688835 0)
  (-0.14802 0.0808449 0)
  (-0.139459 0.093139 0)
  (-0.130748 0.105197 0)
  (-0.122987 0.116644 0)
  (-0.116774 0.126827 0)
  (-0.112353 0.135375 0)
  (-0.109583 0.142366 0)
  (-0.108127 0.148188 0)
  (-0.107585 0.153224 0)
  (-0.107628 0.158031 0)
  (-0.10803 0.162729 0)
  (-0.108624 0.167074 0)
  (-0.109286 0.170557 0)
  (-0.109919 0.172492 0)
  (-0.110439 0.172211 0)
  (-0.11072 0.169252 0)
  (-0.110499 0.1635 0)
  (-0.109252 0.155373 0)
  (-0.106159 0.146262 0)
  (-0.0999686 0.137241 0)
  (-0.0888357 0.129504 0)
  (-0.0710065 0.124319 0)
  (-0.0464587 0.12292 0)
  (-0.0168853 0.125323 0)
  (0.0206707 0.126048 0)
  (0.0599801 0.120585 0)
  (0.163544 0.0745169 0)
  (-0.519879 0.152566 0)
)
;

boundaryField
{
  floor
  {
    type noSlip;
  }
  ceiling
  {
    type noSlip;
  }
  sWall
  {
    type noSlip;
  }
  nWall
  {
    type noSlip;
  }
  sideWalls
  {
    type empty;
  }
  glass1
  {
    type noSlip;
  }
  glass2
  {
    type noSlip;
  }
  sun
  {
    type noSlip;
  }
  heatsource1
  {
    type noSlip;
  }
  heatsource2
  {
    type noSlip;
  }
  Table_master
  {
    type noSlip;
  }
  Table_slave
  {
    type noSlip;
  }
  inlet
  {
    type fixedValue;
    value uniform (0.277164 -0.114805 0);
  }
  outlet
  {
    type zeroGradient;
  }
} 	// ************************************************************************* //

