/*--------------------------------*- C++ -*----------------------------------*\
  =========                 |
  \\      /  F ield         | OpenFOAM: The Open Source CFD Toolbox
   \\    /   O peration     | Website:  https://openfoam.org
    \\  /    A nd           | Version:  6
     \\/     M anipulation  |
\*---------------------------------------------------------------------------*/
FoamFile
{
    version     2.0;
    format      ascii;
    class       volScalarField;
    location    "100";
    object      epsilon;
}
// * * * * * * * * * * * * * * * * * * * * * * * * * * * * * * * * * * * * * //

dimensions      [0 2 -3 0 0 0 0];

internalField   nonuniform List<scalar> 
459
(
0.000903013
0.00125848
0.00143692
0.00172831
0.00208422
0.00245789
0.00274158
0.00285269
0.00264654
0.00219921
0.00179071
0.00139937
0.00105562
0.000785812
0.000544132
0.000125073
0.000204603
0.00032765
0.000441022
0.000482097
0.000455562
0.000373589
0.000297683
0.000239946
0.000197079
0.000164864
0.000140247
0.000121002
0.000105618
9.2928e-05
8.17994e-05
7.11242e-05
5.98444e-05
4.5352e-05
0.00188466
0.00233402
0.00116072
0.0012213
0.00144641
0.00174761
0.00197576
0.00205043
0.00188836
0.00157496
0.00127114
0.00100913
0.00080751
0.0006665
0.000528795
0.000798269
0.000484932
0.000114349
0.00015828
0.000273699
0.000329706
0.000347251
0.000347929
0.000371794
0.000302688
0.000236386
0.000185108
0.000146957
0.000118721
9.7567e-05
8.14092e-05
6.90493e-05
6.12072e-05
5.77779e-05
6.18799e-05
5.67141e-05
0.00309878
0.00475298
0.00136428
0.00128006
0.00158436
0.00193445
0.00210909
0.00212924
0.00196382
0.00167844
0.00136247
0.00107997
0.000856435
0.000686555
0.000549214
0.000547406
0.00069381
0.000124595
0.000251107
0.000316461
0.000356203
0.000368752
0.000390766
0.00089898
0.000587014
0.00039615
0.000278205
0.000203216
0.000153951
0.000120557
9.78602e-05
8.38443e-05
6.3668e-05
5.43444e-05
6.38734e-05
6.17408e-05
0.00466902
0.00911178
0.00204246
0.00156
0.00199255
0.00232299
0.00237469
0.00232261
0.00214852
0.00184009
0.00147563
0.0011483
0.000896121
0.000708491
0.000571847
0.00051489
0.000555999
0.000911642
0.000614258
0.000498711
0.000462775
0.000453633
0.000443045
0.000465478
0.00131788
0.000994033
0.000779107
0.000626303
0.000506925
0.000407915
0.000322813
0.000248017
0.000180052
9.62542e-05
6.06616e-05
6.66342e-05
6.55738e-05
0.00673778
0.015652
0.00377626
0.00230621
0.00290792
0.00296388
0.002835
0.00270564
0.00246868
0.00206833
0.00160182
0.00119274
0.000893177
0.000691432
0.000565863
0.000511825
0.000550947
0.000668908
0.000641125
0.000620609
0.000611945
0.000592373
0.000552732
0.000507409
0.000514732
0.000482863
0.000445131
0.000404149
0.000356881
0.000304575
0.000249736
0.000195204
0.00014254
9.09162e-05
5.99766e-05
5.95192e-05
5.92894e-05
6.11655e-05
7.29731e-05
0.000115596
0.00943238
0.0231057
0.00806803
0.00468184
0.00442934
0.00389114
0.00353244
0.00327949
0.00292365
0.00236743
0.00174038
0.00121422
0.000858628
0.000653297
0.000559608
0.000549928
0.000621989
0.000721467
0.000781034
0.000806345
0.000791563
0.000736499
0.000653609
0.000562645
0.000489708
0.000434157
0.000389414
0.00034569
0.000298801
0.000249451
0.000199996
0.000153432
0.000111919
7.77413e-05
5.80912e-05
5.49849e-05
5.65354e-05
5.58254e-05
0.000148867
0.000135754
0.0118587
0.0274068
0.0148093
0.00906285
0.00644154
0.00509403
0.00443707
0.00402922
0.00350446
0.00271167
0.00185754
0.00119052
0.000801455
0.000633249
0.000598156
0.00064477
0.000753743
0.00087239
0.000945496
0.000948715
0.000890802
0.000790443
0.000670271
0.000552249
0.00045361
0.000382965
0.000330378
0.000284132
0.000238858
0.00019513
0.000154881
0.000120025
9.0573e-05
6.9752e-05
6.11694e-05
6.24724e-05
6.92497e-05
8.25082e-05
0.000181322
0.000171516
0.0121133
0.0253326
0.0159904
0.0107178
0.00772434
0.00618267
0.00544529
0.00492123
0.00415666
0.00298683
0.00183419
0.00104912
0.00075675
0.000676578
0.000694006
0.000771261
0.000886759
0.000983544
0.00101358
0.00096842
0.000860361
0.000723647
0.000586065
0.000466397
0.000376489
0.000312836
0.000263779
0.000221483
0.000183645
0.00015103
0.000125
0.000106517
9.57643e-05
9.40104e-05
0.000105841
0.000143967
0.000230985
0.000436151
0.00209543
0.000502638
0.0109944
0.0168357
0.0130669
0.00973438
0.00773097
0.00688336
0.00646477
0.00580372
0.00457039
0.00271076
0.00145079
0.000947464
0.000788128
0.000763515
0.000799615
0.000865432
0.00093373
0.000965051
0.000934689
0.000848811
0.000729099
0.000601336
0.000485492
0.00039154
0.000320178
0.000265419
0.000220298
0.000181244
0.000148141
0.000122901
0.000108686
0.000110295
0.000134674
0.000189509
0.000280515
0.000411712
0.000585384
0.000779327
0.000939477
0.000508354
0.00171716
0.00382503
0.00642178
0.00722892
0.00660863
0.00452114
0.00271795
0.00160365
0.00109735
0.000907536
0.000854247
0.000858142
0.00088439
0.00091158
0.000919819
0.000891645
0.000824992
0.000734109
0.000637835
0.000550171
0.000477412
0.000419028
0.000370829
0.000327836
0.000286445
0.000245496
0.000206285
0.000172271
0.000148449
0.000140152
0.000152097
0.000189026
0.000256322
0.00035627
0.000478208
0.000584891
0.000612688
0.000471615
0.00391166
0.0138941
0.0100695
0.00656813
0.00410588
0.00250353
0.00165999
0.00124113
0.00106025
0.000995291
0.000981565
0.000988855
0.00100243
0.00101264
0.00101135
0.000992927
0.000957268
0.000909821
0.00085778
0.000806961
0.000760299
0.000717793
0.000677697
0.000637539
0.000594819
0.000547872
0.000496689
0.000443416
0.000392182
0.000348218
0.000316917
0.00030337
0.000311651
0.00034172
0.000384852
0.000440501
0.000710926
0.000576493
0.00259066
0.00322431
0.00379939
0.00483863
0.00341094
0.00275256
0.00227183
0.00186764
0.00158113
0.00141796
0.00133556
0.00129962
0.00128576
0.00127618
0.00125718
0.0012185
0.00115504
0.00106922
0.000970985
0.000872675
0.000783295
0.000706228
0.000640549
0.000583423
0.000531948
0.000484188
0.000439527
0.000398435
0.00036197
0.00033128
0.000307282
0.000290619
0.000281886
0.000281868
0.000291263
0.000308939
0.000329183
0.000329044
0.000320143
0.000323104
)
;

boundaryField
{
    floor
    {
        Cmu             0.09;
        kappa           0.41;
        E               9.8;
        type            epsilonWallFunction;
        value           nonuniform List<scalar> 
29
(
0.000544132
0.000125073
0.000204603
0.00032765
0.000441022
0.000482097
0.000455562
0.000373589
0.000297683
0.000239946
0.000197079
0.000164864
0.000140247
0.000121002
0.000105618
9.2928e-05
8.17994e-05
7.11242e-05
5.98444e-05
4.5352e-05
4.5352e-05
5.67141e-05
6.17408e-05
6.55738e-05
0.000544132
0.000125073
0.000114349
0.000124595
0.000911642
)
;
    }
    ceiling
    {
        Cmu             0.09;
        kappa           0.41;
        E               9.8;
        type            epsilonWallFunction;
        value           nonuniform List<scalar> 
43
(
0.00259066
0.00322431
0.00379939
0.00483863
0.00341094
0.00275256
0.00227183
0.00186764
0.00158113
0.00141796
0.00133556
0.00129962
0.00128576
0.00127618
0.00125718
0.0012185
0.00115504
0.00106922
0.000970985
0.000872675
0.000783295
0.000706228
0.000640549
0.000583423
0.000531948
0.000484188
0.000439527
0.000398435
0.00036197
0.00033128
0.000307282
0.000290619
0.000281886
0.000281868
0.000291263
0.000308939
0.000329183
0.000329044
0.000320143
0.000323104
0.0109944
0.0168357
0.00391166
)
;
    }
    sWall
    {
        Cmu             0.09;
        kappa           0.41;
        E               9.8;
        type            epsilonWallFunction;
        value           uniform 0.00259066;
    }
    nWall
    {
        Cmu             0.09;
        kappa           0.41;
        E               9.8;
        type            epsilonWallFunction;
        value           nonuniform List<scalar> 6(0.000115596 0.000135754 0.000171516 0.000471615 0.000576493 0.000323104);
    }
    sideWalls
    {
        type            empty;
    }
    glass1
    {
        Cmu             0.09;
        kappa           0.41;
        E               9.8;
        type            epsilonWallFunction;
        value           nonuniform List<scalar> 9(0.000903013 0.00188466 0.00309878 0.00466902 0.00673778 0.00943238 0.0118587 0.0121133 0.0109944);
    }
    glass2
    {
        Cmu             0.09;
        kappa           0.41;
        E               9.8;
        type            epsilonWallFunction;
        value           nonuniform List<scalar> 2(0.000502638 0.000508354);
    }
    sun
    {
        Cmu             0.09;
        kappa           0.41;
        E               9.8;
        type            epsilonWallFunction;
        value           nonuniform List<scalar> 
14
(
0.000903013
0.00125848
0.00143692
0.00172831
0.00208422
0.00245789
0.00274158
0.00285269
0.00264654
0.00219921
0.00179071
0.00139937
0.00105562
0.000785812
)
;
    }
    heatsource1
    {
        Cmu             0.09;
        kappa           0.41;
        E               9.8;
        type            epsilonWallFunction;
        value           nonuniform List<scalar> 3(6.11655e-05 7.29731e-05 0.000115596);
    }
    heatsource2
    {
        Cmu             0.09;
        kappa           0.41;
        E               9.8;
        type            epsilonWallFunction;
        value           nonuniform List<scalar> 4(0.000798269 0.000484932 0.000484932 0.00069381);
    }
    Table_master
    {
        Cmu             0.09;
        kappa           0.41;
        E               9.8;
        type            epsilonWallFunction;
        value           nonuniform List<scalar> 9(0.00089898 0.000587014 0.00039615 0.000278205 0.000203216 0.000153951 0.000120557 9.78602e-05 8.38443e-05);
    }
    Table_slave
    {
        Cmu             0.09;
        kappa           0.41;
        E               9.8;
        type            epsilonWallFunction;
        value           nonuniform List<scalar> 9(0.00131788 0.000994033 0.000779107 0.000626303 0.000506925 0.000407915 0.000322813 0.000248017 0.000180052);
    }
    inlet
    {
        type            turbulentMixingLengthDissipationRateInlet;
        mixingLength    0.01;
        phi             phi;
        k               k;
        value           uniform 0.000101881;
    }
    outlet
    {
        type            zeroGradient;
    }
}


// ************************************************************************* //
