/*--------------------------------*- C++ -*----------------------------------*\
  =========                 |
  \\      /  F ield         | OpenFOAM: The Open Source CFD Toolbox
   \\    /   O peration     | Website:  https://openfoam.org
    \\  /    A nd           | Version:  6
     \\/     M anipulation  |
\*---------------------------------------------------------------------------*/
FoamFile
{
    version     2.0;
    format      ascii;
    class       surfaceScalarField;
    location    "470";
    object      phi;
}
// * * * * * * * * * * * * * * * * * * * * * * * * * * * * * * * * * * * * * //

dimensions      [1 0 -1 0 0 0 0];

internalField   nonuniform List<scalar> 
852
(
0.000420664
-0.000423731
0.000505031
-8.44173e-05
0.0014738
-0.000968829
0.0025117
-0.00103795
0.00324513
-0.00073348
0.00367839
-0.000433315
0.00388581
-0.000207479
0.00393154
-4.57748e-05
0.00385701
7.44767e-05
0.00368339
0.000173566
0.00341657
0.000266762
0.0030423
0.000374222
0.0025099
0.000532345
0.00166222
0.000847623
0.00165863
3.17503e-05
-3.62032e-05
-6.03235e-05
9.19999e-05
0.000257873
-0.000318267
0.000689637
-0.000431835
0.0010334
-0.000343829
0.00126223
-0.000228908
0.00139268
-0.000130523
0.00146392
-7.13066e-05
0.00151071
-4.68696e-05
0.001545
-3.43639e-05
0.00156939
-2.44549e-05
0.00158305
-1.37433e-05
0.00158008
2.90211e-06
0.00154576
3.42397e-05
0.00144842
9.72635e-05
0.0012342
0.000214147
0.000855679
0.000378445
0.000166128
0.000689473
0.000159649
0.000125024
-0.000557457
0.000522326
-0.000481772
0.00129643
-0.001743
0.00214096
-0.00188254
0.00273175
-0.00132433
0.00306289
-0.000764517
0.00320313
-0.000347781
0.00321186
-5.4559e-05
0.0031247
0.000161573
0.00296721
0.000331004
0.00275492
0.000478999
0.0024961
0.000632979
0.00220662
0.000821769
0.00199134
0.00106284
0.00227235
0.00137757
0.00109117
0.00118107
0.00109106
-6.20915e-05
1.5969e-05
0.000426285
-0.000396446
0.000800285
-0.000692336
0.00108068
-0.000712297
0.00128957
-0.00055279
0.00141619
-0.000355603
0.001443
-0.000157395
0.00145304
-8.14269e-05
0.00146232
-5.62204e-05
0.00147022
-4.23311e-05
0.0014765
-3.08087e-05
0.00148122
-1.85432e-05
0.00148207
1.97736e-06
0.00147274
4.34953e-05
0.00142115
0.000148779
0.00121639
0.000418829
0.00089256
0.0007022
0.000546571
0.00103538
0.000689565
-4.29867e-05
-0.000528273
0.000255499
-0.00078031
0.000897139
-0.0023847
0.00161927
-0.00260475
0.00204992
-0.00175506
0.00224629
-0.000960962
0.00229957
-0.000401122
0.00226487
-1.99216e-05
0.00218071
0.00024567
0.00207481
0.00043684
0.00196018
0.000593565
0.00184553
0.000747571
0.00174614
0.000921101
0.00168101
0.00112792
0.00163231
0.00142621
0.00117636
0.00163696
0.00226736
0.000245156
-0.000246119
0.000941154
-0.00109251
0.00130259
-0.00105383
0.00146635
-0.000876132
0.00155639
-0.00064289
0.00159492
-0.000394206
0.00143761
0.00135626
0.00130013
0.00125788
0.00122715
0.00120869
0.00121075
0.00125432
0.00140318
0.0011462
0.000675734
0.000924277
0.000924042
0.000707532
0.00125205
0.00137181
-0.000191405
-0.00035539
-9.46227e-05
-0.000877146
0.000398639
-0.00287803
0.000986991
-0.00319319
0.00125402
-0.00202217
0.00130788
-0.00101491
0.00127024
-0.000363553
0.00121202
3.82265e-05
0.00117296
0.000284662
0.00115738
0.000452355
0.0011593
0.000591578
0.00117767
0.000729141
0.00121784
0.000880872
0.00128706
0.00105863
0.00142376
0.00128945
0.00164532
0.00141534
0.00246651
0.00144611
0.00203216
0.00041119
0.00229319
-0.000507213
0.00200471
-0.000804094
0.00185348
-0.000902669
0.00176084
-0.000783555
0.00169876
-0.000580887
0.00165091
-0.000346422
0.00174841
-9.77305e-05
0.00174384
4.33838e-06
0.00168538
5.8227e-05
0.00159144
9.37071e-05
0.0014684
0.000122816
0.00131704
0.000151118
0.00113276
0.000184052
0.000902742
0.000229779
0.00059004
0.000312467
0.000693205
0.000572489
0.000749589
0.000867579
0.000858412
0.00114315
0.00219822
-0.000324578
-5.37904e-05
-0.000429452
-0.000772326
-6.96342e-05
-0.00323791
0.000332649
-0.00359558
0.000473608
-0.00216324
0.00042828
-0.000969668
0.000350675
-0.000286027
0.000318584
7.02476e-05
0.000342631
0.000260548
0.000404273
0.000390646
0.000491659
0.000504127
0.000603151
0.000617584
0.000747053
0.000736905
0.000943094
0.000862527
0.00124151
0.000990982
0.00163295
0.00102383
0.0021463
0.000932709
0.00233428
0.000223149
0.00217968
-0.000352676
0.00198619
-0.000610674
0.00176151
-0.000678057
0.00156844
-0.000590553
0.0014112
-0.000423724
0.00129082
-0.000226118
0.00122436
-3.13515e-05
0.00113229
9.63329e-05
0.00102429
0.000166148
0.00090795
0.000209966
0.000784693
0.000245991
0.000653468
0.000282261
0.000513282
0.000324156
0.000369535
0.000373442
0.000269811
0.000412108
0.000348845
0.000493373
0.000620561
0.000595782
0.00126949
0.000494138
0.00226823
0.0011994
0.00103072
0.00123723
-9.18817e-05
0.00112231
-0.000122394
-0.000338928
0.000258299
-0.000689736
-0.00042157
-0.000414761
-0.00351295
-0.000188184
-0.00382226
-0.000112668
-0.00223887
-0.000170516
-0.000911913
-0.000232744
-0.000223877
-0.000243294
8.07255e-05
-0.000202491
0.000219674
-0.000119527
0.000307613
7.66602e-07
0.000383765
0.000156401
0.000461881
0.000349956
0.000543283
0.000594325
0.000618093
0.000911209
0.000674033
0.00127957
0.000655406
0.00169713
0.000515084
0.00182
0.000100209
0.001707
-0.000239741
0.00151284
-0.000416593
0.00127773
-0.000443014
0.00104965
-0.000362553
0.000850782
-0.000224937
0.000685492
-6.09091e-05
0.000559167
9.48913e-05
0.000456875
0.000198542
0.000361638
0.000261301
0.000265784
0.000305736
0.000167196
0.000344494
6.76021e-05
0.000381771
-2.38563e-05
0.000415529
-8.47371e-05
0.000434238
-8.46804e-05
0.000411966
4.58849e-05
0.000362724
0.000290412
0.000351173
0.000495849
0.00028862
0.000697239
0.00099793
0.00032069
0.0016137
-0.000291836
0.00173475
-0.00044398
-0.000147908
0.000375818
-0.000666551
9.70254e-05
-0.000499485
-0.00368008
-0.000380305
-0.00394154
-0.000357926
-0.00226138
-0.000441598
-0.000828338
-0.00052341
-0.000142147
-0.000554246
0.000111485
-0.000530105
0.000195458
-0.000459432
0.000236867
-0.000348719
0.000272977
-0.000198628
0.000311718
-5.4785e-06
0.000350061
0.000229299
0.000383244
0.000502095
0.000401167
0.000789765
0.000367665
0.0010477
0.000257079
0.00110085
4.69841e-05
0.000993009
-0.000131977
0.00079876
-0.000222422
0.000570167
-0.000214503
0.000345115
-0.000137583
0.000144344
-2.42498e-05
-1.24033e-05
9.57532e-05
-0.000114922
0.000197324
-0.00018583
0.000269364
-0.000248092
0.000323477
-0.000309293
0.000366851
-0.000367447
0.000402562
-0.000414416
0.000428654
-0.000436802
0.000437828
-0.000419795
0.000417144
-0.000360692
0.000352777
-0.000264169
0.000266116
-0.000140784
0.000227704
-8.80289e-05
0.000235782
5.88231e-05
0.000850997
-5.33483e-05
0.00172579
-0.000166014
0.00184733
-0.00063777
1.46673e-05
0.000326621
-0.000285644
0.00039731
-8.66582e-05
-0.0038791
-7.72997e-05
-0.00395098
-0.000256274
-0.00208253
-0.000532138
-0.000552576
-0.000713173
3.87996e-05
-0.000788544
0.000186773
-0.000790936
0.000197769
-0.000743133
0.000188984
-0.00065713
0.000186894
-0.000538513
0.000193021
-0.000391419
0.000202888
-0.000219935
0.000211682
-3.13445e-05
0.000212498
0.000144491
0.00019175
0.000261766
0.000139723
0.000256119
5.25493e-05
0.000144061
-2.00033e-05
-3.5038e-05
-4.3408e-05
-0.000235184
-1.44441e-05
-0.000418012
4.51569e-05
-0.000557205
0.000114855
-0.000644835
0.000183295
-0.000694998
0.000247399
-0.000727093
0.00030137
-0.000750008
0.000346303
-0.000765165
0.000381919
-0.000768212
0.00040552
-0.000751383
0.000411736
-0.000706441
0.000392798
-0.000630069
0.000340683
-0.000532131
0.000254751
-0.000425494
0.000159391
-0.000301528
0.000103652
-0.000206687
0.000140856
8.92773e-05
0.00055495
0.000417455
0.00139753
0.00110756
0.00115714
0.000315657
0.000253429
0.000617863
0.00123376
-0.00449502
0.000720287
-0.00343758
-0.000114208
-0.00124817
-0.000723321
5.64339e-05
-0.0010006
0.000315988
-0.00109841
0.000284489
-0.0011153
0.000214574
-0.00108923
0.000162823
-0.00103594
0.000133514
-0.000963405
0.000120405
-0.000877831
0.000117228
-0.000785788
0.000119553
-0.000696858
0.000123481
-0.00062861
0.000123415
-0.000602662
0.000113688
-0.000641328
9.11273e-05
-0.000734748
7.33263e-05
-0.000854116
7.58695e-05
-0.000967072
9.8421e-05
-0.00105329
0.000131283
-0.0011078
0.000169278
-0.00113405
0.000209449
-0.00113692
0.000250182
-0.00112374
0.000288096
-0.00109803
0.000320503
-0.00106003
0.000343825
-0.00100797
0.000353368
-0.000939624
0.000343299
-0.000854256
0.000307338
-0.000755084
0.00024142
-0.000650034
0.000149611
-0.000541197
5.04632e-05
-0.000406813
-3.08223e-05
-0.000244198
-2.18472e-05
9.30078e-05
0.000217658
0.000673469
0.000816979
0.0012322
0.000598323
0.00138096
0.00353714
-0.00157158
0.000911396
-0.000811892
-0.000670967
0.000334067
-0.00131048
0.000695842
-0.00147788
0.000483296
-0.00151187
0.000318379
-0.00150683
0.00020945
-0.00148758
0.000143477
-0.00146101
0.000106846
-0.00142996
8.92607e-05
-0.001397
8.41812e-05
-0.00136523
8.76935e-05
-0.00133861
9.67637e-05
-0.00132275
0.000107464
-0.0013239
0.000114747
-0.001348
0.000115132
-0.00138849
0.000113723
-0.0014301
0.000117381
-0.00145948
0.000127712
-0.00147106
0.000142766
-0.00146351
0.000161634
-0.00143779
0.000183631
-0.00139525
0.000207551
-0.00133815
0.000230902
-0.00126839
0.000250654
-0.00118781
0.00026315
-0.00109872
0.000264181
-0.00100469
0.000249174
-0.000911435
0.000213991
-0.000827071
0.000156964
-0.000759737
8.21847e-05
-0.000712404
3.03778e-06
-0.000672641
-7.06766e-05
-0.000617357
-7.72207e-05
-0.000525121
0.000125332
-0.000260835
0.000552606
-0.000104215
0.000441614
0.00124368
-0.00172676
0.000118918
-0.00253521
-3.53212e-06
-0.00245552
0.000254278
-0.00218399
0.00042421
-0.00203125
0.00033046
-0.00194049
0.000227516
-0.00188734
0.000156211
-0.0018565
0.000112534
-0.00183753
8.77828e-05
-0.0018239
7.55362e-05
-0.00181161
7.17914e-05
-0.00179815
7.41368e-05
-0.00178225
8.07728e-05
-0.00176443
8.95458e-05
-0.00174735
9.75749e-05
-0.0017348
0.000102484
-0.00172643
0.000105251
-0.00171747
0.000108328
-0.0017027
0.000112849
-0.00167885
0.000118819
-0.00164368
0.000126372
-0.00159554
0.000135386
-0.00153326
0.000145181
-0.00145677
0.000154318
-0.00136715
0.000160939
-0.00126696
0.000162864
-0.00116063
0.00015775
-0.00105495
0.000143402
-0.000959615
0.000118564
-0.000887106
8.43606e-05
-0.000850556
4.55416e-05
-0.000855854
8.24336e-06
-0.000915771
-1.08527e-05
-0.000993464
3.80564e-07
-0.000945527
7.7305e-05
-0.000648483
0.000255472
-0.000593744
0.000386784
0.000607762
-0.00408354
-0.003426
-0.00336195
-0.00341817
-0.00321651
-0.00284548
-0.00256845
-0.00239438
-0.00229161
-0.00223254
-0.00219827
-0.00217631
-0.00215817
-0.00213774
-0.00211072
-0.00207496
-0.00203122
-0.00198265
-0.00193142
-0.00187724
-0.00181868
-0.00175428
-0.00168243
-0.00160163
-0.00151104
-0.00141126
-0.00130471
-0.001196
-0.00109206
-0.00100201
-0.00093625
-0.000904125
-0.000910332
-0.000953577
-0.0010159
-0.0010672
-0.00104133
-0.000836292
-0.000499632
)
;

boundaryField
{
    floor
    {
        type            calculated;
        value           nonuniform List<scalar> 
29
(
0
0
0
0
0
0
0
0
0
0
0
0
0
0
0
0
0
0
0
0
6.3999e-06
1.65765e-05
2.52086e-05
3.1926e-05
3.52994e-06
4.37343e-06
9.84553e-06
1.68629e-05
2.31069e-05
)
;
    }
    ceiling
    {
        type            calculated;
        value           nonuniform List<scalar> 
43
(
6.26672e-05
5.98095e-05
5.4774e-05
5.25884e-05
5.25191e-05
5.30812e-05
5.33235e-05
5.33503e-05
5.33462e-05
5.33666e-05
5.34148e-05
5.34797e-05
5.3548e-05
5.36082e-05
5.36545e-05
5.36915e-05
5.37365e-05
5.38106e-05
5.39203e-05
5.40541e-05
5.41933e-05
5.43205e-05
5.44216e-05
5.44843e-05
5.44953e-05
5.44391e-05
5.42992e-05
5.406e-05
5.37107e-05
5.32528e-05
5.27097e-05
5.21406e-05
5.16532e-05
5.13942e-05
5.13775e-05
5.15875e-05
5.13422e-05
5.03413e-05
5.00303e-05
5.52622e-05
3.63527e-05
3.28468e-05
3.61649e-05
)
;
    }
    sWall
    {
        type            calculated;
        value           uniform 3.65164e-05;
    }
    nWall
    {
        type            calculated;
        value           nonuniform List<scalar> 6(3.02128e-05 2.96581e-05 2.76847e-05 3.29731e-05 4.20786e-05 5.27745e-05);
    }
    sideWalls
    {
        type            empty;
        value           nonuniform 0();
    }
    glass1
    {
        type            calculated;
        value           nonuniform List<scalar> 9(3.01745e-06 8.65443e-06 1.37553e-05 1.84741e-05 2.29295e-05 2.67888e-05 3.03467e-05 3.44913e-05 3.68042e-05);
    }
    glass2
    {
        type            calculated;
        value           nonuniform List<scalar> 2(0.000154038 0.000166813);
    }
    sun
    {
        type            calculated;
        value           uniform 0;
    }
    heatsource1
    {
        type            calculated;
        value           nonuniform List<scalar> 3(2.06253e-07 2.06658e-07 2.06839e-07);
    }
    heatsource2
    {
        type            calculated;
        value           nonuniform List<scalar> 4(5.17588e-08 5.1895e-08 0 0);
    }
    Table_master
    {
        type            calculated;
        value           nonuniform List<scalar> 9(-1.55068e-07 -1.55151e-07 -1.55173e-07 -1.55184e-07 -1.55187e-07 -1.55186e-07 -1.55178e-07 -1.55151e-07 -1.55091e-07);
    }
    Table_slave
    {
        type            calculated;
        value           nonuniform List<scalar> 9(1.54876e-07 1.54905e-07 1.54892e-07 1.54897e-07 1.54913e-07 1.54939e-07 1.54974e-07 1.5502e-07 1.55081e-07);
    }
    inlet
    {
        type            calculated;
        value           uniform -0.00646061;
    }
    outlet
    {
        type            calculated;
        value           nonuniform List<scalar> 2(0.00398425 -0.000717454);
    }
}


// ************************************************************************* //
