// -*- C++ -*-
// File generated by PyFoam - sorry for the ugliness

FoamFile
{
 version 2.0;
 format ascii;
 class volScalarField;
 location "1100";
 object T;
}

dimensions [ 0 0 0 1 0 0 0 ];

internalField nonuniform List<scalar> 459
(
  303.587
  303.329
  303.316
  303.312
  303.308
  303.304
  303.299
  303.293
  303.285
  303.273
  303.261
  303.25
  303.242
  303.238
  303.24
  303.335
  303.314
  303.305
  303.308
  303.312
  303.316
  303.32
  303.324
  303.328
  303.332
  303.336
  303.34
  303.344
  303.348
  303.352
  303.356
  303.361
  303.367
  303.386
  303.76
  303.372
  303.348
  303.351
  303.353
  303.354
  303.351
  303.344
  303.329
  303.306
  303.28
  303.256
  303.238
  303.227
  303.223
  303.222
  303.223
  303.336
  303.297
  303.291
  303.293
  303.298
  303.303
  303.305
  303.307
  303.309
  303.311
  303.313
  303.315
  303.316
  303.319
  303.321
  303.326
  303.332
  303.341
  303.371
  303.942
  303.423
  303.384
  303.394
  303.407
  303.418
  303.422
  303.416
  303.393
  303.354
  303.309
  303.268
  303.239
  303.223
  303.218
  303.218
  303.221
  303.275
  303.274
  303.281
  303.291
  303.301
  303.309
  303.309
  303.31
  303.311
  303.311
  303.312
  303.313
  303.314
  303.315
  303.316
  303.319
  303.324
  303.332
  303.364
  304.125
  303.485
  303.42
  303.436
  303.464
  303.49
  303.508
  303.505
  303.469
  303.407
  303.337
  303.278
  303.237
  303.216
  303.212
  303.216
  303.222
  303.233
  303.247
  303.266
  303.286
  303.304
  303.321
  303.333
  303.343
  303.352
  303.36
  303.368
  303.374
  303.378
  303.382
  303.385
  303.387
  303.365
  303.347
  303.339
  303.363
  304.303
  303.564
  303.463
  303.474
  303.512
  303.556
  303.594
  303.591
  303.537
  303.446
  303.353
  303.278
  303.229
  303.207
  303.205
  303.214
  303.229
  303.246
  303.268
  303.292
  303.316
  303.338
  303.357
  303.372
  303.386
  303.397
  303.406
  303.414
  303.419
  303.421
  303.42
  303.417
  303.411
  303.394
  303.37
  303.351
  303.361
  303.431
  303.479
  303.484
  304.464
  303.667
  303.536
  303.525
  303.562
  303.618
  303.667
  303.645
  303.564
  303.454
  303.345
  303.26
  303.208
  303.19
  303.195
  303.216
  303.242
  303.271
  303.301
  303.331
  303.359
  303.382
  303.401
  303.416
  303.429
  303.439
  303.447
  303.452
  303.455
  303.455
  303.45
  303.443
  303.432
  303.415
  303.391
  303.368
  303.364
  303.394
  303.411
  303.445
  304.612
  303.83
  303.699
  303.671
  303.688
  303.735
  303.735
  303.663
  303.542
  303.406
  303.287
  303.205
  303.167
  303.165
  303.189
  303.229
  303.271
  303.312
  303.35
  303.383
  303.41
  303.432
  303.448
  303.46
  303.47
  303.478
  303.483
  303.486
  303.486
  303.483
  303.476
  303.465
  303.451
  303.434
  303.412
  303.389
  303.378
  303.386
  303.396
  303.425
  304.826
  304.241
  304.097
  304.012
  303.97
  303.907
  303.777
  303.6
  303.415
  303.26
  303.155
  303.106
  303.108
  303.144
  303.201
  303.266
  303.325
  303.373
  303.413
  303.441
  303.462
  303.478
  303.49
  303.499
  303.506
  303.51
  303.512
  303.513
  303.511
  303.506
  303.499
  303.487
  303.474
  303.459
  303.442
  303.425
  303.419
  303.43
  303.449
  303.57
  305.132
  304.856
  304.6
  304.365
  304.133
  303.825
  303.491
  303.212
  303.027
  302.94
  302.934
  302.986
  303.073
  303.167
  303.259
  303.348
  303.406
  303.444
  303.472
  303.492
  303.507
  303.517
  303.525
  303.53
  303.534
  303.535
  303.535
  303.534
  303.532
  303.529
  303.527
  303.527
  303.528
  303.535
  303.548
  303.569
  303.6
  303.632
  303.653
  303.705
  296.33
  298.175
  299.373
  300.244
  300.978
  301.595
  302.095
  302.482
  302.775
  303.009
  303.2
  303.313
  303.39
  303.444
  303.479
  303.503
  303.52
  303.533
  303.541
  303.548
  303.552
  303.555
  303.556
  303.557
  303.558
  303.558
  303.559
  303.56
  303.561
  303.563
  303.567
  303.575
  303.587
  303.605
  303.628
  303.651
  303.67
  303.69
  296.978
  298.811
  300.26
  301.253
  301.878
  302.336
  302.682
  302.94
  303.127
  303.262
  303.363
  303.431
  303.476
  303.507
  303.528
  303.542
  303.552
  303.56
  303.565
  303.568
  303.571
  303.573
  303.574
  303.576
  303.577
  303.578
  303.579
  303.58
  303.581
  303.583
  303.586
  303.592
  303.6
  303.612
  303.627
  303.645
  303.644
  303.673
  299.728
  299.65
  299.645
  301.492
  302.305
  302.694
  302.922
  303.091
  303.22
  303.318
  303.392
  303.446
  303.486
  303.513
  303.531
  303.543
  303.551
  303.556
  303.56
  303.563
  303.565
  303.567
  303.569
  303.571
  303.574
  303.576
  303.578
  303.58
  303.582
  303.584
  303.586
  303.588
  303.591
  303.595
  303.6
  303.609
  303.618
  303.624
  303.626
  303.665
)
;

boundaryField
{
  floor
  {
    type wallHeatTransfer;
    Tinf uniform 305.2;
    alphaWall uniform 0.24;
    value nonuniform List<scalar> 29
(
  303.43
  303.688
  303.625
  303.593
  303.596
  303.607
  303.62
  303.637
  303.656
  303.674
  303.692
  303.709
  303.725
  303.741
  303.757
  303.772
  303.787
  303.804
  303.82
  303.859
  303.859
  303.779
  303.738
  303.714
  303.43
  303.688
  303.67
  303.486
  303.397
)
;
  }
  ceiling
  {
    type wallHeatTransfer;
    Tinf uniform 303.2;
    alphaWall uniform 0.24;
    value nonuniform List<scalar> 43
(
  299.975
  299.891
  299.879
  301.599
  302.362
  302.728
  302.941
  303.099
  303.219
  303.309
  303.375
  303.423
  303.456
  303.477
  303.49
  303.498
  303.503
  303.506
  303.508
  303.509
  303.51
  303.512
  303.513
  303.515
  303.517
  303.52
  303.522
  303.525
  303.528
  303.532
  303.536
  303.54
  303.544
  303.549
  303.556
  303.567
  303.575
  303.58
  303.579
  303.612
  305.043
  304.79
  297.381
)
;
  }
  sWall
  {
    type wallHeatTransfer;
    Tinf uniform 315.2;
    alphaWall uniform 0.36;
    value uniform 301.329;
  }
  nWall
  {
    type wallHeatTransfer;
    Tinf uniform 307.2;
    alphaWall uniform 0.36;
    value nonuniform List<scalar> 6
(
  304.185
  304.133
  304.057
  304.199
  304.177
  304.241
)
;
  }
  sideWalls
  {
    type empty;
  }
  glass1
  {
    type wallHeatTransfer;
    Tinf uniform 315.2;
    alphaWall uniform 4.3;
    value nonuniform List<scalar> 9
(
  311.523
  310.895
  310.5
  310.199
  309.947
  309.72
  309.552
  309.624
  309.849
)
;
  }
  glass2
  {
    type wallHeatTransfer;
    Tinf uniform 307.2;
    alphaWall uniform 4.3;
    value nonuniform List<scalar> 2
(
  305.833
  305.925
)
;
  }
  sun
  {
    type wallHeatTransfer;
    Tinf uniform 305.2;
    alphaWall uniform 0.24;
    value nonuniform List<scalar> 14
(
  303.757
  303.513
  303.499
  303.489
  303.48
  303.471
  303.462
  303.452
  303.442
  303.43
  303.42
  303.413
  303.412
  303.417
)
;
  }
  heatsource1
  {
    type fixedGradient;
    gradient uniform 0;
  }
  heatsource2
  {
    type fixedGradient;
    gradient uniform 0;
  }
  Table_master
  {
    type zeroGradient;
  }
  Table_slave
  {
    type zeroGradient;
  }
  inlet
  {
    type fixedValue;
    value uniform 293.15;
  }
  outlet
  {
    type zeroGradient;
  }
} 	// ************************************************************************* //

