// -*- C++ -*-
// File generated by PyFoam - sorry for the ugliness

FoamFile
{
 version 2.0;
 format ascii;
 class volVectorField;
 location "1000";
 object U;
}

dimensions [ 0 1 -1 0 0 0 0 ];

internalField nonuniform List<vector> 459
(
  (0.033214 0.0853629 0)
  (-0.165912 0.0256007 0)
  (-0.190356 0.0178445 0)
  (-0.220946 0.012384 0)
  (-0.24334 0.00641231 0)
  (-0.256726 0.000154201 0)
  (-0.259806 -0.00644957 0)
  (-0.251318 -0.0134078 0)
  (-0.231887 -0.0202922 0)
  (-0.202867 -0.0260684 0)
  (-0.167159 -0.0298947 0)
  (-0.12812 -0.0314928 0)
  (-0.0889633 -0.0314007 0)
  (-0.0544862 -0.0313009 0)
  (-0.0385538 -0.0329193 0)
  (-0.00222126 0.00729466 0)
  (-0.021905 -0.0175834 0)
  (0.00194619 -0.0261748 0)
  (0.0226361 -0.0193373 0)
  (0.0382908 -0.012966 0)
  (0.049788 -0.00826695 0)
  (0.0565451 -0.00496385 0)
  (0.059901 -0.0032372 0)
  (0.0614211 -0.00248564 0)
  (0.0622175 -0.00212669 0)
  (0.0627266 -0.00189896 0)
  (0.0629953 -0.00170416 0)
  (0.0629522 -0.00146777 0)
  (0.062386 -0.00101019 0)
  (0.0607287 4.39747e-05 0)
  (0.0567766 0.00224672 0)
  (0.0491983 0.00464736 0)
  (0.0413628 0.00671006 0)
  (-0.0105441 0.0203557 0)
  (0.205587 0.174398 0)
  (-0.154186 0.0669592 0)
  (-0.152348 0.0520713 0)
  (-0.183574 0.0407089 0)
  (-0.205426 0.0280038 0)
  (-0.218762 0.013962 0)
  (-0.222279 -0.00168607 0)
  (-0.214499 -0.0185597 0)
  (-0.196562 -0.0346181 0)
  (-0.170194 -0.0473784 0)
  (-0.138535 -0.0550335 0)
  (-0.10498 -0.0570587 0)
  (-0.0727612 -0.0541193 0)
  (-0.0456866 -0.0478006 0)
  (-0.0284668 -0.0392065 0)
  (-0.0147313 -0.0194055 0)
  (-0.00738508 0.0125659 0)
  (0.0605024 0.0309409 0)
  (0.0319836 -0.0198974 0)
  (0.0388709 -0.0304463 0)
  (0.0495912 -0.0257004 0)
  (0.0579663 -0.0176218 0)
  (0.0634639 -0.0102728 0)
  (0.0656124 -0.00421559 0)
  (0.0659012 -0.000863507 0)
  (0.0658055 0.000577045 0)
  (0.065881 0.00124015 0)
  (0.0660379 0.0016488 0)
  (0.0661509 0.00202338 0)
  (0.0661748 0.00250693 0)
  (0.0660576 0.00344539 0)
  (0.0652675 0.00573901 0)
  (0.0613775 0.0120742 0)
  (0.0515967 0.0174939 0)
  (0.0452376 0.0213382 0)
  (-0.0439155 0.04398 0)
  (0.363483 0.260584 0)
  (-0.17 0.106196 0)
  (-0.1138 0.0837926 0)
  (-0.143568 0.0635643 0)
  (-0.162552 0.0427251 0)
  (-0.174501 0.0200224 0)
  (-0.177327 -0.00534686 0)
  (-0.168673 -0.0323019 0)
  (-0.150704 -0.0572098 0)
  (-0.125912 -0.0760171 0)
  (-0.0977355 -0.0862757 0)
  (-0.069177 -0.087755 0)
  (-0.0425616 -0.0815872 0)
  (-0.0201128 -0.0692906 0)
  (-0.00379663 -0.0519513 0)
  (0.0088897 -0.0262106 0)
  (0.0157677 0.00807306 0)
  (0.105409 -0.0400512 0)
  (0.0727655 -0.0434546 0)
  (0.0688705 -0.0394106 0)
  (0.0710895 -0.0314224 0)
  (0.0726474 -0.0222387 0)
  (0.0734563 -0.014568 0)
  (0.0717384 -0.0118791 0)
  (0.0677997 -0.00851446 0)
  (0.0650962 -0.00669212 0)
  (0.0638814 -0.00565922 0)
  (0.0633481 -0.00501225 0)
  (0.0630864 -0.00455247 0)
  (0.0631428 -0.00410203 0)
  (0.0639881 -0.00330044 0)
  (0.0668316 -0.000175434 0)
  (0.0647994 0.0170571 0)
  (0.0515347 0.0293102 0)
  (0.0509192 0.0379886 0)
  (-0.0732446 0.0691088 0)
  (0.505495 0.329703 0)
  (-0.20343 0.140802 0)
  (-0.0736479 0.11031 0)
  (-0.101174 0.0824557 0)
  (-0.114299 0.0557576 0)
  (-0.122284 0.0261268 0)
  (-0.121535 -0.0085756 0)
  (-0.109591 -0.0459943 0)
  (-0.0907298 -0.0790296 0)
  (-0.0682189 -0.102352 0)
  (-0.0452402 -0.113674 0)
  (-0.0237098 -0.113825 0)
  (-0.00445625 -0.104644 0)
  (0.0120736 -0.0877103 0)
  (0.0255189 -0.0659996 0)
  (0.0398844 -0.0400637 0)
  (0.0620725 -0.0136819 0)
  (0.0925727 -0.000868519 0)
  (0.100447 -0.0335458 0)
  (0.086959 -0.038501 0)
  (0.0784936 -0.0340661 0)
  (0.0744447 -0.0276729 0)
  (0.071834 -0.0202481 0)
  (0.0706464 -0.0116887 0)
  (0.0724536 -0.00687196 0)
  (0.0765962 -0.00546077 0)
  (0.0800394 -0.00466777 0)
  (0.0824009 -0.00404387 0)
  (0.083861 -0.00322613 0)
  (0.0838545 -0.00196488 0)
  (0.0813142 -4.2689e-05 0)
  (0.0750088 0.00282248 0)
  (0.062161 0.00715683 0)
  (0.0512427 0.0274369 0)
  (0.0406025 0.0443003 0)
  (0.0538347 0.0579065 0)
  (-0.10346 0.0920087 0)
  (0.627428 0.383158 0)
  (-0.24422 0.169013 0)
  (-0.034664 0.124945 0)
  (-0.0571728 0.0926252 0)
  (-0.0619126 0.0626762 0)
  (-0.0628213 0.0283151 0)
  (-0.0525709 -0.0148034 0)
  (-0.034981 -0.0615434 0)
  (-0.0161436 -0.0993568 0)
  (0.00155898 -0.123605 0)
  (0.0162299 -0.13292 0)
  (0.0277119 -0.130067 0)
  (0.0365843 -0.118181 0)
  (0.0435379 -0.0997588 0)
  (0.0496876 -0.0774561 0)
  (0.0570231 -0.053892 0)
  (0.0681346 -0.0344923 0)
  (0.0786297 -0.0294946 0)
  (0.0802991 -0.0351382 0)
  (0.0738179 -0.0337439 0)
  (0.0658813 -0.0286364 0)
  (0.059873 -0.0229731 0)
  (0.0556858 -0.0172028 0)
  (0.0535249 -0.0113385 0)
  (0.0537394 -0.00627613 0)
  (0.0559722 -0.00397128 0)
  (0.058447 -0.0031399 0)
  (0.0608508 -0.00242423 0)
  (0.0630704 -0.000897272 0)
  (0.0647206 0.00198737 0)
  (0.0646273 0.00633504 0)
  (0.0622138 0.0123061 0)
  (0.0567953 0.0205462 0)
  (0.0502217 0.0359862 0)
  (0.0412149 0.0545704 0)
  (0.0621008 0.0751419 0)
  (-0.0168428 0.104368 0)
  (0.0453932 0.0341345 0)
  (-0.061341 -0.0344569 0)
  (-0.268977 -0.0567319 0)
  (0.715048 0.427675 0)
  (-0.283524 0.187841 0)
  (-0.00565175 0.119793 0)
  (-0.0118615 0.0917207 0)
  (-0.00505107 0.0627421 0)
  (0.004814 0.0220028 0)
  (0.0326492 -0.0315647 0)
  (0.0537301 -0.0799898 0)
  (0.0687191 -0.114888 0)
  (0.0774853 -0.134634 0)
  (0.0807445 -0.140329 0)
  (0.0799337 -0.134621 0)
  (0.0764271 -0.120554 0)
  (0.071615 -0.101095 0)
  (0.0669688 -0.0791415 0)
  (0.0638638 -0.0573853 0)
  (0.0632101 -0.0395331 0)
  (0.06271 -0.0301529 0)
  (0.0586835 -0.0276006 0)
  (0.0510903 -0.0252529 0)
  (0.0429032 -0.0214915 0)
  (0.036399 -0.0174262 0)
  (0.0319918 -0.0135402 0)
  (0.0298369 -0.00988037 0)
  (0.029888 -0.00708932 0)
  (0.0316608 -0.00618274 0)
  (0.0342306 -0.00617181 0)
  (0.0372594 -0.00586957 0)
  (0.0405801 -0.00431801 0)
  (0.0439634 -0.000673027 0)
  (0.0469357 0.00532487 0)
  (0.048466 0.0133606 0)
  (0.0487734 0.0236399 0)
  (0.049281 0.0379598 0)
  (0.0485737 0.0559569 0)
  (0.070497 0.0788762 0)
  (0.0524174 0.0974782 0)
  (0.091507 0.0684668 0)
  (0.114522 0.0446488 0)
  (-0.128326 -0.00741267 0)
  (0.767753 0.468273 0)
  (-0.302111 0.173274 0)
  (0.0219149 0.0677517 0)
  (0.0491688 0.0632837 0)
  (0.0695523 0.0449226 0)
  (0.10108 -0.00145294 0)
  (0.133109 -0.0551517 0)
  (0.151808 -0.0966808 0)
  (0.158254 -0.123072 0)
  (0.154466 -0.135152 0)
  (0.143024 -0.135001 0)
  (0.126763 -0.125433 0)
  (0.108223 -0.109359 0)
  (0.0895605 -0.0896875 0)
  (0.0725316 -0.0690164 0)
  (0.0582632 -0.0494379 0)
  (0.0472859 -0.0335795 0)
  (0.0385353 -0.0238332 0)
  (0.0300391 -0.0193369 0)
  (0.0214575 -0.0168154 0)
  (0.0138067 -0.0144294 0)
  (0.00805306 -0.012236 0)
  (0.00437121 -0.0104043 0)
  (0.00273427 -0.00892712 0)
  (0.00295334 -0.00815607 0)
  (0.00451769 -0.00844521 0)
  (0.00681756 -0.00915775 0)
  (0.00964327 -0.00943354 0)
  (0.0130484 -0.00842117 0)
  (0.0171617 -0.00513373 0)
  (0.0229156 0.00137643 0)
  (0.0286064 0.0101887 0)
  (0.0340091 0.0205797 0)
  (0.0409563 0.0332225 0)
  (0.0487445 0.0479209 0)
  (0.0704986 0.0663959 0)
  (0.0840812 0.0748234 0)
  (0.115903 0.0527875 0)
  (0.155448 0.044109 0)
  (-0.0364118 0.0926249 0)
  (0.872479 0.469717 0)
  (-0.0647293 0.151965 0)
  (0.109652 -0.0135731 0)
  (0.181126 -0.0398059 0)
  (0.210097 -0.0509787 0)
  (0.241687 -0.0735478 0)
  (0.260034 -0.0961578 0)
  (0.261474 -0.112491 0)
  (0.247463 -0.120487 0)
  (0.222026 -0.120113 0)
  (0.18963 -0.112535 0)
  (0.15431 -0.0995615 0)
  (0.119223 -0.0829691 0)
  (0.0867752 -0.0649177 0)
  (0.0585954 -0.0473384 0)
  (0.0353318 -0.0314798 0)
  (0.017744 -0.0194452 0)
  (0.00501882 -0.0126076 0)
  (-0.00473673 -0.00987578 0)
  (-0.0121319 -0.00902669 0)
  (-0.017951 -0.00857491 0)
  (-0.0221532 -0.00834165 0)
  (-0.0248704 -0.00834766 0)
  (-0.0262685 -0.00860588 0)
  (-0.0265894 -0.00925759 0)
  (-0.0262424 -0.0103549 0)
  (-0.0256072 -0.0115876 0)
  (-0.0247823 -0.0124982 0)
  (-0.0236025 -0.0125876 0)
  (-0.0216717 -0.0112853 0)
  (-0.0180167 -0.00787108 0)
  (-0.00934338 -0.00164387 0)
  (-0.00105755 0.00640601 0)
  (0.00944025 0.0145711 0)
  (0.0211188 0.0216677 0)
  (0.0409153 0.0290594 0)
  (0.0600056 0.0226682 0)
  (0.0801066 -0.00455405 0)
  (0.138967 0.0390403 0)
  (-0.405014 0.202518 0)
  (1.0193 0.422973 0)
  (0.484925 0.279567 0)
  (0.499717 0.183302 0)
  (0.52564 0.112501 0)
  (0.506714 0.0617988 0)
  (0.465372 0.0148639 0)
  (0.4171 -0.0246847 0)
  (0.363991 -0.0520988 0)
  (0.306293 -0.0664037 0)
  (0.246888 -0.0694674 0)
  (0.189228 -0.0645897 0)
  (0.135933 -0.0549557 0)
  (0.0885496 -0.042507 0)
  (0.0486202 -0.029408 0)
  (0.0163075 -0.0174672 0)
  (-0.00935258 -0.00781412 0)
  (-0.0248122 -0.00330887 0)
  (-0.0342743 -0.0021521 0)
  (-0.0406364 -0.00260968 0)
  (-0.0455148 -0.00359134 0)
  (-0.0494857 -0.00459784 0)
  (-0.0527036 -0.00559882 0)
  (-0.0552946 -0.00661518 0)
  (-0.0574269 -0.00766648 0)
  (-0.0593437 -0.00879942 0)
  (-0.06139 -0.00999384 0)
  (-0.0639099 -0.0110454 0)
  (-0.0671951 -0.0115809 0)
  (-0.0715538 -0.011068 0)
  (-0.0774122 -0.00881861 0)
  (-0.0853179 -0.00402361 0)
  (-0.0952376 0.00387704 0)
  (-0.105314 0.014363 0)
  (-0.120068 0.0276672 0)
  (-0.143229 0.0439403 0)
  (-0.177306 0.0621265 0)
  (-0.225669 0.0783616 0)
  (-0.281377 0.0900983 0)
  (-0.349467 0.0972645 0)
  (-0.609428 0.100357 0)
  (-0.152552 0.00265732 0)
  (0.122175 0.00354992 0)
  (0.202561 -0.0293902 0)
  (0.18929 -0.040335 0)
  (0.173367 -0.0391863 0)
  (0.151497 -0.0349516 0)
  (0.122211 -0.0292517 0)
  (0.088546 -0.0222419 0)
  (0.0539887 -0.0143875 0)
  (0.0192863 -0.00628285 0)
  (-0.0143766 0.00144174 0)
  (-0.0375377 0.00603051 0)
  (-0.053459 0.00855128 0)
  (-0.0631319 0.00920998 0)
  (-0.0684159 0.00844379 0)
  (-0.0720478 0.00751743 0)
  (-0.0748906 0.00673493 0)
  (-0.0774326 0.00612555 0)
  (-0.0799897 0.00558828 0)
  (-0.0826692 0.00489126 0)
  (-0.0854615 0.00409614 0)
  (-0.0884492 0.00323 0)
  (-0.0917568 0.00235032 0)
  (-0.0955192 0.00158237 0)
  (-0.0998075 0.00117294 0)
  (-0.10462 0.00143127 0)
  (-0.109878 0.00268337 0)
  (-0.115405 0.00522275 0)
  (-0.1206 0.00955149 0)
  (-0.124713 0.0165785 0)
  (-0.128118 0.0274278 0)
  (-0.131028 0.0424841 0)
  (-0.13411 0.0609552 0)
  (-0.137801 0.0794369 0)
  (-0.139069 0.0883845 0)
  (-0.121719 0.0672636 0)
  (-0.0792858 -0.0230118 0)
  (-0.274115 -0.19829 0)
  (0.0136361 0.195018 0)
  (0.0417713 0.0710589 0)
  (0.000570731 0.00648558 0)
  (-0.0115956 -0.0016475 0)
  (-0.0241397 6.39262e-05 0)
  (-0.0385591 5.08905e-05 0)
  (-0.054671 0.000905584 0)
  (-0.0703066 0.00302243 0)
  (-0.0829245 0.00511977 0)
  (-0.0902541 0.00558141 0)
  (-0.0948421 0.0038118 0)
  (-0.0968867 -7.73375e-05 0)
  (-0.0973363 -0.00460965 0)
  (-0.0968959 -0.00949571 0)
  (-0.0964691 -0.0147178 0)
  (-0.0966331 -0.0198099 0)
  (-0.0974245 -0.024475 0)
  (-0.0987442 -0.0284362 0)
  (-0.100461 -0.031502 0)
  (-0.102518 -0.033615 0)
  (-0.10496 -0.034898 0)
  (-0.107695 -0.0353108 0)
  (-0.110623 -0.0348068 0)
  (-0.113663 -0.0336533 0)
  (-0.116693 -0.0318184 0)
  (-0.119472 -0.0290714 0)
  (-0.121619 -0.0249945 0)
  (-0.122649 -0.0189472 0)
  (-0.122141 -0.0110285 0)
  (-0.119228 -0.000939128 0)
  (-0.112543 0.01205 0)
  (-0.100798 0.0285875 0)
  (-0.083546 0.0482074 0)
  (-0.0615489 0.0670244 0)
  (-0.0376505 0.078065 0)
  (0.00206192 0.0622949 0)
  (0.143033 -0.00805798 0)
  (-0.204976 -0.108502 0)
  (-0.0435112 -0.319849 0)
  (-0.413104 -0.123042 0)
  (-0.301118 0.0647547 0)
  (-0.248746 -0.0173638 0)
  (-0.208759 -0.0231226 0)
  (-0.197123 -0.012183 0)
  (-0.192531 -0.00251191 0)
  (-0.189104 0.00551648 0)
  (-0.184751 0.0130636 0)
  (-0.178512 0.020573 0)
  (-0.170177 0.0281326 0)
  (-0.16002 0.0356598 0)
  (-0.149109 0.0429782 0)
  (-0.138612 0.0500406 0)
  (-0.129346 0.0570998 0)
  (-0.121626 0.0641365 0)
  (-0.115511 0.071115 0)
  (-0.110837 0.0778071 0)
  (-0.107363 0.0837932 0)
  (-0.10488 0.0886669 0)
  (-0.103203 0.0921686 0)
  (-0.102179 0.094211 0)
  (-0.101723 0.0948811 0)
  (-0.101787 0.0941365 0)
  (-0.102322 0.0919297 0)
  (-0.103243 0.0887575 0)
  (-0.104425 0.0848527 0)
  (-0.105646 0.0803033 0)
  (-0.106523 0.0751503 0)
  (-0.106388 0.0694458 0)
  (-0.103974 0.0644896 0)
  (-0.0974509 0.0611956 0)
  (-0.0844548 0.0604379 0)
  (-0.0631737 0.0631602 0)
  (-0.0340208 0.0699052 0)
  (0.0115953 0.0798075 0)
  (0.0548415 0.0808652 0)
  (0.0957326 0.0680656 0)
  (0.161008 0.0423172 0)
  (-0.232249 -0.00785385 0)
)
;

boundaryField
{
  floor
  {
    type noSlip;
  }
  ceiling
  {
    type noSlip;
  }
  sWall
  {
    type noSlip;
  }
  nWall
  {
    type noSlip;
  }
  sideWalls
  {
    type empty;
  }
  glass1
  {
    type noSlip;
  }
  glass2
  {
    type noSlip;
  }
  sun
  {
    type noSlip;
  }
  heatsource1
  {
    type noSlip;
  }
  heatsource2
  {
    type noSlip;
  }
  Table_master
  {
    type noSlip;
  }
  Table_slave
  {
    type noSlip;
  }
  inlet
  {
    type fixedValue;
    value uniform (0.1 0 0);
  }
  outlet
  {
    type zeroGradient;
  }
} 	// ************************************************************************* //

