/*--------------------------------*- C++ -*----------------------------------*\
  =========                 |
  \\      /  F ield         | OpenFOAM: The Open Source CFD Toolbox
   \\    /   O peration     | Website:  https://openfoam.org
    \\  /    A nd           | Version:  6
     \\/     M anipulation  |
\*---------------------------------------------------------------------------*/
FoamFile
{
    version     2.0;
    format      ascii;
    class       volScalarField;
    location    "500";
    object      nut;
}
// * * * * * * * * * * * * * * * * * * * * * * * * * * * * * * * * * * * * * //

dimensions      [0 2 -1 0 0 0 0];

internalField   nonuniform List<scalar> 
459
(
0.000776288
0.000818893
0.000817234
0.000844118
0.000866528
0.000885226
0.000901209
0.000915421
0.000928837
0.000940758
0.000947779
0.000948363
0.000942228
0.000932025
0.000920842
0.000537376
0.000509918
0.000486362
0.000467325
0.000450859
0.000435724
0.000421292
0.000407893
0.000395634
0.000384359
0.000373897
0.000364093
0.000354788
0.000345763
0.000336672
0.000326996
0.000315766
0.000306516
0.000283723
0.00113077
0.00193391
0.0016897
0.001931
0.00208752
0.00225216
0.00241428
0.00255919
0.00266497
0.00272626
0.00275015
0.00270486
0.00254531
0.00220936
0.00162076
0.000933125
0.000833826
0.000652944
0.000818934
0.000913326
0.000975124
0.00100759
0.00100966
0.000928761
0.00087603
0.000832024
0.000791435
0.000753201
0.00071621
0.000678556
0.00063702
0.000589129
0.000545743
0.00051
0.000607133
0.00035329
0.00145036
0.00274312
0.00188653
0.00260866
0.00280259
0.00293964
0.00303935
0.00311308
0.00316934
0.00321312
0.00324739
0.00324645
0.00318113
0.00302706
0.00274894
0.00220231
0.00100313
0.000732986
0.00106083
0.00121016
0.00131978
0.00139881
0.00135664
0.000485796
0.000447791
0.000416552
0.000390929
0.000369803
0.000352276
0.000337752
0.000326027
0.000317542
0.000356674
0.000420435
0.000690021
0.000407231
0.00178246
0.00397031
0.00178571
0.002845
0.00309048
0.00315954
0.00317175
0.00316642
0.0031726
0.00319997
0.00324123
0.00326672
0.00324708
0.0031702
0.00304667
0.00288733
0.00260286
0.000863388
0.00125836
0.00144194
0.00155826
0.00167649
0.00178804
0.0017156
0.00053676
0.00052332
0.000518448
0.000515342
0.00050911
0.000496683
0.000483245
0.000466916
0.000444799
0.000419776
0.000430586
0.00080397
0.000452455
0.00213091
0.00568633
0.00204327
0.00268956
0.00316246
0.00320555
0.00315752
0.00309464
0.00307261
0.00310596
0.00317847
0.00323925
0.00324304
0.0031614
0.00299606
0.00282112
0.00275509
0.00251828
0.00213368
0.00194895
0.00190739
0.00197043
0.0020703
0.00215027
0.00207879
0.00210305
0.00213702
0.00214902
0.00212321
0.00204729
0.00186486
0.0016122
0.00131372
0.000988668
0.000730934
0.000786745
0.000559672
0.000608372
0.000728982
0.000807973
0.00249843
0.00760724
0.00338244
0.00232882
0.00294553
0.00313347
0.00312388
0.00303778
0.00297281
0.00301808
0.003142
0.00324213
0.0032697
0.00318192
0.00296222
0.00271142
0.00259962
0.00245261
0.00218291
0.00203409
0.00200913
0.00205231
0.0021496
0.0022758
0.00239617
0.00250497
0.00258385
0.0026243
0.00262311
0.00257908
0.00245078
0.00222586
0.00190487
0.00150691
0.00113544
0.000860116
0.000703068
0.000658693
0.00100277
0.00083726
0.00287816
0.00920492
0.00616244
0.00319385
0.00246425
0.00249567
0.00272361
0.00291895
0.00292068
0.00303434
0.00317644
0.00327854
0.00330449
0.00320018
0.0029393
0.00263023
0.00249464
0.00239048
0.002157
0.0020448
0.00200289
0.0020411
0.00214834
0.00228237
0.00241841
0.00253945
0.00262724
0.00268186
0.00270626
0.00270566
0.00267736
0.00250634
0.0022073
0.00182531
0.00147064
0.00114678
0.000948954
0.000910368
0.000981438
0.000894622
0.0029826
0.00920122
0.00753859
0.00591419
0.00442456
0.00346742
0.0030888
0.00311567
0.00319814
0.00324914
0.00330949
0.00336114
0.00335222
0.00320162
0.00287142
0.00250096
0.00238825
0.00234711
0.00212621
0.00199523
0.00193978
0.00198776
0.00208441
0.00219337
0.0022984
0.00239001
0.00246236
0.00251881
0.0025679
0.00262151
0.00268831
0.00271127
0.00246717
0.00214674
0.00188347
0.00177341
0.0018867
0.0023915
0.0032943
0.00147624
0.00293669
0.0035842
0.00404256
0.00420659
0.00411556
0.00384654
0.003593
0.00345794
0.00338623
0.0033825
0.00341466
0.00343547
0.00337472
0.00313294
0.00269051
0.00225411
0.00222785
0.00226998
0.00204351
0.00186583
0.00181306
0.00185036
0.00191769
0.00198838
0.00205082
0.0020984
0.00212728
0.00213607
0.0021243
0.00209164
0.00203849
0.00196798
0.00190078
0.00186525
0.00188749
0.00195864
0.00201454
0.00198711
0.00187786
0.00138044
0.00209948
0.00359624
0.00395659
0.0039756
0.00390252
0.00383418
0.0037815
0.00371941
0.00363837
0.00351136
0.00328396
0.00286192
0.00228676
0.00181634
0.00197812
0.00214328
0.00184465
0.0016457
0.00159108
0.00160957
0.00165076
0.00169568
0.00173631
0.00176855
0.00179072
0.00180332
0.00180907
0.00181304
0.00182241
0.00184616
0.00187705
0.00192085
0.00197549
0.00201684
0.00200215
0.00190951
0.00174268
0.00113715
0.00223952
0.00414805
0.00441424
0.00432607
0.00419678
0.00405011
0.00388312
0.00367379
0.00337554
0.00302747
0.00262553
0.00211097
0.00156594
0.00114779
0.00143696
0.0014582
0.0012645
0.00114338
0.00112119
0.00114524
0.00119008
0.00124676
0.00131183
0.00138371
0.00146134
0.00154334
0.00162735
0.00170912
0.00178515
0.00186837
0.00195919
0.0020563
0.00215053
0.00222806
0.00224824
0.00232275
0.00223617
0.00115128
0.00195147
0.00206058
0.00215116
0.00229452
0.00217471
0.00201925
0.00186163
0.00171474
0.00156816
0.00142832
0.00131113
0.00120134
0.0010899
0.000963819
0.000669388
0.00047765
0.000467
0.000470243
0.000476185
0.000491333
0.000511481
0.000534521
0.000559572
0.000586266
0.000614451
0.00064412
0.000675403
0.000708623
0.0007444
0.000783853
0.000828456
0.000877234
0.000930964
0.000990674
0.00105738
0.00114237
0.00117406
0.00115143
0.00107971
0.00100293
)
;

boundaryField
{
    floor
    {
        type            nutkWallFunction;
        Cmu             0.09;
        kappa           0.41;
        E               9.8;
        value           nonuniform List<scalar> 
29
(
0.000111362
6.44736e-05
6.09815e-05
5.79684e-05
5.55205e-05
5.33934e-05
5.14296e-05
4.95491e-05
4.77959e-05
4.61853e-05
4.46986e-05
4.33138e-05
4.20118e-05
4.07717e-05
3.95649e-05
3.83452e-05
3.70422e-05
3.55237e-05
3.42676e-05
3.11505e-05
3.11504e-05
4.05706e-05
4.77079e-05
5.35988e-05
0.000111362
6.44736e-05
7.89307e-05
8.87618e-05
0.000104515
)
;
    }
    ceiling
    {
        type            nutkWallFunction;
        Cmu             0.09;
        kappa           0.41;
        E               9.8;
        value           nonuniform List<scalar> 
43
(
0.000227995
0.000239866
0.000249672
0.00026519
0.000252326
0.000235494
0.000218273
0.000202079
0.000185767
0.000170045
0.00015674
0.000144155
0.000131247
0.000116462
8.10004e-05
5.68566e-05
5.5483e-05
5.5901e-05
5.66649e-05
5.8608e-05
6.11814e-05
6.41093e-05
6.72752e-05
7.06298e-05
7.41519e-05
7.78383e-05
8.17033e-05
8.57842e-05
9.01538e-05
9.49437e-05
0.000100325
0.000106171
0.000112567
0.000119626
0.000127453
0.000137347
0.000141014
0.000138396
0.000130061
0.000121069
0.000333493
0.000400574
0.000259113
)
;
    }
    sWall
    {
        type            nutkWallFunction;
        Cmu             0.09;
        kappa           0.41;
        E               9.8;
        value           uniform 0.000228057;
    }
    nWall
    {
        type            nutkWallFunction;
        Cmu             0.09;
        kappa           0.41;
        E               9.8;
        value           nonuniform List<scalar> 6(9.78587e-05 0.000101384 0.000108249 0.000136751 0.000138388 0.000121076);
    }
    sideWalls
    {
        type            empty;
    }
    glass1
    {
        type            nutkWallFunction;
        Cmu             0.09;
        kappa           0.41;
        E               9.8;
        value           nonuniform List<scalar> 9(9.4018e-05 0.000136122 0.000172765 0.000209892 0.00024804 0.000287556 0.000327743 0.000338705 0.00033391);
    }
    glass2
    {
        type            nutkWallFunction;
        Cmu             0.09;
        kappa           0.41;
        E               9.8;
        value           nonuniform List<scalar> 2(0.00017554 0.000164704);
    }
    sun
    {
        type            nutkWallFunction;
        Cmu             0.09;
        kappa           0.41;
        E               9.8;
        value           nonuniform List<scalar> 
14
(
9.4024e-05
9.91704e-05
9.89703e-05
0.000102202
0.000104887
0.000107121
0.000109026
0.000110717
0.00011231
0.000113723
0.000114555
0.000114624
0.000113898
0.000112689
)
;
    }
    heatsource1
    {
        type            nutkWallFunction;
        Cmu             0.09;
        kappa           0.41;
        E               9.8;
        value           nonuniform List<scalar> 3(7.3395e-05 8.8274e-05 9.78577e-05);
    }
    heatsource2
    {
        type            nutkWallFunction;
        Cmu             0.09;
        kappa           0.41;
        E               9.8;
        value           nonuniform List<scalar> 4(0.000112817 0.000100967 0.000100967 0.000121084);
    }
    Table_master
    {
        type            nutkWallFunction;
        Cmu             0.09;
        kappa           0.41;
        E               9.8;
        value           nonuniform List<scalar> 9(5.79003e-05 5.30018e-05 4.89366e-05 4.55736e-05 4.27797e-05 4.04463e-05 3.85015e-05 3.69235e-05 3.57772e-05);
    }
    Table_slave
    {
        type            nutkWallFunction;
        Cmu             0.09;
        kappa           0.41;
        E               9.8;
        value           nonuniform List<scalar> 9(6.43943e-05 6.26891e-05 6.20697e-05 6.16746e-05 6.08806e-05 5.92938e-05 5.75723e-05 5.54725e-05 5.26136e-05);
    }
    inlet
    {
        type            calculated;
        value           uniform 0.000100623;
    }
    outlet
    {
        type            calculated;
        value           nonuniform List<scalar> 2(0.00195147 0.00206058);
    }
}


// ************************************************************************* //
