/*--------------------------------*- C++ -*----------------------------------*\
  =========                 |
  \\      /  F ield         | OpenFOAM: The Open Source CFD Toolbox
   \\    /   O peration     | Website:  https://openfoam.org
    \\  /    A nd           | Version:  6
     \\/     M anipulation  |
\*---------------------------------------------------------------------------*/
FoamFile
{
    version     2.0;
    format      ascii;
    class       surfaceScalarField;
    location    "700";
    object      phi;
}
// * * * * * * * * * * * * * * * * * * * * * * * * * * * * * * * * * * * * * //

dimensions      [1 0 -1 0 0 0 0];

internalField   nonuniform List<scalar> 
852
(
-0.00219962
0.0022495
-0.00241072
0.000211182
-0.00262538
0.000214729
-0.00286509
0.000239785
-0.00308423
0.000219221
-0.00326193
0.000177771
-0.00338416
0.000122313
-0.00343754
5.34553e-05
-0.00340763
-2.98406e-05
-0.00327702
-0.000130534
-0.00302794
-0.000249001
-0.00264324
-0.000384633
-0.00208835
-0.000554812
-0.0012614
-0.000826871
-0.00126171
-3.37863e-05
3.56513e-05
-3.57133e-05
1.99901e-06
-2.54019e-05
-1.0238e-05
-2.38136e-06
-2.29411e-05
3.88747e-05
-4.11727e-05
9.88232e-05
-5.98633e-05
0.000175277
-7.63679e-05
0.000250485
-7.51197e-05
0.000314501
-6.39276e-05
0.000369697
-5.51082e-05
0.000415398
-4.56121e-05
0.00043981
-2.43245e-05
0.000432628
7.26983e-06
0.000391182
4.15329e-05
0.000327405
6.38647e-05
0.000242138
8.53572e-05
0.000169752
7.24778e-05
9.65263e-05
7.33188e-05
9.83251e-05
-0.00157942
0.00395871
-0.00205798
0.000689814
-0.0023823
0.000539125
-0.00264265
0.00050021
-0.00286549
0.000442143
-0.00304664
0.000358997
-0.00317753
0.000253272
-0.00324773
0.000123733
-0.00324624
-3.12534e-05
-0.00316386
-0.000212841
-0.00299123
-0.000421554
-0.00271794
-0.00065785
-0.00233784
-0.000934843
-0.00189766
-0.00126698
-0.00156987
-0.00158942
5.07176e-05
-0.00162056
5.07446e-05
0.00015768
-0.000119141
-4.40443e-05
0.000203826
-0.000217631
0.000163442
-0.000294319
5.38395e-05
-0.000316414
-1.89847e-05
-0.00033341
-4.27741e-05
-0.000270854
-0.000138832
-0.000246183
-9.96993e-05
-0.000243803
-6.62155e-05
-0.000258244
-4.05764e-05
-0.000289734
-1.40319e-05
-0.000331833
1.78612e-05
-0.000375855
5.1377e-05
-0.000414475
8.02363e-05
-0.000426869
7.63389e-05
-0.000340956
-4.76412e-07
-0.000291005
2.26056e-05
-0.000257934
4.03376e-05
-0.000157847
-0.00116132
0.00531282
-0.00173476
0.00126333
-0.00207295
0.000877394
-0.00232338
0.000750709
-0.00253171
0.000650545
-0.00270262
0.000529985
-0.00283224
0.000382964
-0.00291314
0.000204709
-0.00293696
-7.36056e-06
-0.00289888
-0.000250844
-0.00280139
-0.000518968
-0.0026519
-0.000807272
-0.00246981
-0.00111686
-0.00230013
-0.00143657
-0.00218382
-0.00170566
-0.00196475
-0.00183955
-0.00191392
-0.000878639
0.000761192
-0.000950903
0.000276183
-0.000929098
0.000141732
-0.000910717
3.555e-05
-0.000867516
-6.20961e-05
-0.000722044
-0.000188156
-0.000860629
-0.000960082
-0.00102605
-0.00106638
-0.00108017
-0.00106206
-0.00101044
-0.000929964
-0.000853384
-0.000467254
-0.000386521
-0.00017406
-0.000270503
5.47813e-05
-0.000188428
-0.000104007
-0.000865888
0.00642264
-0.00145534
0.00185285
-0.00173184
0.00115397
-0.00195025
0.000969202
-0.00212632
0.000826682
-0.00226667
0.000670408
-0.00237368
0.000490057
-0.0024442
0.000275293
-0.00247248
2.09979e-05
-0.00245755
-0.000265707
-0.00241397
-0.000562473
-0.00236729
-0.000853884
-0.00235229
-0.00113178
-0.00241028
-0.00137852
-0.00256199
-0.00155387
-0.00280551
-0.00159596
-0.00341011
-0.00130925
-0.00285344
-0.000557732
-0.00207414
-1.80293e-05
-0.00188061
8.27327e-05
-0.00180474
6.5948e-05
-0.00177801
8.9011e-06
-0.00177297
-6.7063e-05
-0.00184017
-0.000120875
-0.00174298
-9.72604e-05
-0.00164726
-9.5794e-05
-0.00154497
-0.00010237
-0.00143612
-0.000108923
-0.00131897
-0.000117221
-0.00118955
-0.000129499
-0.00104003
-0.000149593
-0.000852729
-0.000187375
-0.000582812
-0.000269991
-0.00053474
-0.000434516
-0.000306342
-0.000498825
1.29021e-05
-0.000507597
-9.40004e-05
-0.000650015
0.00735963
-0.00122809
0.00243101
-0.00137557
0.00130153
-0.001527
0.00112071
-0.00165842
0.000958181
-0.00174944
0.000761495
-0.00180696
0.00054765
-0.00183523
0.000303636
-0.00182955
1.53961e-05
-0.001795
-0.000300193
-0.00175657
-0.000600826
-0.00174477
-0.000865617
-0.00178715
-0.00108933
-0.0018999
-0.0012657
-0.002082
-0.0013717
-0.00232737
-0.00135052
-0.00253768
-0.00109887
-0.00242867
-0.000666664
-0.00214168
-0.000304939
-0.00192063
-0.000138242
-0.00177072
-8.38917e-05
-0.00167474
-8.69958e-05
-0.00162358
-0.000118151
-0.00160062
-0.000143752
-0.00154905
-0.000148755
-0.00149074
-0.000154035
-0.00143124
-0.000161791
-0.00136946
-0.000170622
-0.00130481
-0.000181805
-0.00123548
-0.000198744
-0.00115669
-0.000228312
-0.00105985
-0.000284144
-0.000944923
-0.000384839
-0.00085337
-0.000525994
-0.000683381
-0.00066874
-0.000380265
-0.00081064
0.000390709
-0.000864902
0.00118158
-0.000790997
0.00127761
-9.61609e-05
0.00129655
-0.000611193
0.00829511
-0.00112695
0.00294684
-0.000969781
0.00114444
-0.000956428
0.00110743
-0.00106105
0.00106288
-0.00110968
0.000810197
-0.00110125
0.0005393
-0.00106104
0.000263495
-0.000993257
-5.23123e-05
-0.000918893
-0.000374486
-0.000868949
-0.000650699
-0.000869301
-0.000865194
-0.000937238
-0.00102133
-0.00107642
-0.00112644
-0.00127548
-0.00117258
-0.00150118
-0.00112474
-0.00165718
-0.000942801
-0.00165905
-0.000664721
-0.00154939
-0.000414529
-0.00142845
-0.000259106
-0.00133205
-0.000180217
-0.0012665
-0.000152464
-0.00123054
-0.000154035
-0.00121125
-0.00016297
-0.00119147
-0.000168463
-0.00117119
-0.000174234
-0.00115265
-0.000180262
-0.0011374
-0.000185787
-0.00112782
-0.00019131
-0.0011267
-0.000199788
-0.0011362
-0.000218744
-0.00115779
-0.000262478
-0.00119403
-0.000348523
-0.0012356
-0.000484355
-0.00123561
-0.000668652
-0.00113346
-0.000912719
-0.000780239
-0.00121805
-0.000107105
-0.00146406
0.000434903
-0.000638096
0.00175415
-0.000783507
0.00943736
-0.000800823
0.00296423
-0.000118891
0.000462588
9.84357e-05
0.000890189
-5.57987e-05
0.0012172
-0.000123964
0.000878442
-7.65646e-05
0.000491979
2.15567e-05
0.000165451
0.000128292
-0.000158972
0.000205915
-0.000452037
0.000235655
-0.000680366
0.000204956
-0.000834425
0.000107343
-0.000923645
-5.63003e-05
-0.000962731
-0.000269377
-0.000959429
-0.000492042
-0.000902009
-0.000661606
-0.000773168
-0.000736149
-0.000590107
-0.000736335
-0.000414273
-0.000709001
-0.000286367
-0.000681185
-0.00020796
-0.00066464
-0.000168935
-0.000662527
-0.000156074
-0.000669999
-0.000155423
-0.00068029
-0.000158097
-0.000692454
-0.000161995
-0.000707641
-0.000164999
-0.000728533
-0.00016482
-0.000760155
-0.000159613
-0.000810802
-0.000149066
-0.000892572
-0.000136899
-0.00102087
-0.000134109
-0.00120956
-0.000159757
-0.0014559
-0.000237944
-0.00173203
-0.000392447
-0.00200032
-0.000644357
-0.00221339
-0.00100491
-0.00227034
-0.00140705
-0.00149781
-0.00141055
0.000282129
0.00168835
0.00815148
0.00233651
0.00231615
0.00262193
0.000177246
0.00224532
0.00126689
0.00190028
0.00156232
0.00175168
0.00102712
0.00168729
0.000556448
0.00166311
0.000189716
0.00165117
-0.000146956
0.00161886
-0.000419657
0.00154173
-0.00060316
0.00141902
-0.000711642
0.00125593
-0.000760483
0.00105719
-0.000763923
0.000830745
-0.000732912
0.000599076
-0.000670271
0.000399577
-0.000573601
0.000261383
-0.000451845
0.000179647
-0.000332467
0.000131385
-0.000238035
9.78699e-05
-0.000174373
6.76071e-05
-0.0001386
3.48774e-05
-0.000123271
-6.59668e-07
-0.000119812
-3.68638e-05
-0.000121819
-7.34541e-05
-0.000125331
-0.000111151
-0.000127226
-0.000151471
-0.000124424
-0.000197379
-0.00011363
-0.000254766
-9.16021e-05
-0.000334892
-5.6697e-05
-0.00045766
-1.12659e-05
-0.000658556
4.12142e-05
-0.000981948
8.55213e-05
-0.0014536
7.92781e-05
-0.00207833
-1.95533e-05
-0.00289469
-0.000188475
-0.00387747
-0.000424196
-0.00395259
-0.00133536
-0.00358001
0.00858024
0.0108765
0.00964111
0.00141269
0.00689298
0.00401509
0.00573455
0.00272082
0.00499472
0.00176702
0.00443232
0.00111893
0.0040045
0.000617605
0.00363252
0.000225103
0.00328158
-6.86438e-05
0.00295542
-0.000276924
0.00265584
-0.000412
0.00237741
-0.000481976
0.0021141
-0.000500546
0.00186162
-0.000480365
0.00162291
-0.000431485
0.0014098
-0.000360423
0.00123605
-0.000278029
0.00110316
-0.000199504
0.00100218
-0.000136984
0.000922607
-9.47357e-05
0.000856081
-7.20033e-05
0.000796346
-6.3465e-05
0.0007402
-6.35949e-05
0.00068682
-6.8366e-05
0.000635479
-7.39162e-05
0.000585644
-7.73178e-05
0.000537312
-7.60186e-05
0.000491271
-6.75136e-05
0.000449227
-4.94829e-05
0.000413592
-2.0986e-05
0.000387461
1.4941e-05
0.000373634
5.51165e-05
0.000374104
8.51266e-05
0.000387088
6.6368e-05
0.00039383
-2.62211e-05
0.000381651
-0.000176221
0.000355155
-0.000397627
0.000173793
-0.00115392
-0.00330555
-0.000443687
0.00258357
0.00240317
0.0011683
0.00371543
0.00140862
0.00404396
0.00143857
0.00408717
0.00107579
0.00404378
0.000661074
0.0039363
0.00033265
0.00376822
9.95097e-05
0.0035589
-6.7536e-05
0.00332505
-0.000178079
0.00307891
-0.000235768
0.00283166
-0.000253226
0.00259222
-0.000240858
0.0023689
-0.000208095
0.00216845
-0.000159902
0.00199771
-0.000107219
0.00185827
-5.99996e-05
0.00174635
-2.49945e-05
0.00165581
-4.12845e-06
0.00158
3.87751e-06
0.00151332
3.2864e-06
0.00145229
-2.49217e-06
0.00139481
-1.0822e-05
0.00133967
-1.87063e-05
0.00128672
-2.42936e-05
0.00123694
-2.61625e-05
0.00119269
-2.31946e-05
0.00115798
-1.46979e-05
0.00113801
-9.38597e-07
0.00114018
1.28485e-05
0.00117614
1.92316e-05
0.00125107
1.02659e-05
0.00135861
-4.10928e-05
0.00148184
-0.000149379
0.00161104
-0.000305345
0.00168052
-0.000467031
0.0013256
-0.000798937
-0.0019585
-0.000106783
0.00267863
0.00161083
-0.000549253
0.00251718
0.000502326
0.00303315
0.000922668
0.00341716
0.00069184
0.0036623
0.000416001
0.00377364
0.000221372
0.00377767
9.5551e-05
0.00368612
2.40836e-05
0.00351432
-6.20994e-06
0.00329493
-1.63107e-05
0.00305712
-1.53491e-05
0.00282461
-8.27889e-06
0.00261413
2.4567e-06
0.00243955
1.47473e-05
0.0023059
2.64919e-05
0.00220964
3.63307e-05
0.00214184
4.28781e-05
0.00209216
4.5616e-05
0.00205081
4.53013e-05
0.00201226
4.19029e-05
0.00197314
3.66993e-05
0.00193117
3.12146e-05
0.0018867
2.58358e-05
0.00184125
2.12213e-05
0.00179742
1.77454e-05
0.00175878
1.55121e-05
0.00172993
1.42224e-05
0.00171631
1.27614e-05
0.00171936
9.86792e-06
0.00173936
-6.91829e-07
0.00177673
-2.70335e-05
0.00181654
-8.08249e-05
0.00184015
-0.000172916
0.00185263
-0.000317748
0.00192492
-0.000539252
0.00199651
-0.000870452
6.04306e-05
0.00440823
-0.00196462
0.00069609
0.000124689
0.00060032
0.00149379
0.00215345
0.0025343
0.00271772
0.00277278
0.00275426
0.00270395
0.0026427
0.00258214
0.00252878
0.0024865
0.00245695
0.00243956
0.00243233
0.00243187
0.00243433
0.00243661
0.00243564
0.00242964
0.00241835
0.0024019
0.0023811
0.00235708
0.00233111
0.00230412
0.00227592
0.00224506
0.00220378
0.0021363
0.00201507
0.00180163
0.00144299
0.000861964
-5.07724e-05
)
;

boundaryField
{
    floor
    {
        type            calculated;
        value           nonuniform List<scalar> 
29
(
0
0
0
0
0
0
0
0
0
0
0
0
0
0
0
0
0
0
0
0
-1.71341e-06
-1.63677e-06
1.01547e-06
2.96896e-06
3.82721e-07
-1.79241e-06
-2.75848e-06
-1.60205e-06
1.14878e-06
)
;
    }
    ceiling
    {
        type            calculated;
        value           nonuniform List<scalar> 
43
(
5.59277e-05
3.73862e-05
1.79866e-05
2.22101e-05
2.67513e-05
2.92633e-05
3.22375e-05
3.52153e-05
3.80248e-05
4.05545e-05
4.26645e-05
4.41739e-05
4.50065e-05
4.52754e-05
4.51505e-05
4.48064e-05
4.43605e-05
4.39512e-05
4.36322e-05
4.34018e-05
4.32315e-05
4.30857e-05
4.29386e-05
4.27717e-05
4.2575e-05
4.23488e-05
4.20979e-05
4.183e-05
4.15546e-05
4.12828e-05
4.10279e-05
4.08054e-05
4.065e-05
4.0523e-05
4.04807e-05
4.05885e-05
4.09691e-05
4.18441e-05
4.23565e-05
4.18642e-05
2.39635e-05
1.99659e-05
1.17957e-05
)
;
    }
    sWall
    {
        type            calculated;
        value           uniform -0.000138332;
    }
    nWall
    {
        type            calculated;
        value           nonuniform List<scalar> 6(-1.90663e-05 -2.2629e-05 -2.57141e-05 -2.13724e-05 -2.2346e-05 -3.21357e-05);
    }
    sideWalls
    {
        type            empty;
        value           nonuniform 0();
    }
    glass1
    {
        type            calculated;
        value           nonuniform List<scalar> 9(-4.98072e-05 -0.000129717 -0.000192724 -0.000243858 -0.000286909 -0.00032422 -0.000358681 -0.000402402 -0.000452661);
    }
    glass2
    {
        type            calculated;
        value           nonuniform List<scalar> 2(-9.03792e-05 -0.000100603);
    }
    sun
    {
        type            calculated;
        value           uniform 0;
    }
    heatsource1
    {
        type            calculated;
        value           nonuniform List<scalar> 3(2.00831e-07 2.00876e-07 2.00939e-07);
    }
    heatsource2
    {
        type            calculated;
        value           nonuniform List<scalar> 4(5.02362e-08 5.04752e-08 0 0);
    }
    Table_master
    {
        type            calculated;
        value           nonuniform List<scalar> 9(-1.51816e-07 -1.51749e-07 -1.5168e-07 -1.51617e-07 -1.51561e-07 -1.51507e-07 -1.51449e-07 -1.51381e-07 -1.51269e-07);
    }
    Table_slave
    {
        type            calculated;
        value           nonuniform List<scalar> 9(1.50603e-07 1.5064e-07 1.50671e-07 1.50702e-07 1.50734e-07 1.50768e-07 1.50804e-07 1.50846e-07 1.50872e-07);
    }
    inlet
    {
        type            calculated;
        value           uniform -0.000727125;
    }
    outlet
    {
        type            calculated;
        value           nonuniform List<scalar> 2(-0.00432574 0.00633556);
    }
}


// ************************************************************************* //
