// -*- C++ -*-
// File generated by PyFoam - sorry for the ugliness

FoamFile
{
 version 2.0;
 format ascii;
 class volScalarField;
 location "700";
 object T;
}

dimensions [ 0 0 0 1 0 0 0 ];

internalField nonuniform List<scalar> 459
(
  305.884
  305.649
  305.646
  305.653
  305.657
  305.661
  305.664
  305.666
  305.667
  305.667
  305.664
  305.658
  305.648
  305.634
  305.615
  304.312
  304.357
  304.37
  304.359
  304.359
  304.373
  304.388
  304.394
  304.394
  304.395
  304.397
  304.396
  304.388
  304.388
  304.401
  304.438
  304.465
  304.457
  304.424
  306.071
  305.725
  305.709
  305.721
  305.734
  305.745
  305.753
  305.759
  305.762
  305.762
  305.756
  305.741
  305.716
  305.68
  305.631
  305.582
  305.453
  304.603
  304.601
  304.605
  304.599
  304.599
  304.6
  304.6
  304.596
  304.595
  304.601
  304.616
  304.645
  304.685
  304.728
  304.787
  304.857
  304.873
  304.863
  304.881
  306.244
  305.798
  305.763
  305.78
  305.802
  305.822
  305.839
  305.853
  305.862
  305.866
  305.86
  305.842
  305.808
  305.755
  305.681
  305.595
  305.519
  304.934
  304.923
  304.953
  304.99
  305.005
  304.965
  304.806
  304.841
  304.884
  304.929
  304.976
  305.027
  305.087
  305.166
  305.27
  305.386
  305.375
  305.36
  305.352
  306.401
  305.878
  305.814
  305.832
  305.862
  305.892
  305.921
  305.946
  305.966
  305.977
  305.977
  305.962
  305.926
  305.867
  305.782
  305.668
  305.527
  305.392
  305.295
  305.37
  305.445
  305.513
  305.558
  305.587
  305.611
  305.614
  305.617
  305.62
  305.625
  305.629
  305.633
  305.636
  305.635
  305.617
  305.622
  305.628
  305.612
  306.544
  305.967
  305.874
  305.878
  305.912
  305.95
  305.989
  306.026
  306.058
  306.082
  306.092
  306.086
  306.06
  306.013
  305.947
  305.866
  305.78
  305.705
  305.651
  305.637
  305.648
  305.662
  305.669
  305.671
  305.671
  305.669
  305.669
  305.671
  305.675
  305.681
  305.689
  305.698
  305.708
  305.716
  305.729
  305.742
  305.754
  305.767
  305.754
  305.748
  306.669
  306.072
  305.966
  305.94
  305.96
  305.997
  306.041
  306.085
  306.129
  306.164
  306.185
  306.19
  306.176
  306.142
  306.09
  306.023
  305.951
  305.884
  305.831
  305.796
  305.776
  305.763
  305.752
  305.742
  305.732
  305.725
  305.719
  305.715
  305.715
  305.718
  305.724
  305.735
  305.747
  305.762
  305.776
  305.788
  305.796
  305.798
  305.776
  305.751
  306.778
  306.223
  306.139
  306.085
  306.056
  306.066
  306.097
  306.137
  306.185
  306.225
  306.251
  306.264
  306.263
  306.244
  306.207
  306.156
  306.096
  306.035
  305.979
  305.934
  305.898
  305.87
  305.846
  305.826
  305.809
  305.793
  305.78
  305.769
  305.761
  305.757
  305.757
  305.762
  305.772
  305.785
  305.798
  305.81
  305.817
  305.817
  305.803
  305.757
  306.947
  306.531
  306.46
  306.378
  306.294
  306.25
  306.239
  306.247
  306.268
  306.292
  306.309
  306.319
  306.319
  306.31
  306.29
  306.258
  306.214
  306.164
  306.112
  306.064
  306.021
  305.985
  305.953
  305.926
  305.901
  305.879
  305.859
  305.84
  305.823
  305.809
  305.798
  305.793
  305.794
  305.8
  305.812
  305.825
  305.838
  305.851
  305.863
  305.881
  307.179
  307.001
  306.838
  306.723
  306.605
  306.521
  306.466
  306.433
  306.412
  306.396
  306.384
  306.375
  306.365
  306.354
  306.339
  306.318
  306.29
  306.255
  306.216
  306.175
  306.135
  306.097
  306.063
  306.031
  306.003
  305.976
  305.951
  305.926
  305.903
  305.881
  305.861
  305.844
  305.833
  305.826
  305.824
  305.826
  305.83
  305.834
  305.839
  305.869
  305.63
  306.439
  306.496
  306.489
  306.471
  306.453
  306.438
  306.425
  306.412
  306.399
  306.387
  306.374
  306.361
  306.345
  306.327
  306.304
  306.278
  306.248
  306.217
  306.185
  306.154
  306.124
  306.095
  306.067
  306.04
  306.013
  305.987
  305.961
  305.936
  305.912
  305.891
  305.874
  305.863
  305.856
  305.851
  305.846
  305.841
  305.842
  305.767
  306.227
  306.347
  306.395
  306.411
  306.412
  306.408
  306.402
  306.395
  306.387
  306.378
  306.369
  306.358
  306.346
  306.333
  306.317
  306.299
  306.279
  306.256
  306.232
  306.208
  306.182
  306.156
  306.13
  306.104
  306.078
  306.052
  306.026
  306
  305.975
  305.95
  305.929
  305.91
  305.894
  305.88
  305.866
  305.849
  305.842
  307.525
  306.979
  305.894
  306.054
  306.256
  306.331
  306.352
  306.357
  306.357
  306.354
  306.349
  306.343
  306.337
  306.33
  306.323
  306.315
  306.306
  306.296
  306.284
  306.272
  306.257
  306.241
  306.223
  306.204
  306.184
  306.163
  306.141
  306.118
  306.095
  306.071
  306.046
  306.021
  305.996
  305.971
  305.947
  305.923
  305.9
  305.873
  305.834
  305.777
)
;

boundaryField
{
  floor
  {
    type wallHeatTransfer;
    Tinf uniform 305.2;
    alphaWall uniform 0.24;
    value nonuniform List<scalar> 29
(
  305.563
  304.552
  304.572
  304.597
  304.606
  304.618
  304.632
  304.642
  304.636
  304.627
  304.62
  304.616
  304.614
  304.611
  304.612
  304.62
  304.642
  304.664
  304.667
  304.654
  304.654
  304.954
  305.325
  305.554
  305.563
  304.552
  304.727
  304.977
  305.37
)
;
  }
  ceiling
  {
    type wallHeatTransfer;
    Tinf uniform 303.2;
    alphaWall uniform 0.24;
    value nonuniform List<scalar> 43
(
  307.203
  306.76
  305.788
  305.924
  306.101
  306.161
  306.165
  306.153
  306.137
  306.119
  306.102
  306.088
  306.077
  306.069
  306.062
  306.056
  306.05
  306.042
  306.033
  306.021
  306.008
  305.992
  305.976
  305.958
  305.939
  305.919
  305.898
  305.877
  305.855
  305.833
  305.809
  305.786
  305.762
  305.738
  305.714
  305.69
  305.664
  305.633
  305.592
  305.538
  306.99
  306.842
  305.69
)
;
  }
  sWall
  {
    type wallHeatTransfer;
    Tinf uniform 315.2;
    alphaWall uniform 0.36;
    value uniform 308.354;
  }
  nWall
  {
    type wallHeatTransfer;
    Tinf uniform 307.2;
    alphaWall uniform 0.36;
    value nonuniform List<scalar> 6
(
  306.036
  306.031
  306.027
  305.996
  305.987
  305.967
)
;
  }
  sideWalls
  {
    type empty;
  }
  glass1
  {
    type wallHeatTransfer;
    Tinf uniform 315.2;
    alphaWall uniform 4.3;
    value nonuniform List<scalar> 9
(
  312.983
  312.231
  311.736
  311.368
  311.093
  310.879
  310.727
  310.791
  310.984
)
;
  }
  glass2
  {
    type wallHeatTransfer;
    Tinf uniform 307.2;
    alphaWall uniform 4.3;
    value nonuniform List<scalar> 2
(
  306.71
  306.683
)
;
  }
  sun
  {
    type wallHeatTransfer;
    Tinf uniform 305.2;
    alphaWall uniform 0.24;
    value nonuniform List<scalar> 14
(
  305.782
  305.584
  305.578
  305.585
  305.591
  305.595
  305.599
  305.602
  305.605
  305.606
  305.605
  305.6
  305.592
  305.58
)
;
  }
  heatsource1
  {
    type fixedGradient;
    gradient uniform 0;
  }
  heatsource2
  {
    type fixedGradient;
    gradient uniform 0;
  }
  Table_master
  {
    type zeroGradient;
  }
  Table_slave
  {
    type zeroGradient;
  }
  inlet
  {
    type fixedValue;
    value uniform 299.15;
  }
  outlet
  {
    type zeroGradient;
  }
} 	// ************************************************************************* //

