/*--------------------------------*- C++ -*----------------------------------*\
  =========                 |
  \\      /  F ield         | OpenFOAM: The Open Source CFD Toolbox
   \\    /   O peration     | Website:  https://openfoam.org
    \\  /    A nd           | Version:  6
     \\/     M anipulation  |
\*---------------------------------------------------------------------------*/
FoamFile
{
    version     2.0;
    format      ascii;
    class       volScalarField;
    location    "400";
    object      epsilon;
}
// * * * * * * * * * * * * * * * * * * * * * * * * * * * * * * * * * * * * * //

dimensions      [0 2 -3 0 0 0 0];

internalField   nonuniform List<scalar> 
459
(
0.00030863
0.000410051
0.0004509
0.000523948
0.000598452
0.000676523
0.000763434
0.000850846
0.000920959
0.000957225
0.000943071
0.000868653
0.000730753
0.000509168
0.000246807
7.71148e-05
0.000117733
9.5261e-05
0.000115275
0.000102578
8.5818e-05
6.47705e-05
4.79577e-05
3.60731e-05
2.77658e-05
2.18477e-05
1.75247e-05
1.42754e-05
1.18107e-05
9.83881e-06
8.17631e-06
7.28614e-06
1.08036e-05
3.06863e-05
0.000695156
0.000941244
0.000381731
0.000379458
0.000397967
0.000431348
0.000485246
0.000555596
0.000624838
0.000671811
0.00067814
0.000636773
0.000554248
0.000447476
0.000313758
0.000456506
0.000177022
0.000251791
0.000467933
0.000215111
0.00015324
0.000119767
9.66175e-05
8.45798e-05
6.24787e-05
4.48618e-05
3.24359e-05
2.38577e-05
1.79009e-05
1.36893e-05
1.07109e-05
8.65916e-06
7.61044e-06
1.53269e-05
5.03048e-05
5.79255e-05
0.00119521
0.0020835
0.000420438
0.0003434
0.000359189
0.00040328
0.000473811
0.00056411
0.000650081
0.000710702
0.000731204
0.000704795
0.000634637
0.000536612
0.00043468
0.000383931
0.000465754
0.000368956
0.000639865
0.000333013
0.000220338
0.000161128
0.000129896
0.000214904
0.000128969
8.11292e-05
5.34701e-05
3.67909e-05
2.63307e-05
1.95551e-05
1.51538e-05
1.23862e-05
9.43468e-06
1.59831e-05
8.17196e-05
8.73571e-05
0.00185585
0.00415127
0.000583025
0.000326458
0.000333339
0.000390063
0.000487489
0.000606252
0.000702613
0.000768352
0.000796672
0.000777656
0.000709245
0.000618508
0.000528378
0.000456749
0.000403475
0.000736703
0.00063195
0.00041777
0.000292118
0.000216172
0.000167452
0.000143438
0.000310589
0.000223505
0.000169685
0.000133415
0.000106926
8.62815e-05
6.92903e-05
5.46246e-05
4.12278e-05
2.19169e-05
2.02499e-05
0.000120452
0.000117071
0.00275032
0.00737671
0.001049
0.000349113
0.000318284
0.000394679
0.000567818
0.000723116
0.000815537
0.000874715
0.000899573
0.000872967
0.000791343
0.000675273
0.000555276
0.000454232
0.000379238
0.000342795
0.000303459
0.000264577
0.000225843
0.000190437
0.000159956
0.000136195
0.000128158
0.000113652
9.94221e-05
8.63399e-05
7.42916e-05
6.31188e-05
5.26223e-05
4.26192e-05
3.28784e-05
2.28926e-05
1.98418e-05
6.64424e-05
0.000106947
0.000113543
0.000194486
0.000611279
0.00399884
0.0111507
0.00230492
0.000573646
0.000400354
0.000486718
0.000823978
0.000962224
0.00101827
0.00105213
0.00106364
0.00102036
0.000907277
0.000747603
0.000583286
0.000448606
0.000357973
0.000307068
0.000275207
0.000248655
0.000221942
0.000194716
0.00016832
0.000144438
0.000125577
0.000109886
9.6303e-05
8.39535e-05
7.24257e-05
6.15481e-05
5.12249e-05
4.14718e-05
3.24456e-05
2.48915e-05
2.21563e-05
3.13984e-05
6.75403e-05
0.000192966
0.000925463
0.00146818
0.00551579
0.0136262
0.00501382
0.00183135
0.00120238
0.0012811
0.00138846
0.0013716
0.00133685
0.00132761
0.0013145
0.00123877
0.00107546
0.000857864
0.000642856
0.000475342
0.000372075
0.000320558
0.000292481
0.000269033
0.000243682
0.000216107
0.000188216
0.00016231
0.000140025
0.000122012
0.000107172
9.42716e-05
8.26397e-05
7.19772e-05
6.21565e-05
5.31891e-05
4.52089e-05
3.87292e-05
3.5136e-05
3.79377e-05
8.32979e-05
0.000565331
0.00297993
0.00347751
0.00597086
0.0165315
0.0087543
0.00537566
0.00378196
0.00293683
0.00233331
0.00195851
0.00177741
0.00172267
0.00168362
0.00155461
0.00130806
0.00100793
0.000732644
0.000533612
0.000423039
0.000373894
0.000347071
0.000322883
0.000295289
0.000264903
0.000233985
0.000206818
0.000184339
0.000166498
0.000152285
0.000140748
0.000131403
0.000124056
0.000118571
0.000114699
0.000111878
0.000109168
0.000105523
0.000109247
0.000202241
0.00124562
0.0106473
0.008557
0.00563378
0.00983661
0.00748496
0.00558268
0.00424641
0.00330175
0.00266922
0.00233945
0.00225383
0.00228013
0.00223721
0.00200175
0.00159784
0.00118207
0.000856072
0.000654698
0.000573291
0.000533716
0.000508438
0.000483918
0.000456872
0.000428496
0.000401219
0.000377493
0.000358434
0.000344396
0.000335196
0.000330687
0.000330988
0.00033632
0.000346647
0.000361177
0.00037772
0.000392302
0.000400509
0.000404811
0.000557326
0.00212371
0.0147537
0.0116829
0.0019584
0.00243953
0.00247125
0.0024798
0.00266849
0.00295338
0.00324244
0.00337031
0.00316311
0.00261862
0.0019135
0.00145337
0.00125987
0.00117482
0.00113859
0.0011231
0.0011129
0.00110185
0.00108867
0.00107435
0.00106065
0.00104941
0.00104215
0.0010403
0.00104529
0.00105869
0.00108231
0.00111802
0.00116704
0.00122866
0.00129782
0.0013635
0.00141973
0.00142447
0.00159693
0.00310214
0.010771
0.00695989
0.00104882
0.00240385
0.00367775
0.00492854
0.00556602
0.00602686
0.00638016
0.00639404
0.00583122
0.00493079
0.00403248
0.00344432
0.00312279
0.00299297
0.00296636
0.00298509
0.00301821
0.0030499
0.00307347
0.00308823
0.00309703
0.00310395
0.00311328
0.00312938
0.00315639
0.00319847
0.00326044
0.00334784
0.00346616
0.00361743
0.00379026
0.003936
0.00394275
0.00375758
0.00358061
0.00407915
0.00578306
0.00402619
0.000789852
0.000970019
0.00118403
0.00168019
0.00198616
0.00213456
0.00238472
0.00270147
0.00295288
0.00306042
0.00296773
0.00275931
0.00254979
0.00236877
0.00225631
0.0021952
0.00216493
0.00215064
0.00214268
0.00213623
0.00212978
0.00212362
0.00211876
0.00211632
0.00211729
0.00212243
0.00213235
0.00214756
0.00216842
0.00219486
0.00222558
0.00225629
0.00227598
0.00226543
0.00221992
0.00219136
0.00231689
0.00269275
0.00305806
0.00227506
)
;

boundaryField
{
    floor
    {
        Cmu             0.09;
        kappa           0.41;
        E               9.8;
        type            epsilonWallFunction;
        value           nonuniform List<scalar> 
29
(
0.000246807
7.71148e-05
0.000117733
9.5261e-05
0.000115275
0.000102578
8.5818e-05
6.47705e-05
4.79577e-05
3.60731e-05
2.77658e-05
2.18477e-05
1.75247e-05
1.42754e-05
1.18107e-05
9.83881e-06
8.17631e-06
7.28614e-06
1.08036e-05
3.06863e-05
3.06863e-05
5.79255e-05
8.73571e-05
0.000117071
0.000246807
7.71148e-05
0.000251791
0.000368956
0.000736703
)
;
    }
    ceiling
    {
        Cmu             0.09;
        kappa           0.41;
        E               9.8;
        type            epsilonWallFunction;
        value           nonuniform List<scalar> 
43
(
0.000789852
0.000970019
0.00118403
0.00168019
0.00198616
0.00213456
0.00238472
0.00270147
0.00295288
0.00306042
0.00296773
0.00275931
0.00254979
0.00236877
0.00225631
0.0021952
0.00216493
0.00215064
0.00214268
0.00213623
0.00212978
0.00212362
0.00211876
0.00211632
0.00211729
0.00212243
0.00213235
0.00214756
0.00216842
0.00219486
0.00222558
0.00225629
0.00227598
0.00226543
0.00221992
0.00219136
0.00231689
0.00269275
0.00305806
0.00227506
0.00563378
0.00983661
0.00104882
)
;
    }
    sWall
    {
        Cmu             0.09;
        kappa           0.41;
        E               9.8;
        type            epsilonWallFunction;
        value           uniform 0.000789852;
    }
    nWall
    {
        Cmu             0.09;
        kappa           0.41;
        E               9.8;
        type            epsilonWallFunction;
        value           nonuniform List<scalar> 6(0.000611279 0.00146818 0.00347751 0.00695989 0.00402619 0.00227506);
    }
    sideWalls
    {
        type            empty;
    }
    glass1
    {
        Cmu             0.09;
        kappa           0.41;
        E               9.8;
        type            epsilonWallFunction;
        value           nonuniform List<scalar> 9(0.00030863 0.000695156 0.00119521 0.00185585 0.00275032 0.00399884 0.00551579 0.00597086 0.00563378);
    }
    glass2
    {
        Cmu             0.09;
        kappa           0.41;
        E               9.8;
        type            epsilonWallFunction;
        value           nonuniform List<scalar> 2(0.008557 0.0116829);
    }
    sun
    {
        Cmu             0.09;
        kappa           0.41;
        E               9.8;
        type            epsilonWallFunction;
        value           nonuniform List<scalar> 
14
(
0.00030863
0.000410051
0.0004509
0.000523948
0.000598452
0.000676523
0.000763434
0.000850846
0.000920959
0.000957225
0.000943071
0.000868653
0.000730753
0.000509168
)
;
    }
    heatsource1
    {
        Cmu             0.09;
        kappa           0.41;
        E               9.8;
        type            epsilonWallFunction;
        value           nonuniform List<scalar> 3(0.000113543 0.000194486 0.000611279);
    }
    heatsource2
    {
        Cmu             0.09;
        kappa           0.41;
        E               9.8;
        type            epsilonWallFunction;
        value           nonuniform List<scalar> 4(0.000456506 0.000177022 0.000177022 0.000465754);
    }
    Table_master
    {
        Cmu             0.09;
        kappa           0.41;
        E               9.8;
        type            epsilonWallFunction;
        value           nonuniform List<scalar> 9(0.000214904 0.000128969 8.11292e-05 5.34701e-05 3.67909e-05 2.63307e-05 1.95551e-05 1.51538e-05 1.23862e-05);
    }
    Table_slave
    {
        Cmu             0.09;
        kappa           0.41;
        E               9.8;
        type            epsilonWallFunction;
        value           nonuniform List<scalar> 9(0.000310589 0.000223505 0.000169685 0.000133415 0.000106926 8.62815e-05 6.92903e-05 5.46246e-05 4.12278e-05);
    }
    inlet
    {
        type            turbulentMixingLengthDissipationRateInlet;
        mixingLength    0.01;
        phi             phi;
        k               k;
        value           uniform 0.000101881;
    }
    outlet
    {
        type            zeroGradient;
    }
}


// ************************************************************************* //
