/*--------------------------------*- C++ -*----------------------------------*\
  =========                 |
  \\      /  F ield         | OpenFOAM: The Open Source CFD Toolbox
   \\    /   O peration     | Website:  https://openfoam.org
    \\  /    A nd           | Version:  6
     \\/     M anipulation  |
\*---------------------------------------------------------------------------*/
FoamFile
{
    version     2.0;
    format      ascii;
    class       surfaceScalarField;
    location    "1500";
    object      phi;
}
// * * * * * * * * * * * * * * * * * * * * * * * * * * * * * * * * * * * * * //

dimensions      [1 0 -1 0 0 0 0];

internalField   nonuniform List<scalar> 
852
(
-0.00293575
0.00299202
-0.00397287
0.00103711
-0.00476112
0.000788251
-0.0053781
0.000616976
-0.00579465
0.000416557
-0.00598818
0.000193527
-0.0059368
-5.13788e-05
-0.00562279
-0.000314007
-0.00505803
-0.000564761
-0.00429392
-0.000764108
-0.00341083
-0.000883099
-0.00249751
-0.000913313
-0.00162887
-0.000868646
-0.00082699
-0.000801876
-0.000825549
-0.000673963
0.000676653
-0.000342178
-0.000331785
0.000265706
-0.000607884
0.000737842
-0.000472136
0.00105042
-0.000312582
0.00124418
-0.000193758
0.00134927
-0.000105088
0.00140138
-5.211e-05
0.00143062
-2.92438e-05
0.00144847
-1.78468e-05
0.00145835
-9.88337e-06
0.00146122
-2.86423e-06
0.00145521
6.00471e-06
0.00143189
2.33201e-05
0.0013689
6.29906e-05
0.00122856
0.000140346
0.000996348
0.000232209
0.000706047
0.000290301
0.000709663
-0.00209426
0.00523775
-0.0030986
0.00204146
-0.00390382
0.00159348
-0.00450757
0.00122073
-0.00491422
0.000823205
-0.00511025
0.000389556
-0.00507042
-9.12106e-05
-0.00477998
-0.000604449
-0.0042618
-0.00108294
-0.00357684
-0.00144906
-0.00280711
-0.00165283
-0.00203322
-0.0016872
-0.00132758
-0.00157429
-0.000778769
-0.00135069
-0.000575365
-0.00102895
-7.91734e-05
-0.000496243
-7.92246e-05
0.000381988
0.000302319
0.000805213
-0.00075501
0.00105269
-0.000855362
0.00126059
-0.000680032
0.00141481
-0.000466809
0.00150454
-0.000283485
0.00151821
-0.000118761
0.00152193
-5.58245e-05
0.00152646
-3.37784e-05
0.00153028
-2.16663e-05
0.00153281
-1.24131e-05
0.00153406
-4.10975e-06
0.00153316
6.90563e-06
0.00152653
2.99478e-05
0.00148538
0.000104136
0.00131056
0.000315168
0.00100846
0.000534315
0.000627683
0.000671074
0.00134666
-0.00146572
0.00693513
-0.00232849
0.00290423
-0.00303659
0.00230157
-0.00354765
0.00173179
-0.0038976
0.00117315
-0.00406859
0.000560548
-0.00401601
-0.000143787
-0.00371733
-0.000903131
-0.00321691
-0.00158337
-0.0025903
-0.00207567
-0.00191918
-0.00232395
-0.00126796
-0.00233842
-0.000687581
-0.00215467
-0.000229911
-0.00180836
7.4904e-05
-0.00133377
0.000276515
-0.000697855
0.000197291
0.00148222
-0.00117188
0.00169603
-0.000968823
0.00167539
-0.000834726
0.00167602
-0.00068066
0.00169759
-0.000488376
0.00170793
-0.000293828
0.00158932
0.00153365
0.00150003
0.00147851
0.00146625
0.0014623
0.00146935
0.00149946
0.00160374
0.00132317
0.000595744
0.000982233
0.00087525
0.000548857
0.00110445
0.00190972
-0.00102374
0.0082588
-0.00170551
0.003586
-0.00216654
0.00276259
-0.00249366
0.00205892
-0.00271748
0.00139698
-0.00280619
0.000649259
-0.00268513
-0.000264851
-0.00234103
-0.00124723
-0.00185684
-0.00206757
-0.00131589
-0.00261662
-0.000785452
-0.00285438
-0.000301482
-0.00282239
0.00011811
-0.00257426
0.000468029
-0.00215828
0.000775063
-0.0016408
0.00114362
-0.00106641
0.00190185
-0.000560946
0.00243852
-0.000529395
0.00203597
-0.000769329
0.00190983
-0.000842683
0.00180127
-0.000726165
0.0017092
-0.000588586
0.00166005
-0.000439227
0.00164214
-0.000275917
0.001756
-0.000114016
0.00182879
-7.29373e-05
0.00188792
-5.92889e-05
0.00193365
-4.58783e-05
0.001952
-1.8506e-05
0.00192191
2.99394e-05
0.00181867
0.000103084
0.00160996
0.000208565
0.00124166
0.000368142
0.0011107
0.000726706
0.000823973
0.00116198
0.000386221
0.0015422
0.00231456
-0.000717929
0.00933462
-0.00123452
0.00410259
-0.00132126
0.00284933
-0.00137285
0.00211051
-0.00139415
0.00141827
-0.00130617
0.000561287
-0.00102783
-0.000543198
-0.000620052
-0.001655
-0.000188462
-0.00249916
0.000200337
-0.00300542
0.000519245
-0.00317329
0.000765442
-0.00306859
0.000951678
-0.0027605
0.00110623
-0.00231283
0.00125954
-0.00179411
0.00146311
-0.00126998
0.00174712
-0.000844952
0.00188499
-0.000667261
0.00178788
-0.000672225
0.00161401
-0.000668811
0.0014685
-0.00058066
0.00135034
-0.000470418
0.00127019
-0.000359085
0.001241
-0.000246726
0.00128333
-0.000156341
0.0013316
-0.000121208
0.00138469
-0.000112382
0.00143921
-0.000100393
0.00148462
-6.39159e-05
0.00150131
1.3249e-05
0.0014687
0.000135688
0.00137493
0.00030234
0.00122075
0.000522316
0.00108616
0.000861306
0.000941731
0.0013064
0.000621764
0.00186217
0.000548475
0.00238785
-0.000970272
0.00151854
-0.00143263
0.00046215
-0.00138563
-0.000626749
0.0103682
-0.000980503
0.00445634
-0.000553744
0.00242258
-0.000188287
0.00174505
9.29565e-05
0.00113703
0.000481075
0.000173168
0.000978129
-0.00104025
0.00139857
-0.00207544
0.0016848
-0.00278539
0.0018323
-0.00315291
0.00187024
-0.00321124
0.00182716
-0.0030255
0.00173313
-0.00266647
0.00162426
-0.00220395
0.00153357
-0.00170342
0.00148673
-0.00122315
0.00147794
-0.000836157
0.00142375
-0.00061307
0.00128021
-0.000528691
0.00109083
-0.000479431
0.000924708
-0.000414535
0.000798575
-0.000344285
0.000718248
-0.000278758
0.000691098
-0.000219577
0.000713998
-0.000179241
0.000762714
-0.000169924
0.000826571
-0.000176239
0.000901012
-0.000174834
0.00098048
-0.000143384
0.00105298
-5.92538e-05
0.00110077
8.78989e-05
0.00111961
0.0002835
0.0011176
0.000524329
0.00114201
0.000836899
0.00124041
0.001208
0.00142605
0.00167652
0.00186847
0.00194543
0.00212926
0.00125776
0.00174108
0.000850322
0.000412032
-0.000681205
0.0115004
-0.000560304
0.00433544
0.000575271
0.001287
0.00137022
0.0009501
0.00205386
0.000453389
0.00275361
-0.000526582
0.00329765
-0.00158429
0.00358502
-0.00236281
0.00362016
-0.00282053
0.00344838
-0.00298113
0.00313163
-0.0028945
0.00273107
-0.00262493
0.00229991
-0.00223532
0.00188488
-0.00178892
0.00152143
-0.00133998
0.00122578
-0.000927495
0.000996487
-0.00060686
0.000798466
-0.000415048
0.000599055
-0.00032928
0.000409513
-0.00028989
0.000254815
-0.000259836
0.000144647
-0.000234117
8.00308e-05
-0.000214142
6.12201e-05
-0.000200766
8.15637e-05
-0.000199585
0.00012617
-0.000214531
0.000185763
-0.000235832
0.000259369
-0.000248439
0.000351117
-0.000235132
0.000465891
-0.000174028
0.00059135
-3.75599e-05
0.000716911
0.000157939
0.000853567
0.000387674
0.00103906
0.000651408
0.00132159
0.00092546
0.0017627
0.00123541
0.00242899
0.00127914
0.00296976
0.000716993
0.00299342
0.000826662
0.00346664
0.00259491
0.00941019
0.00329973
0.00363062
0.00370192
0.000884809
0.00438992
0.000262098
0.0052032
-0.000359894
0.00583256
-0.00115594
0.00605451
-0.00180624
0.00589733
-0.00220564
0.0054376
-0.0023608
0.00476741
-0.00231094
0.00398209
-0.00210918
0.00316572
-0.00180856
0.00237982
-0.00144942
0.00167345
-0.00108255
0.00107944
-0.00074597
0.000604359
-0.000452415
0.000253492
-0.000255993
-1.64583e-06
-0.00015991
-0.000197728
-0.000133197
-0.00035148
-0.000136138
-0.000467617
-0.0001437
-0.000548487
-0.000153246
-0.000597688
-0.000164941
-0.000618774
-0.00017968
-0.000618419
-0.00019994
-0.000606575
-0.000226376
-0.000588982
-0.000253425
-0.000564759
-0.000272662
-0.000525635
-0.000274256
-0.000452897
-0.000246766
-0.00031737
-0.000173086
-0.000134918
-2.45134e-05
7.94575e-05
0.000173298
0.000349297
0.000381568
0.000686047
0.00058871
0.00113024
0.000791218
0.00161876
0.000790625
0.00182624
0.000509512
0.00108539
0.00156751
0.00480156
0.0099638
0.0135864
0.0124552
0.00201602
0.0117475
0.000969755
0.0110917
0.000295888
0.0102122
-0.000276448
0.00906775
-0.000661739
0.00776282
-0.000900706
0.00639163
-0.000989612
0.00502773
-0.000947041
0.00373813
-0.000819578
0.00257557
-0.000646003
0.00156108
-0.000434927
0.000719187
-0.000240652
5.6918e-05
-8.37011e-05
-0.000409971
1.4474e-05
-0.000698744
3.27804e-05
-0.000877784
1.91291e-05
-0.00100453
-6.44695e-06
-0.00110624
-3.4432e-05
-0.00118926
-6.0684e-05
-0.00125633
-8.61674e-05
-0.00131113
-0.000110149
-0.00135783
-0.000132977
-0.00140301
-0.000154757
-0.00145492
-0.000174466
-0.00152109
-0.000187252
-0.00160879
-0.000184969
-0.00172667
-0.000156376
-0.0018851
-8.83373e-05
-0.00208967
3.14894e-05
-0.00232732
0.000213134
-0.00262469
0.000470671
-0.00306376
0.000820632
-0.00373616
0.00126111
-0.00470838
0.00176344
-0.00609658
0.00217883
-0.00778229
0.00219522
-0.0073086
0.00109382
-0.00223099
0.00467951
0.00351364
0.0037954
0.00185387
0.00417873
-8.74439e-05
0.00418528
-0.000283001
0.00378157
-0.000258025
0.00315102
-0.000270161
0.00240003
-0.000238618
0.00159648
-0.000143492
0.000782736
-5.83299e-06
1.08197e-05
0.000125914
-0.000628985
0.000204878
-0.00108177
0.000212131
-0.00136967
0.000204198
-0.00153401
0.000178821
-0.00163703
0.0001358
-0.00171076
9.28586e-05
-0.00177212
5.49062e-05
-0.00182999
2.34451e-05
-0.00188922
-1.45567e-06
-0.0019516
-2.37931e-05
-0.00201781
-4.39305e-05
-0.00208967
-6.11248e-05
-0.00217042
-7.40059e-05
-0.00226248
-8.24048e-05
-0.00236682
-8.29154e-05
-0.00248241
-6.93733e-05
-0.00260528
-3.35066e-05
-0.00272774
3.41219e-05
-0.00283768
0.000141431
-0.00293186
0.000307313
-0.00301802
0.000556832
-0.00310161
0.000904222
-0.0031784
0.0013379
-0.00320291
0.00178796
-0.00312242
0.00209833
-0.00275707
0.00182987
-0.00149573
-0.000167523
-0.00365468
-0.000541366
0.00411969
0.000295174
0.00101733
-8.06913e-05
0.000288422
-0.000451224
8.75319e-05
-0.000778836
6.95872e-05
-0.00113797
8.89682e-05
-0.00150397
0.000127388
-0.00182385
0.00017639
-0.00205083
0.00022114
-0.00217815
0.000253235
-0.00223594
0.000262672
-0.00226167
0.000237863
-0.00226054
0.000203066
-0.00224895
0.000167231
-0.00224573
0.000132579
-0.00225577
0.000102895
-0.00227898
7.81219e-05
-0.00231315
5.76153e-05
-0.0023552
4.05883e-05
-0.0024062
2.72041e-05
-0.00246499
1.4867e-05
-0.00252941
3.29066e-06
-0.00259681
-6.60694e-06
-0.00266516
-1.40472e-05
-0.00273072
-1.73651e-05
-0.00278664
-1.34495e-05
-0.00282203
1.88656e-06
-0.00282652
3.86054e-05
-0.00278998
0.000104893
-0.00269077
0.000208103
-0.00249759
0.000363656
-0.00218377
0.000590398
-0.00173034
0.00088447
-0.00110925
0.00116687
-0.000149552
0.00113863
0.00114448
0.000535837
0.00157982
-0.000602863
-0.00199594
-0.00723322
-0.010134
-0.00597154
-0.00493424
-0.00463462
-0.00454014
-0.00446623
-0.00437492
-0.0042468
-0.00407104
-0.00385175
-0.00360151
-0.00334295
-0.00311024
-0.00291322
-0.00275275
-0.00262749
-0.00253235
-0.0024623
-0.00241302
-0.00238095
-0.0023624
-0.00235627
-0.00236174
-0.00237708
-0.00239978
-0.00242567
-0.00244748
-0.00245375
-0.00242306
-0.00232581
-0.00212508
-0.0017685
-0.00118491
-0.000306993
0.000853537
0.0019858
0.00251502
0.00190516
)
;

boundaryField
{
    floor
    {
        type            calculated;
        value           nonuniform List<scalar> 
29
(
0
0
0
0
0
0
0
0
0
0
0
0
0
0
0
0
0
0
0
0
-3.61612e-06
-9.31271e-06
-1.41997e-05
-1.86254e-05
-1.44075e-06
-2.68948e-06
-7.65476e-06
-8.01818e-06
-7.27541e-06
)
;
    }
    ceiling
    {
        type            calculated;
        value           nonuniform List<scalar> 
43
(
-4.54242e-05
-4.41028e-05
-4.27935e-05
-1.99743e-05
-1.11986e-05
-6.94529e-06
-4.32258e-06
-2.34231e-06
-7.35594e-07
6.29149e-07
1.84907e-06
2.99454e-06
4.11174e-06
5.15349e-06
6.04729e-06
6.7641e-06
7.3201e-06
7.74808e-06
8.07843e-06
8.33164e-06
8.5205e-06
8.6527e-06
8.73309e-06
8.76142e-06
8.73297e-06
8.65406e-06
8.52925e-06
8.36224e-06
8.15694e-06
7.91303e-06
7.64593e-06
7.36561e-06
7.08138e-06
6.805e-06
6.55354e-06
6.34109e-06
6.37403e-06
6.61093e-06
6.99963e-06
8.22501e-06
1.10775e-05
8.03032e-06
-6.46748e-05
)
;
    }
    sWall
    {
        type            calculated;
        value           uniform -0.000274841;
    }
    nWall
    {
        type            calculated;
        value           nonuniform List<scalar> 6(-4.72006e-05 -5.6578e-05 -6.11922e-05 -7.20361e-05 -7.89125e-05 -9.90104e-05);
    }
    sideWalls
    {
        type            empty;
        value           nonuniform 0();
    }
    glass1
    {
        type            calculated;
        value           nonuniform List<scalar> 9(-5.62609e-05 -0.000151481 -0.000231659 -0.000299925 -0.000357891 -0.000406787 -0.000451057 -0.000504686 -0.000564684);
    }
    glass2
    {
        type            calculated;
        value           nonuniform List<scalar> 2(-0.000249521 -0.000276055);
    }
    sun
    {
        type            calculated;
        value           uniform 0;
    }
    heatsource1
    {
        type            calculated;
        value           nonuniform List<scalar> 3(2.03965e-07 2.03921e-07 2.03938e-07);
    }
    heatsource2
    {
        type            calculated;
        value           nonuniform List<scalar> 4(5.10992e-08 5.12215e-08 0 0);
    }
    Table_master
    {
        type            calculated;
        value           nonuniform List<scalar> 9(-1.52973e-07 -1.53054e-07 -1.53083e-07 -1.53103e-07 -1.53116e-07 -1.53126e-07 -1.53129e-07 -1.53123e-07 -1.53091e-07);
    }
    Table_slave
    {
        type            calculated;
        value           nonuniform List<scalar> 9(1.5285e-07 1.52875e-07 1.52858e-07 1.52844e-07 1.52839e-07 1.52843e-07 1.52859e-07 1.52901e-07 1.52981e-07);
    }
    inlet
    {
        type            calculated;
        value           uniform -0.00617713;
    }
    outlet
    {
        type            calculated;
        value           nonuniform List<scalar> 2(0.00755349 0.0029449);
    }
}


// ************************************************************************* //
