/*--------------------------------*- C++ -*----------------------------------*\
  =========                 |
  \\      /  F ield         | OpenFOAM: The Open Source CFD Toolbox
   \\    /   O peration     | Website:  https://openfoam.org
    \\  /    A nd           | Version:  6
     \\/     M anipulation  |
\*---------------------------------------------------------------------------*/
FoamFile
{
    version     2.0;
    format      ascii;
    class       volScalarField;
    location    "100";
    object      nut;
}
// * * * * * * * * * * * * * * * * * * * * * * * * * * * * * * * * * * * * * //

dimensions      [0 2 -1 0 0 0 0];

internalField   nonuniform List<scalar> 
459
(
0.000802393
0.000821623
0.000721419
0.00074618
0.000776691
0.000806427
0.000835074
0.000863288
0.000892344
0.000919994
0.000941456
0.000954554
0.000957253
0.000947861
0.000921032
0.000502514
0.000579422
0.000552072
0.000415541
0.000284171
0.000243408
0.000229491
0.000225651
0.000218354
0.000213511
0.000212853
0.000213884
0.000222738
0.000270052
0.000368257
0.000533582
0.00069242
0.000709168
0.000607713
0.00141019
0.00262406
0.00182202
0.0025205
0.00275326
0.00297334
0.00320148
0.00341459
0.00358098
0.00369364
0.00374075
0.0036825
0.00345554
0.00296061
0.00209618
0.000981363
0.000702632
0.000585944
0.00156749
0.001487
0.00121212
0.000848559
0.00057363
0.000476016
0.000353752
0.000343682
0.000361298
0.000384589
0.000418444
0.00050109
0.000639788
0.00096465
0.00149354
0.00188608
0.00195759
0.000701184
0.00191089
0.00424965
0.00194679
0.00350198
0.00408955
0.00432881
0.00452651
0.00469251
0.00481365
0.00488769
0.00489279
0.00478256
0.00448738
0.00392031
0.00303709
0.00197814
0.0010344
0.000977364
0.00244529
0.00205508
0.0017085
0.00143659
0.00115916
0.000363782
0.000236688
0.000227031
0.000259097
0.000303718
0.000359061
0.000429102
0.000526653
0.000703381
0.00177841
0.00215149
0.00171526
0.000781191
0.00236321
0.00612023
0.00220439
0.00365797
0.00476586
0.00503103
0.00519057
0.00532952
0.00544847
0.00554212
0.00561449
0.00562486
0.00549433
0.00510345
0.00432395
0.00315172
0.00191281
0.00118537
0.00233847
0.00248773
0.00224123
0.00194958
0.00165247
0.00130146
0.000993533
0.00102165
0.00105801
0.00109838
0.00113982
0.00117946
0.00121691
0.00123808
0.00124397
0.00198626
0.00249188
0.00285079
0.00113602
0.0027676
0.00801176
0.00276348
0.00338172
0.00494092
0.00526726
0.00539302
0.00550811
0.00563379
0.00577027
0.00597192
0.00623296
0.00650546
0.00671464
0.00676825
0.00658909
0.00617124
0.00558651
0.0050627
0.00477439
0.00466044
0.00457669
0.00449728
0.00444388
0.00442987
0.00451657
0.00464952
0.00479666
0.00491623
0.00497186
0.00495854
0.00489973
0.00481316
0.00476186
0.00457755
0.00413604
0.00306611
0.00134882
0.00118517
0.00117072
0.00313465
0.00958902
0.00372541
0.00303942
0.00464241
0.00508749
0.00520149
0.00526733
0.00533313
0.00542635
0.00567637
0.00607571
0.006586
0.0071416
0.00764223
0.00796746
0.00802208
0.00779387
0.00738126
0.00693683
0.00656712
0.00631516
0.00615608
0.00605187
0.00598051
0.00595413
0.00597547
0.00601046
0.00599907
0.00589511
0.00571169
0.00552467
0.00541565
0.00539956
0.0054617
0.00546743
0.00501031
0.00419413
0.00288033
0.00142833
0.00347245
0.010661
0.00545844
0.00304963
0.00363528
0.00437066
0.00470048
0.00482572
0.00478747
0.00476391
0.00494842
0.00531592
0.005858
0.00654059
0.0072693
0.00788379
0.00824466
0.00830194
0.00810775
0.00778744
0.00746444
0.00720658
0.00702045
0.00688488
0.0067813
0.00671712
0.00670132
0.00669975
0.00662812
0.0064084
0.00605138
0.0056718
0.00539827
0.00527149
0.00523795
0.005155
0.00484779
0.00437977
0.00348183
0.00150748
0.00355338
0.0109947
0.00773533
0.00493245
0.00363217
0.00386002
0.00430535
0.00460631
0.00435398
0.00422105
0.00425132
0.00443197
0.00477839
0.00532038
0.00605444
0.00680919
0.00739854
0.00773889
0.0078251
0.00773091
0.00755729
0.00738132
0.00724214
0.00715621
0.00713428
0.00718781
0.00731064
0.00745465
0.00751205
0.00734872
0.00690925
0.00627359
0.00557311
0.00488124
0.00424925
0.00370999
0.00327784
0.0028905
0.00251014
0.00169319
0.00344508
0.00414713
0.00462044
0.00446981
0.00398239
0.00359324
0.00340648
0.00337634
0.00340637
0.00347791
0.00357725
0.00370753
0.00389081
0.00417033
0.00459742
0.00516749
0.00578683
0.00632424
0.00668913
0.00687256
0.00692255
0.00689962
0.00685439
0.00683034
0.00687744
0.007059
0.00741835
0.00790878
0.00838133
0.00871239
0.00885468
0.00881346
0.00859802
0.00826999
0.00781484
0.00710973
0.00606577
0.00516268
0.00463268
0.0018875
0.00383097
0.00431311
0.004143
0.00385085
0.00361271
0.00345242
0.00335097
0.00330215
0.00329293
0.00331214
0.00335869
0.00344555
0.003602
0.00386337
0.0042419
0.00469796
0.00515065
0.00552672
0.00579429
0.00595992
0.00605181
0.0061093
0.00618384
0.00634627
0.00668091
0.00723717
0.00794926
0.0086286
0.00910317
0.00933554
0.00935629
0.00923491
0.0090347
0.00876983
0.00835801
0.00751259
0.00649582
0.00189496
0.00281681
0.00433506
0.0042364
0.00400338
0.00376159
0.00355191
0.00337827
0.00323502
0.00308874
0.00295153
0.00283732
0.0027599
0.00273528
0.0027833
0.00292472
0.00316904
0.00349778
0.00386255
0.00420646
0.00449012
0.0047025
0.00485768
0.00498793
0.00514005
0.00537416
0.00575267
0.00629943
0.00693007
0.0074858
0.00789515
0.00812803
0.00819756
0.00813635
0.00795895
0.00759799
0.00667792
0.00540469
0.00175195
0.00205815
0.00226518
0.00245533
0.00250229
0.00226015
0.00209038
0.00194246
0.00181414
0.00170187
0.00160264
0.00151684
0.00144069
0.00137192
0.00130954
0.0012534
0.00120403
0.00116253
0.00113035
0.00110888
0.0010985
0.001098
0.00110478
0.00111581
0.0011287
0.00114236
0.00115744
0.00117651
0.00120393
0.0012442
0.00130214
0.00138033
0.00146847
0.00155502
0.00162917
0.00168177
0.00170415
0.0016838
0.00164081
0.00159059
0.00147085
)
;

boundaryField
{
    floor
    {
        type            nutkWallFunction;
        Cmu             0.09;
        kappa           0.41;
        E               9.8;
        value           nonuniform List<scalar> 
29
(
0.000111366
6.00741e-05
6.98019e-05
6.63481e-05
4.88353e-05
3.12792e-05
2.56287e-05
2.36711e-05
2.31297e-05
2.20928e-05
2.13987e-05
2.13006e-05
2.14447e-05
2.27104e-05
2.93544e-05
4.2659e-05
6.40621e-05
8.38496e-05
8.5902e-05
7.33527e-05
7.33526e-05
8.48913e-05
9.4632e-05
0.000136579
0.000111366
6.00741e-05
7.06191e-05
0.000118016
0.000142265
)
;
    }
    ceiling
    {
        type            nutkWallFunction;
        Cmu             0.09;
        kappa           0.41;
        E               9.8;
        value           nonuniform List<scalar> 
43
(
0.000239706
0.00026207
0.000282423
0.000287425
0.000261527
0.000243196
0.000227097
0.000213025
0.000200624
0.000189591
0.000179991
0.00017142
0.000163637
0.00015654
0.000150121
0.00014445
0.000139661
0.000135937
0.000133444
0.000132238
0.00013218
0.000132968
0.00013425
0.000135745
0.000137327
0.000139071
0.000141273
0.000144432
0.00014906
0.00015569
0.000164587
0.000174552
0.000184273
0.00019256
0.000198415
0.000200906
0.000198656
0.000193879
0.000188277
0.000174851
0.000386092
0.00045765
0.000320672
)
;
    }
    sWall
    {
        type            nutkWallFunction;
        Cmu             0.09;
        kappa           0.41;
        E               9.8;
        value           uniform 0.000239767;
    }
    nWall
    {
        type            nutkWallFunction;
        Cmu             0.09;
        kappa           0.41;
        E               9.8;
        value           nonuniform List<scalar> 6(0.000140586 0.00016996 0.000178969 0.000221895 0.000206188 0.000174867);
    }
    sideWalls
    {
        type            empty;
    }
    glass1
    {
        type            nutkWallFunction;
        Cmu             0.09;
        kappa           0.41;
        E               9.8;
        value           nonuniform List<scalar> 9(9.71891e-05 0.000168193 0.00022399 0.000273018 0.000316004 0.000354454 0.00038943 0.000397771 0.000386647);
    }
    glass2
    {
        type            nutkWallFunction;
        Cmu             0.09;
        kappa           0.41;
        E               9.8;
        value           nonuniform List<scalar> 2(0.00019978 0.000221212);
    }
    sun
    {
        type            nutkWallFunction;
        Cmu             0.09;
        kappa           0.41;
        E               9.8;
        value           nonuniform List<scalar> 
14
(
9.71822e-05
9.94975e-05
8.7354e-05
9.0372e-05
9.40746e-05
9.76667e-05
0.000101112
0.000104493
0.00010796
0.000111248
0.000113791
0.00011534
0.000115658
0.000114547
)
;
    }
    heatsource1
    {
        type            nutkWallFunction;
        Cmu             0.09;
        kappa           0.41;
        E               9.8;
        value           nonuniform List<scalar> 3(0.00016092 0.000142189 0.000140569);
    }
    heatsource2
    {
        type            nutkWallFunction;
        Cmu             0.09;
        kappa           0.41;
        E               9.8;
        value           nonuniform List<scalar> 4(0.000118491 8.50535e-05 8.50535e-05 0.000124717);
    }
    Table_master
    {
        type            nutkWallFunction;
        Cmu             0.09;
        kappa           0.41;
        E               9.8;
        value           nonuniform List<scalar> 9(4.20062e-05 2.47111e-05 2.33651e-05 2.78463e-05 3.39671e-05 4.14013e-05 5.06059e-05 6.31257e-05 8.5133e-05);
    }
    Table_slave
    {
        type            nutkWallFunction;
        Cmu             0.09;
        kappa           0.41;
        E               9.8;
        value           nonuniform List<scalar> 9(0.000119928 0.000123234 0.000127492 0.000132202 0.000137017 0.000141606 0.000145925 0.00014836 0.000149031);
    }
    inlet
    {
        type            calculated;
        value           uniform 3.3541e-05;
    }
    outlet
    {
        type            calculated;
        value           nonuniform List<scalar> 2(0.00205815 0.00226518);
    }
}


// ************************************************************************* //
