/*--------------------------------*- C++ -*----------------------------------*\
  =========                 |
  \\      /  F ield         | OpenFOAM: The Open Source CFD Toolbox
   \\    /   O peration     | Website:  https://openfoam.org
    \\  /    A nd           | Version:  6
     \\/     M anipulation  |
\*---------------------------------------------------------------------------*/
FoamFile
{
    version     2.0;
    format      ascii;
    class       volScalarField;
    location    "150";
    object      epsilon;
}
// * * * * * * * * * * * * * * * * * * * * * * * * * * * * * * * * * * * * * //

dimensions      [0 2 -3 0 0 0 0];

internalField   nonuniform List<scalar> 
459
(
0.00301421
0.00435937
0.00410594
0.00337391
0.00267662
0.00213117
0.00172183
0.00140312
0.00114849
0.000940595
0.000767231
0.000619251
0.000489152
0.000369247
0.000263162
0.000114789
0.000226488
0.000187662
0.000150452
0.000121073
9.69011e-05
7.69271e-05
6.18047e-05
5.04241e-05
4.17919e-05
3.51642e-05
2.99808e-05
2.58397e-05
2.24821e-05
1.96308e-05
1.70603e-05
1.5152e-05
1.48301e-05
2.70404e-05
0.00490355
0.0104473
0.00586472
0.0036983
0.0025392
0.00186422
0.00143171
0.00113151
0.000909005
0.000735342
0.000594003
0.000475234
0.000373929
0.00028665
0.000219468
0.000229027
0.000142776
0.000279601
0.000609496
0.000256991
0.00016083
0.00011675
9.00331e-05
7.62542e-05
6.15183e-05
4.90623e-05
3.92506e-05
3.16857e-05
2.58509e-05
2.13073e-05
1.78004e-05
1.52562e-05
1.39861e-05
2.24779e-05
5.41239e-05
6.5774e-05
0.00577961
0.0143726
0.00621994
0.00325463
0.00199006
0.00138242
0.00104872
0.000837205
0.000684387
0.000562437
0.000458961
0.0003691
0.00029207
0.000227575
0.000180016
0.000156305
0.000146374
0.000248937
0.000349071
0.000200942
0.000147286
0.000116655
0.000100047
0.000188316
0.000123859
8.62116e-05
6.28432e-05
4.7556e-05
3.71094e-05
2.97533e-05
2.46485e-05
2.13717e-05
1.61533e-05
2.46238e-05
0.000104977
0.000108135
0.00566812
0.0132575
0.0046278
0.00188771
0.00101977
0.000729964
0.000612103
0.00053306
0.000462774
0.000395392
0.000331121
0.000271904
0.000220064
0.000177274
0.000146529
0.000125534
0.000128737
0.000163229
0.000229259
0.000184077
0.000154183
0.000130599
0.000111303
0.000104555
0.000258086
0.000193015
0.000149866
0.000118508
9.40294e-05
7.3847e-05
5.65399e-05
4.13251e-05
2.73264e-05
1.55093e-05
2.60508e-05
0.00021206
0.00017329
0.00535859
0.00960274
0.00256155
0.000725761
0.000408094
0.000361237
0.000348279
0.000328882
0.000301143
0.000267931
0.000232785
0.000198446
0.000167666
0.000144394
0.00012979
0.000120929
0.000132624
0.000152008
0.000161669
0.000165162
0.000155296
0.000137394
0.000118554
0.000105964
0.000109607
0.000104579
9.54184e-05
8.41766e-05
7.19735e-05
5.93887e-05
4.66938e-05
3.43983e-05
2.18511e-05
1.54309e-05
2.46169e-05
0.000138331
0.000185782
0.000192997
0.000255813
0.000683274
0.00481148
0.00677438
0.00160429
0.000421627
0.000233256
0.000216208
0.000217609
0.000214439
0.00020537
0.000192283
0.000177523
0.000163218
0.000151371
0.000144475
0.000145229
0.000153683
0.000177879
0.00020364
0.000212746
0.0002059
0.000186731
0.000160544
0.000135039
0.000116228
0.000105204
9.587e-05
8.56473e-05
7.43831e-05
6.25827e-05
5.07143e-05
3.9168e-05
2.89338e-05
2.16965e-05
2.19279e-05
3.3559e-05
6.24384e-05
0.000129952
0.00027751
0.0011293
0.00171694
0.00409373
0.00498296
0.00123585
0.000433249
0.000217889
0.000188784
0.000187645
0.000189606
0.000190959
0.000191586
0.000191896
0.0001923
0.000193412
0.000197213
0.0002071
0.000224753
0.000249412
0.000274573
0.000278777
0.000260949
0.00022765
0.000189257
0.000155427
0.000130861
0.000114048
0.000100538
8.77947e-05
7.54847e-05
6.40495e-05
5.41828e-05
4.68863e-05
4.38048e-05
4.7427e-05
6.0392e-05
8.03185e-05
0.000113059
0.000200177
0.000830572
0.00370788
0.00418039
0.00326446
0.00367621
0.00139927
0.000911195
0.000387572
0.000301443
0.000294932
0.000304794
0.000319991
0.00033825
0.000357355
0.000373974
0.000382157
0.000384392
0.000385509
0.000391039
0.000403948
0.000414677
0.000400772
0.000361287
0.000309913
0.000261258
0.000224515
0.000194734
0.000171863
0.000153357
0.000137875
0.000125501
0.000117168
0.000114376
0.000119218
0.000134444
0.000162898
0.00020454
0.000254919
0.00030615
0.000448212
0.00175777
0.0130987
0.0104477
0.00217775
0.00224947
0.00214281
0.0023371
0.0010512
0.000781478
0.000758613
0.00078575
0.000830456
0.000892817
0.000939699
0.000955701
0.00094959
0.000930612
0.000905704
0.000877096
0.00084852
0.000816239
0.000766641
0.000695884
0.000622282
0.00056651
0.000517189
0.000475556
0.000441332
0.000413993
0.000393922
0.000382634
0.000382609
0.000397128
0.000430029
0.000484888
0.00056316
0.000664292
0.000795735
0.000893316
0.001046
0.00289823
0.0174834
0.0141016
0.00292914
0.00404917
0.00280761
0.00242393
0.0023883
0.00242477
0.00248992
0.00255069
0.00255219
0.00251149
0.00244629
0.00237873
0.00232118
0.00225956
0.0021939
0.00212385
0.00203698
0.00192361
0.00181617
0.00173015
0.00165472
0.00158887
0.00153202
0.00148552
0.00145252
0.00143782
0.00144782
0.00149038
0.00157367
0.00170224
0.00186904
0.00205676
0.00220932
0.0023356
0.0025547
0.00404417
0.0123111
0.0081707
0.00744749
0.00974932
0.00845112
0.00742521
0.00715103
0.00715351
0.00717674
0.00710653
0.00694592
0.00672397
0.00648747
0.00628783
0.00617528
0.00609646
0.00603202
0.00597444
0.00588608
0.00571775
0.00550687
0.00531495
0.00515587
0.00501915
0.00489949
0.00479833
0.004722
0.0046807
0.004689
0.00476676
0.00493781
0.00521968
0.00558948
0.00591333
0.0060119
0.00601461
0.00595717
0.00606342
0.00671755
0.00467925
0.000660275
0.000378162
0.00133509
0.00369261
0.00435393
0.00429115
0.00414103
0.00403697
0.00395329
0.0038502
0.00371514
0.00356151
0.00342129
0.00333437
0.00332779
0.00334504
0.00335947
0.00335971
0.00333537
0.00329791
0.00325796
0.00321444
0.00317233
0.00313456
0.00310282
0.00307902
0.00306559
0.00306552
0.00308213
0.00311814
0.00317345
0.00324007
0.00329441
0.00330928
0.00330764
0.003289
0.0033187
0.00356624
0.00366907
0.00266871
)
;

boundaryField
{
    floor
    {
        Cmu             0.09;
        kappa           0.41;
        E               9.8;
        type            epsilonWallFunction;
        value           nonuniform List<scalar> 
29
(
0.000263162
0.000114789
0.000226488
0.000187662
0.000150452
0.000121073
9.69011e-05
7.69271e-05
6.18047e-05
5.04241e-05
4.17919e-05
3.51642e-05
2.99808e-05
2.58397e-05
2.24821e-05
1.96308e-05
1.70603e-05
1.5152e-05
1.48301e-05
2.70404e-05
2.70404e-05
6.5774e-05
0.000108135
0.00017329
0.000263162
0.000114789
0.000279601
0.000248937
0.000163229
)
;
    }
    ceiling
    {
        Cmu             0.09;
        kappa           0.41;
        E               9.8;
        type            epsilonWallFunction;
        value           nonuniform List<scalar> 
43
(
0.000660275
0.000378162
0.00133509
0.00369261
0.00435393
0.00429115
0.00414103
0.00403697
0.00395329
0.0038502
0.00371514
0.00356151
0.00342129
0.00333437
0.00332779
0.00334504
0.00335947
0.00335971
0.00333537
0.00329791
0.00325796
0.00321444
0.00317233
0.00313456
0.00310282
0.00307902
0.00306559
0.00306552
0.00308213
0.00311814
0.00317345
0.00324007
0.00329441
0.00330928
0.00330764
0.003289
0.0033187
0.00356624
0.00366907
0.00266871
0.00217775
0.00224947
0.00744749
)
;
    }
    sWall
    {
        Cmu             0.09;
        kappa           0.41;
        E               9.8;
        type            epsilonWallFunction;
        value           uniform 0.000660275;
    }
    nWall
    {
        Cmu             0.09;
        kappa           0.41;
        E               9.8;
        type            epsilonWallFunction;
        value           nonuniform List<scalar> 6(0.000683274 0.00171694 0.00418039 0.0081707 0.00467925 0.00266871);
    }
    sideWalls
    {
        type            empty;
    }
    glass1
    {
        Cmu             0.09;
        kappa           0.41;
        E               9.8;
        type            epsilonWallFunction;
        value           nonuniform List<scalar> 9(0.00301421 0.00490355 0.00577961 0.00566812 0.00535859 0.00481148 0.00409373 0.00326446 0.00217775);
    }
    glass2
    {
        Cmu             0.09;
        kappa           0.41;
        E               9.8;
        type            epsilonWallFunction;
        value           nonuniform List<scalar> 2(0.0104477 0.0141016);
    }
    sun
    {
        Cmu             0.09;
        kappa           0.41;
        E               9.8;
        type            epsilonWallFunction;
        value           nonuniform List<scalar> 
14
(
0.00301421
0.00435937
0.00410594
0.00337391
0.00267662
0.00213117
0.00172183
0.00140312
0.00114849
0.000940595
0.000767231
0.000619251
0.000489152
0.000369247
)
;
    }
    heatsource1
    {
        Cmu             0.09;
        kappa           0.41;
        E               9.8;
        type            epsilonWallFunction;
        value           nonuniform List<scalar> 3(0.000192997 0.000255813 0.000683274);
    }
    heatsource2
    {
        Cmu             0.09;
        kappa           0.41;
        E               9.8;
        type            epsilonWallFunction;
        value           nonuniform List<scalar> 4(0.000229027 0.000142776 0.000142776 0.000146374);
    }
    Table_master
    {
        Cmu             0.09;
        kappa           0.41;
        E               9.8;
        type            epsilonWallFunction;
        value           nonuniform List<scalar> 9(0.000188316 0.000123859 8.62116e-05 6.28432e-05 4.7556e-05 3.71094e-05 2.97533e-05 2.46485e-05 2.13717e-05);
    }
    Table_slave
    {
        Cmu             0.09;
        kappa           0.41;
        E               9.8;
        type            epsilonWallFunction;
        value           nonuniform List<scalar> 9(0.000258086 0.000193015 0.000149866 0.000118508 9.40294e-05 7.3847e-05 5.65399e-05 4.13251e-05 2.73264e-05);
    }
    inlet
    {
        type            turbulentMixingLengthDissipationRateInlet;
        mixingLength    0.01;
        phi             phi;
        k               k;
        value           uniform 3.01869e-05;
    }
    outlet
    {
        type            zeroGradient;
    }
}


// ************************************************************************* //
