// -*- C++ -*-
// File generated by PyFoam - sorry for the ugliness

FoamFile
{
 version 2.0;
 format ascii;
 class volScalarField;
 location "630";
 object T;
}

dimensions [ 0 0 0 1 0 0 0 ];

internalField nonuniform List<scalar> 459
(
  301.006
  300.969
  300.969
  300.97
  300.971
  300.972
  300.973
  300.974
  300.976
  300.98
  300.986
  300.999
  301.003
  301.002
  300.993
  301.014
  301.066
  301.085
  301.097
  301.106
  301.112
  301.115
  301.116
  301.117
  301.117
  301.117
  301.117
  301.118
  301.118
  301.118
  301.117
  301.117
  301.114
  301.097
  301.027
  300.975
  300.973
  300.973
  300.974
  300.974
  300.973
  300.972
  300.972
  300.976
  300.986
  301.002
  301.013
  301.016
  301.01
  301.013
  301.015
  301.06
  301.081
  301.096
  301.111
  301.125
  301.135
  301.139
  301.141
  301.143
  301.144
  301.146
  301.147
  301.148
  301.148
  301.148
  301.145
  301.14
  301.131
  301.122
  301.047
  300.979
  300.975
  300.975
  300.975
  300.975
  300.974
  300.97
  300.965
  300.967
  300.98
  301.002
  301.019
  301.026
  301.025
  301.024
  301.021
  301.059
  301.078
  301.101
  301.123
  301.142
  301.157
  301.158
  301.159
  301.16
  301.161
  301.163
  301.164
  301.166
  301.167
  301.166
  301.164
  301.158
  301.147
  301.135
  301.069
  300.984
  300.977
  300.978
  300.98
  300.981
  300.98
  300.971
  300.96
  300.958
  300.973
  301.001
  301.025
  301.039
  301.041
  301.039
  301.034
  301.038
  301.056
  301.082
  301.112
  301.142
  301.167
  301.187
  301.204
  301.218
  301.23
  301.24
  301.249
  301.256
  301.262
  301.267
  301.27
  301.24
  301.208
  301.177
  301.153
  301.092
  300.992
  300.98
  300.982
  300.988
  300.993
  300.992
  300.977
  300.956
  300.949
  300.967
  301
  301.033
  301.056
  301.064
  301.064
  301.063
  301.073
  301.094
  301.12
  301.15
  301.179
  301.204
  301.226
  301.245
  301.26
  301.271
  301.281
  301.288
  301.294
  301.296
  301.297
  301.294
  301.278
  301.25
  301.214
  301.181
  301.182
  301.185
  301.214
  301.114
  301.002
  300.986
  300.986
  300.993
  301.004
  301.003
  300.98
  300.953
  300.943
  300.961
  301.002
  301.046
  301.078
  301.095
  301.1
  301.105
  301.119
  301.141
  301.168
  301.196
  301.223
  301.246
  301.266
  301.282
  301.294
  301.303
  301.309
  301.314
  301.316
  301.317
  301.316
  301.311
  301.3
  301.279
  301.252
  301.22
  301.208
  301.203
  301.221
  301.135
  301.021
  301.002
  300.999
  301.005
  301.015
  301.007
  300.977
  300.944
  300.934
  300.958
  301.009
  301.066
  301.11
  301.135
  301.147
  301.156
  301.172
  301.194
  301.219
  301.243
  301.266
  301.286
  301.301
  301.311
  301.319
  301.323
  301.326
  301.327
  301.327
  301.327
  301.324
  301.32
  301.311
  301.297
  301.277
  301.251
  301.234
  301.222
  301.229
  301.166
  301.074
  301.05
  301.039
  301.037
  301.033
  301.004
  300.958
  300.922
  300.921
  300.96
  301.029
  301.1
  301.153
  301.183
  301.198
  301.21
  301.227
  301.246
  301.267
  301.287
  301.303
  301.315
  301.323
  301.328
  301.33
  301.331
  301.33
  301.329
  301.327
  301.325
  301.322
  301.319
  301.312
  301.302
  301.288
  301.271
  301.256
  301.245
  301.284
  301.208
  301.165
  301.134
  301.107
  301.085
  301.036
  300.962
  300.9
  300.878
  300.907
  300.978
  301.072
  301.155
  301.208
  301.233
  301.248
  301.261
  301.275
  301.29
  301.304
  301.315
  301.324
  301.329
  301.331
  301.331
  301.331
  301.329
  301.327
  301.324
  301.321
  301.317
  301.313
  301.309
  301.304
  301.3
  301.298
  301.299
  301.304
  301.313
  301.34
  300.367
  300.493
  300.549
  300.582
  300.634
  300.712
  300.813
  300.927
  301.046
  301.162
  301.225
  301.258
  301.276
  301.287
  301.297
  301.307
  301.315
  301.322
  301.327
  301.329
  301.33
  301.329
  301.328
  301.326
  301.324
  301.322
  301.319
  301.317
  301.314
  301.311
  301.309
  301.308
  301.307
  301.308
  301.311
  301.318
  301.33
  301.356
  300.388
  300.517
  300.602
  300.701
  300.803
  300.905
  301.011
  301.104
  301.181
  301.238
  301.271
  301.289
  301.3
  301.307
  301.313
  301.318
  301.322
  301.324
  301.325
  301.325
  301.325
  301.324
  301.323
  301.322
  301.321
  301.32
  301.319
  301.317
  301.316
  301.315
  301.314
  301.313
  301.312
  301.313
  301.315
  301.319
  301.328
  301.344
  300.648
  300.64
  300.639
  300.763
  300.875
  300.985
  301.073
  301.137
  301.185
  301.224
  301.254
  301.274
  301.286
  301.294
  301.298
  301.301
  301.303
  301.304
  301.304
  301.304
  301.303
  301.302
  301.301
  301.3
  301.3
  301.299
  301.299
  301.299
  301.299
  301.3
  301.301
  301.302
  301.303
  301.304
  301.306
  301.307
  301.309
  301.311
  301.31
  301.334
)
;

boundaryField
{
  floor
  {
    type wallHeatTransfer;
    Tinf uniform 299.755;
    alphaWall uniform 0.24;
    value nonuniform List<scalar> 29
(
  300.794
  300.741
  300.844
  300.862
  300.874
  300.881
  300.882
  300.876
  300.867
  300.858
  300.848
  300.839
  300.83
  300.821
  300.812
  300.803
  300.793
  300.781
  300.76
  300.724
  300.724
  300.781
  300.808
  300.844
  300.794
  300.741
  300.845
  300.859
  300.871
)
;
  }
  ceiling
  {
    type wallHeatTransfer;
    Tinf uniform 299.755;
    alphaWall uniform 0.24;
    value nonuniform List<scalar> 43
(
  300.562
  300.557
  300.559
  300.683
  300.786
  300.886
  300.964
  301.02
  301.063
  301.095
  301.118
  301.132
  301.139
  301.144
  301.147
  301.15
  301.151
  301.152
  301.152
  301.151
  301.15
  301.149
  301.148
  301.147
  301.146
  301.144
  301.142
  301.139
  301.136
  301.132
  301.129
  301.127
  301.126
  301.126
  301.127
  301.129
  301.132
  301.133
  301.13
  301.148
  301.091
  301.067
  300.314
)
;
  }
  sWall
  {
    type wallHeatTransfer;
    Tinf uniform 303.161;
    alphaWall uniform 0.36;
    value uniform 300.993;
  }
  nWall
  {
    type wallHeatTransfer;
    Tinf uniform 303.145;
    alphaWall uniform 0.36;
    value nonuniform List<scalar> 6
(
  301.732
  301.65
  301.609
  301.631
  301.605
  301.637
)
;
  }
  sideWalls
  {
    type empty;
  }
  glass1
  {
    type wallHeatTransfer;
    Tinf uniform 303.161;
    alphaWall uniform 4.3;
    value nonuniform List<scalar> 9
(
  302.663
  302.59
  302.538
  302.494
  302.455
  302.415
  302.38
  302.38
  302.401
)
;
  }
  glass2
  {
    type wallHeatTransfer;
    Tinf uniform 303.145;
    alphaWall uniform 4.3;
    value nonuniform List<scalar> 2
(
  302.587
  302.592
)
;
  }
  sun
  {
    type wallHeatTransfer;
    Tinf uniform 299.755;
    alphaWall uniform 0.24;
    value nonuniform List<scalar> 14
(
  300.811
  300.793
  300.799
  300.806
  300.813
  300.819
  300.826
  300.831
  300.836
  300.84
  300.845
  300.849
  300.841
  300.821
)
;
  }
  heatsource1
  {
    type fixedGradient;
    gradient uniform 0;
  }
  heatsource2
  {
    type fixedGradient;
    gradient uniform 0;
  }
  Table_master
  {
    type zeroGradient;
  }
  Table_slave
  {
    type zeroGradient;
  }
  inlet
  {
    type fixedValue;
    value uniform 300.15;
  }
  outlet
  {
    type zeroGradient;
  }
} 	// ************************************************************************* //

