/*--------------------------------*- C++ -*----------------------------------*\
  =========                 |
  \\      /  F ield         | OpenFOAM: The Open Source CFD Toolbox
   \\    /   O peration     | Website:  https://openfoam.org
    \\  /    A nd           | Version:  6
     \\/     M anipulation  |
\*---------------------------------------------------------------------------*/
FoamFile
{
    version     2.0;
    format      ascii;
    class       surfaceScalarField;
    location    "740";
    object      phi;
}
// * * * * * * * * * * * * * * * * * * * * * * * * * * * * * * * * * * * * * //

dimensions      [1 0 -1 0 0 0 0];

internalField   nonuniform List<scalar> 
852
(
-0.00248618
0.0025297
-0.00329723
0.00081104
-0.00396033
0.000663103
-0.00451061
0.000550278
-0.00491744
0.000406823
-0.00515959
0.000242145
-0.00521432
5.47302e-05
-0.00505692
-0.000157405
-0.00467301
-0.000383909
-0.00407938
-0.000593634
-0.00332447
-0.000754916
-0.00247588
-0.000848595
-0.00160906
-0.000866823
-0.000794575
-0.000814483
-0.000797908
0.000168317
-0.000173211
0.000499452
-0.000331138
0.000916096
-0.000416646
0.00125295
-0.00033686
0.00149497
-0.000242022
0.00165381
-0.000158838
0.00173137
-7.75707e-05
0.00175703
-2.56561e-05
0.0017624
-5.37302e-06
0.00175852
3.87542e-06
0.00174734
1.11752e-05
0.00172774
1.95981e-05
0.00169403
3.37096e-05
0.00163079
6.32323e-05
0.00150209
0.000128695
0.0012458
0.00025629
0.000805496
0.000440303
7.06433e-05
0.000734849
6.38148e-05
-0.00180373
0.0044512
-0.00263368
0.00164099
-0.00333564
0.00136505
-0.00388473
0.00109937
-0.00428683
0.00080891
-0.00453267
0.000487989
-0.00460033
0.000122389
-0.00446438
-0.000293363
-0.00411576
-0.00073253
-0.00358312
-0.00112628
-0.00292727
-0.00141077
-0.00222507
-0.0015508
-0.00155706
-0.00153484
-0.00100135
-0.00137019
-0.000755941
-0.00104332
-0.000205703
-0.000550291
-0.000205757
4.28258e-05
-0.000228181
0.000752073
-0.00104039
0.00111899
-0.000783568
0.00137588
-0.000593746
0.00156474
-0.000430889
0.00168669
-0.000280789
0.00171339
-0.000104275
0.00172136
-3.36274e-05
0.00172871
-1.27274e-05
0.00173455
-1.96755e-06
0.00173815
7.57238e-06
0.00173942
1.8321e-05
0.00173714
3.59922e-05
0.00172609
7.42803e-05
0.00166974
0.000185039
0.0014498
0.000476224
0.00107179
0.000818315
0.000661549
0.00114508
0.000707077
-0.00129593
0.00592777
-0.00203809
0.00238315
-0.00267812
0.00200508
-0.00315952
0.00158076
-0.00352022
0.00116961
-0.00375187
0.000719634
-0.00382435
0.000194871
-0.00369649
-0.000421225
-0.00335744
-0.00107159
-0.00285536
-0.00162835
-0.00226118
-0.00200495
-0.00164469
-0.00216729
-0.00106989
-0.00210964
-0.000592097
-0.00184799
-0.000252633
-0.00138279
5.37601e-06
-0.000808303
-0.000200384
0.00105391
-0.00129917
0.00113359
-0.00112007
0.0013316
-0.000981582
0.00148542
-0.00074757
0.00159511
-0.00054058
0.00169754
-0.000383221
0.00159341
0.00155993
0.00154735
0.00154553
0.00155325
0.00157172
0.00160786
0.00168229
0.00186748
0.00164865
0.00069505
0.00138094
0.00108602
0.000982034
0.00154399
0.00166021
-0.000938069
0.00710022
-0.00155416
0.00299924
-0.00200382
0.00245474
-0.00234637
0.00192331
-0.00261608
0.00143932
-0.00279849
0.000902044
-0.002853
0.000249379
-0.00270996
-0.000564273
-0.002363
-0.00141855
-0.00189679
-0.00209456
-0.00138498
-0.00251677
-0.000879102
-0.00267316
-0.000416012
-0.00257273
-6.18634e-06
-0.00225782
0.000369838
-0.00175882
0.000764047
-0.00120251
0.00132449
-0.000760827
0.00204505
-0.000737631
0.00181127
-0.00106539
0.0016704
-0.000979201
0.00153913
-0.000850317
0.0014778
-0.000686237
0.00146085
-0.000523637
0.00143805
-0.000360425
0.00161513
-0.000177237
0.0017428
-0.000127825
0.00185817
-0.000115515
0.00196559
-0.000107573
0.00205695
-9.15137e-05
0.00211504
-5.82443e-05
0.00210934
5.53678e-06
0.00199584
0.000113354
0.00170476
0.000290921
0.00169973
0.000700077
0.00159742
0.00118832
0.001392
0.00174941
0.00301465
-0.000680922
0.00806139
-0.00117361
0.00349192
-0.00132105
0.00260218
-0.0014636
0.00206586
-0.00159158
0.00156729
-0.00167403
0.000984493
-0.00166103
0.000236378
-0.00145898
-0.00076633
-0.0011054
-0.00177212
-0.000715279
-0.00248469
-0.000338972
-0.00289308
1.43729e-07
-0.00301228
0.000293184
-0.00286577
0.000546507
-0.00251114
0.000805251
-0.00201756
0.00109759
-0.00149486
0.00141682
-0.00108006
0.0016182
-0.000939013
0.00146875
-0.000915935
0.00133015
-0.000840605
0.00120773
-0.000727901
0.00112567
-0.00060418
0.00108624
-0.000484212
0.0010945
-0.000368685
0.00118849
-0.000271237
0.00129078
-0.000230118
0.0013949
-0.000219636
0.00149901
-0.000211684
0.00159752
-0.000190032
0.00168059
-0.000141309
0.0017333
-4.71825e-05
0.00173912
0.000107535
0.00170037
0.000329663
0.0017372
0.000663245
0.00188831
0.0010372
0.00240159
0.00123613
0.00369633
0.00171991
0.00244169
0.00125444
0.0014784
0.00096308
0.00151979
-0.000602013
0.00898272
-0.000960102
0.00385001
-0.000677552
0.00231963
-0.000541119
0.00192942
-0.000491677
0.00151784
-0.00043704
0.000929853
-0.00025171
5.10443e-05
7.09774e-05
-0.00108902
0.000382027
-0.00208317
0.000630468
-0.00273313
0.000806649
-0.00306926
0.000915833
-0.00312146
0.000980529
-0.00293047
0.00102373
-0.00255435
0.00107187
-0.00206571
0.0011384
-0.00156139
0.00120457
-0.00114624
0.00117305
-0.000907501
0.0010371
-0.000779981
0.000882276
-0.000685786
0.000748898
-0.000594525
0.000655607
-0.000510893
0.000610107
-0.000438715
0.000618512
-0.000377094
0.000680013
-0.000332741
0.000766899
-0.000317008
0.000863754
-0.000316494
0.000964605
-0.000312539
0.00106649
-0.000291915
0.00116817
-0.000243001
0.00127019
-0.000149203
0.00136401
1.37129e-05
0.00144767
0.000245999
0.00157757
0.000533343
0.00178646
0.00082831
0.00201791
0.00100467
0.00232998
0.00140783
0.00204202
0.0015424
0.00124315
0.00176194
0.00280675
-0.000732013
0.0100686
-0.000668446
0.00378644
0.000150591
0.00150059
0.000556011
0.001524
0.000795963
0.00127789
0.0011023
0.000623514
0.00150086
-0.000347521
0.00183587
-0.00142404
0.00200514
-0.00225244
0.00203697
-0.00276496
0.00195435
-0.00298664
0.00179133
-0.00295844
0.00158592
-0.00272506
0.00137157
-0.00234
0.00117336
-0.0018675
0.00100415
-0.00139218
0.000855099
-0.00099719
0.000690348
-0.000742753
0.000510888
-0.000600524
0.000340105
-0.000515007
0.000201974
-0.000456397
0.000107054
-0.000415976
5.84194e-05
-0.000390083
5.65934e-05
-0.000375271
9.53002e-05
-0.000371451
0.000157881
-0.000379592
0.000231494
-0.00039011
0.000310473
-0.000391522
0.000393895
-0.000375342
0.000486182
-0.000335291
0.000599154
-0.00026218
0.000746576
-0.000133713
0.000916023
7.65491e-05
0.00110484
0.000344522
0.00132063
0.000612513
0.00149646
0.000828846
0.0017255
0.00117879
0.00184071
0.00142718
0.00156081
0.00204184
0.00441358
0.00197946
0.00848429
0.00250962
0.00325627
0.00251371
0.00149649
0.00266557
0.00137213
0.00287206
0.00107139
0.00326316
0.000232416
0.00368058
-0.000764943
0.00383066
-0.00157412
0.00371262
-0.00213439
0.00339872
-0.00245106
0.00296101
-0.00254892
0.00246102
-0.00245846
0.00194955
-0.00221359
0.00146608
-0.00185654
0.00103432
-0.00143574
0.000670302
-0.00102816
0.000371176
-0.000698068
0.000124901
-0.000496482
-8.14517e-05
-0.000394175
-0.000249533
-0.000346929
-0.000377605
-0.000328328
-0.00046809
-0.000325494
-0.000524705
-0.000333472
-0.000550884
-0.000349095
-0.000551834
-0.000370505
-0.000536383
-0.000395047
-0.000511195
-0.000415302
-0.000480327
-0.000422392
-0.000446606
-0.000409066
-0.000409187
-0.000372713
-0.000353868
-0.000317502
-0.000244865
-0.00024272
-5.80288e-05
-0.000110291
0.000174488
0.000112001
0.000413483
0.000373514
0.000606653
0.000635672
0.000838834
0.000946609
0.00104907
0.00121693
0.000623217
0.0024677
0.00523053
0.00888933
0.0121161
0.0102856
0.00332694
0.00907799
0.00257978
0.00827522
0.00187416
0.00767775
0.000829882
0.00697031
-5.74968e-05
0.00613527
-0.000739081
0.0052397
-0.00123883
0.00433308
-0.00154444
0.00344505
-0.00166089
0.00259857
-0.00161199
0.00181731
-0.00143233
0.0011295
-0.00116873
0.000548392
-0.000854639
8.75248e-05
-0.000567302
-0.000251238
-0.000359309
-0.000492348
-0.000255376
-0.00067152
-0.000215006
-0.000813096
-0.000205357
-0.000928204
-0.000213224
-0.00102323
-0.000230474
-0.00110328
-0.000253428
-0.00117195
-0.000280424
-0.00123205
-0.000310409
-0.00128621
-0.000340894
-0.00133575
-0.000365757
-0.00138285
-0.000375297
-0.00143527
-0.000356649
-0.00151124
-0.000296748
-0.0016329
-0.00019585
-0.00181047
-6.51543e-05
-0.00204071
0.000119953
-0.00232408
0.000395361
-0.00273034
0.00077977
-0.00339883
0.00130416
-0.00446661
0.00201439
-0.00601261
0.00276294
-0.00633482
0.0027899
-0.000895685
0.00393402
0.00361038
0.00389126
0.00262254
0.00468241
0.00108302
0.00497052
0.000541778
0.00482531
8.77146e-05
0.00446615
-0.000379916
0.00392045
-0.000693127
0.00323263
-0.000856608
0.00246304
-0.000891303
0.0016708
-0.00081976
0.000910357
-0.000671884
0.000238274
-0.000496654
-0.000292078
-0.000324292
-0.000655533
-0.000203852
-0.000888719
-0.000126127
-0.00105064
-9.34611e-05
-0.00117495
-9.06943e-05
-0.00128311
-9.7198e-05
-0.00138521
-0.000111135
-0.00148744
-0.000128244
-0.00159443
-0.000146444
-0.00170971
-0.000165145
-0.00183568
-0.000184446
-0.00197268
-0.000203899
-0.00211761
-0.000220825
-0.00226412
-0.000228795
-0.00240549
-0.000215282
-0.00254309
-0.000159154
-0.0026834
-5.55387e-05
-0.00282875
8.01908e-05
-0.00296568
0.00025688
-0.00308321
0.00051289
-0.00318017
0.000876723
-0.00324453
0.00136851
-0.00322984
0.0019997
-0.00302089
0.00255398
-0.00134001
0.00110902
-0.00219044
0.00051015
0.00308586
0.00204657
0.00108612
0.00261464
0.000514964
0.00282588
0.000330549
0.00278572
0.000127876
0.00247551
-6.97074e-05
0.00202624
-0.000243849
0.00145934
-0.000289715
0.000841386
-0.000273357
0.000249134
-0.000227515
-0.000259837
-0.00016292
-0.000665957
-9.05403e-05
-0.000958896
-3.13587e-05
-0.00116268
-6.8751e-08
-0.00129999
1.11815e-05
-0.00140317
9.70652e-06
-0.00149399
1.24562e-07
-0.00157866
-1.25309e-05
-0.00166428
-2.55138e-05
-0.00175442
-3.81101e-05
-0.00185157
-4.92977e-05
-0.00195889
-5.78278e-05
-0.0020811
-6.22401e-05
-0.00222397
-6.10302e-05
-0.00239187
-5.29307e-05
-0.00258363
-3.7041e-05
-0.00278593
-1.29826e-05
-0.00296681
2.1723e-05
-0.00309131
6.89544e-05
-0.00315172
0.0001406
-0.00313816
0.000243314
-0.00301013
0.000384853
-0.00271819
0.000584781
-0.00219795
0.00084827
-0.00125493
0.00105668
0.000324545
0.000974498
0.00141545
1.81088e-05
-0.000729212
-0.00367603
-0.00495021
-0.00188793
-0.000834444
-0.000358078
-6.92253e-05
1.47779e-05
-0.000100837
-0.000391996
-0.000729981
-0.00105218
-0.00132903
-0.00154198
-0.00168353
-0.00176702
-0.00182022
-0.00186287
-0.00190753
-0.00196219
-0.00202979
-0.00211058
-0.00220413
-0.00230895
-0.00242238
-0.0025403
-0.00265724
-0.00276656
-0.00286086
-0.0029324
-0.00297083
-0.00296381
-0.002887
-0.00270926
-0.0023916
-0.00187528
-0.00109638
-0.000109787
0.000793829
0.000742712
)
;

boundaryField
{
    floor
    {
        type            calculated;
        value           nonuniform List<scalar> 
29
(
0
0
0
0
0
0
0
0
0
0
0
0
0
0
0
0
0
0
0
0
6.82734e-06
1.82831e-05
2.89016e-05
3.75517e-05
3.33028e-06
4.89146e-06
1.21424e-05
1.70746e-05
1.70619e-05
)
;
    }
    ceiling
    {
        type            calculated;
        value           nonuniform List<scalar> 
43
(
2.85648e-05
2.53305e-05
2.35871e-05
3.26391e-05
3.86003e-05
4.16975e-05
4.3872e-05
4.58899e-05
4.72963e-05
4.82583e-05
4.88311e-05
4.93287e-05
5.00218e-05
5.10059e-05
5.21278e-05
5.3128e-05
5.38288e-05
5.43617e-05
5.47795e-05
5.50641e-05
5.5279e-05
5.54303e-05
5.55252e-05
5.55893e-05
5.56821e-05
5.59042e-05
5.63865e-05
5.72546e-05
5.85574e-05
6.0152e-05
6.19273e-05
6.3782e-05
6.55773e-05
6.71819e-05
6.846e-05
6.93658e-05
7.00838e-05
7.08787e-05
6.92226e-05
7.13804e-05
3.61696e-05
2.95183e-05
1.43784e-05
)
;
    }
    sWall
    {
        type            calculated;
        value           uniform -0.000217678;
    }
    nWall
    {
        type            calculated;
        value           nonuniform List<scalar> 6(-4.1588e-05 -4.38064e-05 -4.60274e-05 -4.52636e-05 -4.57761e-05 -5.78842e-05);
    }
    sideWalls
    {
        type            empty;
        value           nonuniform 0();
    }
    glass1
    {
        type            calculated;
        value           nonuniform List<scalar> 9(-4.35213e-05 -0.000117771 -0.000180647 -0.000234377 -0.000280257 -0.000319312 -0.000353913 -0.000395114 -0.000441212);
    }
    glass2
    {
        type            calculated;
        value           nonuniform List<scalar> 2(-0.000193739 -0.000208609);
    }
    sun
    {
        type            calculated;
        value           uniform 0;
    }
    heatsource1
    {
        type            calculated;
        value           nonuniform List<scalar> 3(2.00314e-07 2.00861e-07 2.01266e-07);
    }
    heatsource2
    {
        type            calculated;
        value           nonuniform List<scalar> 4(5.03648e-08 5.04776e-08 0 0);
    }
    Table_master
    {
        type            calculated;
        value           nonuniform List<scalar> 9(-1.50799e-07 -1.50883e-07 -1.50905e-07 -1.50919e-07 -1.50925e-07 -1.50926e-07 -1.50921e-07 -1.50903e-07 -1.50849e-07);
    }
    Table_slave
    {
        type            calculated;
        value           nonuniform List<scalar> 9(1.50733e-07 1.50745e-07 1.50709e-07 1.50674e-07 1.50644e-07 1.50626e-07 1.50629e-07 1.50638e-07 1.50686e-07);
    }
    inlet
    {
        type            calculated;
        value           uniform -0.00421746;
    }
    outlet
    {
        type            calculated;
        value           nonuniform List<scalar> 2(0.00386515 0.00124885);
    }
}


// ************************************************************************* //
