/*--------------------------------*- C++ -*----------------------------------*\
  =========                 |
  \\      /  F ield         | OpenFOAM: The Open Source CFD Toolbox
   \\    /   O peration     | Website:  https://openfoam.org
    \\  /    A nd           | Version:  6
     \\/     M anipulation  |
\*---------------------------------------------------------------------------*/
FoamFile
{
    version     2.0;
    format      ascii;
    class       volScalarField;
    location    "200";
    object      alphat;
}
// * * * * * * * * * * * * * * * * * * * * * * * * * * * * * * * * * * * * * //

dimensions      [1 -1 -1 0 0 0 0];

internalField   nonuniform List<scalar> 
459
(
0.00139837
0.00154125
0.0015843
0.00166772
0.00174919
0.00183263
0.00190834
0.00195839
0.0019733
0.00194738
0.00187462
0.00171599
0.00151336
0.00128085
0.00108181
0.000630084
0.000740912
0.000862929
0.000926449
0.000928384
0.000902729
0.000846521
0.000786821
0.000732931
0.000685902
0.000645
0.000609333
0.000577941
0.000550146
0.000524935
0.000500952
0.000476314
0.0004535
0.000411852
0.00185624
0.00475115
0.00464099
0.00539482
0.00614013
0.00676558
0.00725815
0.00768269
0.00800265
0.00818652
0.00820233
0.00798712
0.00744436
0.00646053
0.0043579
0.00136027
0.00106177
0.000619361
0.0015652
0.00244327
0.00316801
0.00360315
0.00354893
0.00251968
0.00208575
0.00180336
0.00159881
0.00144326
0.00132093
0.00122327
0.00113464
0.00104227
0.000953853
0.000875938
0.000956808
0.00048729
0.00222996
0.00645604
0.00575167
0.0067697
0.00726602
0.007643
0.00797866
0.00833598
0.00870885
0.00906267
0.00933393
0.00941695
0.00920566
0.00863835
0.00730283
0.00483756
0.00135167
0.000895154
0.00169875
0.002699
0.00376293
0.0045181
0.00432226
0.00116505
0.00101305
0.000891284
0.000794205
0.000716274
0.000653064
0.000601298
0.000559451
0.000527812
0.000591386
0.000709251
0.00110853
0.00054106
0.00258239
0.00806429
0.00590063
0.00702647
0.007251
0.0074055
0.00760968
0.00790165
0.0083025
0.00876706
0.00918341
0.00940822
0.00942911
0.00921271
0.00858398
0.0071215
0.00393886
0.00154389
0.0018937
0.00275984
0.00397818
0.00517507
0.00596136
0.00552671
0.00132529
0.0011989
0.00110273
0.00102442
0.000956892
0.000893908
0.000831406
0.000766101
0.000692607
0.000639246
0.000699222
0.00128967
0.000581634
0.00293832
0.0100941
0.00653759
0.00714047
0.00731325
0.0073034
0.00737864
0.00759641
0.00800668
0.00850671
0.0089461
0.00919989
0.00924091
0.00911726
0.00883469
0.008204
0.00694062
0.00612873
0.00640904
0.0069992
0.00765637
0.00815578
0.00835471
0.00802718
0.0064984
0.00569461
0.00516238
0.00470126
0.00419456
0.00363734
0.00303678
0.00241283
0.00179931
0.00127443
0.000996198
0.00123028
0.000739109
0.000691085
0.000830224
0.000933424
0.00331424
0.0123374
0.008766
0.00782907
0.00786123
0.00759149
0.00744222
0.00754992
0.00794431
0.00848041
0.00894537
0.00917669
0.00915723
0.00901535
0.00891486
0.0089153
0.00890949
0.00915216
0.00967511
0.0100943
0.0103032
0.0102775
0.0100241
0.00952478
0.00871289
0.00795028
0.00726698
0.00658867
0.00588473
0.00514469
0.00436273
0.00354861
0.0027363
0.00200401
0.00152009
0.0013216
0.00101697
0.000895294
0.00128696
0.000979635
0.00364239
0.0138367
0.0118201
0.00983298
0.00886105
0.00798061
0.00755465
0.00762861
0.00809371
0.00871394
0.00921419
0.00941264
0.0093373
0.00923981
0.00944863
0.0100407
0.0106758
0.0112551
0.0116762
0.0117681
0.0115785
0.011168
0.0105934
0.00988761
0.0090728
0.00827761
0.00752655
0.00679926
0.00608194
0.00540228
0.00471731
0.00402542
0.00331869
0.00263041
0.00211631
0.00176667
0.00148796
0.00145189
0.00151885
0.00115042
0.00369614
0.0118406
0.0107995
0.00945569
0.00820302
0.00743552
0.00729571
0.0077152
0.00847612
0.00925623
0.00975925
0.00986074
0.00974415
0.00987876
0.0106845
0.011425
0.011914
0.0122133
0.0122694
0.0120097
0.0114831
0.0107631
0.00991418
0.00898784
0.00804397
0.00715263
0.00633687
0.00560813
0.00499312
0.00452334
0.00419117
0.00391338
0.00355998
0.00315705
0.00290763
0.00287012
0.00312414
0.00374918
0.0045977
0.00174873
0.00359187
0.00422791
0.00455494
0.00465855
0.00498682
0.00576506
0.00692916
0.00827449
0.00950083
0.0102793
0.0104577
0.0102137
0.0103908
0.0108744
0.0114005
0.0117349
0.0118437
0.0117511
0.0114194
0.0108298
0.0100218
0.0090579
0.0080001
0.00692368
0.00591408
0.00503257
0.0042993
0.00371965
0.00329601
0.00300612
0.00282
0.0027084
0.00264817
0.00262391
0.002633
0.00265464
0.00262782
0.00250381
0.00232784
0.00161994
0.00148785
0.00365418
0.00724268
0.00962333
0.0110407
0.0117252
0.0117796
0.0113308
0.010565
0.0100445
0.0101281
0.0104228
0.0105595
0.010501
0.0102706
0.00984931
0.00921047
0.00837054
0.00739479
0.00637329
0.00539781
0.00454372
0.00385234
0.0033294
0.00296025
0.00272154
0.00258231
0.00251995
0.00251259
0.00254381
0.00260119
0.00267297
0.0027415
0.00277571
0.00273967
0.002637
0.00242223
0.00135408
0.00242677
0.00807168
0.0107092
0.011182
0.0109449
0.0102919
0.00945858
0.00871992
0.00818137
0.00788987
0.00776917
0.00763908
0.00745752
0.00722528
0.00691009
0.00647388
0.00591231
0.00527086
0.00462765
0.00405583
0.0035946
0.00324641
0.00299213
0.00280766
0.00267343
0.00257761
0.002516
0.00249023
0.00250337
0.00255643
0.0026449
0.00275491
0.0028617
0.00294083
0.00291942
0.0029704
0.00293059
0.00137847
0.00215548
0.00228614
0.0023805
0.0025475
0.00236702
0.00220865
0.00207868
0.00192689
0.00176013
0.00159699
0.00145701
0.00135376
0.00128191
0.0012297
0.00118755
0.00114835
0.00110726
0.00106247
0.00101537
0.000969384
0.00092811
0.000893761
0.000866882
0.000846987
0.000833514
0.000826541
0.000827012
0.000836471
0.000856506
0.000888168
0.000931823
0.000987399
0.00105475
0.00113352
0.00122397
0.0013209
0.00134235
0.00129292
0.00121859
0.00113195
)
;

boundaryField
{
    floor
    {
        type            compressible::alphatWallFunction;
        Prt             0.85;
        value           nonuniform List<scalar> 
29
(
0.000153747
8.88564e-05
0.000105181
0.000122821
0.000131888
0.000132166
0.000128517
0.000120476
0.000111865
0.000104025
9.71272e-05
9.1081e-05
8.57706e-05
8.1065e-05
7.68724e-05
7.30467e-05
6.93862e-05
6.56027e-05
6.20769e-05
5.5582e-05
5.55813e-05
6.72882e-05
7.54914e-05
8.16148e-05
0.000153745
8.88554e-05
8.72578e-05
0.000127408
0.000216848
)
;
    }
    ceiling
    {
        type            compressible::alphatWallFunction;
        Prt             0.85;
        value           nonuniform List<scalar> 
43
(
0.000297226
0.000314053
0.000326144
0.000347547
0.000324589
0.000304268
0.000287469
0.000267701
0.000245786
0.000224127
0.000205348
0.00019137
0.000181573
0.000174415
0.000168611
0.00016319
0.000157485
0.000151237
0.000144632
0.00013815
0.0001323
0.000127407
0.000123563
0.000120708
0.000118768
0.000117762
0.000117826
0.000119184
0.000122058
0.000126585
0.000132798
0.00014066
0.00015012
0.000161097
0.000173595
0.000186873
0.000189797
0.000183053
0.000172857
0.000160885
0.000477809
0.000555044
0.000331833
)
;
    }
    sWall
    {
        type            compressible::alphatWallFunction;
        Prt             0.85;
        value           uniform 0.000296026;
    }
    nWall
    {
        type            compressible::alphatWallFunction;
        Prt             0.85;
        value           nonuniform List<scalar> 6(0.000132683 0.000139217 0.000163081 0.000191078 0.00019439 0.000160563);
    }
    sideWalls
    {
        type            empty;
    }
    glass1
    {
        type            compressible::alphatWallFunction;
        Prt             0.85;
        value           nonuniform List<scalar> 9(0.000192422 0.000252656 0.000300734 0.00034537 0.000389862 0.000436289 0.000476422 0.000483101 0.000470662);
    }
    glass2
    {
        type            compressible::alphatWallFunction;
        Prt             0.85;
        value           nonuniform List<scalar> 2(0.000242485 0.000225562);
    }
    sun
    {
        type            compressible::alphatWallFunction;
        Prt             0.85;
        value           nonuniform List<scalar> 
14
(
0.000197268
0.000216511
0.000222274
0.000233391
0.000244191
0.000255196
0.000265131
0.000271676
0.00027362
0.000270232
0.000260705
0.000239774
0.000212757
0.000181245
)
;
    }
    heatsource1
    {
        type            compressible::alphatWallFunction;
        Prt             0.85;
        value           nonuniform List<scalar> 3(9.80022e-05 0.000118248 0.000133);
    }
    heatsource2
    {
        type            compressible::alphatWallFunction;
        Prt             0.85;
        value           nonuniform List<scalar> 4(0.00019223 0.0001511 0.000151098 0.000191053);
    }
    Table_master
    {
        type            compressible::alphatWallFunction;
        Prt             0.85;
        value           nonuniform List<scalar> 9(0.000165467 0.000144266 0.000127014 0.00011306 0.000101711 9.23968e-05 8.46864e-05 7.83936e-05 7.35973e-05);
    }
    Table_slave
    {
        type            compressible::alphatWallFunction;
        Prt             0.85;
        value           nonuniform List<scalar> 9(0.00018748 0.000170147 0.000156818 0.000145866 0.000136342 0.000127388 0.000118429 0.000108982 9.8234e-05);
    }
    inlet
    {
        type            fixedValue;
        value           uniform 1.94e-05;
    }
    outlet
    {
        type            zeroGradient;
    }
}


// ************************************************************************* //
