// -*- C++ -*-
// File generated by PyFoam - sorry for the ugliness

FoamFile
{
 version 2.0;
 format ascii;
 class volVectorField;
 location "1400";
 object U;
}

dimensions [ 0 1 -1 0 0 0 0 ];

internalField nonuniform List<vector> 459
(
  (-0.0644283 0.0797553 0)
  (-0.17064 -0.0384527 0)
  (-0.0844054 -0.110727 0)
  (0.0348909 -0.107223 0)
  (0.127849 -0.0794567 0)
  (0.202822 -0.0554304 0)
  (0.25543 -0.0369736 0)
  (0.285382 -0.0233369 0)
  (0.297439 -0.0132668 0)
  (0.296238 -0.00524889 0)
  (0.284513 0.00210843 0)
  (0.262912 0.00999613 0)
  (0.229742 0.02062 0)
  (0.177459 0.0411878 0)
  (0.13487 0.0980583 0)
  (-0.059601 0.0235236 0)
  (-0.064856 0.00356895 0)
  (-0.0772856 -0.0148989 0)
  (-0.053313 -0.0310607 0)
  (-0.0220634 -0.0420149 0)
  (0.0316733 -0.0413869 0)
  (0.058914 -0.0242938 0)
  (0.0818064 -0.014965 0)
  (0.0961613 -0.0102878 0)
  (0.103172 -0.0066234 0)
  (0.104579 -0.00301727 0)
  (0.101526 0.000130604 0)
  (0.0958471 0.00215217 0)
  (0.0890023 0.00308502 0)
  (0.0813743 0.00385453 0)
  (0.0717106 0.00588462 0)
  (0.0583019 0.0091954 0)
  (0.0262854 0.0158039 0)
  (0.0622888 0.0119416 0)
  (0.0798479 0.187986 0)
  (-0.109619 -0.04035 0)
  (0.0306082 -0.191414 0)
  (0.10547 -0.172974 0)
  (0.170746 -0.128719 0)
  (0.224552 -0.0858422 0)
  (0.261243 -0.0509072 0)
  (0.281036 -0.0239785 0)
  (0.287538 -0.0033229 0)
  (0.283458 0.0129774 0)
  (0.270959 0.0270537 0)
  (0.251325 0.0410403 0)
  (0.226005 0.0576647 0)
  (0.198168 0.0814703 0)
  (0.180265 0.124617 0)
  (0.167482 0.112936 0)
  (0.10406 0.0996907 0)
  (-0.0662964 0.0505214 0)
  (-0.0179369 0.0312557 0)
  (-0.0168959 -0.00354651 0)
  (0.0175238 -0.048593 0)
  (0.0386131 -0.0619943 0)
  (0.0625663 -0.0604406 0)
  (0.0737333 -0.033024 0)
  (0.0777463 -0.0151716 0)
  (0.0798786 -0.00735818 0)
  (0.0820848 -0.00182817 0)
  (0.0837398 0.00354764 0)
  (0.08356 0.00742132 0)
  (0.0827797 0.00944854 0)
  (0.0819191 0.0106169 0)
  (0.0800312 0.0129243 0)
  (0.0736916 0.0202246 0)
  (0.0607578 0.0279243 0)
  (0.0242517 0.0377917 0)
  (0.0912729 0.0347435 0)
  (0.285227 0.295525 0)
  (0.0229172 -0.173549 0)
  (0.133205 -0.270316 0)
  (0.190636 -0.239277 0)
  (0.223417 -0.179527 0)
  (0.246117 -0.122178 0)
  (0.260118 -0.0746805 0)
  (0.265342 -0.037506 0)
  (0.263387 -0.00835564 0)
  (0.253765 0.0162601 0)
  (0.239653 0.037874 0)
  (0.222562 0.0581917 0)
  (0.2041 0.0793188 0)
  (0.185827 0.103297 0)
  (0.170653 0.131313 0)
  (0.14642 0.129569 0)
  (0.109226 0.161111 0)
  (-0.0862159 0.0345044 0)
  (0.0247886 -0.000886682 0)
  (0.0626037 -0.0411722 0)
  (0.0791525 -0.0678756 0)
  (0.0895166 -0.079181 0)
  (0.101203 -0.0809646 0)
  (0.0980784 -0.0609857 0)
  (0.07092 -0.0383913 0)
  (0.0490207 -0.0241535 0)
  (0.0400598 -0.014317 0)
  (0.0397171 -0.00665005 0)
  (0.0438911 -0.00157941 0)
  (0.0495643 0.000867265 0)
  (0.0569325 0.00244417 0)
  (0.0670982 0.00654996 0)
  (0.0704825 0.0271513 0)
  (0.0622573 0.0423335 0)
  (0.0241762 0.0587284 0)
  (0.113066 0.064504 0)
  (0.49457 0.319701 0)
  (0.23231 -0.161422 0)
  (0.247802 -0.279332 0)
  (0.274181 -0.251121 0)
  (0.262002 -0.187209 0)
  (0.243519 -0.124125 0)
  (0.229295 -0.0718354 0)
  (0.217761 -0.0308601 0)
  (0.203545 0.00277283 0)
  (0.189692 0.030752 0)
  (0.177588 0.0539479 0)
  (0.16726 0.0743219 0)
  (0.158678 0.0940912 0)
  (0.152024 0.114944 0)
  (0.150537 0.137943 0)
  (0.155173 0.151274 0)
  (0.166003 0.184238 0)
  (0.199463 0.139369 0)
  (0.110991 0.0632688 0)
  (0.124592 0.00682159 0)
  (0.136395 -0.0401527 0)
  (0.136534 -0.0686466 0)
  (0.12874 -0.0782584 0)
  (0.1134 -0.0741886 0)
  (0.10951 -0.0436007 0)
  (0.128305 -0.0258374 0)
  (0.141157 -0.0161381 0)
  (0.143917 -0.0101259 0)
  (0.140333 -0.00550088 0)
  (0.133296 -0.0016535 0)
  (0.123307 0.00182259 0)
  (0.109646 0.00555912 0)
  (0.0907561 0.0104011 0)
  (0.0718258 0.0329961 0)
  (0.0641572 0.0533423 0)
  (0.0292636 0.0749428 0)
  (0.128485 0.102354 0)
  (0.844446 -0.0820718 0)
  (0.311273 -0.272445 0)
  (0.285667 -0.279032 0)
  (0.282677 -0.2216 0)
  (0.223361 -0.153574 0)
  (0.167495 -0.0915561 0)
  (0.131743 -0.042943 0)
  (0.10935 -0.00536227 0)
  (0.0950308 0.0233219 0)
  (0.0922259 0.0446336 0)
  (0.0931899 0.0626552 0)
  (0.0958945 0.079555 0)
  (0.100131 0.0964774 0)
  (0.106472 0.114052 0)
  (0.117979 0.132316 0)
  (0.135117 0.143125 0)
  (0.157343 0.148875 0)
  (0.180532 0.0925894 0)
  (0.175268 0.0447564 0)
  (0.183579 -0.0018055 0)
  (0.180011 -0.0387144 0)
  (0.166878 -0.0595261 0)
  (0.148699 -0.0637878 0)
  (0.129233 -0.0537586 0)
  (0.117971 -0.0276875 0)
  (0.115807 -0.00948675 0)
  (0.112986 0.000367522 0)
  (0.105916 0.00648333 0)
  (0.097171 0.0110097 0)
  (0.0879351 0.0148293 0)
  (0.0784045 0.0185732 0)
  (0.0684652 0.0231014 0)
  (0.0580472 0.02989 0)
  (0.0504954 0.0455605 0)
  (0.0529646 0.0616623 0)
  (0.039793 0.077129 0)
  (0.0983704 0.105305 0)
  (0.0879626 0.0786714 0)
  (0.0313973 0.0507008 0)
  (0.0528872 0.023101 0)
  (0.968943 -0.366181 0)
  (0.0201031 -0.317087 0)
  (0.124942 -0.225315 0)
  (0.14195 -0.141155 0)
  (0.0614425 -0.0809793 0)
  (0.0048388 -0.0349482 0)
  (-0.0130706 -0.00891083 0)
  (-0.0148289 0.00841947 0)
  (-0.00559329 0.0233776 0)
  (0.00462539 0.039088 0)
  (0.0157254 0.0552149 0)
  (0.0274947 0.0711272 0)
  (0.0403992 0.0866216 0)
  (0.0550856 0.101398 0)
  (0.0734732 0.114342 0)
  (0.0949237 0.118991 0)
  (0.121437 0.113222 0)
  (0.146595 0.0739498 0)
  (0.159953 0.0336489 0)
  (0.165364 -0.0038322 0)
  (0.158085 -0.0304087 0)
  (0.142138 -0.0434566 0)
  (0.121892 -0.0440267 0)
  (0.101211 -0.0345908 0)
  (0.0846044 -0.0175722 0)
  (0.0732719 -0.00288657 0)
  (0.063691 0.00689597 0)
  (0.0556101 0.0131281 0)
  (0.048128 0.0176304 0)
  (0.0412438 0.0214499 0)
  (0.0349189 0.0252618 0)
  (0.029246 0.0297954 0)
  (0.0244271 0.0360908 0)
  (0.0227478 0.0470112 0)
  (0.0293325 0.0585189 0)
  (0.0260442 0.0648388 0)
  (0.0557824 0.0797004 0)
  (0.0525904 0.05539 0)
  (0.0120588 0.0458712 0)
  (0.0729497 0.0236464 0)
  (0.94138 -0.35141 0)
  (-0.390912 -0.244118 0)
  (-0.00259017 -0.189727 0)
  (-0.0162584 -0.0717847 0)
  (-0.0765396 -0.04402 0)
  (-0.0877152 -0.0280711 0)
  (-0.0872463 -0.0173057 0)
  (-0.0822746 -0.00577932 0)
  (-0.0723656 0.00836132 0)
  (-0.0613108 0.0239472 0)
  (-0.0483251 0.0397811 0)
  (-0.0337219 0.0549926 0)
  (-0.0174901 0.0690623 0)
  (0.00143371 0.0818379 0)
  (0.0235536 0.0912749 0)
  (0.0471194 0.0926738 0)
  (0.0748057 0.0841301 0)
  (0.0980371 0.0556682 0)
  (0.110428 0.0238197 0)
  (0.111021 -0.00235272 0)
  (0.102007 -0.0186257 0)
  (0.0857784 -0.0253638 0)
  (0.0661698 -0.0236079 0)
  (0.046576 -0.0151714 0)
  (0.0295747 -0.00262599 0)
  (0.0170455 0.00854581 0)
  (0.00994416 0.0155526 0)
  (0.00480613 0.0199306 0)
  (0.000651243 0.0232845 0)
  (-0.00279362 0.0263376 0)
  (-0.00550617 0.029387 0)
  (-0.00736963 0.0328264 0)
  (-0.00814905 0.0371559 0)
  (-0.00640741 0.043549 0)
  (0.00112721 0.05068 0)
  (0.00174661 0.0534014 0)
  (0.021451 0.0647872 0)
  (0.0262734 0.0592349 0)
  (-0.0217414 0.0662475 0)
  (0.109571 0.0258683 0)
  (0.914494 -0.270153 0)
  (-0.403775 -0.210466 0)
  (-0.160453 -0.22454 0)
  (-0.109391 -0.0800313 0)
  (-0.140779 -0.0483442 0)
  (-0.133842 -0.0339664 0)
  (-0.129366 -0.0237454 0)
  (-0.125199 -0.0136252 0)
  (-0.119268 -0.00178753 0)
  (-0.110561 0.0117445 0)
  (-0.0996193 0.0254736 0)
  (-0.0861145 0.0385164 0)
  (-0.0702343 0.0501775 0)
  (-0.0516954 0.0599086 0)
  (-0.03027 0.0665159 0)
  (-0.00697737 0.0669732 0)
  (0.0187502 0.0583612 0)
  (0.0355741 0.0387742 0)
  (0.0422416 0.0187537 0)
  (0.0388458 0.0037009 0)
  (0.0298115 -0.00525244 0)
  (0.0154104 -0.00791555 0)
  (-0.00198648 -0.00468256 0)
  (-0.0180568 0.00228997 0)
  (-0.0291833 0.00977691 0)
  (-0.0351917 0.0156467 0)
  (-0.0383037 0.0197055 0)
  (-0.0399872 0.0227533 0)
  (-0.0408314 0.0253447 0)
  (-0.0410018 0.0277185 0)
  (-0.0404643 0.0299811 0)
  (-0.0390872 0.0322903 0)
  (-0.0366277 0.0349132 0)
  (-0.0322395 0.0384111 0)
  (-0.0248289 0.0426309 0)
  (-0.0194634 0.0457905 0)
  (-0.00371936 0.0553587 0)
  (0.0124866 0.062732 0)
  (-0.0525422 0.075696 0)
  (0.22637 0.040474 0)
  (0.775604 -0.230384 0)
  (-0.467456 -0.250143 0)
  (-0.362283 -0.287115 0)
  (-0.132593 -0.121953 0)
  (-0.168381 -0.057191 0)
  (-0.159619 -0.0356032 0)
  (-0.158141 -0.0246193 0)
  (-0.157736 -0.0157342 0)
  (-0.155827 -0.00652873 0)
  (-0.150978 0.00371365 0)
  (-0.143389 0.0145268 0)
  (-0.13276 0.0248346 0)
  (-0.119383 0.0339191 0)
  (-0.103465 0.0411197 0)
  (-0.0854113 0.0454855 0)
  (-0.0665536 0.0455645 0)
  (-0.0488425 0.0407482 0)
  (-0.0378101 0.0311347 0)
  (-0.0346881 0.0210222 0)
  (-0.0385612 0.0130934 0)
  (-0.0468184 0.0085709 0)
  (-0.0568563 0.00774858 0)
  (-0.0662276 0.00953819 0)
  (-0.0733072 0.012515 0)
  (-0.0774542 0.0157177 0)
  (-0.0790287 0.0186189 0)
  (-0.0788945 0.0210781 0)
  (-0.0776873 0.0232302 0)
  (-0.0757067 0.0251737 0)
  (-0.0730404 0.0269283 0)
  (-0.0696694 0.0284973 0)
  (-0.0655144 0.0299514 0)
  (-0.0604044 0.0314865 0)
  (-0.0539168 0.0334782 0)
  (-0.0457823 0.0360764 0)
  (-0.0372046 0.0390741 0)
  (-0.0228897 0.0464685 0)
  (-0.00646045 0.0578349 0)
  (-0.070762 0.0652889 0)
  (0.258014 0.0513332 0)
  (-0.548838 -0.231863 0)
  (-0.0722991 -0.106108 0)
  (-0.151703 -0.0427682 0)
  (-0.175111 -0.0203907 0)
  (-0.184766 -0.00947704 0)
  (-0.189688 -0.00110823 0)
  (-0.19141 0.00681846 0)
  (-0.189882 0.014441 0)
  (-0.185252 0.0208887 0)
  (-0.177916 0.0267341 0)
  (-0.168067 0.0318522 0)
  (-0.156112 0.0358651 0)
  (-0.142776 0.0382985 0)
  (-0.129358 0.0386637 0)
  (-0.117653 0.0369121 0)
  (-0.109994 0.0333146 0)
  (-0.106921 0.0292904 0)
  (-0.10762 0.0259623 0)
  (-0.110538 0.0240288 0)
  (-0.113993 0.023787 0)
  (-0.116614 0.0248594 0)
  (-0.117694 0.0265618 0)
  (-0.117124 0.0283948 0)
  (-0.115152 0.0301519 0)
  (-0.112111 0.0317594 0)
  (-0.10823 0.0331724 0)
  (-0.103628 0.0343288 0)
  (-0.0983666 0.0351549 0)
  (-0.0924891 0.0355985 0)
  (-0.0860275 0.0356769 0)
  (-0.0789713 0.0355114 0)
  (-0.071224 0.0353243 0)
  (-0.0627183 0.0353715 0)
  (-0.053316 0.0364055 0)
  (-0.0412592 0.0413812 0)
  (-0.0324617 0.050157 0)
  (-0.0699907 0.049595 0)
  (0.162089 0.0675952 0)
  (-0.184568 -0.0619621 0)
  (-0.126704 -0.0921847 0)
  (-0.176681 -0.0943783 0)
  (-0.202455 -0.0937274 0)
  (-0.216791 -0.0925779 0)
  (-0.226019 -0.0902533 0)
  (-0.231578 -0.0864235 0)
  (-0.233571 -0.0806458 0)
  (-0.232082 -0.0722822 0)
  (-0.227707 -0.0636827 0)
  (-0.220691 -0.0563017 0)
  (-0.211477 -0.0504079 0)
  (-0.200736 -0.0462636 0)
  (-0.189408 -0.0441941 0)
  (-0.178643 -0.0444363 0)
  (-0.169606 -0.0470544 0)
  (-0.162818 -0.0514846 0)
  (-0.158143 -0.0569667 0)
  (-0.154996 -0.0626226 0)
  (-0.152581 -0.0676275 0)
  (-0.150161 -0.0715752 0)
  (-0.147259 -0.0744816 0)
  (-0.143667 -0.0765502 0)
  (-0.139347 -0.078007 0)
  (-0.134333 -0.079064 0)
  (-0.128667 -0.0798973 0)
  (-0.122401 -0.0806392 0)
  (-0.115604 -0.0813771 0)
  (-0.108368 -0.0821451 0)
  (-0.100804 -0.0829051 0)
  (-0.0930104 -0.0835303 0)
  (-0.0849922 -0.0837875 0)
  (-0.0764108 -0.0831857 0)
  (-0.0662454 -0.0804139 0)
  (-0.0538693 -0.0736308 0)
  (-0.0451511 -0.0672083 0)
  (-0.0520717 -0.0814302 0)
  (0.129734 -0.116963 0)
  (0.126813 0.301182 0)
  (-0.0472528 -0.516272 0)
  (-0.317045 0.246585 0)
  (-0.242662 0.244878 0)
  (-0.245273 0.240512 0)
  (-0.251839 0.238086 0)
  (-0.26022 0.235608 0)
  (-0.268457 0.233161 0)
  (-0.275413 0.230513 0)
  (-0.280258 0.227027 0)
  (-0.282106 0.222107 0)
  (-0.28065 0.217867 0)
  (-0.276062 0.21552 0)
  (-0.268662 0.215063 0)
  (-0.258931 0.216498 0)
  (-0.247508 0.219854 0)
  (-0.235193 0.225134 0)
  (-0.222863 0.23222 0)
  (-0.211233 0.240756 0)
  (-0.200722 0.250167 0)
  (-0.191434 0.25971 0)
  (-0.183181 0.268683 0)
  (-0.175617 0.276691 0)
  (-0.168388 0.283685 0)
  (-0.161214 0.289828 0)
  (-0.153896 0.295351 0)
  (-0.146312 0.300463 0)
  (-0.138414 0.305305 0)
  (-0.130216 0.30995 0)
  (-0.121785 0.314425 0)
  (-0.113223 0.318738 0)
  (-0.104653 0.322895 0)
  (-0.0961835 0.326918 0)
  (-0.0877524 0.3308 0)
  (-0.0788132 0.33432 0)
  (-0.0686226 0.336872 0)
  (-0.059165 0.338834 0)
  (-0.0589988 0.347039 0)
  (-0.0625469 0.383608 0)
  (0.178339 0.480982 0)
)
;

boundaryField
{
  floor
  {
    type noSlip;
  }
  ceiling
  {
    type noSlip;
  }
  sWall
  {
    type noSlip;
  }
  nWall
  {
    type noSlip;
  }
  sideWalls
  {
    type empty;
  }
  glass1
  {
    type noSlip;
  }
  glass2
  {
    type noSlip;
  }
  sun
  {
    type noSlip;
  }
  heatsource1
  {
    type noSlip;
  }
  heatsource2
  {
    type noSlip;
  }
  Table_master
  {
    type noSlip;
  }
  Table_slave
  {
    type noSlip;
  }
  inlet
  {
    type fixedValue;
    value uniform (0.277164 -0.114805 0);
  }
  outlet
  {
    type zeroGradient;
  }
} 	// ************************************************************************* //

