// -*- C++ -*-
// File generated by PyFoam - sorry for the ugliness

FoamFile
{
 version 2.0;
 format ascii;
 class volVectorField;
 location "1300";
 object U;
}

dimensions [ 0 1 -1 0 0 0 0 ];

internalField nonuniform List<vector> 459
(
  (0.37747 -0.151732 0)
  (0.278113 -0.16007 0)
  (0.425438 -0.108253 0)
  (0.540014 -0.0712685 0)
  (0.593585 -0.0497962 0)
  (0.614354 -0.0355483 0)
  (0.62175 -0.024491 0)
  (0.618961 -0.0149957 0)
  (0.605253 -0.0061355 0)
  (0.580029 0.00284708 0)
  (0.542317 0.012809 0)
  (0.490062 0.0250696 0)
  (0.418939 0.0427017 0)
  (0.315526 0.0764242 0)
  (0.232564 0.167406 0)
  (0.0362917 0.00713127 0)
  (-0.0131135 -0.00724185 0)
  (0.000390432 -0.00877218 0)
  (0.00723401 -0.00605751 0)
  (0.0110902 -0.00302864 0)
  (0.00943498 0.00142315 0)
  (0.00197837 0.00485324 0)
  (-0.00937679 0.00429707 0)
  (-0.0150145 0.00269796 0)
  (-0.0178911 0.0018175 0)
  (-0.0200608 0.000812763 0)
  (-0.0216077 -0.00124976 0)
  (-0.0200226 -0.00395916 0)
  (-0.0137479 -0.00678078 0)
  (-0.00583957 -0.0102108 0)
  (0.006946 -0.0106934 0)
  (0.0149031 -0.0142054 0)
  (0.0284001 -0.00864376 0)
  (-0.0163725 0.0109459 0)
  (0.512616 -0.346124 0)
  (0.228818 -0.27443 0)
  (0.356554 -0.153533 0)
  (0.447295 -0.0799041 0)
  (0.482078 -0.0419593 0)
  (0.49549 -0.0175217 0)
  (0.502471 0.00261908 0)
  (0.502407 0.0202147 0)
  (0.492758 0.0362444 0)
  (0.472978 0.0522557 0)
  (0.442566 0.0697444 0)
  (0.401171 0.0904298 0)
  (0.350119 0.117081 0)
  (0.293297 0.155254 0)
  (0.260951 0.222821 0)
  (0.231229 0.193626 0)
  (0.115124 0.137007 0)
  (0.0823206 -0.00559944 0)
  (0.0291147 -0.00465508 0)
  (0.012738 -0.00397556 0)
  (0.00692695 -0.00201027 0)
  (0.00509366 0.0018431 0)
  (0.00473784 0.00811054 0)
  (0.00389031 0.0107512 0)
  (-8.13821e-05 0.00728854 0)
  (6.43822e-05 0.00453375 0)
  (0.00105948 0.00339645 0)
  (0.00156493 0.00290518 0)
  (0.0014448 0.0019545 0)
  (0.00126025 -0.000616157 0)
  (0.00273861 -0.00568329 0)
  (-0.000596609 -0.0126897 0)
  (0.0103468 -0.0124369 0)
  (0.0106834 -0.0163535 0)
  (0.025774 -0.00836438 0)
  (-0.0607599 0.0290993 0)
  (0.566546 -0.537296 0)
  (0.0813675 -0.370702 0)
  (0.241706 -0.202311 0)
  (0.311696 -0.1154 0)
  (0.327383 -0.0724369 0)
  (0.335711 -0.0426459 0)
  (0.343535 -0.0168128 0)
  (0.348743 0.00821891 0)
  (0.346837 0.0339809 0)
  (0.337251 0.0614126 0)
  (0.31956 0.0912354 0)
  (0.293802 0.124057 0)
  (0.261503 0.160503 0)
  (0.223882 0.200666 0)
  (0.194056 0.243906 0)
  (0.152407 0.206649 0)
  (0.0874785 0.168243 0)
  (0.044923 -0.0124506 0)
  (-0.0282592 -0.000122788 0)
  (-0.0271767 0.00352391 0)
  (-0.0266194 0.00185083 0)
  (-0.0249257 0.000741005 0)
  (-0.0198774 0.00164515 0)
  (0.00837977 0.0103705 0)
  (0.0108387 0.00377547 0)
  (0.0148549 0.000139314 0)
  (0.0181608 -0.00210771 0)
  (0.0201226 -0.00369401 0)
  (0.0208903 -0.00526115 0)
  (0.0198795 -0.00705117 0)
  (0.0158647 -0.00951074 0)
  (-0.00309558 -0.011931 0)
  (0.0152081 -0.00760674 0)
  (-0.00846881 0.00353376 0)
  (-0.044234 0.0128088 0)
  (-0.118749 0.0201915 0)
  (0.591768 -0.659319 0)
  (-0.066307 -0.420366 0)
  (0.156926 -0.227614 0)
  (0.193886 -0.132661 0)
  (0.185935 -0.0848632 0)
  (0.190559 -0.0493869 0)
  (0.198379 -0.0188259 0)
  (0.206273 0.0106855 0)
  (0.209303 0.0412594 0)
  (0.206891 0.0742905 0)
  (0.198454 0.110251 0)
  (0.183644 0.148981 0)
  (0.162911 0.189703 0)
  (0.135232 0.230662 0)
  (0.110622 0.269323 0)
  (0.0783776 0.254842 0)
  (0.0505841 0.225746 0)
  (-0.0356525 0.0973043 0)
  (-0.0627664 0.00826675 0)
  (-0.0654869 0.00518785 0)
  (-0.0678649 0.00358637 0)
  (-0.0722449 0.00044222 0)
  (-0.0763418 -0.00322247 0)
  (-0.0797663 -0.00640684 0)
  (-0.0794526 -0.00670016 0)
  (-0.0735135 -0.00807103 0)
  (-0.0649158 -0.0105773 0)
  (-0.0528811 -0.0135679 0)
  (-0.0374957 -0.0170954 0)
  (-0.0197228 -0.0209192 0)
  (0.00552118 -0.0236083 0)
  (0.0280695 -0.0222637 0)
  (0.0490484 -0.0190361 0)
  (0.0604403 -0.0112263 0)
  (0.060162 0.00675572 0)
  (0.0511097 0.0179857 0)
  (-0.0147752 0.0210553 0)
  (0.58433 -0.72465 0)
  (-0.169285 -0.451492 0)
  (0.102619 -0.246397 0)
  (0.0939101 -0.132199 0)
  (0.0603442 -0.0880686 0)
  (0.0692023 -0.0550503 0)
  (0.0780438 -0.0258962 0)
  (0.086938 0.00506049 0)
  (0.0913008 0.0395438 0)
  (0.0916499 0.0776632 0)
  (0.0877904 0.119154 0)
  (0.0792129 0.163198 0)
  (0.0660061 0.208543 0)
  (0.0465317 0.253363 0)
  (0.0310222 0.295145 0)
  (0.00750372 0.293115 0)
  (-0.00252356 0.2552 0)
  (-0.0524343 0.0936773 0)
  (-0.0537938 0.0201622 0)
  (-0.0654432 0.0117918 0)
  (-0.0713645 0.00908646 0)
  (-0.0747125 0.00580895 0)
  (-0.0767114 0.00183613 0)
  (-0.0772907 -0.00206977 0)
  (-0.075679 -0.00531846 0)
  (-0.0715661 -0.00939459 0)
  (-0.0652064 -0.0140355 0)
  (-0.0564533 -0.019263 0)
  (-0.045321 -0.0249672 0)
  (-0.0322058 -0.0306162 0)
  (-0.0172311 -0.0343588 0)
  (-0.000120324 -0.034218 0)
  (0.0173071 -0.0290694 0)
  (0.0336037 -0.0178045 0)
  (0.0525854 0.00354083 0)
  (0.0686877 0.0222547 0)
  (0.0650246 0.0360766 0)
  (0.0829577 0.0385214 0)
  (0.0953266 0.0478672 0)
  (-0.337788 -0.0247456 0)
  (0.531689 -0.736875 0)
  (-0.213595 -0.462547 0)
  (0.0409287 -0.240938 0)
  (0.00144369 -0.0988649 0)
  (-0.0448015 -0.0864507 0)
  (-0.0304421 -0.062002 0)
  (-0.0244707 -0.0349189 0)
  (-0.0188859 -0.00223575 0)
  (-0.0149623 0.0363856 0)
  (-0.0142106 0.0784619 0)
  (-0.0152093 0.124044 0)
  (-0.0188237 0.17223 0)
  (-0.0251512 0.221676 0)
  (-0.0352845 0.269845 0)
  (-0.0403232 0.310188 0)
  (-0.0504828 0.308992 0)
  (-0.0454575 0.259209 0)
  (-0.062729 0.103947 0)
  (-0.0548689 0.0349373 0)
  (-0.0629692 0.0188542 0)
  (-0.0669646 0.0122432 0)
  (-0.0688565 0.00694848 0)
  (-0.0696538 0.00160515 0)
  (-0.0694987 -0.00361689 0)
  (-0.068317 -0.00867311 0)
  (-0.0660425 -0.0141885 0)
  (-0.0626664 -0.0203713 0)
  (-0.0581222 -0.0272069 0)
  (-0.0524474 -0.0344011 0)
  (-0.0458661 -0.0411844 0)
  (-0.0385297 -0.0461886 0)
  (-0.0302399 -0.0479385 0)
  (-0.0207005 -0.0454348 0)
  (-0.00878665 -0.0375397 0)
  (0.0110301 -0.0214791 0)
  (0.0407376 -0.00255307 0)
  (0.0681541 0.0136315 0)
  (0.0912198 0.0278315 0)
  (0.118763 0.0609533 0)
  (-0.0338897 0.0717069 0)
  (0.414787 -0.675038 0)
  (-0.215747 -0.42454 0)
  (-0.0808757 -0.210171 0)
  (-0.0845626 -0.0685426 0)
  (-0.144771 -0.0835419 0)
  (-0.13201 -0.0661649 0)
  (-0.127422 -0.0387882 0)
  (-0.122795 -0.00406777 0)
  (-0.117841 0.0354387 0)
  (-0.114813 0.0785629 0)
  (-0.111608 0.125165 0)
  (-0.108632 0.174592 0)
  (-0.105915 0.225319 0)
  (-0.103511 0.27359 0)
  (-0.0960899 0.309743 0)
  (-0.0897782 0.305813 0)
  (-0.0717959 0.246679 0)
  (-0.0670459 0.103922 0)
  (-0.056262 0.0408495 0)
  (-0.0581272 0.0220945 0)
  (-0.0580115 0.0135509 0)
  (-0.0572357 0.00725842 0)
  (-0.0562693 0.0013641 0)
  (-0.0552527 -0.004332 0)
  (-0.0545975 -0.00990942 0)
  (-0.0543119 -0.0158421 0)
  (-0.0544225 -0.0224544 0)
  (-0.0549422 -0.0297461 0)
  (-0.055966 -0.0373291 0)
  (-0.0576491 -0.0443814 0)
  (-0.0599912 -0.049768 0)
  (-0.0625675 -0.0524578 0)
  (-0.0644918 -0.0519316 0)
  (-0.0642191 -0.0484077 0)
  (-0.0587716 -0.0432336 0)
  (-0.0455392 -0.0403412 0)
  (-0.0278178 -0.0431347 0)
  (0.0161272 -0.0404842 0)
  (0.0967378 0.0119536 0)
  (-0.0613085 0.120973 0)
  (0.238107 -0.528507 0)
  (-0.328372 -0.336088 0)
  (-0.312303 -0.198633 0)
  (-0.192494 -0.0479819 0)
  (-0.266606 -0.0943638 0)
  (-0.237688 -0.0775053 0)
  (-0.227546 -0.0467169 0)
  (-0.220111 -0.00939647 0)
  (-0.212222 0.0313829 0)
  (-0.20527 0.0744131 0)
  (-0.196291 0.120067 0)
  (-0.184822 0.168179 0)
  (-0.170579 0.217211 0)
  (-0.153393 0.262738 0)
  (-0.13134 0.293984 0)
  (-0.108723 0.286731 0)
  (-0.080328 0.222468 0)
  (-0.0619497 0.0936147 0)
  (-0.0494365 0.0383358 0)
  (-0.0462194 0.0201239 0)
  (-0.0420388 0.0113879 0)
  (-0.0377911 0.00519901 0)
  (-0.0339315 -0.000159826 0)
  (-0.0316255 -0.00486841 0)
  (-0.0310978 -0.00925933 0)
  (-0.0323545 -0.0139285 0)
  (-0.0355058 -0.0192277 0)
  (-0.0407208 -0.0250862 0)
  (-0.0483298 -0.0310116 0)
  (-0.0587832 -0.0361569 0)
  (-0.0724923 -0.0395584 0)
  (-0.0894157 -0.0403721 0)
  (-0.108858 -0.0377404 0)
  (-0.129775 -0.0306924 0)
  (-0.151438 -0.0186305 0)
  (-0.172597 -0.00250827 0)
  (-0.189742 0.016755 0)
  (-0.202257 0.0443379 0)
  (-0.246028 0.0902812 0)
  (-0.469266 0.16053 0)
  (-0.0215632 -0.384689 0)
  (-0.661462 -0.336787 0)
  (-0.86496 -0.328505 0)
  (-0.247507 -0.169936 0)
  (-0.369387 -0.135751 0)
  (-0.316364 -0.0968306 0)
  (-0.303545 -0.0573877 0)
  (-0.297057 -0.0184308 0)
  (-0.28934 0.0218724 0)
  (-0.278878 0.0635062 0)
  (-0.263567 0.10625 0)
  (-0.242449 0.150456 0)
  (-0.215153 0.194986 0)
  (-0.182012 0.235705 0)
  (-0.143976 0.262389 0)
  (-0.106054 0.253988 0)
  (-0.0687824 0.191019 0)
  (-0.0403084 0.0779442 0)
  (-0.0264855 0.0311942 0)
  (-0.0210227 0.0151603 0)
  (-0.0142508 0.00747049 0)
  (-0.00647699 0.00239326 0)
  (-0.000763439 -0.0010393 0)
  (0.00216016 -0.00351405 0)
  (0.00277591 -0.00563919 0)
  (0.00110158 -0.00800167 0)
  (-0.00314997 -0.01089 0)
  (-0.0101925 -0.0140352 0)
  (-0.0204875 -0.0167747 0)
  (-0.034684 -0.0182397 0)
  (-0.0536538 -0.0179256 0)
  (-0.0776387 -0.0161459 0)
  (-0.105303 -0.0136681 0)
  (-0.133596 -0.0114088 0)
  (-0.162054 -0.0117598 0)
  (-0.188652 -0.0181588 0)
  (-0.207959 -0.0352046 0)
  (-0.214711 -0.06842 0)
  (-0.238096 -0.117572 0)
  (-0.484984 -0.178679 0)
  (-1.83933 -0.356083 0)
  (-0.128707 -0.288621 0)
  (-0.361252 -0.16789 0)
  (-0.343217 -0.100962 0)
  (-0.34572 -0.049607 0)
  (-0.346842 -0.00765828 0)
  (-0.341963 0.027296 0)
  (-0.329896 0.058677 0)
  (-0.309359 0.0911247 0)
  (-0.279116 0.125138 0)
  (-0.23892 0.160013 0)
  (-0.189895 0.192679 0)
  (-0.135317 0.214843 0)
  (-0.0821195 0.209185 0)
  (-0.0335551 0.157135 0)
  (0.012532 0.0554353 0)
  (0.0238876 0.0225083 0)
  (0.0282891 0.0102134 0)
  (0.0353069 0.00245884 0)
  (0.0401289 -0.00175889 0)
  (0.0427728 -0.00328879 0)
  (0.0437843 -0.00362033 0)
  (0.0434613 -0.00371294 0)
  (0.0418314 -0.00399609 0)
  (0.0387398 -0.00456463 0)
  (0.034023 -0.00517419 0)
  (0.027681 -0.00521287 0)
  (0.0200938 -0.00388445 0)
  (0.0118789 -0.00072082 0)
  (0.00428845 0.00364055 0)
  (-0.00161642 0.00876208 0)
  (-0.00766299 0.0142794 0)
  (-0.0126677 0.0204758 0)
  (-0.015816 0.0267777 0)
  (-0.0158882 0.0314355 0)
  (0.0177483 0.0199677 0)
  (0.0980843 -0.0554092 0)
  (-0.142941 -0.175552 0)
  (-0.220457 0.0839906 0)
  (-0.080832 -0.257902 0)
  (-0.275917 -0.163577 0)
  (-0.33064 -0.124525 0)
  (-0.364237 -0.0971723 0)
  (-0.37986 -0.0710125 0)
  (-0.380287 -0.0413688 0)
  (-0.367107 -0.0082632 0)
  (-0.341474 0.0223459 0)
  (-0.302339 0.0523485 0)
  (-0.249469 0.0826656 0)
  (-0.184563 0.11253 0)
  (-0.112602 0.136468 0)
  (-0.0416184 0.13774 0)
  (0.0383049 0.0780944 0)
  (0.0870538 0.00608769 0)
  (0.102394 -0.0336016 0)
  (0.104795 -0.0577686 0)
  (0.102812 -0.0680938 0)
  (0.0990732 -0.0705581 0)
  (0.0949572 -0.0693884 0)
  (0.0911068 -0.0669124 0)
  (0.0876621 -0.0642238 0)
  (0.0844281 -0.0616893 0)
  (0.0810752 -0.0592813 0)
  (0.0773254 -0.0567534 0)
  (0.0731361 -0.0537676 0)
  (0.0688952 -0.0500305 0)
  (0.0657153 -0.0448226 0)
  (0.0641358 -0.0381474 0)
  (0.0645094 -0.03078 0)
  (0.0670059 -0.0239645 0)
  (0.0715231 -0.0194733 0)
  (0.0775832 -0.0204401 0)
  (0.086432 -0.0304493 0)
  (0.0920838 -0.0463884 0)
  (0.121207 -0.0760229 0)
  (-0.157698 -0.116796 0)
  (0.69967 0.20186 0)
  (0.115221 -0.290089 0)
  (-0.222733 0.163413 0)
  (-0.111906 0.0539889 0)
  (-0.251322 0.0951122 0)
  (-0.316004 0.118025 0)
  (-0.35879 0.12976 0)
  (-0.38229 0.134825 0)
  (-0.388365 0.135039 0)
  (-0.377053 0.133322 0)
  (-0.348461 0.13596 0)
  (-0.302247 0.142235 0)
  (-0.238311 0.152061 0)
  (-0.159962 0.165469 0)
  (-0.0768291 0.180753 0)
  (0.0395042 0.183915 0)
  (0.114972 0.166436 0)
  (0.161405 0.163035 0)
  (0.17875 0.169965 0)
  (0.180159 0.179781 0)
  (0.17505 0.183696 0)
  (0.168907 0.182868 0)
  (0.162942 0.179624 0)
  (0.157176 0.175604 0)
  (0.151649 0.171722 0)
  (0.146479 0.16835 0)
  (0.141787 0.165441 0)
  (0.137725 0.16263 0)
  (0.134497 0.159357 0)
  (0.132411 0.155045 0)
  (0.131648 0.148381 0)
  (0.132586 0.139283 0)
  (0.135631 0.129101 0)
  (0.14073 0.119256 0)
  (0.147065 0.110758 0)
  (0.152818 0.104442 0)
  (0.15366 0.0988823 0)
  (0.14291 0.0890235 0)
  (0.147387 0.0692567 0)
  (-0.163579 0.037898 0)
)
;

boundaryField
{
  floor
  {
    type noSlip;
  }
  ceiling
  {
    type noSlip;
  }
  sWall
  {
    type noSlip;
  }
  nWall
  {
    type noSlip;
  }
  sideWalls
  {
    type empty;
  }
  glass1
  {
    type noSlip;
  }
  glass2
  {
    type noSlip;
  }
  sun
  {
    type noSlip;
  }
  heatsource1
  {
    type noSlip;
  }
  heatsource2
  {
    type noSlip;
  }
  Table_master
  {
    type noSlip;
  }
  Table_slave
  {
    type noSlip;
  }
  inlet
  {
    type fixedValue;
    value uniform (0.1 0 0);
  }
  outlet
  {
    type zeroGradient;
  }
} 	// ************************************************************************* //

