/*--------------------------------*- C++ -*----------------------------------*\
  =========                 |
  \\      /  F ield         | OpenFOAM: The Open Source CFD Toolbox
   \\    /   O peration     | Website:  https://openfoam.org
    \\  /    A nd           | Version:  6
     \\/     M anipulation  |
\*---------------------------------------------------------------------------*/
FoamFile
{
    version     2.0;
    format      ascii;
    class       volScalarField;
    location    "240";
    object      T;
}
// * * * * * * * * * * * * * * * * * * * * * * * * * * * * * * * * * * * * * //

dimensions      [0 0 0 1 0 0 0];

internalField   nonuniform List<scalar> 
459
(
305.733
305.562
305.557
305.558
305.559
305.559
305.558
305.554
305.546
305.537
305.529
305.523
305.518
305.503
305.464
305.437
305.504
305.548
305.57
305.583
305.591
305.593
305.593
305.591
305.589
305.586
305.584
305.582
305.58
305.577
305.574
305.57
305.557
305.47
305.858
305.61
305.602
305.608
305.613
305.614
305.611
305.6
305.583
305.563
305.546
305.537
305.533
305.529
305.518
305.525
305.531
305.537
305.575
305.594
305.612
305.627
305.638
305.642
305.644
305.646
305.648
305.65
305.651
305.652
305.652
305.649
305.642
305.627
305.603
305.595
305.984
305.653
305.636
305.648
305.66
305.666
305.665
305.646
305.613
305.577
305.55
305.536
305.534
305.536
305.536
305.537
305.537
305.564
305.586
305.607
305.629
305.648
305.664
305.666
305.668
305.67
305.673
305.676
305.679
305.681
305.683
305.682
305.678
305.664
305.639
305.629
306.11
305.698
305.668
305.687
305.711
305.73
305.731
305.7
305.644
305.588
305.549
305.531
305.53
305.536
305.542
305.545
305.546
305.55
305.568
305.592
305.62
305.649
305.675
305.697
305.718
305.735
305.75
305.764
305.776
305.787
305.796
305.805
305.811
305.777
305.736
305.692
305.664
306.234
305.753
305.7
305.721
305.759
305.796
305.798
305.748
305.666
305.591
305.543
305.523
305.525
305.536
305.549
305.559
305.566
305.58
305.601
305.627
305.657
305.687
305.716
305.742
305.766
305.786
305.803
305.817
305.83
305.839
305.846
305.848
305.847
305.829
305.794
305.749
305.705
305.708
305.712
305.738
306.347
305.822
305.747
305.756
305.799
305.855
305.842
305.767
305.668
305.58
305.527
305.509
305.518
305.539
305.562
305.581
305.598
305.618
305.644
305.673
305.705
305.737
305.766
305.792
305.814
305.833
305.848
305.86
305.869
305.876
305.879
305.879
305.874
305.861
305.837
305.805
305.764
305.747
305.739
305.751
306.452
305.929
305.848
305.845
305.879
305.91
305.86
305.751
305.631
305.539
305.492
305.488
305.514
305.552
305.589
305.619
305.645
305.671
305.7
305.731
305.763
305.793
305.819
305.842
305.86
305.874
305.884
305.892
305.896
305.898
305.898
305.896
305.89
305.88
305.862
305.839
305.807
305.782
305.764
305.765
306.601
306.2
306.103
306.058
306.052
305.977
305.832
305.665
305.529
305.452
305.437
305.469
305.525
305.585
305.637
305.677
305.709
305.738
305.766
305.795
305.823
305.848
305.868
305.883
305.894
305.901
305.905
305.907
305.906
305.905
305.901
305.897
305.891
305.883
305.87
305.853
305.829
305.807
305.79
305.838
306.812
306.62
306.447
306.301
306.145
305.865
305.589
305.396
305.312
305.321
305.388
305.483
305.575
305.654
305.714
305.753
305.782
305.808
305.832
305.854
305.873
305.889
305.9
305.907
305.911
305.912
305.911
305.908
305.904
305.899
305.894
305.887
305.88
305.872
305.865
305.86
305.859
305.864
305.877
305.912
301.955
303.077
303.532
303.945
304.332
304.697
305.011
305.259
305.449
305.6
305.692
305.752
305.792
305.821
305.843
305.862
305.879
305.892
305.902
305.909
305.912
305.914
305.913
305.911
305.908
305.904
305.9
305.895
305.889
305.884
305.88
305.876
305.873
305.872
305.874
305.882
305.898
305.941
302.108
302.986
303.531
304.094
304.599
305.026
305.314
305.504
305.635
305.724
305.781
305.819
305.845
305.864
305.879
305.891
305.9
305.907
305.911
305.913
305.913
305.912
305.91
305.908
305.905
305.902
305.899
305.896
305.893
305.89
305.887
305.884
305.882
305.88
305.882
305.887
305.903
305.929
303.283
303.175
303.17
304.241
304.834
305.132
305.358
305.526
305.642
305.719
305.773
305.812
305.839
305.858
305.871
305.881
305.888
305.893
305.896
305.897
305.897
305.896
305.895
305.893
305.891
305.889
305.887
305.886
305.885
305.884
305.884
305.884
305.884
305.884
305.884
305.884
305.886
305.891
305.898
305.932
)
;

boundaryField
{
    floor
    {
        type            wallHeatTransfer;
        Tinf            uniform 301.25;
        alphaWall       uniform 0.24;
        value           nonuniform List<scalar> 
29
(
304.931
304.758
304.918
304.951
304.965
304.968
304.959
304.933
304.899
304.863
304.828
304.794
304.761
304.729
304.697
304.664
304.629
304.59
304.531
304.509
304.509
304.746
304.83
304.923
304.931
304.758
305.002
305.064
305.138
)
;
    }
    ceiling
    {
        type            wallHeatTransfer;
        Tinf            uniform 301.25;
        alphaWall       uniform 0.24;
        value           nonuniform List<scalar> 
43
(
303.111
303.022
303.026
304.024
304.58
304.869
305.088
305.249
305.356
305.424
305.468
305.496
305.515
305.528
305.538
305.546
305.552
305.557
305.56
305.561
305.561
305.56
305.558
305.556
305.554
305.551
305.547
305.543
305.537
305.529
305.521
305.511
305.5
305.49
305.481
305.473
305.468
305.466
305.485
305.505
306.524
306.38
302.051
)
;
    }
    sWall
    {
        type            wallHeatTransfer;
        Tinf            uniform 314.15;
        alphaWall       uniform 0.36;
        value           uniform 304.612;
    }
    nWall
    {
        type            wallHeatTransfer;
        Tinf            uniform 308.15;
        alphaWall       uniform 0.36;
        value           nonuniform List<scalar> 6(306.289 306.237 306.199 306.222 306.183 306.223);
    }
    sideWalls
    {
        type            empty;
    }
    glass1
    {
        type            wallHeatTransfer;
        Tinf            uniform 314.15;
        alphaWall       uniform 4.3;
        value           nonuniform List<scalar> 9(311.61 311.198 310.933 310.729 310.556 310.395 310.273 310.313 310.459);
    }
    glass2
    {
        type            wallHeatTransfer;
        Tinf            uniform 308.15;
        alphaWall       uniform 4.3;
        value           nonuniform List<scalar> 2(307.436 307.424);
    }
    sun
    {
        type            wallHeatTransfer;
        Tinf            uniform 301.25;
        alphaWall       uniform 0.24;
        value           nonuniform List<scalar> 
14
(
305.228
305.11
305.115
305.132
305.148
305.161
305.173
305.179
305.177
305.169
305.156
305.136
305.108
305.038
)
;
    }
    heatsource1
    {
        type            fixedGradient;
        gradient        uniform 0;
    }
    heatsource2
    {
        type            fixedGradient;
        gradient        uniform 0;
    }
    Table_master
    {
        type            zeroGradient;
    }
    Table_slave
    {
        type            zeroGradient;
    }
    inlet
    {
        type            fixedValue;
        value           uniform 299.15;
    }
    outlet
    {
        type            zeroGradient;
    }
}


// ************************************************************************* //
