/*--------------------------------*- C++ -*----------------------------------*\
  =========                 |
  \\      /  F ield         | OpenFOAM: The Open Source CFD Toolbox
   \\    /   O peration     | Website:  https://openfoam.org
    \\  /    A nd           | Version:  6
     \\/     M anipulation  |
\*---------------------------------------------------------------------------*/
FoamFile
{
    version     2.0;
    format      ascii;
    class       volVectorField;
    location    "240";
    object      U;
}
// * * * * * * * * * * * * * * * * * * * * * * * * * * * * * * * * * * * * * //

dimensions      [0 1 -1 0 0 0 0];

internalField   nonuniform List<vector> 
459
(
(0.0228601 0.0751658 0)
(-0.147272 0.023451 0)
(-0.171524 0.0148907 0)
(-0.197883 0.00848807 0)
(-0.214446 0.00147623 0)
(-0.219703 -0.00599182 0)
(-0.211749 -0.0138658 0)
(-0.191356 -0.021789 0)
(-0.160259 -0.0282808 0)
(-0.122399 -0.0320634 0)
(-0.0825964 -0.0325789 0)
(-0.0456597 -0.0297093 0)
(-0.0159657 -0.0232521 0)
(0.00363902 -0.00760531 0)
(0.0606999 0.0106601 0)
(-0.117348 0.00300747 0)
(0.0365714 -0.00333891 0)
(0.0183311 -0.00845041 0)
(0.0280447 -0.0114288 0)
(0.0427843 -0.010844 0)
(0.0557191 -0.00850807 0)
(0.0642678 -0.00495881 0)
(0.0685998 -0.0028721 0)
(0.0701581 -0.00211603 0)
(0.0705849 -0.00184788 0)
(0.0706536 -0.00165703 0)
(0.070422 -0.00141524 0)
(0.0697041 -0.00102164 0)
(0.0681035 -0.000235907 0)
(0.0647464 0.00149947 0)
(0.0579087 0.00513437 0)
(0.0482443 0.0106082 0)
(-0.0161668 0.0218482 0)
(0.124723 -0.00799703 0)
(0.168373 0.154001 0)
(-0.135923 0.0626678 0)
(-0.138766 0.0468772 0)
(-0.166055 0.0336028 0)
(-0.182789 0.018265 0)
(-0.188602 0.000829909 0)
(-0.181355 -0.0183672 0)
(-0.162456 -0.036772 0)
(-0.134212 -0.0508796 0)
(-0.100857 -0.0581775 0)
(-0.066773 -0.0582122 0)
(-0.035766 -0.051591 0)
(-0.0105175 -0.039245 0)
(0.00850034 -0.021269 0)
(0.0275974 0.0011016 0)
(0.0291148 0.0132246 0)
(0.0211448 0.0228264 0)
(-0.143024 0.000467024 0)
(0.0346591 -0.0224844 0)
(0.031234 -0.0233844 0)
(0.0416033 -0.0231968 0)
(0.053531 -0.0201649 0)
(0.0631195 -0.0150646 0)
(0.0680474 -0.00627253 0)
(0.0691778 -0.000968014 0)
(0.0690941 0.00108382 0)
(0.0691994 0.0018816 0)
(0.0694869 0.00239698 0)
(0.0696877 0.00289052 0)
(0.069711 0.00361366 0)
(0.0695046 0.00507155 0)
(0.0684641 0.00843963 0)
(0.0638365 0.0170624 0)
(0.056719 0.0266151 0)
(-0.00213394 0.0385401 0)
(0.172129 0.0216576 0)
(0.302564 0.230372 0)
(-0.147161 0.0986836 0)
(-0.105382 0.0753345 0)
(-0.131915 0.0524068 0)
(-0.147372 0.0271388 0)
(-0.152707 -0.00141624 0)
(-0.144412 -0.0322177 0)
(-0.125242 -0.0607841 0)
(-0.0986654 -0.0812306 0)
(-0.0693739 -0.0901959 0)
(-0.0409899 -0.0880877 0)
(-0.0160884 -0.0765399 0)
(0.00421817 -0.0574485 0)
(0.0187513 -0.0340613 0)
(0.0295929 -0.00882929 0)
(0.0341428 0.014042 0)
(0.0299541 0.0445174 0)
(-0.0732963 -0.0186138 0)
(0.0394008 -0.0366729 0)
(0.0517065 -0.038626 0)
(0.0572627 -0.0346487 0)
(0.063679 -0.0292068 0)
(0.0694689 -0.0245519 0)
(0.071617 -0.0182828 0)
(0.0664461 -0.0118237 0)
(0.0622755 -0.00844852 0)
(0.0608169 -0.00661682 0)
(0.0606434 -0.00544306 0)
(0.0609133 -0.00453813 0)
(0.0616831 -0.00359844 0)
(0.0637123 -0.0021085 0)
(0.0687812 0.0024174 0)
(0.0697888 0.022451 0)
(0.0658164 0.0383073 0)
(0.00827618 0.0548809 0)
(0.200214 0.0532174 0)
(0.425214 0.291921 0)
(-0.173681 0.130128 0)
(-0.0699932 0.100027 0)
(-0.0949127 0.069166 0)
(-0.106791 0.0360357 0)
(-0.108919 -0.00311263 0)
(-0.0965739 -0.0462765 0)
(-0.0760551 -0.0843492 0)
(-0.0518363 -0.109319 0)
(-0.0282319 -0.118159 0)
(-0.00708199 -0.113125 0)
(0.01092 -0.0965407 0)
(0.0247048 -0.0734992 0)
(0.0359419 -0.0466251 0)
(0.0462533 -0.0184658 0)
(0.0575785 0.00850356 0)
(0.072735 0.0328881 0)
(0.100121 -0.037103 0)
(0.097757 -0.0340486 0)
(0.0896676 -0.0391974 0)
(0.078907 -0.0397082 0)
(0.0717059 -0.0355494 0)
(0.0678531 -0.0298782 0)
(0.0647493 -0.0231786 0)
(0.0655084 -0.0139622 0)
(0.0728958 -0.00963028 0)
(0.0790475 -0.00733842 0)
(0.0830001 -0.00600968 0)
(0.0858557 -0.00498723 0)
(0.0878984 -0.00387547 0)
(0.0883656 -0.00225977 0)
(0.0855231 0.00045564 0)
(0.0770709 0.00487929 0)
(0.0690624 0.0263826 0)
(0.0712712 0.0458275 0)
(0.0235892 0.0668686 0)
(0.215793 0.102156 0)
(0.533145 0.33945 0)
(-0.208104 0.155085 0)
(-0.0345919 0.11468 0)
(-0.0552825 0.0791417 0)
(-0.0611397 0.0411276 0)
(-0.0543673 -0.00730306 0)
(-0.0347447 -0.0626857 0)
(-0.0140313 -0.106615 0)
(0.00517081 -0.132017 0)
(0.0201922 -0.137491 0)
(0.0316413 -0.128514 0)
(0.0401548 -0.109256 0)
(0.0465946 -0.0838222 0)
(0.0521652 -0.0558275 0)
(0.0585688 -0.0283517 0)
(0.0680329 -0.00493709 0)
(0.0818279 0.00849082 0)
(0.0928525 -0.00472232 0)
(0.0915504 -0.0160806 0)
(0.081967 -0.0250044 0)
(0.0721504 -0.0285611 0)
(0.0641396 -0.027674 0)
(0.0580711 -0.0242786 0)
(0.0537633 -0.0188369 0)
(0.0528483 -0.0107139 0)
(0.0552921 -0.00628092 0)
(0.0581843 -0.00461354 0)
(0.0608164 -0.00393102 0)
(0.0634559 -0.00318423 0)
(0.0660646 -0.00165512 0)
(0.0683822 0.00144301 0)
(0.06956 0.006704 0)
(0.0690747 0.0149059 0)
(0.0689335 0.0294391 0)
(0.0777325 0.045473 0)
(0.0623286 0.0601719 0)
(0.149279 0.0988739 0)
(0.138022 0.0806507 0)
(0.113537 0.0609313 0)
(-0.107471 0.0643366 0)
(0.613748 0.378636 0)
(-0.243415 0.171012 0)
(-0.00682832 0.112184 0)
(-0.0136907 0.0801901 0)
(-0.0105014 0.0403918 0)
(0.0161089 -0.0234733 0)
(0.040247 -0.0838341 0)
(0.0569572 -0.124531 0)
(0.0668783 -0.144397 0)
(0.0710494 -0.145987 0)
(0.0711523 -0.133716 0)
(0.0686478 -0.112115 0)
(0.0650982 -0.0856581 0)
(0.0620655 -0.0581272 0)
(0.0610573 -0.0327311 0)
(0.0634042 -0.0127951 0)
(0.0691128 -0.00241998 0)
(0.0722112 -0.00607507 0)
(0.0688745 -0.0137091 0)
(0.0612416 -0.0190364 0)
(0.0528465 -0.0212669 0)
(0.0451246 -0.0209375 0)
(0.0386799 -0.0188182 0)
(0.0340119 -0.0152505 0)
(0.0319619 -0.0107563 0)
(0.032488 -0.00824912 0)
(0.0342781 -0.00749738 0)
(0.0366749 -0.00733399 0)
(0.0395437 -0.00690824 0)
(0.0428255 -0.00553507 0)
(0.0464652 -0.00232742 0)
(0.0508942 0.00369331 0)
(0.054965 0.0126211 0)
(0.0596937 0.0245141 0)
(0.0690599 0.0366287 0)
(0.0684598 0.0418587 0)
(0.0954429 0.0605164 0)
(0.0933889 0.0516649 0)
(0.102986 0.0530136 0)
(-0.121451 0.0936524 0)
(0.66483 0.413628 0)
(-0.262096 0.157363 0)
(0.0191482 0.0688996 0)
(0.0408347 0.0549053 0)
(0.061673 0.0165268 0)
(0.100914 -0.0513341 0)
(0.123386 -0.104168 0)
(0.132109 -0.13536 0)
(0.129991 -0.146864 0)
(0.120124 -0.142348 0)
(0.105757 -0.126235 0)
(0.0896099 -0.102951 0)
(0.0739942 -0.0767821 0)
(0.0607933 -0.0511354 0)
(0.0512732 -0.0287867 0)
(0.0460889 -0.0122858 0)
(0.044517 -0.00370077 0)
(0.0430674 -0.00399489 0)
(0.0390385 -0.00812374 0)
(0.0327674 -0.0117634 0)
(0.025661 -0.0137657 0)
(0.0187434 -0.0141784 0)
(0.0127292 -0.0134031 0)
(0.00828508 -0.0118389 0)
(0.00605788 -0.0100916 0)
(0.00597954 -0.00943394 0)
(0.00723337 -0.00974487 0)
(0.0092452 -0.0102827 0)
(0.0117934 -0.0104252 0)
(0.0148746 -0.00966205 0)
(0.0187039 -0.00732298 0)
(0.023962 -0.00233196 0)
(0.0316441 0.00616134 0)
(0.0396654 0.0164971 0)
(0.0493501 0.0265714 0)
(0.0541642 0.0323609 0)
(0.066076 0.046201 0)
(0.0707841 0.0556359 0)
(0.110777 0.0756944 0)
(-0.106461 0.146988 0)
(0.762068 0.413362 0)
(-0.0602175 0.129651 0)
(0.0946419 -0.0129506 0)
(0.153845 -0.047315 0)
(0.194061 -0.071464 0)
(0.215682 -0.0995485 0)
(0.22003 -0.122274 0)
(0.208877 -0.1335 0)
(0.185884 -0.132571 0)
(0.155951 -0.121265 0)
(0.12376 -0.102512 0)
(0.0926006 -0.0795341 0)
(0.0649881 -0.0559362 0)
(0.0427778 -0.0343855 0)
(0.026765 -0.0169595 0)
(0.0169691 -0.00526719 0)
(0.011716 0.000205813 0)
(0.00863844 -5.26726e-05 0)
(0.00504212 -0.00278919 0)
(-6.40458e-05 -0.00543991 0)
(-0.0059365 -0.00718698 0)
(-0.0117163 -0.00807847 0)
(-0.0167661 -0.00848281 0)
(-0.020502 -0.0087458 0)
(-0.0225771 -0.00918261 0)
(-0.0231922 -0.0101389 0)
(-0.0228793 -0.0114504 0)
(-0.0220355 -0.0126915 0)
(-0.0208907 -0.0134837 0)
(-0.0195351 -0.0135926 0)
(-0.0178022 -0.0128225 0)
(-0.0150685 -0.0107868 0)
(-0.00961508 -0.00655382 0)
(0.0017158 0.00068941 0)
(0.0115552 0.0080319 0)
(0.0176875 0.0121896 0)
(0.0264096 0.020233 0)
(0.0339832 0.0277106 0)
(0.107953 0.0821603 0)
(-0.36057 0.211334 0)
(0.896253 0.404015 0)
(0.426838 0.279509 0)
(0.431323 0.173854 0)
(0.44986 0.0990407 0)
(0.422933 0.0400785 0)
(0.370636 -0.0152768 0)
(0.316585 -0.0563617 0)
(0.262026 -0.0781359 0)
(0.206349 -0.0827754 0)
(0.152633 -0.0752384 0)
(0.104265 -0.0605141 0)
(0.0625014 -0.0424098 0)
(0.0288621 -0.0249376 0)
(0.0040664 -0.0101592 0)
(-0.0123016 0.000267983 0)
(-0.0209426 0.00525208 0)
(-0.0249608 0.00646304 0)
(-0.0275608 0.00530778 0)
(-0.0304536 0.00334236 0)
(-0.0339573 0.00151736 0)
(-0.0380402 8.1122e-05 0)
(-0.042237 -0.00110127 0)
(-0.0460287 -0.002261 0)
(-0.0491055 -0.00352494 0)
(-0.0514031 -0.00493318 0)
(-0.0531604 -0.00653199 0)
(-0.0546608 -0.00820666 0)
(-0.056103 -0.00969999 0)
(-0.0577532 -0.0107673 0)
(-0.0600757 -0.0112428 0)
(-0.0637393 -0.0108081 0)
(-0.0695232 -0.0085818 0)
(-0.0782607 -0.00266953 0)
(-0.0893644 0.00813258 0)
(-0.102954 0.0236528 0)
(-0.12564 0.0452922 0)
(-0.156652 0.0748757 0)
(-0.197049 0.109155 0)
(-0.263918 0.140142 0)
(-0.520126 0.15548 0)
(-0.210199 0.0455632 0)
(0.0974877 0.00898108 0)
(0.164778 -0.0428293 0)
(0.154297 -0.0594387 0)
(0.139106 -0.0596145 0)
(0.116011 -0.0534303 0)
(0.0839124 -0.0438714 0)
(0.0487055 -0.0320762 0)
(0.0156646 -0.0187542 0)
(-0.0146003 -0.00449695 0)
(-0.0350028 0.0043767 0)
(-0.0478293 0.0099407 0)
(-0.0543293 0.0127867 0)
(-0.0571444 0.0136767 0)
(-0.0584286 0.0134473 0)
(-0.059475 0.0125778 0)
(-0.0609175 0.0115498 0)
(-0.0628064 0.01067 0)
(-0.0649588 0.00994983 0)
(-0.0671965 0.0092182 0)
(-0.0695936 0.00826428 0)
(-0.0722403 0.0070869 0)
(-0.0752373 0.00615881 0)
(-0.0787498 0.00568735 0)
(-0.0828443 0.00590637 0)
(-0.0874297 0.00730257 0)
(-0.0923631 0.0104123 0)
(-0.0975266 0.0153928 0)
(-0.102957 0.021714 0)
(-0.108926 0.0275739 0)
(-0.114846 0.03311 0)
(-0.120085 0.0402689 0)
(-0.12448 0.0514255 0)
(-0.127537 0.0685369 0)
(-0.12682 0.0912671 0)
(-0.119734 0.107255 0)
(-0.109579 0.0747314 0)
(-0.149514 -0.167177 0)
(-0.138821 0.101378 0)
(0.092176 -0.000210156 0)
(0.0777179 -0.0663839 0)
(0.046485 -0.0761384 0)
(0.0204965 -0.0713667 0)
(-0.00398698 -0.066778 0)
(-0.0275827 -0.0646316 0)
(-0.0488055 -0.0626955 0)
(-0.0651247 -0.0612827 0)
(-0.0750832 -0.0621183 0)
(-0.0798482 -0.0646237 0)
(-0.0821908 -0.0677257 0)
(-0.0826324 -0.0708569 0)
(-0.0820334 -0.0737985 0)
(-0.0810855 -0.0765424 0)
(-0.0802517 -0.0792683 0)
(-0.0797821 -0.0820179 0)
(-0.0797222 -0.0847436 0)
(-0.0800324 -0.0874367 0)
(-0.0806971 -0.0901115 0)
(-0.0817915 -0.0926881 0)
(-0.0834826 -0.0951916 0)
(-0.085905 -0.0978682 0)
(-0.0891363 -0.101036 0)
(-0.0933322 -0.105339 0)
(-0.0985692 -0.110603 0)
(-0.104588 -0.11585 0)
(-0.110725 -0.120054 0)
(-0.116102 -0.121756 0)
(-0.120002 -0.118156 0)
(-0.121754 -0.107864 0)
(-0.119788 -0.0903523 0)
(-0.11147 -0.0656711 0)
(-0.0937224 -0.0355402 0)
(-0.0651469 -0.00524367 0)
(-0.0292707 0.00884313 0)
(0.0737906 -0.0989661 0)
(-0.101638 -0.167112 0)
(0.290604 -0.149144 0)
(-0.246519 -0.0572771 0)
(-0.158942 0.192779 0)
(-0.0748011 0.215333 0)
(-0.0902323 0.232514 0)
(-0.0995592 0.228206 0)
(-0.112583 0.227468 0)
(-0.122939 0.229006 0)
(-0.129669 0.233689 0)
(-0.131878 0.2399 0)
(-0.130132 0.247651 0)
(-0.125898 0.257536 0)
(-0.120411 0.266854 0)
(-0.114844 0.274829 0)
(-0.109725 0.281155 0)
(-0.105364 0.285985 0)
(-0.101855 0.289751 0)
(-0.0992185 0.292906 0)
(-0.0974454 0.29569 0)
(-0.0964936 0.2982 0)
(-0.0963211 0.300501 0)
(-0.0969114 0.302639 0)
(-0.0982298 0.304575 0)
(-0.10019 0.306418 0)
(-0.102678 0.308525 0)
(-0.105529 0.311545 0)
(-0.108566 0.316733 0)
(-0.111552 0.324085 0)
(-0.114145 0.332506 0)
(-0.115966 0.341064 0)
(-0.116567 0.348558 0)
(-0.115138 0.352642 0)
(-0.110378 0.352586 0)
(-0.100486 0.34877 0)
(-0.0836458 0.34261 0)
(-0.0597374 0.337523 0)
(-0.0314205 0.339157 0)
(0.0093247 0.350164 0)
(0.115718 0.425106 0)
(-0.271007 0.449059 0)
)
;

boundaryField
{
    floor
    {
        type            noSlip;
    }
    ceiling
    {
        type            noSlip;
    }
    sWall
    {
        type            noSlip;
    }
    nWall
    {
        type            noSlip;
    }
    sideWalls
    {
        type            empty;
    }
    glass1
    {
        type            noSlip;
    }
    glass2
    {
        type            noSlip;
    }
    sun
    {
        type            noSlip;
    }
    heatsource1
    {
        type            noSlip;
    }
    heatsource2
    {
        type            noSlip;
    }
    Table_master
    {
        type            noSlip;
    }
    Table_slave
    {
        type            noSlip;
    }
    inlet
    {
        type            fixedValue;
        value           uniform (0.2 0 0);
    }
    outlet
    {
        type            zeroGradient;
    }
}


// ************************************************************************* //
