/*--------------------------------*- C++ -*----------------------------------*\
  =========                 |
  \\      /  F ield         | OpenFOAM: The Open Source CFD Toolbox
   \\    /   O peration     | Website:  https://openfoam.org
    \\  /    A nd           | Version:  6
     \\/     M anipulation  |
\*---------------------------------------------------------------------------*/
FoamFile
{
    version     2.0;
    format      ascii;
    class       surfaceScalarField;
    location    "100";
    object      phi;
}
// * * * * * * * * * * * * * * * * * * * * * * * * * * * * * * * * * * * * * //

dimensions      [1 0 -1 0 0 0 0];

internalField   nonuniform List<scalar> 
852
(
-0.00274868
0.00281834
-0.00319756
0.000448964
-0.00374509
0.000547605
-0.00427542
0.000530403
-0.00474003
0.000464693
-0.00511704
0.000377085
-0.00538797
0.000271006
-0.00553227
0.000144371
-0.00552626
-5.93308e-06
-0.00534075
-0.000185434
-0.00495096
-0.000389719
-0.00434193
-0.000608951
-0.00347535
-0.000866505
-0.00216921
-0.00130607
-0.00216587
0.000794993
-0.00079106
0.00120599
-0.000410929
0.00138998
-0.000183911
0.00152809
-0.000138026
0.00166319
-0.000135013
0.00176706
-0.000103769
0.00178475
-1.75922e-05
0.0017496
3.52544e-05
0.00170111
4.85904e-05
0.00165235
4.88767e-05
0.00160571
4.6749e-05
0.00156176
4.40699e-05
0.00151874
4.31283e-05
0.00146934
4.95096e-05
0.00139362
7.58215e-05
0.00125942
0.000134291
0.00106448
0.000195023
0.000845871
0.000218684
0.000852549
-0.00200221
0.00500463
-0.00273176
0.0011786
-0.00341941
0.00123533
-0.00399013
0.0011012
-0.00447336
0.000948002
-0.00486658
0.000770388
-0.00515737
0.000561872
-0.00532831
0.000315392
-0.00535936
2.51985e-05
-0.00523548
-0.000309242
-0.00494419
-0.000680921
-0.00447525
-0.00107781
-0.00382786
-0.00151381
-0.00312959
-0.00200425
-0.00297521
-0.00232017
-0.00103264
-0.00194255
-0.00103263
0.000579741
-0.00136053
0.000759563
-0.000590689
0.000899694
-0.000323975
0.00106599
-0.000304249
0.00124215
-0.000311099
0.00139911
-0.000260651
0.00143108
-4.94672e-05
0.00143394
3.24831e-05
0.00143646
4.61772e-05
0.00143927
4.61638e-05
0.00144179
4.43444e-05
0.00144404
4.19182e-05
0.00144556
4.1722e-05
0.00144358
5.15866e-05
0.00141115
0.000108348
0.00125714
0.000288389
0.000993815
0.000458425
0.00068048
0.000532086
0.00154971
-0.00147806
0.0067585
-0.00229265
0.00199327
-0.0029724
0.00191516
-0.00350649
0.00163537
-0.00396418
0.00140577
-0.00434641
0.0011527
-0.0046415
0.000857042
-0.00483261
0.000506588
-0.00490131
9.39905e-05
-0.00483175
-0.000378722
-0.00461891
-0.000893667
-0.00427543
-0.00142121
-0.0038494
-0.00193976
-0.00344809
-0.00240548
-0.003075
-0.00269318
-0.00218279
-0.00283468
-0.00321535
-0.000280333
-0.00106489
-8.52109e-06
-0.000862444
0.000320464
-0.0006529
0.000583571
-0.000567291
0.000812576
-0.000540035
0.00110685
-0.000554851
0.00105762
0.00109034
0.00113677
0.00118319
0.00122779
0.00126996
0.00131194
0.00136377
0.00147237
0.00121393
0.000546904
0.000897018
0.000775417
0.000541637
0.000887533
0.00211608
-0.00110447
0.00821278
-0.00191736
0.00280624
-0.00244276
0.00244064
-0.00287302
0.00206571
-0.00326062
0.00179346
-0.00359848
0.00149064
-0.00387387
0.00113252
-0.00406968
0.000702496
-0.00416378
0.000188182
-0.00413428
-0.000408136
-0.003985
-0.00104285
-0.00375671
-0.0016494
-0.00351848
-0.0021779
-0.0033341
-0.00258977
-0.00317257
-0.00285462
-0.00302567
-0.0029815
-0.00358818
-0.00265277
-0.00170966
-0.00186194
-0.00101025
-0.00176425
-0.000493915
-0.00137872
-9.05066e-05
-0.00105625
0.000207899
-0.000865637
0.000408516
-0.000740591
0.000467832
-0.000614103
0.000862753
-0.000395009
0.00118656
-0.000323892
0.0014788
-0.000292324
0.00173799
-0.000259277
0.0019443
-0.000206393
0.00206262
-0.000118394
0.00204828
1.42593e-05
0.00186182
0.000186384
0.00145135
0.000410403
0.00121429
0.000784045
0.000798488
0.0011913
0.000184377
0.00150171
0.00233257
-0.000813665
0.00943719
-0.00158327
0.00357593
-0.00184375
0.0027012
-0.00213137
0.00235342
-0.00241318
0.00207536
-0.00266607
0.00174362
-0.00287852
0.00134507
-0.00303732
0.000861386
-0.00312141
0.000272377
-0.00309554
-0.000433913
-0.0029684
-0.00116989
-0.00280014
-0.00181755
-0.00265253
-0.0023254
-0.00255524
-0.00268695
-0.00249998
-0.00290978
-0.00249904
-0.00298234
-0.00235394
-0.00279779
-0.00167721
-0.0025386
-0.00106023
-0.00238117
-0.000598844
-0.00184005
-0.000273449
-0.0013816
-1.9773e-05
-0.00111926
0.00017967
-0.000939978
0.000358441
-0.000792817
0.000622606
-0.000659116
0.000882038
-0.000583265
0.00112782
-0.000538042
0.0013585
-0.000489897
0.00156189
-0.000409721
0.00171177
-0.00026821
0.00176808
-4.1977e-05
0.0017021
0.000252429
0.00152846
0.000584126
0.00132483
0.000987754
0.0010653
0.00145092
0.000523832
0.00204325
0.00029143
0.00256503
-0.00118268
0.00147395
-0.0016666
0.000483754
-0.00160393
-0.000713502
0.0106128
-0.00138389
0.00424641
-0.00120765
0.00252504
-0.00129857
0.00244442
-0.00146841
0.00224529
-0.00161359
0.00188889
-0.0017222
0.00145377
-0.00179402
0.00093331
-0.00181998
0.000298437
-0.00175641
-0.000497387
-0.00163445
-0.00129174
-0.00152193
-0.00192996
-0.00146253
-0.00238469
-0.00146825
-0.00268111
-0.00153381
-0.00284411
-0.00162451
-0.00289153
-0.0015802
-0.002842
-0.00129878
-0.00281993
-0.000865551
-0.00281433
-0.000541591
-0.00216396
-0.000339224
-0.00158391
-0.000178753
-0.00127968
-3.55672e-05
-0.00108311
0.000109744
-0.000938077
0.000281729
-0.000831048
0.000465342
-0.000766824
0.000654223
-0.000726868
0.000848365
-0.000683982
0.00104514
-0.000606441
0.00123248
-0.000455487
0.00138073
-0.000190165
0.00145028
0.000182945
0.00145675
0.000577726
0.00145597
0.000988605
0.00151102
0.00139596
0.00165089
0.00190345
0.00213813
0.00207786
0.00243523
0.0011769
0.00203465
0.000884383
0.000504984
-0.000995335
0.0121147
-0.00112027
0.00437143
-0.00033209
0.00173694
-0.000215122
0.00232754
-0.00034282
0.00237307
-0.000425618
0.00197178
-0.000421573
0.00144982
-0.000362056
0.000873888
-0.000240321
0.000176797
-9.79551e-05
-0.000639658
2.22186e-06
-0.00139182
2.15636e-05
-0.00194919
-4.71221e-05
-0.00231589
-0.000194788
-0.00253333
-0.000401548
-0.00263722
-0.000627556
-0.00266539
-0.000794663
-0.00267477
-0.000810531
-0.00280396
-0.000582544
-0.00304225
-0.000412133
-0.00233431
-0.000356731
-0.00163926
-0.000315636
-0.00132073
-0.00027328
-0.00112542
-0.000221597
-0.000989713
-0.000152402
-0.000900195
-6.80011e-05
-0.000851176
3.16468e-05
-0.000826465
0.000150438
-0.000802722
0.000296225
-0.000752174
0.000480936
-0.000640142
0.000711072
-0.000420243
0.000934368
-4.02886e-05
0.00112541
0.000386753
0.0013354
0.000778681
0.00163592
0.00109551
0.00212624
0.0014132
0.00289029
0.00131389
0.00353265
0.000534596
0.00358782
0.00082927
0.00416974
0.00225178
0.0104256
0.00268212
0.00394118
0.00241143
0.00200771
0.00207762
0.00266144
0.00170586
0.00274491
0.00149603
0.0021817
0.00148156
0.00146437
0.00159978
0.000755752
0.00182138
-4.47186e-05
0.00198204
-0.000800222
0.00196472
-0.0013744
0.00179634
-0.00178071
0.00152293
-0.00204236
0.00117711
-0.00218738
0.000786963
-0.00224695
0.000380506
-0.0022588
-6.2393e-06
-0.00228789
-0.000297726
-0.00251235
-0.000269421
-0.00307047
-0.000241544
-0.00236212
-0.00035223
-0.00152853
-0.000454002
-0.00121891
-0.000532314
-0.00104707
-0.000594896
-0.000927086
-0.000644917
-0.00085013
-0.000686092
-0.000809955
-0.000719066
-0.000793444
-0.000739373
-0.000782365
-0.000736337
-0.000755159
-0.000688038
-0.000688388
-0.00055289
-0.000555336
-0.000267414
-0.000325707
7.4273e-05
4.5125e-05
0.000407339
0.000445678
0.00075847
0.000744446
0.00118178
0.000989957
0.00156464
0.000931094
0.00157836
0.000520937
0.000679925
0.00172776
0.0052001
0.0110487
0.0149885
0.0121457
0.0048506
0.00988417
0.00492309
0.00808351
0.00454565
0.00686129
0.00340401
0.00609818
0.00222757
0.00564223
0.00121179
0.00522531
0.000372293
0.00473698
-0.000311796
0.00420444
-0.000841765
0.00364284
-0.001219
0.00306001
-0.00145942
0.002464
-0.00159125
0.00186316
-0.00164597
0.00126344
-0.00165895
0.000677701
-0.00170201
0.00017407
-0.00200858
5.3271e-05
-0.00294958
-2.95517e-05
-0.00227923
-0.000355426
-0.00120261
-0.000610328
-0.000963969
-0.000801728
-0.000855625
-0.000973516
-0.000755257
-0.0011426
-0.000681002
-0.0013196
-0.000632911
-0.00151328
-0.000599724
-0.00173043
-0.000565167
-0.00197816
-0.000507386
-0.00226487
-0.000401622
-0.00259831
-0.000221843
-0.0029895
6.55291e-05
-0.00341603
0.000471716
-0.00397636
0.00100605
-0.0048671
0.00163524
-0.00614245
0.00226536
-0.00789208
0.00268077
-0.00991196
0.00254086
-0.00911246
0.000928303
-0.00352144
0.00536825
0.00542096
0.00499611
0.00529528
0.00573986
0.00380198
0.0060899
0.00305406
0.00615751
0.00216005
0.00610531
0.00126408
0.0059402
0.000537505
0.00562097
7.53421e-06
0.00514827
-0.00036897
0.00457149
-0.000642111
0.00393549
-0.000823308
0.0032736
-0.000929241
0.00260422
-0.000976462
0.00192438
-0.000978988
0.00120958
-0.000987073
0.000553235
-0.0013521
0.00031359
-0.00270985
0.0001174
-0.00208297
-0.000499666
-0.000585498
-0.000844313
-0.000619283
-0.00108509
-0.00061481
-0.00131051
-0.000529798
-0.00153437
-0.000457101
-0.00176926
-0.000397981
-0.00202823
-0.000340709
-0.00231504
-0.000278325
-0.00261926
-0.000203119
-0.00291479
-0.000106042
-0.00315519
1.85925e-05
-0.00333278
0.000243173
-0.00346842
0.000607402
-0.00359106
0.00112874
-0.00372354
0.00176776
-0.00381102
0.00235288
-0.00371219
0.00258198
-0.00319284
0.00202155
-0.00174944
-0.000515064
-0.00517252
-0.000713884
0.0061776
0.00160009
0.00298138
0.0029241
0.00247804
0.00391029
0.00206795
0.00467813
0.0013923
0.00511479
0.000827517
0.00524644
0.000405958
0.00513759
0.000116486
0.0048708
-0.000102079
0.00448627
-0.000257473
0.00402255
-0.000359477
0.00351169
-0.000418262
0.00297512
-0.000439781
0.00242128
-0.000425027
0.00183543
-0.000401087
0.00117792
-0.000694468
0.00035803
-0.00188988
-0.000359708
-0.00136516
-0.000910583
-3.45864e-05
-0.00124478
-0.000285047
-0.00150749
-0.000352064
-0.00173257
-0.000304679
-0.0019258
-0.000263834
-0.00209429
-0.00022946
-0.00224542
-0.000189544
-0.00238369
-0.000140013
-0.00250875
-7.80212e-05
-0.00261673
1.97457e-06
-0.00268799
8.98941e-05
-0.00265894
0.00021416
-0.00248338
0.000431888
-0.00212429
0.000769695
-0.00160311
0.00124662
-0.000928635
0.00167845
0.000159475
0.00149391
0.00145347
0.000727593
0.0016365
-0.000698055
-0.00342817
-0.00932881
-0.0118684
-0.00565192
-0.00264506
-0.000145292
0.00194225
0.00335416
0.00420178
0.00462865
0.00476704
0.00468792
0.00445445
0.00412005
0.00372802
0.00331567
0.00291935
0.00254825
0.0018851
2.78408e-05
-0.00130642
-0.00131138
-0.00156681
-0.00188928
-0.00216444
-0.00239879
-0.00259883
-0.00275903
-0.00286988
-0.00291905
-0.00288874
-0.00277127
-0.00253044
-0.00207291
-0.0012787
-8.71363e-06
0.0016915
0.00320664
0.00395573
0.0032803
)
;

boundaryField
{
    floor
    {
        type            calculated;
        value           nonuniform List<scalar> 
29
(
0
0
0
0
0
0
0
0
0
0
0
0
0
0
0
0
0
0
0
0
-6.61361e-06
-1.66241e-05
-2.46695e-05
-3.20573e-05
-3.26753e-06
-3.86543e-06
-1.02113e-05
-1.52554e-05
-1.65062e-05
)
;
    }
    ceiling
    {
        type            calculated;
        value           nonuniform List<scalar> 
43
(
-4.12837e-05
-4.00866e-05
-3.88315e-05
-2.54003e-05
-2.16492e-05
-1.95104e-05
-1.95073e-05
-2.00077e-05
-2.08096e-05
-2.18061e-05
-2.28551e-05
-2.38931e-05
-2.49699e-05
-2.61104e-05
-2.73211e-05
-2.85849e-05
-2.98726e-05
-3.12073e-05
-3.25553e-05
-3.0863e-05
-2.95988e-05
-2.95752e-05
-2.95616e-05
-2.94927e-05
-2.94418e-05
-2.93947e-05
-2.93072e-05
-2.91296e-05
-2.88116e-05
-2.83017e-05
-2.75387e-05
-2.66361e-05
-2.55972e-05
-2.44778e-05
-2.33274e-05
-2.17262e-05
-2.11912e-05
-2.14591e-05
-2.25908e-05
-2.34058e-05
3.80949e-06
1.38639e-06
-4.27266e-05
)
;
    }
    sWall
    {
        type            calculated;
        value           uniform -0.000243051;
    }
    nWall
    {
        type            calculated;
        value           nonuniform List<scalar> 6(-6.28401e-05 -7.42201e-05 -7.68854e-05 -9.83259e-05 -0.000107815 -0.000124437);
    }
    sideWalls
    {
        type            empty;
        value           nonuniform 0();
    }
    glass1
    {
        type            calculated;
        value           nonuniform List<scalar> 9(-6.95712e-05 -0.000183996 -0.000275725 -0.000349728 -0.000410663 -0.000462052 -0.000506434 -0.00056258 -0.000626835);
    }
    glass2
    {
        type            calculated;
        value           nonuniform List<scalar> 2(-0.00035039 -0.000390882);
    }
    sun
    {
        type            calculated;
        value           uniform 0;
    }
    heatsource1
    {
        type            calculated;
        value           nonuniform List<scalar> 3(2.06532e-07 2.06372e-07 2.06387e-07);
    }
    heatsource2
    {
        type            calculated;
        value           nonuniform List<scalar> 4(5.13938e-08 5.16287e-08 0 0);
    }
    Table_master
    {
        type            calculated;
        value           nonuniform List<scalar> 9(-1.54897e-07 -1.54984e-07 -1.55005e-07 -1.55023e-07 -1.55039e-07 -1.55053e-07 -1.55065e-07 -1.5507e-07 -1.55052e-07);
    }
    Table_slave
    {
        type            calculated;
        value           nonuniform List<scalar> 9(1.54923e-07 1.54874e-07 1.54787e-07 1.54709e-07 1.5465e-07 1.54623e-07 1.54639e-07 1.54664e-07 1.54751e-07);
    }
    inlet
    {
        type            calculated;
        value           uniform -0.00593858;
    }
    outlet
    {
        type            calculated;
        value           nonuniform List<scalar> 2(0.0096132 0.00257974);
    }
}


// ************************************************************************* //
