// -*- C++ -*-
// File generated by PyFoam - sorry for the ugliness

FoamFile
{
 version 2.0;
 format ascii;
 class volScalarField;
 location "1400";
 object T;
}

dimensions [ 0 0 0 1 0 0 0 ];

internalField nonuniform List<scalar> 459
(
  307.028
  306.871
  306.81
  306.777
  306.753
  306.736
  306.723
  306.713
  306.704
  306.695
  306.688
  306.68
  306.673
  306.667
  306.657
  303.885
  303.891
  303.887
  303.844
  303.817
  303.803
  303.802
  303.812
  303.822
  303.843
  303.845
  303.842
  303.841
  303.844
  303.854
  303.869
  303.879
  303.88
  303.883
  306.949
  306.728
  306.634
  306.585
  306.554
  306.534
  306.523
  306.519
  306.519
  306.524
  306.534
  306.549
  306.569
  306.594
  306.62
  306.614
  306.602
  303.897
  303.941
  303.988
  303.989
  303.965
  303.935
  303.892
  303.864
  303.877
  303.889
  303.912
  303.915
  303.916
  303.926
  303.961
  304.013
  304.004
  303.951
  303.906
  306.882
  306.566
  306.453
  306.401
  306.372
  306.355
  306.347
  306.348
  306.359
  306.379
  306.407
  306.442
  306.483
  306.528
  306.571
  306.588
  306.587
  304.08
  304.086
  304.104
  304.128
  304.128
  304.115
  304.034
  303.994
  303.951
  303.944
  304.004
  304.042
  304.069
  304.095
  304.124
  304.158
  304.09
  304.032
  303.991
  306.819
  306.423
  306.322
  306.289
  306.274
  306.265
  306.26
  306.259
  306.271
  306.295
  306.331
  306.375
  306.427
  306.483
  306.539
  306.568
  306.543
  305.271
  304.432
  304.35
  304.365
  304.407
  304.456
  304.504
  304.546
  304.561
  304.571
  304.58
  304.586
  304.59
  304.59
  304.582
  304.557
  304.496
  304.457
  304.418
  304.424
  306.753
  306.319
  306.259
  306.252
  306.251
  306.248
  306.241
  306.235
  306.241
  306.262
  306.298
  306.345
  306.402
  306.464
  306.524
  306.549
  306.398
  305.104
  304.552
  304.5
  304.513
  304.54
  304.569
  304.594
  304.614
  304.627
  304.638
  304.649
  304.658
  304.668
  304.677
  304.685
  304.689
  304.688
  304.694
  304.705
  304.707
  304.737
  304.728
  304.729
  306.678
  306.26
  306.242
  306.255
  306.26
  306.257
  306.249
  306.24
  306.243
  306.264
  306.299
  306.348
  306.404
  306.463
  306.508
  306.474
  306.149
  304.986
  304.613
  304.583
  304.598
  304.62
  304.64
  304.658
  304.671
  304.681
  304.69
  304.699
  304.709
  304.722
  304.736
  304.751
  304.767
  304.783
  304.799
  304.814
  304.826
  304.831
  304.79
  304.755
  306.589
  306.244
  306.243
  306.264
  306.273
  306.277
  306.275
  306.274
  306.279
  306.297
  306.327
  306.369
  306.415
  306.455
  306.458
  306.333
  305.878
  304.914
  304.67
  304.658
  304.678
  304.699
  304.717
  304.729
  304.736
  304.74
  304.742
  304.746
  304.751
  304.761
  304.775
  304.792
  304.81
  304.828
  304.844
  304.856
  304.864
  304.862
  304.842
  304.767
  306.499
  306.23
  306.237
  306.266
  306.283
  306.297
  306.307
  306.313
  306.321
  306.334
  306.356
  306.383
  306.409
  306.415
  306.362
  306.154
  305.645
  304.895
  304.741
  304.746
  304.775
  304.801
  304.817
  304.823
  304.822
  304.817
  304.81
  304.802
  304.797
  304.795
  304.801
  304.812
  304.827
  304.844
  304.86
  304.875
  304.889
  304.903
  304.915
  304.932
  306.417
  306.212
  306.207
  306.233
  306.266
  306.293
  306.313
  306.328
  306.338
  306.347
  306.358
  306.367
  306.367
  306.337
  306.238
  305.987
  305.497
  304.936
  304.84
  304.859
  304.9
  304.928
  304.94
  304.94
  304.933
  304.92
  304.904
  304.886
  304.868
  304.851
  304.84
  304.835
  304.835
  304.839
  304.845
  304.851
  304.859
  304.871
  304.891
  304.952
  306.177
  306.186
  306.224
  306.254
  306.278
  306.295
  306.307
  306.313
  306.314
  306.309
  306.288
  306.237
  306.121
  305.884
  305.478
  305.053
  304.997
  305.015
  305.047
  305.065
  305.071
  305.067
  305.057
  305.041
  305.021
  304.997
  304.97
  304.943
  304.916
  304.894
  304.878
  304.868
  304.863
  304.863
  304.866
  304.87
  304.875
  304.887
  306.149
  306.148
  306.173
  306.194
  306.211
  306.223
  306.231
  306.233
  306.229
  306.216
  306.189
  306.137
  306.041
  305.861
  305.518
  305.331
  305.265
  305.242
  305.231
  305.224
  305.214
  305.201
  305.184
  305.164
  305.14
  305.114
  305.084
  305.052
  305.018
  304.985
  304.956
  304.933
  304.918
  304.908
  304.901
  304.895
  304.889
  304.891
  308.606
  308.075
  306.276
  306.112
  306.112
  306.115
  306.118
  306.12
  306.122
  306.123
  306.119
  306.109
  306.09
  306.059
  306.007
  305.844
  305.691
  305.613
  305.566
  305.529
  305.492
  305.455
  305.419
  305.384
  305.35
  305.317
  305.283
  305.25
  305.216
  305.181
  305.145
  305.107
  305.071
  305.037
  305.008
  304.981
  304.956
  304.932
  304.906
  304.897
)
;

boundaryField
{
  floor
  {
    type wallHeatTransfer;
    Tinf uniform 305.2;
    alphaWall uniform 0.24;
    value nonuniform List<scalar> 29
(
  306.544
  304.222
  304.196
  304.219
  304.235
  304.242
  304.253
  304.263
  304.274
  304.301
  304.315
  304.313
  304.305
  304.288
  304.262
  304.236
  304.219
  304.215
  304.215
  304.238
  304.238
  304.202
  304.234
  304.531
  306.544
  304.222
  304.198
  304.265
  305.263
)
;
  }
  ceiling
  {
    type wallHeatTransfer;
    Tinf uniform 303.2;
    alphaWall uniform 0.24;
    value nonuniform List<scalar> 43
(
  308.152
  307.654
  306.025
  305.818
  305.823
  305.827
  305.832
  305.836
  305.84
  305.844
  305.843
  305.835
  305.821
  305.794
  305.747
  305.597
  305.453
  305.377
  305.332
  305.299
  305.27
  305.243
  305.215
  305.186
  305.157
  305.127
  305.096
  305.065
  305.033
  305.001
  304.968
  304.934
  304.9
  304.869
  304.84
  304.814
  304.789
  304.763
  304.74
  304.722
  306.294
  306.109
  305.999
)
;
  }
  sWall
  {
    type wallHeatTransfer;
    Tinf uniform 315.2;
    alphaWall uniform 0.36;
    value uniform 309.405;
  }
  nWall
  {
    type wallHeatTransfer;
    Tinf uniform 307.2;
    alphaWall uniform 0.36;
    value nonuniform List<scalar> 6
(
  305.165
  305.167
  305.177
  305.149
  305.157
  305.236
)
;
  }
  sideWalls
  {
    type empty;
  }
  glass1
  {
    type wallHeatTransfer;
    Tinf uniform 315.2;
    alphaWall uniform 4.3;
    value nonuniform List<scalar> 9
(
  311.314
  311.048
  310.893
  310.777
  310.673
  310.566
  310.441
  310.288
  310.077
)
;
  }
  glass2
  {
    type wallHeatTransfer;
    Tinf uniform 307.2;
    alphaWall uniform 4.3;
    value nonuniform List<scalar> 2
(
  306.378
  306.318
)
;
  }
  sun
  {
    type wallHeatTransfer;
    Tinf uniform 305.2;
    alphaWall uniform 0.24;
    value nonuniform List<scalar> 14
(
  306.923
  306.773
  306.713
  306.679
  306.655
  306.637
  306.623
  306.613
  306.603
  306.593
  306.585
  306.576
  306.567
  306.558
)
;
  }
  heatsource1
  {
    type fixedGradient;
    gradient uniform 0;
  }
  heatsource2
  {
    type fixedGradient;
    gradient uniform 0;
  }
  Table_master
  {
    type zeroGradient;
  }
  Table_slave
  {
    type zeroGradient;
  }
  inlet
  {
    type fixedValue;
    value uniform 290.15;
  }
  outlet
  {
    type zeroGradient;
  }
} 	// ************************************************************************* //

