/*--------------------------------*- C++ -*----------------------------------*\
  =========                 |
  \\      /  F ield         | OpenFOAM: The Open Source CFD Toolbox
   \\    /   O peration     | Website:  https://openfoam.org
    \\  /    A nd           | Version:  6
     \\/     M anipulation  |
\*---------------------------------------------------------------------------*/
FoamFile
{
    version     2.0;
    format      ascii;
    class       volScalarField;
    location    "200";
    object      alphat;
}
// * * * * * * * * * * * * * * * * * * * * * * * * * * * * * * * * * * * * * //

dimensions      [1 -1 -1 0 0 0 0];

internalField   nonuniform List<scalar> 
459
(
0.00115388
0.00124992
0.00126329
0.00131924
0.00137017
0.00141669
0.00146077
0.00150484
0.00154263
0.00156534
0.00156713
0.00154319
0.00149276
0.00142318
0.00134802
0.000498955
0.000611588
0.000660532
0.000639686
0.000610917
0.00057981
0.000546298
0.000514255
0.000485048
0.000458734
0.000435131
0.000413992
0.000394845
0.000377243
0.00036067
0.000344346
0.000327031
0.000319049
0.000295325
0.00160485
0.00364512
0.00339499
0.00393481
0.00443141
0.00493963
0.00541887
0.00580339
0.00611828
0.00638733
0.00656457
0.0065864
0.00635505
0.0056679
0.00400073
0.001357
0.000927632
0.000628406
0.00106563
0.00136505
0.00156745
0.0016606
0.00165004
0.00140781
0.00125256
0.00113538
0.0010419
0.000963786
0.0008943
0.000831393
0.000772697
0.000717574
0.000671309
0.00062525
0.000753822
0.000413483
0.00198627
0.00499866
0.00410274
0.00530523
0.00583048
0.00620691
0.00649064
0.00671167
0.0069264
0.0071634
0.00739331
0.00756942
0.00762802
0.00748956
0.00700748
0.00567424
0.00133062
0.00112258
0.00150162
0.00179361
0.00202757
0.00217537
0.00210906
0.000764162
0.000684346
0.000619694
0.000567062
0.000523823
0.000487957
0.000457986
0.000432933
0.000412334
0.000444241
0.000505332
0.000845896
0.000489002
0.00235796
0.00656354
0.00404351
0.00563739
0.00617292
0.00632456
0.00636729
0.00642181
0.00654697
0.00675834
0.00702452
0.00730509
0.00753633
0.00765164
0.00759942
0.00715167
0.00557258
0.00148166
0.00186787
0.00232524
0.00267708
0.00291676
0.00305945
0.00287741
0.000851862
0.000790542
0.000750595
0.000722604
0.000698861
0.000673096
0.000647616
0.000619646
0.000585216
0.000549209
0.000547206
0.000987098
0.000546594
0.00273761
0.0086063
0.00448076
0.00532901
0.00614165
0.00621373
0.0060904
0.00601482
0.0061074
0.00631808
0.00660606
0.0069403
0.00723801
0.00740096
0.00738383
0.00713149
0.00651113
0.00529922
0.00477036
0.00449652
0.00433529
0.00425421
0.00422371
0.00413965
0.00364434
0.00344994
0.00335631
0.00327916
0.00317704
0.00302341
0.00273346
0.00234722
0.00189807
0.00142676
0.00104422
0.00100436
0.000728853
0.000689888
0.000830973
0.000930233
0.00313789
0.010822
0.0064127
0.00506321
0.0057068
0.00603581
0.00607551
0.00582372
0.00592962
0.00612755
0.00641344
0.0067552
0.00706513
0.00723643
0.00718958
0.00690636
0.00643774
0.00589449
0.0055092
0.00524688
0.00505922
0.00493675
0.00484802
0.00474776
0.00458866
0.00445831
0.00434073
0.00421575
0.00407243
0.0039041
0.0036664
0.00331018
0.0028334
0.00225771
0.00170692
0.0012276
0.000972053
0.000853016
0.00123817
0.000969414
0.00351438
0.0124499
0.00949275
0.00663211
0.00590777
0.00594422
0.0060749
0.00602217
0.00602556
0.00615224
0.00642082
0.00677405
0.00709535
0.00725313
0.00715359
0.00679239
0.00627832
0.00581567
0.00554902
0.00539237
0.00523169
0.00503285
0.00481313
0.00461784
0.00446602
0.00435239
0.00424878
0.00414106
0.00402705
0.00391119
0.00379554
0.00358715
0.00322011
0.00272376
0.00221792
0.00172999
0.00140841
0.00132676
0.00138502
0.00109466
0.00359321
0.0114232
0.00992292
0.00881655
0.00788192
0.00730753
0.00679714
0.0063592
0.00617905
0.00628187
0.00659698
0.0069931
0.00731052
0.00740238
0.00718162
0.00667931
0.00605873
0.00560275
0.00542142
0.00518592
0.00483891
0.00448142
0.00420014
0.00401664
0.00390466
0.00382771
0.00376148
0.00370011
0.00364883
0.00361902
0.00362423
0.00364613
0.00346426
0.00311577
0.00279928
0.00264589
0.00279493
0.00330422
0.00413372
0.00172382
0.00350184
0.00418524
0.00471509
0.00495595
0.00508612
0.00510464
0.0051713
0.00541843
0.00585414
0.00641831
0.0070029
0.0074708
0.00768773
0.00755477
0.0070406
0.00628434
0.00560932
0.00517228
0.00480866
0.00435422
0.00390832
0.00358291
0.00338442
0.00327038
0.00319941
0.00314414
0.00309021
0.00303155
0.00296505
0.00288792
0.00279754
0.00269377
0.00260262
0.0025346
0.00251903
0.00254819
0.00254973
0.00245514
0.00229606
0.00161497
0.00208967
0.0039394
0.00503684
0.00578348
0.00649726
0.00712405
0.00765596
0.00805522
0.00828627
0.0082512
0.00788437
0.00717321
0.00617622
0.00518598
0.00453843
0.00405939
0.00355994
0.00311804
0.002823
0.00265583
0.00256622
0.00251683
0.00248649
0.00246439
0.00244569
0.00242899
0.00241502
0.00240647
0.00240801
0.00243045
0.00246075
0.00249738
0.0025351
0.00254622
0.00248299
0.00232727
0.00209547
0.00132925
0.00246732
0.00519546
0.00672356
0.00729627
0.00782713
0.00826738
0.00831429
0.00818474
0.00793806
0.00725447
0.00621036
0.0050834
0.00414136
0.00345672
0.00293874
0.0025003
0.00219549
0.00202163
0.00192366
0.00187894
0.00186558
0.0018723
0.00189407
0.0019288
0.00197566
0.00203399
0.00210227
0.00217695
0.00225755
0.00235186
0.00245729
0.00256769
0.00266743
0.00273683
0.00272403
0.00275402
0.0027206
0.00135073
0.00212823
0.00225225
0.00234292
0.00246064
0.00231522
0.00214874
0.00198435
0.00182745
0.00170749
0.00157901
0.00142524
0.00125717
0.00107257
0.000893153
0.000747907
0.000652834
0.000601901
0.000581357
0.000579459
0.000588518
0.000604629
0.000624442
0.000647296
0.000672988
0.000701498
0.000732921
0.000767477
0.000805559
0.000847877
0.000895702
0.000950173
0.00100992
0.00107567
0.00114821
0.00122769
0.0013235
0.00135533
0.00132264
0.00123941
0.00115057
)
;

boundaryField
{
    floor
    {
        type            compressible::alphatWallFunction;
        Prt             0.85;
        value           nonuniform List<scalar> 
29
(
0.000190439
6.90845e-05
8.61117e-05
9.33865e-05
9.02961e-05
8.60109e-05
8.13495e-05
7.62928e-05
7.14216e-05
6.69484e-05
6.2889e-05
5.92229e-05
5.59179e-05
5.29056e-05
5.01198e-05
4.74813e-05
4.4867e-05
4.20763e-05
4.07839e-05
3.69164e-05
3.69158e-05
5.58407e-05
6.75588e-05
7.63408e-05
0.000190437
6.90836e-05
8.862e-05
0.000159445
0.000208526
)
;
    }
    ceiling
    {
        type            compressible::alphatWallFunction;
        Prt             0.85;
        value           nonuniform List<scalar> 
43
(
0.000293672
0.000309667
0.000321304
0.000336447
0.000317903
0.000296493
0.000275168
0.000254631
0.000238799
0.000221701
0.00020103
0.000178143
0.000152596
0.000127271
0.000106328
9.23564e-05
8.47709e-05
8.16895e-05
8.14044e-05
8.27661e-05
8.5181e-05
8.81398e-05
9.15385e-05
9.53416e-05
9.95411e-05
0.000104146
0.000109182
0.000114701
0.000120797
0.000127643
0.000135388
0.000143825
0.000153041
0.000163134
0.000174109
0.000187232
0.000191568
0.000187116
0.000175721
0.000163464
0.000466804
0.000549939
0.000337067
)
;
    }
    sWall
    {
        type            compressible::alphatWallFunction;
        Prt             0.85;
        value           uniform 0.000292459;
    }
    nWall
    {
        type            compressible::alphatWallFunction;
        Prt             0.85;
        value           nonuniform List<scalar> 6(0.000132235 0.000137782 0.000155354 0.000187684 0.000190607 0.000163136);
    }
    sideWalls
    {
        type            empty;
    }
    glass1
    {
        type            compressible::alphatWallFunction;
        Prt             0.85;
        value           nonuniform List<scalar> 9(0.000159722 0.000220127 0.000269873 0.000317451 0.000365298 0.000415044 0.000461279 0.000471024 0.000460097);
    }
    glass2
    {
        type            compressible::alphatWallFunction;
        Prt             0.85;
        value           nonuniform List<scalar> 2(0.000239216 0.000224874);
    }
    sun
    {
        type            compressible::alphatWallFunction;
        Prt             0.85;
        value           nonuniform List<scalar> 
14
(
0.000163813
0.000177039
0.000178873
0.000186524
0.000193457
0.000199764
0.000205718
0.000211652
0.000216724
0.000219766
0.000220004
0.000216797
0.000210024
0.000200637
)
;
    }
    heatsource1
    {
        type            compressible::alphatWallFunction;
        Prt             0.85;
        value           nonuniform List<scalar> 3(9.78315e-05 0.000118362 0.000132554);
    }
    heatsource2
    {
        type            compressible::alphatWallFunction;
        Prt             0.85;
        value           nonuniform List<scalar> 4(0.000191783 0.000132183 0.000132181 0.000188189);
    }
    Table_master
    {
        type            compressible::alphatWallFunction;
        Prt             0.85;
        value           nonuniform List<scalar> 9(0.000108691 9.70099e-05 8.74266e-05 7.95342e-05 7.29823e-05 6.74962e-05 6.28729e-05 5.89786e-05 5.57551e-05);
    }
    Table_slave
    {
        type            compressible::alphatWallFunction;
        Prt             0.85;
        value           nonuniform List<scalar> 9(0.000121362 0.000112522 0.00010672 0.000102632 9.91501e-05 9.53551e-05 9.15842e-05 8.74238e-05 8.22706e-05);
    }
    inlet
    {
        type            fixedValue;
        value           uniform 1.94e-05;
    }
    outlet
    {
        type            zeroGradient;
    }
}


// ************************************************************************* //
