/*--------------------------------*- C++ -*----------------------------------*\
  =========                 |
  \\      /  F ield         | OpenFOAM: The Open Source CFD Toolbox
   \\    /   O peration     | Website:  https://openfoam.org
    \\  /    A nd           | Version:  6
     \\/     M anipulation  |
\*---------------------------------------------------------------------------*/
FoamFile
{
    version     2.0;
    format      ascii;
    class       volScalarField;
    location    "200";
    object      nut;
}
// * * * * * * * * * * * * * * * * * * * * * * * * * * * * * * * * * * * * * //

dimensions      [0 2 -1 0 0 0 0];

internalField   nonuniform List<scalar> 
459
(
0.000994461
0.00107629
0.00108776
0.00113593
0.00117977
0.00121981
0.00125774
0.00129568
0.00132818
0.0013477
0.00134919
0.00132852
0.00128505
0.00122512
0.0011604
0.000429568
0.000526504
0.000568625
0.00055068
0.000525915
0.000499138
0.000470291
0.000442708
0.000417566
0.000394914
0.000374596
0.000356399
0.000339917
0.000324763
0.000310496
0.000296442
0.000281535
0.000274663
0.000254248
0.001384
0.00313928
0.00292365
0.00338858
0.0038163
0.00425401
0.00466675
0.00499786
0.0052689
0.00550031
0.00565249
0.00567077
0.0054711
0.00487919
0.00344384
0.00116807
0.000798463
0.000541018
0.000917371
0.00117512
0.00134934
0.00142953
0.00142044
0.0012119
0.00107826
0.000977376
0.000896901
0.000829654
0.000769835
0.000715679
0.000665149
0.000617696
0.000577872
0.000538225
0.000648904
0.00035596
0.00171404
0.00430579
0.00353362
0.00456949
0.00502217
0.00534665
0.00559123
0.00578169
0.00596651
0.00617016
0.00636736
0.00651802
0.00656756
0.00644766
0.00603224
0.0048844
0.00114538
0.000966377
0.00129267
0.00154404
0.00174547
0.00187273
0.00181565
0.000657847
0.00058913
0.00053347
0.000488156
0.00045093
0.000420051
0.000394248
0.000372678
0.000354943
0.000382408
0.000434995
0.000728158
0.000420971
0.0020361
0.00565504
0.00348306
0.00485631
0.00531813
0.00544928
0.00548653
0.00553376
0.00564149
0.00582292
0.00605104
0.00629128
0.00648909
0.00658743
0.00654192
0.00615629
0.00479696
0.00127546
0.00160795
0.00200173
0.00230468
0.00251108
0.00263397
0.00247728
0.000733409
0.000680622
0.000646234
0.000622139
0.0006017
0.000579518
0.00055758
0.000533496
0.00050385
0.000472823
0.000471073
0.000849734
0.000470558
0.00236539
0.00741711
0.00386026
0.00459121
0.00529196
0.0053548
0.00524923
0.00518463
0.00526433
0.00544499
0.00569159
0.0059777
0.00623248
0.00637171
0.00635639
0.00613899
0.00560501
0.00456187
0.00410674
0.00387115
0.00373249
0.0036628
0.00363664
0.00356432
0.0031379
0.00297055
0.00288997
0.00282355
0.00273564
0.00260334
0.00235365
0.00202105
0.00163428
0.00122842
0.000899
0.00086463
0.000627467
0.000594024
0.00071559
0.000801092
0.00271275
0.00932989
0.00552596
0.00436283
0.00491786
0.00520212
0.00523726
0.00502109
0.00511218
0.00528156
0.00552605
0.00581844
0.00608362
0.00622995
0.00618908
0.00594519
0.00554196
0.00507455
0.00474312
0.00451753
0.00435617
0.00425088
0.00417459
0.00408834
0.0039514
0.00383921
0.00373798
0.00363038
0.00350696
0.00336197
0.00315722
0.00285039
0.00243976
0.00194397
0.00146963
0.00105688
0.000836855
0.000734423
0.00106607
0.000834757
0.00303973
0.0107393
0.00818451
0.00571715
0.0050927
0.00512455
0.00523812
0.00519317
0.00519542
0.00530291
0.00553208
0.00583411
0.00610903
0.00624384
0.00615783
0.00584707
0.00540493
0.00500705
0.00477787
0.00464329
0.00450516
0.00433409
0.00414498
0.00397688
0.00384618
0.00374836
0.00365915
0.00356639
0.00346818
0.00336835
0.00326867
0.0030891
0.00277291
0.00234539
0.00190971
0.00148949
0.00121258
0.0011423
0.00119249
0.000942577
0.00311017
0.00986759
0.00856699
0.00760885
0.00680059
0.00630438
0.00586395
0.00548511
0.0053276
0.00541345
0.00568213
0.00602098
0.00629284
0.00637143
0.00618164
0.00574985
0.0052163
0.00482428
0.00466859
0.00446606
0.00416739
0.00385963
0.00361745
0.00345946
0.00336305
0.00329679
0.00323976
0.00318689
0.0031427
0.00311698
0.0031214
0.00314014
0.00298339
0.00268317
0.00241052
0.00227834
0.00240665
0.00284529
0.00355979
0.00148511
0.00303418
0.00362292
0.00407805
0.00428312
0.004393
0.00440697
0.00446257
0.00467242
0.00504412
0.0055265
0.00602722
0.00642867
0.00661531
0.00650169
0.00606033
0.00541039
0.00483015
0.00445431
0.00414144
0.00375023
0.00336628
0.00308607
0.00291515
0.00281696
0.00275585
0.00270826
0.00266182
0.00261128
0.002554
0.00248755
0.00240969
0.00232032
0.00224184
0.00218331
0.00217002
0.00219532
0.00219689
0.00211561
0.00197868
0.00139198
0.00176267
0.00335244
0.00430716
0.00495482
0.00557023
0.00611163
0.00657214
0.00691918
0.00712195
0.00709567
0.00678332
0.00617389
0.00531758
0.00446588
0.00390871
0.00349637
0.00306632
0.00268577
0.00243169
0.00228773
0.00221057
0.00216805
0.00214194
0.00212292
0.00210684
0.00209246
0.00208044
0.0020731
0.00207445
0.00209381
0.00211995
0.00215158
0.00218418
0.00219391
0.00213959
0.00200554
0.00180588
0.0011456
0.00208564
0.00442314
0.00574427
0.00624615
0.00670882
0.00709296
0.00713946
0.00703379
0.00682698
0.00624262
0.00534622
0.00437723
0.00356666
0.00297732
0.00253132
0.00215374
0.00189123
0.0017415
0.00165713
0.00161863
0.00160714
0.00161295
0.00163172
0.00166166
0.00170205
0.00175232
0.00181116
0.00187552
0.00194498
0.00202626
0.00211713
0.0022123
0.00229831
0.00235822
0.00234731
0.00237327
0.00234443
0.00116407
0.00181141
0.0019165
0.00199362
0.00210502
0.00198516
0.00184479
0.00170526
0.00157156
0.00146914
0.0013591
0.00122709
0.00108259
0.000923743
0.00076929
0.000644222
0.000562348
0.000518486
0.000500799
0.000499171
0.000506982
0.000520868
0.000537944
0.00055764
0.000579781
0.000604349
0.000631429
0.000661207
0.000694025
0.000730492
0.000771704
0.000818643
0.000870135
0.000926791
0.000989312
0.00105781
0.0011404
0.00116787
0.00113972
0.001068
0.000991559
)
;

boundaryField
{
    floor
    {
        type            nutkWallFunction;
        Cmu             0.09;
        kappa           0.41;
        E               9.8;
        value           nonuniform List<scalar> 
29
(
0.000139435
5.06221e-05
6.30851e-05
6.84092e-05
6.6147e-05
6.30102e-05
5.9598e-05
5.58963e-05
5.23302e-05
4.90554e-05
4.60833e-05
4.3399e-05
4.09791e-05
3.87733e-05
3.67332e-05
3.48009e-05
3.28863e-05
3.08423e-05
2.98956e-05
2.70634e-05
2.70633e-05
4.09231e-05
4.95034e-05
5.59339e-05
0.000139435
5.06221e-05
6.49258e-05
0.000116759
0.000152674
)
;
    }
    ceiling
    {
        type            nutkWallFunction;
        Cmu             0.09;
        kappa           0.41;
        E               9.8;
        value           nonuniform List<scalar> 
43
(
0.000212638
0.000224159
0.000232574
0.000244752
0.000231763
0.000216417
0.000201029
0.000186151
0.000174659
0.00016221
0.000147123
0.000130395
0.000111708
9.3176e-05
7.78465e-05
6.76191e-05
6.20663e-05
5.9811e-05
5.9603e-05
6.06008e-05
6.23697e-05
6.4537e-05
6.70264e-05
6.9812e-05
7.28879e-05
7.62607e-05
7.99495e-05
8.39917e-05
8.84568e-05
9.34712e-05
9.91442e-05
0.000105324
0.000112074
0.000119468
0.000127508
0.000137123
0.000140303
0.000137044
0.000128698
0.000119733
0.000343698
0.000404562
0.000242466
)
;
    }
    sWall
    {
        type            nutkWallFunction;
        Cmu             0.09;
        kappa           0.41;
        E               9.8;
        value           uniform 0.000212697;
    }
    nWall
    {
        type            nutkWallFunction;
        Cmu             0.09;
        kappa           0.41;
        E               9.8;
        value           nonuniform List<scalar> 6(9.70289e-05 0.000101085 0.000113952 0.000137734 0.000139873 0.000119739);
    }
    sideWalls
    {
        type            empty;
    }
    glass1
    {
        type            nutkWallFunction;
        Cmu             0.09;
        kappa           0.41;
        E               9.8;
        value           nonuniform List<scalar> 9(0.000120149 0.000165241 0.000202312 0.000237734 0.00027333 0.000310314 0.000344676 0.000352037 0.000344121);
    }
    glass2
    {
        type            nutkWallFunction;
        Cmu             0.09;
        kappa           0.41;
        E               9.8;
        value           nonuniform List<scalar> 2(0.000176544 0.000166018);
    }
    sun
    {
        type            nutkWallFunction;
        Cmu             0.09;
        kappa           0.41;
        E               9.8;
        value           nonuniform List<scalar> 
14
(
0.000120076
0.000129665
0.000131003
0.000136602
0.000141676
0.000146291
0.000150647
0.000154989
0.000158698
0.00016092
0.000161089
0.000158736
0.000153773
0.0001469
)
;
    }
    heatsource1
    {
        type            nutkWallFunction;
        Cmu             0.09;
        kappa           0.41;
        E               9.8;
        value           nonuniform List<scalar> 3(7.16008e-05 8.66368e-05 9.70281e-05);
    }
    heatsource2
    {
        type            nutkWallFunction;
        Cmu             0.09;
        kappa           0.41;
        E               9.8;
        value           nonuniform List<scalar> 4(0.000140318 9.67092e-05 9.67092e-05 0.000137693);
    }
    Table_master
    {
        type            nutkWallFunction;
        Cmu             0.09;
        kappa           0.41;
        E               9.8;
        value           nonuniform List<scalar> 9(7.95348e-05 7.09864e-05 6.39734e-05 5.81977e-05 5.34031e-05 4.93883e-05 4.60049e-05 4.31551e-05 4.07961e-05);
    }
    Table_slave
    {
        type            nutkWallFunction;
        Cmu             0.09;
        kappa           0.41;
        E               9.8;
        value           nonuniform List<scalar> 9(8.88124e-05 8.23442e-05 7.80987e-05 7.51078e-05 7.25599e-05 6.97827e-05 6.7023e-05 6.39782e-05 6.02066e-05);
    }
    inlet
    {
        type            calculated;
        value           uniform 0.000100623;
    }
    outlet
    {
        type            calculated;
        value           nonuniform List<scalar> 2(0.00181141 0.0019165);
    }
}


// ************************************************************************* //
