/*--------------------------------*- C++ -*----------------------------------*\
  =========                 |
  \\      /  F ield         | OpenFOAM: The Open Source CFD Toolbox
   \\    /   O peration     | Website:  https://openfoam.org
    \\  /    A nd           | Version:  6
     \\/     M anipulation  |
\*---------------------------------------------------------------------------*/
FoamFile
{
    version     2.0;
    format      ascii;
    class       volScalarField;
    location    "400";
    object      alphat;
}
// * * * * * * * * * * * * * * * * * * * * * * * * * * * * * * * * * * * * * //

dimensions      [1 -1 -1 0 0 0 0];

internalField   nonuniform List<scalar> 
459
(
0.00118765
0.00129003
0.00130585
0.0013651
0.00141941
0.00146937
0.00151713
0.00156549
0.00160452
0.00162634
0.00162488
0.00159546
0.00153752
0.0014588
0.00137386
0.000512676
0.000628954
0.000690373
0.000672958
0.000644252
0.000611775
0.000575656
0.000540919
0.000509345
0.000481054
0.000455738
0.000433186
0.000412935
0.000394475
0.00037723
0.000360368
0.000342643
0.000334133
0.000308319
0.00164388
0.00383494
0.0036017
0.00418006
0.00472324
0.00527635
0.00579071
0.00618771
0.00652901
0.00681688
0.00700435
0.00702919
0.00679369
0.00609202
0.00433429
0.00138958
0.000912084
0.000573754
0.00109244
0.00144894
0.00169252
0.00181096
0.00180443
0.00152153
0.00134448
0.00121224
0.00110758
0.00102218
0.000948232
0.00088178
0.000820019
0.000761577
0.000711247
0.000663413
0.000802776
0.000425299
0.0020273
0.00525366
0.00439194
0.00563764
0.00620389
0.00661265
0.00692409
0.00716449
0.0074085
0.00767271
0.0079258
0.00811805
0.00817531
0.00802328
0.00749851
0.00606193
0.00134601
0.00116386
0.00156661
0.00190078
0.00218153
0.00236479
0.00229576
0.00081396
0.000726294
0.000655625
0.000598295
0.000551309
0.000512391
0.00047989
0.000452735
0.000430464
0.000464455
0.000532936
0.000902011
0.000501189
0.00239843
0.00683865
0.00435583
0.00599076
0.00655359
0.00671934
0.00678205
0.00685781
0.00701318
0.00725683
0.00755735
0.00787061
0.00810619
0.00821624
0.00813487
0.00762975
0.0059049
0.00155449
0.001954
0.00246047
0.00287652
0.00317214
0.00334652
0.00313694
0.000911354
0.000840951
0.000793405
0.000758891
0.000729504
0.000699326
0.000670008
0.000638319
0.000600105
0.000565193
0.000571703
0.00105031
0.0005583
0.00277632
0.00888916
0.00481728
0.00569293
0.00651952
0.006593
0.00648695
0.00642749
0.00655139
0.00679187
0.00711928
0.00749821
0.00779837
0.0079537
0.00791739
0.00764505
0.00699007
0.00569477
0.00517228
0.00492599
0.00479028
0.00471913
0.00467864
0.00455643
0.00395547
0.00370074
0.00356666
0.00345872
0.00332935
0.00314099
0.00281964
0.00240567
0.00193382
0.00144976
0.00106771
0.00105475
0.000748632
0.000695732
0.000836483
0.000937297
0.00317448
0.0111074
0.00679266
0.00548161
0.00611765
0.00644095
0.0063648
0.00624678
0.00636532
0.00658769
0.00691593
0.00729745
0.00762511
0.00778674
0.0077153
0.00741686
0.00696152
0.00645229
0.00610947
0.0058737
0.00568872
0.00554773
0.00542906
0.00528773
0.00506419
0.00487006
0.0046949
0.00451868
0.0043301
0.00412083
0.00383647
0.00343521
0.00291676
0.00231023
0.00174605
0.00127309
0.00100487
0.000876487
0.00126455
0.000978765
0.0035443
0.0127075
0.00984704
0.00710787
0.00646391
0.00653585
0.0065397
0.00644439
0.0064397
0.00660227
0.00692995
0.00733486
0.00767752
0.00782033
0.00768603
0.00730408
0.00682199
0.00644143
0.00625018
0.00611759
0.0059437
0.00571766
0.00545577
0.00519251
0.00495414
0.00475671
0.00458014
0.00441111
0.00424749
0.00409374
0.0039506
0.00371275
0.0033161
0.0027949
0.00227431
0.0017841
0.00145674
0.00137511
0.00143246
0.00111384
0.00361867
0.0115419
0.0100945
0.00907944
0.00827168
0.00770948
0.00709528
0.00665527
0.00653737
0.0067371
0.00714918
0.00760954
0.00794136
0.00799954
0.00772508
0.00719386
0.00662689
0.00628282
0.00616586
0.00592886
0.00555408
0.00513383
0.00475616
0.00446638
0.00425925
0.00410534
0.00397868
0.00387088
0.00378552
0.00373226
0.00372246
0.00373509
0.00354229
0.00319237
0.00287968
0.00273665
0.00290186
0.00342844
0.00425415
0.00174144
0.00352308
0.00420036
0.0047199
0.00494312
0.00506407
0.00511832
0.0052865
0.00567544
0.0062806
0.00700778
0.00770088
0.00819895
0.00837642
0.0081534
0.00755181
0.0067771
0.00620957
0.0058459
0.00549445
0.00500912
0.00448214
0.00404111
0.00372998
0.00352648
0.00338989
0.00328711
0.00319876
0.00311564
0.00303255
0.00294503
0.00284905
0.00274346
0.00265477
0.0025904
0.00257561
0.00260089
0.00259387
0.00248881
0.00232279
0.00162632
0.00202224
0.00387148
0.0051803
0.0061659
0.00708508
0.00790607
0.00858632
0.00903973
0.00918528
0.00899377
0.00847479
0.00762827
0.00655555
0.00564072
0.00506849
0.00459655
0.0040656
0.00353861
0.00313476
0.00287407
0.00271798
0.00262439
0.00256506
0.00252421
0.00249407
0.00247135
0.00245541
0.00244776
0.00245202
0.00247902
0.00251336
0.00255356
0.00259257
0.00260154
0.00253307
0.00237223
0.00213251
0.00133547
0.00245178
0.00538084
0.0073296
0.00810354
0.00876163
0.00920631
0.00929397
0.00905096
0.00839241
0.00742767
0.00631367
0.00525114
0.00438555
0.0037411
0.00322139
0.00274039
0.00236328
0.00212786
0.00199016
0.00191537
0.00188486
0.00188279
0.001901
0.00193563
0.00198477
0.00204699
0.00212012
0.0022
0.00228931
0.00239128
0.00250372
0.00261998
0.00272347
0.00279566
0.00278001
0.00280653
0.00275221
0.00135665
0.00212561
0.00224929
0.00233892
0.00246401
0.0023319
0.00218399
0.0020567
0.00192831
0.00180062
0.00165578
0.0014837
0.00129077
0.00109465
0.000916066
0.000774856
0.000678607
0.000622929
0.00059663
0.000589594
0.000594765
0.000607783
0.000626127
0.000647988
0.000673028
0.000701164
0.000732467
0.000767147
0.00080561
0.000848595
0.000897445
0.000952756
0.00101365
0.00108088
0.00115521
0.00123664
0.00133633
0.00136613
0.00133157
0.00124757
0.00115681
)
;

boundaryField
{
    floor
    {
        type            compressible::alphatWallFunction;
        Prt             0.85;
        value           nonuniform List<scalar> 
29
(
0.000193949
7.11815e-05
8.87004e-05
9.77895e-05
9.52228e-05
9.0974e-05
8.6139e-05
8.07246e-05
7.54775e-05
7.06717e-05
6.63339e-05
6.24248e-05
5.89194e-05
5.57518e-05
5.28469e-05
5.01173e-05
4.74326e-05
4.45929e-05
4.32229e-05
3.90387e-05
3.90381e-05
5.76875e-05
6.94234e-05
7.81067e-05
0.000193947
7.11806e-05
8.04382e-05
0.000165168
0.000218308
)
;
    }
    ceiling
    {
        type            compressible::alphatWallFunction;
        Prt             0.85;
        value           nonuniform List<scalar> 
43
(
0.000293331
0.000309284
0.000320789
0.000336876
0.000320045
0.000301049
0.000284588
0.000267866
0.000251112
0.000231942
0.00020892
0.000182747
0.000155679
0.000130539
0.000110251
9.61698e-05
8.79149e-05
8.39845e-05
8.29295e-05
8.37051e-05
8.56543e-05
8.83919e-05
9.16419e-05
9.53479e-05
9.94922e-05
0.000104079
0.000109134
0.000114707
0.000120899
0.00012789
0.000135753
0.000144347
0.000153766
0.000164101
0.000175337
0.000188977
0.000193033
0.00018833
0.000176839
0.000164326
0.000469408
0.00055176
0.000335075
)
;
    }
    sWall
    {
        type            compressible::alphatWallFunction;
        Prt             0.85;
        value           uniform 0.000292117;
    }
    nWall
    {
        type            compressible::alphatWallFunction;
        Prt             0.85;
        value           nonuniform List<scalar> 6(0.000133234 0.000139098 0.000158017 0.000188529 0.000191409 0.000163997);
    }
    sideWalls
    {
        type            empty;
    }
    glass1
    {
        type            compressible::alphatWallFunction;
        Prt             0.85;
        value           nonuniform List<scalar> 9(0.000164293 0.000225232 0.000275123 0.000322539 0.00037009 0.000419511 0.000464884 0.000474079 0.000462649);
    }
    glass2
    {
        type            compressible::alphatWallFunction;
        Prt             0.85;
        value           nonuniform List<scalar> 2(0.000241518 0.000226365);
    }
    sun
    {
        type            compressible::alphatWallFunction;
        Prt             0.85;
        value           nonuniform List<scalar> 
14
(
0.00016848
0.000182531
0.000184694
0.000192766
0.00020013
0.000206876
0.000213302
0.000219784
0.000225001
0.000227911
0.000227715
0.000223788
0.000216034
0.000205446
)
;
    }
    heatsource1
    {
        type            compressible::alphatWallFunction;
        Prt             0.85;
        value           nonuniform List<scalar> 3(9.86906e-05 0.000119154 0.000133556);
    }
    heatsource2
    {
        type            compressible::alphatWallFunction;
        Prt             0.85;
        value           nonuniform List<scalar> 4(0.00019621 0.000129971 0.00012997 0.000190288);
    }
    Table_master
    {
        type            compressible::alphatWallFunction;
        Prt             0.85;
        value           nonuniform List<scalar> 9(0.000115907 0.000103171 9.27693e-05 8.42303e-05 7.71567e-05 7.12407e-05 6.62571e-05 6.20604e-05 5.85946e-05);
    }
    Table_slave
    {
        type            compressible::alphatWallFunction;
        Prt             0.85;
        value           nonuniform List<scalar> 9(0.000129869 0.000119797 0.000112939 0.00010793 0.000103643 9.92193e-05 9.48992e-05 9.02039e-05 8.45035e-05);
    }
    inlet
    {
        type            fixedValue;
        value           uniform 1.94e-05;
    }
    outlet
    {
        type            zeroGradient;
    }
}


// ************************************************************************* //
