// -*- C++ -*-
// File generated by PyFoam - sorry for the ugliness

FoamFile
{
 version 2.0;
 format ascii;
 class volVectorField;
 location "400";
 object U;
}

dimensions [ 0 1 -1 0 0 0 0 ];

internalField nonuniform List<vector> 459
(
  (0.0395092 0.0839927 0)
  (-0.163105 0.0237031 0)
  (-0.184458 0.017422 0)
  (-0.214524 0.0128097 0)
  (-0.237664 0.00761451 0)
  (-0.253206 0.00212683 0)
  (-0.260029 -0.00375454 0)
  (-0.256592 -0.0101006 0)
  (-0.24258 -0.0168696 0)
  (-0.218498 -0.0232862 0)
  (-0.186177 -0.0284904 0)
  (-0.148193 -0.03209 0)
  (-0.107373 -0.0346733 0)
  (-0.0693657 -0.0382797 0)
  (-0.0516085 -0.0443376 0)
  (0.00677298 0.0057768 0)
  (-0.0169994 -0.018952 0)
  (0.00849945 -0.0252956 0)
  (0.0267799 -0.0177386 0)
  (0.0412664 -0.011431 0)
  (0.0508938 -0.00709442 0)
  (0.0559522 -0.00429342 0)
  (0.058145 -0.00285155 0)
  (0.0589959 -0.00219026 0)
  (0.0593588 -0.00185071 0)
  (0.059497 -0.0016355 0)
  (0.0594331 -0.00145608 0)
  (0.0591025 -0.00122853 0)
  (0.0583037 -0.000793771 0)
  (0.0564968 0.00021928 0)
  (0.0525505 0.00232108 0)
  (0.0452592 0.0043604 0)
  (0.039986 0.00529606 0)
  (-0.0182842 0.0193616 0)
  (0.216416 0.172303 0)
  (-0.154569 0.0626511 0)
  (-0.148718 0.0504127 0)
  (-0.179837 0.0408458 0)
  (-0.202476 0.0300574 0)
  (-0.217911 0.0181472 0)
  (-0.225146 0.00467684 0)
  (-0.222469 -0.0105195 0)
  (-0.209667 -0.0263533 0)
  (-0.187689 -0.040538 0)
  (-0.158796 -0.0508872 0)
  (-0.126069 -0.0562543 0)
  (-0.0929779 -0.056923 0)
  (-0.0641649 -0.0545725 0)
  (-0.0457836 -0.049009 0)
  (-0.0302022 -0.0276404 0)
  (-0.010125 0.000927812 0)
  (0.0780161 0.0247584 0)
  (0.0381674 -0.0183758 0)
  (0.0413291 -0.0272409 0)
  (0.0511428 -0.0218848 0)
  (0.0584931 -0.0140838 0)
  (0.0627279 -0.00739642 0)
  (0.0641106 -0.00256443 0)
  (0.0640751 2.30196e-06 0)
  (0.0638838 0.00114217 0)
  (0.0638904 0.00170728 0)
  (0.0639752 0.00207576 0)
  (0.0640183 0.00238835 0)
  (0.0639919 0.00280942 0)
  (0.0638481 0.00366962 0)
  (0.063053 0.00584101 0)
  (0.059211 0.0119527 0)
  (0.0495208 0.0166643 0)
  (0.0461636 0.0186961 0)
  (-0.054362 0.0424088 0)
  (0.377773 0.258004 0)
  (-0.174295 0.100708 0)
  (-0.11177 0.0818184 0)
  (-0.142211 0.0641461 0)
  (-0.16195 0.0462748 0)
  (-0.175984 0.0269916 0)
  (-0.182951 0.00513925 0)
  (-0.180046 -0.0193891 0)
  (-0.167112 -0.0445678 0)
  (-0.145934 -0.066309 0)
  (-0.119388 -0.0811863 0)
  (-0.0906417 -0.0877737 0)
  (-0.0627835 -0.0864171 0)
  (-0.0385856 -0.0785581 0)
  (-0.0202565 -0.0640581 0)
  (-0.00574779 -0.0402012 0)
  (0.00984235 -0.00835315 0)
  (0.104863 -0.0518177 0)
  (0.0668966 -0.0462033 0)
  (0.0629551 -0.0375509 0)
  (0.0660527 -0.0278904 0)
  (0.0680679 -0.0184958 0)
  (0.0687845 -0.0108791 0)
  (0.0672257 -0.00907625 0)
  (0.0644478 -0.0067483 0)
  (0.0627549 -0.00552231 0)
  (0.0621629 -0.00484372 0)
  (0.0620633 -0.00442805 0)
  (0.0621794 -0.00411997 0)
  (0.06257 -0.00376845 0)
  (0.0636861 -0.00306548 0)
  (0.0666892 -0.000119372 0)
  (0.0646461 0.016879 0)
  (0.0509567 0.0283311 0)
  (0.0538522 0.0348716 0)
  (-0.0852395 0.0668376 0)
  (0.521662 0.32705 0)
  (-0.211053 0.135154 0)
  (-0.0727138 0.108371 0)
  (-0.102222 0.0836251 0)
  (-0.116178 0.0609175 0)
  (-0.126585 0.0362631 0)
  (-0.131654 0.0069696 0)
  (-0.126323 -0.0271615 0)
  (-0.111891 -0.0618152 0)
  (-0.0915074 -0.0902307 0)
  (-0.0684815 -0.108264 0)
  (-0.0453495 -0.114943 0)
  (-0.0243802 -0.111265 0)
  (-0.00634066 -0.0992992 0)
  (0.0090275 -0.0795021 0)
  (0.0234334 -0.0549172 0)
  (0.0448076 -0.0299053 0)
  (0.0749961 -0.00580256 0)
  (0.085053 -0.037412 0)
  (0.0721863 -0.0390293 0)
  (0.0656818 -0.032082 0)
  (0.0640607 -0.0248233 0)
  (0.0636685 -0.0173945 0)
  (0.0646065 -0.00910866 0)
  (0.0679514 -0.00580938 0)
  (0.0729404 -0.00526905 0)
  (0.077449 -0.00494628 0)
  (0.0812055 -0.00453933 0)
  (0.0840533 -0.00377638 0)
  (0.0853176 -0.00245461 0)
  (0.0835739 -0.000359933 0)
  (0.077593 0.0027411 0)
  (0.0647839 0.00735455 0)
  (0.0530248 0.0274999 0)
  (0.0409342 0.0438552 0)
  (0.057728 0.0558117 0)
  (-0.120004 0.0889923 0)
  (0.644275 0.380921 0)
  (-0.253812 0.164135 0)
  (-0.0341073 0.12349 0)
  (-0.0603841 0.0946737 0)
  (-0.0662551 0.0694291 0)
  (-0.0706051 0.0417104 0)
  (-0.0711161 0.0066172 0)
  (-0.0588892 -0.0367308 0)
  (-0.0423192 -0.0790715 0)
  (-0.0243809 -0.111073 0)
  (-0.00756811 -0.129329 0)
  (0.00722848 -0.133947 0)
  (0.0185412 -0.127032 0)
  (0.0273521 -0.112184 0)
  (0.0345586 -0.0917257 0)
  (0.0419687 -0.0686383 0)
  (0.0520212 -0.0476187 0)
  (0.0628377 -0.0371972 0)
  (0.0658423 -0.0404158 0)
  (0.060574 -0.036503 0)
  (0.0541756 -0.0294219 0)
  (0.0501846 -0.0228101 0)
  (0.0481732 -0.0168889 0)
  (0.0482107 -0.0114591 0)
  (0.050351 -0.00765371 0)
  (0.0541446 -0.00611773 0)
  (0.0581059 -0.0055416 0)
  (0.0619664 -0.00476038 0)
  (0.0654774 -0.00295384 0)
  (0.068065 0.000481018 0)
  (0.0686379 0.00555353 0)
  (0.066326 0.0122442 0)
  (0.060625 0.0211039 0)
  (0.0533819 0.0368199 0)
  (0.0427163 0.0552241 0)
  (0.0654946 0.0751011 0)
  (-0.0241517 0.102072 0)
  (0.0446244 0.0286675 0)
  (-0.0640859 -0.0355477 0)
  (-0.273662 -0.0582392 0)
  (0.731356 0.426324 0)
  (-0.293898 0.184421 0)
  (-0.00518813 0.11948 0)
  (-0.0170976 0.0955793 0)
  (-0.0126659 0.0719634 0)
  (-0.00897584 0.0432506 0)
  (0.00244956 0.000531947 0)
  (0.0235438 -0.0517867 0)
  (0.0398604 -0.0958256 0)
  (0.0518191 -0.125613 0)
  (0.0591252 -0.14028 0)
  (0.062124 -0.141445 0)
  (0.0617819 -0.13197 0)
  (0.0593216 -0.115212 0)
  (0.0559813 -0.0941873 0)
  (0.0531847 -0.0720161 0)
  (0.0520081 -0.0521925 0)
  (0.0514367 -0.0390551 0)
  (0.0480159 -0.0336039 0)
  (0.0412374 -0.0290976 0)
  (0.0341868 -0.0238326 0)
  (0.0292727 -0.01909 0)
  (0.0267179 -0.0152033 0)
  (0.0264773 -0.0120056 0)
  (0.0282565 -0.0100215 0)
  (0.0314345 -0.00966251 0)
  (0.0352016 -0.00978869 0)
  (0.0392911 -0.00929631 0)
  (0.0435382 -0.0072792 0)
  (0.047622 -0.00287158 0)
  (0.0512612 0.00426045 0)
  (0.052894 0.0134673 0)
  (0.0529066 0.0246853 0)
  (0.0529444 0.0395505 0)
  (0.0511254 0.0576119 0)
  (0.0740299 0.0804322 0)
  (0.0520487 0.0970536 0)
  (0.0930749 0.0672602 0)
  (0.11665 0.0442222 0)
  (-0.131609 -0.00871227 0)
  (0.779254 0.467763 0)
  (-0.312919 0.1712 0)
  (0.0199383 0.0700211 0)
  (0.0403028 0.0737531 0)
  (0.0538503 0.063171 0)
  (0.0669524 0.0317689 0)
  (0.0953195 -0.0186539 0)
  (0.117414 -0.0692035 0)
  (0.129205 -0.107623 0)
  (0.131549 -0.130915 0)
  (0.12616 -0.139711 0)
  (0.115053 -0.136367 0)
  (0.100476 -0.124014 0)
  (0.0844852 -0.105881 0)
  (0.068782 -0.084996 0)
  (0.0547129 -0.0641147 0)
  (0.0430399 -0.0458062 0)
  (0.0335451 -0.0327739 0)
  (0.0246214 -0.0255126 0)
  (0.0160545 -0.0212072 0)
  (0.00894623 -0.0178206 0)
  (0.00421643 -0.0153004 0)
  (0.0017791 -0.0136225 0)
  (0.00137105 -0.012589 0)
  (0.00260357 -0.0123744 0)
  (0.0048851 -0.0129966 0)
  (0.00770783 -0.0137065 0)
  (0.0109628 -0.0136987 0)
  (0.0147586 -0.0121449 0)
  (0.0192545 -0.0080111 0)
  (0.0253373 -0.000229086 0)
  (0.0317928 0.0102147 0)
  (0.0373234 0.0218595 0)
  (0.0442173 0.0352149 0)
  (0.0516555 0.0500858 0)
  (0.0741162 0.068548 0)
  (0.0869316 0.0753176 0)
  (0.119381 0.0518117 0)
  (0.159299 0.0434032 0)
  (-0.0347784 0.0937273 0)
  (0.882817 0.472054 0)
  (-0.0753881 0.151321 0)
  (0.103639 -0.00567073 0)
  (0.167295 -0.0131412 0)
  (0.176102 -0.0115111 0)
  (0.189881 -0.0364326 0)
  (0.216651 -0.067542 0)
  (0.229021 -0.094694 0)
  (0.22533 -0.114037 0)
  (0.209029 -0.123707 0)
  (0.184181 -0.123623 0)
  (0.154494 -0.115269 0)
  (0.123245 -0.100987 0)
  (0.0928861 -0.0830941 0)
  (0.0651546 -0.0639961 0)
  (0.0411669 -0.0458571 0)
  (0.0215034 -0.0305467 0)
  (0.00663485 -0.0202717 0)
  (-0.00491543 -0.015126 0)
  (-0.012965 -0.0132295 0)
  (-0.0187995 -0.0123686 0)
  (-0.0226987 -0.0121051 0)
  (-0.0250565 -0.0123052 0)
  (-0.0261979 -0.0128627 0)
  (-0.0264552 -0.01379 0)
  (-0.0262263 -0.0149952 0)
  (-0.0257944 -0.0161257 0)
  (-0.0251797 -0.0167434 0)
  (-0.024173 -0.0163529 0)
  (-0.0223427 -0.0143633 0)
  (-0.0186582 -0.0100577 0)
  (-0.00930539 -0.00265235 0)
  (0.000299131 0.00690989 0)
  (0.0111779 0.0159077 0)
  (0.0230567 0.0231486 0)
  (0.04336 0.0304338 0)
  (0.0618826 0.0227222 0)
  (0.0810118 -0.0056506 0)
  (0.140072 0.0401676 0)
  (-0.417816 0.208112 0)
  (1.02699 0.426725 0)
  (0.490339 0.282439 0)
  (0.502162 0.193398 0)
  (0.514193 0.13278 0)
  (0.481583 0.0900715 0)
  (0.445372 0.0466829 0)
  (0.406709 0.00163347 0)
  (0.361674 -0.0369508 0)
  (0.311426 -0.0637958 0)
  (0.258482 -0.0775563 0)
  (0.205743 -0.0798469 0)
  (0.155517 -0.0737687 0)
  (0.109706 -0.0625539 0)
  (0.0691572 -0.0484599 0)
  (0.0346291 -0.0337365 0)
  (0.00627501 -0.0203359 0)
  (-0.0153374 -0.0107263 0)
  (-0.0278862 -0.00708899 0)
  (-0.0362169 -0.00648186 0)
  (-0.042134 -0.00712533 0)
  (-0.0467383 -0.00804982 0)
  (-0.0504253 -0.00908533 0)
  (-0.0534887 -0.0102073 0)
  (-0.0561718 -0.0113979 0)
  (-0.058741 -0.0126484 0)
  (-0.0615025 -0.0138597 0)
  (-0.0647396 -0.0147756 0)
  (-0.0686988 -0.0150041 0)
  (-0.0736655 -0.0140049 0)
  (-0.0800575 -0.0110719 0)
  (-0.0883934 -0.0053996 0)
  (-0.0990037 0.00365254 0)
  (-0.109315 0.0152943 0)
  (-0.124392 0.0295658 0)
  (-0.148658 0.0464741 0)
  (-0.184599 0.0648194 0)
  (-0.235629 0.0804604 0)
  (-0.293445 0.0908458 0)
  (-0.362062 0.0961049 0)
  (-0.623958 0.0970533 0)
  (-0.189392 0.0259266 0)
  (0.140608 0.052669 0)
  (0.233636 0.0287747 0)
  (0.226324 0.0028655 0)
  (0.211093 -0.0169688 0)
  (0.193886 -0.0296932 0)
  (0.167482 -0.0364915 0)
  (0.134406 -0.0378995 0)
  (0.0982617 -0.0349246 0)
  (0.0618546 -0.0287682 0)
  (0.0277417 -0.0203688 0)
  (-0.00469189 -0.00978715 0)
  (-0.0305824 -0.00125247 0)
  (-0.0470278 0.00281403 0)
  (-0.056692 0.0036561 0)
  (-0.062168 0.0026977 0)
  (-0.0661844 0.00128419 0)
  (-0.0698451 -0.000320501 0)
  (-0.0734017 -0.00185175 0)
  (-0.0769925 -0.00324896 0)
  (-0.0807246 -0.00450671 0)
  (-0.0846964 -0.005597 0)
  (-0.0890294 -0.00646169 0)
  (-0.0938422 -0.00696737 0)
  (-0.0992011 -0.00687883 0)
  (-0.105078 -0.0058734 0)
  (-0.111333 -0.00356992 0)
  (-0.117691 0.000429165 0)
  (-0.123593 0.00649318 0)
  (-0.12787 0.0151976 0)
  (-0.131249 0.0277255 0)
  (-0.134057 0.0443617 0)
  (-0.13725 0.0640709 0)
  (-0.141414 0.0830359 0)
  (-0.143352 0.0912074 0)
  (-0.125621 0.0677502 0)
  (-0.0795442 -0.0271081 0)
  (-0.28097 -0.206138 0)
  (-0.0333075 0.21182 0)
  (0.0548592 0.0997819 0)
  (0.0271771 0.031159 0)
  (0.0251103 0.0161756 0)
  (0.0246756 0.00884063 0)
  (0.0203281 0.000480214 0)
  (0.00909699 -0.00518451 0)
  (-0.0109081 -0.00553759 0)
  (-0.0324686 -0.00285432 0)
  (-0.0525332 0.000455926 0)
  (-0.0684059 0.00303373 0)
  (-0.0786462 0.00376394 0)
  (-0.0831127 0.00199411 0)
  (-0.0852201 -0.00113234 0)
  (-0.086198 -0.00468798 0)
  (-0.0871456 -0.00811388 0)
  (-0.0884816 -0.0107906 0)
  (-0.0901387 -0.012552 0)
  (-0.0922389 -0.0135677 0)
  (-0.0947418 -0.0140657 0)
  (-0.097636 -0.0143402 0)
  (-0.10091 -0.014446 0)
  (-0.104526 -0.0143844 0)
  (-0.108406 -0.0140944 0)
  (-0.1124 -0.0134315 0)
  (-0.116242 -0.0121504 0)
  (-0.119531 -0.00988693 0)
  (-0.121703 -0.00611731 0)
  (-0.122055 -0.000297732 0)
  (-0.119646 0.00802572 0)
  (-0.113009 0.0197364 0)
  (-0.100899 0.0355538 0)
  (-0.0831888 0.0549501 0)
  (-0.0609008 0.0735851 0)
  (-0.0370766 0.0841982 0)
  (0.00382319 0.0677237 0)
  (0.143395 -0.00379852 0)
  (-0.208156 -0.117037 0)
  (-0.0652033 -0.329918 0)
  (-0.420905 -0.120172 0)
  (-0.307429 0.0777063 0)
  (-0.228996 -0.0209645 0)
  (-0.181078 -0.03926 0)
  (-0.15592 -0.0325601 0)
  (-0.144224 -0.0259913 0)
  (-0.140206 -0.0196495 0)
  (-0.139442 -0.012075 0)
  (-0.139003 -0.00426266 0)
  (-0.137023 0.0027176 0)
  (-0.133096 0.00914707 0)
  (-0.127266 0.0151921 0)
  (-0.120115 0.0206942 0)
  (-0.112695 0.0253914 0)
  (-0.106109 0.0293725 0)
  (-0.1009 0.0326473 0)
  (-0.0972751 0.0351217 0)
  (-0.0951007 0.0366292 0)
  (-0.0941171 0.037075 0)
  (-0.0940845 0.0365964 0)
  (-0.0948156 0.0354902 0)
  (-0.0961767 0.0341699 0)
  (-0.0980594 0.0327394 0)
  (-0.100359 0.0312692 0)
  (-0.102945 0.029822 0)
  (-0.105618 0.0284632 0)
  (-0.108077 0.0272605 0)
  (-0.109869 0.0262797 0)
  (-0.110294 0.0255957 0)
  (-0.108129 0.0256436 0)
  (-0.101361 0.0272866 0)
  (-0.0874836 0.0312736 0)
  (-0.0646799 0.0384777 0)
  (-0.0337923 0.0493633 0)
  (0.016356 0.0637493 0)
  (0.061546 0.0646871 0)
  (0.104867 0.0490174 0)
  (0.165244 0.0186184 0)
  (-0.213132 -0.0382195 0)
)
;

boundaryField
{
  floor
  {
    type noSlip;
  }
  ceiling
  {
    type noSlip;
  }
  sWall
  {
    type noSlip;
  }
  nWall
  {
    type noSlip;
  }
  sideWalls
  {
    type empty;
  }
  glass1
  {
    type noSlip;
  }
  glass2
  {
    type noSlip;
  }
  sun
  {
    type noSlip;
  }
  heatsource1
  {
    type noSlip;
  }
  heatsource2
  {
    type noSlip;
  }
  Table_master
  {
    type noSlip;
  }
  Table_slave
  {
    type noSlip;
  }
  inlet
  {
    type fixedValue;
    value uniform (0.277164 -0.114805 0);
  }
  outlet
  {
    type zeroGradient;
  }
} 	// ************************************************************************* //

