// -*- C++ -*-
// File generated by PyFoam - sorry for the ugliness

FoamFile
{
 version 2.0;
 format ascii;
 class volScalarField;
 location "500";
 object T;
}

dimensions [ 0 0 0 1 0 0 0 ];

internalField nonuniform List<scalar> 459
(
  300.603
  300.615
  300.622
  300.659
  300.693
  300.717
  300.732
  300.741
  300.746
  300.752
  300.757
  300.761
  300.765
  300.768
  300.765
  301.044
  301.058
  301.056
  301.067
  301.081
  301.092
  301.102
  301.11
  301.119
  301.127
  301.135
  301.142
  301.15
  301.158
  301.166
  301.174
  301.184
  301.197
  301.221
  300.617
  300.62
  300.616
  300.681
  300.757
  300.808
  300.838
  300.853
  300.86
  300.862
  300.861
  300.855
  300.845
  300.829
  300.805
  300.812
  300.825
  301.044
  301.03
  301.038
  301.061
  301.085
  301.106
  301.121
  301.135
  301.148
  301.161
  301.174
  301.187
  301.2
  301.211
  301.221
  301.226
  301.229
  301.228
  301.253
  300.607
  300.603
  300.593
  300.699
  300.83
  300.915
  300.958
  300.974
  300.977
  300.97
  300.956
  300.937
  300.915
  300.888
  300.856
  300.843
  300.84
  300.966
  300.981
  301.015
  301.056
  301.095
  301.125
  301.136
  301.149
  301.163
  301.178
  301.193
  301.208
  301.224
  301.239
  301.251
  301.257
  301.258
  301.254
  301.269
  300.591
  300.581
  300.567
  300.711
  300.908
  301.033
  301.088
  301.101
  301.09
  301.066
  301.036
  301.005
  300.973
  300.939
  300.902
  300.877
  300.86
  300.871
  300.905
  300.954
  301.018
  301.082
  301.137
  301.177
  301.209
  301.235
  301.26
  301.284
  301.307
  301.331
  301.355
  301.381
  301.405
  301.343
  301.307
  301.285
  301.286
  300.572
  300.558
  300.541
  300.707
  300.97
  301.141
  301.201
  301.203
  301.173
  301.134
  301.096
  301.058
  301.021
  300.984
  300.948
  300.92
  300.902
  300.916
  300.96
  301.027
  301.101
  301.17
  301.227
  301.27
  301.306
  301.336
  301.361
  301.381
  301.4
  301.417
  301.434
  301.448
  301.456
  301.406
  301.355
  301.324
  301.307
  301.318
  301.372
  301.564
  300.559
  300.536
  300.514
  300.689
  300.994
  301.219
  301.279
  301.267
  301.23
  301.188
  301.149
  301.109
  301.072
  301.038
  301.006
  300.985
  300.98
  301.015
  301.079
  301.155
  301.229
  301.293
  301.342
  301.379
  301.409
  301.43
  301.446
  301.461
  301.474
  301.487
  301.497
  301.503
  301.497
  301.457
  301.408
  301.384
  301.344
  301.343
  301.413
  301.538
  300.553
  300.518
  300.478
  300.659
  300.984
  301.256
  301.327
  301.318
  301.286
  301.25
  301.215
  301.182
  301.152
  301.123
  301.103
  301.098
  301.118
  301.174
  301.244
  301.314
  301.376
  301.425
  301.461
  301.487
  301.503
  301.513
  301.522
  301.531
  301.539
  301.546
  301.549
  301.547
  301.535
  301.508
  301.474
  301.441
  301.378
  301.37
  301.438
  301.529
  300.55
  300.518
  300.446
  300.621
  300.947
  301.282
  301.376
  301.383
  301.362
  301.338
  301.314
  301.293
  301.274
  301.26
  301.256
  301.27
  301.307
  301.365
  301.422
  301.474
  301.518
  301.549
  301.568
  301.577
  301.581
  301.585
  301.589
  301.593
  301.596
  301.598
  301.597
  301.591
  301.579
  301.559
  301.531
  301.492
  301.427
  301.402
  301.452
  301.532
  300.528
  300.509
  300.427
  300.608
  300.929
  301.316
  301.444
  301.464
  301.461
  301.452
  301.444
  301.437
  301.433
  301.434
  301.443
  301.465
  301.5
  301.543
  301.581
  301.611
  301.632
  301.644
  301.649
  301.649
  301.649
  301.648
  301.647
  301.647
  301.646
  301.643
  301.638
  301.629
  301.617
  301.599
  301.575
  301.541
  301.49
  301.451
  301.48
  301.544
  300.398
  300.665
  301.041
  301.434
  301.525
  301.55
  301.56
  301.564
  301.567
  301.571
  301.577
  301.585
  301.599
  301.617
  301.64
  301.663
  301.683
  301.696
  301.703
  301.705
  301.705
  301.702
  301.698
  301.695
  301.691
  301.686
  301.681
  301.674
  301.665
  301.654
  301.639
  301.621
  301.598
  301.571
  301.538
  301.51
  301.522
  301.547
  301.349
  301.386
  301.458
  301.547
  301.599
  301.622
  301.635
  301.644
  301.652
  301.659
  301.668
  301.678
  301.69
  301.702
  301.715
  301.726
  301.735
  301.739
  301.74
  301.738
  301.735
  301.731
  301.726
  301.72
  301.714
  301.707
  301.699
  301.689
  301.678
  301.664
  301.647
  301.629
  301.608
  301.587
  301.568
  301.553
  301.556
  301.562
  301.588
  301.579
  301.571
  301.59
  301.612
  301.639
  301.662
  301.676
  301.687
  301.696
  301.704
  301.712
  301.72
  301.728
  301.736
  301.742
  301.748
  301.751
  301.752
  301.752
  301.749
  301.745
  301.741
  301.735
  301.729
  301.723
  301.715
  301.707
  301.696
  301.684
  301.67
  301.654
  301.636
  301.618
  301.601
  301.587
  301.576
  301.57
  301.57
  301.573
)
;

boundaryField
{
  floor
  {
    type wallHeatTransfer;
    Tinf uniform 297.948;
    alphaWall uniform 0.24;
    value nonuniform List<scalar> 29
(
  300.309
  300.496
  300.583
  300.587
  300.588
  300.585
  300.577
  300.561
  300.544
  300.526
  300.51
  300.494
  300.479
  300.465
  300.452
  300.438
  300.424
  300.408
  300.381
  300.412
  300.412
  300.554
  300.631
  300.707
  300.309
  300.496
  300.627
  300.536
  300.377
)
;
  }
  ceiling
  {
    type wallHeatTransfer;
    Tinf uniform 297.948;
    alphaWall uniform 0.24;
    value nonuniform List<scalar> 43
(
  301.255
  301.262
  301.279
  301.308
  301.329
  301.352
  301.373
  301.388
  301.398
  301.407
  301.415
  301.423
  301.431
  301.439
  301.446
  301.452
  301.457
  301.461
  301.461
  301.46
  301.457
  301.452
  301.447
  301.442
  301.436
  301.429
  301.423
  301.415
  301.407
  301.398
  301.386
  301.373
  301.358
  301.341
  301.324
  301.309
  301.299
  301.298
  301.3
  301.275
  300.256
  300.273
  301.131
)
;
  }
  sWall
  {
    type wallHeatTransfer;
    Tinf uniform 300.167;
    alphaWall uniform 0.36;
    value uniform 301.401;
  }
  nWall
  {
    type wallHeatTransfer;
    Tinf uniform 299.15;
    alphaWall uniform 0.36;
    value nonuniform List<scalar> 6
(
  301.145
  301.2
  301.262
  301.328
  301.31
  301.286
)
;
  }
  sideWalls
  {
    type empty;
  }
  glass1
  {
    type wallHeatTransfer;
    Tinf uniform 300.167;
    alphaWall uniform 4.3;
    value nonuniform List<scalar> 9
(
  300.264
  300.289
  300.298
  300.299
  300.294
  300.29
  300.289
  300.291
  300.283
)
;
  }
  glass2
  {
    type wallHeatTransfer;
    Tinf uniform 299.15;
    alphaWall uniform 4.3;
    value nonuniform List<scalar> 2
(
  300.261
  300.327
)
;
  }
  sun
  {
    type wallHeatTransfer;
    Tinf uniform 297.948;
    alphaWall uniform 0.24;
    value nonuniform List<scalar> 14
(
  300.171
  300.226
  300.298
  300.339
  300.366
  300.38
  300.384
  300.383
  300.378
  300.374
  300.368
  300.361
  300.351
  300.335
)
;
  }
  heatsource1
  {
    type fixedGradient;
    gradient uniform 0;
  }
  heatsource2
  {
    type fixedGradient;
    gradient uniform 0;
  }
  Table_master
  {
    type zeroGradient;
  }
  Table_slave
  {
    type zeroGradient;
  }
  inlet
  {
    type fixedValue;
    value uniform 300.15;
  }
  outlet
  {
    type zeroGradient;
  }
} 	// ************************************************************************* //

