// -*- C++ -*-
// File generated by PyFoam - sorry for the ugliness

FoamFile
{
 version 2.0;
 format ascii;
 class volVectorField;
 location "560";
 object U;
}

dimensions [ 0 1 -1 0 0 0 0 ];

internalField nonuniform List<vector> 459
(
  (0.00893119 0.0574493 0)
  (-0.113034 0.0197931 0)
  (-0.135852 0.0122601 0)
  (-0.157806 0.0064586 0)
  (-0.171296 0.000277103 0)
  (-0.174844 -0.00639765 0)
  (-0.166584 -0.0137574 0)
  (-0.146589 -0.0216028 0)
  (-0.116218 -0.0285328 0)
  (-0.0794262 -0.033004 0)
  (-0.0416583 -0.0335421 0)
  (-0.00533454 -0.0275458 0)
  (0.0198045 -0.013795 0)
  (0.0269296 0.000227411 0)
  (0.0463717 0.020192 0)
  (-0.0819211 0.00778597 0)
  (0.0197546 -0.00403867 0)
  (0.0129824 -0.0122783 0)
  (0.0279131 -0.0141042 0)
  (0.0440297 -0.0126028 0)
  (0.0578956 -0.00960728 0)
  (0.0671365 -0.00553971 0)
  (0.0717534 -0.00320168 0)
  (0.0733086 -0.00234989 0)
  (0.0736436 -0.00204378 0)
  (0.0736255 -0.00183425 0)
  (0.0733255 -0.00158966 0)
  (0.0725705 -0.00121377 0)
  (0.0709907 -0.000473285 0)
  (0.0677398 0.00117239 0)
  (0.0610907 0.00462592 0)
  (0.0491676 0.00972743 0)
  (0.0170944 0.0182445 0)
  (0.0589879 0.00682697 0)
  (0.112236 0.117659 0)
  (-0.103606 0.0524143 0)
  (-0.111538 0.0393755 0)
  (-0.134137 0.0278637 0)
  (-0.147982 0.014691 0)
  (-0.152399 -0.000551807 0)
  (-0.145373 -0.0179825 0)
  (-0.127517 -0.0355399 0)
  (-0.100654 -0.0496879 0)
  (-0.0688783 -0.0572399 0)
  (-0.0371297 -0.0562372 0)
  (-0.00882842 -0.045333 0)
  (0.0141324 -0.0252019 0)
  (0.0281716 -0.00484405 0)
  (0.0424109 0.0175201 0)
  (0.0430056 0.0223071 0)
  (0.0299593 0.0276737 0)
  (-0.0960115 0.00466942 0)
  (0.0258957 -0.0232809 0)
  (0.0300663 -0.0262825 0)
  (0.0419829 -0.0257467 0)
  (0.0541896 -0.0221393 0)
  (0.0642036 -0.0164115 0)
  (0.0695977 -0.00664227 0)
  (0.0707635 -0.000811772 0)
  (0.0705644 0.00141802 0)
  (0.0705917 0.00226508 0)
  (0.0708496 0.00278464 0)
  (0.0710276 0.00323853 0)
  (0.0710344 0.00388281 0)
  (0.0708232 0.00522074 0)
  (0.0697913 0.00841922 0)
  (0.0651981 0.0167575 0)
  (0.0550612 0.0257248 0)
  (0.0214081 0.0364389 0)
  (0.0989197 0.0264363 0)
  (0.208994 0.176488 0)
  (-0.109562 0.0818321 0)
  (-0.0861599 0.0629575 0)
  (-0.108057 0.0434635 0)
  (-0.121372 0.0218223 0)
  (-0.126323 -0.00299085 0)
  (-0.119535 -0.0307485 0)
  (-0.102556 -0.0579684 0)
  (-0.0782152 -0.0783841 0)
  (-0.050862 -0.0874711 0)
  (-0.0248311 -0.0835804 0)
  (-0.0019976 -0.0669524 0)
  (0.0163963 -0.0423085 0)
  (0.0298067 -0.0170149 0)
  (0.0396994 0.00765602 0)
  (0.0421591 0.0254258 0)
  (0.0362974 0.0525513 0)
  (-0.0245215 -0.0233339 0)
  (0.0378409 -0.0374815 0)
  (0.0498199 -0.0400212 0)
  (0.0560875 -0.0367647 0)
  (0.0625793 -0.0314909 0)
  (0.0687115 -0.0266197 0)
  (0.0717982 -0.0193713 0)
  (0.0664462 -0.0124924 0)
  (0.0620442 -0.0089269 0)
  (0.0606058 -0.00699912 0)
  (0.0605595 -0.00576391 0)
  (0.0609528 -0.00481565 0)
  (0.0617811 -0.00386934 0)
  (0.0637756 -0.00240918 0)
  (0.0686691 0.00202559 0)
  (0.0692506 0.0222272 0)
  (0.0613731 0.0379236 0)
  (0.0250771 0.0547189 0)
  (0.122702 0.0562052 0)
  (0.299995 0.224265 0)
  (-0.126957 0.106797 0)
  (-0.0585298 0.0837449 0)
  (-0.0789063 0.0581405 0)
  (-0.0899989 0.0300878 0)
  (-0.0941435 -0.00350081 0)
  (-0.0855614 -0.0420961 0)
  (-0.0686259 -0.0786706 0)
  (-0.0474107 -0.10403 0)
  (-0.0255706 -0.113483 0)
  (-0.00618881 -0.106545 0)
  (0.0106903 -0.085422 0)
  (0.0243726 -0.0578294 0)
  (0.0360613 -0.0288969 0)
  (0.046805 -0.00126403 0)
  (0.0580193 0.0226669 0)
  (0.072662 0.046983 0)
  (0.0984398 -0.00129089 0)
  (0.0935966 -0.0206501 0)
  (0.0828376 -0.0342709 0)
  (0.0734397 -0.0390411 0)
  (0.0675387 -0.0371538 0)
  (0.064207 -0.0323484 0)
  (0.0612888 -0.0258358 0)
  (0.0627467 -0.0158615 0)
  (0.0717206 -0.011029 0)
  (0.0792844 -0.00846255 0)
  (0.0844198 -0.00692183 0)
  (0.0882179 -0.00566265 0)
  (0.0908446 -0.00424221 0)
  (0.0913329 -0.0022434 0)
  (0.0878218 0.000917778 0)
  (0.0779506 0.00587909 0)
  (0.0678899 0.027894 0)
  (0.0654075 0.0473657 0)
  (0.0345094 0.0696017 0)
  (0.139246 0.099466 0)
  (0.383724 0.260991 0)
  (-0.151999 0.125591 0)
  (-0.0294632 0.0967175 0)
  (-0.0466524 0.0676933 0)
  (-0.0534278 0.0359797 0)
  (-0.0537294 -0.00448695 0)
  (-0.0401998 -0.0537425 0)
  (-0.0239827 -0.0970745 0)
  (-0.00807317 -0.124118 0)
  (0.00616512 -0.131673 0)
  (0.0170123 -0.12123 0)
  (0.025961 -0.0983079 0)
  (0.0337241 -0.0689142 0)
  (0.0409463 -0.0387653 0)
  (0.0489302 -0.0116109 0)
  (0.059283 0.00983174 0)
  (0.0734252 0.019909 0)
  (0.0847195 -6.12178e-05 0)
  (0.0834444 -0.0162938 0)
  (0.0750976 -0.0264595 0)
  (0.0663413 -0.0307942 0)
  (0.0590378 -0.0306342 0)
  (0.0534678 -0.0275324 0)
  (0.0496942 -0.0219131 0)
  (0.0497795 -0.0130711 0)
  (0.0536403 -0.00827046 0)
  (0.0579398 -0.00644246 0)
  (0.0618466 -0.0055382 0)
  (0.0655541 -0.00436481 0)
  (0.0689079 -0.00212107 0)
  (0.0715655 0.00196923 0)
  (0.0722776 0.00828406 0)
  (0.0705958 0.0174746 0)
  (0.0684772 0.0331449 0)
  (0.0728034 0.0501587 0)
  (0.0646347 0.0680709 0)
  (0.119088 0.0996377 0)
  (0.11442 0.0780951 0)
  (0.12022 0.0555827 0)
  (-0.216797 0.0484489 0)
  (0.450698 0.290734 0)
  (-0.180414 0.136497 0)
  (-0.00451384 0.0964263 0)
  (-0.0126631 0.0710122 0)
  (-0.0132554 0.0401242 0)
  (-0.00266763 -0.00789602 0)
  (0.0168444 -0.0684117 0)
  (0.0294143 -0.111966 0)
  (0.0373919 -0.135742 0)
  (0.0413352 -0.139884 0)
  (0.0423151 -0.127263 0)
  (0.0418023 -0.102861 0)
  (0.0409764 -0.0728648 0)
  (0.0409145 -0.0430971 0)
  (0.0428122 -0.0178764 0)
  (0.0480224 -0.000150027 0)
  (0.0562062 0.00680343 0)
  (0.0611567 -0.00121515 0)
  (0.0595878 -0.0119181 0)
  (0.0534611 -0.0195231 0)
  (0.0460974 -0.0234224 0)
  (0.0391643 -0.0241864 0)
  (0.0334395 -0.0225778 0)
  (0.0295791 -0.0190648 0)
  (0.0286303 -0.0143268 0)
  (0.0304916 -0.011669 0)
  (0.0336114 -0.0107503 0)
  (0.0372088 -0.0102255 0)
  (0.0411051 -0.009148 0)
  (0.0452204 -0.006733 0)
  (0.0494568 -0.00198244 0)
  (0.0540159 0.00586546 0)
  (0.0575169 0.016518 0)
  (0.0612111 0.030118 0)
  (0.0687392 0.0440889 0)
  (0.0713677 0.054053 0)
  (0.093063 0.0690028 0)
  (0.091017 0.0537965 0)
  (0.120973 0.0521518 0)
  (-0.173857 0.077844 0)
  (0.494034 0.316141 0)
  (-0.199005 0.124957 0)
  (0.0169372 0.0662486 0)
  (0.0283071 0.0578364 0)
  (0.0367916 0.0296492 0)
  (0.0621735 -0.0276074 0)
  (0.080716 -0.0825511 0)
  (0.087754 -0.119938 0)
  (0.0859001 -0.137727 0)
  (0.0778622 -0.137345 0)
  (0.0663535 -0.122097 0)
  (0.053837 -0.0967939 0)
  (0.0422717 -0.0673724 0)
  (0.0332707 -0.0394501 0)
  (0.0280638 -0.0173088 0)
  (0.0272286 -0.00304812 0)
  (0.030051 0.00246107 0)
  (0.0316359 -0.00117878 0)
  (0.0299826 -0.00797565 0)
  (0.0252956 -0.0136273 0)
  (0.0192008 -0.0170099 0)
  (0.0130254 -0.0182925 0)
  (0.00770007 -0.0179899 0)
  (0.00403152 -0.0166233 0)
  (0.00276485 -0.0148921 0)
  (0.00373552 -0.0141433 0)
  (0.00594548 -0.0141484 0)
  (0.00875302 -0.0141241 0)
  (0.0119821 -0.0134559 0)
  (0.0157452 -0.0115571 0)
  (0.0203544 -0.00752786 0)
  (0.0270104 -5.57629e-05 0)
  (0.0349921 0.0106536 0)
  (0.0430719 0.022733 0)
  (0.0530145 0.0343262 0)
  (0.0610135 0.0425967 0)
  (0.0751826 0.0535916 0)
  (0.0810402 0.0561155 0)
  (0.133384 0.0738052 0)
  (-0.118736 0.139331 0)
  (0.574356 0.31814 0)
  (-0.0602082 0.0981473 0)
  (0.068325 0.00287804 0)
  (0.108478 -0.0150555 0)
  (0.123956 -0.0406906 0)
  (0.148644 -0.0713375 0)
  (0.157783 -0.0997572 0)
  (0.151332 -0.119228 0)
  (0.133306 -0.126019 0)
  (0.108449 -0.119779 0)
  (0.0812302 -0.102557 0)
  (0.0550054 -0.0779111 0)
  (0.0322353 -0.0511346 0)
  (0.0150005 -0.0274138 0)
  (0.00450437 -0.0105331 0)
  (0.000181793 -0.00102704 0)
  (4.52511e-05 0.00201414 0)
  (8.68575e-05 -0.000331769 0)
  (-0.00170608 -0.00475468 0)
  (-0.00573372 -0.00870299 0)
  (-0.0109472 -0.0114224 0)
  (-0.0162739 -0.0130342 0)
  (-0.0208949 -0.0139381 0)
  (-0.0241919 -0.0145068 0)
  (-0.0258352 -0.0150496 0)
  (-0.0260797 -0.0158465 0)
  (-0.0255206 -0.0166933 0)
  (-0.0245856 -0.0172307 0)
  (-0.0234589 -0.0171805 0)
  (-0.022084 -0.0163415 0)
  (-0.0200651 -0.0144132 0)
  (-0.0163579 -0.0106783 0)
  (-0.00761163 -0.00397103 0)
  (0.00494143 0.00523121 0)
  (0.0164595 0.012561 0)
  (0.0266724 0.0162378 0)
  (0.0395892 0.0191868 0)
  (0.0501574 0.0172821 0)
  (0.133983 0.0717593 0)
  (-0.378179 0.213356 0)
  (0.680381 0.310772 0)
  (0.327629 0.215864 0)
  (0.335332 0.162674 0)
  (0.339228 0.101418 0)
  (0.323861 0.0484136 0)
  (0.291846 -0.00428288 0)
  (0.252988 -0.0479417 0)
  (0.209568 -0.0752608 0)
  (0.162582 -0.0852785 0)
  (0.115493 -0.0810345 0)
  (0.0719858 -0.0666728 0)
  (0.0342707 -0.0461382 0)
  (0.0043404 -0.0250963 0)
  (-0.0155823 -0.00907095 0)
  (-0.0254173 -0.000709962 0)
  (-0.0298279 0.00304444 0)
  (-0.0307786 0.00360358 0)
  (-0.0316364 0.00199211 0)
  (-0.0334566 -0.000536865 0)
  (-0.0368354 -0.00297616 0)
  (-0.0410428 -0.0050918 0)
  (-0.0453949 -0.00687637 0)
  (-0.0494621 -0.00849145 0)
  (-0.0529594 -0.0100499 0)
  (-0.0557892 -0.0115825 0)
  (-0.0580978 -0.013074 0)
  (-0.0601551 -0.0143687 0)
  (-0.0622554 -0.0152711 0)
  (-0.064809 -0.0156073 0)
  (-0.0684263 -0.0151446 0)
  (-0.0737788 -0.0133012 0)
  (-0.0812974 -0.00878674 0)
  (-0.0912836 7.64942e-05 0)
  (-0.101886 0.0127902 0)
  (-0.116768 0.0293155 0)
  (-0.141709 0.0511454 0)
  (-0.176271 0.0795544 0)
  (-0.218961 0.112061 0)
  (-0.286429 0.143163 0)
  (-0.568185 0.164828 0)
  (0.19472 0.0127493 0)
  (0.220178 0.0269098 0)
  (0.218648 0.000386981 0)
  (0.20081 -0.0249173 0)
  (0.171946 -0.0401482 0)
  (0.135719 -0.0466207 0)
  (0.0938577 -0.0455257 0)
  (0.0515011 -0.0381126 0)
  (0.0123216 -0.0253989 0)
  (-0.0211548 -0.00903453 0)
  (-0.0405937 0.00145452 0)
  (-0.0515925 0.00705394 0)
  (-0.0564983 0.00946947 0)
  (-0.0582824 0.0103142 0)
  (-0.0589436 0.0102692 0)
  (-0.0597557 0.00961356 0)
  (-0.0612145 0.00863721 0)
  (-0.0633161 0.00747586 0)
  (-0.0661218 0.00592312 0)
  (-0.0694538 0.00448524 0)
  (-0.0732874 0.00324576 0)
  (-0.0775763 0.00231617 0)
  (-0.0822813 0.00189216 0)
  (-0.0873711 0.00219033 0)
  (-0.0927636 0.00348918 0)
  (-0.0983204 0.00605772 0)
  (-0.103964 0.00999344 0)
  (-0.109846 0.0149358 0)
  (-0.116288 0.0198031 0)
  (-0.123312 0.0232473 0)
  (-0.129332 0.0277318 0)
  (-0.134225 0.0357367 0)
  (-0.138187 0.0486654 0)
  (-0.141171 0.0667126 0)
  (-0.14041 0.0868996 0)
  (-0.129859 0.0936268 0)
  (-0.114907 0.044072 0)
  (-0.219334 -0.172845 0)
  (0.0610483 0.132994 0)
  (0.0301465 0.0614284 0)
  (0.0264932 0.00546974 0)
  (0.0218616 -0.0270729 0)
  (0.0201239 -0.0404182 0)
  (0.0034167 -0.043605 0)
  (-0.0188858 -0.0448474 0)
  (-0.0404507 -0.0448976 0)
  (-0.0582707 -0.0452702 0)
  (-0.0697328 -0.0471404 0)
  (-0.0752175 -0.0500789 0)
  (-0.0776021 -0.0525688 0)
  (-0.0782432 -0.0548761 0)
  (-0.0780123 -0.0569067 0)
  (-0.0775139 -0.0590087 0)
  (-0.0771799 -0.0615388 0)
  (-0.0772762 -0.06443 0)
  (-0.0779179 -0.067309 0)
  (-0.0791846 -0.0696562 0)
  (-0.0811816 -0.0715328 0)
  (-0.0838704 -0.0734835 0)
  (-0.0873552 -0.0760555 0)
  (-0.0918178 -0.079463 0)
  (-0.0974164 -0.0837532 0)
  (-0.104175 -0.0886336 0)
  (-0.111809 -0.0932626 0)
  (-0.119566 -0.0960773 0)
  (-0.126335 -0.095145 0)
  (-0.131158 -0.0897127 0)
  (-0.133514 -0.0779987 0)
  (-0.132903 -0.0611929 0)
  (-0.127747 -0.0396692 0)
  (-0.116138 -0.0141623 0)
  (-0.096448 0.0137868 0)
  (-0.068883 0.0394016 0)
  (-0.0376434 0.0494032 0)
  (0.103326 -0.0411079 0)
  (-0.174591 -0.105725 0)
  (-0.124405 -0.252382 0)
  (-0.302271 -0.0503168 0)
  (-0.222338 0.146771 0)
  (-0.180929 0.127947 0)
  (-0.132754 0.130628 0)
  (-0.114321 0.144541 0)
  (-0.110587 0.153537 0)
  (-0.112281 0.156409 0)
  (-0.115357 0.161715 0)
  (-0.115971 0.168268 0)
  (-0.114137 0.176726 0)
  (-0.110596 0.186117 0)
  (-0.106453 0.193968 0)
  (-0.102589 0.199485 0)
  (-0.0993163 0.203448 0)
  (-0.0966925 0.206513 0)
  (-0.0946637 0.209321 0)
  (-0.0932575 0.212254 0)
  (-0.0925704 0.215252 0)
  (-0.0926808 0.217948 0)
  (-0.093547 0.219783 0)
  (-0.0950708 0.220704 0)
  (-0.0971707 0.221694 0)
  (-0.0997255 0.223763 0)
  (-0.102561 0.227411 0)
  (-0.105479 0.232892 0)
  (-0.10827 0.239941 0)
  (-0.110721 0.247486 0)
  (-0.112599 0.253436 0)
  (-0.113628 0.255347 0)
  (-0.113357 0.253078 0)
  (-0.110833 0.24579 0)
  (-0.104446 0.235652 0)
  (-0.0921417 0.224638 0)
  (-0.0722055 0.21534 0)
  (-0.0449804 0.210469 0)
  (-0.00944451 0.210975 0)
  (0.0290293 0.214731 0)
  (0.142377 0.244878 0)
  (-0.29657 0.22905 0)
)
;

boundaryField
{
  floor
  {
    type noSlip;
  }
  ceiling
  {
    type noSlip;
  }
  sWall
  {
    type noSlip;
  }
  nWall
  {
    type noSlip;
  }
  sideWalls
  {
    type empty;
  }
  glass1
  {
    type noSlip;
  }
  glass2
  {
    type noSlip;
  }
  sun
  {
    type noSlip;
  }
  heatsource1
  {
    type noSlip;
  }
  heatsource2
  {
    type noSlip;
  }
  Table_master
  {
    type noSlip;
  }
  Table_slave
  {
    type noSlip;
  }
  inlet
  {
    type fixedValue;
    value uniform (0.277164 -0.114805 0);
  }
  outlet
  {
    type zeroGradient;
  }
} 	// ************************************************************************* //

