/*--------------------------------*- C++ -*----------------------------------*\
  =========                 |
  \\      /  F ield         | OpenFOAM: The Open Source CFD Toolbox
   \\    /   O peration     | Website:  https://openfoam.org
    \\  /    A nd           | Version:  6
     \\/     M anipulation  |
\*---------------------------------------------------------------------------*/
FoamFile
{
    version     2.0;
    format      ascii;
    class       volScalarField;
    location    "350";
    object      epsilon;
}
// * * * * * * * * * * * * * * * * * * * * * * * * * * * * * * * * * * * * * //

dimensions      [0 2 -3 0 0 0 0];

internalField   nonuniform List<scalar> 
459
(
0.00034663
0.000660193
0.000700707
0.000628884
0.000549076
0.000480617
0.000423211
0.000375141
0.000334304
0.000298049
0.000264517
0.000232182
0.000199524
0.000164319
0.000128948
5.67938e-05
0.000128668
0.000150341
0.000149684
0.000133733
0.000115722
9.56352e-05
7.84029e-05
6.4885e-05
5.43949e-05
4.61799e-05
3.96499e-05
3.43481e-05
3.0001e-05
2.62604e-05
2.2829e-05
1.95281e-05
1.51517e-05
1.37421e-05
0.000580406
0.00134194
0.000763271
0.000538461
0.000407737
0.000328217
0.000278964
0.000246547
0.000223366
0.000204242
0.000186086
0.000167255
0.000147389
0.000126463
0.000106973
0.000121389
8.60063e-05
0.000205773
0.000514476
0.000229434
0.000156816
0.000123522
0.000102159
9.43745e-05
7.69376e-05
6.13701e-05
4.90395e-05
3.95235e-05
3.21962e-05
2.64771e-05
2.20522e-05
1.87251e-05
1.69835e-05
2.02273e-05
2.21109e-05
2.70399e-05
0.000675208
0.00148504
0.000632988
0.000425442
0.000304134
0.000239594
0.000208596
0.00019257
0.00018165
0.000170176
0.00015591
0.000138979
0.000121033
0.000103673
8.93967e-05
8.51558e-05
9.07545e-05
0.000199743
0.000477686
0.000236131
0.00015996
0.000124984
0.000108763
0.000217199
0.000150532
0.000107
7.82661e-05
5.88821e-05
4.54904e-05
3.60532e-05
2.95726e-05
2.54161e-05
1.90573e-05
2.07254e-05
3.52066e-05
4.07564e-05
0.000716036
0.00125862
0.000468894
0.000359394
0.000233602
0.000171294
0.000150719
0.000145748
0.000143297
0.000137258
0.000126881
0.000113637
9.963e-05
8.66527e-05
7.683e-05
7.14638e-05
7.5632e-05
9.82041e-05
0.000164453
0.0001415
0.000127593
0.000119022
0.000110285
0.00010817
0.000282102
0.000218647
0.00017575
0.000143319
0.000116726
9.38174e-05
7.35564e-05
5.54185e-05
3.86704e-05
2.10618e-05
1.96884e-05
7.1e-05
6.39607e-05
0.000779608
0.00102687
0.000451064
0.000403808
0.000213403
0.000123651
0.000101446
0.000103726
0.000106267
0.000104525
9.90564e-05
9.12832e-05
8.29463e-05
7.57299e-05
7.1587e-05
7.0518e-05
8.05667e-05
8.9746e-05
0.000101088
0.000119194
0.000131876
0.000134442
0.000127728
0.000117411
0.000118421
0.000114223
0.000109241
0.000101232
9.00312e-05
7.64921e-05
6.15367e-05
4.61418e-05
3.00166e-05
1.82722e-05
1.70127e-05
6.21913e-05
7.80387e-05
8.68835e-05
0.000111425
0.000344321
0.00083105
0.00100317
0.000530746
0.000518621
0.000247399
0.000111426
7.96351e-05
7.86871e-05
8.13542e-05
8.2356e-05
8.13197e-05
7.88185e-05
7.6247e-05
7.52941e-05
7.83783e-05
8.74308e-05
0.00010843
0.000133786
0.000160786
0.000180895
0.000187699
0.000179579
0.00016105
0.000139399
0.000122256
0.000110007
9.99668e-05
8.89495e-05
7.61842e-05
6.21673e-05
4.76751e-05
3.36627e-05
2.18499e-05
1.62155e-05
1.74175e-05
4.03199e-05
6.81455e-05
0.000133469
0.000542312
0.00081157
0.000884987
0.00116891
0.000654058
0.000723648
0.000367011
0.000150273
9.18541e-05
8.32229e-05
8.41565e-05
8.61098e-05
8.7762e-05
8.94461e-05
9.2241e-05
9.83116e-05
0.000110196
0.000131395
0.000165636
0.000207328
0.000240717
0.000254352
0.000244874
0.000217662
0.000182716
0.000148492
0.000121123
0.00010396
9.05152e-05
7.74889e-05
6.4444e-05
5.19998e-05
4.10598e-05
3.25636e-05
2.73435e-05
2.64572e-05
2.89261e-05
3.88533e-05
7.27525e-05
0.000289222
0.0017373
0.00205168
0.000916231
0.00145659
0.000812092
0.00101413
0.000563223
0.000241032
0.000157158
0.000144238
0.0001457
0.000149483
0.000153744
0.000158995
0.000166573
0.000178618
0.000198082
0.000230346
0.000273698
0.000316589
0.000336742
0.000327656
0.000289997
0.000242259
0.000197753
0.000161543
0.000135209
0.000117017
0.000103006
9.15106e-05
8.2541e-05
7.67673e-05
7.4916e-05
7.73405e-05
8.34293e-05
9.073e-05
9.57363e-05
0.00010549
0.000157231
0.000757445
0.00681643
0.00541807
0.00100941
0.000699005
0.00102343
0.00124509
0.000780452
0.000415468
0.00035311
0.000353081
0.000364575
0.000375246
0.000383876
0.000391873
0.000401241
0.000414218
0.000433027
0.000458818
0.000486627
0.000503297
0.000494216
0.000460356
0.000412709
0.0003632
0.000319019
0.000284168
0.000258416
0.000240519
0.000229272
0.000224673
0.000227541
0.000238931
0.000259509
0.000288595
0.000322561
0.000353481
0.000373687
0.000375265
0.000454743
0.00149116
0.0102377
0.00776596
0.0010461
0.00133536
0.000997889
0.000887428
0.000936925
0.00100844
0.00106393
0.00109903
0.00111792
0.00112558
0.00112613
0.00112289
0.00111841
0.00111354
0.0011058
0.00108986
0.00106209
0.00102453
0.000982873
0.000941935
0.000904053
0.000870914
0.000844224
0.000826166
0.000819406
0.000827059
0.000852478
0.000898814
0.000967902
0.00105771
0.00115804
0.00124832
0.00131424
0.00130273
0.00138994
0.00239854
0.00785282
0.00476953
0.00358274
0.00346024
0.00252562
0.00240693
0.00259504
0.00280211
0.00295058
0.00303555
0.00307178
0.00307411
0.00305421
0.00302206
0.0029879
0.00296167
0.00294899
0.0029456
0.00293695
0.00291217
0.00287195
0.0028222
0.00276739
0.00271193
0.0026619
0.00262505
0.0026096
0.00262432
0.00267864
0.00278252
0.0029447
0.00316638
0.00342524
0.00364734
0.00368731
0.003489
0.00318696
0.00332414
0.00424819
0.00281007
0.000797544
0.000952668
0.00143862
0.00180609
0.00190514
0.00193685
0.00196049
0.00197941
0.00199104
0.0019965
0.00199825
0.00199855
0.00199925
0.00200165
0.00200599
0.0020106
0.00201172
0.00200509
0.00198925
0.0019663
0.00193994
0.00191359
0.00188992
0.00187096
0.00185846
0.00185407
0.00185939
0.00187589
0.00190448
0.00194475
0.00199361
0.00204306
0.0020773
0.00207335
0.00202605
0.00196605
0.0019993
0.00218844
0.00231968
0.0016617
)
;

boundaryField
{
    floor
    {
        Cmu             0.09;
        kappa           0.41;
        E               9.8;
        type            epsilonWallFunction;
        value           nonuniform List<scalar> 
29
(
0.000128948
5.67938e-05
0.000128668
0.000150341
0.000149684
0.000133733
0.000115722
9.56352e-05
7.84029e-05
6.4885e-05
5.43949e-05
4.61799e-05
3.96499e-05
3.43481e-05
3.0001e-05
2.62604e-05
2.2829e-05
1.95281e-05
1.51517e-05
1.37421e-05
1.37421e-05
2.70399e-05
4.07564e-05
6.39607e-05
0.000128948
5.67938e-05
0.000205773
0.000199743
9.82041e-05
)
;
    }
    ceiling
    {
        Cmu             0.09;
        kappa           0.41;
        E               9.8;
        type            epsilonWallFunction;
        value           nonuniform List<scalar> 
43
(
0.000797544
0.000952668
0.00143862
0.00180609
0.00190514
0.00193685
0.00196049
0.00197941
0.00199104
0.0019965
0.00199825
0.00199855
0.00199925
0.00200165
0.00200599
0.0020106
0.00201172
0.00200509
0.00198925
0.0019663
0.00193994
0.00191359
0.00188992
0.00187096
0.00185846
0.00185407
0.00185939
0.00187589
0.00190448
0.00194475
0.00199361
0.00204306
0.0020773
0.00207335
0.00202605
0.00196605
0.0019993
0.00218844
0.00231968
0.0016617
0.00100941
0.000699005
0.00358274
)
;
    }
    sWall
    {
        Cmu             0.09;
        kappa           0.41;
        E               9.8;
        type            epsilonWallFunction;
        value           uniform 0.000797544;
    }
    nWall
    {
        Cmu             0.09;
        kappa           0.41;
        E               9.8;
        type            epsilonWallFunction;
        value           nonuniform List<scalar> 6(0.000344321 0.00081157 0.00205168 0.00476953 0.00281007 0.0016617);
    }
    sideWalls
    {
        type            empty;
    }
    glass1
    {
        Cmu             0.09;
        kappa           0.41;
        E               9.8;
        type            epsilonWallFunction;
        value           nonuniform List<scalar> 9(0.00034663 0.000580406 0.000675208 0.000716036 0.000779608 0.00083105 0.000884987 0.000916231 0.00100941);
    }
    glass2
    {
        Cmu             0.09;
        kappa           0.41;
        E               9.8;
        type            epsilonWallFunction;
        value           nonuniform List<scalar> 2(0.00541807 0.00776596);
    }
    sun
    {
        Cmu             0.09;
        kappa           0.41;
        E               9.8;
        type            epsilonWallFunction;
        value           nonuniform List<scalar> 
14
(
0.00034663
0.000660193
0.000700707
0.000628884
0.000549076
0.000480617
0.000423211
0.000375141
0.000334304
0.000298049
0.000264517
0.000232182
0.000199524
0.000164319
)
;
    }
    heatsource1
    {
        Cmu             0.09;
        kappa           0.41;
        E               9.8;
        type            epsilonWallFunction;
        value           nonuniform List<scalar> 3(8.68835e-05 0.000111425 0.000344321);
    }
    heatsource2
    {
        Cmu             0.09;
        kappa           0.41;
        E               9.8;
        type            epsilonWallFunction;
        value           nonuniform List<scalar> 4(0.000121389 8.60063e-05 8.60063e-05 9.07545e-05);
    }
    Table_master
    {
        Cmu             0.09;
        kappa           0.41;
        E               9.8;
        type            epsilonWallFunction;
        value           nonuniform List<scalar> 9(0.000217199 0.000150532 0.000107 7.82661e-05 5.88821e-05 4.54904e-05 3.60532e-05 2.95726e-05 2.54161e-05);
    }
    Table_slave
    {
        Cmu             0.09;
        kappa           0.41;
        E               9.8;
        type            epsilonWallFunction;
        value           nonuniform List<scalar> 9(0.000282102 0.000218647 0.00017575 0.000143319 0.000116726 9.38174e-05 7.35564e-05 5.54185e-05 3.86704e-05);
    }
    inlet
    {
        type            turbulentMixingLengthDissipationRateInlet;
        mixingLength    0.01;
        phi             phi;
        k               k;
        value           uniform 0.000101881;
    }
    outlet
    {
        type            zeroGradient;
    }
}


// ************************************************************************* //
