/*--------------------------------*- C++ -*----------------------------------*\
  =========                 |
  \\      /  F ield         | OpenFOAM: The Open Source CFD Toolbox
   \\    /   O peration     | Website:  https://openfoam.org
    \\  /    A nd           | Version:  6
     \\/     M anipulation  |
\*---------------------------------------------------------------------------*/
FoamFile
{
    version     2.0;
    format      ascii;
    class       volScalarField;
    location    "130";
    object      epsilon;
}
// * * * * * * * * * * * * * * * * * * * * * * * * * * * * * * * * * * * * * //

dimensions      [0 2 -3 0 0 0 0];

internalField   nonuniform List<scalar> 
459
(
0.000380793
0.000512543
0.000565454
0.000662897
0.000766873
0.000882594
0.00100567
0.00110254
0.00114925
0.00112881
0.00103743
0.000881936
0.000606715
0.000381226
0.000237937
6.80347e-05
0.000147307
0.000182393
0.000196795
0.000192707
0.000177257
0.00014802
0.00012032
9.83081e-05
8.13242e-05
6.81401e-05
5.77744e-05
4.95395e-05
4.28482e-05
3.7186e-05
3.21106e-05
2.72825e-05
2.0917e-05
1.67653e-05
0.000865003
0.00114782
0.000475433
0.000477219
0.000518465
0.000590112
0.000688219
0.000779836
0.000831591
0.00082463
0.000758738
0.000648518
0.00050687
0.00039858
0.000289081
0.000485483
0.000224918
0.000258603
0.000489751
0.000254479
0.000195389
0.000166364
0.000148268
0.00014764
0.000120799
9.57104e-05
7.58421e-05
6.05937e-05
4.89419e-05
4.00058e-05
3.31104e-05
2.79627e-05
2.50635e-05
2.79519e-05
2.695e-05
3.14095e-05
0.00148683
0.00253566
0.000542996
0.000453605
0.000506816
0.000612894
0.000750148
0.000864861
0.000921829
0.000914329
0.000845869
0.000729574
0.000604849
0.00049309
0.000389342
0.000368062
0.000478655
0.000325545
0.000366474
0.000267464
0.000217433
0.000184447
0.000172752
0.000379838
0.000250694
0.000171996
0.000122896
9.11622e-05
6.98932e-05
5.52402e-05
4.51147e-05
3.8472e-05
2.93566e-05
2.94477e-05
3.67946e-05
4.34985e-05
0.00230623
0.00504061
0.000783746
0.000466158
0.000527848
0.00069288
0.000885722
0.00100855
0.00105308
0.00103338
0.000950068
0.000828908
0.000695991
0.000574198
0.000476905
0.000414348
0.000399441
0.000741931
0.000526563
0.000373983
0.0002905
0.000239301
0.000204416
0.000195043
0.000509154
0.000377225
0.000296543
0.000241876
0.000201141
0.00016996
0.000143891
0.0001203
9.71722e-05
5.73252e-05
4.11411e-05
6.35908e-05
6.39892e-05
0.00341247
0.00887618
0.00143927
0.00055878
0.000610879
0.000925924
0.00115692
0.00124688
0.00125524
0.00120517
0.0010975
0.000945132
0.000774928
0.000618071
0.000494874
0.000411829
0.000372786
0.000369975
0.000342357
0.000315714
0.000287157
0.000256641
0.000225846
0.000199458
0.000195974
0.000179545
0.000162712
0.00014665
0.000131142
0.000116414
0.000101829
8.72036e-05
7.26851e-05
5.63351e-05
4.40488e-05
6.51429e-05
7.07304e-05
9.04347e-05
8.14182e-05
6.67397e-05
0.00494033
0.0132601
0.00314806
0.00102574
0.00099506
0.00151708
0.00162839
0.00161617
0.00155973
0.00145993
0.00130221
0.00109357
0.000866158
0.000659997
0.000502586
0.000403531
0.000361056
0.000354008
0.000352036
0.00034207
0.000321635
0.000292376
0.000258083
0.000223801
0.000197326
0.000178143
0.000163209
0.000149205
0.000134729
0.000119502
0.000103719
8.78767e-05
7.28282e-05
5.97652e-05
4.95672e-05
5.53016e-05
6.85707e-05
7.40902e-05
0.000139212
0.000107711
0.00667989
0.0160214
0.00666681
0.00317685
0.00286817
0.00262112
0.0023682
0.0021607
0.00199092
0.00180863
0.00157174
0.00128253
0.000980854
0.000718678
0.000530905
0.000425347
0.000390719
0.00039508
0.000401427
0.000394084
0.000371438
0.000337576
0.000298486
0.000260405
0.000229794
0.000208354
0.00019175
0.000175807
0.000159032
0.000141386
0.000123644
0.000107039
9.25256e-05
8.11727e-05
7.31584e-05
7.05612e-05
7.67398e-05
8.38225e-05
0.000210625
0.000162065
0.00709985
0.0180264
0.0101477
0.00701095
0.00522398
0.00402337
0.00328217
0.00284095
0.00254453
0.00225627
0.00190411
0.00150183
0.00110638
0.000787346
0.000585094
0.000490548
0.000468983
0.000478179
0.000482181
0.000470018
0.000441752
0.00040482
0.000366604
0.000332405
0.000305122
0.000283464
0.000263071
0.000241002
0.000217286
0.000194099
0.000173909
0.000159114
0.000152062
0.000153807
0.000167583
0.000185192
0.000221458
0.000284151
0.00120019
0.000286499
0.00661361
0.0110649
0.00921923
0.00709898
0.00552964
0.00451376
0.00389563
0.00351826
0.00319494
0.00277261
0.00223124
0.00167598
0.00119059
0.000861517
0.000716579
0.000660375
0.000650726
0.000656273
0.000654472
0.000638108
0.000614624
0.000588474
0.000563553
0.000541686
0.000521369
0.000498254
0.00046769
0.000427039
0.000377288
0.000323725
0.000274876
0.000242044
0.000227479
0.000237568
0.000275668
0.00034269
0.000443427
0.000579621
0.000730249
0.000398005
0.0038846
0.00555225
0.00502254
0.00470249
0.00453541
0.00427684
0.00375759
0.00298028
0.00212957
0.00163719
0.00136872
0.0012405
0.00119288
0.0011874
0.00120085
0.00121752
0.00122916
0.00123425
0.00123442
0.00123437
0.00123541
0.00123604
0.00123136
0.00121117
0.00116782
0.00109504
0.00099088
0.000863394
0.000720656
0.000574785
0.00045238
0.000374999
0.000354172
0.000390882
0.00047676
0.000594588
0.000755555
0.000833487
0.00222487
0.00378193
0.00529267
0.00613246
0.00649216
0.00618875
0.0053755
0.00436965
0.00355633
0.00307046
0.00281929
0.00272139
0.00271554
0.00275988
0.00283483
0.00292565
0.00301725
0.0030996
0.00317128
0.00323454
0.00329124
0.0033403
0.00337767
0.00339741
0.00338578
0.0033244
0.00319255
0.00297085
0.00265702
0.00227035
0.00184791
0.0014462
0.00111718
0.000890341
0.000764845
0.000727975
0.00179584
0.00130392
0.000991301
0.00124688
0.00159215
0.00194294
0.00237139
0.00285277
0.00314688
0.00316856
0.00299424
0.002784
0.00253557
0.00233744
0.00221157
0.00214208
0.0021104
0.00210111
0.00210129
0.00210182
0.00209846
0.00209099
0.00208075
0.00206878
0.00205472
0.00203694
0.00201225
0.00197538
0.00192082
0.00184349
0.00174062
0.00161471
0.00147258
0.00132443
0.00118222
0.00105577
0.000951591
0.000871056
0.000808604
0.000761572
0.00091525
0.00083994
)
;

boundaryField
{
    floor
    {
        Cmu             0.09;
        kappa           0.41;
        E               9.8;
        type            epsilonWallFunction;
        value           nonuniform List<scalar> 
29
(
0.000237937
6.80347e-05
0.000147307
0.000182393
0.000196795
0.000192707
0.000177257
0.00014802
0.00012032
9.83081e-05
8.13242e-05
6.81401e-05
5.77744e-05
4.95395e-05
4.28482e-05
3.7186e-05
3.21106e-05
2.72825e-05
2.0917e-05
1.67653e-05
1.67653e-05
3.14095e-05
4.34985e-05
6.39892e-05
0.000237937
6.80347e-05
0.000258603
0.000325545
0.000741931
)
;
    }
    ceiling
    {
        Cmu             0.09;
        kappa           0.41;
        E               9.8;
        type            epsilonWallFunction;
        value           nonuniform List<scalar> 
43
(
0.000991301
0.00124688
0.00159215
0.00194294
0.00237139
0.00285277
0.00314688
0.00316856
0.00299424
0.002784
0.00253557
0.00233744
0.00221157
0.00214208
0.0021104
0.00210111
0.00210129
0.00210182
0.00209846
0.00209099
0.00208075
0.00206878
0.00205472
0.00203694
0.00201225
0.00197538
0.00192082
0.00184349
0.00174062
0.00161471
0.00147258
0.00132443
0.00118222
0.00105577
0.000951591
0.000871056
0.000808604
0.000761572
0.00091525
0.00083994
0.00661361
0.0110649
0.00222487
)
;
    }
    sWall
    {
        Cmu             0.09;
        kappa           0.41;
        E               9.8;
        type            epsilonWallFunction;
        value           uniform 0.000991301;
    }
    nWall
    {
        Cmu             0.09;
        kappa           0.41;
        E               9.8;
        type            epsilonWallFunction;
        value           nonuniform List<scalar> 6(6.67397e-05 0.000107711 0.000162065 0.000833487 0.00130392 0.00083994);
    }
    sideWalls
    {
        type            empty;
    }
    glass1
    {
        Cmu             0.09;
        kappa           0.41;
        E               9.8;
        type            epsilonWallFunction;
        value           nonuniform List<scalar> 9(0.000380793 0.000865003 0.00148683 0.00230623 0.00341247 0.00494033 0.00667989 0.00709985 0.00661361);
    }
    glass2
    {
        Cmu             0.09;
        kappa           0.41;
        E               9.8;
        type            epsilonWallFunction;
        value           nonuniform List<scalar> 2(0.000286499 0.000398005);
    }
    sun
    {
        Cmu             0.09;
        kappa           0.41;
        E               9.8;
        type            epsilonWallFunction;
        value           nonuniform List<scalar> 
14
(
0.000380793
0.000512543
0.000565454
0.000662897
0.000766873
0.000882594
0.00100567
0.00110254
0.00114925
0.00112881
0.00103743
0.000881936
0.000606715
0.000381226
)
;
    }
    heatsource1
    {
        Cmu             0.09;
        kappa           0.41;
        E               9.8;
        type            epsilonWallFunction;
        value           nonuniform List<scalar> 3(9.04347e-05 8.14182e-05 6.67397e-05);
    }
    heatsource2
    {
        Cmu             0.09;
        kappa           0.41;
        E               9.8;
        type            epsilonWallFunction;
        value           nonuniform List<scalar> 4(0.000485483 0.000224918 0.000224918 0.000478655);
    }
    Table_master
    {
        Cmu             0.09;
        kappa           0.41;
        E               9.8;
        type            epsilonWallFunction;
        value           nonuniform List<scalar> 9(0.000379838 0.000250694 0.000171996 0.000122896 9.11622e-05 6.98932e-05 5.52402e-05 4.51147e-05 3.8472e-05);
    }
    Table_slave
    {
        Cmu             0.09;
        kappa           0.41;
        E               9.8;
        type            epsilonWallFunction;
        value           nonuniform List<scalar> 9(0.000509154 0.000377225 0.000296543 0.000241876 0.000201141 0.00016996 0.000143891 0.0001203 9.71722e-05);
    }
    inlet
    {
        type            turbulentMixingLengthDissipationRateInlet;
        mixingLength    0.01;
        phi             phi;
        k               k;
        value           uniform 3.01869e-05;
    }
    outlet
    {
        type            zeroGradient;
    }
}


// ************************************************************************* //
