/*--------------------------------*- C++ -*----------------------------------*\
  =========                 |
  \\      /  F ield         | OpenFOAM: The Open Source CFD Toolbox
   \\    /   O peration     | Website:  https://openfoam.org
    \\  /    A nd           | Version:  6
     \\/     M anipulation  |
\*---------------------------------------------------------------------------*/
FoamFile
{
    version     2.0;
    format      ascii;
    class       volScalarField;
    location    "700";
    object      alphat;
}
// * * * * * * * * * * * * * * * * * * * * * * * * * * * * * * * * * * * * * //

dimensions      [1 -1 -1 0 0 0 0];

internalField   nonuniform List<scalar> 
459
(
0.000929384
0.000985113
0.000783017
0.000698467
0.000685497
0.000685409
0.000688821
0.000693811
0.000699752
0.000706212
0.00071251
0.000717559
0.000719905
0.000716678
0.00069871
0.000480071
0.000480745
0.000454284
0.000435374
0.000416547
0.000405519
0.00039258
0.000390999
0.000396683
0.000406386
0.000413518
0.000411377
0.000403986
0.000391945
0.000375207
0.000356704
0.000333424
0.000309605
0.000280747
0.00167607
0.0041865
0.002495
0.00280941
0.00335771
0.00357153
0.00364256
0.00364946
0.00361553
0.00354428
0.00342737
0.00324356
0.00295411
0.00249543
0.00179062
0.000809576
0.000577665
0.000602722
0.00170044
0.00182179
0.00168142
0.00145844
0.00124802
0.00100352
0.00107359
0.00123388
0.00139295
0.00148047
0.00147386
0.00137057
0.00121227
0.00104676
0.000993485
0.00075617
0.000568584
0.000301123
0.00231078
0.00754612
0.00441113
0.00360134
0.00415002
0.00475591
0.00513153
0.00528579
0.00528575
0.005172
0.00495865
0.00463616
0.00417474
0.00353322
0.00269576
0.00175636
0.000904653
0.000793088
0.0024349
0.00227153
0.00179234
0.00128544
0.000816598
0.000400316
0.000410678
0.000431622
0.0004499
0.000464226
0.000473738
0.000480742
0.000497529
0.000537978
0.00130437
0.00116827
0.000893693
0.000372091
0.00285035
0.0111092
0.00764598
0.00544013
0.00474649
0.00494437
0.00555185
0.0060516
0.0063132
0.00636427
0.0062569
0.00600988
0.00560278
0.00498474
0.00410205
0.00296553
0.00178632
0.00103218
0.00295426
0.00344927
0.00291489
0.00223755
0.00163245
0.00113264
0.000777627
0.000762685
0.000749954
0.000738244
0.000728495
0.000722066
0.000721062
0.000729247
0.000753943
0.00182659
0.00174251
0.00160092
0.000674789
0.00328703
0.0139523
0.0111632
0.00834479
0.00641377
0.00532917
0.00543458
0.00611067
0.00678186
0.00719084
0.0073816
0.00743294
0.00738816
0.00726115
0.00705032
0.00675038
0.00638096
0.00605572
0.00616769
0.00592626
0.00560307
0.005299
0.00500876
0.00473577
0.0044904
0.00431666
0.00413822
0.00394631
0.00373892
0.00351527
0.00327589
0.00302343
0.00276134
0.0024917
0.00211089
0.00173971
0.00138036
0.000840635
0.000825839
0.000734009
0.00371747
0.0146786
0.0124799
0.0102899
0.00831413
0.00653434
0.00543398
0.00564817
0.00656077
0.00737303
0.00790681
0.00824064
0.00845377
0.00858786
0.00865625
0.00865198
0.00855613
0.00836322
0.00811712
0.00782762
0.00754815
0.00729377
0.00705394
0.00681806
0.0065751
0.00632125
0.00605285
0.00576885
0.00546788
0.00514755
0.00480418
0.00443351
0.00403213
0.00359979
0.00314494
0.00269564
0.00228459
0.00193489
0.00162614
0.00106984
0.00370839
0.0120046
0.0112463
0.0108006
0.00931766
0.00752651
0.0059688
0.00520882
0.00581408
0.0068608
0.00770451
0.0082972
0.00872615
0.00904895
0.00928589
0.00943838
0.00948571
0.00941415
0.00924725
0.00903109
0.00880257
0.00857422
0.0083457
0.00811096
0.0078622
0.00759604
0.0073136
0.00701677
0.00670741
0.00638692
0.00605562
0.00571212
0.00535235
0.0049676
0.00454282
0.00405753
0.00349836
0.0029071
0.00234635
0.00128194
0.00355093
0.00591004
0.0113857
0.011752
0.0101194
0.00813004
0.00645074
0.00541819
0.00530126
0.0060138
0.00692851
0.00766704
0.00824776
0.00872881
0.00913248
0.00944823
0.00964979
0.00973147
0.00970707
0.00960913
0.0094692
0.00930384
0.00912043
0.00892101
0.00870393
0.00846724
0.00821107
0.00793726
0.00764874
0.00734888
0.0070409
0.00672753
0.00641023
0.00608741
0.00575113
0.00537816
0.00490736
0.00424841
0.00350281
0.00144556
0.00345219
0.00552094
0.025877
0.018363
0.0121214
0.00901982
0.00725714
0.00631655
0.00603819
0.00623198
0.00665441
0.00713921
0.0076221
0.00808437
0.00851586
0.00890131
0.00921659
0.00943718
0.00955889
0.00959663
0.00957204
0.00950299
0.00939882
0.00926771
0.00911315
0.00893532
0.00873378
0.00850983
0.00826599
0.00800507
0.00772968
0.00744205
0.00714398
0.00683669
0.00652048
0.00619051
0.0058201
0.00532884
0.00452972
0.00160179
0.0337857
0.0252411
0.0128124
0.0094819
0.00818314
0.00739828
0.00709373
0.00714122
0.00738969
0.00770646
0.0080245
0.00831978
0.00858906
0.00883388
0.00905131
0.00923341
0.00937243
0.00946646
0.00951801
0.00952871
0.00949896
0.00943884
0.00935098
0.009235
0.00909231
0.00892593
0.0087389
0.00853338
0.00831044
0.00807003
0.00781121
0.0075323
0.00723076
0.00690087
0.00652253
0.00602455
0.00508178
0.00179691
0.00983036
0.0178047
0.0123844
0.00926683
0.00759013
0.0068987
0.00684958
0.00720656
0.00773882
0.00823551
0.00861977
0.00888424
0.00905704
0.00917256
0.00925611
0.00932072
0.00937091
0.00940772
0.00943193
0.00944511
0.0094478
0.00943829
0.00940702
0.00934368
0.00925475
0.00914663
0.00902366
0.00888768
0.00873819
0.00857262
0.00838657
0.00817371
0.00792507
0.00762686
0.00725519
0.0067545
0.00597299
0.00203664
0.00155331
0.00209963
0.00607918
0.00551101
0.00463225
0.00389883
0.00334425
0.00293202
0.00263307
0.00242837
0.00230396
0.00224448
0.00222412
0.00222079
0.002221
0.00221895
0.00221338
0.00220484
0.00219423
0.00218229
0.0021695
0.00215627
0.00214286
0.00212915
0.00211548
0.00210228
0.00208845
0.00207362
0.00205779
0.00204104
0.00202338
0.00200462
0.00198438
0.00196196
0.00193627
0.00190553
0.00186669
0.00181481
0.00174906
0.00150499
)
;

boundaryField
{
    floor
    {
        type            compressible::alphatWallFunction;
        Prt             0.85;
        value           nonuniform List<scalar> 
29
(
9.91759e-05
6.62755e-05
6.63632e-05
6.22699e-05
5.93336e-05
5.6392e-05
5.46568e-05
5.2617e-05
5.23656e-05
5.32604e-05
5.4786e-05
5.5906e-05
5.55714e-05
5.44126e-05
5.25159e-05
4.9865e-05
4.69173e-05
4.31805e-05
3.93223e-05
3.45958e-05
3.45953e-05
3.79596e-05
4.94103e-05
9.56318e-05
9.91747e-05
6.62747e-05
8.49066e-05
0.000112917
0.000147019
)
;
    }
    ceiling
    {
        type            compressible::alphatWallFunction;
        Prt             0.85;
        value           nonuniform List<scalar> 
43
(
0.000218746
0.000290704
0.000774483
0.000708092
0.000604072
0.000515738
0.000447823
0.000396589
0.00035896
0.000332927
0.000316981
0.000309314
0.000306674
0.00030623
0.000306246
0.000305973
0.000305248
0.00030414
0.000302766
0.000301219
0.000299562
0.000297847
0.000296107
0.000294328
0.000292553
0.000290837
0.000289039
0.000287109
0.000285048
0.000282866
0.000280562
0.000278115
0.000275471
0.00027254
0.000269178
0.000265149
0.00026005
0.000253223
0.000244543
0.000212003
0.000460896
0.000708387
0.00119985
)
;
    }
    sWall
    {
        type            compressible::alphatWallFunction;
        Prt             0.85;
        value           uniform 0.000217918;
    }
    nWall
    {
        type            compressible::alphatWallFunction;
        Prt             0.85;
        value           nonuniform List<scalar> 6(0.00010415 0.000152161 0.000181526 0.000250614 0.000281989 0.000211755);
    }
    sideWalls
    {
        type            empty;
    }
    glass1
    {
        type            compressible::alphatWallFunction;
        Prt             0.85;
        value           nonuniform List<scalar> 9(0.000129358 0.000230324 0.000312396 0.000380423 0.0004346 0.000487282 0.000486587 0.000467542 0.000455679);
    }
    glass2
    {
        type            compressible::alphatWallFunction;
        Prt             0.85;
        value           nonuniform List<scalar> 2(0.000203658 0.000224629);
    }
    sun
    {
        type            compressible::alphatWallFunction;
        Prt             0.85;
        value           nonuniform List<scalar> 
14
(
0.0001324
0.00014026
0.000111385
9.90828e-05
9.71894e-05
9.71848e-05
9.76938e-05
9.84338e-05
9.93126e-05
0.000100266
0.000101194
0.000101937
0.000102283
0.000101812
)
;
    }
    heatsource1
    {
        type            compressible::alphatWallFunction;
        Prt             0.85;
        value           nonuniform List<scalar> 3(0.000119781 0.000117665 0.000104215);
    }
    heatsource2
    {
        type            compressible::alphatWallFunction;
        Prt             0.85;
        value           nonuniform List<scalar> 4(0.000115312 8.11567e-05 8.11557e-05 0.000128949);
    }
    Table_master
    {
        type            compressible::alphatWallFunction;
        Prt             0.85;
        value           nonuniform List<scalar> 9(5.38731e-05 5.55023e-05 5.8782e-05 6.16288e-05 6.38518e-05 6.5322e-05 6.63995e-05 6.89731e-05 7.51377e-05);
    }
    Table_slave
    {
        type            compressible::alphatWallFunction;
        Prt             0.85;
        value           nonuniform List<scalar> 9(0.000110683 0.000108508 0.000106652 0.000104941 0.000103514 0.00010257 0.00010242 0.000103614 0.000107214);
    }
    inlet
    {
        type            fixedValue;
        value           uniform 1.94e-05;
    }
    outlet
    {
        type            zeroGradient;
    }
}


// ************************************************************************* //
