// -*- C++ -*-
// File generated by PyFoam - sorry for the ugliness

FoamFile
{
 version 2.0;
 format ascii;
 class volScalarField;
 location "600";
 object T;
}

dimensions [ 0 0 0 1 0 0 0 ];

internalField nonuniform List<scalar> 459
(
  303.604
  303.343
  303.331
  303.328
  303.325
  303.321
  303.317
  303.312
  303.305
  303.296
  303.284
  303.271
  303.26
  303.252
  303.249
  303.31
  303.29
  303.283
  303.283
  303.285
  303.287
  303.289
  303.291
  303.293
  303.295
  303.297
  303.299
  303.3
  303.302
  303.304
  303.305
  303.307
  303.309
  303.324
  303.784
  303.386
  303.364
  303.367
  303.371
  303.374
  303.373
  303.37
  303.36
  303.341
  303.316
  303.289
  303.265
  303.247
  303.236
  303.229
  303.225
  303.309
  303.279
  303.273
  303.273
  303.274
  303.275
  303.275
  303.274
  303.274
  303.273
  303.273
  303.272
  303.272
  303.271
  303.272
  303.273
  303.277
  303.282
  303.307
  303.97
  303.436
  303.398
  303.41
  303.424
  303.437
  303.445
  303.446
  303.433
  303.404
  303.361
  303.315
  303.277
  303.25
  303.235
  303.229
  303.228
  303.259
  303.261
  303.266
  303.272
  303.277
  303.28
  303.278
  303.277
  303.275
  303.274
  303.272
  303.27
  303.269
  303.267
  303.266
  303.267
  303.268
  303.272
  303.3
  304.157
  303.498
  303.432
  303.448
  303.475
  303.503
  303.525
  303.535
  303.521
  303.476
  303.41
  303.34
  303.285
  303.249
  303.231
  303.228
  303.23
  303.239
  303.247
  303.259
  303.272
  303.283
  303.292
  303.298
  303.303
  303.307
  303.311
  303.314
  303.316
  303.317
  303.318
  303.318
  303.317
  303.299
  303.283
  303.276
  303.298
  304.336
  303.575
  303.47
  303.479
  303.514
  303.556
  303.597
  303.622
  303.602
  303.537
  303.446
  303.353
  303.285
  303.243
  303.225
  303.224
  303.232
  303.244
  303.259
  303.276
  303.293
  303.307
  303.318
  303.326
  303.332
  303.338
  303.342
  303.345
  303.346
  303.346
  303.343
  303.339
  303.332
  303.318
  303.298
  303.283
  303.293
  303.354
  303.394
  303.401
  304.497
  303.676
  303.538
  303.521
  303.55
  303.596
  303.657
  303.686
  303.65
  303.563
  303.452
  303.349
  303.271
  303.227
  303.212
  303.218
  303.236
  303.257
  303.28
  303.302
  303.321
  303.337
  303.348
  303.356
  303.362
  303.367
  303.37
  303.372
  303.371
  303.369
  303.363
  303.356
  303.346
  303.332
  303.313
  303.294
  303.292
  303.318
  303.332
  303.365
  304.641
  303.837
  303.697
  303.653
  303.655
  303.684
  303.735
  303.732
  303.661
  303.543
  303.413
  303.302
  303.228
  303.195
  303.195
  303.216
  303.248
  303.281
  303.312
  303.337
  303.356
  303.37
  303.38
  303.386
  303.39
  303.394
  303.395
  303.395
  303.393
  303.389
  303.381
  303.37
  303.359
  303.344
  303.327
  303.308
  303.3
  303.308
  303.316
  303.344
  304.854
  304.253
  304.098
  303.992
  303.928
  303.905
  303.863
  303.759
  303.605
  303.438
  303.295
  303.197
  303.152
  303.151
  303.182
  303.228
  303.277
  303.32
  303.355
  303.377
  303.391
  303.401
  303.408
  303.412
  303.415
  303.416
  303.417
  303.415
  303.413
  303.408
  303.4
  303.389
  303.377
  303.365
  303.351
  303.338
  303.335
  303.346
  303.365
  303.492
  305.157
  304.878
  304.617
  304.385
  304.196
  304.031
  303.818
  303.553
  303.311
  303.137
  303.046
  303.026
  303.059
  303.124
  303.199
  303.273
  303.335
  303.372
  303.395
  303.41
  303.42
  303.427
  303.431
  303.434
  303.436
  303.437
  303.436
  303.435
  303.434
  303.432
  303.431
  303.433
  303.436
  303.444
  303.46
  303.484
  303.517
  303.549
  303.571
  303.624
  296.747
  299.159
  300.553
  301.122
  301.475
  301.816
  302.142
  302.436
  302.686
  302.889
  303.053
  303.201
  303.297
  303.356
  303.393
  303.415
  303.428
  303.437
  303.443
  303.448
  303.451
  303.454
  303.456
  303.457
  303.459
  303.46
  303.462
  303.464
  303.467
  303.47
  303.476
  303.485
  303.499
  303.519
  303.542
  303.564
  303.58
  303.597
  297.388
  299.417
  300.563
  301.282
  301.773
  302.153
  302.492
  302.77
  302.982
  303.138
  303.251
  303.33
  303.38
  303.411
  303.431
  303.443
  303.45
  303.456
  303.46
  303.464
  303.467
  303.469
  303.472
  303.474
  303.477
  303.479
  303.481
  303.484
  303.486
  303.489
  303.494
  303.501
  303.511
  303.524
  303.539
  303.556
  303.552
  303.579
  299.704
  299.627
  299.622
  301.326
  302.075
  302.474
  302.745
  302.945
  303.092
  303.2
  303.28
  303.338
  303.379
  303.407
  303.424
  303.435
  303.442
  303.447
  303.451
  303.455
  303.458
  303.462
  303.465
  303.469
  303.472
  303.475
  303.478
  303.481
  303.484
  303.487
  303.49
  303.493
  303.497
  303.502
  303.508
  303.518
  303.527
  303.532
  303.533
  303.571
)
;

boundaryField
{
  floor
  {
    type wallHeatTransfer;
    Tinf uniform 305.2;
    alphaWall uniform 0.24;
    value nonuniform List<scalar> 29
(
  303.439
  303.682
  303.617
  303.59
  303.596
  303.607
  303.62
  303.636
  303.652
  303.669
  303.684
  303.7
  303.714
  303.728
  303.741
  303.754
  303.768
  303.783
  303.794
  303.829
  303.829
  303.736
  303.69
  303.663
  303.439
  303.682
  303.656
  303.474
  303.41
)
;
  }
  ceiling
  {
    type wallHeatTransfer;
    Tinf uniform 303.2;
    alphaWall uniform 0.24;
    value nonuniform List<scalar> 43
(
  299.952
  299.869
  299.857
  301.443
  302.148
  302.524
  302.777
  302.964
  303.101
  303.2
  303.273
  303.325
  303.36
  303.382
  303.394
  303.401
  303.405
  303.408
  303.41
  303.413
  303.416
  303.419
  303.422
  303.426
  303.429
  303.433
  303.437
  303.44
  303.444
  303.448
  303.452
  303.457
  303.461
  303.467
  303.474
  303.485
  303.494
  303.498
  303.497
  303.528
  305.066
  304.811
  297.756
)
;
  }
  sWall
  {
    type wallHeatTransfer;
    Tinf uniform 315.2;
    alphaWall uniform 0.36;
    value uniform 301.299;
  }
  nWall
  {
    type wallHeatTransfer;
    Tinf uniform 307.2;
    alphaWall uniform 0.36;
    value nonuniform List<scalar> 6
(
  304.115
  304.066
  303.995
  304.12
  304.098
  304.16
)
;
  }
  sideWalls
  {
    type empty;
  }
  glass1
  {
    type wallHeatTransfer;
    Tinf uniform 315.2;
    alphaWall uniform 4.3;
    value nonuniform List<scalar> 9
(
  311.644
  311.001
  310.59
  310.274
  310.009
  309.77
  309.586
  309.652
  309.872
)
;
  }
  glass2
  {
    type wallHeatTransfer;
    Tinf uniform 307.2;
    alphaWall uniform 4.3;
    value nonuniform List<scalar> 2
(
  305.802
  305.895
)
;
  }
  sun
  {
    type wallHeatTransfer;
    Tinf uniform 305.2;
    alphaWall uniform 0.24;
    value nonuniform List<scalar> 14
(
  303.78
  303.535
  303.522
  303.512
  303.504
  303.496
  303.488
  303.479
  303.47
  303.459
  303.448
  303.439
  303.433
  303.433
)
;
  }
  heatsource1
  {
    type fixedGradient;
    gradient uniform 0;
  }
  heatsource2
  {
    type fixedGradient;
    gradient uniform 0;
  }
  Table_master
  {
    type zeroGradient;
  }
  Table_slave
  {
    type zeroGradient;
  }
  inlet
  {
    type fixedValue;
    value uniform 293.15;
  }
  outlet
  {
    type zeroGradient;
  }
} 	// ************************************************************************* //

