/*--------------------------------*- C++ -*----------------------------------*\
  =========                 |
  \\      /  F ield         | OpenFOAM: The Open Source CFD Toolbox
   \\    /   O peration     | Website:  https://openfoam.org
    \\  /    A nd           | Version:  6
     \\/     M anipulation  |
\*---------------------------------------------------------------------------*/
FoamFile
{
    version     2.0;
    format      ascii;
    class       volScalarField;
    location    "100";
    object      nut;
}
// * * * * * * * * * * * * * * * * * * * * * * * * * * * * * * * * * * * * * //

dimensions      [0 2 -1 0 0 0 0];

internalField   nonuniform List<scalar> 
459
(
0.000740647
0.000752987
0.000606899
0.000599657
0.000616479
0.000635427
0.00065567
0.000677446
0.000700218
0.000721474
0.000739742
0.000753196
0.000759784
0.000757002
0.000738172
0.000368727
0.0004058
0.000374322
0.00029377
0.000240826
0.000212418
0.000193643
0.000181785
0.000177739
0.00018511
0.000204849
0.000235825
0.000276914
0.000330792
0.000403717
0.000489944
0.000519423
0.000493048
0.000417926
0.0013587
0.00272589
0.00161474
0.00252555
0.00285025
0.00299288
0.00312497
0.00324826
0.0033546
0.00343424
0.00346434
0.0034081
0.00320353
0.00274674
0.00191356
0.00080122
0.000561907
0.000437993
0.00126647
0.00105528
0.000767808
0.000535022
0.000383387
0.000340251
0.000321747
0.000313056
0.000318723
0.000363553
0.00047118
0.000653113
0.000892677
0.00115261
0.00160443
0.00147747
0.00120788
0.000452387
0.00189449
0.00490767
0.00207424
0.00295497
0.00411799
0.00447375
0.00464983
0.00477865
0.0048748
0.00493021
0.0049177
0.00479238
0.00448448
0.00389985
0.00297524
0.00184112
0.000841398
0.000677358
0.0017298
0.00135277
0.000974402
0.000689252
0.000456261
0.000208533
0.000197695
0.000218243
0.000262466
0.000326059
0.000400394
0.00048255
0.000578281
0.000699778
0.00195908
0.00173629
0.00127207
0.000723775
0.00238053
0.00744679
0.0032929
0.00292147
0.00438939
0.0051032
0.00543023
0.00564491
0.005802
0.00592655
0.00600052
0.00597878
0.00578572
0.00530897
0.00442688
0.00313136
0.00175658
0.000947512
0.0021005
0.00234858
0.00207513
0.00174039
0.00142535
0.00109715
0.000779699
0.000777441
0.000774408
0.000770438
0.000767691
0.000770112
0.00078433
0.000821337
0.000901005
0.00270584
0.002797
0.00245111
0.00104327
0.00281285
0.0100099
0.0054646
0.00365444
0.00415755
0.00493063
0.00548989
0.0058906
0.00619971
0.00648509
0.00676431
0.0070144
0.00719461
0.00724899
0.00711737
0.00676221
0.00621237
0.00557594
0.00510744
0.00489837
0.004796
0.00476099
0.00471938
0.00458061
0.00441116
0.0042908
0.00414135
0.00395907
0.00375691
0.00356577
0.00342925
0.00338208
0.00342715
0.00355147
0.00351498
0.00338638
0.00296898
0.00126444
0.00107305
0.000980876
0.00320103
0.0121635
0.00851708
0.00581377
0.00470241
0.00455946
0.00495835
0.00546171
0.00591616
0.00636402
0.0068497
0.00735372
0.00783877
0.00825469
0.00854614
0.00866098
0.0085637
0.00826719
0.00785724
0.00744908
0.00719154
0.00704705
0.00691841
0.00677825
0.00660993
0.00640237
0.00613963
0.00581083
0.00541522
0.00497866
0.00456335
0.00424212
0.00404061
0.00391998
0.00382046
0.00368766
0.00344023
0.00312441
0.00210652
0.00117679
0.00351515
0.01319
0.0111623
0.00858059
0.00667875
0.00538765
0.00488928
0.00495351
0.00526036
0.00566654
0.00621883
0.00688143
0.00759652
0.00828404
0.00886501
0.00927029
0.00944555
0.00938816
0.00915609
0.00885665
0.00858882
0.00838073
0.00821436
0.00806724
0.00791576
0.00774168
0.00752885
0.007254
0.00688627
0.00640239
0.00582079
0.00522862
0.0047305
0.00436427
0.00408651
0.00381969
0.00348229
0.00305035
0.00254063
0.00113737
0.00350565
0.0112957
0.0102793
0.00984815
0.0084551
0.00695692
0.00587987
0.0052574
0.0049951
0.00503599
0.00532644
0.00585489
0.00658716
0.0074211
0.00822501
0.00888319
0.00929299
0.00946042
0.00942489
0.00926649
0.00907084
0.00888992
0.00873979
0.00861823
0.00851571
0.00842387
0.00833539
0.0082351
0.00809163
0.00785487
0.00747058
0.00692921
0.00627113
0.00559653
0.00499271
0.0044692
0.0039667
0.00348979
0.00310667
0.00154196
0.00332881
0.00382502
0.0103674
0.0109097
0.0093776
0.00777302
0.00652412
0.00566611
0.00513772
0.00487221
0.00483568
0.00504522
0.00550428
0.00616779
0.00692946
0.00765402
0.00822517
0.00859312
0.00876207
0.00877918
0.00870906
0.00860566
0.00850192
0.00841423
0.00834948
0.00831237
0.00830837
0.00833991
0.00839896
0.00845721
0.00845463
0.00831085
0.00803357
0.00770222
0.00745592
0.00724647
0.0067688
0.0058254
0.00590681
0.0016736
0.0226557
0.0195719
0.011211
0.00848247
0.00712078
0.00624084
0.00566218
0.00530651
0.00512631
0.0050965
0.00520869
0.00545864
0.00582527
0.00626607
0.00671673
0.00711169
0.00740482
0.00758287
0.00766223
0.00767291
0.00764449
0.00759993
0.00755638
0.00752861
0.00753122
0.00757776
0.00767645
0.00782127
0.00797396
0.00808047
0.00810455
0.00802394
0.00783325
0.00743805
0.00677242
0.00582876
0.00494507
0.00162317
0.00753669
0.0147842
0.0102696
0.00788015
0.00660439
0.00582278
0.00533171
0.00504129
0.0049006
0.00487711
0.00494696
0.00509132
0.0052938
0.00553608
0.00579404
0.00603881
0.00624427
0.00639561
0.00649195
0.00654231
0.00655909
0.00654746
0.006517
0.00648174
0.00645413
0.00644404
0.00645711
0.00649028
0.00651865
0.00653696
0.00652755
0.00646755
0.00627514
0.00591696
0.00538804
0.00464495
0.00438656
0.00148938
0.00186039
0.00299132
0.00535205
0.00473058
0.00378761
0.00309322
0.00260874
0.00226339
0.0020098
0.00181959
0.00167585
0.00156828
0.00149004
0.00143613
0.00140226
0.00138422
0.0013778
0.00137858
0.00138235
0.00138568
0.00138644
0.00138383
0.001378
0.00137039
0.00136169
0.00135219
0.00134236
0.00133272
0.00132369
0.00131552
0.00131021
0.00130599
0.00129925
0.00128497
0.00126353
0.00123778
0.00120495
0.00116364
0.00118055
0.00107928
)
;

boundaryField
{
    floor
    {
        type            nutkWallFunction;
        Cmu             0.09;
        kappa           0.41;
        E               9.8;
        value           nonuniform List<scalar> 
29
(
8.93909e-05
4.26389e-05
4.7535e-05
4.33881e-05
3.25461e-05
2.52063e-05
2.11796e-05
1.84759e-05
1.67476e-05
1.61508e-05
1.72234e-05
2.00769e-05
2.44844e-05
3.0215e-05
3.75608e-05
4.72574e-05
5.84351e-05
6.22023e-05
5.88348e-05
4.9114e-05
4.91139e-05
5.35923e-05
8.76425e-05
0.000125826
8.93909e-05
4.26388e-05
5.1732e-05
8.19512e-05
0.000114521
)
;
    }
    ceiling
    {
        type            nutkWallFunction;
        Cmu             0.09;
        kappa           0.41;
        E               9.8;
        value           nonuniform List<scalar> 
43
(
0.000218367
0.00033945
0.00057864
0.000516868
0.000421619
0.000349977
0.000299033
0.000262124
0.000234647
0.000213795
0.000197883
0.000185877
0.000177088
0.000171002
0.000167163
0.000165115
0.000164383
0.00016447
0.000164896
0.000165272
0.000165357
0.00016506
0.000164398
0.000163531
0.000162541
0.00016146
0.00016034
0.000159242
0.000158211
0.00015728
0.000156674
0.000156192
0.000155423
0.00015379
0.000151333
0.000148378
0.000144599
0.000139829
0.000141781
0.000130023
0.00037435
0.000425292
0.000790609
)
;
    }
    sWall
    {
        type            nutkWallFunction;
        Cmu             0.09;
        kappa           0.41;
        E               9.8;
        value           uniform 0.000218415;
    }
    nWall
    {
        type            nutkWallFunction;
        Cmu             0.09;
        kappa           0.41;
        E               9.8;
        value           nonuniform List<scalar> 6(0.000118484 0.000141356 0.000136792 0.000191978 0.000176985 0.000130031);
    }
    sideWalls
    {
        type            empty;
    }
    glass1
    {
        type            nutkWallFunction;
        Cmu             0.09;
        kappa           0.41;
        E               9.8;
        value           nonuniform List<scalar> 9(8.96751e-05 0.000162364 0.000222244 0.000274956 0.00032088 0.000361491 0.000393984 0.000393022 0.000374784);
    }
    glass2
    {
        type            nutkWallFunction;
        Cmu             0.09;
        kappa           0.41;
        E               9.8;
        value           nonuniform List<scalar> 2(0.000182954 0.000197653);
    }
    sun
    {
        type            nutkWallFunction;
        Cmu             0.09;
        kappa           0.41;
        E               9.8;
        value           nonuniform List<scalar> 
14
(
8.96951e-05
9.11986e-05
7.32071e-05
7.23028e-05
7.44019e-05
7.67581e-05
7.92659e-05
8.19535e-05
8.47526e-05
8.73556e-05
8.95853e-05
9.1223e-05
9.20234e-05
9.16845e-05
)
;
    }
    heatsource1
    {
        type            nutkWallFunction;
        Cmu             0.09;
        kappa           0.41;
        E               9.8;
        value           nonuniform List<scalar> 3(0.000151437 0.000129296 0.000118479);
    }
    heatsource2
    {
        type            nutkWallFunction;
        Cmu             0.09;
        kappa           0.41;
        E               9.8;
        value           nonuniform List<scalar> 4(9.70397e-05 6.7567e-05 6.7567e-05 0.000101874);
    }
    Table_master
    {
        type            nutkWallFunction;
        Cmu             0.09;
        kappa           0.41;
        E               9.8;
        value           nonuniform List<scalar> 9(2.06316e-05 1.90656e-05 2.19947e-05 2.81958e-05 3.68914e-05 4.67894e-05 5.74635e-05 6.96205e-05 8.47024e-05);
    }
    Table_slave
    {
        type            nutkWallFunction;
        Cmu             0.09;
        kappa           0.41;
        E               9.8;
        value           nonuniform List<scalar> 9(9.44515e-05 9.4181e-05 9.38156e-05 9.33355e-05 9.30025e-05 9.32949e-05 9.50148e-05 9.94784e-05 0.000109016);
    }
    inlet
    {
        type            calculated;
        value           uniform 0.0226557;
    }
    outlet
    {
        type            calculated;
        value           nonuniform List<scalar> 2(0.00186039 0.00299132);
    }
}


// ************************************************************************* //
