/*--------------------------------*- C++ -*----------------------------------*\
  =========                 |
  \\      /  F ield         | OpenFOAM: The Open Source CFD Toolbox
   \\    /   O peration     | Website:  https://openfoam.org
    \\  /    A nd           | Version:  6
     \\/     M anipulation  |
\*---------------------------------------------------------------------------*/
FoamFile
{
    version     2.0;
    format      ascii;
    class       volScalarField;
    location    "800";
    object      nut;
}
// * * * * * * * * * * * * * * * * * * * * * * * * * * * * * * * * * * * * * //

dimensions      [0 2 -1 0 0 0 0];

internalField   nonuniform List<scalar> 
459
(
0.00180539
0.00210151
0.00235811
0.00229049
0.00218149
0.00207138
0.0019685
0.00187293
0.00178382
0.00170332
0.00162681
0.00155042
0.0014695
0.00137585
0.00126308
0.000684232
0.000793783
0.000899098
0.00100001
0.00107803
0.0010902
0.00103486
0.000968192
0.000908064
0.000856002
0.000810877
0.000771559
0.000736841
0.000705694
0.000676792
0.00064823
0.000617256
0.000577209
0.000523876
0.00185646
0.00365243
0.00451708
0.00471659
0.00463437
0.00445718
0.00427088
0.00409719
0.00393074
0.00372231
0.00347921
0.00319802
0.00286461
0.00245033
0.00190568
0.00128353
0.0011467
0.000680954
0.0014825
0.00228974
0.00304773
0.00371464
0.00389623
0.00267942
0.00223318
0.00195013
0.00175298
0.0016098
0.0015032
0.00142394
0.00134791
0.00124454
0.00113111
0.00102795
0.00087035
0.00054033
0.00186001
0.00398991
0.0046018
0.00472995
0.00464883
0.0045348
0.00445047
0.00439272
0.00435538
0.00429995
0.00418729
0.00398349
0.00366351
0.00321197
0.00262981
0.00199134
0.00118958
0.000673941
0.00164064
0.00215163
0.00314349
0.00419228
0.00445038
0.00131574
0.00116032
0.00102371
0.000909016
0.000814176
0.000736182
0.000672321
0.000623863
0.000595753
0.000713096
0.000858596
0.000863542
0.000541769
0.00255677
0.00491858
0.00510027
0.00485834
0.00467928
0.00463454
0.00470848
0.00483523
0.00494421
0.00495435
0.00484055
0.00460068
0.00423958
0.0037622
0.00317856
0.00252095
0.00167475
0.00118063
0.00108658
0.00138272
0.00232596
0.00376668
0.00515537
0.00552933
0.00151904
0.00141591
0.00132888
0.00125548
0.00118795
0.00112006
0.00104802
0.000968792
0.000877058
0.000767272
0.000781822
0.000849174
0.000551673
0.0030463
0.006781
0.00569729
0.00489851
0.00486538
0.00519323
0.00572024
0.00612447
0.00612671
0.00591641
0.00559777
0.00521174
0.00476372
0.0042558
0.00369987
0.00311386
0.00247684
0.00218182
0.00221622
0.00290691
0.00430738
0.00594603
0.00730532
0.00799804
0.00734505
0.0067852
0.00636185
0.00583486
0.00518403
0.00445782
0.00368612
0.00288435
0.00206804
0.00134671
0.000975247
0.000918475
0.000661469
0.000551735
0.000505231
0.000549124
0.0030973
0.00830332
0.00541425
0.00492895
0.00636602
0.00717463
0.00748914
0.00737086
0.00704654
0.00666021
0.0062355
0.00580542
0.00535023
0.00487308
0.00440564
0.00399381
0.00367531
0.00381987
0.0046613
0.0061698
0.00782635
0.00917252
0.00999094
0.0102343
0.00995136
0.00946649
0.00879267
0.00792806
0.00692296
0.00583358
0.00470626
0.00357883
0.00249909
0.00160322
0.0011094
0.000990098
0.000798983
0.000751228
0.000854262
0.000617267
0.00305938
0.00703542
0.00453804
0.00563594
0.00746697
0.00827386
0.00841999
0.00823591
0.00784842
0.00745243
0.00707058
0.00670137
0.00633936
0.00598713
0.00572213
0.00566415
0.00595846
0.00697787
0.0085766
0.0101255
0.0112418
0.0118405
0.0119291
0.0115998
0.0110035
0.0102456
0.00929787
0.00821921
0.0070437
0.00581946
0.0046005
0.00344584
0.00242454
0.00164206
0.00118449
0.00104152
0.00088869
0.000892929
0.00117729
0.000742315
0.0029311
0.00516263
0.00394779
0.00576218
0.00738825
0.00839827
0.00871775
0.00877053
0.00867091
0.00846523
0.00824506
0.00804938
0.0078997
0.00783226
0.00792665
0.00832029
0.00918402
0.0104915
0.0118239
0.0127407
0.0130785
0.0129383
0.0123956
0.0115655
0.0105974
0.00958937
0.00852999
0.00741109
0.00625275
0.00509793
0.00400175
0.00302267
0.00221527
0.00162877
0.00127704
0.00113232
0.0010226
0.00105832
0.00195239
0.00114371
0.00268012
0.00291202
0.00357668
0.00666297
0.00723628
0.00804917
0.00849562
0.00880474
0.00902489
0.00915609
0.00921541
0.00929006
0.00942445
0.00966304
0.0100617
0.0106738
0.0114992
0.0123629
0.0129672
0.0131077
0.0127586
0.0120184
0.0110242
0.00992587
0.0088376
0.00780576
0.00681279
0.00584194
0.00490587
0.00403914
0.00327967
0.00265342
0.0021675
0.00181387
0.00157383
0.00143426
0.0013746
0.00162466
0.00331637
0.00143772
0.003021
0.00750761
0.0075608
0.00785904
0.00820755
0.00857783
0.00893563
0.00925746
0.00952203
0.0097758
0.0100708
0.0104237
0.0108341
0.0112712
0.0116523
0.0118295
0.0116781
0.0111705
0.0103886
0.0094691
0.00853914
0.00768417
0.00693678
0.00628823
0.00571716
0.00521466
0.00478454
0.00443102
0.00414836
0.00391745
0.00370905
0.0034925
0.00325036
0.00299779
0.00280696
0.00300773
0.00436685
0.00143798
0.00255644
0.00791445
0.00806496
0.00781835
0.00778052
0.00786779
0.00799866
0.00813452
0.00825919
0.00839239
0.00857059
0.00878393
0.00900759
0.00919908
0.0092976
0.00923904
0.0089972
0.00860408
0.00813203
0.00765452
0.00721934
0.00684515
0.00653172
0.00627276
0.0060635
0.0059023
0.0057874
0.00571269
0.00566428
0.0056187
0.00554301
0.00539925
0.00515837
0.00482841
0.00449482
0.00434216
0.00405776
0.00136754
0.00113637
0.00149697
0.00183883
0.00183483
0.00178483
0.00175792
0.00175628
0.00176556
0.00178058
0.00180061
0.00182661
0.00185581
0.00188336
0.00190763
0.00192631
0.00193639
0.00193484
0.00191996
0.00189324
0.00185917
0.00182349
0.00179084
0.00176363
0.00174237
0.00172653
0.00171528
0.00170779
0.00170331
0.00170091
0.00169928
0.0016966
0.00169062
0.00167916
0.00166129
0.00163972
0.00162332
0.00162295
0.00163388
0.00158669
0.00132471
)
;

boundaryField
{
    floor
    {
        type            nutkWallFunction;
        Cmu             0.09;
        kappa           0.41;
        E               9.8;
        value           nonuniform List<scalar> 
29
(
0.000151311
8.27769e-05
9.61479e-05
0.000108796
0.000120754
0.000129906
0.000131326
0.000124853
0.000117001
0.000109866
0.000103643
9.8214e-05
9.34542e-05
8.92274e-05
8.5415e-05
8.18592e-05
7.83271e-05
7.44755e-05
6.94602e-05
6.27139e-05
6.27138e-05
6.48028e-05
6.49851e-05
6.62392e-05
0.000151311
8.27769e-05
8.23747e-05
8.15117e-05
0.000141814
)
;
    }
    ceiling
    {
        type            nutkWallFunction;
        Cmu             0.09;
        kappa           0.41;
        E               9.8;
        value           nonuniform List<scalar> 
43
(
0.000136983
0.000178241
0.000216012
0.000215571
0.000210056
0.00020708
0.000206899
0.000207925
0.000209587
0.0002118
0.000214668
0.000217886
0.000220917
0.000223584
0.000225636
0.000226745
0.000226578
0.00022495
0.00022202
0.000218277
0.000214347
0.000210744
0.000207735
0.00020538
0.000203624
0.000202375
0.000201543
0.000201044
0.000200777
0.000200596
0.000200297
0.000199632
0.000198358
0.000196368
0.000193963
0.000192134
0.000192095
0.00019332
0.000188051
0.000158446
0.000306383
0.00033071
0.000293517
)
;
    }
    sWall
    {
        type            nutkWallFunction;
        Cmu             0.09;
        kappa           0.41;
        E               9.8;
        value           uniform 0.00013699;
    }
    nWall
    {
        type            nutkWallFunction;
        Cmu             0.09;
        kappa           0.41;
        E               9.8;
        value           nonuniform List<scalar> 6(6.59228e-05 7.44955e-05 8.99375e-05 0.000171365 0.000163352 0.000158453);
    }
    sideWalls
    {
        type            empty;
    }
    glass1
    {
        type            nutkWallFunction;
        Cmu             0.09;
        kappa           0.41;
        E               9.8;
        value           nonuniform List<scalar> 9(0.000212471 0.000218081 0.00021849 0.000293905 0.000345359 0.000350657 0.000346686 0.000333268 0.000306837);
    }
    glass2
    {
        type            nutkWallFunction;
        Cmu             0.09;
        kappa           0.41;
        E               9.8;
        value           nonuniform List<scalar> 2(0.000137661 0.000171343);
    }
    sun
    {
        type            nutkWallFunction;
        Cmu             0.09;
        kappa           0.41;
        E               9.8;
        value           nonuniform List<scalar> 
14
(
0.000212221
0.0002446
0.00027224
0.000264978
0.000253232
0.000241305
0.0002301
0.000219634
0.000209825
0.000200919
0.00019241
0.000183871
0.000174775
0.000164179
)
;
    }
    heatsource1
    {
        type            nutkWallFunction;
        Cmu             0.09;
        kappa           0.41;
        E               9.8;
        value           nonuniform List<scalar> 3(6.62441e-05 6.03336e-05 6.59203e-05);
    }
    heatsource2
    {
        type            nutkWallFunction;
        Cmu             0.09;
        kappa           0.41;
        E               9.8;
        value           nonuniform List<scalar> 4(0.00015365 0.00013789 0.00013789 0.00014285);
    }
    Table_master
    {
        type            nutkWallFunction;
        Cmu             0.09;
        kappa           0.41;
        E               9.8;
        value           nonuniform List<scalar> 9(0.000157347 0.000139477 0.000123545 0.000109979 9.8611e-05 8.91449e-05 8.13049e-05 7.52959e-05 7.17843e-05);
    }
    Table_slave
    {
        type            nutkWallFunction;
        Cmu             0.09;
        kappa           0.41;
        E               9.8;
        value           nonuniform List<scalar> 9(0.000180378 0.000168745 0.000158855 0.000150457 0.000142681 0.000134813 0.000126404 0.000117079 0.00010617);
    }
    inlet
    {
        type            calculated;
        value           uniform 0.000100623;
    }
    outlet
    {
        type            calculated;
        value           nonuniform List<scalar> 2(0.00113637 0.00149697);
    }
}


// ************************************************************************* //
