/*--------------------------------*- C++ -*----------------------------------*\
  =========                 |
  \\      /  F ield         | OpenFOAM: The Open Source CFD Toolbox
   \\    /   O peration     | Website:  https://openfoam.org
    \\  /    A nd           | Version:  6
     \\/     M anipulation  |
\*---------------------------------------------------------------------------*/
FoamFile
{
    version     2.0;
    format      ascii;
    class       volScalarField;
    location    "500";
    object      epsilon;
}
// * * * * * * * * * * * * * * * * * * * * * * * * * * * * * * * * * * * * * //

dimensions      [0 2 -3 0 0 0 0];

internalField   nonuniform List<scalar> 
459
(
0.000437745
0.0005695
0.000600449
0.000690598
0.000781565
0.000873335
0.000969529
0.00107211
0.00115002
0.00118628
0.00116607
0.00108384
0.000948366
0.000785253
0.000630521
3.67845e-05
6.76729e-05
9.52947e-05
9.23706e-05
8.26298e-05
7.12761e-05
5.89052e-05
4.82217e-05
3.97193e-05
3.30529e-05
2.78024e-05
2.36239e-05
2.0279e-05
1.75533e-05
1.52637e-05
1.32477e-05
1.13447e-05
1.01488e-05
7.70598e-06
0.00111405
0.00160951
0.000540136
0.000523538
0.000548343
0.00058784
0.000645045
0.000722252
0.000797426
0.000848028
0.000854394
0.000808326
0.000715388
0.000598284
0.000520472
0.000660482
0.000143963
4.74765e-05
0.000116025
0.000119779
0.000107184
9.01895e-05
7.47922e-05
6.64719e-05
5.38711e-05
4.28348e-05
3.40767e-05
2.72999e-05
2.20767e-05
1.80601e-05
1.49762e-05
1.27148e-05
1.13493e-05
1.07522e-05
2.52748e-05
1.75705e-05
0.00203795
0.00396082
0.0006774
0.00050257
0.000525457
0.000587918
0.000679648
0.000796475
0.000907919
0.000981164
0.00099676
0.000952121
0.000857097
0.000731523
0.000623309
0.000560797
0.000628441
0.000384601
0.000265265
0.000195961
0.000149167
0.000116284
9.67747e-05
0.000172742
0.000119441
8.55968e-05
6.34823e-05
4.85642e-05
3.81899e-05
3.0789e-05
2.54242e-05
2.15511e-05
1.63945e-05
1.36656e-05
4.54473e-05
2.73847e-05
0.0033079
0.00822825
0.00109089
0.000516268
0.000518389
0.000607285
0.000748764
0.000928879
0.00107815
0.00115955
0.0011664
0.00110685
0.000994632
0.000844752
0.000707009
0.000604883
0.000575219
0.00109928
0.000604036
0.000358577
0.000238195
0.0001705
0.000129151
0.000109882
0.000247588
0.000187617
0.000151352
0.000127175
0.000108796
9.34607e-05
8.01757e-05
6.76521e-05
5.48225e-05
3.24277e-05
2.1137e-05
7.14196e-05
3.70417e-05
0.00505797
0.0146443
0.00218595
0.000636699
0.000546922
0.00066264
0.000912018
0.00118838
0.00135443
0.00141397
0.00138831
0.00129517
0.00114686
0.000962151
0.000771663
0.000601419
0.000471668
0.000408254
0.000325471
0.000252495
0.000195227
0.000152405
0.000121394
0.000101472
9.79827e-05
9.11644e-05
8.4345e-05
7.76609e-05
7.06682e-05
6.32408e-05
5.59254e-05
4.90398e-05
4.27328e-05
3.40351e-05
2.59273e-05
5.2479e-05
4.12452e-05
6.9726e-05
0.000123387
0.000174237
0.00749008
0.0216974
0.00492692
0.00128021
0.000864795
0.000984685
0.00145366
0.00172362
0.00180831
0.00178778
0.00170158
0.00155732
0.00135626
0.00111367
0.000860813
0.00063276
0.000457904
0.000345922
0.000273212
0.000217915
0.000172898
0.000138042
0.000112902
9.68944e-05
8.9522e-05
8.63782e-05
8.43831e-05
8.18753e-05
7.78102e-05
7.1321e-05
6.23715e-05
5.30909e-05
4.46201e-05
3.70329e-05
3.1965e-05
4.09229e-05
4.26055e-05
5.31443e-05
0.000227353
0.000197811
0.0102944
0.025903
0.0100877
0.00417692
0.00285468
0.00273665
0.00280994
0.00270574
0.00252917
0.00234015
0.00214131
0.00190849
0.00162377
0.00129834
0.000968597
0.000677812
0.000461815
0.000325629
0.000244105
0.000190089
0.000150293
0.000121881
0.000103552
9.39331e-05
9.13571e-05
9.28388e-05
9.56594e-05
9.84332e-05
0.000100104
9.90717e-05
9.21948e-05
8.13487e-05
7.06164e-05
6.14766e-05
5.77123e-05
6.39617e-05
8.08512e-05
0.000128896
0.000299652
0.000291063
0.0109117
0.0281263
0.0157072
0.0107522
0.0080993
0.00631345
0.00497879
0.00406888
0.00346879
0.00305312
0.00270826
0.00234898
0.00193492
0.0014857
0.00105187
0.000683725
0.000429343
0.000281171
0.000198445
0.000153181
0.000124005
0.000105836
9.63356e-05
9.36893e-05
9.62403e-05
0.000102307
0.000110757
0.000121355
0.000134237
0.000149301
0.000165499
0.000175299
0.000183799
0.000202543
0.000242062
0.000361544
0.000665308
0.00126048
0.00373161
0.00111153
0.0100668
0.0168047
0.0133898
0.0101623
0.00783113
0.00627218
0.00526565
0.00462999
0.0041982
0.00381837
0.00338268
0.00283877
0.00219479
0.00154866
0.000985622
0.000540114
0.000311044
0.000204987
0.000150528
0.000120072
0.000102207
9.28101e-05
8.96901e-05
9.13823e-05
9.68928e-05
0.00010566
0.000117715
0.000133779
0.000155183
0.000183834
0.000222256
0.000274136
0.000345404
0.00045291
0.000611631
0.000828201
0.00107812
0.00129885
0.00146896
0.000923202
0.00373228
0.00575723
0.00659221
0.00666823
0.00646306
0.00607039
0.00545743
0.00463899
0.00368795
0.00265791
0.00159503
0.00089335
0.000494997
0.000279805
0.000178575
0.000130176
0.000105185
9.13917e-05
8.38646e-05
8.05346e-05
8.01771e-05
8.21467e-05
8.62403e-05
9.26127e-05
0.000101753
0.000114563
0.000132431
0.000157397
0.000192481
0.000242118
0.000311326
0.000406967
0.000532686
0.000677803
0.000805482
0.000865295
0.000824266
0.000528121
0.00283358
0.0064131
0.00714527
0.00590397
0.00528375
0.00460591
0.00369675
0.002741
0.00189855
0.00123758
0.000741872
0.000430295
0.000260272
0.000175452
0.000136513
0.000118856
0.000110654
0.000106629
0.000104499
0.000103358
0.000102952
0.000103408
0.000105195
0.00010887
0.000114953
0.000124238
0.000137936
0.000157886
0.000186823
0.000228202
0.000286575
0.000366552
0.000468716
0.000585233
0.000672624
0.000766243
0.000758974
0.000558654
0.0020117
0.00239316
0.00269215
0.00335052
0.00301843
0.00262812
0.00239786
0.00211481
0.00175466
0.00136627
0.00100062
0.000694193
0.000462395
0.000307485
0.000215284
0.000162377
0.000131075
0.000111671
9.93465e-05
9.16605e-05
8.72733e-05
8.5413e-05
8.57269e-05
8.82529e-05
9.2998e-05
9.98952e-05
0.000109313
0.000121817
0.000138286
0.000160172
0.000188084
0.000223334
0.000268037
0.000324865
0.000396233
0.000494133
0.000528775
0.000489423
0.000405388
0.000327241
)
;

boundaryField
{
    floor
    {
        Cmu             0.09;
        kappa           0.41;
        E               9.8;
        type            epsilonWallFunction;
        value           nonuniform List<scalar> 
29
(
0.000630521
3.67845e-05
6.76729e-05
9.52947e-05
9.23706e-05
8.26298e-05
7.12761e-05
5.89052e-05
4.82217e-05
3.97193e-05
3.30529e-05
2.78024e-05
2.36239e-05
2.0279e-05
1.75533e-05
1.52637e-05
1.32477e-05
1.13447e-05
1.01488e-05
7.70598e-06
7.70598e-06
1.75705e-05
2.73847e-05
3.70417e-05
0.000630521
3.67845e-05
4.74765e-05
0.000384601
0.00109928
)
;
    }
    ceiling
    {
        Cmu             0.09;
        kappa           0.41;
        E               9.8;
        type            epsilonWallFunction;
        value           nonuniform List<scalar> 
43
(
0.0020117
0.00239316
0.00269215
0.00335052
0.00301843
0.00262812
0.00239786
0.00211481
0.00175466
0.00136627
0.00100062
0.000694193
0.000462395
0.000307485
0.000215284
0.000162377
0.000131075
0.000111671
9.93465e-05
9.16605e-05
8.72733e-05
8.5413e-05
8.57269e-05
8.82529e-05
9.2998e-05
9.98952e-05
0.000109313
0.000121817
0.000138286
0.000160172
0.000188084
0.000223334
0.000268037
0.000324865
0.000396233
0.000494133
0.000528775
0.000489423
0.000405388
0.000327241
0.0100668
0.0168047
0.00283358
)
;
    }
    sWall
    {
        Cmu             0.09;
        kappa           0.41;
        E               9.8;
        type            epsilonWallFunction;
        value           uniform 0.0020117;
    }
    nWall
    {
        Cmu             0.09;
        kappa           0.41;
        E               9.8;
        type            epsilonWallFunction;
        value           nonuniform List<scalar> 6(0.000174237 0.000197811 0.000291063 0.000528121 0.000558654 0.000327241);
    }
    sideWalls
    {
        type            empty;
    }
    glass1
    {
        Cmu             0.09;
        kappa           0.41;
        E               9.8;
        type            epsilonWallFunction;
        value           nonuniform List<scalar> 9(0.000437745 0.00111405 0.00203795 0.0033079 0.00505797 0.00749008 0.0102944 0.0109117 0.0100668);
    }
    glass2
    {
        Cmu             0.09;
        kappa           0.41;
        E               9.8;
        type            epsilonWallFunction;
        value           nonuniform List<scalar> 2(0.00111153 0.000923202);
    }
    sun
    {
        Cmu             0.09;
        kappa           0.41;
        E               9.8;
        type            epsilonWallFunction;
        value           nonuniform List<scalar> 
14
(
0.000437745
0.0005695
0.000600449
0.000690598
0.000781565
0.000873335
0.000969529
0.00107211
0.00115002
0.00118628
0.00116607
0.00108384
0.000948366
0.000785253
)
;
    }
    heatsource1
    {
        Cmu             0.09;
        kappa           0.41;
        E               9.8;
        type            epsilonWallFunction;
        value           nonuniform List<scalar> 3(6.9726e-05 0.000123387 0.000174237);
    }
    heatsource2
    {
        Cmu             0.09;
        kappa           0.41;
        E               9.8;
        type            epsilonWallFunction;
        value           nonuniform List<scalar> 4(0.000660482 0.000143963 0.000143963 0.000628441);
    }
    Table_master
    {
        Cmu             0.09;
        kappa           0.41;
        E               9.8;
        type            epsilonWallFunction;
        value           nonuniform List<scalar> 9(0.000172742 0.000119441 8.55968e-05 6.34823e-05 4.85642e-05 3.81899e-05 3.0789e-05 2.54242e-05 2.15511e-05);
    }
    Table_slave
    {
        Cmu             0.09;
        kappa           0.41;
        E               9.8;
        type            epsilonWallFunction;
        value           nonuniform List<scalar> 9(0.000247588 0.000187617 0.000151352 0.000127175 0.000108796 9.34607e-05 8.01757e-05 6.76521e-05 5.48225e-05);
    }
    inlet
    {
        type            turbulentMixingLengthDissipationRateInlet;
        mixingLength    0.01;
        phi             phi;
        k               k;
        value           uniform 0.000101881;
    }
    outlet
    {
        type            zeroGradient;
    }
}


// ************************************************************************* //
