/*--------------------------------*- C++ -*----------------------------------*\
  =========                 |
  \\      /  F ield         | OpenFOAM: The Open Source CFD Toolbox
   \\    /   O peration     | Website:  https://openfoam.org
    \\  /    A nd           | Version:  6
     \\/     M anipulation  |
\*---------------------------------------------------------------------------*/
FoamFile
{
    version     2.0;
    format      ascii;
    class       volScalarField;
    location    "500";
    object      nut;
}
// * * * * * * * * * * * * * * * * * * * * * * * * * * * * * * * * * * * * * //

dimensions      [0 2 -1 0 0 0 0];

internalField   nonuniform List<scalar> 
459
(
0.00107346
0.00117186
0.00119271
0.00124964
0.00130226
0.00135136
0.00139925
0.00144696
0.00148119
0.0014966
0.00148805
0.00145222
0.00138901
0.00130432
0.00121231
0.000470182
0.000576126
0.000645755
0.00063908
0.000615775
0.000586171
0.000550082
0.000514586
0.000482367
0.000453712
0.00042829
0.000405659
0.000385531
0.000367421
0.000350696
0.000334522
0.000317669
0.00030609
0.000279246
0.00146559
0.00356218
0.00340239
0.00395902
0.00450373
0.00505029
0.00553781
0.00590031
0.00623009
0.00650052
0.00667283
0.00670113
0.00651668
0.00595043
0.0044123
0.00123121
0.000740972
0.000511924
0.00105962
0.00145284
0.00172996
0.00187293
0.00186387
0.00151149
0.00130862
0.00116226
0.00104926
0.000958953
0.000885163
0.000820817
0.000760938
0.000703205
0.000652194
0.000607523
0.000714447
0.00036754
0.00179243
0.00486851
0.00421667
0.0053051
0.00584512
0.00624531
0.00655596
0.00679802
0.00706113
0.00733699
0.00759377
0.00778238
0.0078499
0.00772422
0.00721251
0.00558253
0.00121097
0.00102814
0.00145928
0.00184978
0.0021914
0.00241804
0.00234636
0.000787363
0.000696243
0.000623059
0.000563977
0.000515802
0.000476095
0.000443108
0.000415713
0.00039343
0.000423586
0.00048866
0.000801707
0.000426134
0.0021065
0.00623679
0.00422592
0.00562142
0.00610774
0.00627259
0.00637346
0.00649148
0.00669618
0.00697375
0.00729483
0.00759681
0.00782591
0.00792851
0.00782445
0.00727884
0.00544979
0.00145909
0.00180968
0.0023237
0.00280373
0.00317136
0.00338755
0.00316536
0.00088774
0.000809344
0.000753423
0.000710957
0.000674913
0.000641583
0.000609618
0.000576064
0.000537069
0.000503778
0.000513796
0.000915606
0.000471274
0.00242681
0.00799497
0.00465264
0.00540337
0.00605542
0.00610529
0.00605023
0.0061024
0.00628362
0.00656215
0.00692246
0.00727735
0.00755438
0.00769022
0.00766025
0.0074223
0.00681755
0.0056142
0.00519176
0.00503594
0.00496591
0.00491636
0.0048495
0.00465896
0.00394436
0.00360392
0.00340708
0.00325475
0.00309306
0.00285975
0.0025397
0.00214838
0.00171215
0.00127082
0.000937293
0.000937166
0.000630652
0.000581891
0.000703829
0.000789631
0.00276613
0.0099075
0.00642382
0.00536264
0.0058478
0.00607036
0.00594378
0.00599621
0.00613469
0.00638485
0.00674111
0.00712732
0.00743273
0.00756633
0.0075004
0.00727436
0.00696253
0.00662751
0.00642558
0.0062721
0.0061084
0.00593346
0.00574838
0.00552705
0.00520763
0.00492371
0.00467157
0.00442922
0.00418241
0.00391584
0.00357574
0.00314757
0.00263113
0.00205574
0.00154352
0.00115043
0.000873522
0.000745977
0.00106583
0.000823746
0.00307548
0.0112511
0.00903011
0.00692393
0.00652551
0.00647757
0.00628473
0.00614835
0.00617975
0.0064133
0.00680255
0.00723108
0.00755408
0.00766237
0.00753447
0.00725529
0.00698948
0.00686269
0.00683268
0.00674321
0.00654572
0.00627307
0.00595648
0.0056137
0.00526079
0.0049375
0.00464261
0.00436835
0.00411497
0.00388858
0.00368857
0.0034083
0.00300649
0.00251138
0.00203276
0.0016009
0.00128844
0.00119398
0.00122188
0.000936924
0.00313575
0.0100372
0.0089039
0.00820407
0.00763441
0.00695701
0.0063921
0.00613884
0.00623176
0.00660522
0.0071252
0.00761799
0.00791435
0.00792038
0.00766092
0.00728738
0.00702348
0.00696754
0.0069435
0.00670833
0.00631737
0.00584839
0.00536488
0.00491754
0.00453502
0.00421841
0.00395218
0.00372868
0.00355057
0.00342518
0.00335965
0.00332939
0.00312729
0.00280743
0.00252427
0.00237999
0.00247607
0.0028633
0.00352825
0.00146448
0.00305263
0.00362122
0.0040255
0.00413915
0.0042121
0.00441275
0.00483697
0.00550306
0.00633968
0.00720216
0.00792959
0.008373
0.00842305
0.00809767
0.0075653
0.00713738
0.00689545
0.00669257
0.00637842
0.0058954
0.00531551
0.00473433
0.0042245
0.00381567
0.00349968
0.00325148
0.00304882
0.00287876
0.00273306
0.00260381
0.00248287
0.00236899
0.00227801
0.00221091
0.00218665
0.00219824
0.00218766
0.00210146
0.00196504
0.0013766
0.00150906
0.00308909
0.00487967
0.00639899
0.00760948
0.00855997
0.00918493
0.00945742
0.00940331
0.00902703
0.00837266
0.00753727
0.00677963
0.0062846
0.00590694
0.00546332
0.0049242
0.00435098
0.00381634
0.00337083
0.00302931
0.00277328
0.00257869
0.00242751
0.0023091
0.00221811
0.00215196
0.00210968
0.0020932
0.00210213
0.00212282
0.00215205
0.00218256
0.00219059
0.00213746
0.00201065
0.00181975
0.00114276
0.00200059
0.00508942
0.00761364
0.008532
0.00901849
0.00919801
0.00902658
0.00854883
0.00785924
0.00705966
0.00627899
0.00558457
0.00502054
0.00454876
0.00407867
0.00361435
0.00320522
0.00287835
0.00263196
0.0024462
0.00229877
0.00217781
0.00208067
0.00200931
0.00196184
0.00193674
0.00193216
0.00194479
0.00198059
0.00203721
0.00211138
0.00219603
0.0022754
0.00233047
0.00231424
0.00234104
0.00236527
0.00116437
0.0017847
0.00189105
0.00196673
0.00211551
0.00204318
0.00195101
0.00189228
0.00181469
0.0017052
0.00156877
0.00141407
0.00125182
0.00109325
0.000954237
0.000847328
0.000771299
0.000718159
0.000680813
0.000654785
0.000637444
0.000627107
0.000622619
0.000623381
0.000629445
0.000640529
0.000655987
0.000675985
0.000700835
0.000731092
0.000767787
0.000810021
0.000857755
0.00091154
0.000971877
0.00103839
0.0011177
0.00114323
0.00111414
0.00104633
0.000974242
)
;

boundaryField
{
    floor
    {
        type            nutkWallFunction;
        Cmu             0.09;
        kappa           0.41;
        E               9.8;
        value           nonuniform List<scalar> 
29
(
0.000145426
5.58826e-05
6.93527e-05
7.80376e-05
7.72103e-05
7.43131e-05
7.06135e-05
6.60723e-05
6.15698e-05
5.74498e-05
5.37566e-05
5.04555e-05
4.74961e-05
4.48462e-05
4.24468e-05
4.02175e-05
3.80484e-05
3.57737e-05
3.42017e-05
3.05263e-05
3.05262e-05
4.24623e-05
5.01739e-05
5.60228e-05
0.000145426
5.58826e-05
6.12302e-05
0.00012403
0.000173536
)
;
    }
    ceiling
    {
        type            nutkWallFunction;
        Cmu             0.09;
        kappa           0.41;
        E               9.8;
        value           nonuniform List<scalar> 
43
(
0.000209698
0.000221375
0.000229644
0.000245899
0.000238093
0.000228069
0.000221653
0.000213135
0.000201044
0.000185853
0.00016845
0.000149967
0.000131641
0.000115325
0.000102591
9.34213e-05
8.69491e-05
8.23667e-05
7.91551e-05
7.70069e-05
7.57231e-05
7.51649e-05
7.52597e-05
7.60136e-05
7.73896e-05
7.93038e-05
8.17721e-05
8.48271e-05
8.85295e-05
9.29955e-05
9.81046e-05
0.000103842
0.000110262
0.000117412
0.000125234
0.000134488
0.000137451
0.000134074
0.000126164
0.000117691
0.000345625
0.000404389
0.000233207
)
;
    }
    sWall
    {
        type            nutkWallFunction;
        Cmu             0.09;
        kappa           0.41;
        E               9.8;
        value           uniform 0.000209756;
    }
    nWall
    {
        type            nutkWallFunction;
        Cmu             0.09;
        kappa           0.41;
        E               9.8;
        value           nonuniform List<scalar> 6(9.56425e-05 9.97595e-05 0.00011328 0.000137407 0.000139909 0.000117697);
    }
    sideWalls
    {
        type            empty;
    }
    glass1
    {
        type            nutkWallFunction;
        Cmu             0.09;
        kappa           0.41;
        E               9.8;
        value           nonuniform List<scalar> 9(0.000129436 0.000174489 0.000210995 0.000245391 0.000279907 0.00031595 0.000348408 0.000354702 0.000346049);
    }
    glass2
    {
        type            nutkWallFunction;
        Cmu             0.09;
        kappa           0.41;
        E               9.8;
        value           nonuniform List<scalar> 2(0.000174217 0.000164271);
    }
    sun
    {
        type            nutkWallFunction;
        Cmu             0.09;
        kappa           0.41;
        E               9.8;
        value           nonuniform List<scalar> 
14
(
0.000129337
0.000140762
0.00014317
0.000149719
0.000155742
0.000161337
0.000166774
0.000172169
0.000176028
0.000177761
0.0001768
0.000172761
0.000165611
0.000155974
)
;
    }
    heatsource1
    {
        type            nutkWallFunction;
        Cmu             0.09;
        kappa           0.41;
        E               9.8;
        value           nonuniform List<scalar> 3(7.00785e-05 8.51951e-05 9.56422e-05);
    }
    heatsource2
    {
        type            nutkWallFunction;
        Cmu             0.09;
        kappa           0.41;
        E               9.8;
        value           nonuniform List<scalar> 4(0.000147597 8.97344e-05 8.97344e-05 0.000145268);
    }
    Table_master
    {
        type            nutkWallFunction;
        Cmu             0.09;
        kappa           0.41;
        E               9.8;
        value           nonuniform List<scalar> 9(9.5368e-05 8.42652e-05 7.52222e-05 6.78281e-05 6.1729e-05 5.66492e-05 5.23889e-05 4.88206e-05 4.58963e-05);
    }
    Table_slave
    {
        type            nutkWallFunction;
        Cmu             0.09;
        kappa           0.41;
        E               9.8;
        value           nonuniform List<scalar> 9(0.000107425 9.80231e-05 9.12513e-05 8.6069e-05 8.16416e-05 7.75222e-05 7.35473e-05 6.93475e-05 6.4429e-05);
    }
    inlet
    {
        type            calculated;
        value           uniform 0.000100623;
    }
    outlet
    {
        type            calculated;
        value           nonuniform List<scalar> 2(0.0017847 0.00189105);
    }
}


// ************************************************************************* //
