/*--------------------------------*- C++ -*----------------------------------*\
  =========                 |
  \\      /  F ield         | OpenFOAM: The Open Source CFD Toolbox
   \\    /   O peration     | Website:  https://openfoam.org
    \\  /    A nd           | Version:  6
     \\/     M anipulation  |
\*---------------------------------------------------------------------------*/
FoamFile
{
    version     2.0;
    format      ascii;
    class       surfaceScalarField;
    location    "600";
    object      phi;
}
// * * * * * * * * * * * * * * * * * * * * * * * * * * * * * * * * * * * * * //

dimensions      [1 0 -1 0 0 0 0];

internalField   nonuniform List<scalar> 
852
(
-0.00154213
0.0015545
-0.00223148
0.000689344
-0.0027247
0.000493213
-0.00305806
0.000333358
-0.0032115
0.000153428
-0.00315991
-5.15936e-05
-0.00287483
-0.000285087
-0.00235252
-0.000522307
-0.00163634
-0.000716188
-0.000814562
-0.000821785
-9.70811e-06
-0.000804859
0.000527864
-0.000537579
0.000763023
-0.000235166
0.000646797
0.000116219
0.000645268
-7.695e-06
5.56963e-06
0.000109728
-0.000117433
0.0004181
-0.000308382
0.000768654
-0.000350565
0.00107549
-0.000306844
0.00130562
-0.000230146
0.00142927
-0.000123661
0.00147748
-4.82192e-05
0.00149729
-1.98159e-05
0.00150513
-7.85756e-06
0.00150395
1.17052e-06
0.00149396
9.98268e-06
0.00147151
2.24333e-05
0.0014246
4.68961e-05
0.00132432
0.000100269
0.00112029
0.000204016
0.00076714
0.000353142
0.000203482
0.000563645
0.000200577
-0.00117571
0.00276517
-0.00180051
0.00131414
-0.00228848
0.000981182
-0.00262246
0.000667332
-0.00278589
0.000316848
-0.00275359
-8.38983e-05
-0.00250262
-0.000536053
-0.00203959
-0.000985343
-0.00142512
-0.00133066
-0.000761066
-0.00148585
-0.000165171
-0.00140076
0.000317088
-0.00101984
0.000640125
-0.000558211
0.000850739
-9.44014e-05
0.00114253
0.000353473
0.000627185
0.000515283
0.000627126
-7.44445e-05
7.50392e-05
0.000391825
-0.000583712
0.00072008
-0.000636646
0.000990182
-0.000620677
0.00121459
-0.000531262
0.0013785
-0.000394073
0.00141535
-0.000160522
0.00142268
-5.55559e-05
0.00143007
-2.72179e-05
0.00143621
-1.40084e-05
0.00143993
-2.56444e-06
0.00144128
8.62962e-06
0.0014395
2.41958e-05
0.00143071
5.56806e-05
0.00138513
0.000145832
0.00120612
0.000383011
0.000898527
0.000660725
0.000522368
0.000939792
0.000715024
-0.000878131
0.00369876
-0.00139282
0.00182882
-0.00182815
0.00141651
-0.00213201
0.000971191
-0.00229424
0.000479071
-0.00228017
-9.79796e-05
-0.00205284
-0.00076338
-0.00163371
-0.00140449
-0.00110191
-0.00186246
-0.000556208
-0.00203155
-8.03584e-05
-0.00187662
0.000318223
-0.00141843
0.000622108
-0.000862104
0.000831888
-0.000304189
0.000954073
0.000231281
0.000776703
0.000692647
0.00140382
0.000570264
-0.000502949
0.000806204
-0.000819661
0.00104035
-0.000870806
0.00119794
-0.000778271
0.00132233
-0.00065566
0.0014838
-0.000555554
0.00132342
0.00126801
0.00124093
0.00122707
0.00122465
0.00123342
0.00125776
0.00131359
0.00145956
0.00127037
0.000572189
0.00104186
0.000889224
0.000701091
0.00128055
0.00140348
-0.000648696
0.00442162
-0.00102462
0.00220474
-0.00133391
0.0017258
-0.00155984
0.00119711
-0.00169386
0.00061308
-0.00167841
-0.000113429
-0.00145423
-0.000987567
-0.0010779
-0.00178081
-0.000641347
-0.00229903
-0.000222369
-0.00245054
0.000131554
-0.00223055
0.000439117
-0.001726
0.00069076
-0.00111376
0.000890423
-0.00050386
0.0010711
5.05997e-05
0.00128677
0.000476963
0.00199042
0.000700168
0.00183528
0.000147307
0.00174838
-0.000416056
0.00156003
-0.000631324
0.00141154
-0.000722317
0.00132855
-0.000695291
0.00127739
-0.000604516
0.00118117
-0.000459343
0.00139628
-0.000215284
0.00152143
-0.000125312
0.00161917
-9.79102e-05
0.00170185
-8.28511e-05
0.00176466
-6.29758e-05
0.00179227
-2.77878e-05
0.00175895
3.31505e-05
0.00162859
0.000130197
0.00134194
0.000286473
0.00129416
0.000619961
0.00117575
0.00100761
0.000986912
0.00146937
0.00237373
-0.000475133
0.00498785
-0.000711335
0.00244094
-0.000810424
0.00182489
-0.000896309
0.00128299
-0.000956713
0.000673479
-0.000892749
-0.000177398
-0.000652268
-0.00122805
-0.000343385
-0.0020897
-4.06156e-05
-0.0026018
0.000215984
-0.00270714
0.000422356
-0.00243693
0.000603345
-0.001907
0.000758171
-0.00126859
0.00090354
-0.000649238
0.00108179
-0.000127656
0.00132267
0.000236069
0.0016518
0.000371036
0.00172929
6.98121e-05
0.00158444
-0.000271217
0.00142315
-0.000470043
0.00125994
-0.000559119
0.00112629
-0.000561656
0.00102587
-0.000504099
0.000967502
-0.000400994
0.00102225
-0.000270044
0.00109094
-0.000194022
0.00115925
-0.000166229
0.0012292
-0.000152822
0.00129762
-0.000131414
0.00135529
-8.54681e-05
0.00138487
3.54923e-06
0.0013697
0.00014535
0.00131594
0.000340219
0.00131651
0.000619371
0.0014031
0.000921
0.00175611
0.00111635
0.0026905
0.00143932
0.00170974
0.000980533
0.00099653
0.000712991
0.00103117
-0.000405421
0.00549949
-0.000502883
0.00253839
-0.00030075
0.00162275
-0.000172318
0.00115456
-7.76044e-05
0.00057876
0.000109342
-0.00036435
0.00034613
-0.00146484
0.000541996
-0.00228557
0.000665676
-0.00272548
0.000725414
-0.00276688
0.000748014
-0.00245954
0.000754274
-0.00191327
0.000758876
-0.0012732
0.00078644
-0.000676813
0.000868287
-0.000209513
0.00101382
9.05249e-05
0.00119798
0.000186869
0.001237
3.07821e-05
0.00114282
-0.000177046
0.00100289
-0.000330128
0.000851967
-0.000408204
0.000714883
-0.000424585
0.000607836
-0.000397066
0.000547524
-0.000340697
0.000552123
-0.000274659
0.000595276
-0.000237191
0.000656301
-0.000227272
0.000727793
-0.000224332
0.0008067
-0.000210339
0.000890715
-0.000169502
0.000976484
-8.22378e-05
0.00105325
6.8562e-05
0.00112063
0.000272822
0.0012243
0.000515682
0.00139186
0.000753423
0.00160144
0.000906762
0.00186548
0.00117527
0.00165087
0.00119513
0.00100718
0.00135667
0.00207356
-0.000436575
0.00605611
-0.000269188
0.002371
0.000320895
0.00103266
0.000662049
0.000813397
0.000970786
0.000270018
0.00129192
-0.00068549
0.00148064
-0.00165357
0.00152322
-0.00232815
0.00143489
-0.00263715
0.00125695
-0.00258895
0.00103922
-0.00224182
0.00082197
-0.00169603
0.000635941
-0.00108719
0.000515867
-0.000556751
0.000483747
-0.000177404
0.000534401
3.98602e-05
0.000618935
0.000102324
0.000630546
1.91609e-05
0.000562191
-0.000108703
0.000445344
-0.000213294
0.000311176
-0.00027405
0.000183926
-0.00029735
8.26957e-05
-0.000295852
2.36874e-05
-0.000281706
1.59377e-05
-0.000266927
4.51976e-05
-0.000266469
9.41411e-05
-0.000276234
0.000154287
-0.000284496
0.000224822
-0.000280893
0.000311418
-0.000256117
0.000425445
-0.000196284
0.000568236
-7.42476e-05
0.000724531
0.000116508
0.000900702
0.000339493
0.00110581
0.000548294
0.00129919
0.000713366
0.00153617
0.000938268
0.00167741
0.00105388
0.00147494
0.00155912
0.00358519
0.00110568
0.00508546
0.001519
0.00195768
0.00176367
0.00078799
0.00206957
0.00050749
0.00248739
-0.000147811
0.00278305
-0.000981151
0.00280274
-0.00167326
0.00257544
-0.00210086
0.00217104
-0.00223275
0.00167491
-0.00209283
0.00116443
-0.00173135
0.000697544
-0.00122916
0.000320245
-0.000709905
7.62994e-05
-0.00031282
-3.12969e-05
-6.98207e-05
-3.91176e-05
4.76684e-05
-9.31219e-06
7.25057e-05
-1.54055e-05
2.5241e-05
-7.62027e-05
-4.79199e-05
-0.000177277
-0.000112235
-0.000292998
-0.000158345
-0.000401382
-0.000188983
-0.000487164
-0.000210088
-0.000540735
-0.000228153
-0.000560219
-0.000247461
-0.000556103
-0.000270604
-0.000539419
-0.000292938
-0.000516529
-0.000307405
-0.000489115
-0.000308326
-0.000452357
-0.000292893
-0.000388785
-0.000259875
-0.000262584
-0.000200467
-6.63647e-05
-7.97299e-05
0.000167217
0.000105893
0.000408511
0.000306983
0.000620985
0.000500874
0.000859287
0.000699949
0.00107053
0.000842621
0.000706122
0.00192351
0.00443534
0.00522088
0.00716566
0.006368
0.00158564
0.00595661
0.000918874
0.00559954
0.000209254
0.005057
-0.000438612
0.00433122
-0.000947476
0.00347869
-0.00124833
0.00256991
-0.00132397
0.00168556
-0.00120848
0.000889364
-0.000935167
0.000219364
-0.000559178
-0.000245917
-0.000244643
-0.00050303
-5.57229e-05
-0.000611407
3.8541e-05
-0.000638921
7.51681e-05
-0.000641064
7.46334e-05
-0.000661676
4.58371e-05
-0.000715422
5.8085e-06
-0.000794985
-3.26888e-05
-0.000884024
-6.93245e-05
-0.000969019
-0.000104007
-0.00104369
-0.000135433
-0.00110455
-0.00016731
-0.00115239
-0.000199641
-0.00119242
-0.000230602
-0.0012303
-0.000255073
-0.00127216
-0.00026556
-0.00132721
-0.000253294
-0.00140948
-0.000210645
-0.00153056
-0.000138816
-0.00169369
-3.73484e-05
-0.00189512
0.000121676
-0.00214363
0.000354389
-0.00250869
0.000672028
-0.00310028
0.00109245
-0.00403191
0.00163156
-0.00533747
0.00214816
-0.00544879
0.00203481
-0.000857019
0.00582455
0.00223392
0.00520478
0.00153865
0.00474326
0.000670779
0.00418111
0.000123549
0.00340419
-0.000170551
0.00248208
-0.000326225
0.00152429
-0.00036619
0.000619975
-0.000304187
-0.000150585
-0.000164628
-0.000694227
-1.55559e-05
-0.000988368
4.94797e-05
-0.00112611
8.19981e-05
-0.00117861
9.10217e-05
-0.00119352
9.00696e-05
-0.00120078
8.18761e-05
-0.00121908
6.41178e-05
-0.00125347
4.01754e-05
-0.00129957
1.33925e-05
-0.00135492
-1.39911e-05
-0.00141807
-4.08773e-05
-0.00149009
-6.34318e-05
-0.00157029
-8.71331e-05
-0.00165893
-0.000111019
-0.00175596
-0.000133593
-0.00185961
-0.00015144
-0.00196685
-0.000158338
-0.00207568
-0.000144475
-0.00219013
-9.62118e-05
-0.00231104
-1.79232e-05
-0.00243501
8.6601e-05
-0.00254636
0.000233004
-0.0026403
0.000448311
-0.00271521
0.000746921
-0.00276025
0.00113748
-0.00274906
0.00162035
-0.00258333
0.00198242
-0.00127055
0.000722022
-0.00208888
0.000101622
0.00212051
0.000457179
0.0011831
0.000447587
0.000680365
0.000287473
0.000283649
3.98613e-05
7.70417e-05
-0.000302335
1.59473e-05
-0.000701563
3.30165e-05
-0.00107538
6.96079e-05
-0.00134566
0.000105633
-0.00148398
0.000122738
-0.00155252
0.000118001
-0.00157533
0.000104788
-0.00157453
9.0209e-05
-0.00156277
7.82864e-05
-0.0015487
6.77878e-05
-0.0015403
5.56992e-05
-0.00154168
4.15367e-05
-0.0015542
2.58901e-05
-0.00157932
1.11059e-05
-0.00161799
-2.22533e-06
-0.00166762
-1.38182e-05
-0.00173211
-2.2665e-05
-0.00181502
-2.81209e-05
-0.0019194
-2.92328e-05
-0.00204557
-2.52941e-05
-0.00218812
-1.5799e-05
-0.002332
-6.12873e-07
-0.00245124
2.30063e-05
-0.00252544
5.62659e-05
-0.00255188
0.000113017
-0.00251388
0.000194994
-0.0023793
0.000313709
-0.00211607
0.000483671
-0.00167418
0.000695578
-0.000900461
0.000846614
0.00036112
0.000720827
0.00123652
-0.000153391
-0.000811798
-0.00556222
-0.00666047
-0.00455378
-0.00338466
-0.00271994
-0.00245396
-0.00239643
-0.00240136
-0.00239039
-0.00234411
-0.00226315
-0.00216627
-0.00207492
-0.00199722
-0.0019343
-0.00188339
-0.001843
-0.00181472
-0.00180063
-0.00180223
-0.00181867
-0.00184848
-0.0018899
-0.00194019
-0.00199603
-0.00205316
-0.00210669
-0.00215125
-0.00218131
-0.00218847
-0.00216309
-0.00208159
-0.0019186
-0.00163719
-0.0011859
-0.000522617
0.000291794
0.000980125
0.000793942
)
;

boundaryField
{
    floor
    {
        type            calculated;
        value           nonuniform List<scalar> 
29
(
0
0
0
0
0
0
0
0
0
0
0
0
0
0
0
0
0
0
0
0
2.8911e-06
7.90674e-06
1.26224e-05
1.66529e-05
1.52251e-06
2.11201e-06
4.96478e-06
7.71678e-06
7.82748e-06
)
;
    }
    ceiling
    {
        type            calculated;
        value           nonuniform List<scalar> 
43
(
1.49384e-05
1.42823e-05
1.38113e-05
1.3956e-05
1.56225e-05
1.76464e-05
1.94915e-05
2.08546e-05
2.20281e-05
2.33056e-05
2.46491e-05
2.58354e-05
2.66303e-05
2.70647e-05
2.72721e-05
2.73556e-05
2.73836e-05
2.73996e-05
2.74258e-05
2.74692e-05
2.75222e-05
2.75661e-05
2.75804e-05
2.76118e-05
2.76953e-05
2.78806e-05
2.82196e-05
2.87435e-05
2.94277e-05
3.01477e-05
3.08718e-05
3.15023e-05
3.19874e-05
3.22798e-05
3.23615e-05
3.22802e-05
3.21864e-05
3.24805e-05
3.27752e-05
3.38876e-05
1.54548e-05
1.28948e-05
1.1783e-05
)
;
    }
    sWall
    {
        type            calculated;
        value           uniform -5.80535e-05;
    }
    nWall
    {
        type            calculated;
        value           nonuniform List<scalar> 6(-3.48609e-05 -3.52265e-05 -3.67051e-05 -3.87076e-05 -4.05829e-05 -5.1761e-05);
    }
    sideWalls
    {
        type            empty;
        value           nonuniform 0();
    }
    glass1
    {
        type            calculated;
        value           nonuniform List<scalar> 9(-1.23766e-05 -3.49639e-05 -5.54627e-05 -7.41632e-05 -9.10995e-05 -0.000106232 -0.000120047 -0.000135038 -0.000150876);
    }
    glass2
    {
        type            calculated;
        value           nonuniform List<scalar> 2(-0.000144046 -0.000156446);
    }
    sun
    {
        type            calculated;
        value           uniform 0;
    }
    heatsource1
    {
        type            calculated;
        value           nonuniform List<scalar> 3(2.06447e-07 2.06875e-07 2.0716e-07);
    }
    heatsource2
    {
        type            calculated;
        value           nonuniform List<scalar> 4(5.18244e-08 5.19094e-08 0 0);
    }
    Table_master
    {
        type            calculated;
        value           nonuniform List<scalar> 9(-1.5519e-07 -1.55294e-07 -1.55322e-07 -1.55338e-07 -1.55347e-07 -1.55349e-07 -1.55343e-07 -1.55328e-07 -1.55282e-07);
    }
    Table_slave
    {
        type            calculated;
        value           nonuniform List<scalar> 9(1.55111e-07 1.55118e-07 1.55081e-07 1.55048e-07 1.55022e-07 1.5501e-07 1.5501e-07 1.55024e-07 1.55075e-07);
    }
    inlet
    {
        type            calculated;
        value           uniform -0.00647282;
    }
    outlet
    {
        type            calculated;
        value           nonuniform List<scalar> 2(0.00560532 0.00108396);
    }
}


// ************************************************************************* //
