/*--------------------------------*- C++ -*----------------------------------*\
  =========                 |
  \\      /  F ield         | OpenFOAM: The Open Source CFD Toolbox
   \\    /   O peration     | Website:  https://openfoam.org
    \\  /    A nd           | Version:  6
     \\/     M anipulation  |
\*---------------------------------------------------------------------------*/
FoamFile
{
    version     2.0;
    format      ascii;
    class       volScalarField;
    location    "800";
    object      nut;
}
// * * * * * * * * * * * * * * * * * * * * * * * * * * * * * * * * * * * * * //

dimensions      [0 2 -1 0 0 0 0];

internalField   nonuniform List<scalar> 
459
(
0.00111209
0.00121591
0.00123774
0.00129779
0.00135416
0.00140781
0.00146176
0.00150854
0.00153725
0.00154179
0.00151724
0.0014606
0.00137015
0.00124936
0.00111624
0.000484674
0.000579617
0.000656655
0.000668237
0.000652611
0.000626568
0.000587804
0.000548018
0.000511757
0.000479672
0.000451424
0.00042652
0.000404504
0.00038492
0.00036708
0.000350123
0.00033298
0.000323923
0.00029815
0.00151598
0.00375588
0.0036054
0.00419469
0.00477421
0.00534126
0.00580617
0.0061834
0.00651226
0.00676339
0.00690391
0.00690435
0.00672398
0.00625541
0.00502821
0.00114415
0.000709859
0.000506264
0.00111175
0.0015977
0.00198585
0.00222052
0.00222259
0.00171706
0.0014613
0.0012839
0.00114983
0.0010443
0.000958814
0.000886868
0.000821137
0.000757802
0.00070063
0.00065144
0.000786962
0.000393223
0.00184874
0.00512076
0.00446383
0.00553402
0.00604939
0.00643377
0.00673568
0.00701115
0.00730431
0.00759707
0.00784819
0.00801561
0.00805522
0.00787799
0.00726337
0.00547002
0.001212
0.000936028
0.00142764
0.00193277
0.00244685
0.00283082
0.00275727
0.000834003
0.000731733
0.000650414
0.000585436
0.000532922
0.000489935
0.000454385
0.000425023
0.000401536
0.000440813
0.000521268
0.00091133
0.00046098
0.00216496
0.00650669
0.00449512
0.00582067
0.00621898
0.00636424
0.00649936
0.00668702
0.00695005
0.00727556
0.00760522
0.00788454
0.00805997
0.00805899
0.00784951
0.00713084
0.00469186
0.00140745
0.00175163
0.0023275
0.00296957
0.00354765
0.00393354
0.00366636
0.000950275
0.000864923
0.000804988
0.000759466
0.000720023
0.000682363
0.000645586
0.000606418
0.000560588
0.000525141
0.000553446
0.00110032
0.00050859
0.00248477
0.00827004
0.00494389
0.00566869
0.00616769
0.00619016
0.00619934
0.00634564
0.00658177
0.00692617
0.00729536
0.00761275
0.00779909
0.00782085
0.00769266
0.0073903
0.00672629
0.00567803
0.00537639
0.00538752
0.00550667
0.00562265
0.00565269
0.00543106
0.00448783
0.00404666
0.00378623
0.00358109
0.00336757
0.0030744
0.00268353
0.00222398
0.00173573
0.00128389
0.000967003
0.00105075
0.00070829
0.000622214
0.000743802
0.000838846
0.00282216
0.0101898
0.00674608
0.00576405
0.00618924
0.00624336
0.00620372
0.00627888
0.00645926
0.00677039
0.0071573
0.0075027
0.00769334
0.00767916
0.00750262
0.00727333
0.00708712
0.00697619
0.00700323
0.00704443
0.00702394
0.00692768
0.00674682
0.00644641
0.00597049
0.00554443
0.0051726
0.00482838
0.00449407
0.00415401
0.00374494
0.00325086
0.00268088
0.00208391
0.00158626
0.0012129
0.000981809
0.000859766
0.00121775
0.000885667
0.0031265
0.0115213
0.00936254
0.0073877
0.00707629
0.00681318
0.00651261
0.00638754
0.00649952
0.00682424
0.00725377
0.00762855
0.00780843
0.00773907
0.00749355
0.00727239
0.0072874
0.00753182
0.00776277
0.00780931
0.00766804
0.00739186
0.00701401
0.0065464
0.00602697
0.0055334
0.00507646
0.00466936
0.00431577
0.00402099
0.00378079
0.00349506
0.00308558
0.00257919
0.00210872
0.00170802
0.00145226
0.001435
0.00150525
0.00106238
0.00318288
0.0101808
0.00907171
0.0084096
0.00767575
0.00691293
0.00643032
0.00633481
0.00659242
0.00708187
0.00761943
0.00800553
0.00810742
0.00791316
0.00756722
0.00737662
0.00756607
0.00791237
0.00799753
0.00781346
0.00743703
0.00692836
0.00633274
0.00570367
0.00510914
0.00459775
0.00417968
0.00385639
0.00362616
0.003484
0.00342157
0.00340806
0.00330409
0.00303031
0.00282101
0.00279639
0.00308998
0.00366427
0.00430529
0.00157353
0.00309644
0.00366358
0.00404644
0.00410226
0.0042302
0.00457736
0.00519032
0.00603009
0.00697081
0.007837
0.00843876
0.0086261
0.00839144
0.00788735
0.00748346
0.00745271
0.00755514
0.00754688
0.00730381
0.00685769
0.0062673
0.00558728
0.00488846
0.00425537
0.0037461
0.00337015
0.00310564
0.00292487
0.00280204
0.00271501
0.00264688
0.00258733
0.00254594
0.00252041
0.00251816
0.00252163
0.00246784
0.00231547
0.00213134
0.00144816
0.0014756
0.00311319
0.005506
0.00728396
0.00854622
0.00938605
0.00980408
0.0098247
0.00945248
0.0087919
0.00791886
0.0071557
0.00675228
0.00664232
0.00650029
0.00617984
0.00567766
0.00505124
0.00437794
0.00374648
0.00322636
0.00284276
0.00258976
0.00244007
0.00236165
0.00232987
0.00232801
0.00234574
0.0023785
0.00242951
0.00248474
0.0025377
0.00257683
0.00257392
0.00249179
0.00233258
0.00208866
0.00118706
0.00203294
0.00548314
0.00820085
0.00903487
0.00933052
0.0092286
0.00876486
0.00805127
0.00722376
0.00644094
0.00575181
0.00525269
0.00494255
0.00467671
0.00433281
0.00389705
0.00340534
0.00291767
0.00249838
0.00218772
0.0019884
0.00187951
0.00183099
0.00182806
0.00186236
0.00192482
0.00200797
0.00210358
0.00221072
0.00233029
0.00245806
0.00258355
0.00268758
0.00275651
0.00272656
0.00272261
0.00257955
0.00120498
0.00195742
0.0019638
0.00200654
0.0021523
0.00205758
0.00195055
0.001877
0.00177818
0.00164651
0.0014918
0.00132468
0.00115566
0.00100442
0.000885464
0.000796769
0.000729281
0.000675367
0.000631002
0.00059524
0.000568892
0.00055283
0.000546996
0.000550567
0.000562647
0.000582599
0.000608752
0.000640078
0.000676573
0.000718735
0.0007679
0.000824438
0.000887116
0.00095633
0.00103245
0.00111619
0.00121124
0.00123087
0.00118935
0.0011144
0.00102707
)
;

boundaryField
{
    floor
    {
        type            nutkWallFunction;
        Cmu             0.09;
        kappa           0.41;
        E               9.8;
        value           nonuniform List<scalar> 
29
(
0.000134299
5.77542e-05
6.97981e-05
7.93939e-05
8.08264e-05
7.88966e-05
7.5667e-05
7.08287e-05
6.58221e-05
6.122e-05
5.71143e-05
5.34712e-05
5.02357e-05
4.73554e-05
4.47764e-05
4.24126e-05
4.01519e-05
3.78521e-05
3.66303e-05
3.31294e-05
3.31293e-05
4.58673e-05
5.47004e-05
6.08086e-05
0.000134299
5.77542e-05
6.05142e-05
0.00011316
0.000167692
)
;
    }
    ceiling
    {
        type            nutkWallFunction;
        Cmu             0.09;
        kappa           0.41;
        E               9.8;
        value           nonuniform List<scalar> 
43
(
0.000228719
0.000229332
0.000233978
0.000249877
0.000239657
0.000228016
0.000219972
0.000209103
0.000194515
0.00017721
0.00015829
0.000138882
0.000121244
0.000107159
9.65142e-05
8.83207e-05
8.17097e-05
7.62216e-05
7.17628e-05
6.84562e-05
6.64304e-05
6.56914e-05
6.61406e-05
6.76624e-05
7.01687e-05
7.34393e-05
7.73349e-05
8.1845e-05
8.70195e-05
9.30083e-05
9.98397e-05
0.000107349
0.000115571
0.000124534
0.000134308
0.000145301
0.00014756
0.000142779
0.0001341
0.000123904
0.000350161
0.00040869
0.000236712
)
;
    }
    sWall
    {
        type            nutkWallFunction;
        Cmu             0.09;
        kappa           0.41;
        E               9.8;
        value           uniform 0.000228779;
    }
    nWall
    {
        type            nutkWallFunction;
        Cmu             0.09;
        kappa           0.41;
        E               9.8;
        value           nonuniform List<scalar> 6(0.000101574 0.000107179 0.000128042 0.000142527 0.000144593 0.000123911);
    }
    sideWalls
    {
        type            empty;
    }
    glass1
    {
        type            nutkWallFunction;
        Cmu             0.09;
        kappa           0.41;
        E               9.8;
        value           nonuniform List<scalar> 9(0.000133951 0.000180169 0.000217201 0.000251721 0.000286086 0.000321839 0.000353709 0.000359587 0.000350604);
    }
    glass2
    {
        type            nutkWallFunction;
        Cmu             0.09;
        kappa           0.41;
        E               9.8;
        value           nonuniform List<scalar> 2(0.000186465 0.000172373);
    }
    sun
    {
        type            nutkWallFunction;
        Cmu             0.09;
        kappa           0.41;
        E               9.8;
        value           nonuniform List<scalar> 
14
(
0.000133836
0.00014584
0.000148351
0.000155228
0.000161653
0.00016774
0.000173835
0.0001791
0.000182321
0.000182829
0.000180073
0.000173698
0.000163461
0.000149672
)
;
    }
    heatsource1
    {
        type            nutkWallFunction;
        Cmu             0.09;
        kappa           0.41;
        E               9.8;
        value           nonuniform List<scalar> 3(7.51178e-05 9.00798e-05 0.000101572);
    }
    heatsource2
    {
        type            nutkWallFunction;
        Cmu             0.09;
        kappa           0.41;
        E               9.8;
        value           nonuniform List<scalar> 4(0.000137537 8.59506e-05 8.59506e-05 0.000145381);
    }
    Table_master
    {
        type            nutkWallFunction;
        Cmu             0.09;
        kappa           0.41;
        E               9.8;
        value           nonuniform List<scalar> 9(0.000101 8.86172e-05 7.86249e-05 7.05328e-05 6.39132e-05 5.84348e-05 5.38592e-05 5.00462e-05 4.69723e-05);
    }
    Table_slave
    {
        type            nutkWallFunction;
        Cmu             0.09;
        kappa           0.41;
        E               9.8;
        value           nonuniform List<scalar> 9(0.000114864 0.000104707 9.75047e-05 9.19922e-05 8.71842e-05 8.25645e-05 7.80237e-05 7.31532e-05 6.74055e-05);
    }
    inlet
    {
        type            calculated;
        value           uniform 0.000100623;
    }
    outlet
    {
        type            calculated;
        value           nonuniform List<scalar> 2(0.00195742 0.0019638);
    }
}


// ************************************************************************* //
