// -*- C++ -*-
// File generated by PyFoam - sorry for the ugliness

FoamFile
{
 version 2.0;
 format ascii;
 class volScalarField;
 location "400";
 object T;
}

dimensions [ 0 0 0 1 0 0 0 ];

internalField nonuniform List<scalar> 459
(
  302.82
  302.543
  302.536
  302.539
  302.54
  302.54
  302.54
  302.538
  302.533
  302.524
  302.512
  302.498
  302.485
  302.472
  302.463
  302.392
  302.399
  302.416
  302.417
  302.413
  302.406
  302.397
  302.386
  302.375
  302.364
  302.353
  302.342
  302.332
  302.321
  302.311
  302.302
  302.293
  302.286
  302.301
  303.011
  302.589
  302.571
  302.581
  302.592
  302.6
  302.604
  302.605
  302.598
  302.582
  302.561
  302.538
  302.516
  302.495
  302.469
  302.425
  302.33
  302.389
  302.423
  302.441
  302.446
  302.445
  302.438
  302.423
  302.406
  302.389
  302.372
  302.356
  302.34
  302.325
  302.31
  302.296
  302.283
  302.27
  302.26
  302.284
  303.207
  302.641
  302.605
  302.623
  302.645
  302.664
  302.677
  302.682
  302.671
  302.645
  302.61
  302.575
  302.546
  302.524
  302.506
  302.486
  302.45
  302.489
  302.491
  302.493
  302.494
  302.493
  302.488
  302.469
  302.448
  302.427
  302.407
  302.388
  302.369
  302.35
  302.332
  302.315
  302.303
  302.285
  302.269
  302.283
  303.403
  302.704
  302.638
  302.661
  302.695
  302.729
  302.757
  302.768
  302.753
  302.711
  302.657
  302.606
  302.568
  302.544
  302.53
  302.521
  302.515
  302.522
  302.525
  302.531
  302.536
  302.54
  302.543
  302.543
  302.548
  302.553
  302.558
  302.562
  302.565
  302.565
  302.564
  302.56
  302.551
  302.467
  302.382
  302.313
  302.29
  303.591
  302.784
  302.674
  302.69
  302.733
  302.784
  302.833
  302.853
  302.829
  302.768
  302.693
  302.625
  302.579
  302.554
  302.544
  302.542
  302.544
  302.55
  302.558
  302.567
  302.576
  302.583
  302.588
  302.593
  302.6
  302.607
  302.613
  302.617
  302.619
  302.617
  302.611
  302.6
  302.582
  302.533
  302.454
  302.368
  302.311
  302.44
  302.488
  302.497
  303.76
  302.887
  302.741
  302.728
  302.766
  302.824
  302.901
  302.922
  302.879
  302.798
  302.708
  302.631
  302.58
  302.556
  302.551
  302.558
  302.568
  302.58
  302.592
  302.604
  302.615
  302.623
  302.63
  302.636
  302.643
  302.648
  302.653
  302.655
  302.655
  302.651
  302.643
  302.628
  302.607
  302.57
  302.509
  302.429
  302.366
  302.393
  302.412
  302.45
  303.912
  303.055
  302.904
  302.862
  302.874
  302.921
  302.98
  302.971
  302.897
  302.792
  302.688
  302.608
  302.562
  302.548
  302.555
  302.574
  302.595
  302.615
  302.631
  302.644
  302.655
  302.663
  302.669
  302.674
  302.678
  302.681
  302.682
  302.681
  302.678
  302.672
  302.662
  302.647
  302.626
  302.595
  302.55
  302.491
  302.44
  302.433
  302.436
  302.461
  304.14
  303.495
  303.327
  303.219
  303.163
  303.157
  303.109
  302.999
  302.855
  302.715
  302.606
  302.543
  302.523
  302.535
  302.564
  302.601
  302.634
  302.658
  302.674
  302.685
  302.693
  302.699
  302.703
  302.704
  302.705
  302.703
  302.7
  302.695
  302.689
  302.682
  302.673
  302.661
  302.641
  302.617
  302.586
  302.551
  302.529
  302.537
  302.543
  302.667
  304.465
  304.164
  303.904
  303.674
  303.486
  303.312
  303.069
  302.813
  302.608
  302.481
  302.43
  302.436
  302.481
  302.54
  302.598
  302.654
  302.686
  302.704
  302.715
  302.722
  302.726
  302.728
  302.728
  302.726
  302.722
  302.716
  302.71
  302.704
  302.698
  302.692
  302.687
  302.684
  302.684
  302.687
  302.697
  302.717
  302.746
  302.777
  302.798
  302.859
  296.746
  298.908
  300.103
  300.593
  300.985
  301.36
  301.696
  301.977
  302.202
  302.382
  302.534
  302.63
  302.684
  302.717
  302.736
  302.746
  302.752
  302.755
  302.754
  302.752
  302.748
  302.742
  302.736
  302.73
  302.724
  302.719
  302.715
  302.713
  302.712
  302.713
  302.715
  302.721
  302.733
  302.751
  302.775
  302.799
  302.82
  302.849
  297.398
  299.148
  300.321
  301.009
  301.483
  301.832
  302.108
  302.322
  302.479
  302.589
  302.668
  302.719
  302.75
  302.768
  302.778
  302.783
  302.784
  302.783
  302.779
  302.774
  302.768
  302.761
  302.753
  302.747
  302.741
  302.736
  302.732
  302.73
  302.728
  302.728
  302.73
  302.734
  302.743
  302.756
  302.773
  302.791
  302.794
  302.83
  299.425
  299.359
  299.355
  300.91
  301.672
  302.049
  302.285
  302.446
  302.56
  302.643
  302.705
  302.75
  302.782
  302.804
  302.818
  302.826
  302.831
  302.832
  302.83
  302.826
  302.82
  302.812
  302.803
  302.794
  302.785
  302.777
  302.77
  302.763
  302.758
  302.753
  302.749
  302.746
  302.744
  302.744
  302.747
  302.756
  302.765
  302.772
  302.778
  302.818
)
;

boundaryField
{
  floor
  {
    type wallHeatTransfer;
    Tinf uniform 305.2;
    alphaWall uniform 0.24;
    value nonuniform List<scalar> 29
(
  302.74
  302.932
  302.881
  302.865
  302.87
  302.877
  302.886
  302.899
  302.914
  302.928
  302.941
  302.952
  302.963
  302.973
  302.983
  302.991
  303
  303.009
  302.988
  303.022
  303.022
  302.861
  302.789
  302.772
  302.74
  302.932
  302.9
  302.805
  302.765
)
;
  }
  ceiling
  {
    type wallHeatTransfer;
    Tinf uniform 303.2;
    alphaWall uniform 0.24;
    value nonuniform List<scalar> 43
(
  299.679
  299.605
  299.594
  301.047
  301.768
  302.126
  302.349
  302.502
  302.61
  302.69
  302.749
  302.793
  302.826
  302.849
  302.865
  302.875
  302.88
  302.883
  302.883
  302.881
  302.876
  302.87
  302.862
  302.854
  302.846
  302.838
  302.83
  302.823
  302.816
  302.809
  302.803
  302.797
  302.793
  302.79
  302.791
  302.796
  302.804
  302.811
  302.818
  302.857
  304.408
  304.126
  297.747
)
;
  }
  sWall
  {
    type wallHeatTransfer;
    Tinf uniform 315.2;
    alphaWall uniform 0.36;
    value uniform 300.967;
  }
  nWall
  {
    type wallHeatTransfer;
    Tinf uniform 307.2;
    alphaWall uniform 0.36;
    value nonuniform List<scalar> 6
(
  303.293
  303.215
  303.118
  303.443
  303.419
  303.46
)
;
  }
  sideWalls
  {
    type empty;
  }
  glass1
  {
    type wallHeatTransfer;
    Tinf uniform 315.2;
    alphaWall uniform 4.3;
    value nonuniform List<scalar> 9
(
  311.302
  310.581
  310.133
  309.797
  309.523
  309.281
  309.1
  309.178
  309.421
)
;
  }
  glass2
  {
    type wallHeatTransfer;
    Tinf uniform 307.2;
    alphaWall uniform 4.3;
    value nonuniform List<scalar> 2
(
  305.357
  305.521
)
;
  }
  sun
  {
    type wallHeatTransfer;
    Tinf uniform 305.2;
    alphaWall uniform 0.24;
    value nonuniform List<scalar> 14
(
  303.073
  302.808
  302.8
  302.793
  302.786
  302.78
  302.773
  302.766
  302.758
  302.748
  302.739
  302.732
  302.73
  302.732
)
;
  }
  heatsource1
  {
    type fixedGradient;
    gradient uniform 0;
  }
  heatsource2
  {
    type fixedGradient;
    gradient uniform 0;
  }
  Table_master
  {
    type zeroGradient;
  }
  Table_slave
  {
    type zeroGradient;
  }
  inlet
  {
    type fixedValue;
    value uniform 296.15;
  }
  outlet
  {
    type zeroGradient;
  }
} 	// ************************************************************************* //

