/*--------------------------------*- C++ -*----------------------------------*\
  =========                 |
  \\      /  F ield         | OpenFOAM: The Open Source CFD Toolbox
   \\    /   O peration     | Website:  https://openfoam.org
    \\  /    A nd           | Version:  6
     \\/     M anipulation  |
\*---------------------------------------------------------------------------*/
FoamFile
{
    version     2.0;
    format      ascii;
    class       surfaceScalarField;
    location    "170";
    object      phi;
}
// * * * * * * * * * * * * * * * * * * * * * * * * * * * * * * * * * * * * * //

dimensions      [1 0 -1 0 0 0 0];

internalField   nonuniform List<scalar> 
852
(
-0.00260106
0.00264196
-0.00361475
0.00101368
-0.00432277
0.000707996
-0.00478846
0.000465678
-0.00497335
0.000184869
-0.00484462
-0.000128747
-0.00438388
-0.00046076
-0.00362993
-0.000753975
-0.0026836
-0.000946346
-0.00167341
-0.00101021
-0.00072594
-0.000947484
4.25279e-05
-0.000768487
0.000468582
-0.000426073
0.000516659
-4.80963e-05
0.000512611
7.93642e-05
-8.45728e-05
3.35978e-05
4.57285e-05
0.000265425
-0.000231858
0.000641156
-0.00037576
0.000989678
-0.000348549
0.00125948
-0.000269828
0.00141109
-0.000151637
0.00147327
-6.22089e-05
0.00150083
-2.75814e-05
0.00151386
-1.30601e-05
0.00151631
-2.47912e-06
0.00150876
7.53091e-06
0.00148755
2.11804e-05
0.00143976
4.77623e-05
0.0013338
0.000105934
0.00111501
0.000218757
0.00073233
0.000382654
6.32984e-05
0.000668999
5.58672e-05
-0.00189067
0.00464417
-0.00284053
0.00196351
-0.003561
0.00142844
-0.00403047
0.000935133
-0.00422466
0.000379037
-0.00411095
-0.000242469
-0.00368207
-0.000889656
-0.00299758
-0.00143849
-0.00217258
-0.00177137
-0.00132834
-0.00185447
-0.00056798
-0.00170786
3.77389e-05
-0.00137423
0.000489721
-0.000878075
0.000805451
-0.000363847
0.00114304
0.000175001
0.000664848
0.000478124
0.000664779
-0.000116089
1.95682e-05
0.000364938
-0.000435323
0.000737066
-0.000604011
0.00102515
-0.000663865
0.00126605
-0.000589481
0.00144554
-0.000449334
0.00148861
-0.000194731
0.00149778
-7.141e-05
0.00150713
-3.69581e-05
0.00151478
-2.07353e-05
0.00151956
-7.28064e-06
0.00152161
5.45632e-06
0.00152002
2.27413e-05
0.00151064
5.71242e-05
0.00146092
0.000155627
0.00126814
0.000411508
0.000934457
0.000716309
0.000578204
0.00102522
0.000615014
-0.00134778
0.00616426
-0.00214896
0.00276467
-0.00279489
0.00207435
-0.00321091
0.00135114
-0.0033829
0.000551008
-0.00325303
-0.000372363
-0.00281619
-0.00132651
-0.00216941
-0.00208527
-0.00144596
-0.00249483
-0.000748894
-0.00255155
-0.000150777
-0.00230599
0.000317756
-0.00184278
0.000679483
-0.00123982
0.000921486
-0.00060587
0.00106323
3.32408e-05
0.000890196
0.000651135
0.00155496
0.000368552
-0.000367987
0.000866863
-0.000933656
0.00121085
-0.000948016
0.00139029
-0.000843329
0.00151644
-0.00071566
0.00167601
-0.000608931
0.00148141
0.00141012
0.00137329
0.00135268
0.00134553
0.00135111
0.00137398
0.00143123
0.00158698
0.00140637
0.000592091
0.00118935
0.000933306
0.000876387
0.00133816
0.0014618
-0.00095473
0.00734415
-0.00156944
0.00337936
-0.00201427
0.00251917
-0.00229671
0.00163356
-0.00238434
0.000638618
-0.00216822
-0.000588501
-0.00168973
-0.00180501
-0.00109383
-0.00268119
-0.000505144
-0.00308353
1.28671e-05
-0.00306958
0.000429421
-0.00272256
0.000752291
-0.00216567
0.00101202
-0.00149957
0.00121749
-0.000811361
0.00140218
-0.000151477
0.00163723
0.000416072
0.00243278
0.000759382
0.00222138
0.000192354
0.00226948
-0.000416108
0.00198148
-0.000645674
0.00179019
-0.000756753
0.00167425
-0.000727412
0.00159246
-0.000633893
0.00146425
-0.000480744
0.00168047
-0.000216403
0.00179234
-0.000112047
0.00186933
-7.71655e-05
0.00192898
-5.98283e-05
0.00197129
-4.24903e-05
0.00198575
-1.46345e-05
0.00194973
3.58459e-05
0.00182472
0.000124829
0.00154476
0.000279787
0.00151842
0.000618402
0.00143224
0.00101946
0.00128979
0.00148058
0.00271329
-0.000676698
0.00829177
-0.00111774
0.00382038
-0.00123761
0.00263902
-0.00129257
0.0016885
-0.00118241
0.000528431
-0.000782866
-0.00098806
-0.00026898
-0.00231891
0.000210366
-0.00316054
0.0005956
-0.00346877
0.000875212
-0.0033492
0.00107456
-0.00292193
0.00121631
-0.00230744
0.00132846
-0.00161174
0.00143981
-0.000922741
0.0015949
-0.000306592
0.00184088
0.000170071
0.00220306
0.000397178
0.00228791
0.000107479
0.00210395
-0.000232171
0.00189692
-0.000438666
0.00168369
-0.000543545
0.00150804
-0.000551793
0.00136802
-0.000493909
0.00127137
-0.000384122
0.00129317
-0.000238236
0.00132796
-0.000146859
0.00136067
-0.000109908
0.00139685
-9.60457e-05
0.00143793
-8.35977e-05
0.00147943
-5.61704e-05
0.00150917
6.07668e-06
0.00151316
0.000120813
0.00149466
0.000298256
0.00154808
0.000564952
0.00171351
0.000854001
0.00223625
0.000957811
0.00351563
0.00143388
0.00240698
0.00110842
0.00149043
0.000916325
0.00152427
-0.00058224
0.00918419
-0.000849381
0.0040875
-0.00049787
0.00228749
-0.000174699
0.00136531
0.000322333
3.13768e-05
0.000922361
-0.0015881
0.00137182
-0.00276838
0.0016378
-0.00342652
0.00175637
-0.00358734
0.00176237
-0.00335522
0.00169448
-0.00285406
0.00159411
-0.00220709
0.00150028
-0.00151794
0.00144684
-0.000869335
0.00146593
-0.000325706
0.00157129
6.46864e-05
0.00173395
0.00023449
0.00173814
0.000103258
0.0016065
-0.000100556
0.00143094
-0.000263135
0.00124074
-0.000353378
0.00106449
-0.000375572
0.000916999
-0.000346456
0.000814029
-0.000281187
0.000775882
-0.000200124
0.000777303
-0.000148317
0.000799376
-0.000132018
0.000837149
-0.000133855
0.000890079
-0.000136565
0.000958829
-0.000124957
0.00104465
-7.97767e-05
0.00114133
2.40966e-05
0.00124433
0.000195217
0.00139228
0.000416971
0.00160449
0.000641764
0.00180729
0.000754979
0.00210433
0.00113682
0.001868
0.00134472
0.00115499
0.00162931
0.00271612
-0.00059719
0.0101273
-0.00041542
0.00390571
0.000631193
0.00124085
0.00153616
0.00046032
0.00234908
-0.000781569
0.00287989
-0.00211893
0.00312505
-0.00301354
0.003101
-0.00340247
0.00287568
-0.00336202
0.00252675
-0.0030063
0.00212502
-0.00245235
0.00173389
-0.00181599
0.00140088
-0.00118496
0.00115665
-0.000625136
0.00102077
-0.000189863
0.00099193
9.3494e-05
0.00102697
0.000199421
0.00100393
0.000126264
0.000909664
-6.3281e-06
0.00076851
-0.000122018
0.000607825
-0.000192731
0.000450102
-0.000217888
0.000313721
-0.000210116
0.000215389
-0.000182896
0.000167704
-0.00015248
0.000160649
-0.000141303
0.000179536
-0.000150947
0.00021652
-0.00017088
0.000270014
-0.0001901
0.000343978
-0.000198963
0.000449413
-0.000185251
0.000599112
-0.000125642
0.00077874
1.55521e-05
0.000976553
0.000219122
0.0011847
0.00043358
0.00132654
0.000613114
0.00151376
0.000949564
0.00161643
0.00124201
0.00138161
0.00186411
0.00413661
0.0022738
0.00824114
0.00298142
0.00319806
0.00343479
0.000787467
0.00432827
-0.000433188
0.00499629
-0.0014496
0.00517589
-0.00229852
0.00493944
-0.00277709
0.00439828
-0.00286131
0.00367685
-0.00264058
0.00288678
-0.00221625
0.00211416
-0.00167976
0.00143598
-0.00113785
0.00089761
-0.000646633
0.000513938
-0.000241506
0.000292412
3.16219e-05
0.000209804
0.000176061
0.000201586
0.000207598
0.000177009
0.0001508
0.000108535
6.21037e-05
3.61489e-07
-1.38879e-05
-0.000130168
-6.22466e-05
-0.000260538
-8.75643e-05
-0.000373319
-9.73812e-05
-0.000455339
-0.000100923
-0.000499603
-0.000108262
-0.000512912
-0.000128041
-0.000506364
-0.000157542
-0.000487873
-0.000189416
-0.00046146
-0.000216558
-0.000426643
-0.000233823
-0.000373824
-0.000238113
-0.000275126
-0.00022438
-9.53784e-05
-0.000164235
0.000129559
-5.85204e-06
0.000337533
0.000225571
0.000473015
0.000477599
0.000626876
0.000795671
0.000770678
0.00109818
0.000371263
0.00226349
0.00467233
0.00863725
0.0118043
0.0105754
0.00201639
0.00973562
0.000406542
0.00874948
-0.000463444
0.00756556
-0.00111458
0.00622308
-0.00143459
0.00484121
-0.00147943
0.00352165
-0.00132104
0.00233012
-0.00102475
0.00129875
-0.000648429
0.000486681
-0.000325831
-9.25001e-05
-6.75048e-05
-0.000441676
0.000107621
-0.000600549
0.000190447
-0.000645905
0.000221369
-0.000651755
0.0002134
-0.000671901
0.000170897
-0.000724772
0.000114925
-0.000803655
6.49443e-05
-0.000894921
2.89678e-05
-0.000987069
4.53252e-06
-0.00106958
-1.49196e-05
-0.00113525
-3.53053e-05
-0.00118198
-6.15874e-05
-0.00121413
-9.59344e-05
-0.00124003
-0.000131696
-0.0012676
-0.000161896
-0.00130592
-0.000178278
-0.0013681
-0.000171688
-0.00147294
-0.000133315
-0.00163649
-6.08705e-05
-0.00187397
7.32188e-05
-0.00217384
0.000293976
-0.00257538
0.000627087
-0.00320438
0.00110656
-0.00418532
0.00177658
-0.00559334
0.00250617
-0.00590262
0.00257275
-0.0010553
0.00343663
0.00290971
0.00281801
0.00102526
0.00315382
-0.000799204
0.0030666
-0.00102737
0.00249286
-0.000860884
0.00169757
-0.000684189
0.000854572
-0.000478095
4.9625e-05
-0.000219868
-0.000612823
1.39535e-05
-0.00106052
0.000121804
-0.00131398
0.000185902
-0.00142137
0.000214952
-0.0014529
0.000221925
-0.00144854
0.000216949
-0.00143618
0.000200985
-0.00143841
0.000173078
-0.00146252
0.000138971
-0.00150368
0.000106049
-0.001553
7.82325e-05
-0.00160377
5.52473e-05
-0.0016529
3.41551e-05
-0.00170189
1.36327e-05
-0.0017549
-8.63058e-06
-0.00181669
-3.41929e-05
-0.00189039
-5.80468e-05
-0.00197688
-7.54514e-05
-0.00207535
-7.98539e-05
-0.00218425
-6.28307e-05
-0.0023041
-1.34983e-05
-0.00243475
6.97405e-05
-0.00256668
0.000205117
-0.00268867
0.000415933
-0.00279558
0.00073396
-0.00287117
0.00118212
-0.00286708
0.00177246
-0.00263013
0.00226918
-0.00107689
0.00101948
-0.00209578
0.000761093
0.00214106
0.00146047
0.000325935
0.000935191
-0.000273942
0.000239436
-0.000331676
-0.000407914
-0.000213621
-0.00100202
-9.01571e-05
-0.00150273
2.2547e-05
-0.0018464
0.000123735
-0.00201949
0.000186984
-0.00210894
0.000211187
-0.00213409
0.000210995
-0.00211796
0.000198763
-0.0020789
0.000182797
-0.00202959
0.000167585
-0.00198106
0.000152392
-0.00194308
0.000135037
-0.00192014
0.000115974
-0.00191129
9.71358e-05
-0.00191301
7.98945e-05
-0.00192223
6.44034e-05
-0.00193827
5.0144e-05
-0.00196166
3.69666e-05
-0.00199599
2.56486e-05
-0.00204829
1.80565e-05
-0.00212068
1.42871e-05
-0.00221246
1.62825e-05
-0.00231847
2.61169e-05
-0.00242734
4.59943e-05
-0.00251805
7.71702e-05
-0.00258001
0.000131664
-0.0025882
0.000213275
-0.00250348
0.000331177
-0.00227161
0.000502055
-0.00181528
0.000725757
-0.000936698
0.000893842
0.000507054
0.000825399
0.00148692
3.95789e-05
-0.000572594
-0.00325484
-0.00466717
-0.00255387
-0.00226962
-0.00259017
-0.00296965
-0.00323223
-0.00337287
-0.00340264
-0.0033331
-0.00320234
-0.00304908
-0.00289721
-0.00275833
-0.00263581
-0.00252867
-0.00243676
-0.00236219
-0.00230666
-0.00226995
-0.00225047
-0.00224645
-0.00225666
-0.00228003
-0.00231474
-0.00235713
-0.00240349
-0.00244826
-0.00248385
-0.00250055
-0.00248741
-0.00242141
-0.00227565
-0.00201391
-0.00158314
-0.000930326
-0.000110994
0.00063833
0.000603877
)
;

boundaryField
{
    floor
    {
        type            calculated;
        value           nonuniform List<scalar> 
29
(
0
0
0
0
0
0
0
0
0
0
0
0
0
0
0
0
0
0
0
0
7.37913e-06
1.90244e-05
2.95688e-05
3.82674e-05
4.028e-06
5.17645e-06
1.19188e-05
1.89815e-05
1.90252e-05
)
;
    }
    ceiling
    {
        type            calculated;
        value           nonuniform List<scalar> 
43
(
3.33975e-05
2.96998e-05
2.77114e-05
4.15998e-05
4.65386e-05
4.77279e-05
4.88806e-05
5.04102e-05
5.22576e-05
5.41279e-05
5.61548e-05
5.78566e-05
5.90656e-05
5.98154e-05
6.02137e-05
6.03795e-05
6.04164e-05
6.04027e-05
6.03813e-05
6.03642e-05
6.03471e-05
6.03248e-05
6.03e-05
6.02851e-05
6.03031e-05
6.03886e-05
6.05998e-05
6.10022e-05
6.16659e-05
6.26522e-05
6.39906e-05
6.56244e-05
6.74746e-05
6.9403e-05
7.12458e-05
7.29031e-05
7.44745e-05
7.60382e-05
7.3991e-05
7.66756e-05
3.73292e-05
3.09915e-05
7.5886e-06
)
;
    }
    sWall
    {
        type            calculated;
        value           uniform -0.00022336;
    }
    nWall
    {
        type            calculated;
        value           nonuniform List<scalar> 6(-3.40719e-05 -3.68828e-05 -3.89136e-05 -3.64458e-05 -3.63054e-05 -4.54382e-05);
    }
    sideWalls
    {
        type            empty;
        value           nonuniform 0();
    }
    glass1
    {
        type            calculated;
        value           nonuniform List<scalar> 9(-4.09204e-05 -0.000111555 -0.000172325 -0.000225176 -0.00027094 -0.00031019 -0.000345953 -0.000387636 -0.000433454);
    }
    glass2
    {
        type            calculated;
        value           nonuniform List<scalar> 2(-0.000164481 -0.000175025);
    }
    sun
    {
        type            calculated;
        value           uniform 0;
    }
    heatsource1
    {
        type            calculated;
        value           nonuniform List<scalar> 3(1.99821e-07 2.00302e-07 2.00697e-07);
    }
    heatsource2
    {
        type            calculated;
        value           nonuniform List<scalar> 4(5.02527e-08 5.03507e-08 0 0);
    }
    Table_master
    {
        type            calculated;
        value           nonuniform List<scalar> 9(-1.50446e-07 -1.50573e-07 -1.50608e-07 -1.50628e-07 -1.5064e-07 -1.50644e-07 -1.50639e-07 -1.50623e-07 -1.50575e-07);
    }
    Table_slave
    {
        type            calculated;
        value           nonuniform List<scalar> 9(1.50305e-07 1.5033e-07 1.50301e-07 1.50275e-07 1.50254e-07 1.50244e-07 1.50242e-07 1.50256e-07 1.50303e-07);
    }
    inlet
    {
        type            calculated;
        value           uniform -0.0043299;
    }
    outlet
    {
        type            calculated;
        value           nonuniform List<scalar> 2(0.00344475 0.00138258);
    }
}


// ************************************************************************* //
