/*--------------------------------*- C++ -*----------------------------------*\
  =========                 |
  \\      /  F ield         | OpenFOAM: The Open Source CFD Toolbox
   \\    /   O peration     | Website:  https://openfoam.org
    \\  /    A nd           | Version:  6
     \\/     M anipulation  |
\*---------------------------------------------------------------------------*/
FoamFile
{
    version     2.0;
    format      ascii;
    class       volVectorField;
    location    "170";
    object      U;
}
// * * * * * * * * * * * * * * * * * * * * * * * * * * * * * * * * * * * * * //

dimensions      [0 1 -1 0 0 0 0];

internalField   nonuniform List<vector> 
459
(
(0.0182515 0.07607 0)
(-0.149741 0.0242802 0)
(-0.175819 0.0143354 0)
(-0.201565 0.00681253 0)
(-0.215611 -0.00129918 0)
(-0.216032 -0.00987717 0)
(-0.20173 -0.0189156 0)
(-0.174156 -0.0273329 0)
(-0.136588 -0.0333916 0)
(-0.0942459 -0.0360216 0)
(-0.0527515 -0.0349017 0)
(-0.0167712 -0.029794 0)
(0.0133934 -0.0155371 0)
(0.0201693 -0.000860469 0)
(0.0630006 0.0193423 0)
(-0.126307 0.00369899 0)
(0.0403966 0.0025715 0)
(0.00582571 -0.00660305 0)
(0.020204 -0.0130844 0)
(0.0355772 -0.0126086 0)
(0.0491286 -0.00977112 0)
(0.0583384 -0.00563234 0)
(0.0632363 -0.0032144 0)
(0.0651227 -0.00231381 0)
(0.0657001 -0.00198001 0)
(0.0658562 -0.00175746 0)
(0.0657208 -0.00151494 0)
(0.06514 -0.00114653 0)
(0.063752 -0.000419033 0)
(0.0607396 0.00120503 0)
(0.0544793 0.00463171 0)
(0.0458485 0.00981237 0)
(-0.0188396 0.0207157 0)
(0.128979 -0.00562142 0)
(0.16131 0.155972 0)
(-0.136487 0.0655202 0)
(-0.141762 0.0473104 0)
(-0.168454 0.0315871 0)
(-0.182869 0.0134723 0)
(-0.183997 -0.00698696 0)
(-0.170712 -0.0285678 0)
(-0.145344 -0.0474307 0)
(-0.11185 -0.0596687 0)
(-0.0753756 -0.0636555 0)
(-0.0406425 -0.059676 0)
(-0.0109888 -0.0485716 0)
(0.0131722 -0.0293745 0)
(0.0274802 -0.00962637 0)
(0.0449555 0.013665 0)
(0.0440552 0.0219 0)
(0.0302751 0.0292353 0)
(-0.144937 -0.00114161 0)
(0.0339818 -0.0145377 0)
(0.0269565 -0.0201645 0)
(0.0379323 -0.0236194 0)
(0.0498384 -0.021398 0)
(0.0594238 -0.0161843 0)
(0.0642541 -0.00691678 0)
(0.0654368 -0.00125306 0)
(0.0654162 0.00094107 0)
(0.0655479 0.00178505 0)
(0.0658358 0.0023012 0)
(0.066041 0.00277257 0)
(0.0660767 0.00343251 0)
(0.0659008 0.00476792 0)
(0.0649381 0.00789597 0)
(0.0605889 0.0159853 0)
(0.0540923 0.0250284 0)
(-0.0056117 0.0365079 0)
(0.175411 0.020191 0)
(0.29344 0.233125 0)
(-0.145552 0.102491 0)
(-0.107588 0.0756747 0)
(-0.133557 0.0489484 0)
(-0.146977 0.0191323 0)
(-0.147269 -0.0142518 0)
(-0.13279 -0.0485876 0)
(-0.107861 -0.0770516 0)
(-0.0776006 -0.0935624 0)
(-0.0468304 -0.0968612 0)
(-0.0188631 -0.0883935 0)
(0.00454089 -0.07035 0)
(0.0224015 -0.0463208 0)
(0.035033 -0.0209651 0)
(0.0439532 0.00484478 0)
(0.0458216 0.0259824 0)
(0.0384344 0.0567246 0)
(-0.112389 -0.00981306 0)
(0.0436361 -0.03374 0)
(0.0506103 -0.0378195 0)
(0.0564938 -0.0354177 0)
(0.0630209 -0.0304662 0)
(0.0686815 -0.0257577 0)
(0.070178 -0.0193546 0)
(0.0644981 -0.0124622 0)
(0.0600906 -0.00885415 0)
(0.058528 -0.00690198 0)
(0.0582705 -0.00567067 0)
(0.0584251 -0.00476855 0)
(0.0590369 -0.00387456 0)
(0.0608075 -0.00248413 0)
(0.0653896 0.00185786 0)
(0.0662847 0.0209751 0)
(0.0628586 0.0360312 0)
(0.00464298 0.0519121 0)
(0.203041 0.0508189 0)
(0.414686 0.295213 0)
(-0.170044 0.134423 0)
(-0.0718032 0.100473 0)
(-0.0961198 0.0647306 0)
(-0.106113 0.0250095 0)
(-0.101748 -0.0213845 0)
(-0.0833468 -0.0689165 0)
(-0.0586868 -0.10534 0)
(-0.0331235 -0.123688 0)
(-0.0098187 -0.1248 0)
(0.0105498 -0.111143 0)
(0.0259021 -0.0886045 0)
(0.038311 -0.0607947 0)
(0.0482701 -0.0315882 0)
(0.0572957 -0.00280116 0)
(0.0671357 0.023679 0)
(0.0807343 0.0497962 0)
(0.106854 -0.0228415 0)
(0.100488 -0.0247271 0)
(0.0935148 -0.0356285 0)
(0.0819892 -0.0387131 0)
(0.0743432 -0.0358824 0)
(0.0700714 -0.0307244 0)
(0.066473 -0.0239662 0)
(0.0669777 -0.0143325 0)
(0.0741113 -0.00960369 0)
(0.0797616 -0.0070736 0)
(0.0829436 -0.00561198 0)
(0.0849142 -0.00453872 0)
(0.086138 -0.00344888 0)
(0.0858846 -0.00191667 0)
(0.0826867 0.00062555 0)
(0.074376 0.00476893 0)
(0.0664561 0.0248134 0)
(0.0687439 0.0431038 0)
(0.0206456 0.0629921 0)
(0.217749 0.098289 0)
(0.521959 0.342986 0)
(-0.203002 0.159443 0)
(-0.036324 0.115466 0)
(-0.0564345 0.0741676 0)
(-0.0601601 0.0269125 0)
(-0.0432129 -0.032624 0)
(-0.020002 -0.0907507 0)
(0.00200232 -0.130121 0)
(0.0197486 -0.145662 0)
(0.0329587 -0.142231 0)
(0.0426639 -0.125242 0)
(0.0495525 -0.0995831 0)
(0.0547616 -0.0697335 0)
(0.0594204 -0.039485 0)
(0.0652665 -0.0114321 0)
(0.0739504 0.0118963 0)
(0.0873585 0.0242057 0)
(0.0990728 0.00429223 0)
(0.0975981 -0.00976333 0)
(0.0879573 -0.0218713 0)
(0.0775533 -0.0273744 0)
(0.0687575 -0.02751 0)
(0.0618813 -0.0244732 0)
(0.0567255 -0.0188909 0)
(0.054969 -0.0102937 0)
(0.056493 -0.00538892 0)
(0.0583777 -0.00338902 0)
(0.0599268 -0.00254829 0)
(0.0615226 -0.00182134 0)
(0.0632588 -0.000483001 0)
(0.0650046 0.00220056 0)
(0.0659115 0.00687972 0)
(0.0656209 0.0143987 0)
(0.0659261 0.0277611 0)
(0.0749604 0.0424857 0)
(0.0595651 0.0558229 0)
(0.147327 0.0943446 0)
(0.135699 0.0774464 0)
(0.111084 0.0591613 0)
(-0.0981084 0.0635348 0)
(0.603196 0.38203 0)
(-0.237613 0.175032 0)
(-0.00783706 0.113452 0)
(-0.0142343 0.0750842 0)
(-0.00620521 0.0203003 0)
(0.0320783 -0.0568232 0)
(0.0545658 -0.113131 0)
(0.0688539 -0.145805 0)
(0.0758366 -0.156196 0)
(0.0772937 -0.148693 0)
(0.0750304 -0.128501 0)
(0.0707825 -0.100943 0)
(0.0662526 -0.0706132 0)
(0.0629163 -0.0412415 0)
(0.0622173 -0.0157222 0)
(0.0653658 0.00330073 0)
(0.0722335 0.0116025 0)
(0.0764165 0.00362317 0)
(0.0738187 -0.00727431 0)
(0.0665126 -0.0152907 0)
(0.0579885 -0.0193601 0)
(0.0497774 -0.0199875 0)
(0.0426158 -0.0181374 0)
(0.0370494 -0.0143582 0)
(0.0339674 -0.00935528 0)
(0.0333916 -0.0062991 0)
(0.0340743 -0.00516876 0)
(0.0354116 -0.00489045 0)
(0.0373557 -0.00463187 0)
(0.0399332 -0.00369542 0)
(0.0431893 -0.00118737 0)
(0.0474308 0.00387722 0)
(0.0517242 0.0117638 0)
(0.056875 0.0224754 0)
(0.0663828 0.0333685 0)
(0.0658766 0.0375467 0)
(0.0922424 0.0560985 0)
(0.0904781 0.0490202 0)
(0.0992804 0.0516222 0)
(-0.115153 0.0926835 0)
(0.658094 0.416711 0)
(-0.255844 0.160334 0)
(0.0217074 0.0677796 0)
(0.0462546 0.0423664 0)
(0.0867929 -0.018456 0)
(0.119141 -0.0845498 0)
(0.135666 -0.130296 0)
(0.138884 -0.152665 0)
(0.131743 -0.154865 0)
(0.117809 -0.141786 0)
(0.100464 -0.118586 0)
(0.0826151 -0.0903922 0)
(0.0666386 -0.0613172 0)
(0.0541164 -0.0345651 0)
(0.0461019 -0.0127629 0)
(0.0428353 0.00218819 0)
(0.0440582 0.00826074 0)
(0.0446705 0.00435436 0)
(0.0422346 -0.00268609 0)
(0.0368393 -0.00842582 0)
(0.0299565 -0.0117828 0)
(0.0228158 -0.0127954 0)
(0.0162568 -0.0120079 0)
(0.0110254 -0.0100038 0)
(0.00785704 -0.00759723 0)
(0.00681782 -0.00631889 0)
(0.00719119 -0.00626773 0)
(0.00844321 -0.00680498 0)
(0.0103941 -0.00732179 0)
(0.0130809 -0.00727125 0)
(0.0167409 -0.00593968 0)
(0.0220062 -0.00221331 0)
(0.0297526 0.00499618 0)
(0.0380378 0.0141805 0)
(0.0476918 0.0232948 0)
(0.0523305 0.0285998 0)
(0.0633585 0.0424087 0)
(0.0678926 0.0527817 0)
(0.106545 0.073247 0)
(-0.103232 0.143915 0)
(0.7563 0.413776 0)
(-0.0505392 0.131186 0)
(0.0997678 -0.0201446 0)
(0.17533 -0.0652764 0)
(0.214978 -0.0924929 0)
(0.228341 -0.119571 0)
(0.224062 -0.138051 0)
(0.20539 -0.142951 0)
(0.176287 -0.13489 0)
(0.142066 -0.116867 0)
(0.107211 -0.0925566 0)
(0.0751916 -0.0662336 0)
(0.0486339 -0.0410759 0)
(0.0287653 -0.0194621 0)
(0.0160047 -0.00337668 0)
(0.00975133 0.006158 0)
(0.0090033 0.00895827 0)
(0.00867054 0.00600294 0)
(0.00648474 0.00118299 0)
(0.00278345 -0.00289966 0)
(-0.00275557 -0.0054073 0)
(-0.00862208 -0.00642968 0)
(-0.0140548 -0.00646989 0)
(-0.0183684 -0.0060551 0)
(-0.0210796 -0.00577207 0)
(-0.022228 -0.00621074 0)
(-0.0222881 -0.00730983 0)
(-0.0216981 -0.00869918 0)
(-0.020709 -0.0100214 0)
(-0.0194015 -0.0109926 0)
(-0.0176216 -0.0113319 0)
(-0.014838 -0.010582 0)
(-0.00988925 -0.00778495 0)
(0.00153684 -0.0018342 0)
(0.0109973 0.00492263 0)
(0.0164126 0.00923503 0)
(0.0238782 0.017922 0)
(0.0306379 0.0267745 0)
(0.102844 0.0812596 0)
(-0.356676 0.207106 0)
(0.892015 0.40282 0)
(0.424317 0.27843 0)
(0.43087 0.167395 0)
(0.449761 0.0836288 0)
(0.41539 0.0166485 0)
(0.357577 -0.0387474 0)
(0.298533 -0.073655 0)
(0.239355 -0.087006 0)
(0.180359 -0.0836583 0)
(0.125248 -0.0696791 0)
(0.0764578 -0.0500758 0)
(0.0362574 -0.0300101 0)
(0.00611253 -0.0121793 0)
(-0.0142584 0.00139745 0)
(-0.0242281 0.00849612 0)
(-0.0275998 0.0113497 0)
(-0.028057 0.0113126 0)
(-0.0283934 0.00902422 0)
(-0.0300882 0.00598838 0)
(-0.0330776 0.00341673 0)
(-0.0368474 0.0016616 0)
(-0.0409503 0.000565308 0)
(-0.0448563 -0.000165718 0)
(-0.0481084 -0.000858751 0)
(-0.0505051 -0.00178271 0)
(-0.0521451 -0.00310506 0)
(-0.0533339 -0.00471124 0)
(-0.0544304 -0.00639025 0)
(-0.0557829 -0.00792712 0)
(-0.0578405 -0.00908973 0)
(-0.0612501 -0.00947617 0)
(-0.0668363 -0.00819646 0)
(-0.0756232 -0.00336828 0)
(-0.0875842 0.00661974 0)
(-0.101549 0.0216328 0)
(-0.123984 0.042875 0)
(-0.154333 0.0718137 0)
(-0.193673 0.104982 0)
(-0.258559 0.134164 0)
(-0.505303 0.146341 0)
(-0.196627 0.0330238 0)
(0.086276 -0.0177382 0)
(0.158915 -0.0641154 0)
(0.143856 -0.0722816 0)
(0.121555 -0.0643935 0)
(0.0918839 -0.0519832 0)
(0.0558237 -0.0379253 0)
(0.0196652 -0.022348 0)
(-0.0146995 -0.00547979 0)
(-0.038603 0.00513238 0)
(-0.0534755 0.011767 0)
(-0.0605342 0.0152692 0)
(-0.063012 0.0166751 0)
(-0.063193 0.0169395 0)
(-0.0625315 0.0163797 0)
(-0.0622115 0.0151273 0)
(-0.0628449 0.013656 0)
(-0.0643627 0.0124344 0)
(-0.0664057 0.011651 0)
(-0.0686343 0.0112157 0)
(-0.070793 0.010937 0)
(-0.072883 0.0106797 0)
(-0.075043 0.0102779 0)
(-0.0774974 0.00974811 0)
(-0.0804184 0.00966425 0)
(-0.0839015 0.0104646 0)
(-0.0879291 0.0125762 0)
(-0.0924263 0.0162787 0)
(-0.0974205 0.0213507 0)
(-0.103114 0.026325 0)
(-0.108992 0.0316459 0)
(-0.114406 0.0385428 0)
(-0.119019 0.0493292 0)
(-0.122258 0.0660776 0)
(-0.121811 0.0885598 0)
(-0.115339 0.104824 0)
(-0.105922 0.0743159 0)
(-0.136991 -0.165045 0)
(-0.121063 0.0871931 0)
(0.0851384 -0.0194443 0)
(0.0660508 -0.0748391 0)
(0.02673 -0.0790064 0)
(-0.00531916 -0.0711148 0)
(-0.0314163 -0.0668408 0)
(-0.0550517 -0.0641508 0)
(-0.0739285 -0.0608837 0)
(-0.0854018 -0.0602609 0)
(-0.0905317 -0.0618792 0)
(-0.0927954 -0.0645669 0)
(-0.0927634 -0.0674107 0)
(-0.0913702 -0.0699949 0)
(-0.08929 -0.072219 0)
(-0.0870424 -0.0744358 0)
(-0.0851141 -0.0770329 0)
(-0.0838073 -0.0799862 0)
(-0.0831567 -0.0830361 0)
(-0.0830342 -0.0859816 0)
(-0.0832867 -0.0888015 0)
(-0.0838238 -0.0915919 0)
(-0.0846431 -0.0944557 0)
(-0.085853 -0.097452 0)
(-0.0877058 -0.100702 0)
(-0.0904273 -0.104526 0)
(-0.094061 -0.108932 0)
(-0.098477 -0.113645 0)
(-0.103271 -0.117919 0)
(-0.107778 -0.12025 0)
(-0.111361 -0.117946 0)
(-0.113259 -0.10958 0)
(-0.111801 -0.0940151 0)
(-0.104294 -0.0709411 0)
(-0.0875076 -0.0420098 0)
(-0.0598827 -0.0126569 0)
(-0.0240707 0.000248648 0)
(0.0718787 -0.104221 0)
(-0.0882001 -0.172973 0)
(0.295081 -0.146207 0)
(-0.244192 -0.0556239 0)
(-0.155209 0.199653 0)
(-0.0920229 0.228574 0)
(-0.106977 0.228616 0)
(-0.122105 0.224942 0)
(-0.135757 0.226158 0)
(-0.144417 0.230094 0)
(-0.148137 0.236461 0)
(-0.146731 0.243215 0)
(-0.14221 0.252818 0)
(-0.135891 0.262272 0)
(-0.129227 0.270712 0)
(-0.122873 0.277555 0)
(-0.117163 0.282775 0)
(-0.112128 0.286808 0)
(-0.107751 0.290279 0)
(-0.104105 0.293636 0)
(-0.101282 0.296957 0)
(-0.0992987 0.300117 0)
(-0.098096 0.303015 0)
(-0.0975947 0.305679 0)
(-0.0977365 0.308238 0)
(-0.098481 0.31086 0)
(-0.0997641 0.313725 0)
(-0.101467 0.317138 0)
(-0.103442 0.321681 0)
(-0.105487 0.327631 0)
(-0.107323 0.334965 0)
(-0.108625 0.34314 0)
(-0.108964 0.350864 0)
(-0.107555 0.355911 0)
(-0.103153 0.357485 0)
(-0.0940253 0.355318 0)
(-0.0783965 0.350423 0)
(-0.0560869 0.346119 0)
(-0.0294863 0.348369 0)
(0.00990316 0.359833 0)
(0.109541 0.434074 0)
(-0.260445 0.464601 0)
)
;

boundaryField
{
    floor
    {
        type            noSlip;
    }
    ceiling
    {
        type            noSlip;
    }
    sWall
    {
        type            noSlip;
    }
    nWall
    {
        type            noSlip;
    }
    sideWalls
    {
        type            empty;
    }
    glass1
    {
        type            noSlip;
    }
    glass2
    {
        type            noSlip;
    }
    sun
    {
        type            noSlip;
    }
    heatsource1
    {
        type            noSlip;
    }
    heatsource2
    {
        type            noSlip;
    }
    Table_master
    {
        type            noSlip;
    }
    Table_slave
    {
        type            noSlip;
    }
    inlet
    {
        type            fixedValue;
        value           uniform (0.2 0 0);
    }
    outlet
    {
        type            zeroGradient;
    }
}


// ************************************************************************* //
