/*--------------------------------*- C++ -*----------------------------------*\
  =========                 |
  \\      /  F ield         | OpenFOAM: The Open Source CFD Toolbox
   \\    /   O peration     | Website:  https://openfoam.org
    \\  /    A nd           | Version:  6
     \\/     M anipulation  |
\*---------------------------------------------------------------------------*/
FoamFile
{
    version     2.0;
    format      ascii;
    class       volScalarField;
    location    "600";
    object      alphat;
}
// * * * * * * * * * * * * * * * * * * * * * * * * * * * * * * * * * * * * * //

dimensions      [1 -1 -1 0 0 0 0];

internalField   nonuniform List<scalar> 
459
(
0.00121763
0.00132775
0.00134923
0.00141268
0.00147104
0.00152507
0.00157719
0.00163063
0.00167143
0.00169294
0.00168906
0.0016554
0.00159186
0.00150587
0.00141275
0.000532797
0.000657501
0.000730164
0.000715741
0.000686183
0.000651227
0.000611358
0.000572915
0.000538129
0.000507154
0.000479614
0.000455034
0.000433175
0.000413423
0.000395104
0.000377303
0.000358635
0.000346295
0.000316516
0.00166986
0.00399684
0.003795
0.00441341
0.00501046
0.00561445
0.00616749
0.00657711
0.00694564
0.00725328
0.007453
0.00748428
0.00725607
0.00655803
0.00473621
0.00143389
0.000911034
0.000589895
0.00118062
0.00158861
0.0018639
0.00199561
0.00198027
0.00163994
0.00143326
0.00128145
0.00116289
0.00106727
0.000988589
0.000918247
0.000852599
0.000789493
0.000734254
0.000685168
0.000809982
0.000420794
0.00204821
0.00546679
0.00467888
0.00594368
0.00655915
0.00701182
0.00735997
0.00762428
0.00790292
0.0081997
0.0084815
0.00869157
0.00876404
0.00861881
0.00805537
0.00639945
0.00139235
0.00120304
0.00166041
0.00205409
0.00238188
0.00258862
0.00250452
0.000871566
0.000773665
0.000694913
0.000631179
0.000579077
0.000536025
0.000500172
0.000470305
0.000445877
0.000479098
0.000551223
0.000906871
0.000489304
0.00241324
0.00705052
0.00466951
0.00631629
0.00691039
0.00710801
0.00720465
0.00730486
0.00750037
0.00778501
0.00813053
0.00846823
0.00872966
0.00885984
0.00876907
0.00821714
0.00634963
0.00166061
0.00206951
0.00262713
0.00310707
0.00344912
0.00363892
0.00339898
0.000978236
0.000895036
0.00083623
0.000791963
0.000754417
0.000719125
0.000685237
0.000649459
0.000607495
0.000571028
0.000580952
0.00103513
0.000541882
0.00278587
0.00909547
0.00515483
0.00603457
0.0068698
0.00696243
0.00687766
0.00685827
0.00702643
0.00730683
0.00769398
0.00809688
0.00842397
0.0085995
0.00857966
0.00831422
0.0076383
0.00624744
0.00572164
0.00548337
0.00534321
0.00524471
0.00515681
0.00497145
0.00425908
0.0039298
0.0037449
0.00360062
0.00344056
0.00320035
0.00285666
0.00242821
0.00194489
0.00144828
0.00106689
0.00106005
0.000722082
0.000673146
0.000814603
0.000912836
0.00318032
0.0113154
0.00719138
0.00591041
0.00651865
0.0068503
0.00670754
0.00670968
0.00685098
0.00710678
0.00748234
0.00791214
0.0082762
0.00845954
0.00840429
0.00812934
0.00771074
0.0072354
0.00691377
0.00666986
0.00644545
0.00624279
0.00605849
0.0058566
0.00556501
0.00530744
0.00507562
0.00484727
0.00460867
0.00434641
0.00399589
0.0035393
0.00297536
0.00233438
0.00175411
0.00129994
0.000990918
0.000849071
0.00121799
0.000951024
0.00354236
0.0128883
0.0102264
0.00767085
0.0071389
0.00721205
0.00705915
0.00691798
0.00692267
0.00713565
0.00753281
0.00800508
0.00839509
0.00855992
0.00843889
0.00808688
0.00766982
0.00736619
0.00720884
0.0070514
0.00682028
0.00653248
0.00621199
0.00588098
0.00555928
0.0052757
0.00501776
0.0047735
0.00454203
0.00432975
0.00413616
0.00383985
0.00339662
0.00284263
0.00230221
0.00180835
0.00145342
0.00134387
0.00137656
0.00107307
0.00361247
0.0115698
0.0102182
0.00935295
0.008735
0.00805661
0.00737878
0.00699433
0.00698758
0.00731577
0.00784781
0.00840114
0.00878229
0.00884657
0.00857257
0.00807653
0.00760159
0.00734564
0.00722819
0.006945
0.00650701
0.00600676
0.00552573
0.00511761
0.0047941
0.00453581
0.00431744
0.00412985
0.00397722
0.00386996
0.0038194
0.00379943
0.00355864
0.00318925
0.00285889
0.00268677
0.00278855
0.00322977
0.00401154
0.00168877
0.00351453
0.00418014
0.00466745
0.00484096
0.00491979
0.00507205
0.00543557
0.00606177
0.00690665
0.00783034
0.00865494
0.00921775
0.00938394
0.00909239
0.00846613
0.00777375
0.00732458
0.00698615
0.00658718
0.00603015
0.00539955
0.00482079
0.00436082
0.00402045
0.00376711
0.00356595
0.00339421
0.00324117
0.00310099
0.00296789
0.00283553
0.00270461
0.00259726
0.00251767
0.00249037
0.00250819
0.00250346
0.00241198
0.0022591
0.00158935
0.00186071
0.00370502
0.00546213
0.00694998
0.00818611
0.00922524
0.00998198
0.0103857
0.0104279
0.0101312
0.00947459
0.00852679
0.00751125
0.00673161
0.00619313
0.00565017
0.00503448
0.0044174
0.00388697
0.00348866
0.00320253
0.00299328
0.00283242
0.00270284
0.00259656
0.00251093
0.0024458
0.0024024
0.00238446
0.00239457
0.00241721
0.00245007
0.00248593
0.0024977
0.00244004
0.00229612
0.00207948
0.00132012
0.00238581
0.00572238
0.00835054
0.0093985
0.0100347
0.0103297
0.0102465
0.00980217
0.00906808
0.00815001
0.00717011
0.00627298
0.00551006
0.00487748
0.00429682
0.00376548
0.00333851
0.00302739
0.00280519
0.0026342
0.00249474
0.00238426
0.0023001
0.0022395
0.00220138
0.00218507
0.00218916
0.0022104
0.00225466
0.00232131
0.00240715
0.00250486
0.00259716
0.00266156
0.00264695
0.00268177
0.00271303
0.00134482
0.00209571
0.00222065
0.00230954
0.00245926
0.00236155
0.00224642
0.00216569
0.00207327
0.00195286
0.00180289
0.00162895
0.00144207
0.00125665
0.00108799
0.000952517
0.000856329
0.000792466
0.000751281
0.000725607
0.000710885
0.000704343
0.000704336
0.000710496
0.000721522
0.000736938
0.00075686
0.000781517
0.00081128
0.00084679
0.00088922
0.000938005
0.000992805
0.00105434
0.00112328
0.00119944
0.00128978
0.00132134
0.00128927
0.00121048
0.0011275
)
;

boundaryField
{
    floor
    {
        type            compressible::alphatWallFunction;
        Prt             0.85;
        value           nonuniform List<scalar> 
29
(
0.000199229
7.42527e-05
9.29449e-05
0.000103632
0.000101521
9.71793e-05
9.20151e-05
8.60835e-05
8.03189e-05
7.50615e-05
7.03441e-05
6.61197e-05
6.23234e-05
5.89255e-05
5.58362e-05
5.29542e-05
5.01371e-05
4.71642e-05
4.5188e-05
4.03807e-05
4.03801e-05
5.69915e-05
6.76099e-05
7.56312e-05
0.000199227
7.42518e-05
8.28711e-05
0.000170586
0.000232471
)
;
    }
    ceiling
    {
        type            compressible::alphatWallFunction;
        Prt             0.85;
        value           nonuniform List<scalar> 
43
(
0.00028946
0.0003056
0.000317025
0.000336281
0.000323854
0.000309106
0.000298714
0.000286759
0.00027109
0.000251422
0.000228381
0.000203317
0.000178084
0.00015476
0.000135722
0.000122013
0.000112811
0.000106831
0.000103083
0.000100926
9.99666e-05
9.99661e-05
0.000100871
0.000102487
0.000104741
0.000107647
0.000111229
0.000115536
0.000120649
0.000126726
0.000133671
0.000141421
0.000150065
0.000159681
0.000170224
0.000182632
0.000186944
0.000182563
0.000171748
0.000160271
0.000468365
0.000549327
0.000326637
)
;
    }
    sWall
    {
        type            compressible::alphatWallFunction;
        Prt             0.85;
        value           uniform 0.00028825;
    }
    nWall
    {
        type            compressible::alphatWallFunction;
        Prt             0.85;
        value           nonuniform List<scalar> 6(0.000129774 0.000135191 0.000152349 0.000186451 0.000189814 0.000159948);
    }
    sideWalls
    {
        type            empty;
    }
    glass1
    {
        type            compressible::alphatWallFunction;
        Prt             0.85;
        value           nonuniform List<scalar> 9(0.000168403 0.000228692 0.000277867 0.000324472 0.000371344 0.000420296 0.000464719 0.000473397 0.000461676);
    }
    glass2
    {
        type            compressible::alphatWallFunction;
        Prt             0.85;
        value           nonuniform List<scalar> 2(0.00023465 0.000221528);
    }
    sun
    {
        type            compressible::alphatWallFunction;
        Prt             0.85;
        value           nonuniform List<scalar> 
14
(
0.000172617
0.000187687
0.000190612
0.000199224
0.000207105
0.000214372
0.000221354
0.000228486
0.000233915
0.000236769
0.000236254
0.000231782
0.000223312
0.00021179
)
;
    }
    heatsource1
    {
        type            compressible::alphatWallFunction;
        Prt             0.85;
        value           nonuniform List<scalar> 3(9.53621e-05 0.000116001 0.000130079);
    }
    heatsource2
    {
        type            compressible::alphatWallFunction;
        Prt             0.85;
        value           nonuniform List<scalar> 4(0.000202208 0.000129822 0.000129821 0.000196581);
    }
    Table_master
    {
        type            compressible::alphatWallFunction;
        Prt             0.85;
        value           nonuniform List<scalar> 9(0.000124183 0.000110072 9.8566e-05 8.91383e-05 8.13443e-05 7.48387e-05 6.93711e-05 6.47785e-05 6.09949e-05);
    }
    Table_slave
    {
        type            compressible::alphatWallFunction;
        Prt             0.85;
        value           nonuniform List<scalar> 9(0.000139349 0.00012754 0.000119116 0.000112728 0.000107276 0.000102122 9.71444e-05 9.18563e-05 8.56081e-05);
    }
    inlet
    {
        type            fixedValue;
        value           uniform 1.94e-05;
    }
    outlet
    {
        type            zeroGradient;
    }
}


// ************************************************************************* //
