// -*- C++ -*-
// File generated by PyFoam - sorry for the ugliness

FoamFile
{
 version 2.0;
 format ascii;
 class volScalarField;
 location "610";
 object T;
}

dimensions [ 0 0 0 1 0 0 0 ];

internalField nonuniform List<scalar> 459
(
  300.409
  300.429
  300.435
  300.438
  300.444
  300.478
  300.498
  300.513
  300.522
  300.528
  300.53
  300.533
  300.534
  300.535
  300.528
  300.655
  300.689
  300.706
  300.72
  300.73
  300.738
  300.744
  300.748
  300.753
  300.757
  300.761
  300.766
  300.77
  300.774
  300.779
  300.783
  300.788
  300.794
  300.795
  300.423
  300.434
  300.436
  300.433
  300.441
  300.483
  300.523
  300.554
  300.574
  300.585
  300.59
  300.59
  300.586
  300.576
  300.558
  300.562
  300.57
  300.688
  300.695
  300.705
  300.722
  300.74
  300.756
  300.766
  300.776
  300.785
  300.794
  300.803
  300.812
  300.82
  300.828
  300.833
  300.834
  300.831
  300.825
  300.839
  300.428
  300.432
  300.427
  300.418
  300.43
  300.482
  300.541
  300.59
  300.622
  300.638
  300.642
  300.64
  300.63
  300.616
  300.595
  300.585
  300.581
  300.667
  300.671
  300.693
  300.721
  300.748
  300.77
  300.778
  300.787
  300.798
  300.808
  300.819
  300.831
  300.842
  300.852
  300.86
  300.863
  300.858
  300.849
  300.856
  300.429
  300.429
  300.418
  300.402
  300.419
  300.479
  300.56
  300.629
  300.674
  300.694
  300.698
  300.69
  300.674
  300.653
  300.628
  300.609
  300.596
  300.603
  300.624
  300.653
  300.696
  300.74
  300.778
  300.807
  300.83
  300.849
  300.868
  300.885
  300.903
  300.921
  300.939
  300.958
  300.977
  300.928
  300.898
  300.876
  300.872
  300.429
  300.425
  300.411
  300.389
  300.408
  300.477
  300.578
  300.67
  300.728
  300.752
  300.753
  300.737
  300.714
  300.688
  300.661
  300.638
  300.623
  300.63
  300.655
  300.697
  300.748
  300.798
  300.84
  300.873
  300.9
  300.922
  300.941
  300.957
  300.972
  300.985
  300.998
  301.009
  301.015
  300.977
  300.936
  300.91
  300.891
  300.898
  300.937
  301.066
  300.427
  300.421
  300.403
  300.378
  300.4
  300.476
  300.596
  300.712
  300.783
  300.807
  300.801
  300.777
  300.749
  300.722
  300.696
  300.677
  300.668
  300.687
  300.727
  300.78
  300.834
  300.883
  300.921
  300.95
  300.974
  300.991
  301.005
  301.016
  301.027
  301.037
  301.046
  301.051
  301.047
  301.017
  300.98
  300.963
  300.924
  300.919
  300.967
  301.05
  300.425
  300.416
  300.384
  300.366
  300.394
  300.479
  300.619
  300.759
  300.84
  300.86
  300.844
  300.819
  300.793
  300.767
  300.748
  300.74
  300.748
  300.785
  300.835
  300.889
  300.938
  300.979
  301.009
  301.031
  301.045
  301.054
  301.061
  301.069
  301.076
  301.081
  301.085
  301.084
  301.076
  301.056
  301.031
  301.004
  300.952
  300.94
  300.984
  301.045
  300.425
  300.412
  300.357
  300.354
  300.393
  300.491
  300.656
  300.821
  300.901
  300.912
  300.898
  300.879
  300.86
  300.846
  300.839
  300.845
  300.871
  300.917
  300.965
  301.008
  301.046
  301.074
  301.092
  301.1
  301.104
  301.108
  301.111
  301.115
  301.118
  301.119
  301.119
  301.114
  301.105
  301.09
  301.068
  301.038
  300.989
  300.964
  300.996
  301.049
  300.409
  300.402
  300.316
  300.345
  300.405
  300.528
  300.727
  300.914
  300.972
  300.979
  300.974
  300.967
  300.961
  300.96
  300.967
  300.984
  301.013
  301.051
  301.088
  301.115
  301.135
  301.146
  301.152
  301.154
  301.154
  301.154
  301.154
  301.153
  301.152
  301.15
  301.145
  301.138
  301.128
  301.114
  301.095
  301.069
  301.032
  301
  301.018
  301.059
  300.257
  300.371
  300.469
  300.643
  300.915
  301.009
  301.042
  301.053
  301.057
  301.061
  301.066
  301.073
  301.085
  301.103
  301.124
  301.147
  301.166
  301.18
  301.188
  301.192
  301.192
  301.191
  301.189
  301.186
  301.183
  301.179
  301.175
  301.169
  301.161
  301.151
  301.139
  301.124
  301.107
  301.086
  301.063
  301.041
  301.047
  301.061
  300.829
  300.847
  300.89
  300.941
  301.026
  301.077
  301.101
  301.113
  301.121
  301.129
  301.138
  301.148
  301.159
  301.172
  301.185
  301.197
  301.206
  301.212
  301.214
  301.214
  301.212
  301.209
  301.206
  301.201
  301.196
  301.191
  301.184
  301.176
  301.166
  301.154
  301.141
  301.126
  301.11
  301.094
  301.08
  301.069
  301.069
  301.071
  301.019
  301.013
  301.008
  301.028
  301.05
  301.076
  301.107
  301.129
  301.143
  301.153
  301.161
  301.169
  301.177
  301.186
  301.194
  301.201
  301.208
  301.212
  301.215
  301.215
  301.214
  301.212
  301.209
  301.205
  301.2
  301.195
  301.189
  301.182
  301.173
  301.163
  301.152
  301.138
  301.123
  301.109
  301.095
  301.084
  301.076
  301.072
  301.071
  301.071
)
;

boundaryField
{
  floor
  {
    type wallHeatTransfer;
    Tinf uniform 297.948;
    alphaWall uniform 0.24;
    value nonuniform List<scalar> 29
(
  300.077
  300.169
  300.252
  300.267
  300.27
  300.26
  300.246
  300.226
  300.205
  300.184
  300.164
  300.146
  300.129
  300.113
  300.097
  300.082
  300.065
  300.048
  300.028
  300.086
  300.086
  300.227
  300.297
  300.363
  300.077
  300.169
  300.31
  300.301
  300.132
)
;
  }
  ceiling
  {
    type wallHeatTransfer;
    Tinf uniform 297.948;
    alphaWall uniform 0.24;
    value nonuniform List<scalar> 43
(
  300.744
  300.751
  300.766
  300.794
  300.813
  300.831
  300.854
  300.872
  300.884
  300.893
  300.901
  300.909
  300.917
  300.925
  300.933
  300.941
  300.947
  300.952
  300.954
  300.954
  300.953
  300.95
  300.946
  300.942
  300.938
  300.933
  300.928
  300.922
  300.915
  300.907
  300.898
  300.887
  300.874
  300.861
  300.848
  300.836
  300.829
  300.827
  300.826
  300.799
  300.108
  300.154
  300.646
)
;
  }
  sWall
  {
    type wallHeatTransfer;
    Tinf uniform 300.167;
    alphaWall uniform 0.36;
    value uniform 300.909;
  }
  nWall
  {
    type wallHeatTransfer;
    Tinf uniform 299.15;
    alphaWall uniform 0.36;
    value nonuniform List<scalar> 6
(
  300.716
  300.768
  300.821
  300.875
  300.858
  300.831
)
;
  }
  sideWalls
  {
    type empty;
  }
  glass1
  {
    type wallHeatTransfer;
    Tinf uniform 300.167;
    alphaWall uniform 4.3;
    value nonuniform List<scalar> 9
(
  300.209
  300.216
  300.22
  300.224
  300.228
  300.232
  300.236
  300.239
  300.236
)
;
  }
  glass2
  {
    type wallHeatTransfer;
    Tinf uniform 299.15;
    alphaWall uniform 4.3;
    value nonuniform List<scalar> 2
(
  300.005
  300.056
)
;
  }
  sun
  {
    type wallHeatTransfer;
    Tinf uniform 297.948;
    alphaWall uniform 0.24;
    value nonuniform List<scalar> 14
(
  299.892
  299.984
  300.032
  300.069
  300.099
  300.139
  300.156
  300.162
  300.162
  300.155
  300.146
  300.135
  300.123
  300.105
)
;
  }
  heatsource1
  {
    type fixedGradient;
    gradient uniform 0;
  }
  heatsource2
  {
    type fixedGradient;
    gradient uniform 0;
  }
  Table_master
  {
    type zeroGradient;
  }
  Table_slave
  {
    type zeroGradient;
  }
  inlet
  {
    type fixedValue;
    value uniform 300.15;
  }
  outlet
  {
    type zeroGradient;
  }
} 	// ************************************************************************* //

