/*--------------------------------*- C++ -*----------------------------------*\
  =========                 |
  \\      /  F ield         | OpenFOAM: The Open Source CFD Toolbox
   \\    /   O peration     | Website:  https://openfoam.org
    \\  /    A nd           | Version:  6
     \\/     M anipulation  |
\*---------------------------------------------------------------------------*/
FoamFile
{
    version     2.0;
    format      ascii;
    class       volScalarField;
    location    "300";
    object      alphat;
}
// * * * * * * * * * * * * * * * * * * * * * * * * * * * * * * * * * * * * * //

dimensions      [1 -1 -1 0 0 0 0];

internalField   nonuniform List<scalar> 
459
(
0.000869255
0.000898856
0.000853072
0.000885608
0.000917613
0.000946899
0.000973923
0.000999558
0.00102495
0.00105034
0.00107071
0.00108426
0.00108962
0.00108666
0.00107322
0.000599806
0.000722189
0.000673678
0.000677371
0.000696606
0.000641068
0.000521078
0.000333317
0.000292131
0.000292739
0.000306693
0.000308157
0.000298407
0.000282618
0.00029112
0.000367309
0.000438656
0.000441248
0.000408872
0.00142835
0.00238525
0.00186238
0.00232976
0.00251999
0.0027209
0.00292662
0.00311966
0.00327452
0.00337289
0.00341942
0.00337711
0.00318664
0.0027592
0.0020152
0.00114334
0.000774512
0.000792979
0.00308026
0.00293162
0.00289982
0.00272641
0.00228383
0.00150652
0.00115043
0.000989359
0.000953441
0.000938685
0.000872985
0.000739732
0.000571249
0.000463173
0.000681156
0.0010071
0.00130249
0.000584934
0.00192436
0.00380665
0.00196316
0.00330256
0.00363506
0.00382412
0.00398072
0.00410861
0.00420606
0.00426909
0.0042954
0.00424616
0.00406211
0.00366117
0.00297764
0.00208658
0.0012278
0.00101696
0.00377045
0.0037407
0.00347361
0.00302791
0.00231978
0.000764558
0.000633961
0.000559497
0.000509249
0.000470969
0.000438821
0.000409066
0.000379501
0.000376673
0.000990753
0.00153414
0.00135595
0.000625549
0.00240581
0.00572164
0.00206214
0.00359581
0.00423177
0.00439134
0.0044831
0.00455139
0.00460897
0.00465732
0.00470666
0.00473925
0.00471166
0.00453852
0.00408842
0.00325824
0.00218
0.00136336
0.00291156
0.00400518
0.00405259
0.0035533
0.00301621
0.00224079
0.000950187
0.000894607
0.000883697
0.000890222
0.000905279
0.000919802
0.000922908
0.000902278
0.000870006
0.0010349
0.00142632
0.00211951
0.00099905
0.00286573
0.00796548
0.00266075
0.00333741
0.00444507
0.00463869
0.00468908
0.00471115
0.00473245
0.00476607
0.00483171
0.00495227
0.00512013
0.00530573
0.00545237
0.00548906
0.00537704
0.00511813
0.00483162
0.00454314
0.00403804
0.00355694
0.00327234
0.00328626
0.00357638
0.0037957
0.00393085
0.004053
0.00414321
0.00417522
0.00412582
0.00396994
0.00351096
0.00295338
0.00251692
0.00221133
0.00220554
0.00112722
0.000975705
0.0011602
0.00330912
0.0101362
0.00424111
0.00296384
0.0041454
0.00458217
0.00471186
0.0047424
0.00472575
0.00470039
0.00472462
0.00484216
0.00504379
0.00531351
0.00560411
0.00582281
0.00584922
0.00560292
0.00511599
0.00450434
0.00390859
0.00346331
0.00317862
0.00325678
0.00396838
0.00441986
0.00468401
0.00485516
0.0049494
0.0049707
0.00492873
0.00483875
0.00466679
0.00427674
0.00376371
0.00315416
0.00274962
0.00206785
0.00227868
0.00127055
0.00373414
0.0118154
0.00727122
0.00386493
0.00321449
0.00367107
0.00423518
0.00460485
0.00475622
0.00463157
0.00458305
0.00463806
0.0047754
0.00499019
0.00525389
0.00548662
0.0055641
0.00539133
0.00497581
0.00444313
0.00393458
0.00348986
0.00307065
0.00306253
0.00403837
0.00455922
0.00483259
0.00497799
0.00504293
0.00505038
0.00503316
0.0050322
0.00506801
0.00503207
0.00471181
0.00425641
0.00382208
0.0033831
0.00304516
0.00154397
0.00383313
0.0118829
0.00934843
0.00713962
0.00519871
0.00410363
0.0039343
0.00425842
0.0046408
0.0045634
0.00446144
0.00443104
0.00447403
0.00458099
0.00473892
0.00491413
0.00502711
0.00497699
0.0047417
0.0044214
0.0040886
0.00366472
0.00302796
0.00285934
0.00416176
0.00473835
0.00493448
0.00499669
0.00499407
0.00495668
0.00493996
0.00501
0.00522087
0.00558983
0.00584048
0.00585653
0.00595925
0.00573455
0.00584317
0.00202761
0.003733
0.00449429
0.00499201
0.00516839
0.00498653
0.00457861
0.00421986
0.00402442
0.00396348
0.00395261
0.0039818
0.00403507
0.00410061
0.00417179
0.00424831
0.00433071
0.0044047
0.00443558
0.00440671
0.0043492
0.00427193
0.00394466
0.0030307
0.0026366
0.00432568
0.0049931
0.0050762
0.00503431
0.00493222
0.00476794
0.00459869
0.00447999
0.0044118
0.00434699
0.0042602
0.004097
0.00378524
0.00337058
0.00301894
0.00189399
0.00266942
0.00430946
0.0047158
0.00466397
0.00448371
0.00430736
0.00417324
0.00407452
0.00400984
0.00396658
0.00393081
0.00389609
0.00386682
0.00385738
0.00388488
0.00395649
0.00406621
0.00421861
0.00440394
0.00422959
0.0030073
0.00239683
0.00445365
0.00531777
0.00523762
0.00514603
0.0050507
0.00484624
0.0045825
0.00435178
0.00421056
0.00412422
0.004
0.00375729
0.00335811
0.00283631
0.00230197
0.00152632
0.00281241
0.00489235
0.00517598
0.00500239
0.00479549
0.00457189
0.00435133
0.00414418
0.00393658
0.00369765
0.00345835
0.00324282
0.00307334
0.00297313
0.00296618
0.00306803
0.00326962
0.00354604
0.00386174
0.0038935
0.00274499
0.00212479
0.00415808
0.00493083
0.00474126
0.00466068
0.00464447
0.00455659
0.00441486
0.00425436
0.00421058
0.00423788
0.00425213
0.00417584
0.00397141
0.00367431
0.00300291
0.00155397
0.00245811
0.00257918
0.00268424
0.00282607
0.00267102
0.00243348
0.00225868
0.00210226
0.00195898
0.00182804
0.00171036
0.0016092
0.00151818
0.00143442
0.00135714
0.001287
0.00122592
0.00117677
0.00114276
0.00112638
0.001127
0.00112908
0.00109366
0.00110352
0.00119697
0.001226
0.00122145
0.0012237
0.0012343
0.00125331
0.0012876
0.00134743
0.00142471
0.00152011
0.00162647
0.00174283
0.00178373
0.00173641
0.00160199
0.00147132
)
;

boundaryField
{
    floor
    {
        type            compressible::alphatWallFunction;
        Prt             0.85;
        value           nonuniform List<scalar> 
29
(
0.000152485
8.42649e-05
0.000102371
9.52375e-05
9.57816e-05
9.86134e-05
9.04057e-05
7.23637e-05
4.29848e-05
3.62937e-05
3.63938e-05
3.8676e-05
3.8913e-05
3.73203e-05
3.47284e-05
3.61306e-05
4.84462e-05
5.96685e-05
6.00707e-05
5.50115e-05
5.50108e-05
8.20042e-05
8.80763e-05
0.000142056
0.000152483
8.42638e-05
0.000112669
0.000144592
0.000192431
)
;
    }
    ceiling
    {
        type            compressible::alphatWallFunction;
        Prt             0.85;
        value           nonuniform List<scalar> 
43
(
0.000336014
0.000351398
0.000364689
0.000382628
0.000363133
0.000333003
0.000310623
0.000290436
0.000271802
0.000254641
0.000239104
0.000225653
0.00021347
0.000202188
0.000191711
0.000182146
0.000173768
0.000166992
0.000162284
0.000160011
0.000160097
0.000160385
0.000155461
0.000156827
0.000169777
0.000173781
0.000173155
0.000173463
0.000174921
0.000177533
0.00018223
0.000190394
0.000200878
0.000213734
0.00022796
0.000243408
0.000248811
0.00024256
0.000224697
0.000207175
0.000495025
0.000586999
0.000380757
)
;
    }
    sWall
    {
        type            compressible::alphatWallFunction;
        Prt             0.85;
        value           uniform 0.000334774;
    }
    nWall
    {
        type            compressible::alphatWallFunction;
        Prt             0.85;
        value           nonuniform List<scalar> 6(0.000164306 0.000179489 0.000216518 0.000214186 0.00021789 0.00020679);
    }
    sideWalls
    {
        type            empty;
    }
    glass1
    {
        type            compressible::alphatWallFunction;
        Prt             0.85;
        value           nonuniform List<scalar> 9(0.000119941 0.00019618 0.000261224 0.000322784 0.000380483 0.00043527 0.000487121 0.000499263 0.000487382);
    }
    glass2
    {
        type            compressible::alphatWallFunction;
        Prt             0.85;
        value           nonuniform List<scalar> 2(0.000278074 0.000260827);
    }
    sun
    {
        type            compressible::alphatWallFunction;
        Prt             0.85;
        value           nonuniform List<scalar> 
14
(
0.00012368
0.000127888
0.000121339
0.000125997
0.000130559
0.000134717
0.00013854
0.000142156
0.000145726
0.000149287
0.000152135
0.000154026
0.000154775
0.000154361
)
;
    }
    heatsource1
    {
        type            compressible::alphatWallFunction;
        Prt             0.85;
        value           nonuniform List<scalar> 3(0.000160213 0.000138995 0.000164786);
    }
    heatsource2
    {
        type            compressible::alphatWallFunction;
        Prt             0.85;
        value           nonuniform List<scalar> 4(0.00016245 0.0001102 0.000110198 0.000174112);
    }
    Table_master
    {
        type            compressible::alphatWallFunction;
        Prt             0.85;
        value           nonuniform List<scalar> 9(0.000108749 8.95522e-05 7.83928e-05 7.07587e-05 6.48794e-05 5.98951e-05 5.52398e-05 5.05709e-05 5.0127e-05);
    }
    Table_slave
    {
        type            compressible::alphatWallFunction;
        Prt             0.85;
        value           nonuniform List<scalar> 9(0.000135388 0.000127485 0.000125927 0.000126858 0.000129006 0.000131074 0.000131516 0.000128579 0.000123969);
    }
    inlet
    {
        type            fixedValue;
        value           uniform 1.94e-05;
    }
    outlet
    {
        type            zeroGradient;
    }
}


// ************************************************************************* //
