/*--------------------------------*- C++ -*----------------------------------*\
  =========                 |
  \\      /  F ield         | OpenFOAM: The Open Source CFD Toolbox
   \\    /   O peration     | Website:  https://openfoam.org
    \\  /    A nd           | Version:  6
     \\/     M anipulation  |
\*---------------------------------------------------------------------------*/
FoamFile
{
    version     2.0;
    format      ascii;
    class       volScalarField;
    location    "400";
    object      epsilon;
}
// * * * * * * * * * * * * * * * * * * * * * * * * * * * * * * * * * * * * * //

dimensions      [0 2 -3 0 0 0 0];

internalField   nonuniform List<scalar> 
459
(
0.00036806
0.000468694
0.000484586
0.000552811
0.000620597
0.00068748
0.000755527
0.000828506
0.000892054
0.000929799
0.000928888
0.000881444
0.000791355
0.000678793
0.000569966
2.94348e-05
5.40469e-05
7.04248e-05
6.48447e-05
5.68079e-05
4.86638e-05
4.06365e-05
3.38092e-05
2.83039e-05
2.3903e-05
2.03689e-05
1.75311e-05
1.52123e-05
1.32801e-05
1.16254e-05
1.01423e-05
8.72203e-06
8.13918e-06
6.43848e-06
0.000986049
0.00150607
0.000442878
0.000421028
0.000435307
0.000459178
0.000494314
0.00054522
0.000603395
0.000651658
0.000671836
0.000651212
0.000589217
0.00050559
0.000457723
0.000587685
0.000171321
4.55323e-05
9.24776e-05
8.90535e-05
7.66055e-05
6.28081e-05
5.11892e-05
4.44689e-05
3.63743e-05
2.94056e-05
2.38196e-05
1.94258e-05
1.60079e-05
1.33369e-05
1.12581e-05
9.76043e-06
8.92134e-06
8.66843e-06
2.69281e-05
1.72947e-05
0.0018628
0.00390099
0.000576517
0.000404489
0.000413177
0.000450816
0.000507799
0.00058576
0.000674204
0.000747312
0.000781872
0.000766694
0.000704164
0.000613288
0.00052621
0.000479421
0.000534452
0.000341749
0.000212282
0.000146147
0.000105914
8.01024e-05
6.53251e-05
0.000113781
8.12462e-05
6.00482e-05
4.58355e-05
3.60097e-05
2.90181e-05
2.39206e-05
2.01463e-05
1.7362e-05
1.34934e-05
1.16172e-05
5.15973e-05
2.85232e-05
0.00310411
0.00827925
0.000968118
0.000415071
0.000401368
0.000452382
0.000534653
0.000653364
0.000782188
0.00087507
0.000911186
0.000887828
0.000812627
0.000706039
0.000586424
0.000492646
0.000452792
0.000796031
0.000429774
0.00024432
0.000156965
0.000109925
8.25125e-05
7.03952e-05
0.000159338
0.000126219
0.000106944
9.43978e-05
8.44959e-05
7.48032e-05
6.60917e-05
5.74066e-05
4.79147e-05
2.91713e-05
1.95999e-05
8.65776e-05
3.95737e-05
0.00483961
0.0148503
0.00199147
0.000505914
0.000406721
0.000459201
0.000578625
0.000789594
0.000971351
0.00106862
0.0010879
0.00103987
0.000936838
0.000797733
0.000642306
0.000494586
0.00037319
0.000303512
0.000227614
0.000166785
0.000122838
9.31821e-05
7.41669e-05
6.38103e-05
6.42174e-05
6.2909e-05
6.14139e-05
5.94905e-05
5.64788e-05
5.19333e-05
4.69426e-05
4.22055e-05
3.79296e-05
3.12495e-05
2.46042e-05
5.99858e-05
4.63563e-05
7.71748e-05
0.000133777
0.000188101
0.00726345
0.0219974
0.00455679
0.00100361
0.000599306
0.000591553
0.000763538
0.00113867
0.00131935
0.00136915
0.00133794
0.00124722
0.00110545
0.000923359
0.000721306
0.000526994
0.000366675
0.00025673
0.000186508
0.000138172
0.000103798
8.13738e-05
6.84676e-05
6.29234e-05
6.32032e-05
6.59541e-05
6.89305e-05
7.08052e-05
7.03949e-05
6.64654e-05
5.84986e-05
4.98078e-05
4.19021e-05
3.49754e-05
3.065e-05
4.36387e-05
4.66975e-05
5.80726e-05
0.000247422
0.000214209
0.0101547
0.0262273
0.00958522
0.00344753
0.00203408
0.00162777
0.00180692
0.00194096
0.00192604
0.00183086
0.00169614
0.00152724
0.0013185
0.00107333
0.000812567
0.000568339
0.000371235
0.000238763
0.000160117
0.000114382
8.68893e-05
7.19834e-05
6.60634e-05
6.6524e-05
7.14412e-05
7.86056e-05
8.62908e-05
9.35122e-05
9.90673e-05
0.000100888
9.53631e-05
8.28823e-05
7.07389e-05
6.08796e-05
5.7088e-05
6.52822e-05
8.50373e-05
0.000139872
0.000329743
0.00031584
0.010846
0.0292921
0.0159766
0.0104836
0.00719719
0.0052954
0.00417318
0.00338706
0.00284638
0.00246294
0.00215741
0.00186773
0.00155779
0.0012216
0.00088345
0.000580524
0.000344993
0.00019955
0.000121212
8.78633e-05
7.23311e-05
6.66531e-05
6.74223e-05
7.27189e-05
8.13466e-05
9.23974e-05
0.000105393
0.000120336
0.000137314
0.000156054
0.000175196
0.000186564
0.000193226
0.00021253
0.000255813
0.000390567
0.000738704
0.00142416
0.00417704
0.00120891
0.0100487
0.0170258
0.0136757
0.0103322
0.0078444
0.00609036
0.00486694
0.00403838
0.00346434
0.0030226
0.00262042
0.00220334
0.00175499
0.00128858
0.000852322
0.000492659
0.000235504
0.000129911
8.54484e-05
6.74844e-05
6.13251e-05
6.1702e-05
6.62946e-05
7.40263e-05
8.44829e-05
9.76568e-05
0.000113957
0.000134284
0.000160084
0.000193455
0.000237264
0.000295177
0.000373909
0.000492333
0.000667933
0.000905738
0.00117505
0.0014051
0.00158004
0.000983155
0.00445799
0.00667508
0.00646907
0.00593571
0.00539615
0.00480202
0.00417624
0.00353112
0.00287075
0.00221038
0.00157332
0.000957445
0.000476481
0.000229778
0.000114698
7.04627e-05
5.37238e-05
4.82195e-05
4.81761e-05
5.12988e-05
5.66326e-05
6.38554e-05
7.29913e-05
8.43133e-05
9.83634e-05
0.000116034
0.000138703
0.000168463
0.000208494
0.000264215
0.000341085
0.000446481
0.00058393
0.000739798
0.000871159
0.000921985
0.000855885
0.000541975
0.00321194
0.006442
0.00646195
0.00534872
0.00464279
0.0041094
0.00345102
0.00265865
0.00183403
0.00115765
0.000661593
0.0003397
0.000165901
8.52165e-05
5.12879e-05
3.92103e-05
3.61541e-05
3.70701e-05
3.9994e-05
4.43324e-05
4.99398e-05
5.68963e-05
6.54321e-05
7.59239e-05
8.89441e-05
0.000105361
0.000126498
0.000154364
0.000191899
0.000242721
0.000311833
0.000404198
0.000520235
0.0006517
0.000748135
0.000844884
0.00076856
0.000567428
0.00212013
0.00250865
0.00282134
0.00333081
0.00281045
0.00228085
0.00185727
0.00149622
0.00121512
0.000941351
0.000678861
0.000448209
0.000269936
0.00015491
9.17961e-05
6.12203e-05
4.77801e-05
4.28418e-05
4.23348e-05
4.44046e-05
4.82593e-05
5.34541e-05
5.99045e-05
6.77421e-05
7.71847e-05
8.85367e-05
0.000102216
0.000118818
0.000139252
0.000165028
0.000197807
0.000238539
0.0002895
0.000353649
0.000434045
0.000548663
0.000585966
0.000542619
0.000445881
0.000355045
)
;

boundaryField
{
    floor
    {
        Cmu             0.09;
        kappa           0.41;
        E               9.8;
        type            epsilonWallFunction;
        value           nonuniform List<scalar> 
29
(
0.000569966
2.94348e-05
5.40469e-05
7.04248e-05
6.48447e-05
5.68079e-05
4.86638e-05
4.06365e-05
3.38092e-05
2.83039e-05
2.3903e-05
2.03689e-05
1.75311e-05
1.52123e-05
1.32801e-05
1.16254e-05
1.01423e-05
8.72203e-06
8.13918e-06
6.43848e-06
6.43848e-06
1.72947e-05
2.85232e-05
3.95737e-05
0.000569966
2.94348e-05
4.55323e-05
0.000341749
0.000796031
)
;
    }
    ceiling
    {
        Cmu             0.09;
        kappa           0.41;
        E               9.8;
        type            epsilonWallFunction;
        value           nonuniform List<scalar> 
43
(
0.00212013
0.00250865
0.00282134
0.00333081
0.00281045
0.00228085
0.00185727
0.00149622
0.00121512
0.000941351
0.000678861
0.000448209
0.000269936
0.00015491
9.17961e-05
6.12203e-05
4.77801e-05
4.28418e-05
4.23348e-05
4.44046e-05
4.82593e-05
5.34541e-05
5.99045e-05
6.77421e-05
7.71847e-05
8.85367e-05
0.000102216
0.000118818
0.000139252
0.000165028
0.000197807
0.000238539
0.0002895
0.000353649
0.000434045
0.000548663
0.000585966
0.000542619
0.000445881
0.000355045
0.0100487
0.0170258
0.00321194
)
;
    }
    sWall
    {
        Cmu             0.09;
        kappa           0.41;
        E               9.8;
        type            epsilonWallFunction;
        value           uniform 0.00212013;
    }
    nWall
    {
        Cmu             0.09;
        kappa           0.41;
        E               9.8;
        type            epsilonWallFunction;
        value           nonuniform List<scalar> 6(0.000188101 0.000214209 0.00031584 0.000541975 0.000567428 0.000355045);
    }
    sideWalls
    {
        type            empty;
    }
    glass1
    {
        Cmu             0.09;
        kappa           0.41;
        E               9.8;
        type            epsilonWallFunction;
        value           nonuniform List<scalar> 9(0.00036806 0.000986049 0.0018628 0.00310411 0.00483961 0.00726345 0.0101547 0.010846 0.0100487);
    }
    glass2
    {
        Cmu             0.09;
        kappa           0.41;
        E               9.8;
        type            epsilonWallFunction;
        value           nonuniform List<scalar> 2(0.00120891 0.000983155);
    }
    sun
    {
        Cmu             0.09;
        kappa           0.41;
        E               9.8;
        type            epsilonWallFunction;
        value           nonuniform List<scalar> 
14
(
0.00036806
0.000468694
0.000484586
0.000552811
0.000620597
0.00068748
0.000755527
0.000828506
0.000892054
0.000929799
0.000928888
0.000881444
0.000791355
0.000678793
)
;
    }
    heatsource1
    {
        Cmu             0.09;
        kappa           0.41;
        E               9.8;
        type            epsilonWallFunction;
        value           nonuniform List<scalar> 3(7.71748e-05 0.000133777 0.000188101);
    }
    heatsource2
    {
        Cmu             0.09;
        kappa           0.41;
        E               9.8;
        type            epsilonWallFunction;
        value           nonuniform List<scalar> 4(0.000587685 0.000171321 0.000171321 0.000534452);
    }
    Table_master
    {
        Cmu             0.09;
        kappa           0.41;
        E               9.8;
        type            epsilonWallFunction;
        value           nonuniform List<scalar> 9(0.000113781 8.12462e-05 6.00482e-05 4.58355e-05 3.60097e-05 2.90181e-05 2.39206e-05 2.01463e-05 1.7362e-05);
    }
    Table_slave
    {
        Cmu             0.09;
        kappa           0.41;
        E               9.8;
        type            epsilonWallFunction;
        value           nonuniform List<scalar> 9(0.000159338 0.000126219 0.000106944 9.43978e-05 8.44959e-05 7.48032e-05 6.60917e-05 5.74066e-05 4.79147e-05);
    }
    inlet
    {
        type            turbulentMixingLengthDissipationRateInlet;
        mixingLength    0.01;
        phi             phi;
        k               k;
        value           uniform 0.000101881;
    }
    outlet
    {
        type            zeroGradient;
    }
}


// ************************************************************************* //
