/*--------------------------------*- C++ -*----------------------------------*\
  =========                 |
  \\      /  F ield         | OpenFOAM: The Open Source CFD Toolbox
   \\    /   O peration     | Website:  https://openfoam.org
    \\  /    A nd           | Version:  6
     \\/     M anipulation  |
\*---------------------------------------------------------------------------*/
FoamFile
{
    version     2.0;
    format      ascii;
    class       surfaceScalarField;
    location    "1400";
    object      phi;
}
// * * * * * * * * * * * * * * * * * * * * * * * * * * * * * * * * * * * * * //

dimensions      [1 0 -1 0 0 0 0];

internalField   nonuniform List<scalar> 
852
(
-0.00293597
0.00299223
-0.00397345
0.00103747
-0.00476184
0.000788392
-0.00537877
0.000616935
-0.0057951
0.000416322
-0.00598819
0.000193088
-0.00593616
-5.20211e-05
-0.00562137
-0.000314795
-0.00505583
-0.000565544
-0.00429111
-0.000764713
-0.00340772
-0.000883393
-0.00249448
-0.000913244
-0.00162629
-0.000868185
-0.000825342
-0.000800951
-0.000823902
-0.000674458
0.000677146
-0.000343105
-0.000331353
0.000264731
-0.000607836
0.000737153
-0.000472422
0.00104998
-0.000312832
0.00124395
-0.000193963
0.00134915
-0.000105203
0.00140135
-5.22011e-05
0.00143074
-2.9388e-05
0.00144861
-1.78725e-05
0.00145845
-9.84325e-06
0.00146136
-2.90655e-06
0.00145537
5.98578e-06
0.00143209
2.32821e-05
0.00136906
6.30272e-05
0.00122858
0.000140484
0.000996141
0.000232439
0.000705832
0.000290309
0.000709447
-0.00209445
0.00523815
-0.00309904
0.00204207
-0.0039044
0.00159375
-0.00450814
0.00122068
-0.0049146
0.000822781
-0.00511023
0.000388719
-0.00506979
-9.24665e-05
-0.0047786
-0.000605983
-0.00425971
-0.00108443
-0.00357424
-0.00145018
-0.00280429
-0.00165335
-0.00203046
-0.00168707
-0.00132512
-0.00157353
-0.000776682
-0.00134938
-0.000573318
-0.00102727
-7.83605e-05
-0.000495009
-7.84121e-05
0.000381147
0.000303653
0.000804446
-0.000754653
0.00105217
-0.000855561
0.00126019
-0.000680439
0.0014146
-0.000467251
0.00150454
-0.000283895
0.00151829
-0.000118962
0.00152204
-5.59517e-05
0.00152657
-3.39109e-05
0.00153035
-2.16604e-05
0.00153289
-1.23823e-05
0.00153414
-4.15584e-06
0.00153323
6.89553e-06
0.0015266
2.99122e-05
0.00148544
0.000104185
0.00131056
0.000315369
0.00100839
0.00053461
0.000627554
0.00067114
0.00134631
-0.00146585
0.00693565
-0.00232878
0.002905
-0.00303701
0.00230198
-0.00354811
0.00173177
-0.00389791
0.00117259
-0.00406853
0.000559341
-0.00401532
-0.000145683
-0.00371589
-0.000905413
-0.00321484
-0.00158549
-0.00258785
-0.00207717
-0.00191665
-0.00232455
-0.00126555
-0.00233817
-0.000685438
-0.00215364
-0.000228014
-0.00180681
7.65779e-05
-0.00133186
0.000277667
-0.000696099
0.000199255
0.00148232
-0.00117065
0.00169618
-0.00096851
0.00167553
-0.000834914
0.00167616
-0.000681064
0.00169777
-0.000488864
0.00170834
-0.00029447
0.00158953
0.00153373
0.00149998
0.00147847
0.00146624
0.00146224
0.00146928
0.00149935
0.00160369
0.00132315
0.000595907
0.000982235
0.000875523
0.000548784
0.00110459
0.0019093
-0.0010238
0.00825937
-0.00170562
0.00358682
-0.00216676
0.00276312
-0.00249393
0.00205894
-0.00271764
0.0013963
-0.00280596
0.000647659
-0.00268416
-0.000267485
-0.00233935
-0.00125022
-0.00185471
-0.00207013
-0.00131359
-0.00261829
-0.000783237
-0.00285491
-0.000299457
-0.00282195
0.000119878
-0.00257297
0.000469537
-0.00215647
0.00077641
-0.00163873
0.00114472
-0.00106441
0.00190317
-0.000559196
0.00243889
-0.00052845
0.00203682
-0.000768579
0.0019107
-0.000842382
0.00180203
-0.000726247
0.0017098
-0.000588839
0.00166046
-0.000439521
0.00164221
-0.000276223
0.0017562
-0.000114146
0.00182905
-7.30019e-05
0.00188828
-5.9378e-05
0.00193408
-4.59557e-05
0.00195248
-1.85516e-05
0.00192238
2.99458e-05
0.00181907
0.000103156
0.00161023
0.000208691
0.0012418
0.000368272
0.00111085
0.000726852
0.000824146
0.00116223
0.000386283
0.00154245
0.0023142
-0.000717933
0.00933518
-0.00123446
0.00410334
-0.00132124
0.00284989
-0.00137284
0.00211054
-0.00139402
0.00141748
-0.00130546
0.000559107
-0.00102628
-0.000546674
-0.000617998
-0.0016585
-0.000186289
-0.00250184
0.000202354
-0.00300693
0.00052099
-0.00317354
0.000766895
-0.00306786
0.000952914
-0.00275899
0.0011073
-0.00231085
0.00126052
-0.00179196
0.00146403
-0.00126792
0.00174808
-0.000843242
0.00188577
-0.000666142
0.0017888
-0.000671605
0.00161499
-0.000668573
0.0014694
-0.000580663
0.00135106
-0.000470494
0.00127068
-0.000359147
0.00124126
-0.000246801
0.00128349
-0.000156373
0.00133175
-0.000121266
0.00138488
-0.000112505
0.00143941
-0.000100484
0.00148477
-6.39144e-05
0.00150139
1.33286e-05
0.00146875
0.000135794
0.00137497
0.000302469
0.00122081
0.000522435
0.00108626
0.000861398
0.000941928
0.00130656
0.000622063
0.00186232
0.000548769
0.0023875
-0.000969964
0.00151853
-0.00143238
0.000462208
-0.00138538
-0.000626703
0.0103687
-0.000980289
0.00445693
-0.000553407
0.00242301
-0.000187762
0.0017449
9.3697e-05
0.00113602
0.000482735
0.000170069
0.000980499
-0.00104444
0.00140093
-0.00207893
0.00168679
-0.0027877
0.00183381
-0.00315395
0.00187137
-0.0032111
0.00182794
-0.00302442
0.00173367
-0.00266473
0.00162467
-0.00220185
0.00153396
-0.00170124
0.00148717
-0.00122113
0.00147848
-0.000834551
0.00142439
-0.000612053
0.00128099
-0.00052821
0.00109169
-0.000479272
0.000925506
-0.000414477
0.00079919
-0.000344179
0.000718637
-0.000278594
0.000691294
-0.000219459
0.000714067
-0.000179147
0.000762737
-0.000169936
0.000826585
-0.000176353
0.000900997
-0.000174897
0.000980401
-0.000143319
0.00105284
-5.91087e-05
0.00110063
8.8006e-05
0.00111952
0.000283571
0.00111755
0.000524407
0.001142
0.000836952
0.00124049
0.00120807
0.00142622
0.00167658
0.00186852
0.0019452
0.00212928
0.00125776
0.00174112
0.000850373
0.000412307
-0.000681069
0.0115008
-0.00055992
0.00433578
0.000576083
0.00128701
0.00137168
0.000949303
0.00205656
0.000451132
0.00275721
-0.000530579
0.00330078
-0.00158801
0.00358739
-0.00236554
0.00362171
-0.00282202
0.00344918
-0.00298142
0.00313185
-0.00289377
0.00273087
-0.00262345
0.00229949
-0.00223335
0.00188441
-0.00178677
0.00152106
-0.0013379
0.00122559
-0.000925666
0.000996538
-0.000605501
0.000798776
-0.000414291
0.000599581
-0.000329015
0.000410124
-0.000289816
0.000255355
-0.000259708
0.00014502
-0.000233845
8.02417e-05
-0.000213816
6.13155e-05
-0.000200533
8.15946e-05
-0.000199426
0.000126162
-0.000214504
0.000185717
-0.000235908
0.000259267
-0.000248446
0.000350951
-0.000235004
0.000465683
-0.000173841
0.000591132
-3.7443e-05
0.000716699
0.000158003
0.000853341
0.000387765
0.00103888
0.000651417
0.00132149
0.000925458
0.00176267
0.0012354
0.00242888
0.00127899
0.00296963
0.00071701
0.00299321
0.00082679
0.00346671
0.0025953
0.00941018
0.00330037
0.0036307
0.00370319
0.000884193
0.00439281
0.00025968
0.00520745
-0.000363503
0.00583625
-0.00115938
0.00605708
-0.00180884
0.00589868
-0.00220714
0.00543784
-0.00236119
0.00476677
-0.00231035
0.00398086
-0.00210786
0.00316416
-0.00180676
0.00237818
-0.00144736
0.00167193
-0.00108052
0.00107822
-0.000744186
0.000603528
-0.000450977
0.00025312
-0.000255093
-1.62399e-06
-0.000159548
-0.000197495
-0.000133144
-0.000351223
-0.000136088
-0.000467442
-0.00014349
-0.000548393
-0.000152894
-0.000597621
-0.000164588
-0.000618706
-0.000179449
-0.000618322
-0.000199811
-0.000606489
-0.000226337
-0.000588962
-0.000253436
-0.000564815
-0.000272594
-0.000525728
-0.000274091
-0.000452988
-0.000246581
-0.000317503
-0.000172928
-0.000135167
-2.43339e-05
7.91452e-05
0.000173452
0.000349006
0.000381556
0.000685811
0.000588652
0.00113007
0.00079114
0.00161856
0.000790505
0.00182608
0.00050949
0.00108534
0.00156753
0.00480155
0.00996379
0.0135865
0.0124558
0.00201484
0.0117487
0.000966827
0.0110926
0.000292597
0.010212
-0.000278844
0.00906653
-0.000663345
0.00776077
-0.000901382
0.00638893
-0.000989353
0.00502461
-0.000946026
0.00373486
-0.000818108
0.0025724
-0.000644295
0.00155817
-0.00043314
0.000716753
-0.000239095
5.50561e-05
-8.24898e-05
-0.000411135
1.52136e-05
-0.000699273
3.30442e-05
-0.000877976
1.91545e-05
-0.00100464
-6.47978e-06
-0.00110637
-3.43603e-05
-0.00118941
-6.04529e-05
-0.00125643
-8.58678e-05
-0.00131112
-0.000109905
-0.00135772
-0.000132846
-0.00140283
-0.000154698
-0.00145475
-0.00017442
-0.00152102
-0.000187171
-0.0016088
-0.000184811
-0.00172671
-0.000156178
-0.00188513
-8.81672e-05
-0.00208968
3.16278e-05
-0.00232726
0.000213243
-0.00262453
0.000470719
-0.00306355
0.000820577
-0.00373589
0.00126099
-0.00470804
0.00176329
-0.00609621
0.00217868
-0.00778188
0.00219516
-0.00730831
0.00109396
-0.00223072
0.00467904
0.00351313
0.00379321
0.00185265
0.00417532
-8.95126e-05
0.00418161
-0.000285128
0.00377759
-0.000259331
0.00314674
-0.00027053
0.00239557
-0.000238183
0.00159199
-0.000142449
0.000778272
-4.38763e-06
6.66833e-06
0.000127309
-0.000632275
0.000205803
-0.00108394
0.000212566
-0.0013709
0.000204477
-0.00153465
0.000178958
-0.00163744
0.000135841
-0.00171112
9.28342e-05
-0.0017725
5.48929e-05
-0.00183037
2.35139e-05
-0.00188953
-1.29722e-06
-0.00195178
-2.36205e-05
-0.00201786
-4.38189e-05
-0.00208963
-6.10802e-05
-0.00217035
-7.3979e-05
-0.00226245
-8.23173e-05
-0.00236687
-8.27488e-05
-0.00248253
-6.91563e-05
-0.00260541
-3.3302e-05
-0.00272782
3.42511e-05
-0.00283772
0.00014152
-0.00293184
0.00030737
-0.00301795
0.000556824
-0.0031015
0.000904129
-0.00317826
0.00133775
-0.00320277
0.0017878
-0.0031223
0.00209821
-0.00275701
0.00182987
-0.00149565
-0.000167394
-0.00365434
-0.000540777
0.0041186
0.000295614
0.00101626
-8.15615e-05
0.000287662
-0.000453729
8.70391e-05
-0.000782575
6.95148e-05
-0.00114232
8.92158e-05
-0.00150833
0.000127827
-0.0018277
0.000176917
-0.00205375
0.000221666
-0.00218016
0.000253715
-0.00223735
0.000262998
-0.00226275
0.000237958
-0.00226137
0.000203096
-0.00224966
0.000167253
-0.00224641
0.000132591
-0.00225644
0.000102862
-0.00227959
7.80381e-05
-0.00231359
5.75196e-05
-0.0023554
4.05142e-05
-0.00240621
2.71816e-05
-0.00246493
1.48994e-05
-0.00252939
3.38041e-06
-0.00259692
-6.44973e-06
-0.00266542
-1.38177e-05
-0.00273107
-1.71005e-05
-0.002787
-1.32242e-05
-0.00282232
2.02292e-06
-0.00282673
3.86571e-05
-0.00279011
0.000104901
-0.00269083
0.00020809
-0.00249761
0.000363602
-0.00218377
0.000590285
-0.00173034
0.000884321
-0.00110929
0.00116675
-0.000149617
0.00113853
0.00114447
0.00053578
0.00157995
-0.000602875
-0.00199548
-0.00723273
-0.0101337
-0.00597234
-0.00493611
-0.00463726
-0.00454328
-0.00446945
-0.0043779
-0.00424935
-0.00407307
-0.00385326
-0.00360255
-0.00334367
-0.00311087
-0.00291383
-0.00275335
-0.00262809
-0.00253298
-0.00246303
-0.00241385
-0.00238186
-0.00236333
-0.00235716
-0.00236253
-0.00237772
-0.00240019
-0.00242583
-0.00244743
-0.00245357
-0.00242284
-0.0023256
-0.00212488
-0.00176837
-0.00118489
-0.00030713
0.000853276
0.00198543
0.00251459
0.00190471
)
;

boundaryField
{
    floor
    {
        type            calculated;
        value           nonuniform List<scalar> 
29
(
0
0
0
0
0
0
0
0
0
0
0
0
0
0
0
0
0
0
0
0
-3.61557e-06
-9.31228e-06
-1.41989e-05
-1.86231e-05
-1.44091e-06
-2.68878e-06
-7.65383e-06
-8.01985e-06
-7.2755e-06
)
;
    }
    ceiling
    {
        type            calculated;
        value           nonuniform List<scalar> 
43
(
-4.54276e-05
-4.41063e-05
-4.27966e-05
-1.99687e-05
-1.11907e-05
-6.93686e-06
-4.31474e-06
-2.33489e-06
-7.28383e-07
6.36347e-07
1.85645e-06
3.00215e-06
4.11941e-06
5.16051e-06
6.05381e-06
6.77143e-06
7.3295e-06
7.75893e-06
8.08762e-06
8.33627e-06
8.52007e-06
8.64887e-06
8.72887e-06
8.75788e-06
8.73168e-06
8.65681e-06
8.53729e-06
8.37457e-06
8.1698e-06
7.92351e-06
7.65454e-06
7.37339e-06
7.08838e-06
6.81033e-06
6.55884e-06
6.34823e-06
6.38103e-06
6.61809e-06
7.00709e-06
8.23302e-06
1.10785e-05
8.03115e-06
-6.47016e-05
)
;
    }
    sWall
    {
        type            calculated;
        value           uniform -0.000274862;
    }
    nWall
    {
        type            calculated;
        value           nonuniform List<scalar> 6(-4.71966e-05 -5.65741e-05 -6.1188e-05 -7.20319e-05 -7.89082e-05 -9.90089e-05);
    }
    sideWalls
    {
        type            empty;
        value           nonuniform 0();
    }
    glass1
    {
        type            calculated;
        value           nonuniform List<scalar> 9(-5.62576e-05 -0.000151473 -0.000231649 -0.000299916 -0.000357884 -0.000406784 -0.000451056 -0.000504687 -0.000564685);
    }
    glass2
    {
        type            calculated;
        value           nonuniform List<scalar> 2(-0.000249513 -0.000276041);
    }
    sun
    {
        type            calculated;
        value           uniform 0;
    }
    heatsource1
    {
        type            calculated;
        value           nonuniform List<scalar> 3(2.03965e-07 2.0392e-07 2.03937e-07);
    }
    heatsource2
    {
        type            calculated;
        value           nonuniform List<scalar> 4(5.10994e-08 5.12215e-08 0 0);
    }
    Table_master
    {
        type            calculated;
        value           nonuniform List<scalar> 9(-1.52972e-07 -1.53054e-07 -1.53083e-07 -1.53102e-07 -1.53116e-07 -1.53126e-07 -1.53129e-07 -1.53123e-07 -1.53091e-07);
    }
    Table_slave
    {
        type            calculated;
        value           nonuniform List<scalar> 9(1.5285e-07 1.52875e-07 1.52858e-07 1.52844e-07 1.52839e-07 1.52842e-07 1.52858e-07 1.529e-07 1.5298e-07);
    }
    inlet
    {
        type            calculated;
        value           uniform -0.00617732;
    }
    outlet
    {
        type            calculated;
        value           nonuniform List<scalar> 2(0.00755302 0.00294511);
    }
}


// ************************************************************************* //
