/*--------------------------------*- C++ -*----------------------------------*\
  =========                 |
  \\      /  F ield         | OpenFOAM: The Open Source CFD Toolbox
   \\    /   O peration     | Website:  https://openfoam.org
    \\  /    A nd           | Version:  6
     \\/     M anipulation  |
\*---------------------------------------------------------------------------*/
FoamFile
{
    version     2.0;
    format      ascii;
    class       volVectorField;
    location    "1600";
    object      U;
}
// * * * * * * * * * * * * * * * * * * * * * * * * * * * * * * * * * * * * * //

dimensions      [0 1 -1 0 0 0 0];

internalField   nonuniform List<vector> 
459
(
(0.209853 -0.127413 0)
(0.192524 -0.0939527 0)
(0.262519 -0.0591154 0)
(0.311788 -0.0368535 0)
(0.327041 -0.0232621 0)
(0.320556 -0.0127861 0)
(0.301863 -0.00286056 0)
(0.272424 0.00732611 0)
(0.230642 0.0181879 0)
(0.175158 0.0302262 0)
(0.106461 0.0442674 0)
(0.0211154 0.0618552 0)
(-0.0859039 0.0544641 0)
(-0.0913715 0.00525297 0)
(-0.0657728 -0.0592487 0)
(0.0449327 0.00168643 0)
(-0.0194623 0.00482163 0)
(-0.0134205 0.00252178 0)
(-0.0162586 2.14423e-05 0)
(-0.0163772 -0.00153438 0)
(-0.0154104 -0.00219031 0)
(-0.013774 -0.00328511 0)
(-0.0113981 -0.00268875 0)
(-0.00922503 -0.00239964 0)
(-0.00729353 -0.00213438 0)
(-0.00538114 -0.00208164 0)
(-0.00372799 -0.0022914 0)
(-0.00269304 -0.00210839 0)
(-0.00196649 -0.00122022 0)
(-0.00234325 -9.68747e-05 0)
(-0.00320777 0.00299111 0)
(-0.00205139 0.00460238 0)
(-0.00389036 0.00407266 0)
(-0.0317279 -0.0030771 0)
(0.233907 -0.227864 0)
(0.146897 -0.143133 0)
(0.206015 -0.0681514 0)
(0.245951 -0.0238825 0)
(0.256114 0.00219539 0)
(0.249862 0.0214738 0)
(0.234274 0.0391803 0)
(0.208786 0.0569753 0)
(0.170866 0.0754603 0)
(0.118944 0.0951394 0)
(0.0554966 0.116808 0)
(-0.0298871 0.127669 0)
(-0.0992956 0.0752942 0)
(-0.108946 -0.0198081 0)
(-0.0924257 -0.0874823 0)
(-0.0665231 -0.0742547 0)
(-0.0504768 -0.0486424 0)
(0.0267555 0.0122822 0)
(-0.0249418 0.0151304 0)
(-0.0268757 0.00904041 0)
(-0.0319641 0.00361544 0)
(-0.033752 -0.000195907 0)
(-0.0337718 -0.00222906 0)
(-0.0324399 -0.00412485 0)
(-0.0294829 -0.00290652 0)
(-0.0278366 -0.001948 0)
(-0.0276565 -0.00107753 0)
(-0.028179 0.000126723 0)
(-0.029335 0.00228939 0)
(-0.0317602 0.00573846 0)
(-0.034289 0.00880455 0)
(-0.0346023 0.00792367 0)
(-0.0306704 0.000436633 0)
(-0.0199053 -0.000447851 0)
(-0.0169243 0.000606826 0)
(0.0503418 -0.00491386 0)
(0.232865 -0.337838 0)
(0.0850336 -0.200909 0)
(0.14046 -0.0958978 0)
(0.168781 -0.0401203 0)
(0.17185 -0.00866967 0)
(0.16773 0.0182619 0)
(0.159019 0.04735 0)
(0.141663 0.079247 0)
(0.111865 0.113364 0)
(0.0683741 0.14908 0)
(0.0116096 0.184799 0)
(-0.0565096 0.186202 0)
(-0.0959316 0.107669 0)
(-0.0937002 -0.00971601 0)
(-0.0905996 -0.0856114 0)
(-0.0902712 -0.0937814 0)
(-0.122315 -0.0939305 0)
(-0.0484282 0.0543586 0)
(-0.0567068 0.0255874 0)
(-0.060192 0.0146183 0)
(-0.062257 0.00723962 0)
(-0.0628152 0.00132978 0)
(-0.0635207 -0.00368698 0)
(-0.0610988 -0.00641797 0)
(-0.0674565 -0.00634638 0)
(-0.0705221 -0.00564533 0)
(-0.0727521 -0.0053631 0)
(-0.074316 -0.00552457 0)
(-0.0750146 -0.00620086 0)
(-0.0745509 -0.00759274 0)
(-0.0736188 -0.0107185 0)
(-0.0702047 -0.0176595 0)
(-0.0570162 -0.0259404 0)
(-0.0396935 -0.0237865 0)
(-0.0316849 -0.0243152 0)
(0.0950269 -0.00958834 0)
(0.220728 -0.414228 0)
(0.0343214 -0.233733 0)
(0.0903443 -0.103056 0)
(0.103168 -0.0402225 0)
(0.0973733 -0.00673047 0)
(0.0947829 0.0236773 0)
(0.0920896 0.0594117 0)
(0.0816883 0.101045 0)
(0.0596884 0.147285 0)
(0.0250363 0.196818 0)
(-0.0258738 0.242454 0)
(-0.0738438 0.2271 0)
(-0.0998707 0.124446 0)
(-0.110117 -0.00458365 0)
(-0.129437 -0.0694412 0)
(-0.158565 -0.0785021 0)
(-0.196419 -0.0592954 0)
(-0.201113 0.000958844 0)
(-0.153423 0.0408431 0)
(-0.1389 0.0238128 0)
(-0.132913 0.0142678 0)
(-0.133335 0.00674105 0)
(-0.134946 0.000322952 0)
(-0.135467 -0.00470432 0)
(-0.133505 -0.00549091 0)
(-0.128262 -0.00546538 0)
(-0.122486 -0.00615827 0)
(-0.116215 -0.00687733 0)
(-0.109513 -0.00780624 0)
(-0.102143 -0.00913668 0)
(-0.0930757 -0.0112038 0)
(-0.0805502 -0.0148706 0)
(-0.065525 -0.0219038 0)
(-0.0586734 -0.0344854 0)
(-0.0551098 -0.0385769 0)
(-0.0390239 -0.0414338 0)
(0.0226072 -0.0397926 0)
(0.195325 -0.466928 0)
(-0.00235685 -0.257567 0)
(0.0570512 -0.100281 0)
(0.0472773 -0.0333961 0)
(0.0310428 -0.00520193 0)
(0.0298104 0.0232742 0)
(0.0321303 0.064107 0)
(0.0275863 0.114957 0)
(0.013536 0.172929 0)
(-0.0131773 0.238766 0)
(-0.0481544 0.282298 0)
(-0.0800289 0.255076 0)
(-0.0983535 0.141015 0)
(-0.11417 0.0161864 0)
(-0.138584 -0.0448786 0)
(-0.164439 -0.0603475 0)
(-0.186364 -0.0527338 0)
(-0.192457 -0.0222799 0)
(-0.179444 0.00621807 0)
(-0.161729 0.0123896 0)
(-0.148668 0.00969803 0)
(-0.139451 0.00463704 0)
(-0.132548 -0.000797641 0)
(-0.127415 -0.00485681 0)
(-0.122643 -0.00647994 0)
(-0.117423 -0.00755335 0)
(-0.112145 -0.00820173 0)
(-0.1069 -0.00871297 0)
(-0.101671 -0.00933972 0)
(-0.0963753 -0.0103152 0)
(-0.0907001 -0.012014 0)
(-0.0843235 -0.0154196 0)
(-0.0783937 -0.022413 0)
(-0.0765206 -0.0332895 0)
(-0.0800189 -0.0395723 0)
(-0.0864095 -0.0414959 0)
(-0.093072 -0.0373869 0)
(-0.0854923 -0.0242035 0)
(-0.0607877 -0.0292235 0)
(-0.0604031 -0.0415881 0)
(0.152372 -0.49736 0)
(-0.0294443 -0.279148 0)
(0.0361094 -0.0851809 0)
(-0.0123227 -0.0097813 0)
(-0.033422 0.00195124 0)
(-0.0353349 0.0238755 0)
(-0.0296335 0.0651612 0)
(-0.0260242 0.122893 0)
(-0.0283627 0.190879 0)
(-0.038292 0.261676 0)
(-0.0547178 0.305154 0)
(-0.0721932 0.273473 0)
(-0.0846187 0.157246 0)
(-0.100314 0.0382677 0)
(-0.123337 -0.0206547 0)
(-0.143127 -0.0384422 0)
(-0.1574 -0.035705 0)
(-0.161347 -0.0219762 0)
(-0.154627 -0.00899488 0)
(-0.142763 -0.00340726 0)
(-0.130584 -0.00316945 0)
(-0.11999 -0.00562178 0)
(-0.111641 -0.00876837 0)
(-0.105147 -0.0113141 0)
(-0.0997283 -0.0126348 0)
(-0.0947678 -0.0133823 0)
(-0.0900947 -0.0138883 0)
(-0.0856144 -0.0143592 0)
(-0.0812468 -0.0149865 0)
(-0.0769242 -0.0159504 0)
(-0.0725726 -0.0175167 0)
(-0.0683118 -0.0202733 0)
(-0.0649543 -0.0250666 0)
(-0.0637832 -0.0315262 0)
(-0.0648296 -0.0365295 0)
(-0.0667274 -0.0390712 0)
(-0.0660828 -0.0375603 0)
(-0.0564951 -0.0325516 0)
(-0.039974 -0.0418334 0)
(-0.0399297 -0.0664275 0)
(0.08278 -0.484113 0)
(-0.0643314 -0.285767 0)
(0.00886896 -0.0544803 0)
(-0.0817821 0.0271517 0)
(-0.110818 0.0179489 0)
(-0.108855 0.0263723 0)
(-0.0943958 0.0606916 0)
(-0.0771042 0.118176 0)
(-0.0616419 0.190105 0)
(-0.0505457 0.26418 0)
(-0.046184 0.310737 0)
(-0.0484936 0.28253 0)
(-0.0536662 0.171068 0)
(-0.0660713 0.056988 0)
(-0.0863159 -0.00241682 0)
(-0.103306 -0.0247172 0)
(-0.112974 -0.027687 0)
(-0.115523 -0.0227341 0)
(-0.111007 -0.0172423 0)
(-0.102257 -0.0146788 0)
(-0.0923893 -0.0143948 0)
(-0.0832593 -0.0152745 0)
(-0.0757058 -0.016493 0)
(-0.0697843 -0.0174489 0)
(-0.065076 -0.017918 0)
(-0.0611094 -0.0181332 0)
(-0.0575866 -0.0183076 0)
(-0.0543106 -0.0185977 0)
(-0.0511568 -0.0191398 0)
(-0.0480574 -0.020072 0)
(-0.0450095 -0.0215953 0)
(-0.0421868 -0.0240503 0)
(-0.0400806 -0.027752 0)
(-0.039216 -0.0323346 0)
(-0.039458 -0.0365673 0)
(-0.0398522 -0.0396402 0)
(-0.0382343 -0.0409687 0)
(-0.0317351 -0.0431096 0)
(-0.0225462 -0.0563412 0)
(-0.0241631 -0.0891747 0)
(-0.0316278 -0.388792 0)
(-0.175007 -0.239909 0)
(-0.0947049 -0.045162 0)
(-0.164013 0.0898627 0)
(-0.210085 0.0284261 0)
(-0.192081 0.01313 0)
(-0.156323 0.0404987 0)
(-0.120419 0.0957505 0)
(-0.0849996 0.168488 0)
(-0.0521038 0.244997 0)
(-0.0262507 0.297887 0)
(-0.0102668 0.281261 0)
(-0.00141947 0.182756 0)
(-0.0044089 0.0729546 0)
(-0.0228413 0.0109676 0)
(-0.0431747 -0.0161744 0)
(-0.0518372 -0.0245115 0)
(-0.0543674 -0.0252229 0)
(-0.0512897 -0.0243055 0)
(-0.0448489 -0.023719 0)
(-0.0374316 -0.0233482 0)
(-0.0306693 -0.0229232 0)
(-0.0253235 -0.0223909 0)
(-0.02146 -0.021781 0)
(-0.0187358 -0.0211717 0)
(-0.0167241 -0.0207034 0)
(-0.0151021 -0.0204691 0)
(-0.0136578 -0.0205233 0)
(-0.0122753 -0.0209122 0)
(-0.0109155 -0.0216986 0)
(-0.00961306 -0.0229958 0)
(-0.00851784 -0.0249872 0)
(-0.00792334 -0.0278123 0)
(-0.00809001 -0.03128 0)
(-0.00890617 -0.0348387 0)
(-0.00978563 -0.0379741 0)
(-0.00964285 -0.0405061 0)
(-0.00756556 -0.0447074 0)
(-0.00671951 -0.0585706 0)
(-0.00837812 -0.0949931 0)
(-0.225844 -0.225972 0)
(-0.501754 -0.159574 0)
(-0.698475 -0.0741245 0)
(-0.236533 0.0571899 0)
(-0.303249 -0.0104809 0)
(-0.253136 -0.0320399 0)
(-0.205098 -0.00479148 0)
(-0.152049 0.0544907 0)
(-0.0986962 0.125993 0)
(-0.0467497 0.204066 0)
(-0.000281123 0.264641 0)
(0.0374798 0.25619 0)
(0.0647538 0.177918 0)
(0.0764384 0.0931299 0)
(0.0685444 0.0364393 0)
(0.0516641 0.00276587 0)
(0.0345546 -0.0148898 0)
(0.0291253 -0.0211821 0)
(0.0294864 -0.0232513 0)
(0.0322512 -0.0236753 0)
(0.0352982 -0.0230674 0)
(0.0375412 -0.0217993 0)
(0.0386577 -0.020291 0)
(0.0387793 -0.0188841 0)
(0.0382375 -0.0177788 0)
(0.037365 -0.0170609 0)
(0.0363926 -0.0167321 0)
(0.0354416 -0.016762 0)
(0.0345442 -0.0171304 0)
(0.0336676 -0.0178541 0)
(0.0327296 -0.0190014 0)
(0.0315971 -0.0206889 0)
(0.0300935 -0.0230238 0)
(0.0280818 -0.0259953 0)
(0.0256085 -0.0294335 0)
(0.0229438 -0.0330921 0)
(0.0204252 -0.0368565 0)
(0.0175722 -0.0420819 0)
(0.0109697 -0.0551608 0)
(0.0147757 -0.0909764 0)
(-2.00465 -0.0741315 0)
(-0.130549 -0.0697405 0)
(-0.237175 -0.103584 0)
(-0.224286 -0.0951358 0)
(-0.197504 -0.0655351 0)
(-0.161163 -0.00954245 0)
(-0.105728 0.068323 0)
(-0.041201 0.143861 0)
(0.026888 0.210706 0)
(0.0851408 0.210584 0)
(0.132244 0.157244 0)
(0.160272 0.100395 0)
(0.167652 0.0622568 0)
(0.16284 0.0407548 0)
(0.151391 0.0272048 0)
(0.143213 0.0119057 0)
(0.136988 0.000230303 0)
(0.131069 -0.00666155 0)
(0.125026 -0.00979586 0)
(0.118994 -0.0106864 0)
(0.113204 -0.0106204 0)
(0.107834 -0.0104242 0)
(0.102974 -0.0104961 0)
(0.0986223 -0.0109478 0)
(0.094696 -0.0117452 0)
(0.0910651 -0.012819 0)
(0.0875819 -0.0141349 0)
(0.0840966 -0.015729 0)
(0.0804614 -0.0177151 0)
(0.0765272 -0.0202695 0)
(0.0721444 -0.0235852 0)
(0.0671973 -0.0278013 0)
(0.0616756 -0.0329444 0)
(0.0557275 -0.0388934 0)
(0.0495244 -0.0453927 0)
(0.0422408 -0.0527416 0)
(0.0314316 -0.0652548 0)
(0.0294603 -0.101382 0)
(-0.882048 0.0742108 0)
(0.354889 -0.0920645 0)
(-0.0219239 -0.123675 0)
(-0.087306 -0.13508 0)
(-0.112519 -0.136945 0)
(-0.113443 -0.12777 0)
(-0.093077 -0.104469 0)
(-0.0396279 -0.01109 0)
(0.0514456 0.0803576 0)
(0.130845 0.0850701 0)
(0.197777 0.0424212 0)
(0.243507 -0.0108285 0)
(0.267308 -0.0578594 0)
(0.275163 -0.0954505 0)
(0.273949 -0.124773 0)
(0.263965 -0.141885 0)
(0.248638 -0.146372 0)
(0.231006 -0.142922 0)
(0.213972 -0.135366 0)
(0.199182 -0.126518 0)
(0.187068 -0.11816 0)
(0.177324 -0.111194 0)
(0.169348 -0.105906 0)
(0.162502 -0.10222 0)
(0.156231 -0.0998902 0)
(0.150111 -0.0986148 0)
(0.143834 -0.0980947 0)
(0.137183 -0.0980623 0)
(0.130001 -0.0982931 0)
(0.122155 -0.0986103 0)
(0.113522 -0.0988846 0)
(0.103999 -0.0990311 0)
(0.0935558 -0.0990029 0)
(0.0823412 -0.0987731 0)
(0.070802 -0.0983015 0)
(0.0591957 -0.0978512 0)
(0.05177 -0.101432 0)
(0.041323 -0.145351 0)
(-0.659378 0.06108 0)
(0.393978 0.145315 0)
(0.0800642 0.252175 0)
(0.291976 0.220112 0)
(0.235958 0.252864 0)
(0.134553 0.31066 0)
(0.0676859 0.36083 0)
(0.0253542 0.369734 0)
(0.0121228 0.41903 0)
(0.018229 0.364541 0)
(0.0825502 0.331636 0)
(0.165068 0.314718 0)
(0.240574 0.30386 0)
(0.297338 0.302819 0)
(0.331781 0.310679 0)
(0.347883 0.323408 0)
(0.35193 0.337103 0)
(0.34877 0.345432 0)
(0.341555 0.342873 0)
(0.332549 0.332236 0)
(0.322706 0.31719 0)
(0.312379 0.301082 0)
(0.301658 0.286312 0)
(0.290531 0.274236 0)
(0.278971 0.265369 0)
(0.266973 0.259676 0)
(0.254569 0.256795 0)
(0.241809 0.2562 0)
(0.228748 0.257287 0)
(0.215407 0.259444 0)
(0.201751 0.262098 0)
(0.187652 0.264769 0)
(0.172878 0.267108 0)
(0.15708 0.268935 0)
(0.139791 0.270249 0)
(0.120421 0.271243 0)
(0.0982078 0.272314 0)
(0.0720207 0.274755 0)
(0.0442768 0.28947 0)
(0.00699587 0.405477 0)
)
;

boundaryField
{
    floor
    {
        type            noSlip;
    }
    ceiling
    {
        type            noSlip;
    }
    sWall
    {
        type            noSlip;
    }
    nWall
    {
        type            noSlip;
    }
    sideWalls
    {
        type            empty;
    }
    glass1
    {
        type            noSlip;
    }
    glass2
    {
        type            noSlip;
    }
    sun
    {
        type            noSlip;
    }
    heatsource1
    {
        type            noSlip;
    }
    heatsource2
    {
        type            noSlip;
    }
    Table_master
    {
        type            noSlip;
    }
    Table_slave
    {
        type            noSlip;
    }
    inlet
    {
        type            fixedValue;
        value           uniform (0.1 0 0);
    }
    outlet
    {
        type            zeroGradient;
    }
}


// ************************************************************************* //
