/*--------------------------------*- C++ -*----------------------------------*\
  =========                 |
  \\      /  F ield         | OpenFOAM: The Open Source CFD Toolbox
   \\    /   O peration     | Website:  https://openfoam.org
    \\  /    A nd           | Version:  6
     \\/     M anipulation  |
\*---------------------------------------------------------------------------*/
FoamFile
{
    version     2.0;
    format      ascii;
    class       volScalarField;
    location    "250";
    object      alphat;
}
// * * * * * * * * * * * * * * * * * * * * * * * * * * * * * * * * * * * * * //

dimensions      [1 -1 -1 0 0 0 0];

internalField   nonuniform List<scalar> 
459
(
0.00123318
0.001371
0.00143164
0.00151357
0.00159411
0.00167968
0.00175551
0.00180942
0.00183172
0.001813
0.00170501
0.00157067
0.00141393
0.00124719
0.00109015
0.000659691
0.00082705
0.0008833
0.000957127
0.000951701
0.000920069
0.000852483
0.000782831
0.000721935
0.00067015
0.00062598
0.000587985
0.00055477
0.000525597
0.000498817
0.000472661
0.000447002
0.000414883
0.000433093
0.00156371
0.00400564
0.00400499
0.00467337
0.00534994
0.00587264
0.0063402
0.00677757
0.00716142
0.00745028
0.00751377
0.00722761
0.00666804
0.00544568
0.00360635
0.00131146
0.00107874
0.00102753
0.0029221
0.00287996
0.00318942
0.00348106
0.00342562
0.00237642
0.00194443
0.00166557
0.00146682
0.00131889
0.0012057
0.00111871
0.00103142
0.000934821
0.000843595
0.000851066
0.000855729
0.000570944
0.0018351
0.00546529
0.00502938
0.00569672
0.00607561
0.00635765
0.00665742
0.00705181
0.00757891
0.00817211
0.00859879
0.00868587
0.00847269
0.00782039
0.0063832
0.004048
0.00127106
0.00116536
0.0036733
0.0032654
0.00365004
0.00418998
0.0040954
0.00117126
0.00100168
0.000865898
0.000758583
0.000673495
0.000605553
0.000551041
0.00050942
0.000481093
0.000556866
0.000768085
0.00107813
0.000666806
0.0020921
0.00666345
0.00522196
0.0058498
0.00591123
0.00597897
0.00611025
0.00644906
0.00707752
0.00786111
0.00847421
0.00881969
0.00888445
0.00864476
0.00784912
0.00622461
0.00322042
0.00139773
0.00189158
0.00249204
0.00345383
0.004522
0.0053446
0.00516216
0.00131109
0.00118997
0.00109562
0.00101924
0.000952492
0.000889706
0.000827162
0.000761799
0.000688838
0.000612928
0.000735859
0.00126151
0.000768837
0.00235558
0.00813675
0.00561939
0.00599347
0.00594492
0.00582136
0.00577379
0.00607916
0.00675834
0.00759352
0.00831002
0.00874622
0.0088944
0.00880473
0.00841258
0.00751882
0.0058569
0.00458956
0.00479718
0.00543568
0.00626119
0.00699639
0.00746195
0.00744942
0.00632949
0.00564294
0.00516329
0.00467645
0.00415642
0.00361059
0.00304015
0.00244359
0.00182518
0.00127152
0.00101881
0.00124027
0.00106464
0.00081763
0.000943277
0.00140978
0.0026403
0.00983155
0.00717255
0.00656198
0.00637963
0.00594075
0.00571611
0.00598022
0.00671042
0.00762931
0.00841105
0.00886496
0.00899357
0.00891921
0.00874612
0.00843074
0.00789147
0.00768459
0.00810818
0.00860132
0.00900604
0.00923398
0.00925063
0.00903109
0.00852176
0.00794501
0.00730991
0.00661246
0.00586395
0.00507365
0.00425127
0.00341184
0.00258528
0.00187291
0.00145527
0.00129612
0.00119698
0.00131669
0.00202181
0.00188406
0.00289453
0.0110114
0.00950216
0.00797203
0.00697158
0.0060502
0.00570058
0.00605145
0.0069402
0.00799764
0.00885095
0.00930827
0.00941282
0.00937563
0.00941049
0.00950227
0.00960445
0.00987847
0.0102802
0.0105448
0.010589
0.0104378
0.0101223
0.00967735
0.00911845
0.0084933
0.00781414
0.00708056
0.00629638
0.00547019
0.00462364
0.00379832
0.00302889
0.00237562
0.00195536
0.00164101
0.00135533
0.00191598
0.00371909
0.00253796
0.00295093
0.00959002
0.00868651
0.00754945
0.00629425
0.00550652
0.00550205
0.00627748
0.00751868
0.00876756
0.00966222
0.0100893
0.0101888
0.0102334
0.0103126
0.0104283
0.0106126
0.0108529
0.0110295
0.0110215
0.0107984
0.0103856
0.00981345
0.00914142
0.00845154
0.00777691
0.0071082
0.00643099
0.00574345
0.0050596
0.00440888
0.00382849
0.00334481
0.00297172
0.00269742
0.00241208
0.00188713
0.00256088
0.00659132
0.003473
0.00288628
0.00342563
0.00368271
0.00368196
0.00370011
0.00419372
0.00537512
0.00705726
0.00875416
0.0100425
0.0107502
0.010995
0.0109618
0.0106242
0.0103547
0.0102802
0.0103475
0.0104161
0.0103534
0.0100983
0.00965932
0.00908398
0.00843034
0.00776707
0.00715287
0.00660903
0.00612915
0.00570395
0.00533516
0.00503384
0.00481197
0.00467152
0.00459457
0.00453766
0.0044268
0.00417091
0.00353715
0.00403151
0.00873723
0.00389397
0.00102785
0.00167296
0.00347226
0.00575047
0.008024
0.00986266
0.0109572
0.0113984
0.0112981
0.0108273
0.0103287
0.0099598
0.0097526
0.00967197
0.00963187
0.00953816
0.00933966
0.00903949
0.00867299
0.00828244
0.00790327
0.00756211
0.00727407
0.00704234
0.00686567
0.00674472
0.00668329
0.00668511
0.00674857
0.00686012
0.00698627
0.00706455
0.00699676
0.0066797
0.00611006
0.00634596
0.0092283
0.0033064
0.00161517
0.00520667
0.00818437
0.00990002
0.0113572
0.0120371
0.0119513
0.0113263
0.0105911
0.0100036
0.00961974
0.00940797
0.00930771
0.00927076
0.00925989
0.00924252
0.00919485
0.00910932
0.00899157
0.00885453
0.00871376
0.00858334
0.00847313
0.00838951
0.00833791
0.00832397
0.00835334
0.00843005
0.0085535
0.00871281
0.00887582
0.00896987
0.00886694
0.00844995
0.00779432
0.00736146
0.007104
0.00276454
0.00168446
0.00183649
0.0020097
0.00232399
0.00246769
0.00257181
0.00260315
0.00255847
0.00248032
0.00239024
0.00230804
0.00225374
0.0022241
0.00221172
0.00221066
0.00221591
0.00222288
0.00222771
0.00222823
0.00222426
0.00221702
0.00220832
0.00219982
0.00219273
0.00218785
0.00218564
0.00218645
0.00219056
0.00219816
0.00220913
0.0022227
0.00223671
0.00224646
0.00224468
0.00222892
0.0022205
0.00226837
0.00239386
0.00250583
0.0022818
)
;

boundaryField
{
    floor
    {
        type            compressible::alphatWallFunction;
        Prt             0.85;
        value           nonuniform List<scalar> 
29
(
0.000155347
9.36543e-05
0.00011809
0.000126165
0.00013667
0.000135904
0.000131413
0.000121754
0.000111704
0.000102829
9.52098e-05
8.86542e-05
8.29693e-05
7.79621e-05
7.35333e-05
6.94404e-05
6.5416e-05
6.14401e-05
5.64208e-05
5.92704e-05
5.92697e-05
8.04049e-05
9.47173e-05
0.000109676
0.000155345
9.36532e-05
0.000146592
0.000165804
0.000197614
)
;
    }
    ceiling
    {
        type            compressible::alphatWallFunction;
        Prt             0.85;
        value           nonuniform List<scalar> 
43
(
0.000236034
0.000256121
0.000278789
0.000319423
0.000337814
0.000351061
0.00035504
0.00034938
0.000339449
0.00032796
0.000317438
0.000310465
0.000306653
0.00030506
0.000304926
0.000305604
0.000306504
0.000307127
0.000307196
0.000306684
0.000305752
0.00030463
0.000303534
0.00030262
0.00030199
0.000301704
0.000301809
0.000302339
0.000303318
0.000304733
0.000306481
0.000308284
0.000309539
0.000309309
0.000307279
0.000306194
0.000312354
0.000328439
0.000342717
0.000314084
0.000390726
0.000457684
0.000226709
)
;
    }
    sWall
    {
        type            compressible::alphatWallFunction;
        Prt             0.85;
        value           uniform 0.000235057;
    }
    nWall
    {
        type            compressible::alphatWallFunction;
        Prt             0.85;
        value           nonuniform List<scalar> 6(0.000199438 0.000262607 0.000346947 0.000443163 0.000375605 0.000314234);
    }
    sideWalls
    {
        type            empty;
    }
    glass1
    {
        type            compressible::alphatWallFunction;
        Prt             0.85;
        value           nonuniform List<scalar> 9(0.000172123 0.000216557 0.000252305 0.000285661 0.000319429 0.000355489 0.000387366 0.000394464 0.000386523);
    }
    glass2
    {
        type            compressible::alphatWallFunction;
        Prt             0.85;
        value           nonuniform List<scalar> 2(0.00046691 0.000518544);
    }
    sun
    {
        type            compressible::alphatWallFunction;
        Prt             0.85;
        value           nonuniform List<scalar> 
14
(
0.000175158
0.000193988
0.000202208
0.000213251
0.000224042
0.000235441
0.000245488
0.000252601
0.000255536
0.000253072
0.000238794
0.000220905
0.000199809
0.000177077
)
;
    }
    heatsource1
    {
        type            compressible::alphatWallFunction;
        Prt             0.85;
        value           nonuniform List<scalar> 3(0.000116439 0.000134404 0.000198948);
    }
    heatsource2
    {
        type            compressible::alphatWallFunction;
        Prt             0.85;
        value           nonuniform List<scalar> 4(0.00018558 0.000153465 0.000153464 0.000180051);
    }
    Table_master
    {
        type            compressible::alphatWallFunction;
        Prt             0.85;
        value           nonuniform List<scalar> 9(0.00016632 0.000142659 0.000123379 0.000107887 9.54163e-05 8.53209e-05 7.71202e-05 7.0791e-05 6.64464e-05);
    }
    Table_slave
    {
        type            compressible::alphatWallFunction;
        Prt             0.85;
        value           nonuniform List<scalar> 9(0.000185535 0.000168909 0.000155823 0.000145134 0.000135717 0.000126787 0.000117818 0.000108357 9.76806e-05);
    }
    inlet
    {
        type            fixedValue;
        value           uniform 1.94e-05;
    }
    outlet
    {
        type            zeroGradient;
    }
}


// ************************************************************************* //
