/*--------------------------------*- C++ -*----------------------------------*\
  =========                 |
  \\      /  F ield         | OpenFOAM: The Open Source CFD Toolbox
   \\    /   O peration     | Website:  https://openfoam.org
    \\  /    A nd           | Version:  6
     \\/     M anipulation  |
\*---------------------------------------------------------------------------*/
FoamFile
{
    version     2.0;
    format      ascii;
    class       volScalarField;
    location    "300";
    object      epsilon;
}
// * * * * * * * * * * * * * * * * * * * * * * * * * * * * * * * * * * * * * //

dimensions      [0 2 -3 0 0 0 0];

internalField   nonuniform List<scalar> 
459
(
0.00569667
0.00494923
0.00434981
0.0038891
0.00353082
0.00324048
0.0029973
0.00278407
0.00258837
0.00240087
0.00221346
0.00201771
0.00180234
0.00154656
0.00124881
1.42683e-06
1.23648e-06
1.12809e-06
1.4198e-06
1.4543e-06
1.23543e-06
1.09382e-06
1.17742e-06
1.45501e-06
1.86256e-06
2.32324e-06
2.73546e-06
2.90402e-06
2.88365e-06
2.94111e-06
3.29829e-06
3.40841e-06
3.60874e-06
1.63128e-06
0.00828018
0.00581818
0.00441417
0.00339397
0.00275248
0.00233785
0.00205343
0.0018487
0.00169451
0.00157572
0.00148306
0.00140752
0.00133379
0.00122006
0.0010599
0.00106308
0.000690467
6.02747e-06
5.26141e-06
3.86491e-06
3.49515e-06
2.97239e-06
2.64132e-06
2.27383e-06
2.97828e-06
4.2455e-06
5.75656e-06
7.22774e-06
8.41237e-06
9.35403e-06
1.01554e-05
1.07138e-05
1.07706e-05
1.09713e-05
1.84517e-05
1.05149e-05
0.0103958
0.00698917
0.00451801
0.00295828
0.00215947
0.00172768
0.00147956
0.00132798
0.0012228
0.0011477
0.00109512
0.00106007
0.00103372
0.000983673
0.000916931
0.000932737
0.0007038
1.96074e-05
1.63924e-05
1.4328e-05
1.32242e-05
1.14836e-05
8.94612e-06
3.67222e-06
4.56856e-06
5.96871e-06
7.7274e-06
9.99125e-06
1.30778e-05
1.76645e-05
2.52929e-05
3.99696e-05
3.3548e-05
4.31178e-05
7.99313e-05
4.00041e-05
0.0123316
0.00846777
0.00427698
0.00212531
0.00129589
0.000950483
0.000800861
0.000752112
0.00075111
0.000766218
0.000784857
0.000803794
0.000820707
0.000814641
0.00080264
0.000854807
0.000756678
7.86566e-05
2.27911e-05
2.45936e-05
2.57295e-05
2.83394e-05
3.2756e-05
3.98264e-05
5.15536e-05
5.44079e-05
5.75371e-05
6.02376e-05
6.32057e-05
6.72814e-05
7.35906e-05
8.39775e-05
0.000102207
6.24296e-05
7.60762e-05
0.000103337
0.000107568
0.0143361
0.0103857
0.00390039
0.00128527
0.000679152
0.000510147
0.000465011
0.000468305
0.000498067
0.000539771
0.000584815
0.000629048
0.000668862
0.000684572
0.000698338
0.000751912
0.000662835
0.000146386
3.70027e-05
2.98991e-05
3.10959e-05
3.38664e-05
3.70701e-05
4.02638e-05
4.30874e-05
4.5235e-05
4.7306e-05
4.91374e-05
5.1124e-05
5.3765e-05
5.76266e-05
6.33255e-05
7.14031e-05
8.19291e-05
9.99901e-05
0.000127368
0.000170048
0.000203094
0.000169832
9.61749e-05
0.016655
0.0129603
0.00406607
0.000753892
0.000506566
0.00038016
0.000348575
0.000352438
0.000378682
0.00041913
0.000466059
0.000514082
0.00055661
0.000579876
0.000604405
0.000642495
0.000555085
0.00016305
5.34499e-05
4.61556e-05
5.06721e-05
5.66772e-05
6.2579e-05
6.79287e-05
7.24967e-05
7.6225e-05
7.8594e-05
8.01216e-05
8.13349e-05
8.28131e-05
8.52588e-05
8.96101e-05
9.7125e-05
0.000109318
0.00012789
0.000154546
0.000191467
0.000234354
0.000262645
0.000155291
0.019675
0.016814
0.00709427
0.000929031
0.000532639
0.000336896
0.000290735
0.00029394
0.000317335
0.000350281
0.000389917
0.000431706
0.000469558
0.000496338
0.000523302
0.000546912
0.000461529
0.000165124
8.21825e-05
8.62529e-05
0.000101201
0.000115512
0.000126948
0.000135336
0.000141544
0.000144122
0.000144797
0.000144632
0.000144225
0.000144087
0.000144843
0.000147442
0.000153409
0.000165089
0.000185757
0.000220196
0.000279007
0.000382799
0.000540348
0.000613744
0.0244772
0.0261421
0.0195982
0.00192145
0.000646247
0.000325292
0.000254611
0.000253249
0.000276392
0.000306395
0.000340716
0.000376999
0.000410948
0.000437702
0.000459736
0.000468868
0.00038619
0.000172548
0.000141835
0.000180547
0.000226541
0.000263522
0.000285406
0.000291497
0.000287341
0.000280128
0.000272718
0.000266192
0.000260829
0.000256686
0.000253955
0.000253208
0.000255604
0.000263132
0.000278946
0.000307472
0.000360241
0.000498519
0.000849093
0.000885821
0.0339785
0.0516009
0.0744716
0.01037
0.00110494
0.000446307
0.00029274
0.000253768
0.000261608
0.000289023
0.000321434
0.000356068
0.000388499
0.000412335
0.000423459
0.000417021
0.000343598
0.000209425
0.000269816
0.000397446
0.000536129
0.000618338
0.000635831
0.000619466
0.000590329
0.000559864
0.000533214
0.000511809
0.0004953
0.00048273
0.000473212
0.000466323
0.000462304
0.000462116
0.000467346
0.000479002
0.000493436
0.000520622
0.000834857
0.00110223
0.172881
0.0268409
0.00234345
0.000861071
0.000535144
0.000408712
0.000373399
0.000378484
0.00040087
0.000430951
0.00045959
0.00047628
0.000474587
0.000472545
0.000426892
0.000393001
0.000601671
0.00092899
0.00120949
0.00135998
0.00139125
0.00134963
0.00127812
0.00120379
0.00113954
0.00108927
0.00105222
0.0010257
0.0010067
0.000992724
0.000982214
0.000974404
0.000968571
0.00096198
0.000945358
0.000909088
0.000968238
0.00137922
0.0206265
0.00384786
0.00345659
0.00173503
0.0011475
0.000777163
0.000564984
0.000460338
0.000429623
0.000433708
0.000451046
0.000464119
0.000464734
0.000443233
0.000457866
0.000671179
0.00118106
0.00189151
0.00252049
0.00288195
0.00297556
0.00290129
0.00275948
0.00261363
0.00249316
0.00240606
0.00234918
0.0023146
0.00229335
0.00227753
0.00226119
0.00223998
0.00220924
0.00216048
0.00208047
0.00194755
0.00211835
0.00204794
0.000491
0.000507311
0.00379736
0.00163591
0.000783523
0.000689671
0.000660542
0.000646568
0.000646246
0.000658991
0.000666634
0.000676619
0.000688786
0.000698302
0.000697447
0.000673892
0.000671555
0.000709171
0.000789042
0.000911132
0.00109439
0.00129026
0.00144827
0.00154446
0.00158157
0.0015762
0.00154707
0.00150896
0.00147108
0.0014376
0.00140888
0.00138291
0.00135645
0.00132564
0.00128614
0.00123239
0.0011562
0.00104591
0.000945754
0.000767006
)
;

boundaryField
{
    floor
    {
        Cmu             0.09;
        kappa           0.41;
        E               9.8;
        type            epsilonWallFunction;
        value           nonuniform List<scalar> 
29
(
0.00124881
1.42683e-06
1.23648e-06
1.12809e-06
1.4198e-06
1.4543e-06
1.23543e-06
1.09382e-06
1.17742e-06
1.45501e-06
1.86256e-06
2.32324e-06
2.73546e-06
2.90402e-06
2.88365e-06
2.94111e-06
3.29829e-06
3.40841e-06
3.60874e-06
1.63128e-06
1.63128e-06
1.05149e-05
4.00041e-05
0.000107568
0.00124881
1.42683e-06
6.02747e-06
1.96074e-05
7.86566e-05
)
;
    }
    ceiling
    {
        Cmu             0.09;
        kappa           0.41;
        E               9.8;
        type            epsilonWallFunction;
        value           nonuniform List<scalar> 
43
(
0.000491
0.000507311
0.00379736
0.00163591
0.000783523
0.000689671
0.000660542
0.000646568
0.000646246
0.000658991
0.000666634
0.000676619
0.000688786
0.000698302
0.000697447
0.000673892
0.000671555
0.000709171
0.000789042
0.000911132
0.00109439
0.00129026
0.00144827
0.00154446
0.00158157
0.0015762
0.00154707
0.00150896
0.00147108
0.0014376
0.00140888
0.00138291
0.00135645
0.00132564
0.00128614
0.00123239
0.0011562
0.00104591
0.000945754
0.000767006
0.0339785
0.0516009
0.0206265
)
;
    }
    sWall
    {
        Cmu             0.09;
        kappa           0.41;
        E               9.8;
        type            epsilonWallFunction;
        value           uniform 0.000491;
    }
    nWall
    {
        Cmu             0.09;
        kappa           0.41;
        E               9.8;
        type            epsilonWallFunction;
        value           nonuniform List<scalar> 6(9.61749e-05 0.000155291 0.000613744 0.00137922 0.00204794 0.000767006);
    }
    sideWalls
    {
        type            empty;
    }
    glass1
    {
        Cmu             0.09;
        kappa           0.41;
        E               9.8;
        type            epsilonWallFunction;
        value           nonuniform List<scalar> 9(0.00569667 0.00828018 0.0103958 0.0123316 0.0143361 0.016655 0.019675 0.0244772 0.0339785);
    }
    glass2
    {
        Cmu             0.09;
        kappa           0.41;
        E               9.8;
        type            epsilonWallFunction;
        value           nonuniform List<scalar> 2(0.000885821 0.00110223);
    }
    sun
    {
        Cmu             0.09;
        kappa           0.41;
        E               9.8;
        type            epsilonWallFunction;
        value           nonuniform List<scalar> 
14
(
0.00569667
0.00494923
0.00434981
0.0038891
0.00353082
0.00324048
0.0029973
0.00278407
0.00258837
0.00240087
0.00221346
0.00201771
0.00180234
0.00154656
)
;
    }
    heatsource1
    {
        Cmu             0.09;
        kappa           0.41;
        E               9.8;
        type            epsilonWallFunction;
        value           nonuniform List<scalar> 3(0.000203094 0.000169832 9.61749e-05);
    }
    heatsource2
    {
        Cmu             0.09;
        kappa           0.41;
        E               9.8;
        type            epsilonWallFunction;
        value           nonuniform List<scalar> 4(0.00106308 0.000690467 0.000690467 0.0007038);
    }
    Table_master
    {
        Cmu             0.09;
        kappa           0.41;
        E               9.8;
        type            epsilonWallFunction;
        value           nonuniform List<scalar> 9(3.67222e-06 4.56856e-06 5.96871e-06 7.7274e-06 9.99125e-06 1.30778e-05 1.76645e-05 2.52929e-05 3.99696e-05);
    }
    Table_slave
    {
        Cmu             0.09;
        kappa           0.41;
        E               9.8;
        type            epsilonWallFunction;
        value           nonuniform List<scalar> 9(5.15536e-05 5.44079e-05 5.75371e-05 6.02376e-05 6.32057e-05 6.72814e-05 7.35906e-05 8.39775e-05 0.000102207);
    }
    inlet
    {
        type            turbulentMixingLengthDissipationRateInlet;
        mixingLength    0.01;
        phi             phi;
        k               k;
        value           uniform 0.172881;
    }
    outlet
    {
        type            zeroGradient;
    }
}


// ************************************************************************* //
