/*--------------------------------*- C++ -*----------------------------------*\
  =========                 |
  \\      /  F ield         | OpenFOAM: The Open Source CFD Toolbox
   \\    /   O peration     | Website:  https://openfoam.org
    \\  /    A nd           | Version:  6
     \\/     M anipulation  |
\*---------------------------------------------------------------------------*/
FoamFile
{
    version     2.0;
    format      ascii;
    class       volScalarField;
    location    "900";
    object      nut;
}
// * * * * * * * * * * * * * * * * * * * * * * * * * * * * * * * * * * * * * //

dimensions      [0 2 -1 0 0 0 0];

internalField   nonuniform List<scalar> 
459
(
0.00108039
0.00118046
0.00120234
0.00126012
0.00131361
0.00136365
0.00141268
0.00146062
0.00149443
0.00150865
0.00149822
0.00146
0.00139385
0.00130534
0.0012083
0.000474274
0.000580176
0.000652325
0.000647779
0.000625179
0.000595663
0.000558847
0.000522435
0.000489386
0.000460037
0.000434045
0.000410949
0.000390411
0.000371969
0.000354964
0.000338542
0.000321446
0.000309189
0.000281531
0.00147247
0.00360257
0.00344998
0.00401603
0.00457148
0.00512637
0.00561564
0.00598317
0.00631524
0.00658485
0.00675405
0.00677958
0.00659567
0.00603768
0.00451169
0.00123185
0.000726481
0.000513197
0.00107572
0.00148377
0.00177469
0.00192798
0.00192034
0.00154611
0.0013348
0.00118337
0.00106693
0.000974193
0.000898651
0.000833422
0.000772565
0.000713534
0.000661032
0.000615311
0.000720514
0.000367722
0.00179863
0.00492192
0.00428501
0.00537818
0.00592252
0.00632477
0.00663597
0.00688302
0.00715112
0.0074309
0.00768885
0.00787726
0.00794337
0.00780986
0.00727297
0.00560739
0.00122434
0.00102441
0.00146954
0.00187947
0.00224263
0.00248678
0.00241562
0.000800201
0.000706592
0.000631416
0.000570767
0.00052136
0.00048068
0.000446924
0.000418939
0.000396245
0.000427127
0.000494169
0.000810181
0.000425126
0.00211152
0.00628913
0.00429951
0.00569817
0.00617964
0.00634097
0.00644315
0.00656768
0.00678028
0.00706643
0.00739145
0.00769567
0.00792425
0.00801616
0.00789923
0.00732442
0.00536954
0.00146606
0.00181801
0.0023448
0.00284908
0.00324417
0.00348173
0.00325608
0.000902941
0.000821898
0.000763815
0.000719513
0.000681895
0.000647445
0.000614415
0.000579834
0.000539822
0.000506467
0.000518118
0.000924855
0.000469567
0.00243047
0.00804279
0.00472645
0.0054872
0.00612673
0.00616828
0.00611104
0.00617585
0.00636373
0.00665442
0.00701924
0.00737638
0.00765003
0.00777891
0.00774122
0.00749549
0.00687572
0.00568547
0.00527726
0.00514173
0.00509442
0.00506416
0.00500819
0.00481286
0.00406008
0.00369857
0.00348793
0.00332512
0.00315402
0.00290859
0.00257786
0.00217656
0.0017308
0.0012815
0.00094486
0.000949112
0.000630394
0.000578497
0.000700623
0.00078642
0.00276846
0.00995182
0.00649996
0.00545997
0.00594097
0.00615374
0.00601507
0.00607013
0.00621184
0.006472
0.00683922
0.00723019
0.00753173
0.00765603
0.00758221
0.00735709
0.00705839
0.00674958
0.00657728
0.00645167
0.00631064
0.00614962
0.00596762
0.00573726
0.00539542
0.00508852
0.00481588
0.00455505
0.0042907
0.00400495
0.00364647
0.00320126
0.00266937
0.00208087
0.00156058
0.00116826
0.000880155
0.000747133
0.00106481
0.000820621
0.00307577
0.0112876
0.00909949
0.00703066
0.00665123
0.00656749
0.00634664
0.00620587
0.00624914
0.00650179
0.00690812
0.00734384
0.0076617
0.00775812
0.00762182
0.00734967
0.00711364
0.00703154
0.00704242
0.00698291
0.00680476
0.00653996
0.00621893
0.00585928
0.00547925
0.00512617
0.00480302
0.00450294
0.00422644
0.00397989
0.00376304
0.00346699
0.00305205
0.00254593
0.00205942
0.00162412
0.00130445
0.00120565
0.0012291
0.000935034
0.00313514
0.0100426
0.0089245
0.00824308
0.0076385
0.00693912
0.00639113
0.00617212
0.00630353
0.00671063
0.00725267
0.00775009
0.00803433
0.00802397
0.00775799
0.00740377
0.00718838
0.007187
0.00719958
0.00698789
0.00660889
0.00613665
0.00563362
0.00515371
0.00473302
0.00437988
0.00408126
0.00382996
0.00362891
0.00348558
0.00340685
0.00336757
0.00315973
0.00283505
0.00254967
0.00240399
0.00249646
0.00287528
0.00352959
0.00146012
0.00305165
0.00361811
0.00401642
0.00411555
0.00419902
0.00443012
0.00489741
0.00560986
0.00648441
0.00736916
0.0081008
0.00852573
0.00854145
0.00819465
0.00767172
0.00731003
0.0071083
0.00693663
0.00664543
0.00617554
0.00559468
0.00499364
0.00444873
0.0039985
0.003643
0.00336084
0.00313003
0.00293728
0.00277412
0.00263203
0.00250195
0.00238249
0.00228818
0.00221883
0.0021928
0.00220274
0.00219051
0.00210297
0.00196572
0.00137339
0.00148335
0.00305906
0.00497521
0.0065764
0.00783047
0.00879024
0.00939823
0.00964137
0.00955503
0.00913337
0.00846685
0.0076291
0.00691636
0.00647367
0.00611712
0.00568067
0.00514526
0.00457122
0.00402549
0.00355466
0.00318294
0.00289717
0.00267522
0.00249972
0.00236061
0.00225293
0.00217422
0.00212329
0.00210179
0.00210743
0.00212636
0.00215468
0.0021847
0.00219246
0.00213921
0.00201246
0.00182165
0.00114196
0.00198538
0.00512894
0.00767015
0.00864684
0.00914293
0.00930369
0.00910252
0.00859983
0.00790006
0.0071061
0.00635487
0.00568448
0.00514361
0.00468322
0.00421954
0.00376315
0.00335848
0.00302933
0.00277484
0.00258027
0.00242279
0.00229039
0.00217783
0.00208823
0.00202341
0.00198259
0.00196428
0.00196648
0.00199435
0.002045
0.00211496
0.00219681
0.00227435
0.00232791
0.00231034
0.00233608
0.00237007
0.00116436
0.00177658
0.00188266
0.0019578
0.00210896
0.00204041
0.00195705
0.00190277
0.00182588
0.0017154
0.00157799
0.00142329
0.00126241
0.00110626
0.000972203
0.000870922
0.000798966
0.000747911
0.000711005
0.000684151
0.000665003
0.00065211
0.000644569
0.000641811
0.000644026
0.00065165
0.000664295
0.000681837
0.000704618
0.000733205
0.000768411
0.000809307
0.000855962
0.00090889
0.000968541
0.00103443
0.0011127
0.00113815
0.00110901
0.00104186
0.000970714
)
;

boundaryField
{
    floor
    {
        type            nutkWallFunction;
        Cmu             0.09;
        kappa           0.41;
        E               9.8;
        value           nonuniform List<scalar> 
29
(
0.000144966
5.64091e-05
6.98611e-05
7.88509e-05
7.82882e-05
7.54834e-05
7.18017e-05
6.7178e-05
6.25682e-05
5.83498e-05
5.45738e-05
5.12045e-05
4.81893e-05
4.54898e-05
4.30503e-05
4.07871e-05
3.85883e-05
3.62843e-05
3.46227e-05
3.08404e-05
3.08403e-05
4.24859e-05
5.00419e-05
5.58024e-05
0.000144966
5.64091e-05
6.13923e-05
0.000123594
0.000174322
)
;
    }
    ceiling
    {
        type            nutkWallFunction;
        Cmu             0.09;
        kappa           0.41;
        E               9.8;
        value           nonuniform List<scalar> 
43
(
0.000208802
0.000220456
0.000228671
0.000245191
0.000237795
0.00022873
0.000222804
0.000214368
0.000202176
0.000186886
0.000169494
0.000151183
0.000133156
0.000117449
0.000105417
9.67705e-05
9.05799e-05
8.60739e-05
8.27776e-05
8.04179e-05
7.88243e-05
7.78906e-05
7.75488e-05
7.78233e-05
7.87674e-05
8.03304e-05
8.24928e-05
8.52911e-05
8.87875e-05
9.30713e-05
9.80186e-05
0.000103627
0.000109946
0.000117018
0.000124771
0.000133908
0.000136863
0.000133478
0.000125641
0.000117275
0.000345523
0.000404071
0.00023155
)
;
    }
    sWall
    {
        type            nutkWallFunction;
        Cmu             0.09;
        kappa           0.41;
        E               9.8;
        value           uniform 0.00020886;
    }
    nWall
    {
        type            nutkWallFunction;
        Cmu             0.09;
        kappa           0.41;
        E               9.8;
        value           nonuniform List<scalar> 6(9.52538e-05 9.9383e-05 0.000113055 0.000137314 0.000139907 0.00011728);
    }
    sideWalls
    {
        type            empty;
    }
    glass1
    {
        type            nutkWallFunction;
        Cmu             0.09;
        kappa           0.41;
        E               9.8;
        value           nonuniform List<scalar> 9(0.000130247 0.000175265 0.000211679 0.000245935 0.000280298 0.000316195 0.000348439 0.000354638 0.000345947);
    }
    glass2
    {
        type            nutkWallFunction;
        Cmu             0.09;
        kappa           0.41;
        E               9.8;
        value           nonuniform List<scalar> 2(0.000173725 0.000163906);
    }
    sun
    {
        type            nutkWallFunction;
        Cmu             0.09;
        kappa           0.41;
        E               9.8;
        value           nonuniform List<scalar> 
14
(
0.000130146
0.000141756
0.000144279
0.00015092
0.000157037
0.000162735
0.000168295
0.00017371
0.000177518
0.000179116
0.000177943
0.000173639
0.00016616
0.000156092
)
;
    }
    heatsource1
    {
        type            nutkWallFunction;
        Cmu             0.09;
        kappa           0.41;
        E               9.8;
        value           nonuniform List<scalar> 3(6.9652e-05 8.48017e-05 9.52536e-05);
    }
    heatsource2
    {
        type            nutkWallFunction;
        Cmu             0.09;
        kappa           0.41;
        E               9.8;
        value           nonuniform List<scalar> 4(0.00014767 8.79676e-05 8.79675e-05 0.000146807);
    }
    Table_master
    {
        type            nutkWallFunction;
        Cmu             0.09;
        kappa           0.41;
        E               9.8;
        value           nonuniform List<scalar> 9(9.69193e-05 8.5534e-05 7.62606e-05 6.86821e-05 6.24358e-05 5.7238e-05 5.28833e-05 4.92419e-05 4.62663e-05);
    }
    Table_slave
    {
        type            nutkWallFunction;
        Cmu             0.09;
        kappa           0.41;
        E               9.8;
        value           nonuniform List<scalar> 9(0.000109237 9.95353e-05 9.25136e-05 8.71156e-05 8.25009e-05 7.82482e-05 7.4145e-05 6.98204e-05 6.47772e-05);
    }
    inlet
    {
        type            calculated;
        value           uniform 0.000100623;
    }
    outlet
    {
        type            calculated;
        value           nonuniform List<scalar> 2(0.00177658 0.00188266);
    }
}


// ************************************************************************* //
