/*--------------------------------*- C++ -*----------------------------------*\
  =========                 |
  \\      /  F ield         | OpenFOAM: The Open Source CFD Toolbox
   \\    /   O peration     | Website:  https://openfoam.org
    \\  /    A nd           | Version:  6
     \\/     M anipulation  |
\*---------------------------------------------------------------------------*/
FoamFile
{
    version     2.0;
    format      ascii;
    class       volScalarField;
    location    "350";
    object      epsilon;
}
// * * * * * * * * * * * * * * * * * * * * * * * * * * * * * * * * * * * * * //

dimensions      [0 2 -3 0 0 0 0];

internalField   nonuniform List<scalar> 
459
(
0.00223494
0.00319585
0.00300897
0.00246017
0.00194423
0.00154312
0.00124408
0.00101257
0.000828504
0.00067886
0.000554506
0.000448615
0.000355595
0.00026971
0.000193886
8.87386e-05
0.000202936
0.000161999
0.00012777
0.000101921
8.14362e-05
6.52148e-05
5.29276e-05
4.35671e-05
3.63547e-05
3.07182e-05
2.62389e-05
2.26265e-05
1.96066e-05
1.69589e-05
1.44965e-05
1.24121e-05
1.11489e-05
2.2056e-05
0.00366447
0.00778555
0.00430459
0.0026858
0.00183068
0.00133783
0.00102373
0.000806868
0.000647116
0.000523293
0.000423246
0.000339728
0.000268869
0.000208037
0.000161068
0.000170044
0.000108281
0.00020038
0.000452712
0.000194514
0.000122618
8.8355e-05
6.72596e-05
5.61563e-05
4.52629e-05
3.61822e-05
2.90533e-05
2.35555e-05
1.92999e-05
1.59929e-05
1.3371e-05
1.14337e-05
1.05715e-05
1.69206e-05
3.62858e-05
4.76944e-05
0.00433106
0.0106793
0.00450565
0.00232147
0.00140553
0.000972262
0.00073589
0.000587001
0.000480212
0.000395625
0.000324275
0.000262477
0.000209485
0.000165001
0.000131974
0.000115962
0.000111551
0.000175923
0.000214822
0.000138654
0.000105864
8.39957e-05
7.05241e-05
0.000130221
8.49861e-05
5.82975e-05
4.17636e-05
3.10656e-05
2.38903e-05
1.91049e-05
1.6002e-05
1.42381e-05
1.10739e-05
1.80228e-05
7.37952e-05
7.8384e-05
0.00425588
0.0097683
0.00324142
0.00129179
0.000689483
0.000491979
0.000415192
0.000364612
0.000319309
0.0002754
0.000233074
0.000193512
0.000158542
0.000129322
0.000108256
9.42192e-05
9.83249e-05
0.000127675
0.000159493
0.00013598
0.000117968
9.96223e-05
8.24014e-05
7.36775e-05
0.00017204
0.000123695
9.10688e-05
6.7589e-05
4.99351e-05
3.62485e-05
2.53727e-05
1.66501e-05
9.82039e-06
1.00681e-05
1.94363e-05
0.00016236
0.000130923
0.00405048
0.00701297
0.0017379
0.000488528
0.000266235
0.000234651
0.000230724
0.000221827
0.000206417
0.000186535
0.000164555
0.000141928
0.000122236
0.000106843
9.76662e-05
9.33517e-05
0.000106276
0.000126289
0.000137779
0.000139993
0.000127997
0.00010781
8.76093e-05
7.42773e-05
7.43515e-05
6.76448e-05
5.79775e-05
4.75506e-05
3.75796e-05
2.84478e-05
2.0121e-05
1.35893e-05
9.62684e-06
1.6646e-05
2.38466e-05
0.00012346
0.000156015
0.000167655
0.000221323
0.00056463
0.00364018
0.0050288
0.00109391
0.000303314
0.00015699
0.000142297
0.000145228
0.00014561
0.000141817
0.000134998
0.000126712
0.000118469
0.000112033
0.000109167
0.000112866
0.000123775
0.000148672
0.000176522
0.000183567
0.000172255
0.000147974
0.000117918
9.15198e-05
7.34541e-05
6.34284e-05
5.48167e-05
4.55226e-05
3.61608e-05
2.73151e-05
2.10588e-05
1.73712e-05
1.703e-05
2.10304e-05
3.14284e-05
4.33021e-05
7.71081e-05
0.000125599
0.000240206
0.000922866
0.00141436
0.00309227
0.00377872
0.000867795
0.000349545
0.000160146
0.000132826
0.000131891
0.000133915
0.000135516
0.000136744
0.000138224
0.00014066
0.000144882
0.000151931
0.000164183
0.000183215
0.000207853
0.000228611
0.000226712
0.000202303
0.000163857
0.00012248
9.29113e-05
7.4304e-05
6.20083e-05
5.19441e-05
4.29691e-05
3.56449e-05
3.07946e-05
2.95707e-05
3.27007e-05
4.14338e-05
5.67412e-05
7.6234e-05
9.67162e-05
0.000131909
0.000215114
0.00073531
0.00306994
0.00341229
0.00239623
0.00276203
0.000944884
0.000689734
0.000300084
0.000226612
0.00022116
0.000227327
0.00023575
0.000245703
0.000257507
0.000270543
0.00028409
0.000295271
0.00030482
0.000314766
0.000325094
0.000326314
0.000305785
0.000264308
0.000215592
0.000174975
0.000145791
0.000124096
0.000107879
9.5332e-05
8.61305e-05
8.09495e-05
8.08993e-05
8.74426e-05
0.000102279
0.000127402
0.000163406
0.000206732
0.000257355
0.000305963
0.000427859
0.00152307
0.0106434
0.00843617
0.00139927
0.00123296
0.00128302
0.00145398
0.000751436
0.000586724
0.000584178
0.000607326
0.000631502
0.000659241
0.000696781
0.000722218
0.000733339
0.000733683
0.000725033
0.000709001
0.000686001
0.000654834
0.000609492
0.000549046
0.0004874
0.000442674
0.000404099
0.000372017
0.00034553
0.000324578
0.000310106
0.000303928
0.000308598
0.000327306
0.000363496
0.000419736
0.000495173
0.000589075
0.000690273
0.000775026
0.000927419
0.0024356
0.0138487
0.0112507
0.00169815
0.00222888
0.00192512
0.00178716
0.00185028
0.001919
0.00195731
0.00199934
0.00201813
0.00201375
0.00199124
0.00195533
0.00191249
0.00186794
0.00181753
0.00176184
0.00169632
0.00161272
0.00152159
0.00144728
0.001384
0.00132868
0.00127985
0.00123852
0.00120776
0.00119242
0.00119908
0.00123576
0.00131029
0.00142545
0.00157
0.00172283
0.00184191
0.00195123
0.00215098
0.00325994
0.00943361
0.00637092
0.00604114
0.00750226
0.00616802
0.0055777
0.00561749
0.00576314
0.00580315
0.00577093
0.00570089
0.005608
0.00549274
0.0053527
0.00521078
0.00511093
0.00503993
0.00498492
0.00492166
0.00480945
0.00463449
0.00447154
0.0043385
0.00422408
0.00412092
0.00402949
0.00395588
0.00391068
0.00390982
0.00397505
0.00413086
0.00439067
0.00471941
0.00497292
0.00502888
0.00503234
0.00504641
0.00514549
0.00531331
0.00364176
0.000831849
0.00047144
0.00181645
0.0034908
0.00366728
0.00348564
0.00335689
0.003301
0.00326639
0.00321553
0.00314792
0.00307009
0.00298697
0.00290102
0.00283154
0.00280295
0.00279544
0.00279216
0.00277907
0.00275245
0.0027236
0.00269022
0.00265798
0.00262892
0.00260401
0.00258476
0.00257358
0.0025737
0.00258886
0.00262228
0.00267396
0.00273537
0.00278274
0.00279435
0.00279087
0.00278235
0.00280746
0.00297063
0.00298854
0.00210952
)
;

boundaryField
{
    floor
    {
        Cmu             0.09;
        kappa           0.41;
        E               9.8;
        type            epsilonWallFunction;
        value           nonuniform List<scalar> 
29
(
0.000193886
8.87386e-05
0.000202936
0.000161999
0.00012777
0.000101921
8.14362e-05
6.52148e-05
5.29276e-05
4.35671e-05
3.63547e-05
3.07182e-05
2.62389e-05
2.26265e-05
1.96066e-05
1.69589e-05
1.44965e-05
1.24121e-05
1.11489e-05
2.2056e-05
2.2056e-05
4.76944e-05
7.8384e-05
0.000130923
0.000193886
8.87386e-05
0.00020038
0.000175923
0.000127675
)
;
    }
    ceiling
    {
        Cmu             0.09;
        kappa           0.41;
        E               9.8;
        type            epsilonWallFunction;
        value           nonuniform List<scalar> 
43
(
0.000831849
0.00047144
0.00181645
0.0034908
0.00366728
0.00348564
0.00335689
0.003301
0.00326639
0.00321553
0.00314792
0.00307009
0.00298697
0.00290102
0.00283154
0.00280295
0.00279544
0.00279216
0.00277907
0.00275245
0.0027236
0.00269022
0.00265798
0.00262892
0.00260401
0.00258476
0.00257358
0.0025737
0.00258886
0.00262228
0.00267396
0.00273537
0.00278274
0.00279435
0.00279087
0.00278235
0.00280746
0.00297063
0.00298854
0.00210952
0.00139927
0.00123296
0.00604114
)
;
    }
    sWall
    {
        Cmu             0.09;
        kappa           0.41;
        E               9.8;
        type            epsilonWallFunction;
        value           uniform 0.000831849;
    }
    nWall
    {
        Cmu             0.09;
        kappa           0.41;
        E               9.8;
        type            epsilonWallFunction;
        value           nonuniform List<scalar> 6(0.00056463 0.00141436 0.00341229 0.00637092 0.00364176 0.00210952);
    }
    sideWalls
    {
        type            empty;
    }
    glass1
    {
        Cmu             0.09;
        kappa           0.41;
        E               9.8;
        type            epsilonWallFunction;
        value           nonuniform List<scalar> 9(0.00223494 0.00366447 0.00433106 0.00425588 0.00405048 0.00364018 0.00309227 0.00239623 0.00139927);
    }
    glass2
    {
        Cmu             0.09;
        kappa           0.41;
        E               9.8;
        type            epsilonWallFunction;
        value           nonuniform List<scalar> 2(0.00843617 0.0112507);
    }
    sun
    {
        Cmu             0.09;
        kappa           0.41;
        E               9.8;
        type            epsilonWallFunction;
        value           nonuniform List<scalar> 
14
(
0.00223494
0.00319585
0.00300897
0.00246017
0.00194423
0.00154312
0.00124408
0.00101257
0.000828504
0.00067886
0.000554506
0.000448615
0.000355595
0.00026971
)
;
    }
    heatsource1
    {
        Cmu             0.09;
        kappa           0.41;
        E               9.8;
        type            epsilonWallFunction;
        value           nonuniform List<scalar> 3(0.000167655 0.000221323 0.00056463);
    }
    heatsource2
    {
        Cmu             0.09;
        kappa           0.41;
        E               9.8;
        type            epsilonWallFunction;
        value           nonuniform List<scalar> 4(0.000170044 0.000108281 0.000108281 0.000111551);
    }
    Table_master
    {
        Cmu             0.09;
        kappa           0.41;
        E               9.8;
        type            epsilonWallFunction;
        value           nonuniform List<scalar> 9(0.000130221 8.49861e-05 5.82975e-05 4.17636e-05 3.10656e-05 2.38903e-05 1.91049e-05 1.6002e-05 1.42381e-05);
    }
    Table_slave
    {
        Cmu             0.09;
        kappa           0.41;
        E               9.8;
        type            epsilonWallFunction;
        value           nonuniform List<scalar> 9(0.00017204 0.000123695 9.10688e-05 6.7589e-05 4.99351e-05 3.62485e-05 2.53727e-05 1.66501e-05 9.82039e-06);
    }
    inlet
    {
        type            turbulentMixingLengthDissipationRateInlet;
        mixingLength    0.01;
        phi             phi;
        k               k;
        value           uniform 3.01869e-05;
    }
    outlet
    {
        type            zeroGradient;
    }
}


// ************************************************************************* //
