/*--------------------------------*- C++ -*----------------------------------*\
  =========                 |
  \\      /  F ield         | OpenFOAM: The Open Source CFD Toolbox
   \\    /   O peration     | Website:  https://openfoam.org
    \\  /    A nd           | Version:  6
     \\/     M anipulation  |
\*---------------------------------------------------------------------------*/
FoamFile
{
    version     2.0;
    format      ascii;
    class       surfaceScalarField;
    location    "350";
    object      phi;
}
// * * * * * * * * * * * * * * * * * * * * * * * * * * * * * * * * * * * * * //

dimensions      [1 0 -1 0 0 0 0];

internalField   nonuniform List<scalar> 
852
(
0.00276066
-0.00277834
0.00342736
-0.000666783
0.00418882
-0.000761544
0.0046806
-0.00049187
0.00484168
-0.000161157
0.0048173
2.42886e-05
0.00469939
0.000117827
0.00451898
0.000180328
0.00428792
0.000230982
0.00400863
0.00027921
0.00367082
0.00033773
0.00324521
0.000425527
0.00266656
0.000578569
0.00175797
0.000908509
0.00175331
0.000205535
-0.000211462
0.000455782
-0.000250324
0.000868438
-0.000412734
0.00120257
-0.000334207
0.00140381
-0.000201321
0.00149843
-9.46929e-05
0.00154258
-4.42249e-05
0.00157327
-3.07701e-05
0.00159574
-2.25456e-05
0.00161091
-1.52487e-05
0.00161895
-8.10917e-06
0.00161642
2.4482e-06
0.00159465
2.16974e-05
0.00153635
5.82318e-05
0.0014084
0.00012787
0.00115808
0.000250249
0.000758652
0.000399355
5.316e-05
0.00070542
4.47972e-05
0.00130888
-0.00413698
0.00237172
-0.0017297
0.00311382
-0.00150373
0.00341154
-0.000789676
0.00350516
-0.000254857
0.00349151
3.78551e-05
0.00340495
0.000204315
0.0032714
0.000313789
0.00310657
0.000395735
0.00291614
0.000469557
0.00269882
0.000554974
0.00245075
0.000673515
0.00217988
0.000849362
0.00199117
0.00109714
0.00231
0.0014344
0.00109482
0.00121505
0.00109469
-5.76119e-05
-0.000168465
0.000611557
-0.000919574
0.000980166
-0.000781425
0.00122662
-0.000580744
0.00135564
-0.000330423
0.00138831
-0.000127437
0.00139334
-4.93402e-05
0.00140365
-4.11641e-05
0.00141137
-3.03396e-05
0.00141762
-2.15781e-05
0.00142312
-1.36848e-05
0.00142643
-9.45252e-07
0.00142447
2.35825e-05
0.00141017
7.24541e-05
0.00134814
0.000189829
0.00110957
0.000488743
0.000777055
0.000731793
0.000510302
0.000972098
0.000533598
0.00058179
-0.00479961
0.00154392
-0.00269192
0.002048
-0.00200789
0.00212376
-0.000865521
0.00212271
-0.000253885
0.00209309
6.74032e-05
0.00203564
0.000261683
0.00196344
0.000385916
0.00188502
0.000474078
0.00180296
0.000551533
0.00171913
0.000638734
0.00163906
0.000753499
0.00157765
0.0009107
0.00155346
0.00112125
0.00154474
0.00144305
0.00111751
0.0016422
0.00221212
0.000602731
-0.00079595
0.000912995
-0.00122992
0.00121545
-0.00108397
0.00136443
-0.00072981
0.00139506
-0.000361132
0.00125873
8.80295e-06
0.00120946
0.00116837
0.0011381
0.0011166
0.00110299
0.00110211
0.00112577
0.0011983
0.0013882
0.00104854
0.000828328
0.000837876
0.000942384
0.000714924
0.00109498
0.0012164
0.000100208
-0.00501269
0.000686062
-0.00327786
0.000861553
-0.00218347
0.00077896
-0.000783004
0.000723701
-0.000198699
0.000700636
9.03946e-05
0.000700636
0.000261609
0.000713146
0.000373331
0.000731872
0.000455278
0.000756756
0.000526573
0.000792221
0.000603195
0.00084561
0.000700034
0.000926535
0.000829699
0.00104207
0.00100564
0.00123051
0.00125454
0.00150322
0.00136941
0.00236065
0.0013546
0.00213184
0.000197472
0.00214637
-0.000810557
0.00184901
-0.000932646
0.00163425
-0.000869292
0.00152312
-0.000618775
0.00148706
-0.000325159
0.00157171
-7.5929e-05
0.00152647
4.50014e-05
0.00145971
6.65245e-05
0.00136794
9.1531e-05
0.00125262
0.000115082
0.00111198
0.000140402
0.0009395
0.000172247
0.000721767
0.000217495
0.00043553
0.000285997
0.000105678
0.000329613
0.000486982
0.000446955
0.000659635
0.000769658
0.000882716
0.00087182
0.00205913
-0.000386201
-0.00477137
-0.000379573
-0.00328457
-0.000298288
-0.00226483
-0.000347237
-0.00073413
-0.000402392
-0.000143615
-0.0004084
9.63319e-05
-0.000372286
0.000225423
-0.000311513
0.000312487
-0.000234196
0.000377889
-0.000140009
0.000432313
-2.23325e-05
0.000485446
0.000127896
0.000549731
0.000321563
0.000635958
0.000576447
0.000750678
0.000942632
0.000888275
0.00140497
0.000906997
0.00199052
0.000768974
0.00216632
2.15925e-05
0.00187188
-0.000516196
0.00160947
-0.000670334
0.00135324
-0.000613149
0.00116143
-0.000427058
0.00104167
-0.00020549
0.000971642
-5.98198e-06
0.000900654
0.000115904
0.00080535
0.000161744
0.000703344
0.000193452
0.000589007
0.000229335
0.000451573
0.000277752
0.000285568
0.000338168
9.8495e-05
0.000404484
-5.97062e-05
0.000444115
-7.74701e-05
0.000347298
0.000118013
0.000251396
0.000530935
0.000356661
0.00126303
0.000139646
0.0023813
0.000940795
0.0010823
0.00129871
-0.000296344
0.00137836
-0.000337073
-0.000889168
-0.00405935
-0.00110069
-0.00307313
-0.00100916
-0.00235645
-0.00105025
-0.000693114
-0.00111299
-8.09448e-05
-0.00113794
0.000121216
-0.00111652
0.000203925
-0.0010554
0.0002513
-0.000961715
0.000284133
-0.0008379
0.000308426
-0.000681815
0.000329289
-0.000485858
0.000353702
-0.000236795
0.000386822
8.34908e-05
0.000430317
0.000484403
0.000487287
0.000916567
0.000474753
0.00135084
0.000334615
0.00142292
-5.05698e-05
0.00123978
-0.000333145
0.000997397
-0.000428049
0.000751558
-0.000367402
0.00054446
-0.000220051
0.000393395
-5.45132e-05
0.000300868
8.6459e-05
0.000241588
0.000175099
0.00017549
0.000227758
9.6448e-05
0.000272409
2.55713e-06
0.000323142
-0.000102568
0.000382794
-0.000204164
0.000439682
-0.000277037
0.000477276
-0.000285878
0.000452875
-0.000242272
0.000303611
-0.000131152
0.000140193
0.000119531
0.000105894
0.000282886
-2.37932e-05
0.00054217
0.000681433
0.000197201
0.0016436
-0.0004404
0.00201588
-0.00081689
-0.00132771
-0.00294066
-0.00170113
-0.00269981
-0.0015299
-0.00252777
-0.00149478
-0.000728315
-0.00154036
-3.54323e-05
-0.00158095
0.00016173
-0.00158215
0.000205049
-0.0015379
0.000206982
-0.00145184
0.000198003
-0.00132716
0.000183675
-0.00116469
0.000166742
-0.000962485
0.000151423
-0.000717323
0.000141584
-0.000426194
0.000139111
-8.35698e-05
0.000144581
0.000260519
0.00013058
0.000529146
6.58992e-05
0.00056319
-8.47074e-05
0.000437262
-0.000207312
0.000238839
-0.00022972
3.48637e-05
-0.00016352
-0.000131697
-5.35808e-05
-0.000238915
5.26178e-05
-0.000290921
0.000138379
-0.000320903
0.000204997
-0.000353583
0.000260354
-0.000394222
0.000312963
-0.000437731
0.000366568
-0.000473006
0.000417986
-0.000488214
0.000454808
-0.000469041
0.000458021
-0.000412918
0.00039667
-0.000360713
0.000251323
-0.000318426
9.78227e-05
-0.000232151
1.95345e-05
-0.000283228
2.72022e-05
-0.000230233
0.000628357
-0.000311028
0.00172432
-0.000152099
0.00185687
-0.00100619
-0.00167348
-0.00150752
-0.00235354
-0.00201984
-0.00209324
-0.00278816
-0.00174868
-0.00107297
-0.0017232
-6.10002e-05
-0.00177573
0.000214175
-0.00179484
0.000224083
-0.00176862
0.000180684
-0.00170185
0.000131148
-0.00159796
7.97116e-05
-0.00146031
2.9011e-05
-0.00129202
-1.69534e-05
-0.00109696
-5.35573e-05
-0.00088081
-7.71199e-05
-0.000651743
-8.45744e-05
-0.000438457
-8.27973e-05
-0.000284616
-8.80371e-05
-0.0002523
-0.000117117
-0.000326132
-0.000133574
-0.000451081
-0.000104862
-0.000573922
-4.07689e-05
-0.000659898
3.23068e-05
-0.000704084
9.67184e-05
-0.000719015
0.000153224
-0.000720552
0.000206449
-0.000717956
0.000257674
-0.000712317
0.00030724
-0.00069919
0.000353358
-0.000671583
0.000390297
-0.000623599
0.000406742
-0.000552147
0.000386487
-0.00046647
0.000310911
-0.00039332
0.000178089
-0.000327691
3.21097e-05
-0.000239808
-6.84331e-05
-0.000159218
-5.34718e-05
0.000117803
0.000351254
0.000599342
0.0012427
0.00143265
0.00102348
0.000196476
-0.00182607
-0.00388676
-0.00220772
-0.00446729
-0.00142883
-0.00185198
-0.00157469
8.4758e-05
-0.00167407
0.000313456
-0.00169273
0.000242643
-0.00166675
0.0001546
-0.00161411
7.84041e-05
-0.00153679
2.29593e-06
-0.00143999
-6.78865e-05
-0.00133222
-0.000124826
-0.00121845
-0.000167425
-0.00110268
-0.000192995
-0.000988951
-0.000198399
-0.000887805
-0.00018404
-0.000817901
-0.000158035
-0.000801698
-0.000133413
-0.000832901
-0.000102463
-0.000884494
-5.33577e-05
-0.000931866
6.51503e-06
-0.00095643
5.67848e-05
-0.000959976
0.00010018
-0.0009482
0.000141363
-0.000924855
0.000183021
-0.000892178
0.000224914
-0.000850198
0.000265177
-0.00079729
0.000300368
-0.0007315
0.000324426
-0.000652538
0.000327699
-0.000563802
0.000297669
-0.000475916
0.000222944
-0.000402971
0.000105062
-0.000335457
-3.54877e-05
-0.000242756
-0.000161217
-7.89202e-05
-0.000217391
0.000294901
-2.26516e-05
0.00100961
0.000527905
0.00165552
0.000377487
0.00160131
0.00100108
-0.000944154
-0.000888322
3.72812e-05
-0.001281
0.000477306
-0.00131611
0.000348428
-0.00127129
0.000197691
-0.00120822
9.14038e-05
-0.00114983
1.9886e-05
-0.00110152
-4.61425e-05
-0.00106371
-0.000105823
-0.00103697
-0.000151699
-0.00101982
-0.000184694
-0.00100933
-0.0002036
-0.00100245
-0.000205386
-0.000999046
-0.000187544
-0.00100356
-0.000153612
-0.00102055
-0.00011652
-0.00104395
-7.9146e-05
-0.00106258
-3.48224e-05
-0.00107335
1.72014e-05
-0.00107031
5.36627e-05
-0.00105525
8.5037e-05
-0.0010284
0.000114431
-0.00098933
0.000143864
-0.000937723
0.000173224
-0.000873527
0.000200899
-0.000797223
0.000223982
-0.00071064
0.000237762
-0.000618277
0.000235255
-0.000528589
0.000207899
-0.000454342
0.000148616
-0.000409159
5.97976e-05
-0.00039874
-4.59891e-05
-0.000416856
-0.000143182
-0.000430186
-0.000204144
-0.00037791
-7.50102e-05
-0.000161843
0.000311753
-0.000106082
0.000321642
0.0014487
-0.00138953
0.000388316
-0.00151875
0.000166322
-0.00114779
0.00010617
-0.000862216
6.26728e-05
-0.000684663
1.9964e-05
-0.000578164
-1.52643e-05
-0.000512768
-4.56742e-05
-0.00049038
-6.86933e-05
-0.000507733
-8.86292e-05
-0.000552167
-0.000107419
-0.000611481
-0.000125527
-0.000676037
-0.000139182
-0.000744507
-0.000137036
-0.000818196
-0.00011396
-0.000887659
-8.42452e-05
-0.000951075
-5.31948e-05
-0.00100797
-2.23338e-05
-0.00104952
6.64006e-06
-0.00106387
3.14647e-05
-0.00106569
5.53937e-05
-0.00105611
7.53741e-05
-0.00103473
9.2975e-05
-0.00100032
0.000109373
-0.000951782
0.0001246
-0.0008887
0.000137736
-0.000811829
0.00014703
-0.000723928
0.00014978
-0.000631101
0.000142348
-0.000544351
0.000121068
-0.000480626
8.48099e-05
-0.000458567
3.76578e-05
-0.00049361
-1.10279e-05
-0.000583415
-5.34589e-05
-0.000724505
-6.31357e-05
-0.00078696
-1.26374e-05
-0.000611933
0.000136642
-0.000687154
0.00039678
0.000701689
-0.00213869
0.000750522
0.00100222
0.00106957
0.00108683
0.00106481
0.00100294
0.000908263
0.000785204
0.000640716
0.000477566
0.000296698
9.86523e-05
-0.000112191
-0.00032016
-0.000504616
-0.000659089
-0.000782356
-0.00087473
-0.00093821
-0.000976966
-0.000991931
-0.000987055
-0.000964702
-0.000926052
-0.000872242
-0.000805305
-0.000728997
-0.000649745
-0.000577583
-0.000526205
-0.000510491
-0.000541391
-0.000620644
-0.000742087
-0.000873039
-0.000953178
-0.000882942
-0.000552521
)
;

boundaryField
{
    floor
    {
        type            calculated;
        value           nonuniform List<scalar> 
29
(
0
0
0
0
0
0
0
0
0
0
0
0
0
0
0
0
0
0
0
0
8.29316e-06
2.14281e-05
3.20516e-05
3.99028e-05
4.58055e-06
5.85231e-06
1.45383e-05
2.46743e-05
3.12609e-05
)
;
    }
    ceiling
    {
        type            calculated;
        value           nonuniform List<scalar> 
43
(
0.000213996
0.000242908
0.000136186
9.86144e-05
8.85922e-05
8.44024e-05
8.15729e-05
7.91728e-05
7.71588e-05
7.55816e-05
7.43179e-05
7.32565e-05
7.23328e-05
7.14765e-05
7.07942e-05
7.03848e-05
7.01306e-05
6.99823e-05
6.99533e-05
7.00347e-05
7.01363e-05
7.02758e-05
7.04151e-05
7.05398e-05
7.0642e-05
7.07084e-05
7.07177e-05
7.06416e-05
7.0447e-05
7.01047e-05
6.9609e-05
6.90142e-05
6.8477e-05
6.81444e-05
6.79032e-05
6.77343e-05
6.74199e-05
6.63241e-05
6.62762e-05
7.31074e-05
4.23718e-05
4.07728e-05
5.68649e-05
)
;
    }
    sWall
    {
        type            calculated;
        value           uniform 0.000284729;
    }
    nWall
    {
        type            calculated;
        value           nonuniform List<scalar> 6(4.04448e-05 3.93345e-05 3.71226e-05 4.64511e-05 5.97702e-05 7.59768e-05);
    }
    sideWalls
    {
        type            empty;
        value           nonuniform 0();
    }
    glass1
    {
        type            calculated;
        value           nonuniform List<scalar> 9(1.75987e-05 4.96663e-05 8.07539e-05 0.000112787 0.000144789 0.000177063 0.000208926 0.000240255 0.000276091);
    }
    glass2
    {
        type            calculated;
        value           nonuniform List<scalar> 2(0.000229897 0.000250591);
    }
    sun
    {
        type            calculated;
        value           uniform 0;
    }
    heatsource1
    {
        type            calculated;
        value           nonuniform List<scalar> 3(2.04037e-07 2.04311e-07 2.04505e-07);
    }
    heatsource2
    {
        type            calculated;
        value           nonuniform List<scalar> 4(5.12413e-08 5.13824e-08 0 0);
    }
    Table_master
    {
        type            calculated;
        value           nonuniform List<scalar> 9(-1.53536e-07 -1.53581e-07 -1.53588e-07 -1.53588e-07 -1.53584e-07 -1.53576e-07 -1.53556e-07 -1.53523e-07 -1.53457e-07);
    }
    Table_slave
    {
        type            calculated;
        value           nonuniform List<scalar> 9(1.53281e-07 1.53319e-07 1.53324e-07 1.53337e-07 1.53356e-07 1.53381e-07 1.53413e-07 1.53452e-07 1.53511e-07);
    }
    inlet
    {
        type            calculated;
        value           uniform -0.00452426;
    }
    outlet
    {
        type            calculated;
        value           nonuniform List<scalar> 2(0.00163956 -0.00313253);
    }
}


// ************************************************************************* //
