/*--------------------------------*- C++ -*----------------------------------*\
  =========                 |
  \\      /  F ield         | OpenFOAM: The Open Source CFD Toolbox
   \\    /   O peration     | Website:  https://openfoam.org
    \\  /    A nd           | Version:  6
     \\/     M anipulation  |
\*---------------------------------------------------------------------------*/
FoamFile
{
    version     2.0;
    format      ascii;
    class       volVectorField;
    location    "350";
    object      U;
}
// * * * * * * * * * * * * * * * * * * * * * * * * * * * * * * * * * * * * * //

dimensions      [0 1 -1 0 0 0 0];

internalField   nonuniform List<vector> 
459
(
(-0.119224 -0.115946 0)
(0.156793 -0.0521571 0)
(0.191774 -0.0368057 0)
(0.195284 -0.0262858 0)
(0.203873 -0.016508 0)
(0.208596 -0.00977364 0)
(0.205979 -0.0052803 0)
(0.198928 -0.00200673 0)
(0.189609 0.00064267 0)
(0.178561 0.00301027 0)
(0.165462 0.00546403 0)
(0.149439 0.0085673 0)
(0.12865 0.0134953 0)
(0.0968503 0.0242742 0)
(0.0928758 0.0534005 0)
(-0.119243 -0.000453638 0)
(0.0421672 -0.00931177 0)
(0.035297 -0.0125541 0)
(0.0436103 -0.0108876 0)
(0.0553832 -0.00747338 0)
(0.0630046 -0.00455915 0)
(0.0662114 -0.00308189 0)
(0.0673841 -0.00240391 0)
(0.0681866 -0.00198282 0)
(0.0689343 -0.00166811 0)
(0.0694726 -0.00140762 0)
(0.0696442 -0.00111349 0)
(0.0691867 -0.000634133 0)
(0.0676142 0.000264298 0)
(0.0639883 0.00205701 0)
(0.0566441 0.00553734 0)
(0.0483322 0.00995428 0)
(-0.0267296 0.0213741 0)
(0.145653 -0.0074231 0)
(-0.291659 -0.154424 0)
(0.165062 -0.0538893 0)
(0.136295 -0.0456273 0)
(0.13789 -0.0256091 0)
(0.148033 -0.00703904 0)
(0.152029 0.00426777 0)
(0.149508 0.0103062 0)
(0.144021 0.0138988 0)
(0.13726 0.0164476 0)
(0.12956 0.0187331 0)
(0.120836 0.0214965 0)
(0.110955 0.0256247 0)
(0.100192 0.0323795 0)
(0.0879724 0.0440372 0)
(0.0910378 0.0672069 0)
(0.08203 0.0597142 0)
(0.0499371 0.0509166 0)
(-0.162708 -0.00414663 0)
(0.0467397 -0.0319808 0)
(0.0386404 -0.028287 0)
(0.0464893 -0.0207086 0)
(0.0554002 -0.0117702 0)
(0.0596799 -0.00432021 0)
(0.0603996 -0.001786 0)
(0.0602558 -0.000833609 0)
(0.0604445 -0.000225969 0)
(0.0607909 0.000269861 0)
(0.0610802 0.000747031 0)
(0.0612947 0.00142357 0)
(0.0613427 0.00255531 0)
(0.0610742 0.00460403 0)
(0.0598158 0.00862551 0)
(0.0543378 0.0179716 0)
(0.0488822 0.0253534 0)
(-0.0234735 0.03543 0)
(0.201111 0.0185927 0)
(-0.416706 -0.196797 0)
(0.188927 -0.0989776 0)
(0.0771873 -0.079278 0)
(0.0824419 -0.0404495 0)
(0.0918707 -0.0141854 0)
(0.0924861 0.00043234 0)
(0.0895167 0.00905061 0)
(0.0861005 0.0146795 0)
(0.0827197 0.0187905 0)
(0.0792449 0.0223821 0)
(0.0756564 0.0263817 0)
(0.0721148 0.0316996 0)
(0.0691038 0.03925 0)
(0.0658891 0.0497566 0)
(0.068034 0.0647346 0)
(0.0611973 0.0617205 0)
(0.0461611 0.0754121 0)
(-0.0964719 -0.0264627 0)
(0.042579 -0.0475338 0)
(0.0520099 -0.043303 0)
(0.0554053 -0.0305073 0)
(0.0590635 -0.0163264 0)
(0.0585641 -0.00399554 0)
(0.0533679 -0.00455302 0)
(0.0504888 -0.00403512 0)
(0.0492271 -0.00382061 0)
(0.0483937 -0.0037202 0)
(0.0476982 -0.00366472 0)
(0.0472848 -0.00349321 0)
(0.0476843 -0.00287933 0)
(0.0498401 -0.00131311 0)
(0.0558562 0.00328021 0)
(0.0538754 0.0231364 0)
(0.049459 0.0349401 0)
(-0.0231955 0.044789 0)
(0.232493 0.0426258 0)
(-0.513973 -0.215844 0)
(0.209059 -0.130907 0)
(0.00861909 -0.0939098 0)
(0.0287472 -0.0376305 0)
(0.0344825 -0.00931754 0)
(0.0316698 0.00428433 0)
(0.0303513 0.0120556 0)
(0.0304149 0.017133 0)
(0.0310449 0.0208418 0)
(0.0319247 0.0241395 0)
(0.033138 0.027838 0)
(0.0349845 0.032627 0)
(0.0378831 0.0391158 0)
(0.0415407 0.047703 0)
(0.0499464 0.0597106 0)
(0.0604964 0.0658879 0)
(0.0743277 0.0795968 0)
(0.102267 -0.0562956 0)
(0.0954875 -0.0478154 0)
(0.086877 -0.0508917 0)
(0.0747237 -0.0450253 0)
(0.0666904 -0.0316981 0)
(0.0637287 -0.0167456 0)
(0.0648155 -0.00225709 0)
(0.0671146 0.000207262 0)
(0.0652182 5.73254e-06 0)
(0.0613258 2.02201e-05 0)
(0.0566267 0.000198107 0)
(0.051159 0.000500923 0)
(0.0445806 0.000978778 0)
(0.0365251 0.00184526 0)
(0.026628 0.00375214 0)
(-0.00187435 0.00689959 0)
(0.0210681 0.0340761 0)
(0.0345861 0.040824 0)
(-0.0265011 0.0462309 0)
(0.250426 0.0751709 0)
(-0.56623 -0.213193 0)
(0.191767 -0.142916 0)
(-0.0568113 -0.0957788 0)
(-0.0124697 -0.0295302 0)
(-0.014505 -0.00511479 0)
(-0.0174982 0.00518473 0)
(-0.0168322 0.0112501 0)
(-0.0147353 0.0154594 0)
(-0.0117917 0.0186771 0)
(-0.00818018 0.0214906 0)
(-0.00378634 0.024446 0)
(0.00196271 0.0281951 0)
(0.00932486 0.0331455 0)
(0.0185362 0.0396568 0)
(0.0325698 0.0482488 0)
(0.0503163 0.0525538 0)
(0.0727263 0.0505362 0)
(0.0915723 0.00545804 0)
(0.0893669 -0.0184072 0)
(0.0761423 -0.0308763 0)
(0.0631778 -0.0305466 0)
(0.0531351 -0.0221587 0)
(0.0465882 -0.0114804 0)
(0.0432845 -0.0019779 0)
(0.0402372 0.0027204 0)
(0.0368609 0.00498371 0)
(0.0326966 0.0065705 0)
(0.0280215 0.0080118 0)
(0.0226646 0.00961676 0)
(0.0162288 0.0116777 0)
(0.00885439 0.0144092 0)
(0.00167456 0.0173565 0)
(-0.0101367 0.0159687 0)
(0.000998146 0.0189097 0)
(0.0244397 0.0287962 0)
(-0.00684979 0.0278529 0)
(0.12498 0.0685687 0)
(0.0866833 0.0650481 0)
(-0.0899611 0.0607496 0)
(0.318959 -0.0186988 0)
(-0.604077 -0.192985 0)
(0.156256 -0.137947 0)
(-0.0850537 -0.0965818 0)
(-0.0406948 -0.0290132 0)
(-0.045665 -0.00443808 0)
(-0.0487664 0.0047928 0)
(-0.0488082 0.00933271 0)
(-0.0469502 0.0122982 0)
(-0.0435916 0.0145265 0)
(-0.0389405 0.0163477 0)
(-0.0329905 0.0180634 0)
(-0.0254697 0.0200541 0)
(-0.0160585 0.0226749 0)
(-0.0043211 0.0261234 0)
(0.0122319 0.030265 0)
(0.0305262 0.0296789 0)
(0.0509582 0.0210238 0)
(0.0608912 -0.00278637 0)
(0.0588972 -0.0192641 0)
(0.0489649 -0.0244261 0)
(0.0374581 -0.0213886 0)
(0.0273029 -0.0138852 0)
(0.0197333 -0.00536171 0)
(0.0144409 0.00211912 0)
(0.0116486 0.00655989 0)
(0.00908933 0.00869933 0)
(0.00600025 0.0103411 0)
(0.002351 0.0122643 0)
(-0.00214216 0.0148589 0)
(-0.00671021 0.0177035 0)
(-0.0103913 0.0201788 0)
(-0.0121721 0.0203132 0)
(-0.013797 0.0144257 0)
(-0.00858022 0.00682886 0)
(0.00321626 0.00714403 0)
(-0.0131756 -0.00490189 0)
(0.0371183 0.0343163 0)
(0.03536 0.0594858 0)
(-0.124434 0.0711484 0)
(0.32174 -0.0382538 0)
(-0.646464 -0.157032 0)
(0.124126 -0.121775 0)
(-0.106355 -0.102563 0)
(-0.0593093 -0.0289722 0)
(-0.0646091 -0.00232479 0)
(-0.0674531 0.00585293 0)
(-0.0684671 0.00850813 0)
(-0.0675021 0.00960039 0)
(-0.0646557 0.0101567 0)
(-0.0601073 0.0103998 0)
(-0.0539379 0.0104777 0)
(-0.046106 0.0105961 0)
(-0.0365297 0.0109221 0)
(-0.0251145 0.0114702 0)
(-0.0112859 0.0121727 0)
(0.00473466 0.0107945 0)
(0.0191101 0.00546716 0)
(0.0243579 -0.00500747 0)
(0.0226179 -0.0127956 0)
(0.0151074 -0.0144791 0)
(0.00586121 -0.0112185 0)
(-0.0026081 -0.00520539 0)
(-0.00864097 0.000755603 0)
(-0.0117399 0.00535909 0)
(-0.0131473 0.00846999 0)
(-0.0144384 0.0107146 0)
(-0.0160541 0.0128694 0)
(-0.0179211 0.01525 0)
(-0.0197543 0.0177693 0)
(-0.0209357 0.0198752 0)
(-0.020782 0.0206623 0)
(-0.0190862 0.0184502 0)
(-0.0171459 0.0116636 0)
(-0.0145384 0.00412502 0)
(-0.012128 0.00106688 0)
(-0.0171589 0.00088023 0)
(-2.94239e-05 0.0289409 0)
(0.00858789 0.0739879 0)
(-0.165417 0.0821864 0)
(0.403025 -0.0459395 0)
(-0.695906 -0.0898651 0)
(0.0927859 -0.0883621 0)
(-0.131349 -0.125823 0)
(-0.0711681 -0.0419514 0)
(-0.0748781 -0.00201916 0)
(-0.0757885 0.00796394 0)
(-0.0772922 0.00910282 0)
(-0.0771118 0.00821472 0)
(-0.0750691 0.00692195 0)
(-0.0713582 0.00547236 0)
(-0.0661132 0.0039671 0)
(-0.0594842 0.00253827 0)
(-0.0516383 0.00134014 0)
(-0.042759 0.000502745 0)
(-0.0329832 0.000120832 0)
(-0.0229299 -0.000221551 0)
(-0.0145105 -0.00138512 0)
(-0.0106574 -0.00453774 0)
(-0.0117328 -0.00697608 0)
(-0.0165297 -0.00630363 0)
(-0.0222486 -0.00324668 0)
(-0.0270379 0.000584431 0)
(-0.0298061 0.00399233 0)
(-0.0308339 0.00684409 0)
(-0.0310505 0.00936726 0)
(-0.0310029 0.0117343 0)
(-0.0308591 0.0140628 0)
(-0.030509 0.0163342 0)
(-0.0296943 0.0183069 0)
(-0.0280874 0.0194486 0)
(-0.0254379 0.0189887 0)
(-0.0219413 0.0159387 0)
(-0.0185444 0.0100506 0)
(-0.0155895 0.00384066 0)
(-0.0129223 0.000187028 0)
(-0.0101905 0.00117663 0)
(0.00437315 0.0220653 0)
(0.034081 0.0692684 0)
(-0.129597 0.0636228 0)
(0.683477 -0.00190238 0)
(-0.76661 0.0895305 0)
(0.0445474 -0.0465481 0)
(-0.166287 -0.159433 0)
(-0.0575299 -0.058977 0)
(-0.0673098 0.00321894 0)
(-0.0711825 0.0146809 0)
(-0.0730563 0.0135676 0)
(-0.0726879 0.0106685 0)
(-0.0709375 0.00780542 0)
(-0.0681114 0.0050404 0)
(-0.0642231 0.00237255 0)
(-0.0597712 2.97274e-05 0)
(-0.0549828 -0.00182177 0)
(-0.0500162 -0.00299496 0)
(-0.0449936 -0.00328917 0)
(-0.0401768 -0.00277255 0)
(-0.0362694 -0.00198137 0)
(-0.034394 -0.00159546 0)
(-0.0349093 -0.000912423 0)
(-0.0369784 0.000875179 0)
(-0.0393236 0.00342259 0)
(-0.0409599 0.00591055 0)
(-0.0415012 0.00807091 0)
(-0.0412581 0.0101073 0)
(-0.0404593 0.0121701 0)
(-0.0392402 0.014241 0)
(-0.0376404 0.0162306 0)
(-0.0356121 0.0179903 0)
(-0.0330639 0.0192528 0)
(-0.0299212 0.019579 0)
(-0.0262234 0.0183961 0)
(-0.0223049 0.015154 0)
(-0.0188038 0.00992258 0)
(-0.0159119 0.00398172 0)
(-0.0131175 -0.000985818 0)
(-0.00844436 -0.00222027 0)
(0.00707186 0.00983788 0)
(0.0373048 0.0405355 0)
(-0.0930649 0.032216 0)
(0.674772 0.0383542 0)
(-0.169229 -0.0952514 0)
(-0.0137225 -0.0370658 0)
(-0.0397703 0.0188414 0)
(-0.0568372 0.020018 0)
(-0.0565461 0.0135846 0)
(-0.0535532 0.00758816 0)
(-0.0508131 0.00246589 0)
(-0.0483913 -0.00260645 0)
(-0.0465481 -0.00695876 0)
(-0.0451853 -0.0102768 0)
(-0.0442681 -0.0125944 0)
(-0.0436893 -0.0137267 0)
(-0.0433149 -0.0133445 0)
(-0.0430554 -0.01137 0)
(-0.0430386 -0.00834447 0)
(-0.0435247 -0.00507349 0)
(-0.0444942 -0.00172676 0)
(-0.0455073 0.00176661 0)
(-0.0462013 0.00490174 0)
(-0.0463628 0.00698142 0)
(-0.0459597 0.00863614 0)
(-0.0450449 0.0100997 0)
(-0.043618 0.0114587 0)
(-0.04166 0.0126818 0)
(-0.0391585 0.0136757 0)
(-0.0361159 0.0143027 0)
(-0.032572 0.0143549 0)
(-0.0286485 0.0135269 0)
(-0.0246102 0.011441 0)
(-0.0209292 0.00776894 0)
(-0.0182441 0.00250391 0)
(-0.0171578 -0.004122 0)
(-0.0178413 -0.0104162 0)
(-0.0182911 -0.0130477 0)
(-0.0142305 -0.00485853 0)
(-0.0115997 0.0150798 0)
(-0.134749 0.0140953 0)
(0.396487 0.0671268 0)
(-0.24678 -0.179619 0)
(-0.0442332 -0.130824 0)
(-0.0498054 -0.10292 0)
(-0.0440062 -0.0982767 0)
(-0.0338378 -0.100217 0)
(-0.0269236 -0.100882 0)
(-0.0230131 -0.0994419 0)
(-0.0212571 -0.0976092 0)
(-0.0212643 -0.0959366 0)
(-0.0226667 -0.0945324 0)
(-0.0249338 -0.0933034 0)
(-0.0276309 -0.0925218 0)
(-0.0306383 -0.0925988 0)
(-0.0337781 -0.0933415 0)
(-0.0368754 -0.0941507 0)
(-0.0397841 -0.0951406 0)
(-0.0424428 -0.0962945 0)
(-0.044523 -0.0968299 0)
(-0.0456851 -0.0957839 0)
(-0.0460557 -0.094624 0)
(-0.045883 -0.0936865 0)
(-0.0452131 -0.0927499 0)
(-0.0440094 -0.0916319 0)
(-0.0422163 -0.0902701 0)
(-0.0397955 -0.088693 0)
(-0.0367475 -0.0870186 0)
(-0.0331396 -0.0854965 0)
(-0.0291556 -0.0845493 0)
(-0.025167 -0.0847414 0)
(-0.021793 -0.0865589 0)
(-0.0198213 -0.0897842 0)
(-0.0200953 -0.0922577 0)
(-0.0230403 -0.0923799 0)
(-0.0269491 -0.0935146 0)
(-0.0304509 -0.091625 0)
(-0.0461242 -0.0756221 0)
(-0.109445 -0.0630615 0)
(0.320753 -0.0418393 0)
(-0.998944 -0.0620211 0)
(0.281069 0.14908 0)
(-0.00378334 0.597413 0)
(0.0284339 0.486548 0)
(0.0468835 0.415662 0)
(0.0492827 0.393276 0)
(0.0463846 0.386332 0)
(0.0420133 0.380581 0)
(0.0368891 0.37347 0)
(0.0310974 0.367304 0)
(0.024467 0.362406 0)
(0.016999 0.358603 0)
(0.0088644 0.355575 0)
(-0.000111799 0.352355 0)
(-0.00964323 0.348923 0)
(-0.0180592 0.347258 0)
(-0.0253985 0.347061 0)
(-0.0313492 0.348028 0)
(-0.0359736 0.35004 0)
(-0.0393842 0.351893 0)
(-0.0415802 0.351793 0)
(-0.0426471 0.352039 0)
(-0.0428242 0.352762 0)
(-0.0422272 0.353644 0)
(-0.0409055 0.354481 0)
(-0.0388991 0.355149 0)
(-0.0362734 0.355543 0)
(-0.0331505 0.355568 0)
(-0.0297408 0.355172 0)
(-0.0263695 0.354402 0)
(-0.0234946 0.35346 0)
(-0.021768 0.352686 0)
(-0.0221317 0.352158 0)
(-0.0251087 0.349492 0)
(-0.0287623 0.342689 0)
(-0.0297862 0.339377 0)
(-0.0341745 0.338991 0)
(-0.0701385 0.330397 0)
(-0.150513 0.337105 0)
(0.440641 0.386583 0)
)
;

boundaryField
{
    floor
    {
        type            noSlip;
    }
    ceiling
    {
        type            noSlip;
    }
    sWall
    {
        type            noSlip;
    }
    nWall
    {
        type            noSlip;
    }
    sideWalls
    {
        type            empty;
    }
    glass1
    {
        type            noSlip;
    }
    glass2
    {
        type            noSlip;
    }
    sun
    {
        type            noSlip;
    }
    heatsource1
    {
        type            noSlip;
    }
    heatsource2
    {
        type            noSlip;
    }
    Table_master
    {
        type            noSlip;
    }
    Table_slave
    {
        type            noSlip;
    }
    inlet
    {
        type            fixedValue;
        value           uniform (0.2 0 0);
    }
    outlet
    {
        type            zeroGradient;
    }
}


// ************************************************************************* //
