/*--------------------------------*- C++ -*----------------------------------*\
  =========                 |
  \\      /  F ield         | OpenFOAM: The Open Source CFD Toolbox
   \\    /   O peration     | Website:  https://openfoam.org
    \\  /    A nd           | Version:  6
     \\/     M anipulation  |
\*---------------------------------------------------------------------------*/
FoamFile
{
    version     2.0;
    format      ascii;
    class       volScalarField;
    location    "300";
    object      nut;
}
// * * * * * * * * * * * * * * * * * * * * * * * * * * * * * * * * * * * * * //

dimensions      [0 2 -1 0 0 0 0];

internalField   nonuniform List<scalar> 
459
(
0.000886453
0.000976172
0.000949479
0.000936224
0.000907744
0.000883516
0.000863702
0.000842805
0.000822239
0.000805377
0.000792755
0.000781902
0.00076808
0.000743522
0.00070604
0.000637215
0.000761534
0.00073666
0.000700045
0.000663348
0.000627655
0.000595863
0.000577261
0.000567054
0.000559521
0.000550042
0.00053445
0.000513138
0.000495032
0.000481094
0.000475291
0.000480559
0.000495584
0.00052266
0.00126082
0.003932
0.00416216
0.00427722
0.00435416
0.00456216
0.00479007
0.00487144
0.00475526
0.00453133
0.00426385
0.00394308
0.00350725
0.00288043
0.00202061
0.00082875
0.000581462
0.000854409
0.00318015
0.00304228
0.00271267
0.00228063
0.00188945
0.00151074
0.00145305
0.00151969
0.00161856
0.001705
0.00174675
0.00168301
0.00151375
0.00128174
0.00114559
0.00107168
0.0010539
0.000677344
0.00131442
0.0025443
0.00319863
0.00415495
0.005123
0.00551759
0.0061723
0.00676785
0.00689404
0.00668745
0.00632203
0.00583806
0.00518222
0.00428814
0.00317068
0.00200261
0.00103404
0.0010772
0.00436079
0.00432259
0.00361975
0.00276414
0.00182382
0.000605088
0.000486167
0.000497846
0.000517675
0.000538199
0.000559828
0.000584084
0.00060143
0.000624724
0.00149079
0.0016233
0.00183447
0.000847712
0.00235135
0.00223052
0.00244001
0.00313936
0.00416376
0.00505856
0.00628137
0.0074383
0.00797874
0.0079727
0.00772226
0.00734638
0.00682681
0.00609833
0.00510802
0.00384932
0.00242732
0.0012909
0.00504285
0.00619758
0.00577839
0.0048288
0.00354124
0.0020778
0.00104427
0.00101464
0.000997904
0.000984972
0.000974154
0.000965595
0.000960236
0.000958544
0.000964136
0.00223757
0.00233712
0.00273761
0.00104857
0.00291402
0.00273065
0.0024724
0.00275793
0.00369433
0.00484616
0.00614331
0.00762765
0.00848857
0.00869827
0.00864589
0.0085134
0.00833279
0.00809977
0.00782219
0.00752667
0.00725971
0.00717723
0.00804608
0.00821272
0.00799773
0.00764528
0.00721367
0.00673687
0.00629766
0.00608691
0.00588794
0.00567051
0.00542245
0.00513623
0.00480692
0.00443285
0.00402675
0.00363835
0.0032385
0.00314774
0.00204189
0.00136028
0.00160939
0.0017857
0.00342667
0.00354013
0.00284879
0.00265554
0.00346562
0.00487137
0.00626703
0.0077159
0.00854553
0.00882433
0.00893344
0.00902024
0.00909974
0.00916489
0.00921732
0.00926754
0.00932631
0.00940584
0.00952429
0.00953303
0.00947071
0.00936864
0.00923541
0.00907262
0.00888512
0.00868691
0.00846498
0.00821213
0.00792099
0.00758326
0.00718861
0.00672331
0.00617233
0.00553313
0.00484155
0.0042703
0.00366411
0.00375474
0.00483943
0.00231117
0.00398057
0.00422874
0.00332782
0.00268714
0.00353075
0.00534208
0.006742
0.00762282
0.0080269
0.00818989
0.00840746
0.0086863
0.00898065
0.00925828
0.0095034
0.00971238
0.00988434
0.0100127
0.0100963
0.0101391
0.010151
0.0101343
0.0100886
0.0100093
0.0098914
0.00973673
0.00955079
0.0093355
0.00909088
0.00881694
0.00851385
0.00817942
0.00780273
0.00735665
0.0068024
0.00618326
0.00562961
0.00607588
0.00808545
0.00287553
0.00464826
0.0053654
0.00481358
0.00284788
0.00417225
0.00607982
0.00689513
0.00689529
0.0067611
0.00687167
0.00723478
0.00769934
0.00818626
0.00865281
0.0090721
0.00942937
0.0097181
0.00993481
0.0100836
0.0101786
0.0102316
0.0102484
0.0102321
0.010182
0.0100961
0.00997608
0.00982658
0.00965013
0.00944829
0.00922398
0.00898321
0.00873567
0.0084937
0.0082692
0.00806075
0.00779535
0.00727867
0.00724281
0.0100232
0.00357004
0.00559744
0.00715772
0.0120314
0.00396912
0.00407944
0.00604056
0.00601965
0.00567256
0.00565139
0.00604149
0.00659249
0.00716768
0.00772956
0.00825372
0.00872178
0.00912164
0.0094467
0.00969468
0.00986994
0.00998412
0.0100496
0.0100756
0.0100692
0.0100338
0.00997031
0.00988053
0.00976739
0.00963173
0.00947334
0.00929276
0.00909297
0.0088809
0.00866934
0.00848154
0.00835679
0.00833632
0.00833756
0.0084317
0.0107339
0.00370866
0.0213361
0.0117995
0.00440472
0.00565549
0.0057905
0.00594532
0.0062628
0.00675338
0.00735261
0.00797832
0.00856146
0.00905775
0.0094499
0.00974152
0.00994733
0.0100846
0.0101687
0.0102131
0.0102284
0.0102224
0.0102
0.0101643
0.0101159
0.0100546
0.00998033
0.00989229
0.00978916
0.00966997
0.0095353
0.00938827
0.00923563
0.00909061
0.00898105
0.00895784
0.00908089
0.00943186
0.00998742
0.00290294
0.00843777
0.0114791
0.0083246
0.00698273
0.00634569
0.00620094
0.00645011
0.0070182
0.00780113
0.00864842
0.00941191
0.0100011
0.010397
0.0106289
0.010744
0.0107859
0.0107875
0.0107701
0.0107459
0.010721
0.0106973
0.0106748
0.0106522
0.010628
0.0106008
0.0105688
0.0105303
0.0104844
0.0104309
0.0103709
0.0103068
0.0102414
0.0101779
0.0101197
0.0100706
0.0100867
0.00895961
0.00250983
0.00163654
0.00219995
0.00476322
0.0044768
0.00404549
0.003649
0.00330677
0.00301868
0.00278642
0.00261332
0.00250129
0.00244598
0.00243385
0.00244579
0.00246458
0.00247958
0.00248659
0.0024856
0.0024785
0.00246763
0.00245507
0.00244234
0.0024304
0.00241975
0.00241054
0.00240274
0.00239624
0.00239086
0.00238641
0.00238271
0.00237968
0.00237743
0.00237633
0.00237705
0.0023805
0.00238844
0.00240909
0.00247095
0.00247101
0.00215178
)
;

boundaryField
{
    floor
    {
        type            nutkWallFunction;
        Cmu             0.09;
        kappa           0.41;
        E               9.8;
        value           nonuniform List<scalar> 
29
(
8.55073e-05
7.68889e-05
9.21537e-05
8.91171e-05
8.46363e-05
8.01265e-05
7.57156e-05
7.17581e-05
6.94302e-05
6.81424e-05
6.71814e-05
6.59679e-05
6.39752e-05
6.12642e-05
5.89625e-05
5.7197e-05
5.64814e-05
5.7192e-05
5.91472e-05
6.25989e-05
6.25988e-05
8.20259e-05
0.000102786
0.000126606
8.55072e-05
7.68889e-05
0.000103378
0.00012977
0.000154581
)
;
    }
    ceiling
    {
        type            nutkWallFunction;
        Cmu             0.09;
        kappa           0.41;
        E               9.8;
        value           nonuniform List<scalar> 
43
(
0.000193939
0.000255957
0.000521632
0.000492812
0.000449092
0.000408502
0.000373116
0.000343041
0.000318579
0.000300208
0.000288242
0.000282304
0.000280984
0.000282245
0.000284243
0.000285835
0.000286575
0.000286461
0.000285694
0.000284524
0.000283173
0.000281803
0.000280519
0.000279372
0.000278379
0.000277537
0.000276835
0.000276254
0.000275772
0.000275369
0.000275039
0.000274791
0.000274666
0.000274737
0.000275102
0.000275953
0.000278167
0.000284776
0.000284791
0.000250434
0.000603868
0.000755683
0.000878411
)
;
    }
    sWall
    {
        type            nutkWallFunction;
        Cmu             0.09;
        kappa           0.41;
        E               9.8;
        value           uniform 0.000193966;
    }
    nWall
    {
        type            nutkWallFunction;
        Cmu             0.09;
        kappa           0.41;
        E               9.8;
        value           nonuniform List<scalar> 6(0.000210416 0.000267751 0.000327776 0.000330498 0.000288944 0.000250439);
    }
    sideWalls
    {
        type            empty;
    }
    glass1
    {
        type            nutkWallFunction;
        Cmu             0.09;
        kappa           0.41;
        E               9.8;
        value           nonuniform List<scalar> 9(0.000107308 0.000151192 0.000157348 0.000271875 0.000331862 0.000385327 0.000442178 0.000509664 0.000603994);
    }
    glass2
    {
        type            nutkWallFunction;
        Cmu             0.09;
        kappa           0.41;
        E               9.8;
        value           nonuniform List<scalar> 2(0.00039975 0.000413938);
    }
    sun
    {
        type            nutkWallFunction;
        Cmu             0.09;
        kappa           0.41;
        E               9.8;
        value           nonuniform List<scalar> 
14
(
0.000107288
0.00011794
0.000114781
0.000113216
0.000109837
0.000106952
0.000104582
0.000102074
9.96023e-05
9.75753e-05
9.60579e-05
9.47512e-05
9.30795e-05
9.00934e-05
)
;
    }
    heatsource1
    {
        type            nutkWallFunction;
        Cmu             0.09;
        kappa           0.41;
        E               9.8;
        value           nonuniform List<scalar> 3(0.00016279 0.000190838 0.00021044);
    }
    heatsource2
    {
        type            nutkWallFunction;
        Cmu             0.09;
        kappa           0.41;
        E               9.8;
        value           nonuniform List<scalar> 4(0.000100434 7.00012e-05 7.00011e-05 0.000124828);
    }
    Table_master
    {
        type            nutkWallFunction;
        Cmu             0.09;
        kappa           0.41;
        E               9.8;
        value           nonuniform List<scalar> 9(7.2779e-05 5.78738e-05 5.93966e-05 6.19275e-05 6.45369e-05 6.72805e-05 7.03389e-05 7.25252e-05 7.54542e-05);
    }
    Table_slave
    {
        type            nutkWallFunction;
        Cmu             0.09;
        kappa           0.41;
        E               9.8;
        value           nonuniform List<scalar> 9(0.000126034 0.00012256 0.000120595 0.000119077 0.000117809 0.000116808 0.000116186 0.000115998 0.000116675);
    }
    inlet
    {
        type            calculated;
        value           uniform 0.0213361;
    }
    outlet
    {
        type            calculated;
        value           nonuniform List<scalar> 2(0.00163654 0.00219995);
    }
}


// ************************************************************************* //
