/*--------------------------------*- C++ -*----------------------------------*\
  =========                 |
  \\      /  F ield         | OpenFOAM: The Open Source CFD Toolbox
   \\    /   O peration     | Website:  https://openfoam.org
    \\  /    A nd           | Version:  6
     \\/     M anipulation  |
\*---------------------------------------------------------------------------*/
FoamFile
{
    version     2.0;
    format      ascii;
    class       volScalarField;
    location    "300";
    object      epsilon;
}
// * * * * * * * * * * * * * * * * * * * * * * * * * * * * * * * * * * * * * //

dimensions      [0 2 -3 0 0 0 0];

internalField   nonuniform List<scalar> 
459
(
0.00010067
0.000110776
7.40108e-05
7.68627e-05
8.18754e-05
8.70686e-05
9.2619e-05
9.89478e-05
0.000105234
0.000111454
0.000117446
0.000122832
0.000127042
0.000129219
0.00012739
1.38957e-05
1.0974e-05
6.87965e-06
4.2137e-06
3.49653e-06
3.42633e-06
3.59849e-06
3.87897e-06
4.12446e-06
4.26479e-06
4.34426e-06
4.54851e-06
5.21526e-06
6.71173e-06
9.67243e-06
1.42841e-05
1.93973e-05
3.8124e-05
3.01756e-05
0.00054165
0.00110524
0.000132719
6.4125e-05
5.90003e-05
5.9869e-05
6.19192e-05
6.48383e-05
6.82975e-05
7.25225e-05
7.79509e-05
8.50755e-05
9.43524e-05
0.000106077
0.000122633
0.000170518
4.10821e-05
3.19378e-05
3.03619e-05
1.54382e-05
1.0444e-05
9.4247e-06
9.37239e-06
9.66421e-06
1.06964e-05
1.18082e-05
1.30212e-05
1.45677e-05
1.67847e-05
2.03274e-05
2.62153e-05
3.48695e-05
4.42636e-05
6.37999e-05
0.000152647
7.95514e-05
0.00149268
0.00390185
0.000491234
0.000129912
9.07119e-05
8.42275e-05
8.2894e-05
8.31725e-05
8.44423e-05
8.66776e-05
9.03669e-05
9.59652e-05
0.000103723
0.00011343
0.000125075
0.000144129
0.000197421
5.87976e-05
3.61059e-05
1.65216e-05
1.24312e-05
1.15307e-05
1.15027e-05
1.00583e-05
1.16117e-05
1.37539e-05
1.66614e-05
2.07713e-05
2.69574e-05
3.69127e-05
5.4353e-05
8.85038e-05
6.61016e-05
0.000102283
0.000269317
0.000134873
0.00309853
0.00873682
0.00157505
0.000386582
0.000206411
0.000161623
0.000142041
0.000130519
0.00012359
0.000119673
0.000118876
0.000121321
0.000126786
0.000134135
0.000141012
0.000144649
0.000146365
0.000165292
5.25633e-05
3.47723e-05
2.81253e-05
3.02569e-05
3.58065e-05
4.5196e-05
6.21834e-05
6.20361e-05
6.26011e-05
6.39421e-05
6.65109e-05
7.09094e-05
7.82215e-05
9.09131e-05
0.000115475
6.77141e-05
9.38943e-05
0.000187119
0.000107428
0.00531469
0.0147746
0.00391544
0.00123528
0.000616825
0.000406335
0.000304099
0.000243797
0.00020568
0.000181487
0.000167848
0.000162569
0.000164126
0.000170308
0.00017711
0.000178061
0.000164903
0.000130416
8.51415e-05
5.9542e-05
5.14527e-05
4.99182e-05
5.07551e-05
5.19336e-05
5.25949e-05
5.2067e-05
5.1674e-05
5.16244e-05
5.20804e-05
5.3229e-05
5.53082e-05
5.86351e-05
6.32154e-05
6.68203e-05
7.40717e-05
8.47327e-05
0.000101886
9.2007e-05
9.98498e-05
0.000113739
0.00798547
0.0197137
0.00799149
0.00347369
0.00187319
0.00114536
0.000755016
0.000531692
0.000392204
0.000302694
0.000251284
0.000223384
0.000211849
0.000211939
0.000218239
0.000222161
0.000212457
0.000182265
0.000144014
0.00011522
9.89422e-05
9.04305e-05
8.62579e-05
8.41827e-05
8.27817e-05
8.14769e-05
8.04664e-05
7.98406e-05
7.96757e-05
8.01015e-05
8.13073e-05
8.35893e-05
8.7254e-05
9.1808e-05
9.54343e-05
9.61463e-05
9.56568e-05
0.000103886
0.000135308
0.000209806
0.0104498
0.0204067
0.0134389
0.00817581
0.00484897
0.00290554
0.001807
0.00117377
0.000794408
0.00056191
0.000415141
0.000326839
0.000280076
0.000260359
0.000259496
0.000265948
0.00026422
0.000245456
0.000215919
0.000188135
0.000167696
0.000153943
0.000145453
0.00014048
0.000137411
0.000135321
0.000133919
0.000133066
0.00013271
0.000132985
0.000134202
0.00013684
0.000141326
0.000147018
0.000151057
0.000149954
0.000145311
0.00015391
0.000211202
0.000343839
0.0101583
0.020241
0.0207208
0.0152745
0.00975198
0.00586918
0.0035485
0.00219759
0.00140552
0.000936151
0.000654981
0.000485518
0.000384107
0.000330121
0.00031145
0.000313036
0.000319116
0.000316896
0.000303645
0.000285712
0.000268885
0.000255427
0.000245946
0.000239988
0.000236539
0.000234762
0.000234163
0.000234292
0.000234811
0.00023581
0.000237749
0.000241286
0.000246915
0.000253956
0.000259236
0.000257292
0.000245486
0.000242328
0.000320375
0.000529973
0.00861963
0.0125498
0.0555947
0.0371946
0.0197715
0.0103889
0.00565726
0.00324389
0.00197396
0.0012796
0.000886302
0.000658887
0.000528599
0.000459153
0.000428344
0.00042387
0.00043465
0.000449118
0.000458087
0.00046055
0.000458876
0.000455617
0.000452844
0.000451767
0.000452456
0.000454732
0.00045832
0.000462382
0.000466054
0.000469515
0.000473567
0.000479117
0.000486605
0.000495015
0.00050065
0.000496724
0.000475922
0.000447307
0.000495843
0.000819519
0.141185
0.0992914
0.0215666
0.00853546
0.00468898
0.00291009
0.00196691
0.00143937
0.00113845
0.000969181
0.000880143
0.000841795
0.000836385
0.000852896
0.000882068
0.000915785
0.000948805
0.000977096
0.000999253
0.00101587
0.00102954
0.00104282
0.00105591
0.00106947
0.00108379
0.00109684
0.00110639
0.00111342
0.00111984
0.00112731
0.00113643
0.00114582
0.0011507
0.00114133
0.0011027
0.00102732
0.00101609
0.00137249
0.087014
0.0406609
0.014396
0.00685502
0.00416205
0.00304102
0.00250888
0.00224112
0.00211818
0.00208408
0.00210595
0.00216254
0.00223996
0.00232776
0.00241633
0.00249694
0.00256403
0.00261706
0.00265852
0.0026922
0.00272124
0.00274785
0.00277477
0.00280382
0.00283555
0.00286442
0.00288443
0.00289804
0.00290972
0.00292267
0.00293718
0.00294917
0.00294851
0.00291841
0.00284301
0.00273882
0.00288106
0.00251374
0.00117727
0.00269988
0.0266553
0.0149767
0.00684935
0.00347706
0.00265804
0.00226957
0.00203614
0.00188408
0.00178429
0.00172195
0.00168699
0.00167186
0.0016709
0.0016798
0.00169482
0.00171232
0.00172898
0.00174241
0.00175163
0.0017568
0.00175885
0.00175885
0.00175744
0.00175518
0.0017523
0.00175039
0.00174898
0.00174469
0.00173688
0.00172576
0.00171109
0.00169119
0.00166217
0.00161734
0.00154755
0.00144468
0.00132012
0.000904034
)
;

boundaryField
{
    floor
    {
        Cmu             0.09;
        kappa           0.41;
        E               9.8;
        type            epsilonWallFunction;
        value           nonuniform List<scalar> 
29
(
0.00012739
1.38957e-05
1.0974e-05
6.87965e-06
4.2137e-06
3.49653e-06
3.42633e-06
3.59849e-06
3.87897e-06
4.12446e-06
4.26479e-06
4.34426e-06
4.54851e-06
5.21526e-06
6.71173e-06
9.67243e-06
1.42841e-05
1.93973e-05
3.8124e-05
3.01756e-05
3.01756e-05
7.95514e-05
0.000134873
0.000107428
0.00012739
1.38957e-05
3.19378e-05
5.87976e-05
0.000165292
)
;
    }
    ceiling
    {
        Cmu             0.09;
        kappa           0.41;
        E               9.8;
        type            epsilonWallFunction;
        value           nonuniform List<scalar> 
43
(
0.00117727
0.00269988
0.0266553
0.0149767
0.00684935
0.00347706
0.00265804
0.00226957
0.00203614
0.00188408
0.00178429
0.00172195
0.00168699
0.00167186
0.0016709
0.0016798
0.00169482
0.00171232
0.00172898
0.00174241
0.00175163
0.0017568
0.00175885
0.00175885
0.00175744
0.00175518
0.0017523
0.00175039
0.00174898
0.00174469
0.00173688
0.00172576
0.00171109
0.00169119
0.00166217
0.00161734
0.00154755
0.00144468
0.00132012
0.000904034
0.00861963
0.0125498
0.087014
)
;
    }
    sWall
    {
        Cmu             0.09;
        kappa           0.41;
        E               9.8;
        type            epsilonWallFunction;
        value           uniform 0.00117727;
    }
    nWall
    {
        Cmu             0.09;
        kappa           0.41;
        E               9.8;
        type            epsilonWallFunction;
        value           nonuniform List<scalar> 6(0.000113739 0.000209806 0.000343839 0.00137249 0.00251374 0.000904034);
    }
    sideWalls
    {
        type            empty;
    }
    glass1
    {
        Cmu             0.09;
        kappa           0.41;
        E               9.8;
        type            epsilonWallFunction;
        value           nonuniform List<scalar> 9(0.00010067 0.00054165 0.00149268 0.00309853 0.00531469 0.00798547 0.0104498 0.0101583 0.00861963);
    }
    glass2
    {
        Cmu             0.09;
        kappa           0.41;
        E               9.8;
        type            epsilonWallFunction;
        value           nonuniform List<scalar> 2(0.000529973 0.000819519);
    }
    sun
    {
        Cmu             0.09;
        kappa           0.41;
        E               9.8;
        type            epsilonWallFunction;
        value           nonuniform List<scalar> 
14
(
0.00010067
0.000110776
7.40108e-05
7.68627e-05
8.18754e-05
8.70686e-05
9.2619e-05
9.89478e-05
0.000105234
0.000111454
0.000117446
0.000122832
0.000127042
0.000129219
)
;
    }
    heatsource1
    {
        Cmu             0.09;
        kappa           0.41;
        E               9.8;
        type            epsilonWallFunction;
        value           nonuniform List<scalar> 3(9.2007e-05 9.98498e-05 0.000113739);
    }
    heatsource2
    {
        Cmu             0.09;
        kappa           0.41;
        E               9.8;
        type            epsilonWallFunction;
        value           nonuniform List<scalar> 4(0.000170518 4.10821e-05 4.10821e-05 0.000197421);
    }
    Table_master
    {
        Cmu             0.09;
        kappa           0.41;
        E               9.8;
        type            epsilonWallFunction;
        value           nonuniform List<scalar> 9(1.00583e-05 1.16117e-05 1.37539e-05 1.66614e-05 2.07713e-05 2.69574e-05 3.69127e-05 5.4353e-05 8.85038e-05);
    }
    Table_slave
    {
        Cmu             0.09;
        kappa           0.41;
        E               9.8;
        type            epsilonWallFunction;
        value           nonuniform List<scalar> 9(6.21834e-05 6.20361e-05 6.26011e-05 6.39421e-05 6.65109e-05 7.09094e-05 7.82215e-05 9.09131e-05 0.000115475);
    }
    inlet
    {
        type            turbulentMixingLengthDissipationRateInlet;
        mixingLength    0.01;
        phi             phi;
        k               k;
        value           uniform 3.77337e-06;
    }
    outlet
    {
        type            zeroGradient;
    }
}


// ************************************************************************* //
