/*--------------------------------*- C++ -*----------------------------------*\
  =========                 |
  \\      /  F ield         | OpenFOAM: The Open Source CFD Toolbox
   \\    /   O peration     | Website:  https://openfoam.org
    \\  /    A nd           | Version:  6
     \\/     M anipulation  |
\*---------------------------------------------------------------------------*/
FoamFile
{
    version     2.0;
    format      ascii;
    class       surfaceScalarField;
    location    "230";
    object      phi;
}
// * * * * * * * * * * * * * * * * * * * * * * * * * * * * * * * * * * * * * //

dimensions      [1 0 -1 0 0 0 0];

internalField   nonuniform List<scalar> 
852
(
-0.00261888
0.00265425
-0.00377607
0.00115715
-0.00452511
0.000748993
-0.00492601
0.000400863
-0.00493752
1.1465e-05
-0.00451026
-0.000427295
-0.00364722
-0.000863078
-0.00245551
-0.00119175
-0.00111875
-0.00133681
0.000142615
-0.00126142
0.00105328
-0.000910716
0.00159582
-0.000542598
0.00172345
-0.000127684
0.00132443
0.000398962
0.00132008
-0.000155453
0.000148722
-0.000591219
0.000435663
-0.000373577
-0.00021774
0.000185167
-0.000558838
0.000729494
-0.000544424
0.00116184
-0.000432442
0.00142209
-0.000260347
0.00154906
-0.000127074
0.00162395
-7.49905e-05
0.00167638
-5.25376e-05
0.0017123
-3.60224e-05
0.00173295
-2.07541e-05
0.00173372
-8.75583e-07
0.00169975
3.38582e-05
0.00159767
0.000101966
0.00137055
0.000227006
0.000959952
0.000410488
0.000180673
0.000779163
0.000171447
-0.00191936
0.00467125
-0.00294797
0.00218572
-0.00368458
0.00148557
-0.00409039
0.000806636
-0.00411726
3.82992e-05
-0.00372352
-0.000821075
-0.00293927
-0.00164736
-0.00191192
-0.00221913
-0.000830742
-0.00241804
0.000128567
-0.00222078
0.000901401
-0.00168361
0.00141897
-0.00106023
0.00170339
-0.000412167
0.00185346
0.000248833
0.00226481
0.000908664
0.00119472
0.00106998
0.00119461
-0.000186318
0.000320221
8.33124e-05
0.000165932
0.000537948
-0.000672467
0.000899751
-0.000920732
0.00121562
-0.000860386
0.00146362
-0.000680533
0.00152745
-0.000324277
0.00154273
-0.000142451
0.00155774
-9.00974e-05
0.00157031
-6.52158e-05
0.00157937
-4.51868e-05
0.00158584
-2.73258e-05
0.00158762
-2.75804e-06
0.00157818
4.31887e-05
0.00152431
0.000155729
0.00132093
0.000430274
0.000983603
0.000747701
0.000615822
0.00114683
0.000763992
-0.00137174
0.00619523
-0.00220589
0.00301983
-0.00285388
0.00213353
-0.00321336
0.00116607
-0.00322504
4.99488e-05
-0.00282236
-0.00122378
-0.00207583
-0.00239392
-0.00118031
-0.00311468
-0.000306711
-0.00329168
0.000427706
-0.00295525
0.00102677
-0.00228274
0.00146076
-0.00149427
0.00173878
-0.000690256
0.00189506
9.24911e-05
0.00194773
0.000855926
0.00148501
0.00153263
0.00267956
1.9581e-05
0.00027841
0.00106847
-0.000883049
0.00143158
-0.00103566
0.00158724
-0.00107648
0.0017177
-0.000990943
0.00190485
-0.000867775
0.00158063
0.00143823
0.00134819
0.00128302
0.00123789
0.00121061
0.00120789
0.00125113
0.0014069
0.00121776
0.000619292
0.00102688
0.000938471
0.000805948
0.00136764
0.00153494
-0.000963107
0.0073588
-0.00156765
0.00362434
-0.00200918
0.00257502
-0.0022491
0.00140596
-0.00215903
-4.01631e-05
-0.00168374
-0.00169909
-0.000978403
-0.00309927
-0.00024881
-0.00384429
0.000388482
-0.00392901
0.000905738
-0.00347256
0.00132167
-0.00269874
0.00162734
-0.00180001
0.00183677
-0.000899762
0.00198535
-5.61505e-05
0.0021283
0.0007129
0.00233688
0.00132399
0.00331287
0.00170351
0.00243686
0.00085368
0.00269876
1.64418e-05
0.00238415
-0.000568513
0.00225145
-0.000903044
0.00213624
-0.000961352
0.00202119
-0.000875991
0.00182341
-0.000670095
0.00210353
-0.000280371
0.00220008
-9.68079e-05
0.00221143
-1.161e-05
0.00216367
4.75022e-05
0.00206519
9.82086e-05
0.00192004
0.000144883
0.00172467
0.000195106
0.00146178
0.000262617
0.00108566
0.000375848
0.00104469
0.000660145
0.00101258
0.000970464
0.0010647
0.0013154
0.00255526
-0.000669487
0.00827103
-0.00106107
0.00401588
-0.00116154
0.00267545
-0.0011659
0.00141029
-0.000819734
-0.000386366
-0.000238396
-0.00228045
0.000348312
-0.00368599
0.000832456
-0.00432845
0.00119655
-0.00429313
0.00146709
-0.00374316
0.00165786
-0.00288958
0.00178299
-0.00192523
0.00187305
-0.000989906
0.00197521
-0.000158384
0.00215165
0.000536379
0.0024493
0.00102627
0.00291759
0.00123515
0.00306981
0.000701388
0.00297973
0.000106453
0.00274805
-0.000336911
0.00246226
-0.000617331
0.00220241
-0.000701594
0.00197075
-0.000644433
0.00178227
-0.000481722
0.00174063
-0.000238839
0.00168814
-4.44376e-05
0.00159749
7.89215e-05
0.00148519
0.000159682
0.00136121
0.000222067
0.00122704
0.00027893
0.00108239
0.000339628
0.000930522
0.000414361
0.000796984
0.00050926
0.000797307
0.000659696
0.000978405
0.000789244
0.00162065
0.000673033
0.00276124
0.00141455
0.00132203
0.00143888
-0.000196929
0.00151863
-0.000251571
-0.000549441
0.00909983
-0.000732082
0.00419848
-0.000327907
0.00227124
0.000169262
0.000913075
0.000839583
-0.00105672
0.00142474
-0.00286562
0.0017989
-0.00406015
0.00199677
-0.00452633
0.00205233
-0.00434873
0.00200779
-0.00369869
0.00190775
-0.00278962
0.00179268
-0.00181025
0.00170613
-0.000903449
0.00168994
-0.00014228
0.00178375
0.000442483
0.00199978
0.000810171
0.00233089
0.000903963
0.00246507
0.000567135
0.00241209
0.000159346
0.00224763
-0.000172533
0.00200668
-0.000376475
0.00174782
-0.000442833
0.00149873
-0.000395453
0.00128234
-0.000265452
0.00112639
-8.30143e-05
0.00100083
8.10044e-05
0.000886398
0.000193222
0.000778412
0.000267538
0.000675738
0.000324611
0.000578528
0.000376009
0.000490318
0.000427705
0.000421206
0.000483341
0.000390497
0.000539837
0.000452663
0.0005974
0.000619076
0.000622705
0.000788401
0.000503584
0.000951553
0.00125128
0.000471394
0.00191892
-0.000378504
0.0023684
-0.000683317
-0.000483228
0.00989625
-0.000206359
0.00392157
0.000929613
0.00113522
0.00194358
-0.000100946
0.00276546
-0.00187862
0.00322539
-0.00332556
0.00332912
-0.00416388
0.00315661
-0.00435383
0.0028032
-0.00399536
0.00235907
-0.00325464
0.00190857
-0.00233922
0.00151338
-0.00141517
0.00122774
-0.000617909
0.00108069
4.66294e-06
0.00109559
0.000427493
0.00125276
0.000652917
0.00148435
0.000672283
0.00159654
0.000454863
0.00157475
0.000181044
0.00144367
-4.15557e-05
0.00123913
-0.00017205
0.00100257
-0.000206387
0.000763214
-0.000156221
0.000543071
-4.54382e-05
0.000370074
8.98489e-05
0.000247108
0.000203835
0.000156044
0.000284149
8.16199e-05
0.000341825
1.9062e-05
0.000387031
-3.02755e-05
0.000425208
-6.0562e-05
0.000457854
-6.21375e-05
0.000484779
-2.43086e-05
0.000501872
6.59525e-05
0.000507006
0.000179365
0.000509162
0.00020095
0.000481873
0.000279384
0.00117272
4.81204e-05
0.00215005
-0.000158372
0.00257475
-0.000891514
0.00238887
0.00785886
0.00317648
0.00313392
0.00381757
0.000494094
0.0048191
-0.0011025
0.00531606
-0.00237558
0.00528264
-0.00329212
0.0048165
-0.00369773
0.00406187
-0.00359922
0.00316913
-0.00310268
0.00225745
-0.00234307
0.00144699
-0.00152888
0.000801426
-0.000769738
0.0003694
-0.000186004
0.000177981
0.000195972
0.000194771
0.000410603
0.000335698
0.000511893
0.000509647
0.000498237
0.00059902
0.000365387
0.000579872
0.000200081
0.000469787
6.84103e-05
0.000296015
1.59574e-06
8.61151e-05
3.38021e-06
-0.000125099
5.48541e-05
-0.00030073
0.000130051
-0.000419141
0.000208116
-0.000491794
0.000276344
-0.000537614
0.000329824
-0.000566346
0.000370411
-0.000579822
0.000400362
-0.000574613
0.000419854
-0.000544136
0.000427233
-0.000479752
0.000420253
-0.000374728
0.000396707
-0.000229396
0.000361536
-6.09221e-05
0.000340554
7.1816e-05
0.000349004
0.000415214
0.000829192
0.000792329
0.00177281
0.00173336
0.00163359
0.000532609
0.00820961
0.0113081
0.0102263
0.00157581
0.00945858
-0.000334766
0.00844209
-0.00135905
0.00712168
-0.00197167
0.00560444
-0.0021805
0.00404999
-0.00204482
0.00259517
-0.00164797
0.00129916
-0.00104719
0.000282663
-0.000512535
-0.000393951
-9.32715e-05
-0.000736281
0.000156196
-0.000827568
0.000287141
-0.000777507
0.000360429
-0.000659229
0.000393502
-0.000538454
0.000377345
-0.000483468
0.000310278
-0.000512898
0.000229379
-0.000611216
0.00016659
-0.000747347
0.000137582
-0.000887451
0.000143336
-0.00100603
0.000173282
-0.00109017
0.000214039
-0.00113827
0.000256065
-0.00115634
0.000294257
-0.00115241
0.00032575
-0.00113104
0.000348881
-0.00109254
0.000361717
-0.00103435
0.00036151
-0.000952217
0.00034495
-0.000841111
0.000309
-0.000697023
0.000252472
-0.00051663
0.000180999
-0.000289918
0.000113701
-2.88502e-05
8.7798e-05
0.000453915
0.000346295
0.0011601
0.00106649
0.00189147
0.000902083
0.00209278
0.00634353
0.00159542
0.00547577
0.000533036
0.00481282
-0.000696122
0.0038334
-0.000992333
0.00258318
-0.000930412
0.00128144
-0.000743234
6.67481e-05
-0.000433453
-0.000888451
-9.21718e-05
-0.00147993
7.87869e-05
-0.00176312
0.000189774
-0.00184685
0.000239785
-0.00182699
0.000267153
-0.00175436
0.000287666
-0.00166141
0.000300413
-0.00158087
0.000296672
-0.00154324
0.000272498
-0.0015533
0.000239292
-0.00159697
0.000210104
-0.00165285
0.000193302
-0.00170092
0.000191247
-0.00172868
0.000200891
-0.00173193
0.000217123
-0.00171178
0.000235754
-0.00167154
0.000253857
-0.00161483
0.000268879
-0.0015444
0.000278293
-0.00146219
0.000279355
-0.00136987
0.000269034
-0.0012693
0.000244225
-0.00116283
0.000202367
-0.00105288
0.000142377
-0.000938444
6.64098e-05
-0.0008102
-1.46917e-05
-0.000686909
-3.56372e-05
-0.000557126
0.00021637
-0.000306353
0.00081558
-8.96047e-05
0.000685191
0.00194454
0.000773267
0.000787003
0.00100086
0.000305281
0.000443725
-0.000139188
-0.000311792
-0.000237035
-0.00109214
-0.000150253
-0.00180717
-2.83752e-05
-0.00233635
9.55464e-05
-0.00261152
0.000182831
-0.00274506
0.000212168
-0.00277526
0.000219824
-0.00274707
0.000211449
-0.00268332
0.000203249
-0.00259704
0.000201236
-0.00250016
0.000203379
-0.00240746
0.000203821
-0.00233347
0.000198349
-0.002283
0.000188657
-0.00225155
0.000178487
-0.00222952
0.000171115
-0.00220657
0.00016813
-0.00217495
0.000169102
-0.00213059
0.000172598
-0.00207219
0.000177183
-0.00200001
0.000181517
-0.00191541
0.000184112
-0.00182066
0.000183379
-0.00171921
0.000177741
-0.00161619
0.00016585
-0.00151917
0.00014705
-0.00143906
0.000122097
-0.00139012
9.32767e-05
-0.00138643
6.25685e-05
-0.00143561
3.43373e-05
-0.00150517
3.37639e-05
-0.00142997
0.000141023
-0.00102424
0.000409702
-0.000892189
0.000552992
0.000977399
-0.00408483
-0.00439137
-0.00366114
-0.00341153
-0.00360763
-0.00390234
-0.00411195
-0.00420222
-0.00417122
-0.00405576
-0.0039133
-0.00376477
-0.00362558
-0.00349512
-0.00336692
-0.00323671
-0.00310614
-0.00298119
-0.00286616
-0.00276161
-0.00266478
-0.00257126
-0.00247707
-0.00237959
-0.00227766
-0.00217142
-0.00206252
-0.00195417
-0.00185116
-0.00175963
-0.00168641
-0.00163764
-0.00161728
-0.00162755
-0.00166635
-0.00170582
-0.00163664
-0.00129565
-0.000809059
)
;

boundaryField
{
    floor
    {
        type            calculated;
        value           nonuniform List<scalar> 
29
(
0
0
0
0
0
0
0
0
0
0
0
0
0
0
0
0
0
0
0
0
9.10099e-06
2.31559e-05
3.48829e-05
4.42507e-05
4.29524e-06
6.6172e-06
1.47095e-05
2.21253e-05
2.22576e-05
)
;
    }
    ceiling
    {
        type            calculated;
        value           nonuniform List<scalar> 
43
(
6.70229e-05
6.14133e-05
5.65284e-05
5.54454e-05
5.67235e-05
5.7486e-05
5.91868e-05
6.17182e-05
6.43822e-05
6.71982e-05
6.95517e-05
7.11289e-05
7.20904e-05
7.26211e-05
7.28785e-05
7.29944e-05
7.30821e-05
7.32257e-05
7.34578e-05
7.37654e-05
7.41094e-05
7.44446e-05
7.47334e-05
7.49502e-05
7.50797e-05
7.51127e-05
7.50419e-05
7.48604e-05
7.4564e-05
7.41579e-05
7.36672e-05
7.31571e-05
7.27604e-05
7.26762e-05
7.29762e-05
7.30772e-05
7.16867e-05
6.8553e-05
6.62433e-05
7.19573e-05
4.22073e-05
3.54383e-05
3.50967e-05
)
;
    }
    sWall
    {
        type            calculated;
        value           uniform -0.000155697;
    }
    nWall
    {
        type            calculated;
        value           nonuniform List<scalar> 6(5.42743e-05 5.30868e-05 4.96736e-05 5.84825e-05 7.48038e-05 9.6225e-05);
    }
    sideWalls
    {
        type            empty;
        value           nonuniform 0();
    }
    glass1
    {
        type            calculated;
        value           nonuniform List<scalar> 9(-3.5409e-05 -9.76887e-05 -0.000152272 -0.000200493 -0.000242781 -0.000279389 -0.000313228 -0.000351511 -0.000392981);
    }
    glass2
    {
        type            calculated;
        value           nonuniform List<scalar> 2(0.000309088 0.000331143);
    }
    sun
    {
        type            calculated;
        value           uniform 0;
    }
    heatsource1
    {
        type            calculated;
        value           nonuniform List<scalar> 3(2.01888e-07 2.02238e-07 2.02303e-07);
    }
    heatsource2
    {
        type            calculated;
        value           nonuniform List<scalar> 4(5.07094e-08 5.08605e-08 0 0);
    }
    Table_master
    {
        type            calculated;
        value           nonuniform List<scalar> 9(-1.51903e-07 -1.52059e-07 -1.52102e-07 -1.52122e-07 -1.5213e-07 -1.52129e-07 -1.5212e-07 -1.52088e-07 -1.5202e-07);
    }
    Table_slave
    {
        type            calculated;
        value           nonuniform List<scalar> 9(1.51666e-07 1.51681e-07 1.51661e-07 1.51644e-07 1.51644e-07 1.51661e-07 1.51694e-07 1.51744e-07 1.51818e-07);
    }
    inlet
    {
        type            calculated;
        value           uniform -0.00636309;
    }
    outlet
    {
        type            calculated;
        value           nonuniform List<scalar> 2(0.00417326 0.000244868);
    }
}


// ************************************************************************* //
