/*--------------------------------*- C++ -*----------------------------------*\
  =========                 |
  \\      /  F ield         | OpenFOAM: The Open Source CFD Toolbox
   \\    /   O peration     | Website:  https://openfoam.org
    \\  /    A nd           | Version:  6
     \\/     M anipulation  |
\*---------------------------------------------------------------------------*/
FoamFile
{
    version     2.0;
    format      ascii;
    class       volScalarField;
    location    "700";
    object      alphat;
}
// * * * * * * * * * * * * * * * * * * * * * * * * * * * * * * * * * * * * * //

dimensions      [1 -1 -1 0 0 0 0];

internalField   nonuniform List<scalar> 
459
(
0.000642833
0.000688935
0.000706366
0.000645828
0.000568456
0.000543647
0.000536466
0.00053144
0.000524435
0.000515116
0.000504366
0.000493592
0.000486453
0.000510786
0.000574103
0.00060123
0.000613582
0.000418841
0.000325121
0.000271116
0.000245829
0.000245797
0.000260665
0.000279591
0.000283774
0.000293914
0.000313683
0.00034634
0.000377754
0.000377421
0.000415145
0.000492861
0.00067192
0.000615602
0.000877698
0.00131892
0.00169527
0.00208695
0.00251537
0.00273211
0.00284116
0.002828
0.00270109
0.00249329
0.00224283
0.00199451
0.00179001
0.0016197
0.00173314
0.000659568
0.000518027
0.000882669
0.00243214
0.00173641
0.00148463
0.00114767
0.00058575
0.000358737
0.000351675
0.000369444
0.000432248
0.000542968
0.000698229
0.000873257
0.00102877
0.00123059
0.00180568
0.00208906
0.00278589
0.000959901
0.00145973
0.0016856
0.00226912
0.00276229
0.00326833
0.00358119
0.00386111
0.00389981
0.00370683
0.00336729
0.00295368
0.00252901
0.00214765
0.00184412
0.0016281
0.00131429
0.000941165
0.0011571
0.00331066
0.00275526
0.00241434
0.00183849
0.00109387
0.000491824
0.000387853
0.000408085
0.000475891
0.000543815
0.000620335
0.00071366
0.000834654
0.0010058
0.00288616
0.00330596
0.00439127
0.00130763
0.00214009
0.0027041
0.00254613
0.00260515
0.00314065
0.00365862
0.00430689
0.0045737
0.00449596
0.00424009
0.00391678
0.00359166
0.00326737
0.00294791
0.00263223
0.00230077
0.00181942
0.00123575
0.00313696
0.00398294
0.0033773
0.00253002
0.00178958
0.00123989
0.000896408
0.00091916
0.000947496
0.0009795
0.00101566
0.00106007
0.00111872
0.00120279
0.00133789
0.00370017
0.00398559
0.00473411
0.00156781
0.00290668
0.0044548
0.00324362
0.00274996
0.00299348
0.0034975
0.00455272
0.00516979
0.00534044
0.00535759
0.00533589
0.00532775
0.00538644
0.0055264
0.0057238
0.00587973
0.00595389
0.00592969
0.00605513
0.00600888
0.00567825
0.00534835
0.00510627
0.00497584
0.00494981
0.00503621
0.00506885
0.0050485
0.00500789
0.00495102
0.00487854
0.00479173
0.00469294
0.00458271
0.00413171
0.00356406
0.00291483
0.00206666
0.00231741
0.0024677
0.00371993
0.00642415
0.00457057
0.00353541
0.00312635
0.00365141
0.00474779
0.00559278
0.00587333
0.00604139
0.00623212
0.00647495
0.00677381
0.00711567
0.00746657
0.0077636
0.00792901
0.00797906
0.0079355
0.00784954
0.00773536
0.00762396
0.00754142
0.00749353
0.0074692
0.00744251
0.00738905
0.00731794
0.00723222
0.00713015
0.00700594
0.00684954
0.00664989
0.00640719
0.00616299
0.00605961
0.00623464
0.00683994
0.00762055
0.00316425
0.00456082
0.00674663
0.0053853
0.00415921
0.00348034
0.0036042
0.0048567
0.00565541
0.00594355
0.0062325
0.00659602
0.00701677
0.00747111
0.00793825
0.00839461
0.00880972
0.00913683
0.0093434
0.00944718
0.00947899
0.00946
0.00940396
0.00932543
0.00923403
0.00913346
0.00902448
0.00890697
0.00878288
0.00865505
0.00852804
0.00840799
0.00830219
0.00821797
0.00815971
0.00812765
0.00813723
0.0082837
0.00912722
0.0112101
0.00381942
0.00551889
0.00737477
0.00735284
0.00480984
0.00390793
0.0045124
0.00511845
0.00546159
0.00584651
0.00634612
0.00689583
0.00747575
0.00806088
0.00863957
0.00919471
0.00971295
0.0101545
0.0104957
0.0107235
0.0108478
0.0108861
0.0108549
0.0107717
0.0106523
0.0105091
0.0103505
0.0101805
0.0100006
0.00981273
0.00962034
0.00943012
0.00925332
0.00910818
0.00902205
0.00903104
0.00915592
0.00927241
0.00957919
0.0127753
0.00454771
0.00688383
0.00914326
0.0167171
0.00599889
0.00414178
0.00490079
0.00509636
0.00565695
0.00636778
0.00706653
0.00770089
0.00832596
0.00893328
0.00953435
0.0100859
0.0105964
0.0110485
0.0114219
0.0116984
0.0118741
0.0119568
0.0119593
0.0118979
0.0117887
0.0116458
0.0114794
0.0112955
0.0110964
0.0108827
0.0106548
0.0104141
0.0101645
0.00991534
0.00968748
0.00952671
0.00951881
0.00972429
0.0101475
0.0126221
0.00455196
0.0261749
0.014855
0.00550844
0.00640544
0.0070591
0.00769093
0.0081973
0.00865944
0.00911484
0.0096188
0.0101663
0.0107307
0.0112755
0.0117691
0.0121885
0.0125219
0.0127647
0.0129196
0.0129954
0.0130037
0.0129572
0.012868
0.0127464
0.0126004
0.0124353
0.0122534
0.0120549
0.0118385
0.0116028
0.0113468
0.0110723
0.0107881
0.0105202
0.0103291
0.0103202
0.0105968
0.010592
0.00328978
0.0106566
0.0151616
0.0116316
0.0101313
0.00922041
0.00873418
0.00856365
0.0086338
0.00891495
0.00938991
0.0100214
0.0107414
0.011465
0.0121151
0.0126428
0.013031
0.0132874
0.0134335
0.0134955
0.0134977
0.0134603
0.0133976
0.0133193
0.0132307
0.0131338
0.0130282
0.0129121
0.0127828
0.0126375
0.0124742
0.012292
0.0120934
0.0118853
0.0116817
0.0114942
0.0113655
0.00994891
0.0028512
0.00255181
0.00317969
0.0058532
0.00565293
0.00526172
0.00486868
0.00450436
0.00417594
0.00388638
0.00363716
0.00342942
0.0032646
0.00314383
0.00306619
0.00302683
0.00301676
0.00302479
0.00304038
0.00305568
0.00306614
0.00306999
0.00306737
0.0030594
0.00304756
0.00303329
0.00301774
0.0030017
0.00298562
0.00296963
0.00295367
0.00293757
0.00292114
0.00290437
0.00288756
0.00287159
0.00285852
0.00285494
0.00288879
0.00279666
0.00254205
)
;

boundaryField
{
    floor
    {
        type            compressible::alphatWallFunction;
        Prt             0.85;
        value           nonuniform List<scalar> 
29
(
8.08604e-05
8.48483e-05
8.6691e-05
5.69315e-05
4.20028e-05
3.31439e-05
2.89137e-05
2.89147e-05
3.1415e-05
3.45594e-05
3.5249e-05
3.69146e-05
4.01418e-05
4.54189e-05
5.04342e-05
5.03779e-05
5.6332e-05
6.83901e-05
9.53333e-05
8.6985e-05
8.69839e-05
0.000136981
0.000185362
0.000220656
8.08595e-05
8.48473e-05
0.000125993
0.000164655
0.000175607
)
;
    }
    ceiling
    {
        type            compressible::alphatWallFunction;
        Prt             0.85;
        value           nonuniform List<scalar> 
43
(
0.00034929
0.000428057
0.0007487
0.00072527
0.00067929
0.000632757
0.000589293
0.000549809
0.000514738
0.000484339
0.000458838
0.000438492
0.000423518
0.00041386
0.000408953
0.000407693
0.000408689
0.000410624
0.000412519
0.000413809
0.000414276
0.000413937
0.000412931
0.000411444
0.000409654
0.000407704
0.000405692
0.000403674
0.000401666
0.000399662
0.000397638
0.000395573
0.000393464
0.000391349
0.000389336
0.000387686
0.000387226
0.000391455
0.000379873
0.000347674
0.000867814
0.00112365
0.00129184
)
;
    }
    sWall
    {
        type            compressible::alphatWallFunction;
        Prt             0.85;
        value           uniform 0.000348749;
    }
    nWall
    {
        type            compressible::alphatWallFunction;
        Prt             0.85;
        value           nonuniform List<scalar> 6(0.000338177 0.000425733 0.000506257 0.000441311 0.00038669 0.000347663);
    }
    sideWalls
    {
        type            empty;
    }
    glass1
    {
        type            compressible::alphatWallFunction;
        Prt             0.85;
        value           nonuniform List<scalar> 9(8.98738e-05 0.000124114 0.000205879 0.000296444 0.000394744 0.000495934 0.000597995 0.000711778 0.000870483);
    }
    glass2
    {
        type            compressible::alphatWallFunction;
        Prt             0.85;
        value           nonuniform List<scalar> 2(0.00059939 0.00059997);
    }
    sun
    {
        type            compressible::alphatWallFunction;
        Prt             0.85;
        value           nonuniform List<scalar> 
14
(
9.11918e-05
9.80134e-05
0.000100582
9.16282e-05
8.00465e-05
7.62947e-05
7.52047e-05
7.44389e-05
7.33695e-05
7.19443e-05
7.02967e-05
6.86409e-05
6.75387e-05
7.12688e-05
)
;
    }
    heatsource1
    {
        type            compressible::alphatWallFunction;
        Prt             0.85;
        value           nonuniform List<scalar> 3(0.000285875 0.000318234 0.00033745);
    }
    heatsource2
    {
        type            compressible::alphatWallFunction;
        Prt             0.85;
        value           nonuniform List<scalar> 4(9.33433e-05 7.20931e-05 7.20923e-05 0.000134107);
    }
    Table_master
    {
        type            compressible::alphatWallFunction;
        Prt             0.85;
        value           nonuniform List<scalar> 9(6.81029e-05 5.19064e-05 5.50813e-05 6.56346e-05 7.60143e-05 8.75142e-05 0.000101307 0.00011887 0.000143212);
    }
    Table_slave
    {
        type            compressible::alphatWallFunction;
        Prt             0.85;
        value           nonuniform List<scalar> 9(0.000127723 0.000130963 0.000134985 0.000139511 0.000144604 0.000150831 0.000159008 0.000170646 0.000189156);
    }
    inlet
    {
        type            fixedValue;
        value           uniform 1.94e-05;
    }
    outlet
    {
        type            zeroGradient;
    }
}


// ************************************************************************* //
