/*--------------------------------*- C++ -*----------------------------------*\
  =========                 |
  \\      /  F ield         | OpenFOAM: The Open Source CFD Toolbox
   \\    /   O peration     | Website:  https://openfoam.org
    \\  /    A nd           | Version:  6
     \\/     M anipulation  |
\*---------------------------------------------------------------------------*/
FoamFile
{
    version     2.0;
    format      ascii;
    class       surfaceScalarField;
    location    "700";
    object      phi;
}
// * * * * * * * * * * * * * * * * * * * * * * * * * * * * * * * * * * * * * //

dimensions      [1 0 -1 0 0 0 0];

internalField   nonuniform List<scalar> 
852
(
-0.00139535
0.00141904
-0.00185927
0.000464308
-0.00163971
-0.000219187
-0.00109314
-0.000546214
-0.000844216
-0.000248577
-0.000717463
-0.000126432
-0.00061598
-0.000101171
-0.00050877
-0.000106894
-0.000389397
-0.00011905
-0.000261625
-0.000127444
-0.000132916
-0.000128379
-1.36071e-05
-0.000118981
8.49063e-05
-9.81965e-05
0.000181429
-9.62161e-05
0.000174966
9.36752e-05
-9.79149e-05
-0.000200324
0.000294199
-0.000358212
0.000158096
-0.000442746
8.47624e-05
-0.000467318
2.48518e-05
-0.000411075
-5.58789e-05
-0.000306557
-0.000104154
-0.000130992
-0.000175229
0.000171709
-0.000302269
0.000330949
-0.000158852
0.000431901
-0.000100584
0.0005214
-8.91357e-05
0.000631593
-0.000109824
0.00075282
-0.000120854
0.000742874
1.03023e-05
0.000579411
0.000163814
0.000333164
0.000246593
-9.0471e-05
0.000423989
-9.44314e-05
0.00185018
-0.000381913
0.000965209
0.00135005
-6.51266e-05
0.000811758
-0.000641726
3.0795e-05
-0.000761985
-0.000127915
-0.000725549
-0.00016248
-0.000643019
-0.000183322
-0.000551026
-0.000198508
-0.000464192
-0.000205503
-0.000390469
-0.000200784
-0.000334704
-0.00018376
-0.000293496
-0.000159808
-0.000247537
-0.000143775
-0.000161005
-0.00018236
0.000177136
-0.000162827
0.000224259
-4.68361e-05
0.000224613
-0.000118264
8.78043e-06
7.70651e-05
9.91125e-05
6.4166e-05
0.000171244
-3.76518e-06
0.000152974
-0.00013536
0.000156762
-0.000407447
0.000216522
-0.000454143
-5.70559e-05
-0.000193232
-0.000435732
3.78655e-05
-0.000532871
0.000129538
-0.000250063
0.000169952
-0.000140556
0.000167126
-8.58695e-05
0.000101562
-4.38183e-05
-2.86784e-05
9.80044e-06
-0.000144074
0.000126145
-0.000206456
0.000226674
-0.000188214
0.000228832
-6.05002e-06
0.000242309
-0.000111868
0.000191362
-0.000585202
-0.000311969
0.00185379
-0.000644514
0.00114485
-0.000935897
0.000322671
-0.000977176
-8.61547e-05
-0.000894325
-0.000244867
-0.000792719
-0.00028448
-0.000720822
-0.000269964
-0.000692408
-0.000233476
-0.000712748
-0.00018
-0.00078511
-0.000110952
-0.000905381
-3.90898e-05
-0.00105101
2.31e-06
-0.00122141
-1.14859e-05
-0.00131536
-6.83922e-05
-0.00109652
-0.000265191
-0.000871439
-0.000544477
0.000532342
-0.00045051
5.51337e-06
-0.000283948
5.05102e-06
-0.000133521
2.91834e-06
3.2414e-05
-8.81764e-06
0.000312343
-6.30256e-05
0.000255763
-0.000179469
-0.000711661
-0.000961052
-0.00110094
-0.00118612
-0.00122921
-0.00121862
-0.00109166
-0.000554729
-0.000309526
-0.000145418
-0.000179747
9.43604e-05
3.2251e-06
-3.72636e-05
0.000351496
-0.000993762
0.000241502
0.00196411
-0.000494833
0.0018817
-0.00112269
0.000951096
-0.00121785
9.5397e-06
-0.00110098
-0.000361192
-0.00100492
-0.000380017
-0.000985617
-0.000288756
-0.00103994
-0.000178632
-0.00115728
-6.21163e-05
-0.00131877
5.11233e-05
-0.00149679
0.000139532
-0.00167392
0.000180051
-0.00184214
0.000157344
-0.00196599
5.60673e-05
-0.002067
-0.00016358
-0.00243014
-0.000507703
-0.00226783
-0.000193177
-0.00175757
2.26857e-05
-0.00172162
-2.97772e-05
-0.0017525
3.66376e-05
-0.00183118
8.23461e-05
-0.00194511
0.000105882
-0.00210581
9.84552e-05
-0.00218245
7.72676e-05
-0.00220391
2.20956e-05
-0.00218336
-1.99078e-05
-0.00212835
-5.43712e-05
-0.0020402
-8.75067e-05
-0.0019156
-0.000123956
-0.00174689
-0.000168057
-0.00151898
-0.000227249
-0.00119387
-0.000324433
-0.00100024
-0.000502312
-0.00056396
-0.000615159
0.000200644
-0.000760486
0.000130321
0.000841564
-0.00193507
0.00157959
0.00122648
0.00104869
0.00241315
-0.000226287
0.00222673
-0.00114753
0.000931456
-0.00117104
-0.000337055
-0.00117457
-0.000375897
-0.00125318
-0.000209554
-0.00138382
-4.73926e-05
-0.00152869
8.33977e-05
-0.00165956
0.000182631
-0.00176757
0.000248201
-0.00186098
0.000274149
-0.00195046
0.000247516
-0.00204593
0.000152251
-0.00218779
-2.10052e-05
-0.00250562
-0.000189147
-0.00253312
-0.000164945
-0.00244839
-6.13133e-05
-0.00244384
-3.35609e-05
-0.00242536
1.89247e-05
-0.00239953
5.731e-05
-0.00236819
7.53367e-05
-0.00233543
6.64965e-05
-0.00228981
3.2458e-05
-0.00224805
-1.88499e-05
-0.0021985
-6.86391e-05
-0.00213769
-0.000114367
-0.00206553
-0.000158843
-0.00198296
-0.000205693
-0.00189193
-0.00025826
-0.0017971
-0.000321231
-0.00172065
-0.000400027
-0.00174629
-0.000475796
-0.00186423
-0.000496307
-0.00224883
-0.000374951
-0.00202846
-8.91008e-05
-0.00200639
-2.13934e-05
-0.00188935
-0.000116357
-0.00193434
0.00123225
-0.00330088
0.00267643
-0.000216975
0.00264532
0.00244495
0.00134427
0.00352852
-0.000257112
0.00253357
-0.000963309
0.000369799
-0.00124081
-9.77506e-05
-0.00147195
2.22632e-05
-0.00166297
0.000144314
-0.00180309
0.000224207
-0.00189463
0.000274883
-0.00194966
0.000303956
-0.00198362
0.000308857
-0.00201482
0.000279479
-0.00206471
0.000202926
-0.00216641
8.14955e-05
-0.00232336
-3.14013e-05
-0.0024159
-7.15982e-05
-0.00242067
-5.57337e-05
-0.00240978
-4.36416e-05
-0.00236895
-2.10895e-05
-0.00230706
-3.7569e-06
-0.00223231
1.40771e-06
-0.00215403
-1.0948e-05
-0.00208
-4.07336e-05
-0.00201547
-8.25351e-05
-0.00195568
-0.000127582
-0.00189647
-0.000172733
-0.00183627
-0.000218195
-0.00177593
-0.000265182
-0.00171858
-0.00031476
-0.00167136
-0.000367593
-0.00164996
-0.000420558
-0.00167088
-0.00045401
-0.00173771
-0.000428592
-0.00180056
-0.000311217
-0.00168102
-0.000207765
-0.00138651
-0.000315033
-0.00100387
-0.000498118
-0.00298368
0.0012869
-0.00474395
0.00341622
-0.00234512
0.00354919
0.00231297
0.00199198
0.00508662
0.000479949
0.00404642
-0.000587756
0.00143821
-0.00123821
0.000553437
-0.00160846
0.000393235
-0.0018113
0.000347881
-0.00190851
0.000322163
-0.00193334
0.000300469
-0.00190889
0.000280283
-0.00185732
0.000258096
-0.00180158
0.000224556
-0.00176674
0.000168932
-0.00177525
9.08553e-05
-0.00181847
1.26886e-05
-0.00185176
-3.74452e-05
-0.00184918
-5.74361e-05
-0.00182665
-6.53016e-05
-0.00178267
-6.42045e-05
-0.00172269
-6.28605e-05
-0.00165333
-6.70798e-05
-0.00158235
-8.1054e-05
-0.00151636
-0.000105852
-0.00145856
-0.000139453
-0.00140742
-0.000177854
-0.00136024
-0.000219028
-0.00131492
-0.000262643
-0.00127005
-0.000309178
-0.00122465
-0.000359277
-0.00117805
-0.000413317
-0.00112842
-0.000469309
-0.00106424
-0.00051731
-0.000955054
-0.000536897
-0.000748076
-0.000517309
-0.00045628
-0.000498675
-0.00020658
-0.00056385
7.68813e-05
-0.000780696
-0.00295357
2.33082e-05
-0.0049351
0.00226676
-0.00458726
0.00248694
0.00209399
0.000472819
0.00710174
-0.000392581
0.0049126
-0.00103893
0.00208534
-0.0014861
0.00100138
-0.00169923
0.000607133
-0.00175604
0.000405465
-0.0017119
0.000278817
-0.00160624
0.000195618
-0.00146301
0.000137885
-0.00130328
9.92097e-05
-0.0011473
6.94489e-05
-0.00101599
3.85151e-05
-0.000925217
9.88821e-07
-0.000875168
-3.64383e-05
-0.000847495
-6.4186e-05
-0.000822598
-8.13986e-05
-0.000794867
-9.21004e-05
-0.000759939
-9.82022e-05
-0.000718142
-0.000103731
-0.000672269
-0.000112029
-0.000626673
-0.000125728
-0.000585565
-0.000146041
-0.000551444
-0.000172656
-0.000524131
-0.000204251
-0.000502169
-0.000240076
-0.000483663
-0.000280237
-0.000466384
-0.000325549
-0.000447313
-0.00037744
-0.000421732
-0.000437993
-0.000380492
-0.000509644
-0.000302356
-0.000594541
-0.000140754
-0.000697594
0.000181676
-0.000838833
0.000741732
-0.00105783
0.00151647
-0.00133769
0.00210009
-0.00136341
-0.00121878
-0.00515773
-0.00978385
-0.00506802
-0.00262049
-0.00313211
0.0051668
-0.00219111
0.00397242
-0.00188303
0.00177809
-0.00164914
0.000768286
-0.00140433
0.000363123
-0.00112861
0.000130548
-0.000833523
-1.5457e-05
-0.000541031
-9.60362e-05
-0.000271226
-0.000131053
-2.90888e-05
-0.000142033
0.00017867
-0.000137386
0.0003432
-0.000125063
0.000459535
-0.000114372
0.000532229
-0.000108143
0.000574682
-0.000105642
0.000599638
-0.000105355
0.000615471
-0.000106936
0.000628166
-0.000109904
0.000640293
-0.000114871
0.000651962
-0.000122716
0.000661576
-0.000134365
0.00066695
-0.000150443
0.000666373
-0.000171111
0.000659312
-0.000196228
0.000646112
-0.000225918
0.000627687
-0.000260857
0.000605495
-0.000302407
0.000581809
-0.000352808
0.000560337
-0.000415578
0.000547822
-0.00049619
0.000557578
-0.00060336
0.000613459
-0.00075254
0.00074891
-0.000973351
0.00101201
-0.00131999
0.00152786
-0.00185263
0.00238518
-0.00221983
0.000747135
-0.0090139
0.00354123
-0.00611288
0.00226688
-0.0031382
0.000998642
-0.00130821
-5.10549e-05
-0.000220068
-0.000319046
0.000481987
-0.000338131
0.0009795
-0.000366129
0.00133865
-0.000373721
0.00160623
-0.000362711
0.00181298
-0.000336862
0.00197335
-0.000301437
0.00209627
-0.000259315
0.00218704
-0.000214821
0.00224732
-0.000173613
0.00227993
-0.000139711
0.0022901
-0.000114747
0.00228415
-9.83528e-05
0.00226767
-8.9392e-05
0.00224509
-8.62637e-05
0.00221902
-8.77507e-05
0.00219039
-9.30439e-05
0.00215879
-0.000101732
0.00212305
-0.000113671
0.00208183
-0.000128869
0.00203412
-0.000147499
0.00197928
-0.000170068
0.00191698
-0.000197548
0.00184705
-0.000231481
0.00176938
-0.000274147
0.00168366
-0.000328866
0.00158889
-0.000400446
0.00148236
-0.000495849
0.00135618
-0.000625391
0.00118828
-0.000804492
0.000920895
-0.00105166
0.000443043
-0.00137384
-0.000507247
-0.00126864
0.000161557
-0.000153447
0.00364565
0.00277393
-0.000659338
0.00382969
-5.60613e-05
0.00408339
-0.000303744
0.00428792
-0.000522581
0.00449202
-0.000541264
0.00461055
-0.000483695
0.00465836
-0.000420559
0.00465546
-0.00035882
0.00461467
-0.000295069
0.00454508
-0.000230811
0.00445721
-0.000170398
0.00436178
-0.000118314
0.00426682
-7.75596e-05
0.00417707
-4.88602e-05
0.00409435
-3.0909e-05
0.00401844
-2.13253e-05
0.00394777
-1.76028e-05
0.00388024
-1.76186e-05
0.0038135
-1.99028e-05
0.00374519
-2.36226e-05
0.00367301
-2.84581e-05
0.00359489
-3.44557e-05
0.00350901
-4.19067e-05
0.00341386
-5.128e-05
0.00330808
-6.32154e-05
0.00319012
-7.85386e-05
0.00305798
-9.82884e-05
0.00290864
-0.000123765
0.00273741
-0.0001566
0.00253685
-0.000198858
0.00229523
-0.000253212
0.00199384
-0.000322998
0.0016026
-0.000412259
0.00108953
-0.000537613
0.000509707
-0.000793057
-0.000142012
-0.000615996
-7.64531e-05
-0.00022095
0.00949363
0.0130507
0.0123011
0.0121498
0.011745
0.0111152
0.0104602
0.00985619
0.00930908
0.00881802
0.00838598
0.00801475
0.00770205
0.00744108
0.00722175
0.00703279
0.00686376
0.0067063
0.00655438
0.00640399
0.00625263
0.00609867
0.00594083
0.00577786
0.00560824
0.00543002
0.00524063
0.00503666
0.00481368
0.00456593
0.00428605
0.00396458
0.00358943
0.00314522
0.00261265
0.00195613
0.00104721
0.000315018
)
;

boundaryField
{
    floor
    {
        type            calculated;
        value           nonuniform List<scalar> 
29
(
0
0
0
0
0
0
0
0
0
0
0
0
0
0
0
0
0
0
0
0
4.33166e-06
1.19108e-05
2.04765e-05
3.38779e-05
6.76471e-06
4.44507e-06
1.18136e-05
2.12881e-05
3.14572e-05
)
;
    }
    ceiling
    {
        type            calculated;
        value           nonuniform List<scalar> 
43
(
0.000180236
0.000151233
8.96627e-05
9.13872e-05
9.6349e-05
0.000102082
0.000108324
0.000114844
0.000121371
0.000127631
0.000133315
0.000138063
0.00014151
0.000143412
0.000143782
0.000142913
0.000141265
0.000139287
0.000137307
0.000135507
0.000133953
0.000132639
0.000131525
0.000130557
0.000129685
0.000128871
0.000128087
0.000127318
0.000126559
0.000125814
0.000125088
0.000124383
0.000123697
0.000123009
0.000122266
0.000121351
0.000119934
0.000116848
0.000117154
0.000123171
5.19763e-05
4.02018e-05
5.08013e-05
)
;
    }
    sWall
    {
        type            calculated;
        value           uniform 8.99102e-05;
    }
    nWall
    {
        type            calculated;
        value           nonuniform List<scalar> 6(4.56702e-05 4.63635e-05 4.76714e-05 7.9219e-05 9.68619e-05 0.000116292);
    }
    sideWalls
    {
        type            empty;
        value           nonuniform 0();
    }
    glass1
    {
        type            calculated;
        value           nonuniform List<scalar> 9(-2.32664e-05 -4.82427e-05 1.25191e-05 5.77352e-05 0.000100695 0.00013477 0.00015752 0.0001692 0.000172007);
    }
    glass2
    {
        type            calculated;
        value           nonuniform List<scalar> 2(0.00036623 0.000420189);
    }
    sun
    {
        type            calculated;
        value           uniform 0;
    }
    heatsource1
    {
        type            calculated;
        value           nonuniform List<scalar> 3(1.88604e-07 1.88423e-07 1.88488e-07);
    }
    heatsource2
    {
        type            calculated;
        value           nonuniform List<scalar> 4(4.866e-08 4.87265e-08 0 0);
    }
    Table_master
    {
        type            calculated;
        value           nonuniform List<scalar> 9(-1.47092e-07 -1.47487e-07 -1.47449e-07 -1.47144e-07 -1.46905e-07 -1.4669e-07 -1.46476e-07 -1.46246e-07 -1.45934e-07);
    }
    Table_slave
    {
        type            calculated;
        value           nonuniform List<scalar> 9(1.43096e-07 1.43043e-07 1.43001e-07 1.42972e-07 1.42963e-07 1.42973e-07 1.43008e-07 1.43077e-07 1.43168e-07);
    }
    inlet
    {
        type            calculated;
        value           uniform 0.00285421;
    }
    outlet
    {
        type            calculated;
        value           nonuniform List<scalar> 2(-4.8572e-05 -0.00986501);
    }
}


// ************************************************************************* //
