/*--------------------------------*- C++ -*----------------------------------*\
  =========                 |
  \\      /  F ield         | OpenFOAM: The Open Source CFD Toolbox
   \\    /   O peration     | Website:  https://openfoam.org
    \\  /    A nd           | Version:  6
     \\/     M anipulation  |
\*---------------------------------------------------------------------------*/
FoamFile
{
    version     2.0;
    format      ascii;
    class       surfaceScalarField;
    location    "1700";
    object      phi;
}
// * * * * * * * * * * * * * * * * * * * * * * * * * * * * * * * * * * * * * //

dimensions      [1 0 -1 0 0 0 0];

internalField   nonuniform List<scalar> 
852
(
0.000736956
-0.000776525
-0.00124343
0.00198154
-0.0015887
0.000346353
-0.00131438
-0.000273251
-0.000969734
-0.000343577
-0.000658295
-0.000310394
-0.00040826
-0.000249017
-0.000210066
-0.000197203
-4.74096e-05
-0.000161692
9.42294e-05
-0.000140707
0.000210734
-0.000115591
0.000300149
-8.85234e-05
0.000354738
-5.37212e-05
0.000390928
-3.53481e-05
0.00037644
0.000287567
-0.000298523
0.000169714
0.000118802
0.000167498
3.16668e-06
0.000256982
-8.85529e-05
0.000370343
-0.000112437
0.000513872
-0.000142607
0.000645725
-0.000130923
0.000774391
-0.000127732
0.000887291
-0.000111958
0.000988783
-0.000100544
0.00108309
-9.33487e-05
0.00115701
-7.29751e-05
0.00116406
-6.10135e-06
0.00110312
6.19021e-05
0.000994286
0.000109817
0.000802607
0.000192697
0.000473727
0.000329927
-0.000126957
0.000601752
-0.000138368
9.66863e-05
-0.000988994
-0.000262135
0.00234154
-0.000936918
0.00102227
-0.0010139
-0.00019515
-0.000790407
-0.000565962
-0.000523005
-0.000576703
-0.000310635
-0.000460317
-0.000163564
-0.000343224
-7.26026e-05
-0.000251622
-2.25332e-05
-0.000189762
-4.60919e-06
-0.000132516
-1.12819e-06
-9.10212e-05
2.38272e-05
-7.771e-05
0.00016608
-0.000176651
0.000707284
-0.000163843
0.000652858
5.52915e-05
0.000653702
-0.000273745
-5.39799e-05
-0.00021345
5.95645e-05
-0.000344525
0.00013528
-0.000451249
1.9201e-05
-0.000500174
-6.24742e-05
-0.000563969
-7.777e-05
-0.000460828
-0.000233023
-0.000411541
-0.000175959
-0.000396538
-0.000125882
-0.000408788
-8.71954e-05
-0.000453829
-4.71829e-05
-0.000536107
1.04708e-05
-0.00063452
9.35076e-05
-0.000721733
0.000150332
-0.000741555
0.000130894
-0.000554903
7.33817e-06
-0.000329824
0.000106132
1.34546e-05
0.000259739
-0.00015388
0.000119228
-0.00129778
2.29827e-05
0.00243899
-0.000600055
0.00164648
-0.000900851
0.000106797
-0.000822402
-0.000643261
-0.000683872
-0.0007141
-0.000614574
-0.000528495
-0.000623938
-0.000332753
-0.000713845
-0.000160613
-0.000882427
-2.00846e-05
-0.00109657
8.27257e-05
-0.00131251
0.000126011
-0.00149138
0.000102249
-0.00167612
9.15842e-06
-0.00174458
-9.43246e-05
-0.00140344
-0.000284798
-0.00074872
-0.00138213
0.00127929
-0.00164496
0.000323593
-0.0017021
0.000193621
-0.00177625
9.45593e-05
-0.00182107
-1.64511e-05
-0.00173908
-0.000158549
-0.0019707
-0.00214523
-0.00226965
-0.00235535
-0.002401
-0.00238896
-0.00229383
-0.00214183
-0.0020092
-0.00119213
-0.000808082
-0.000444721
-0.000639631
0.000113862
-0.000297238
-8.47939e-05
0.000139237
-0.00170321
0.000216485
0.00236301
-0.000276703
0.00214088
-0.000828456
0.000659753
-0.00100513
-0.000465397
-0.00112024
-0.000597798
-0.001324
-0.000323556
-0.00163554
-2.00147e-05
-0.00201428
0.000219363
-0.00241268
0.000379559
-0.00279869
0.000470007
-0.00316536
0.000493976
-0.00350384
0.000442049
-0.00380874
0.000315397
-0.00403671
0.000134997
-0.00421476
-0.000105376
-0.00453598
-0.000426116
-0.00471287
0.000111368
-0.00389618
0.000464011
-0.00391758
0.00034646
-0.00405629
0.000333863
-0.00419595
0.000235795
-0.00431015
9.93595e-05
-0.0044405
-2.6581e-05
-0.00437424
-6.47511e-05
-0.0042594
-0.000113317
-0.00409862
-0.000159258
-0.00389988
-0.000197201
-0.00366243
-0.000235899
-0.00337929
-0.000281581
-0.00303747
-0.000340256
-0.00260679
-0.000429099
-0.00199614
-0.000609056
-0.00182016
-0.000982317
-0.00120801
-0.00125002
1.41414e-05
-0.00151762
-0.000136775
0.000149934
-0.00220027
0.000544264
0.00197003
0.000295002
0.00239141
-0.000563156
0.00151914
-0.00120046
0.000173131
-0.00166887
-0.000128145
-0.00212652
0.000135382
-0.0025569
0.000411676
-0.002934
0.00059779
-0.00326296
0.000709886
-0.00354703
0.000755479
-0.00378746
0.000735836
-0.00399296
0.000648996
-0.00417618
0.000500094
-0.00434094
0.000301257
-0.00451635
7.15467e-05
-0.00485186
-8.90971e-05
-0.00477317
3.42072e-05
-0.0045299
0.000222293
-0.00442281
0.000240953
-0.00431774
0.000230407
-0.00422998
0.000149667
-0.00416011
3.11457e-05
-0.00410269
-8.23454e-05
-0.00400124
-0.000164527
-0.00387984
-0.000233043
-0.00374452
-0.00029288
-0.00359327
-0.000346752
-0.00342666
-0.000400803
-0.00324554
-0.000460975
-0.00304995
-0.000534114
-0.00284262
-0.000634681
-0.00266464
-0.000785266
-0.00268235
-0.000962829
-0.00286864
-0.00106193
-0.00346833
-0.000916109
-0.00310224
-0.000501034
-0.00277363
-0.000326939
-0.00254715
-0.000224793
-0.00263663
0.000130671
-0.00276479
0.00125497
0.000847209
0.00129311
0.00235464
6.05596e-05
0.002753
-0.00121488
0.0014498
-0.0020854
0.000743684
-0.00270475
0.000756081
-0.00314925
0.00085756
-0.00347399
0.000923946
-0.00370573
0.00094307
-0.003866
0.000917234
-0.00397484
0.000846197
-0.00405199
0.000727676
-0.00411343
0.000563097
-0.00417235
0.000361748
-0.00425336
0.000154133
-0.00435662
1.5759e-05
-0.00432308
2.27568e-06
-0.00415449
5.53241e-05
-0.00397834
6.64434e-05
-0.00379284
4.65661e-05
-0.00362347
-1.80408e-05
-0.00348303
-0.000107606
-0.00336651
-0.000197177
-0.00325423
-0.0002751
-0.00314114
-0.000344424
-0.00302508
-0.000407228
-0.00290327
-0.000466834
-0.00277459
-0.000527753
-0.00263922
-0.000594599
-0.0024989
-0.000672675
-0.00236209
-0.000769714
-0.0022564
-0.000889174
-0.00221592
-0.00100152
-0.00224832
-0.00102771
-0.00228471
-0.000877893
-0.00212279
-0.000661128
-0.00178428
-0.000663598
-0.00130465
-0.000702559
-0.00403047
3.47139e-05
-0.00333174
0.00252558
-0.00164198
0.00242276
0.00245899
0.000512192
0.00466496
-0.00125099
0.00321424
-0.00240729
0.00190135
-0.0030817
0.0014319
-0.0034723
0.00124961
-0.00368126
0.0011344
-0.0037643
0.00102764
-0.00376177
0.000916255
-0.0037068
0.000792807
-0.00362669
0.000649166
-0.00354124
0.000479281
-0.00346458
0.000286727
-0.00340548
9.66834e-05
-0.0033446
-4.34599e-05
-0.00323574
-0.000104915
-0.00306244
-0.000116292
-0.00286717
-0.000127135
-0.00266874
-0.000150164
-0.00249109
-0.00019397
-0.00234409
-0.000252882
-0.00222289
-0.000316647
-0.00211818
-0.000378065
-0.00202399
-0.00043687
-0.00193548
-0.00049399
-0.0018486
-0.000551953
-0.00176023
-0.000614359
-0.00166776
-0.000685302
-0.00156914
-0.000769502
-0.00146481
-0.000872254
-0.00135766
-0.000994514
-0.00123835
-0.00111901
-0.0010633
-0.00120092
-0.000744225
-0.00119513
-0.000300069
-0.00110343
1.26958e-05
-0.000974504
0.000222526
-0.000910507
-0.00389833
-0.000751672
-0.00320161
0.00184905
-0.00424068
0.00163105
0.00267881
-0.000682813
0.00698028
-0.00211212
0.0046449
-0.00292654
0.00271721
-0.00332038
0.00182723
-0.00346065
0.00139141
-0.00343329
0.0011086
-0.0032912
0.000887144
-0.00307688
0.000703558
-0.00282461
0.000542194
-0.00256214
0.00038838
-0.00230926
0.000228094
-0.00207577
5.49606e-05
-0.00187502
-0.000102333
-0.00170606
-0.000210674
-0.00154253
-0.000266697
-0.00136664
-0.000290416
-0.00118799
-0.000304023
-0.00101745
-0.000318934
-0.000867299
-0.000342338
-0.000743941
-0.000374457
-0.000646713
-0.000412087
-0.00057079
-0.000452195
-0.000511501
-0.000494363
-0.000464311
-0.000539382
-0.000425142
-0.000589319
-0.000390347
-0.000647347
-0.000356318
-0.000717519
-0.000319186
-0.000804815
-0.000274597
-0.000915017
-0.000214364
-0.00105291
-0.000113292
-0.00121824
9.25937e-05
-0.00140494
0.000511793
-0.00161246
0.00127106
-0.00186082
0.00240208
-0.00210364
0.00331949
-0.00182602
-0.00135917
-0.00394546
-0.00824757
-0.00434527
-0.00122122
-0.00372229
0.0063589
-0.00355179
0.00447588
-0.00332527
0.00249224
-0.00299352
0.00149708
-0.00262471
0.00102424
-0.00222286
0.000708421
-0.00179044
0.000456433
-0.0013472
0.000262041
-0.000905765
0.000102518
-0.000474909
-4.06994e-05
-8.03312e-05
-0.000164682
0.000238337
-0.000261885
0.000471106
-0.000333262
0.000645714
-0.000383433
0.000792399
-0.000411528
0.000926285
-0.000422446
0.00104906
-0.000424945
0.00115767
-0.000425683
0.00124683
-0.00042963
0.00131303
-0.000438795
0.00135594
-0.000453142
0.00137774
-0.000472132
0.00138124
-0.000495995
0.00136947
-0.000525749
0.00134536
-0.000563346
0.00131162
-0.000611746
0.00127091
-0.000674936
0.00122601
-0.000758051
0.00118034
-0.000867475
0.00113991
-0.0010106
0.00111892
-0.00119536
0.00114765
-0.00143178
0.0012768
-0.00173971
0.00159081
-0.00217291
0.00231635
-0.00282727
0.00366568
-0.00317344
0.00141535
-0.010266
0.00386773
-0.00686493
0.00295985
-0.00382423
0.00143691
-0.00189117
0.000560945
-0.000667657
0.000275371
0.000248903
0.000109511
0.00102808
-6.88966e-05
0.00169999
-0.000213597
0.00226246
-0.000298518
0.00272145
-0.000354545
0.00307767
-0.000394977
0.00334221
-0.000427262
0.00353218
-0.000449889
0.00366341
-0.000462526
0.00374863
-0.00046668
0.00380174
-0.000462655
0.00383339
-0.000452127
0.00384878
-0.000438365
0.00384951
-0.000424437
0.00383477
-0.000412923
0.00380332
-0.000405383
0.00375467
-0.000402533
0.0036893
-0.000404811
0.0036082
-0.000412942
0.00351251
-0.00042811
0.00340322
-0.000452108
0.00328086
-0.000487448
0.00314529
-0.000537431
0.00299539
-0.000606217
0.00282868
-0.000698827
0.00264098
-0.000820965
0.00242615
-0.000978593
0.00217385
-0.00117755
0.00185825
-0.00142216
0.00139715
-0.00170986
0.000667186
-0.00209538
-0.000364849
-0.00213949
0.000902025
-1.23994e-05
0.00380433
0.0031847
-0.000234771
0.00466389
-4.00272e-05
0.00547586
-0.00024883
0.00623608
-0.000482676
0.0068928
-0.000545044
0.00735969
-0.000533616
0.00765631
-0.000508053
0.00784351
-0.00048356
0.00794984
-0.000458721
0.00799106
-0.000434035
0.00797632
-0.000410376
0.00791573
-0.000387145
0.00781887
-0.00036353
0.00769366
-0.000339335
0.00754782
-0.000314687
0.007388
-0.000290177
0.00721859
-0.000266844
0.00704202
-0.00024576
0.00685903
-0.000227835
0.00666945
-0.000213715
0.00647283
-0.000203834
0.00626865
-0.000198572
0.00605619
-0.000198415
0.00583418
-0.000204047
0.00560053
-0.00021642
0.00535192
-0.000236807
0.00508334
-0.00026683
0.00478759
-0.000308443
0.00445462
-0.000363854
0.00407103
-0.00043537
0.00361969
-0.000525254
0.00307953
-0.000635396
0.00242644
-0.000767075
0.00165619
-0.000937634
0.000869052
-0.00130627
-0.000536557
-0.000731949
0.000173724
-0.000457238
0.0175386
0.0212085
0.0208433
0.0206713
0.0202876
0.0196664
0.0189787
0.0182984
0.0176393
0.0170004
0.0163819
0.0157839
0.0152053
0.0146459
0.0141061
0.013587
0.0130893
0.0126132
0.0121581
0.0117221
0.0113025
0.010896
0.0104987
0.0101062
0.00971374
0.00931555
0.00890502
0.00847412
0.00801318
0.00751054
0.00695229
0.00632226
0.00560201
0.00477134
0.00380896
0.00267688
0.00118135
0.000260998
)
;

boundaryField
{
    floor
    {
        type            calculated;
        value           nonuniform List<scalar> 
29
(
0
0
0
0
0
0
0
0
0
0
0
0
0
0
0
0
0
0
0
0
1.24767e-05
3.02222e-05
4.63181e-05
6.7991e-05
1.5309e-05
1.19239e-05
3.02387e-05
5.00623e-05
6.69187e-05
)
;
    }
    ceiling
    {
        type            calculated;
        value           nonuniform List<scalar> 
43
(
0.000228359
0.000209135
0.000137042
0.000133078
0.00013456
0.000137477
0.000141097
0.000145095
0.000149268
0.000153529
0.000157835
0.00016215
0.000166431
0.00017063
0.000174692
0.000178552
0.000182137
0.000185377
0.000188212
0.000190601
0.000192526
0.000193998
0.000195051
0.000195739
0.000196131
0.000196304
0.000196336
0.0001963
0.000196257
0.000196258
0.000196337
0.000196511
0.000196774
0.000197083
0.000197347
0.000197365
0.000196493
0.000191284
0.000190403
0.000198663
8.59005e-05
6.36729e-05
7.96696e-05
)
;
    }
    sWall
    {
        type            calculated;
        value           uniform 0.000201552;
    }
    nWall
    {
        type            calculated;
        value           nonuniform List<scalar> 6(9.11984e-05 9.11174e-05 9.23346e-05 0.000150394 0.000193603 0.000237955);
    }
    sideWalls
    {
        type            empty;
        value           nonuniform 0();
    }
    glass1
    {
        type            calculated;
        value           nonuniform List<scalar> 9(4.07927e-05 0.00011706 0.000190907 0.000267667 0.000348776 0.0004357 0.00053432 0.000623799 0.000660266);
    }
    glass2
    {
        type            calculated;
        value           nonuniform List<scalar> 2(0.00078232 0.000893175);
    }
    sun
    {
        type            calculated;
        value           uniform 0;
    }
    heatsource1
    {
        type            calculated;
        value           nonuniform List<scalar> 3(1.71596e-07 1.71455e-07 1.71506e-07);
    }
    heatsource2
    {
        type            calculated;
        value           nonuniform List<scalar> 4(4.55493e-08 4.56104e-08 0 0);
    }
    Table_master
    {
        type            calculated;
        value           nonuniform List<scalar> 9(-1.36139e-07 -1.35872e-07 -1.35583e-07 -1.3529e-07 -1.34992e-07 -1.34685e-07 -1.34343e-07 -1.33903e-07 -1.33279e-07);
    }
    Table_slave
    {
        type            calculated;
        value           nonuniform List<scalar> 9(1.30268e-07 1.30241e-07 1.3023e-07 1.30236e-07 1.30256e-07 1.30289e-07 1.3034e-07 1.30417e-07 1.30491e-07);
    }
    inlet
    {
        type            calculated;
        value           uniform 0.0051815;
    }
    outlet
    {
        type            calculated;
        value           nonuniform List<scalar> 2(2.95638e-05 -0.0182026);
    }
}


// ************************************************************************* //
