/*--------------------------------*- C++ -*----------------------------------*\
  =========                 |
  \\      /  F ield         | OpenFOAM: The Open Source CFD Toolbox
   \\    /   O peration     | Website:  https://openfoam.org
    \\  /    A nd           | Version:  6
     \\/     M anipulation  |
\*---------------------------------------------------------------------------*/
FoamFile
{
    version     2.0;
    format      ascii;
    class       volScalarField;
    location    "100";
    object      alphat;
}
// * * * * * * * * * * * * * * * * * * * * * * * * * * * * * * * * * * * * * //

dimensions      [1 -1 -1 0 0 0 0];

internalField   nonuniform List<scalar> 
459
(
0.00110821
0.00119629
0.00120762
0.00126104
0.00130961
0.00135397
0.00139602
0.00143803
0.00147484
0.00149753
0.00150021
0.00147813
0.00143059
0.00136511
0.00129557
0.000533606
0.000649834
0.000706554
0.000693704
0.000672607
0.000648178
0.000618822
0.000589564
0.000562847
0.000538995
0.000517759
0.000498769
0.000481575
0.00046593
0.000451188
0.0004364
0.0004201
0.000404909
0.000371421
0.001556
0.0033726
0.00310821
0.00360819
0.00405509
0.00451667
0.00495649
0.00531495
0.00560618
0.00585746
0.00602485
0.00605071
0.00585027
0.00524728
0.00376131
0.00130917
0.000879201
0.000636433
0.00111698
0.00146275
0.00172076
0.00186846
0.00189114
0.0015836
0.00140449
0.00127163
0.00116713
0.00108385
0.00101788
0.000966968
0.00091529
0.000853336
0.000792117
0.000739486
0.000833981
0.000449846
0.00193829
0.0046285
0.00366686
0.00479779
0.00525476
0.00558386
0.00583767
0.00604477
0.00625048
0.00647582
0.00668902
0.00684897
0.00690743
0.00681016
0.00645732
0.00540998
0.00126257
0.00112696
0.00152107
0.001876
0.00220753
0.00246274
0.0024467
0.000835624
0.00075361
0.000685038
0.000627654
0.000579341
0.00053848
0.000504003
0.000475844
0.000454634
0.000503944
0.000602668
0.000948852
0.00050612
0.0023158
0.0061824
0.00356549
0.00505255
0.00551009
0.00563462
0.00568077
0.00575639
0.00590244
0.00611628
0.00636038
0.00659943
0.00678736
0.00688232
0.00686639
0.00655606
0.00524023
0.00145466
0.00182449
0.00233156
0.00281496
0.00322685
0.00352668
0.00335754
0.000920067
0.000851765
0.000805388
0.000770869
0.000740201
0.000709866
0.000679365
0.000645556
0.000604124
0.000574707
0.000611207
0.0010794
0.000552536
0.00270415
0.00824865
0.00399386
0.00472758
0.00545033
0.00549624
0.00540303
0.00540044
0.00554736
0.00577629
0.00604181
0.00631948
0.0065474
0.00665363
0.00661707
0.00641598
0.00594251
0.00498635
0.00466151
0.00462323
0.00471611
0.00486046
0.00498371
0.00493042
0.00426321
0.00400378
0.00387681
0.00376872
0.00362409
0.00337648
0.00301032
0.00254911
0.00202308
0.00147215
0.00107328
0.00110713
0.000703119
0.000690796
0.000839155
0.000937175
0.00311442
0.0105019
0.00592997
0.00445583
0.00504471
0.0053379
0.00539737
0.00526273
0.00544457
0.005668
0.005931
0.00621239
0.00644486
0.0065465
0.00646193
0.00620284
0.00585925
0.00557171
0.00553127
0.0056303
0.00574777
0.0058335
0.00585229
0.00577188
0.00556434
0.00538606
0.00521976
0.00503666
0.00482243
0.00456167
0.00419403
0.00370399
0.00309196
0.00238816
0.00176377
0.00132497
0.000967817
0.000843198
0.0012379
0.000975279
0.00350668
0.0122029
0.00912282
0.00608697
0.00528361
0.00529261
0.00549484
0.00554153
0.00561265
0.00575736
0.00599445
0.00627937
0.00651867
0.00660677
0.00647583
0.00615542
0.00581353
0.00569626
0.00588059
0.00609794
0.00617403
0.00610698
0.0059426
0.00573906
0.00553863
0.00535932
0.00517897
0.0049839
0.00477548
0.00456598
0.00435883
0.00401711
0.00351918
0.00290265
0.00231935
0.0018089
0.00142651
0.00133274
0.00138747
0.00110399
0.00359239
0.0113522
0.00976738
0.00855306
0.00752087
0.00689937
0.00644501
0.00604533
0.00587569
0.00595159
0.00620007
0.00650653
0.0067385
0.0067746
0.00655371
0.00614721
0.00581284
0.00583146
0.00609664
0.00609151
0.00588075
0.00558525
0.00529083
0.0050413
0.00484172
0.0046717
0.00450748
0.00434438
0.00419324
0.0040719
0.00399683
0.00393684
0.00363506
0.0031892
0.00280829
0.00261522
0.00271215
0.0032569
0.00415826
0.00174192
0.00350573
0.00420302
0.00471893
0.00494685
0.00505262
0.00504948
0.00508316
0.00527895
0.00564054
0.00610156
0.00656276
0.00692146
0.0070726
0.00693251
0.00649746
0.00595703
0.005772
0.00574452
0.00560873
0.00527874
0.00488362
0.00452831
0.00424765
0.00403304
0.00386015
0.00370489
0.00355197
0.00339616
0.00323673
0.00307308
0.00290496
0.00274224
0.0026109
0.00251692
0.00249069
0.00252507
0.00254354
0.0024671
0.00230926
0.00162748
0.002133
0.00396458
0.00498986
0.00565584
0.00627344
0.00680018
0.00721628
0.00748991
0.00761462
0.00755834
0.00723949
0.00664135
0.00593621
0.00536377
0.00506946
0.00475065
0.00431721
0.00388301
0.00353305
0.00327937
0.00309866
0.00296384
0.00285502
0.00276063
0.00267592
0.00260062
0.00253676
0.00248773
0.00246068
0.00245932
0.00247206
0.00249877
0.00253287
0.00254547
0.00248676
0.00233336
0.0020964
0.00133328
0.00249593
0.00514638
0.00653804
0.00702814
0.00747294
0.00782797
0.00774409
0.0074889
0.00718189
0.00669193
0.00580853
0.00488793
0.00420372
0.00372291
0.00330368
0.00289972
0.00256463
0.00232155
0.00216508
0.00207277
0.00202234
0.00199995
0.0019982
0.00201349
0.00204404
0.00208838
0.0021441
0.00220663
0.00228448
0.0023749
0.00247689
0.00258552
0.00268525
0.00275447
0.00274415
0.00277418
0.00270851
0.0013533
0.00214861
0.00227159
0.00236233
0.00247234
0.00231084
0.00212214
0.00192602
0.00173905
0.0016092
0.00147216
0.00131988
0.00116072
0.00101208
0.000866037
0.000751941
0.0006799
0.00064178
0.000625767
0.000623943
0.000631577
0.000644937
0.000662177
0.000682612
0.000705954
0.000732158
0.000761343
0.000793774
0.000829903
0.000870491
0.000916851
0.000968418
0.00102563
0.00108939
0.00116067
0.00123981
0.00133576
0.00137074
0.00133917
0.00125339
0.00116255
)
;

boundaryField
{
    floor
    {
        type            compressible::alphatWallFunction;
        Prt             0.85;
        value           nonuniform List<scalar> 
29
(
0.000183268
7.43668e-05
9.1801e-05
0.000100163
9.82741e-05
9.5165e-05
9.15504e-05
8.7185e-05
8.2809e-05
7.87897e-05
7.51816e-05
7.19524e-05
6.90508e-05
6.64116e-05
6.40001e-05
6.17182e-05
5.94196e-05
5.68745e-05
5.44909e-05
4.91948e-05
4.91942e-05
6.15105e-05
7.0177e-05
7.72339e-05
0.000183267
7.43659e-05
8.98292e-05
0.000160045
0.000204871
)
;
    }
    ceiling
    {
        type            compressible::alphatWallFunction;
        Prt             0.85;
        value           nonuniform List<scalar> 
43
(
0.00029631
0.000312156
0.000323792
0.000337938
0.000317339
0.000293045
0.000267534
0.000242943
0.000225697
0.000207329
0.000186692
0.000164828
0.000144106
0.000123394
0.000106922
9.63664e-05
9.07263e-05
8.83446e-05
8.80725e-05
8.92088e-05
9.11938e-05
9.37484e-05
9.6766e-05
0.0001002
0.000104038
0.000108293
0.000112999
0.000118215
0.000124042
0.000130659
0.000137973
0.000146034
0.000154957
0.000164861
0.000175775
0.000188903
0.000193662
0.000189367
0.00017764
0.000165122
0.000467274
0.000552076
0.000340718
)
;
    }
    sWall
    {
        type            compressible::alphatWallFunction;
        Prt             0.85;
        value           uniform 0.000295095;
    }
    nWall
    {
        type            compressible::alphatWallFunction;
        Prt             0.85;
        value           nonuniform List<scalar> 6(0.000133215 0.000138605 0.000156651 0.000188228 0.000190953 0.000164792);
    }
    sideWalls
    {
        type            empty;
    }
    glass1
    {
        type            compressible::alphatWallFunction;
        Prt             0.85;
        value           nonuniform List<scalar> 9(0.000153419 0.000213608 0.0002636 0.000312018 0.000361027 0.000412057 0.000460242 0.000470827 0.000460477);
    }
    glass2
    {
        type            compressible::alphatWallFunction;
        Prt             0.85;
        value           nonuniform List<scalar> 2(0.000241563 0.000226504);
    }
    sun
    {
        type            compressible::alphatWallFunction;
        Prt             0.85;
        value           nonuniform List<scalar> 
14
(
0.000157456
0.00016964
0.000171201
0.000178543
0.000185187
0.000191232
0.00019694
0.000202625
0.00020759
0.000210643
0.000211004
0.000208031
0.000201617
0.000192744
)
;
    }
    heatsource1
    {
        type            compressible::alphatWallFunction;
        Prt             0.85;
        value           nonuniform List<scalar> 3(9.79644e-05 0.00011954 0.000133541);
    }
    heatsource2
    {
        type            compressible::alphatWallFunction;
        Prt             0.85;
        value           nonuniform List<scalar> 4(0.000185259 0.000125281 0.00012528 0.000178882);
    }
    Table_master
    {
        type            compressible::alphatWallFunction;
        Prt             0.85;
        value           nonuniform List<scalar> 9(0.000119027 0.000107156 9.71114e-05 8.86115e-05 8.13816e-05 7.52088e-05 6.99554e-05 6.56321e-05 6.23549e-05);
    }
    Table_slave
    {
        type            compressible::alphatWallFunction;
        Prt             0.85;
        value           nonuniform List<scalar> 9(0.000131107 0.000121348 0.000114669 0.000109668 0.000105203 0.000100764 9.62782e-05 9.1277e-05 8.51039e-05);
    }
    inlet
    {
        type            fixedValue;
        value           uniform 1.94e-05;
    }
    outlet
    {
        type            zeroGradient;
    }
}


// ************************************************************************* //
