// -*- C++ -*-
// File generated by PyFoam - sorry for the ugliness

FoamFile
{
 version 2.0;
 format ascii;
 class volVectorField;
 location "120";
 object U;
}

dimensions [ 0 1 -1 0 0 0 0 ];

internalField nonuniform List<vector> 459
(
  (-0.00488265 0.0724188 0)
  (-0.146934 0.0246546 0)
  (-0.177516 0.00927871 0)
  (-0.196595 -0.00306941 0)
  (-0.195146 -0.0160367 0)
  (-0.171559 -0.0304526 0)
  (-0.128765 -0.0445852 0)
  (-0.074019 -0.0543038 0)
  (-0.0123122 -0.0544744 0)
  (0.0451618 -0.0404109 0)
  (0.0797776 -0.0271256 0)
  (0.101801 -0.0145679 0)
  (0.107761 -0.00194873 0)
  (0.0925632 0.0160804 0)
  (0.0885545 0.0534304 0)
  (-0.0737086 0.00916445 0)
  (-0.0203692 0.00267738 0)
  (-0.0238759 -0.0154037 0)
  (-0.00099801 -0.0273718 0)
  (0.0255997 -0.0246454 0)
  (0.0472683 -0.0184713 0)
  (0.0631558 -0.0108789 0)
  (0.073008 -0.00663435 0)
  (0.0780019 -0.00500556 0)
  (0.0805922 -0.00434251 0)
  (0.0823296 -0.00389905 0)
  (0.0835682 -0.00349277 0)
  (0.0841709 -0.00300323 0)
  (0.0836719 -0.00211128 0)
  (0.0811211 -0.000225372 0)
  (0.0745659 0.00362601 0)
  (0.0615961 0.00956725 0)
  (0.0272074 0.0204131 0)
  (0.0731241 0.0142461 0)
  (0.114698 0.149875 0)
  (-0.126884 0.0708521 0)
  (-0.140519 0.0435674 0)
  (-0.160191 0.0176142 0)
  (-0.160003 -0.0124116 0)
  (-0.138803 -0.0454404 0)
  (-0.100632 -0.0744589 0)
  (-0.053643 -0.0904918 0)
  (-0.00400359 -0.0868832 0)
  (0.0386975 -0.0664058 0)
  (0.069146 -0.0428053 0)
  (0.0894665 -0.0191924 0)
  (0.0996759 0.00485592 0)
  (0.10115 0.0303113 0)
  (0.105127 0.0634314 0)
  (0.0990156 0.0614927 0)
  (0.0641266 0.0598231 0)
  (-0.11907 0.020818 0)
  (0.0128471 0.00929688 0)
  (0.0247005 -0.0272565 0)
  (0.0388469 -0.0384195 0)
  (0.0540901 -0.0358317 0)
  (0.0675069 -0.0273573 0)
  (0.0740952 -0.0131379 0)
  (0.0761168 -0.00421371 0)
  (0.0764333 -0.000719924 0)
  (0.076805 0.00063344 0)
  (0.0773345 0.00142269 0)
  (0.0777648 0.00209425 0)
  (0.0780367 0.00304032 0)
  (0.0779995 0.00477173 0)
  (0.0769789 0.00848699 0)
  (0.0720506 0.0174748 0)
  (0.0609085 0.0279501 0)
  (0.0211618 0.0427657 0)
  (0.128741 0.0331438 0)
  (0.225789 0.223116 0)
  (-0.126451 0.107764 0)
  (-0.106083 0.067412 0)
  (-0.125 0.0250169 0)
  (-0.124437 -0.0235749 0)
  (-0.102676 -0.0752251 0)
  (-0.067286 -0.117151 0)
  (-0.0277014 -0.135737 0)
  (0.0112508 -0.125817 0)
  (0.0425543 -0.0984496 0)
  (0.0671297 -0.0662003 0)
  (0.0840315 -0.0338872 0)
  (0.0937582 -0.00262372 0)
  (0.0977777 0.0278773 0)
  (0.0992633 0.0575379 0)
  (0.0905921 0.0707875 0)
  (0.0716086 0.103958 0)
  (-0.145441 0.00199161 0)
  (0.062676 -0.0360476 0)
  (0.0696326 -0.0510982 0)
  (0.0759227 -0.053212 0)
  (0.0827288 -0.0473568 0)
  (0.0892506 -0.0396267 0)
  (0.088093 -0.030763 0)
  (0.0774178 -0.0202114 0)
  (0.0690403 -0.0144105 0)
  (0.0650188 -0.011113 0)
  (0.0630339 -0.00895434 0)
  (0.0616799 -0.0074054 0)
  (0.0608429 -0.00605077 0)
  (0.0615285 -0.00406292 0)
  (0.0657707 0.00144093 0)
  (0.0660264 0.0225399 0)
  (0.0587429 0.0397686 0)
  (0.0132343 0.0611387 0)
  (0.168132 0.0637057 0)
  (0.329046 0.281525 0)
  (-0.140177 0.138132 0)
  (-0.072064 0.0887095 0)
  (-0.0887728 0.0331807 0)
  (-0.0836565 -0.0334226 0)
  (-0.0580108 -0.103909 0)
  (-0.0260158 -0.155282 0)
  (0.00491311 -0.172448 0)
  (0.0311608 -0.157193 0)
  (0.0529185 -0.124129 0)
  (0.069935 -0.0847055 0)
  (0.0814894 -0.0455165 0)
  (0.0885933 -0.0091982 0)
  (0.0930148 0.0240297 0)
  (0.0982744 0.0542968 0)
  (0.107195 0.0780497 0)
  (0.122006 0.109832 0)
  (0.154174 0.0449666 0)
  (0.127973 0.00975828 0)
  (0.128139 -0.0273343 0)
  (0.11843 -0.0472393 0)
  (0.109158 -0.0513111 0)
  (0.102328 -0.0462535 0)
  (0.0961401 -0.0360046 0)
  (0.096384 -0.0214853 0)
  (0.104636 -0.0131253 0)
  (0.109184 -0.00821951 0)
  (0.108017 -0.00487934 0)
  (0.103454 -0.00228813 0)
  (0.0968524 -8.09456e-05 0)
  (0.0883349 0.00205952 0)
  (0.0771871 0.00462601 0)
  (0.0604561 0.00836099 0)
  (0.0499466 0.0295553 0)
  (0.0519569 0.0476253 0)
  (0.0109466 0.0712918 0)
  (0.19533 0.104433 0)
  (0.42206 0.325648 0)
  (-0.163084 0.160398 0)
  (-0.0398373 0.101462 0)
  (-0.0507069 0.0370235 0)
  (-0.0320263 -0.0472855 0)
  (-0.00226735 -0.132521 0)
  (0.0231325 -0.184882 0)
  (0.0412008 -0.196106 0)
  (0.0551454 -0.176936 0)
  (0.0656796 -0.139409 0)
  (0.0727598 -0.0950794 0)
  (0.0767674 -0.0518981 0)
  (0.0793153 -0.0135577 0)
  (0.0823452 0.0194104 0)
  (0.0887776 0.0467623 0)
  (0.100983 0.0659367 0)
  (0.120489 0.073852 0)
  (0.139028 0.0316811 0)
  (0.141289 0.000310627 0)
  (0.134481 -0.0251424 0)
  (0.122855 -0.0385457 0)
  (0.109979 -0.041351 0)
  (0.0982315 -0.0369077 0)
  (0.0883959 -0.0272045 0)
  (0.0830346 -0.0123496 0)
  (0.0812567 -0.0023171 0)
  (0.0781166 0.00350355 0)
  (0.0732832 0.00714137 0)
  (0.0675111 0.00984824 0)
  (0.0613739 0.0122186 0)
  (0.0549776 0.0147392 0)
  (0.0483929 0.0180167 0)
  (0.0413111 0.0228901 0)
  (0.0377833 0.0342042 0)
  (0.0483962 0.0462735 0)
  (0.0327086 0.0611298 0)
  (0.130428 0.0996884 0)
  (0.116388 0.0807339 0)
  (0.090885 0.0590794 0)
  (-0.0825886 0.0567371 0)
  (0.497051 0.359992 0)
  (-0.189718 0.172225 0)
  (-0.0122249 0.0981189 0)
  (-0.00628794 0.0282429 0)
  (0.0352832 -0.0780138 0)
  (0.0610066 -0.157527 0)
  (0.0755758 -0.201043 0)
  (0.0809108 -0.207118 0)
  (0.0803729 -0.183407 0)
  (0.0764529 -0.142153 0)
  (0.0708192 -0.0950172 0)
  (0.0650373 -0.0507249 0)
  (0.0610694 -0.0134152 0)
  (0.0605046 0.0161444 0)
  (0.0656018 0.0376848 0)
  (0.0767748 0.0495377 0)
  (0.0939871 0.0482018 0)
  (0.107617 0.0240989 0)
  (0.110809 0.000840775 0)
  (0.106096 -0.0164307 0)
  (0.0963734 -0.0262503 0)
  (0.0844049 -0.0286658 0)
  (0.0723174 -0.0252214 0)
  (0.0614518 -0.0174807 0)
  (0.0531674 -0.00685955 0)
  (0.0469721 0.00175025 0)
  (0.0419681 0.00734989 0)
  (0.0372278 0.0109884 0)
  (0.0326537 0.013728 0)
  (0.0284235 0.016152 0)
  (0.0247297 0.0186818 0)
  (0.0219806 0.0217293 0)
  (0.0204426 0.0255546 0)
  (0.0220495 0.0309841 0)
  (0.0336473 0.0359213 0)
  (0.0304304 0.0358999 0)
  (0.0719262 0.0576698 0)
  (0.0717714 0.0444125 0)
  (0.0808676 0.041794 0)
  (-0.0967497 0.0751775 0)
  (0.562196 0.389044 0)
  (-0.202677 0.154976 0)
  (0.0259789 0.0442922 0)
  (0.0759371 -0.0319104 0)
  (0.114264 -0.114994 0)
  (0.13147 -0.177313 0)
  (0.132109 -0.206689 0)
  (0.120244 -0.202797 0)
  (0.100857 -0.173131 0)
  (0.0789735 -0.129319 0)
  (0.0583439 -0.0821188 0)
  (0.0417271 -0.0402205 0)
  (0.0310828 -0.00748133 0)
  (0.0275063 0.0156034 0)
  (0.032011 0.0301249 0)
  (0.0422974 0.0364107 0)
  (0.0562031 0.0330341 0)
  (0.0662382 0.0180116 0)
  (0.0685804 0.00210996 0)
  (0.0648397 -0.0097677 0)
  (0.0564079 -0.0162991 0)
  (0.0455865 -0.0174146 0)
  (0.0342318 -0.0140884 0)
  (0.0237155 -0.00761539 0)
  (0.0148817 0.000553886 0)
  (0.00878674 0.00736767 0)
  (0.00483982 0.0118719 0)
  (0.0017592 0.0148473 0)
  (-0.000739422 0.0170626 0)
  (-0.00257348 0.0188738 0)
  (-0.00349415 0.0204856 0)
  (-0.00301957 0.0219938 0)
  (-0.000773972 0.0232393 0)
  (0.00419186 0.0241342 0)
  (0.014719 0.0243982 0)
  (0.0147099 0.0208699 0)
  (0.0367463 0.0352363 0)
  (0.0471674 0.0366412 0)
  (0.08486 0.051167 0)
  (-0.0941072 0.113468 0)
  (0.656635 0.376618 0)
  (-0.0158008 0.122592 0)
  (0.105305 -0.0449384 0)
  (0.196481 -0.109972 0)
  (0.220931 -0.152119 0)
  (0.213395 -0.18156 0)
  (0.187459 -0.190102 0)
  (0.149406 -0.175101 0)
  (0.105752 -0.141103 0)
  (0.0635492 -0.0981724 0)
  (0.0281902 -0.0554093 0)
  (0.00348619 -0.0209416 0)
  (-0.0101809 0.00242706 0)
  (-0.0122862 0.0155819 0)
  (-0.00758179 0.0231664 0)
  (0.00153915 0.0258163 0)
  (0.0120643 0.0224881 0)
  (0.018813 0.0131285 0)
  (0.0197415 0.00322762 0)
  (0.0162624 -0.00402647 0)
  (0.00882247 -0.00747427 0)
  (-0.000754308 -0.00711798 0)
  (-0.0105885 -0.00366809 0)
  (-0.0194784 0.00152324 0)
  (-0.0255713 0.00686646 0)
  (-0.0288881 0.0111462 0)
  (-0.0306045 0.0142001 0)
  (-0.0314057 0.0163627 0)
  (-0.0315179 0.0178812 0)
  (-0.0309065 0.0188199 0)
  (-0.0293497 0.0190982 0)
  (-0.0264671 0.0184705 0)
  (-0.0219379 0.0165494 0)
  (-0.0155581 0.0133668 0)
  (-0.00763523 0.0101546 0)
  (-0.00869567 0.0069785 0)
  (0.000254804 0.0181478 0)
  (0.0115534 0.0301764 0)
  (0.0233484 0.0889724 0)
  (-0.324827 0.156651 0)
  (0.788955 0.35824 0)
  (0.374457 0.246901 0)
  (0.392938 0.148695 0)
  (0.397524 0.0329514 0)
  (0.354792 -0.0578802 0)
  (0.288978 -0.110159 0)
  (0.21572 -0.126311 0)
  (0.1423 -0.114678 0)
  (0.0734759 -0.084769 0)
  (0.0157601 -0.0493246 0)
  (-0.0260464 -0.0177231 0)
  (-0.0462091 -0.000141536 0)
  (-0.0546639 0.0095965 0)
  (-0.0545614 0.0149012 0)
  (-0.0502889 0.0179455 0)
  (-0.0437172 0.0187124 0)
  (-0.037118 0.0166469 0)
  (-0.0334214 0.0118646 0)
  (-0.0338514 0.00676532 0)
  (-0.0376417 0.00323607 0)
  (-0.0435031 0.0020384 0)
  (-0.0504448 0.00297152 0)
  (-0.0567954 0.00520722 0)
  (-0.0612077 0.00787028 0)
  (-0.0636499 0.0104948 0)
  (-0.0643589 0.0127147 0)
  (-0.0638785 0.0144018 0)
  (-0.0625997 0.0155365 0)
  (-0.0607567 0.0160946 0)
  (-0.05854 0.0160308 0)
  (-0.0562343 0.0153175 0)
  (-0.0544211 0.0140575 0)
  (-0.054297 0.0128693 0)
  (-0.0578922 0.0137224 0)
  (-0.0677584 0.0199849 0)
  (-0.085847 0.0340772 0)
  (-0.106812 0.0559356 0)
  (-0.136293 0.0781407 0)
  (-0.190735 0.0881156 0)
  (-0.36507 0.0615787 0)
  (0.182973 -0.0595661 0)
  (0.222352 -0.0788245 0)
  (0.207723 -0.0922446 0)
  (0.152716 -0.0869225 0)
  (0.0876144 -0.0701281 0)
  (0.0234517 -0.0458789 0)
  (-0.0360511 -0.0161714 0)
  (-0.0711512 0.00171793 0)
  (-0.0911466 0.0113911 0)
  (-0.098932 0.0156099 0)
  (-0.100373 0.0177701 0)
  (-0.0985812 0.0191129 0)
  (-0.0951176 0.0201533 0)
  (-0.0910056 0.0206394 0)
  (-0.0874853 0.0202386 0)
  (-0.0858925 0.0190282 0)
  (-0.0866625 0.0178865 0)
  (-0.0892055 0.0176003 0)
  (-0.0924819 0.0184965 0)
  (-0.0955174 0.0203383 0)
  (-0.097612 0.0226395 0)
  (-0.0984558 0.025083 0)
  (-0.098088 0.0275509 0)
  (-0.0966784 0.0299542 0)
  (-0.0944698 0.032262 0)
  (-0.0916711 0.0344651 0)
  (-0.0884637 0.0365733 0)
  (-0.0850449 0.0386153 0)
  (-0.0816871 0.040631 0)
  (-0.0788098 0.0426576 0)
  (-0.0769736 0.0447613 0)
  (-0.0765761 0.0473186 0)
  (-0.0773001 0.0518185 0)
  (-0.0777744 0.0615919 0)
  (-0.0755735 0.0796299 0)
  (-0.0729546 0.0978591 0)
  (-0.0770969 0.0845752 0)
  (-0.0381861 -0.138779 0)
  (0.00941741 0.0245287 0)
  (0.000820922 -0.0242603 0)
  (-0.00898921 -0.0552644 0)
  (-0.0446628 -0.0602496 0)
  (-0.081933 -0.0594969 0)
  (-0.111933 -0.057321 0)
  (-0.130844 -0.0575256 0)
  (-0.139555 -0.0603942 0)
  (-0.142972 -0.0628307 0)
  (-0.143323 -0.0649463 0)
  (-0.141902 -0.0657979 0)
  (-0.139349 -0.0656138 0)
  (-0.136007 -0.065126 0)
  (-0.132273 -0.0652565 0)
  (-0.128752 -0.0667659 0)
  (-0.126086 -0.069911 0)
  (-0.124534 -0.0742103 0)
  (-0.123869 -0.0788837 0)
  (-0.123587 -0.083264 0)
  (-0.123174 -0.0870668 0)
  (-0.122277 -0.0903108 0)
  (-0.120727 -0.0931069 0)
  (-0.118479 -0.0956521 0)
  (-0.115569 -0.0982508 0)
  (-0.112103 -0.101202 0)
  (-0.108235 -0.104728 0)
  (-0.104154 -0.1089 0)
  (-0.100057 -0.113539 0)
  (-0.096104 -0.118058 0)
  (-0.0923292 -0.121262 0)
  (-0.0884759 -0.121224 0)
  (-0.0836095 -0.11547 0)
  (-0.0754664 -0.101742 0)
  (-0.060298 -0.0794479 0)
  (-0.0353128 -0.0523518 0)
  (-6.43424e-05 -0.0373007 0)
  (0.0534064 -0.109596 0)
  (0.00226332 -0.207859 0)
  (-0.0564588 -0.226596 0)
  (-0.261204 -0.0248347 0)
  (-0.226851 0.198176 0)
  (-0.211939 0.196063 0)
  (-0.208929 0.196439 0)
  (-0.211285 0.198464 0)
  (-0.213595 0.206409 0)
  (-0.211563 0.216031 0)
  (-0.206586 0.227049 0)
  (-0.200485 0.236548 0)
  (-0.194693 0.2432 0)
  (-0.189728 0.247508 0)
  (-0.185476 0.250014 0)
  (-0.181425 0.251687 0)
  (-0.177106 0.253605 0)
  (-0.17232 0.25665 0)
  (-0.167213 0.261326 0)
  (-0.162149 0.267617 0)
  (-0.157447 0.275002 0)
  (-0.153221 0.282753 0)
  (-0.149385 0.290258 0)
  (-0.145765 0.297212 0)
  (-0.14219 0.303586 0)
  (-0.138515 0.309533 0)
  (-0.134619 0.315339 0)
  (-0.130427 0.321367 0)
  (-0.125919 0.327965 0)
  (-0.121118 0.335415 0)
  (-0.116064 0.343893 0)
  (-0.110776 0.353392 0)
  (-0.10521 0.363585 0)
  (-0.0991768 0.373675 0)
  (-0.0921856 0.382325 0)
  (-0.0832162 0.387911 0)
  (-0.070745 0.38936 0)
  (-0.053558 0.387812 0)
  (-0.0317597 0.388613 0)
  (-0.00299652 0.395328 0)
  (0.0497841 0.451407 0)
  (-0.132656 0.546538 0)
)
;

boundaryField
{
  floor
  {
    type noSlip;
  }
  ceiling
  {
    type noSlip;
  }
  sWall
  {
    type noSlip;
  }
  nWall
  {
    type noSlip;
  }
  sideWalls
  {
    type empty;
  }
  glass1
  {
    type noSlip;
  }
  glass2
  {
    type noSlip;
  }
  sun
  {
    type noSlip;
  }
  heatsource1
  {
    type noSlip;
  }
  heatsource2
  {
    type noSlip;
  }
  Table_master
  {
    type noSlip;
  }
  Table_slave
  {
    type noSlip;
  }
  inlet
  {
    type fixedValue;
    value uniform (0.277164 -0.114805 0);
  }
  outlet
  {
    type zeroGradient;
  }
} 	// ************************************************************************* //

