/*--------------------------------*- C++ -*----------------------------------*\
  =========                 |
  \\      /  F ield         | OpenFOAM: The Open Source CFD Toolbox
   \\    /   O peration     | Website:  https://openfoam.org
    \\  /    A nd           | Version:  6
     \\/     M anipulation  |
\*---------------------------------------------------------------------------*/
FoamFile
{
    version     2.0;
    format      ascii;
    class       volScalarField;
    location    "700";
    object      nut;
}
// * * * * * * * * * * * * * * * * * * * * * * * * * * * * * * * * * * * * * //

dimensions      [0 2 -1 0 0 0 0];

internalField   nonuniform List<scalar> 
459
(
0.000654338
0.000674876
0.000591883
0.000600101
0.000613268
0.000626249
0.0006394
0.000653678
0.000667724
0.000681125
0.000693704
0.000704999
0.000714363
0.000720766
0.000720776
0.000317903
0.000299873
0.000260132
0.000225455
0.000211744
0.000209472
0.000213693
0.000223802
0.000234391
0.000243273
0.000248437
0.000248225
0.000249108
0.000257166
0.000275698
0.000305811
0.000337609
0.000421097
0.000384867
0.00114537
0.00237883
0.00181576
0.00255188
0.0028348
0.00297748
0.00306169
0.00309589
0.00310395
0.003084
0.00302546
0.00290511
0.00267896
0.00226879
0.00158525
0.000796205
0.000481803
0.000425443
0.00118118
0.00103579
0.000838694
0.000704743
0.000640782
0.000631861
0.00070065
0.000774152
0.000829702
0.00086187
0.000874012
0.000896217
0.000961083
0.00109706
0.00133675
0.00137286
0.00167943
0.00056357
0.00160715
0.00436932
0.00240956
0.00328192
0.00410203
0.00444301
0.00460883
0.00467419
0.00467625
0.00463342
0.00454076
0.0043762
0.00409176
0.00360182
0.00281109
0.00177759
0.000841794
0.000563499
0.00143512
0.00110723
0.0007726
0.000558194
0.000414538
0.000293384
0.000310854
0.000331555
0.000354608
0.000381887
0.000416138
0.000461232
0.00052435
0.000617973
0.00171591
0.00191495
0.00247078
0.000712102
0.0020525
0.00692371
0.00405259
0.0037626
0.00445511
0.00492709
0.00522607
0.00540537
0.00549541
0.00554108
0.00555147
0.00551577
0.00539418
0.0050997
0.00449186
0.00341916
0.00193028
0.000796848
0.00178839
0.00216302
0.00175241
0.00135119
0.00102832
0.000765747
0.000552011
0.000549823
0.000550132
0.000552811
0.00055904
0.000570365
0.000589334
0.000621118
0.000677333
0.00189092
0.00194771
0.00227207
0.000703607
0.00245986
0.00958201
0.00681187
0.0053932
0.00513867
0.00520087
0.00537397
0.00556729
0.0057239
0.00586818
0.00601932
0.00618176
0.00633827
0.00644034
0.00641851
0.00620565
0.00576721
0.00515155
0.00474694
0.00428943
0.00391952
0.00368101
0.00351743
0.00335606
0.00321058
0.00311854
0.00303284
0.00294747
0.00286098
0.00277285
0.00268328
0.0025941
0.00250569
0.00241029
0.00202443
0.00154727
0.00112316
0.000618707
0.000644291
0.000679532
0.00281976
0.0116896
0.00982535
0.00774821
0.00667501
0.00605462
0.0057439
0.00563833
0.00565825
0.00575829
0.00593915
0.00621058
0.00655857
0.00692107
0.00720428
0.00731579
0.0071886
0.00680746
0.00629809
0.00579827
0.0054103
0.00512429
0.00491148
0.00474241
0.00459684
0.00446432
0.00433934
0.0042192
0.00410089
0.00398072
0.00385386
0.00371403
0.00355078
0.0033372
0.00301553
0.00256686
0.00203455
0.00157272
0.00123481
0.000838915
0.00308934
0.0121767
0.0107615
0.00919975
0.00810094
0.00714276
0.00644471
0.00597368
0.00568016
0.00554448
0.0055816
0.00579479
0.00617659
0.0066813
0.00718436
0.00752364
0.00759425
0.00739979
0.00702761
0.00660859
0.00623483
0.00592702
0.00568089
0.00548201
0.005313
0.00516132
0.0050218
0.00489179
0.00476817
0.00464727
0.00452563
0.00440039
0.00426826
0.00411771
0.00391498
0.00360102
0.00310188
0.00242917
0.00178349
0.000993217
0.00306289
0.00969127
0.00915054
0.00923052
0.008653
0.00777653
0.00696901
0.00632028
0.0058408
0.00552866
0.00538552
0.00542614
0.00567631
0.00611676
0.00663601
0.00707935
0.00731736
0.00731519
0.00712544
0.00684446
0.00655222
0.00628635
0.00605898
0.00586883
0.00570733
0.00556538
0.00543724
0.00531999
0.00521013
0.00510384
0.0049985
0.00489322
0.00478786
0.00467836
0.00454803
0.00436129
0.0040518
0.00347346
0.00259678
0.00114835
0.00290173
0.00328812
0.0102587
0.010665
0.00939097
0.00811852
0.00712455
0.00641198
0.00593395
0.00564713
0.00552124
0.00553329
0.00566177
0.00588252
0.00616617
0.00645917
0.00667404
0.00676808
0.00674551
0.00664335
0.0065046
0.00635849
0.00622019
0.00609728
0.00599023
0.00589587
0.00581011
0.0057301
0.00565204
0.00557239
0.0054891
0.00540145
0.00530902
0.00520939
0.00509464
0.00494828
0.00473887
0.00437517
0.00353873
0.00132559
0.0198741
0.0175926
0.0107146
0.0085275
0.00751752
0.00690576
0.00653913
0.0063405
0.00624776
0.00621228
0.00620562
0.00621993
0.00625935
0.0063264
0.00641272
0.00650061
0.00657045
0.00661286
0.00662944
0.00662556
0.00660673
0.00658159
0.00655489
0.00652809
0.00649933
0.00646421
0.00641961
0.00636466
0.00629942
0.00622379
0.00613687
0.00603633
0.00591715
0.00576844
0.0055623
0.0052097
0.00434163
0.00157313
0.00624576
0.0115011
0.00850285
0.00739833
0.00694438
0.00676246
0.00668874
0.00666068
0.00665919
0.00667715
0.00671085
0.0067588
0.00682042
0.00689349
0.00697229
0.00704858
0.00711549
0.00716979
0.00721164
0.00724334
0.0072679
0.00728863
0.00730785
0.00732656
0.00734206
0.00733989
0.00731887
0.00728371
0.00723749
0.00718027
0.00710885
0.00701646
0.00689219
0.00671961
0.00647211
0.00609163
0.00541068
0.00192916
0.00150473
0.00199763
0.00421689
0.00347736
0.0026742
0.00214097
0.00195993
0.00185821
0.00179105
0.00174482
0.00171346
0.00169349
0.0016822
0.00167731
0.00167699
0.00167983
0.00168455
0.00169
0.00169514
0.00169921
0.00170195
0.00170344
0.00170402
0.00170393
0.00170345
0.00170276
0.00170187
0.00170155
0.00170087
0.00169916
0.00169641
0.00169268
0.00168781
0.0016811
0.00167112
0.00165545
0.00163059
0.00159306
0.00154716
0.00136874
)
;

boundaryField
{
    floor
    {
        type            nutkWallFunction;
        Cmu             0.09;
        kappa           0.41;
        E               9.8;
        value           nonuniform List<scalar> 
29
(
8.72622e-05
3.57551e-05
3.33034e-05
2.78286e-05
2.29594e-05
2.10066e-05
2.06812e-05
2.12848e-05
2.27243e-05
2.42229e-05
2.54727e-05
2.61965e-05
2.61668e-05
2.62902e-05
2.74151e-05
2.99847e-05
3.41123e-05
3.84136e-05
4.94736e-05
4.47097e-05
4.47096e-05
6.77429e-05
8.61956e-05
8.51526e-05
8.72621e-05
3.5755e-05
5.00418e-05
6.77359e-05
9.65174e-05
)
;
    }
    ceiling
    {
        type            nutkWallFunction;
        Cmu             0.09;
        kappa           0.41;
        E               9.8;
        value           nonuniform List<scalar> 
43
(
0.000178859
0.000233477
0.000465295
0.00038986
0.00030604
0.000248971
0.000229267
0.00021811
0.000210708
0.000205595
0.000202118
0.000199901
0.000198646
0.000198102
0.000198066
0.000198382
0.000198906
0.000199511
0.000200082
0.000200534
0.000200837
0.000201003
0.000201066
0.000201055
0.000201002
0.000200924
0.000200824
0.000200788
0.000200712
0.000200521
0.000200214
0.0001998
0.000199257
0.000198511
0.000197401
0.000195655
0.000192883
0.00018869
0.000183547
0.000163396
0.000330095
0.000370388
0.000666127
)
;
    }
    sWall
    {
        type            nutkWallFunction;
        Cmu             0.09;
        kappa           0.41;
        E               9.8;
        value           uniform 0.000178895;
    }
    nWall
    {
        type            nutkWallFunction;
        Cmu             0.09;
        kappa           0.41;
        E               9.8;
        value           nonuniform List<scalar> 6(8.21938e-05 0.000101595 0.000119966 0.000186471 0.000225891 0.000163405);
    }
    sideWalls
    {
        type            empty;
    }
    glass1
    {
        type            nutkWallFunction;
        Cmu             0.09;
        kappa           0.41;
        E               9.8;
        value           nonuniform List<scalar> 9(7.90355e-05 0.000137838 0.000190445 0.000239595 0.000283547 0.000321738 0.000350012 0.000347259 0.000330386);
    }
    glass2
    {
        type            nutkWallFunction;
        Cmu             0.09;
        kappa           0.41;
        E               9.8;
        value           nonuniform List<scalar> 2(0.000138107 0.000158495);
    }
    sun
    {
        type            nutkWallFunction;
        Cmu             0.09;
        kappa           0.41;
        E               9.8;
        value           nonuniform List<scalar> 
14
(
7.90792e-05
8.16187e-05
7.13006e-05
7.23301e-05
7.3976e-05
7.55943e-05
7.72297e-05
7.90006e-05
8.07382e-05
8.23919e-05
8.39405e-05
8.53283e-05
8.64767e-05
8.72609e-05
)
;
    }
    heatsource1
    {
        type            nutkWallFunction;
        Cmu             0.09;
        kappa           0.41;
        E               9.8;
        value           nonuniform List<scalar> 3(7.46525e-05 7.78355e-05 8.2194e-05);
    }
    heatsource2
    {
        type            nutkWallFunction;
        Cmu             0.09;
        kappa           0.41;
        E               9.8;
        value           nonuniform List<scalar> 4(9.64404e-05 5.7332e-05 5.73319e-05 0.000101938);
    }
    Table_master
    {
        type            nutkWallFunction;
        Cmu             0.09;
        kappa           0.41;
        E               9.8;
        value           nonuniform List<scalar> 9(3.24019e-05 3.4785e-05 3.75866e-05 4.06799e-05 4.43074e-05 4.88157e-05 5.46808e-05 6.27726e-05 7.45604e-05);
    }
    Table_slave
    {
        type            nutkWallFunction;
        Cmu             0.09;
        kappa           0.41;
        E               9.8;
        value           nonuniform List<scalar> 9(6.62783e-05 6.60014e-05 6.60404e-05 6.6379e-05 6.71657e-05 6.85934e-05 7.09773e-05 7.49509e-05 8.19197e-05);
    }
    inlet
    {
        type            calculated;
        value           uniform 3.3541e-05;
    }
    outlet
    {
        type            calculated;
        value           nonuniform List<scalar> 2(0.00150473 0.00199763);
    }
}


// ************************************************************************* //
