/*--------------------------------*- C++ -*----------------------------------*\
  =========                 |
  \\      /  F ield         | OpenFOAM: The Open Source CFD Toolbox
   \\    /   O peration     | Website:  https://openfoam.org
    \\  /    A nd           | Version:  6
     \\/     M anipulation  |
\*---------------------------------------------------------------------------*/
FoamFile
{
    version     2.0;
    format      ascii;
    class       volScalarField;
    location    "500";
    object      epsilon;
}
// * * * * * * * * * * * * * * * * * * * * * * * * * * * * * * * * * * * * * //

dimensions      [0 2 -3 0 0 0 0];

internalField   nonuniform List<scalar> 
459
(
0.000354802
0.000451221
0.000467284
0.000533069
0.000598223
0.000662375
0.000727478
0.000797017
0.000859417
0.000898333
0.000901246
0.000859835
0.000776863
0.000671076
0.000567603
2.8906e-05
5.3463e-05
6.90881e-05
6.32434e-05
5.51666e-05
4.71082e-05
3.9341e-05
3.2793e-05
2.75253e-05
2.3316e-05
1.99344e-05
1.72119e-05
1.49883e-05
1.31352e-05
1.15468e-05
1.012e-05
8.74552e-06
8.08712e-06
6.35336e-06
0.000950091
0.00146263
0.000426593
0.000406193
0.000419674
0.000442052
0.000474983
0.000522987
0.000579514
0.000628185
0.000651224
0.000635295
0.000578618
0.000499859
0.000455805
0.000584505
0.000176253
4.76699e-05
9.21915e-05
8.80989e-05
7.53774e-05
6.14905e-05
4.98194e-05
4.2949e-05
3.50746e-05
2.83559e-05
2.29847e-05
1.87634e-05
1.54738e-05
1.29058e-05
1.09082e-05
9.47065e-06
8.68691e-06
8.48196e-06
2.49599e-05
1.63114e-05
0.00179794
0.00380752
0.000553262
0.000388586
0.000396572
0.000431697
0.000484949
0.000558487
0.000644178
0.000717809
0.000756042
0.000746655
0.000690544
0.000605587
0.000523681
0.000479541
0.000536761
0.000336326
0.000208874
0.000143658
0.000103863
7.82691e-05
6.33622e-05
0.000108707
7.80727e-05
5.79726e-05
4.44161e-05
3.49989e-05
2.82713e-05
2.33504e-05
1.96962e-05
1.6988e-05
1.31835e-05
1.12833e-05
4.69237e-05
2.65052e-05
0.00300546
0.00812036
0.000930655
0.000396178
0.000382558
0.000429748
0.000505763
0.000616756
0.000742451
0.000837265
0.000878445
0.000862274
0.000794717
0.000695111
0.000581798
0.000490351
0.000449173
0.000781917
0.000421527
0.000239539
0.000153526
0.000107083
7.99781e-05
6.7648e-05
0.000151139
0.000120116
0.000101771
8.96585e-05
8.00434e-05
7.08953e-05
6.26635e-05
5.44722e-05
4.55374e-05
2.78625e-05
1.86564e-05
7.65401e-05
3.66583e-05
0.004704
0.0146262
0.00192811
0.000479952
0.000383697
0.000430531
0.000537978
0.000736593
0.000919058
0.00102196
0.00104834
0.00100938
0.000915339
0.000784567
0.000635526
0.000491153
0.000370177
0.000298579
0.000222818
0.000162463
0.000118977
8.97471e-05
7.11169e-05
6.0984e-05
6.10554e-05
5.9764e-05
5.83062e-05
5.6404e-05
5.34538e-05
4.91243e-05
4.44634e-05
4.00103e-05
3.59628e-05
2.967e-05
2.3313e-05
5.41942e-05
4.22375e-05
7.28661e-05
0.000127634
0.000178789
0.00708878
0.0217244
0.00445522
0.000956854
0.000562828
0.000548362
0.000682468
0.00106263
0.00125386
0.00131378
0.00129189
0.00121125
0.00108021
0.000908228
0.000713819
0.000523717
0.000364328
0.000253579
0.000182637
0.000134066
9.98534e-05
7.78407e-05
6.54312e-05
6.02847e-05
6.06903e-05
6.33942e-05
6.61984e-05
6.78169e-05
6.71397e-05
6.30901e-05
5.54265e-05
4.71653e-05
3.96363e-05
3.30671e-05
2.89224e-05
4.02142e-05
4.26796e-05
5.40667e-05
0.000236034
0.000202026
0.00995876
0.0259323
0.00945555
0.00335267
0.00195174
0.00153587
0.0016887
0.00184439
0.00184901
0.00176726
0.0016436
0.00148647
0.0012905
0.00105736
0.000805622
0.000566444
0.000370159
0.000236517
0.000156655
0.00011051
8.32929e-05
6.90039e-05
6.37248e-05
6.46217e-05
6.96542e-05
7.66369e-05
8.3902e-05
9.0492e-05
9.52511e-05
9.62443e-05
8.99402e-05
7.80605e-05
6.64944e-05
5.69975e-05
5.30745e-05
5.98168e-05
7.65559e-05
0.000124472
0.000298995
0.000285913
0.0106585
0.029085
0.0158342
0.0103808
0.00708657
0.0051599
0.00406708
0.00330019
0.00277062
0.0023955
0.00209991
0.00182361
0.00152895
0.00120701
0.000879077
0.000581955
0.000346012
0.0001983
0.000118315
8.49548e-05
7.00826e-05
6.51034e-05
6.63633e-05
7.18526e-05
8.03624e-05
9.09975e-05
0.00010328
0.000117192
0.000132803
0.000149851
0.000167037
0.000175656
0.000181357
0.00019808
0.000235218
0.000353286
0.000660295
0.00127898
0.00386463
0.00113332
0.00989062
0.0168111
0.0135291
0.0102258
0.00775997
0.00601397
0.00479058
0.00395832
0.00338226
0.00294485
0.00255538
0.00215747
0.00172931
0.00128011
0.0008539
0.000500883
0.000237692
0.000129526
8.45931e-05
6.70165e-05
6.13839e-05
6.2107e-05
6.67768e-05
7.43184e-05
8.43267e-05
9.67782e-05
0.000112034
0.000130913
0.000154733
0.000185402
0.000225517
0.00027844
0.000350445
0.000460461
0.000624529
0.000849427
0.00110848
0.00133492
0.00150579
0.000936687
0.00442672
0.00664881
0.00638053
0.00581146
0.00525995
0.00466954
0.00406031
0.00344433
0.00281768
0.00218786
0.00157051
0.000970577
0.000478567
0.000229624
0.000114735
7.16339e-05
5.57852e-05
5.08897e-05
5.10189e-05
5.39554e-05
5.88103e-05
6.52978e-05
7.34505e-05
8.35337e-05
9.60729e-05
0.000111931
0.000132431
0.000159564
0.000196321
0.000247709
0.000318782
0.000416857
0.00054583
0.000694134
0.00082235
0.000876654
0.000825893
0.0005253
0.00315091
0.00635475
0.0063313
0.00526195
0.00457066
0.00406264
0.00344994
0.00274271
0.00194441
0.00126014
0.000736057
0.000384171
0.000188488
0.000100877
6.52182e-05
5.30509e-05
4.99834e-05
5.04678e-05
5.26431e-05
5.60457e-05
6.05457e-05
6.62142e-05
7.32608e-05
8.20277e-05
9.30409e-05
0.00010711
0.000125482
0.000150055
0.000183609
0.000229575
0.000292694
0.000377834
0.000485809
0.000608433
0.000701555
0.000800283
0.000747648
0.000551526
0.00207477
0.00245795
0.00276527
0.00326472
0.00275642
0.00224014
0.00181754
0.00146488
0.00120854
0.00096038
0.000710198
0.000489213
0.000304213
0.000178589
0.000107548
7.27344e-05
5.70258e-05
5.07116e-05
4.92445e-05
5.05475e-05
5.37938e-05
5.82974e-05
6.39973e-05
7.10084e-05
7.95302e-05
8.98449e-05
0.000102342
0.000117574
0.000136382
0.000160142
0.000190319
0.000227718
0.000274475
0.000333378
0.000407344
0.00051012
0.000548929
0.000510885
0.000420935
0.000337863
)
;

boundaryField
{
    floor
    {
        Cmu             0.09;
        kappa           0.41;
        E               9.8;
        type            epsilonWallFunction;
        value           nonuniform List<scalar> 
29
(
0.000567603
2.8906e-05
5.3463e-05
6.90881e-05
6.32434e-05
5.51666e-05
4.71082e-05
3.9341e-05
3.2793e-05
2.75253e-05
2.3316e-05
1.99344e-05
1.72119e-05
1.49883e-05
1.31352e-05
1.15468e-05
1.012e-05
8.74552e-06
8.08712e-06
6.35336e-06
6.35336e-06
1.63114e-05
2.65052e-05
3.66583e-05
0.000567603
2.8906e-05
4.76699e-05
0.000336326
0.000781917
)
;
    }
    ceiling
    {
        Cmu             0.09;
        kappa           0.41;
        E               9.8;
        type            epsilonWallFunction;
        value           nonuniform List<scalar> 
43
(
0.00207477
0.00245795
0.00276527
0.00326472
0.00275642
0.00224014
0.00181754
0.00146488
0.00120854
0.00096038
0.000710198
0.000489213
0.000304213
0.000178589
0.000107548
7.27344e-05
5.70258e-05
5.07116e-05
4.92445e-05
5.05475e-05
5.37938e-05
5.82974e-05
6.39973e-05
7.10084e-05
7.95302e-05
8.98449e-05
0.000102342
0.000117574
0.000136382
0.000160142
0.000190319
0.000227718
0.000274475
0.000333378
0.000407344
0.00051012
0.000548929
0.000510885
0.000420935
0.000337863
0.00989062
0.0168111
0.00315091
)
;
    }
    sWall
    {
        Cmu             0.09;
        kappa           0.41;
        E               9.8;
        type            epsilonWallFunction;
        value           uniform 0.00207477;
    }
    nWall
    {
        Cmu             0.09;
        kappa           0.41;
        E               9.8;
        type            epsilonWallFunction;
        value           nonuniform List<scalar> 6(0.000178789 0.000202026 0.000285913 0.0005253 0.000551526 0.000337863);
    }
    sideWalls
    {
        type            empty;
    }
    glass1
    {
        Cmu             0.09;
        kappa           0.41;
        E               9.8;
        type            epsilonWallFunction;
        value           nonuniform List<scalar> 9(0.000354802 0.000950091 0.00179794 0.00300546 0.004704 0.00708878 0.00995876 0.0106585 0.00989062);
    }
    glass2
    {
        Cmu             0.09;
        kappa           0.41;
        E               9.8;
        type            epsilonWallFunction;
        value           nonuniform List<scalar> 2(0.00113332 0.000936687);
    }
    sun
    {
        Cmu             0.09;
        kappa           0.41;
        E               9.8;
        type            epsilonWallFunction;
        value           nonuniform List<scalar> 
14
(
0.000354802
0.000451221
0.000467284
0.000533069
0.000598223
0.000662375
0.000727478
0.000797017
0.000859417
0.000898333
0.000901246
0.000859835
0.000776863
0.000671076
)
;
    }
    heatsource1
    {
        Cmu             0.09;
        kappa           0.41;
        E               9.8;
        type            epsilonWallFunction;
        value           nonuniform List<scalar> 3(7.28661e-05 0.000127634 0.000178789);
    }
    heatsource2
    {
        Cmu             0.09;
        kappa           0.41;
        E               9.8;
        type            epsilonWallFunction;
        value           nonuniform List<scalar> 4(0.000584505 0.000176253 0.000176253 0.000536761);
    }
    Table_master
    {
        Cmu             0.09;
        kappa           0.41;
        E               9.8;
        type            epsilonWallFunction;
        value           nonuniform List<scalar> 9(0.000108707 7.80727e-05 5.79726e-05 4.44161e-05 3.49989e-05 2.82713e-05 2.33504e-05 1.96962e-05 1.6988e-05);
    }
    Table_slave
    {
        Cmu             0.09;
        kappa           0.41;
        E               9.8;
        type            epsilonWallFunction;
        value           nonuniform List<scalar> 9(0.000151139 0.000120116 0.000101771 8.96585e-05 8.00434e-05 7.08953e-05 6.26635e-05 5.44722e-05 4.55374e-05);
    }
    inlet
    {
        type            turbulentMixingLengthDissipationRateInlet;
        mixingLength    0.01;
        phi             phi;
        k               k;
        value           uniform 0.000101881;
    }
    outlet
    {
        type            zeroGradient;
    }
}


// ************************************************************************* //
