// -*- C++ -*-
// File generated by PyFoam - sorry for the ugliness

FoamFile
{
 version 2.0;
 format ascii;
 class volVectorField;
 location "1600";
 object U;
}

dimensions [ 0 1 -1 0 0 0 0 ];

internalField nonuniform List<vector> 459
(
  (0.0340652 0.0862149 0)
  (-0.167952 0.0254754 0)
  (-0.192201 0.0171238 0)
  (-0.22205 0.0111372 0)
  (-0.242663 0.00447864 0)
  (-0.25281 -0.00257314 0)
  (-0.250817 -0.00997725 0)
  (-0.236354 -0.017616 0)
  (-0.210563 -0.0244811 0)
  (-0.176096 -0.0293627 0)
  (-0.136929 -0.0314171 0)
  (-0.09726 -0.0303254 0)
  (-0.0608745 -0.0262501 0)
  (-0.0324591 -0.0204195 0)
  (-0.0266998 -0.015178 0)
  (-0.00415115 0.00876865 0)
  (-0.0292709 -0.0170601 0)
  (-0.00754583 -0.0266616 0)
  (0.0161401 -0.0204681 0)
  (0.0311957 -0.0139852 0)
  (0.04339 -0.00894986 0)
  (0.0509601 -0.00513853 0)
  (0.0548013 -0.00313863 0)
  (0.0564216 -0.00233587 0)
  (0.0571445 -0.00200388 0)
  (0.0575745 -0.00181769 0)
  (0.0578252 -0.00168237 0)
  (0.0578483 -0.00152345 0)
  (0.0574729 -0.00118249 0)
  (0.0562058 -0.000306949 0)
  (0.052958 0.00159192 0)
  (0.0466152 0.00345792 0)
  (0.0415689 0.00499949 0)
  (-0.0143487 0.0205508 0)
  (0.207419 0.17662 0)
  (-0.156524 0.067937 0)
  (-0.155119 0.0517883 0)
  (-0.186154 0.03913 0)
  (-0.206765 0.0246347 0)
  (-0.217313 0.00836639 0)
  (-0.216026 -0.00962614 0)
  (-0.202702 -0.0279968 0)
  (-0.179124 -0.0438446 0)
  (-0.148252 -0.0546149 0)
  (-0.113954 -0.0589402 0)
  (-0.0798508 -0.0567933 0)
  (-0.0489924 -0.0488572 0)
  (-0.0242145 -0.0369223 0)
  (-0.0095469 -0.0241973 0)
  (0.00210921 -0.00736212 0)
  (0.00292656 0.0143783 0)
  (0.067303 0.0356031 0)
  (0.0228202 -0.0177756 0)
  (0.0316143 -0.0310393 0)
  (0.0427218 -0.0274399 0)
  (0.0513025 -0.0195431 0)
  (0.0574417 -0.0119823 0)
  (0.0600651 -0.00498544 0)
  (0.0605684 -0.000982077 0)
  (0.0605033 0.000676844 0)
  (0.0605862 0.00138002 0)
  (0.0607653 0.00177283 0)
  (0.0608975 0.00206597 0)
  (0.0609454 0.00242965 0)
  (0.0608709 0.00316678 0)
  (0.0601873 0.00510619 0)
  (0.0566014 0.0107319 0)
  (0.0475585 0.0149596 0)
  (0.045026 0.0175563 0)
  (-0.054495 0.0441766 0)
  (0.365819 0.264215 0)
  (-0.172038 0.108196 0)
  (-0.117042 0.0838254 0)
  (-0.147175 0.0614131 0)
  (-0.165671 0.0375595 0)
  (-0.175307 0.0111113 0)
  (-0.173091 -0.0179873 0)
  (-0.159028 -0.0470485 0)
  (-0.136209 -0.070973 0)
  (-0.108158 -0.0860876 0)
  (-0.0786296 -0.0910129 0)
  (-0.0502873 -0.0865852 0)
  (-0.0249367 -0.0741416 0)
  (-0.003991 -0.0560014 0)
  (0.0110643 -0.0344135 0)
  (0.0210689 -0.0107826 0)
  (0.0263842 0.0215855 0)
  (0.11279 -0.0259292 0)
  (0.0724479 -0.0363211 0)
  (0.0660353 -0.0370039 0)
  (0.0672007 -0.0317137 0)
  (0.0682471 -0.0238357 0)
  (0.0692777 -0.0168715 0)
  (0.0681185 -0.0136055 0)
  (0.0638745 -0.0095392 0)
  (0.0608742 -0.00735341 0)
  (0.0596073 -0.00613276 0)
  (0.0591249 -0.00537427 0)
  (0.0588843 -0.00487126 0)
  (0.0588586 -0.00444875 0)
  (0.0594637 -0.00375735 0)
  (0.0617531 -0.000875864 0)
  (0.0590755 0.0155778 0)
  (0.0452769 0.0258608 0)
  (0.051082 0.0317354 0)
  (-0.0913883 0.0675928 0)
  (0.508372 0.334722 0)
  (-0.204746 0.144051 0)
  (-0.0768117 0.111257 0)
  (-0.10504 0.0804896 0)
  (-0.118527 0.0494253 0)
  (-0.124511 0.0139012 0)
  (-0.117659 -0.0265699 0)
  (-0.100806 -0.0662293 0)
  (-0.0786969 -0.0967341 0)
  (-0.0547132 -0.114368 0)
  (-0.0319625 -0.118585 0)
  (-0.0114648 -0.111707 0)
  (0.00680757 -0.0951788 0)
  (0.0217431 -0.0732569 0)
  (0.0347958 -0.0483333 0)
  (0.0487587 -0.0221278 0)
  (0.0686619 0.00641029 0)
  (0.0971365 0.0196581 0)
  (0.101008 -0.0208361 0)
  (0.0866685 -0.0317353 0)
  (0.0777636 -0.0311894 0)
  (0.0727954 -0.0273545 0)
  (0.0690842 -0.0214691 0)
  (0.0668115 -0.0138608 0)
  (0.0681961 -0.00838476 0)
  (0.072977 -0.00653241 0)
  (0.0771189 -0.00549172 0)
  (0.0800037 -0.00470703 0)
  (0.0818694 -0.00372194 0)
  (0.0821063 -0.00222929 0)
  (0.0794326 3.26475e-05 0)
  (0.0725156 0.00335244 0)
  (0.0584661 0.0083124 0)
  (0.0457019 0.0273297 0)
  (0.0328334 0.0413651 0)
  (0.0548521 0.0507658 0)
  (-0.138239 0.0866213 0)
  (0.63129 0.389368 0)
  (-0.244934 0.173323 0)
  (-0.0371244 0.12705 0)
  (-0.0601525 0.0914095 0)
  (-0.0659233 0.0560471 0)
  (-0.0642079 0.0130349 0)
  (-0.0460392 -0.0388563 0)
  (-0.0259263 -0.0860781 0)
  (-0.00671614 -0.11886 0)
  (0.0102433 -0.135411 0)
  (0.0229564 -0.136355 0)
  (0.0327988 -0.126279 0)
  (0.0403556 -0.108017 0)
  (0.0466616 -0.0847256 0)
  (0.0527985 -0.0594259 0)
  (0.0603369 -0.0354856 0)
  (0.0715323 -0.0185469 0)
  (0.0806168 -0.0186775 0)
  (0.0807392 -0.0267931 0)
  (0.0739572 -0.0277762 0)
  (0.0655999 -0.0251801 0)
  (0.0587123 -0.0216602 0)
  (0.0534388 -0.017334 0)
  (0.0501623 -0.0121445 0)
  (0.0495655 -0.00680849 0)
  (0.0514965 -0.00438405 0)
  (0.0539465 -0.00361157 0)
  (0.056501 -0.00296143 0)
  (0.0590375 -0.0013519 0)
  (0.0611497 0.00188927 0)
  (0.0614035 0.00682338 0)
  (0.0590971 0.0135064 0)
  (0.0535489 0.0223255 0)
  (0.046449 0.0368478 0)
  (0.0352301 0.0525645 0)
  (0.0625799 0.0693154 0)
  (-0.0371876 0.0956623 0)
  (0.0471844 0.0231358 0)
  (-0.0615997 -0.0326354 0)
  (-0.2749 -0.0559582 0)
  (0.720477 0.434733 0)
  (-0.284254 0.192654 0)
  (-0.0066605 0.122614 0)
  (-0.0122922 0.0910721 0)
  (-0.00622552 0.0551385 0)
  (0.0147607 0.00106644 0)
  (0.0434298 -0.0590107 0)
  (0.0628251 -0.104528 0)
  (0.0749496 -0.132584 0)
  (0.0804964 -0.144203 0)
  (0.080827 -0.141877 0)
  (0.0777075 -0.129133 0)
  (0.0726734 -0.109368 0)
  (0.0673538 -0.0858409 0)
  (0.0630458 -0.0613845 0)
  (0.0608161 -0.0392051 0)
  (0.0611399 -0.0231436 0)
  (0.061001 -0.01728 0)
  (0.0570785 -0.0177109 0)
  (0.0497277 -0.0182681 0)
  (0.0415554 -0.0171944 0)
  (0.0345852 -0.0152186 0)
  (0.029308 -0.0126703 0)
  (0.0260728 -0.00967593 0)
  (0.0251484 -0.00702672 0)
  (0.0263132 -0.00630629 0)
  (0.0286362 -0.00662178 0)
  (0.0317543 -0.00665973 0)
  (0.0355011 -0.00527797 0)
  (0.0395693 -0.001433 0)
  (0.0436267 0.00529843 0)
  (0.0460675 0.0143214 0)
  (0.0471184 0.0253449 0)
  (0.0481804 0.0390695 0)
  (0.046711 0.0544815 0)
  (0.0720985 0.0743715 0)
  (0.0476892 0.0883937 0)
  (0.093876 0.0606928 0)
  (0.116848 0.0420785 0)
  (-0.127494 -0.00530774 0)
  (0.776075 0.476028 0)
  (-0.30301 0.177682 0)
  (0.0232885 0.0693829 0)
  (0.052383 0.0597889 0)
  (0.0754078 0.0317308 0)
  (0.118339 -0.0286007 0)
  (0.146658 -0.0818861 0)
  (0.160023 -0.117729 0)
  (0.160675 -0.136489 0)
  (0.15151 -0.140686 0)
  (0.135762 -0.13328 0)
  (0.116486 -0.117583 0)
  (0.0963014 -0.097007 0)
  (0.0773951 -0.0744646 0)
  (0.0611576 -0.0520307 0)
  (0.0485462 -0.0323952 0)
  (0.0396412 -0.0184014 0)
  (0.0328525 -0.0117836 0)
  (0.0260923 -0.010393 0)
  (0.0187357 -0.0105195 0)
  (0.011643 -0.0102396 0)
  (0.00568436 -0.00953803 0)
  (0.00121214 -0.00861881 0)
  (-0.00148024 -0.00766687 0)
  (-0.00219159 -0.00728031 0)
  (-0.0012602 -0.00807732 0)
  (0.000780915 -0.00949064 0)
  (0.00368243 -0.0105145 0)
  (0.00749427 -0.0101002 0)
  (0.0123901 -0.00706101 0)
  (0.0192892 -0.000183607 0)
  (0.026988 0.00986915 0)
  (0.034067 0.0211505 0)
  (0.0424336 0.0334191 0)
  (0.0508894 0.0459403 0)
  (0.0742873 0.0616489 0)
  (0.087638 0.065408 0)
  (0.121413 0.0424744 0)
  (0.160605 0.0393727 0)
  (-0.0280128 0.0932009 0)
  (0.882994 0.47662 0)
  (-0.0609865 0.155912 0)
  (0.114102 -0.0143486 0)
  (0.188952 -0.0520644 0)
  (0.233998 -0.0705723 0)
  (0.2619 -0.0934589 0)
  (0.272103 -0.112973 0)
  (0.264599 -0.124134 0)
  (0.24241 -0.126038 0)
  (0.210339 -0.119712 0)
  (0.173242 -0.106846 0)
  (0.135081 -0.0893472 0)
  (0.0989476 -0.0697539 0)
  (0.067031 -0.0502038 0)
  (0.0402289 -0.0317372 0)
  (0.0200497 -0.0166556 0)
  (0.00626424 -0.00717399 0)
  (-0.00278092 -0.00337414 0)
  (-0.00929558 -0.00316568 0)
  (-0.0150997 -0.00392899 0)
  (-0.0202882 -0.00456993 0)
  (-0.0246382 -0.00504444 0)
  (-0.0279821 -0.00552665 0)
  (-0.0301548 -0.00623504 0)
  (-0.0311374 -0.00748227 0)
  (-0.0312403 -0.00941143 0)
  (-0.0308747 -0.0116506 0)
  (-0.0301965 -0.0136034 0)
  (-0.0290544 -0.0146228 0)
  (-0.026989 -0.0140127 0)
  (-0.0229491 -0.0110184 0)
  (-0.0140183 -0.0049719 0)
  (-0.00218165 0.00341007 0)
  (0.00983742 0.0117072 0)
  (0.0217438 0.0173368 0)
  (0.0404136 0.0229399 0)
  (0.0556838 0.0144045 0)
  (0.0705707 -0.00945853 0)
  (0.12794 0.045007 0)
  (-0.434627 0.214171 0)
  (1.03294 0.425622 0)
  (0.491659 0.280276 0)
  (0.506282 0.182383 0)
  (0.536153 0.105853 0)
  (0.51403 0.047414 0)
  (0.464915 -0.00249816 0)
  (0.409205 -0.0396446 0)
  (0.349057 -0.0614909 0)
  (0.285522 -0.0693576 0)
  (0.221917 -0.0668383 0)
  (0.161832 -0.0576706 0)
  (0.107747 -0.0443822 0)
  (0.0616765 -0.0296985 0)
  (0.0237359 -0.0156399 0)
  (-0.00774477 -0.00357854 0)
  (-0.0254873 0.00198524 0)
  (-0.035128 0.00360006 0)
  (-0.0406427 0.00318822 0)
  (-0.0445211 0.00186178 0)
  (-0.0479364 0.000446156 0)
  (-0.0511421 -0.000776939 0)
  (-0.0541468 -0.00190297 0)
  (-0.0568937 -0.00313298 0)
  (-0.0592973 -0.00463906 0)
  (-0.0614853 -0.00650041 0)
  (-0.06381 -0.00862478 0)
  (-0.0667036 -0.010661 0)
  (-0.0705396 -0.0120897 0)
  (-0.0756834 -0.0122739 0)
  (-0.0825816 -0.0104466 0)
  (-0.0917434 -0.00574564 0)
  (-0.103485 0.00258408 0)
  (-0.116258 0.0140055 0)
  (-0.133121 0.0281091 0)
  (-0.159805 0.0444356 0)
  (-0.198454 0.061429 0)
  (-0.251563 0.0748012 0)
  (-0.309219 0.081573 0)
  (-0.374504 0.0823442 0)
  (-0.62813 0.0791143 0)
  (-0.13033 0.000344885 0)
  (0.115758 -0.0121326 0)
  (0.183063 -0.0487177 0)
  (0.170937 -0.0516834 0)
  (0.151451 -0.04378 0)
  (0.12588 -0.0339591 0)
  (0.0938253 -0.0236273 0)
  (0.0579217 -0.0130294 0)
  (0.0203502 -0.00293371 0)
  (-0.0159362 0.00586531 0)
  (-0.0400082 0.0105305 0)
  (-0.0557426 0.0126875 0)
  (-0.0639361 0.0124305 0)
  (-0.068225 0.0107656 0)
  (-0.0707304 0.00901483 0)
  (-0.0726054 0.00747506 0)
  (-0.0744511 0.00615448 0)
  (-0.076466 0.00509046 0)
  (-0.0786047 0.00417348 0)
  (-0.0807534 0.00317611 0)
  (-0.0829187 0.00191386 0)
  (-0.0852821 0.000339874 0)
  (-0.088006 -0.00139113 0)
  (-0.0912639 -0.0029562 0)
  (-0.095214 -0.00397825 0)
  (-0.0999063 -0.0040391 0)
  (-0.105259 -0.00269611 0)
  (-0.111008 0.000507625 0)
  (-0.116575 0.00603356 0)
  (-0.121119 0.0144251 0)
  (-0.125027 0.0267987 0)
  (-0.128486 0.0433249 0)
  (-0.132507 0.0625454 0)
  (-0.137426 0.0803138 0)
  (-0.139537 0.0873163 0)
  (-0.118602 0.0644957 0)
  (-0.0508278 -0.0293664 0)
  (-0.281202 -0.213158 0)
  (0.027403 0.198563 0)
  (0.0290622 0.0688083 0)
  (-0.0108683 0.00520617 0)
  (-0.0286679 -0.00158553 0)
  (-0.0482362 0.00237384 0)
  (-0.0665437 0.00577549 0)
  (-0.0828611 0.00967023 0)
  (-0.0945957 0.0134702 0)
  (-0.100629 0.015467 0)
  (-0.103969 0.015068 0)
  (-0.104397 0.0125312 0)
  (-0.103002 0.00964638 0)
  (-0.100487 0.00668251 0)
  (-0.0979724 0.00357229 0)
  (-0.0960698 0.000632275 0)
  (-0.0949401 -0.00205467 0)
  (-0.0945364 -0.00452935 0)
  (-0.0946903 -0.0067422 0)
  (-0.0951829 -0.00857637 0)
  (-0.095839 -0.00991367 0)
  (-0.0965873 -0.0106918 0)
  (-0.0974485 -0.0109187 0)
  (-0.0985437 -0.0106738 0)
  (-0.10005 -0.0101899 0)
  (-0.101994 -0.00948036 0)
  (-0.1042 -0.00829756 0)
  (-0.106289 -0.00627064 0)
  (-0.107666 -0.00289058 0)
  (-0.107604 0.00238035 0)
  (-0.104973 0.0101454 0)
  (-0.0983314 0.0213137 0)
  (-0.0865893 0.0365186 0)
  (-0.0698272 0.0547598 0)
  (-0.0488181 0.0709043 0)
  (-0.0263691 0.0781565 0)
  (0.0160675 0.057833 0)
  (0.139929 -0.0103365 0)
  (-0.206496 -0.120639 0)
  (0.930499 0.0291847 0)
  (-0.473205 -0.477056 0)
  (-0.336904 0.060092 0)
  (-0.264903 -0.0183154 0)
  (-0.221948 -0.0256118 0)
  (-0.212112 -0.0174551 0)
  (-0.207608 -0.00927585 0)
  (-0.202653 -0.00256059 0)
  (-0.19543 0.00341387 0)
  (-0.18545 0.00889314 0)
  (-0.173142 0.0135984 0)
  (-0.159812 0.0172337 0)
  (-0.146855 0.020011 0)
  (-0.13522 0.0227349 0)
  (-0.125183 0.0255257 0)
  (-0.116721 0.0283904 0)
  (-0.109583 0.031392 0)
  (-0.103492 0.0344158 0)
  (-0.0982732 0.0371537 0)
  (-0.0938587 0.0391943 0)
  (-0.0902651 0.0401399 0)
  (-0.0875607 0.0397443 0)
  (-0.0858206 0.0379869 0)
  (-0.0850814 0.0350484 0)
  (-0.0853212 0.0312743 0)
  (-0.0863706 0.0273622 0)
  (-0.0879602 0.0238274 0)
  (-0.0897329 0.020857 0)
  (-0.091153 0.0185831 0)
  (-0.0914324 0.0171323 0)
  (-0.0892192 0.0169275 0)
  (-0.0823762 0.0186562 0)
  (-0.0684547 0.0229924 0)
  (-0.0460289 0.0307164 0)
  (-0.0161027 0.0421877 0)
  (0.0340957 0.0546058 0)
  (0.0746026 0.0531122 0)
  (0.114602 0.037316 0)
  (0.166322 0.00828553 0)
  (-0.200816 -0.0472729 0)
)
;

boundaryField
{
  floor
  {
    type noSlip;
  }
  ceiling
  {
    type noSlip;
  }
  sWall
  {
    type noSlip;
  }
  nWall
  {
    type noSlip;
  }
  sideWalls
  {
    type empty;
  }
  glass1
  {
    type noSlip;
  }
  glass2
  {
    type noSlip;
  }
  sun
  {
    type noSlip;
  }
  heatsource1
  {
    type noSlip;
  }
  heatsource2
  {
    type noSlip;
  }
  Table_master
  {
    type noSlip;
  }
  Table_slave
  {
    type noSlip;
  }
  inlet
  {
    type fixedValue;
    value uniform (0.277164 -0.114805 0);
  }
  outlet
  {
    type zeroGradient;
  }
} 	// ************************************************************************* //

