// -*- C++ -*-
// File generated by PyFoam - sorry for the ugliness

FoamFile
{
 version 2.0;
 format ascii;
 class volScalarField;
 location "110";
 object T;
}

dimensions [ 0 0 0 1 0 0 0 ];

internalField nonuniform List<scalar> 459
(
  303.356
  303.409
  303.471
  303.517
  303.544
  303.561
  303.573
  303.585
  303.596
  303.605
  303.613
  303.62
  303.625
  303.627
  303.617
  304.27
  304.215
  304.182
  304.189
  304.217
  304.241
  304.26
  304.278
  304.295
  304.313
  304.332
  304.351
  304.371
  304.392
  304.414
  304.437
  304.465
  304.502
  304.569
  303.371
  303.488
  303.61
  303.703
  303.755
  303.781
  303.796
  303.804
  303.807
  303.804
  303.795
  303.781
  303.759
  303.726
  303.681
  303.687
  303.694
  304.274
  304.185
  304.145
  304.172
  304.217
  304.259
  304.285
  304.308
  304.331
  304.355
  304.381
  304.407
  304.435
  304.463
  304.488
  304.51
  304.53
  304.549
  304.613
  303.356
  303.525
  303.739
  303.925
  304.016
  304.049
  304.055
  304.044
  304.021
  303.993
  303.959
  303.92
  303.875
  303.822
  303.763
  303.736
  303.72
  304.165
  304.033
  304.078
  304.155
  304.236
  304.3
  304.314
  304.332
  304.353
  304.377
  304.404
  304.434
  304.468
  304.503
  304.535
  304.561
  304.578
  304.59
  304.639
  303.325
  303.529
  303.866
  304.224
  304.354
  304.368
  304.329
  304.271
  304.21
  304.152
  304.095
  304.037
  303.975
  303.91
  303.841
  303.792
  303.756
  303.769
  303.839
  303.938
  304.075
  304.214
  304.334
  304.424
  304.493
  304.549
  304.6
  304.648
  304.695
  304.74
  304.786
  304.834
  304.88
  304.763
  304.691
  304.655
  304.672
  303.284
  303.5
  303.943
  304.538
  304.66
  304.617
  304.528
  304.442
  304.363
  304.291
  304.221
  304.151
  304.079
  304.006
  303.934
  303.879
  303.845
  303.872
  303.969
  304.114
  304.275
  304.425
  304.548
  304.643
  304.721
  304.783
  304.833
  304.873
  304.906
  304.935
  304.96
  304.981
  304.989
  304.903
  304.8
  304.736
  304.711
  304.739
  304.924
  305.586
  303.215
  303.419
  303.915
  304.671
  304.832
  304.785
  304.701
  304.616
  304.537
  304.461
  304.388
  304.311
  304.232
  304.158
  304.092
  304.05
  304.047
  304.127
  304.27
  304.43
  304.584
  304.716
  304.818
  304.893
  304.952
  304.995
  305.026
  305.049
  305.068
  305.083
  305.093
  305.096
  305.083
  305.003
  304.908
  304.853
  304.785
  304.797
  305.04
  305.434
  303.095
  303.222
  303.695
  304.712
  304.997
  304.982
  304.909
  304.835
  304.763
  304.693
  304.624
  304.555
  304.486
  304.419
  304.373
  304.363
  304.406
  304.52
  304.662
  304.8
  304.922
  305.019
  305.088
  305.136
  305.167
  305.183
  305.193
  305.2
  305.205
  305.207
  305.203
  305.191
  305.163
  305.102
  305.034
  304.98
  304.855
  304.861
  305.094
  305.394
  302.918
  302.9
  303.235
  304.638
  305.157
  305.215
  305.169
  305.111
  305.053
  304.995
  304.939
  304.884
  304.833
  304.792
  304.77
  304.787
  304.85
  304.955
  305.061
  305.157
  305.237
  305.294
  305.329
  305.345
  305.346
  305.342
  305.338
  305.334
  305.328
  305.32
  305.308
  305.29
  305.263
  305.226
  305.182
  305.123
  304.964
  304.941
  305.11
  305.414
  302.702
  302.492
  302.444
  304.408
  305.283
  305.442
  305.445
  305.412
  305.372
  305.331
  305.291
  305.254
  305.223
  305.204
  305.202
  305.226
  305.278
  305.347
  305.408
  305.459
  305.497
  305.518
  305.522
  305.514
  305.502
  305.488
  305.476
  305.464
  305.453
  305.44
  305.427
  305.412
  305.395
  305.373
  305.341
  305.285
  305.144
  305.075
  305.176
  305.435
  301.685
  304.099
  305.415
  305.635
  305.665
  305.653
  305.631
  305.607
  305.586
  305.567
  305.554
  305.548
  305.554
  305.573
  305.602
  305.635
  305.662
  305.679
  305.685
  305.681
  305.67
  305.654
  305.637
  305.619
  305.603
  305.588
  305.573
  305.559
  305.544
  305.528
  305.51
  305.486
  305.451
  305.395
  305.313
  305.249
  305.298
  305.426
  305.343
  305.551
  305.744
  305.808
  305.817
  305.809
  305.796
  305.783
  305.773
  305.766
  305.763
  305.765
  305.771
  305.781
  305.793
  305.803
  305.809
  305.807
  305.8
  305.787
  305.77
  305.752
  305.734
  305.715
  305.697
  305.68
  305.663
  305.645
  305.627
  305.607
  305.582
  305.552
  305.513
  305.467
  305.421
  305.388
  305.411
  305.455
  306.628
  306.432
  305.892
  305.859
  305.914
  305.933
  305.934
  305.928
  305.923
  305.919
  305.917
  305.916
  305.916
  305.917
  305.918
  305.918
  305.916
  305.912
  305.903
  305.891
  305.877
  305.86
  305.842
  305.823
  305.805
  305.786
  305.768
  305.749
  305.73
  305.71
  305.687
  305.662
  305.633
  305.6
  305.565
  305.532
  305.505
  305.49
  305.5
  305.523
)
;

boundaryField
{
  floor
  {
    type wallHeatTransfer;
    Tinf uniform 297.948;
    alphaWall uniform 0.24;
    value nonuniform List<scalar> 29
(
  302.965
  303.296
  303.415
  303.433
  303.464
  303.476
  303.474
  303.453
  303.426
  303.399
  303.374
  303.352
  303.332
  303.315
  303.299
  303.284
  303.269
  303.252
  303.217
  303.233
  303.233
  303.447
  303.572
  303.706
  302.965
  303.296
  303.548
  303.485
  303.037
)
;
  }
  ceiling
  {
    type wallHeatTransfer;
    Tinf uniform 297.948;
    alphaWall uniform 0.24;
    value nonuniform List<scalar> 43
(
  305.782
  305.58
  305.313
  305.339
  305.405
  305.429
  305.434
  305.432
  305.429
  305.426
  305.424
  305.423
  305.423
  305.423
  305.424
  305.425
  305.423
  305.418
  305.409
  305.395
  305.379
  305.36
  305.341
  305.321
  305.302
  305.283
  305.265
  305.248
  305.232
  305.215
  305.198
  305.178
  305.155
  305.126
  305.091
  305.058
  305.037
  305.036
  305.055
  305.041
  302.321
  302.134
  304.95
)
;
  }
  sWall
  {
    type wallHeatTransfer;
    Tinf uniform 300.167;
    alphaWall uniform 0.36;
    value uniform 305.727;
  }
  nWall
  {
    type wallHeatTransfer;
    Tinf uniform 299.15;
    alphaWall uniform 0.36;
    value nonuniform List<scalar> 6
(
  304.723
  304.75
  304.858
  304.993
  304.953
  304.934
)
;
  }
  sideWalls
  {
    type empty;
  }
  glass1
  {
    type wallHeatTransfer;
    Tinf uniform 300.167;
    alphaWall uniform 4.3;
    value nonuniform List<scalar> 9
(
  301.441
  301.539
  301.549
  301.524
  301.5
  301.459
  301.392
  301.295
  301.158
)
;
  }
  glass2
  {
    type wallHeatTransfer;
    Tinf uniform 299.15;
    alphaWall uniform 4.3;
    value nonuniform List<scalar> 2
(
  302.549
  302.717
)
;
  }
  sun
  {
    type wallHeatTransfer;
    Tinf uniform 297.948;
    alphaWall uniform 0.24;
    value nonuniform List<scalar> 14
(
  302.936
  303.046
  303.104
  303.131
  303.138
  303.134
  303.127
  303.12
  303.111
  303.101
  303.088
  303.072
  303.05
  303.018
)
;
  }
  heatsource1
  {
    type fixedGradient;
    gradient uniform 0;
  }
  heatsource2
  {
    type fixedGradient;
    gradient uniform 0;
  }
  Table_master
  {
    type zeroGradient;
  }
  Table_slave
  {
    type zeroGradient;
  }
  inlet
  {
    type fixedValue;
    value uniform 300.15;
  }
  outlet
  {
    type zeroGradient;
  }
} 	// ************************************************************************* //

