/*--------------------------------*- C++ -*----------------------------------*\
  =========                 |
  \\      /  F ield         | OpenFOAM: The Open Source CFD Toolbox
   \\    /   O peration     | Website:  https://openfoam.org
    \\  /    A nd           | Version:  6
     \\/     M anipulation  |
\*---------------------------------------------------------------------------*/
FoamFile
{
    version     2.0;
    format      ascii;
    class       volScalarField;
    location    "210";
    object      alphat;
}
// * * * * * * * * * * * * * * * * * * * * * * * * * * * * * * * * * * * * * //

dimensions      [1 -1 -1 0 0 0 0];

internalField   nonuniform List<scalar> 
459
(
0.00116199
0.00127977
0.00131598
0.00138502
0.00145113
0.00151687
0.00158354
0.00163392
0.00166006
0.00165462
0.00161337
0.00153179
0.00138275
0.0011711
0.000975135
0.00069704
0.000858789
0.000858942
0.000856357
0.000841153
0.000812724
0.000762466
0.000709082
0.000660139
0.000616661
0.000578153
0.000544272
0.000514002
0.000486389
0.000460363
0.000434506
0.000409033
0.000378112
0.000417034
0.00154469
0.00389744
0.00378925
0.00441435
0.00505216
0.00564318
0.00608825
0.00651157
0.00688327
0.00716033
0.00730413
0.00727415
0.00701458
0.00639024
0.00445299
0.00121618
0.000918767
0.00101069
0.00323252
0.00298983
0.00321667
0.0033873
0.00325316
0.00235303
0.00196131
0.00170307
0.00151341
0.00136709
0.00124262
0.00113141
0.00102674
0.000925368
0.000839423
0.000842139
0.000799664
0.000530499
0.00185997
0.00527494
0.00470192
0.0056159
0.00607484
0.00642704
0.00672141
0.00707429
0.00748812
0.00792084
0.00831134
0.00857267
0.00860735
0.00828926
0.00731146
0.00487989
0.00120311
0.00109455
0.00286178
0.00343164
0.00400826
0.0043779
0.00400641
0.00105144
0.000909732
0.00079858
0.000711414
0.000642372
0.000587301
0.000543222
0.000508358
0.00048265
0.000549757
0.000725006
0.000930356
0.000589286
0.00215896
0.00655485
0.00473227
0.00578632
0.00600016
0.00609961
0.00626427
0.00655508
0.00699705
0.00753686
0.00809757
0.00854533
0.0087861
0.00879529
0.00842182
0.00713866
0.00398665
0.00139416
0.00215415
0.00303854
0.00409483
0.00498296
0.00547272
0.00493057
0.00115696
0.00104557
0.000969864
0.00091551
0.000873251
0.000835798
0.000798429
0.000760606
0.00071692
0.000685894
0.000746012
0.00107021
0.000665271
0.0024629
0.00818128
0.00506944
0.00567482
0.00584915
0.00581025
0.0059083
0.00614566
0.00660516
0.00720004
0.00781261
0.00831393
0.00862336
0.00873125
0.0086243
0.00813855
0.00698463
0.006163
0.00622463
0.00656803
0.00692397
0.00715403
0.00717616
0.00681779
0.00555423
0.00497118
0.00465272
0.00444548
0.00427549
0.00409343
0.00382004
0.00338445
0.00280872
0.00218539
0.00168081
0.00154216
0.00110768
0.000745173
0.000724637
0.000681849
0.00278662
0.00999924
0.00667135
0.00583707
0.00607405
0.00591472
0.00590754
0.00606686
0.006481
0.00709918
0.00775956
0.00829155
0.00859601
0.00868426
0.00864496
0.00855924
0.00842739
0.00849665
0.00864343
0.00873281
0.0086954
0.00851313
0.00819373
0.00773793
0.00714037
0.0066547
0.00628643
0.00599462
0.00574697
0.00551285
0.0052489
0.00487119
0.00434746
0.00370043
0.00302945
0.00251123
0.00195957
0.00151058
0.00160561
0.000819777
0.00308347
0.0113051
0.00919163
0.00729175
0.00689578
0.00639477
0.00609241
0.00615666
0.00659726
0.00728856
0.00801715
0.00857965
0.00887238
0.00893676
0.00893452
0.00905118
0.00931111
0.00959272
0.00970459
0.00959384
0.0092898
0.00884172
0.00830055
0.00772033
0.00716723
0.00671591
0.0063635
0.00608371
0.00585716
0.00566317
0.00546956
0.00523956
0.00494339
0.00451726
0.00399168
0.00346111
0.00287597
0.00229026
0.00210354
0.000960093
0.00314667
0.010162
0.00894275
0.00810644
0.00716039
0.00635549
0.00603839
0.00626618
0.00693454
0.00781382
0.0086368
0.00920427
0.00945507
0.00949006
0.00948622
0.00957022
0.00967266
0.00971491
0.00961051
0.00930477
0.00883099
0.00826375
0.00766908
0.00711268
0.00664728
0.0062837
0.00599209
0.00574564
0.00553635
0.00536021
0.00519727
0.00501575
0.00483312
0.00468555
0.00438348
0.0040445
0.00363609
0.00295945
0.00312584
0.00117061
0.00306994
0.00365322
0.00419077
0.00426309
0.00439161
0.00477486
0.00549423
0.00655456
0.00778818
0.00890494
0.00969288
0.0100811
0.0101338
0.0100035
0.00964566
0.00927279
0.00901975
0.00882112
0.00857961
0.00826455
0.0078872
0.00748074
0.00709441
0.00675525
0.00646802
0.006211
0.00595313
0.00567615
0.00538039
0.00507443
0.00474877
0.00434945
0.00386033
0.00339053
0.00302073
0.00270733
0.00244182
0.00222369
0.00207828
0.00127908
0.00228357
0.00413311
0.00564056
0.00696424
0.00821191
0.00939835
0.0102842
0.0107179
0.010772
0.0104711
0.00989281
0.00929783
0.0088299
0.00851694
0.00832367
0.00818212
0.00804661
0.00790769
0.0077732
0.00764803
0.0075275
0.00739589
0.00724561
0.00705905
0.00681587
0.00649714
0.00608992
0.00560124
0.00505772
0.0044833
0.0039218
0.00342407
0.00302062
0.00273242
0.00253622
0.00238078
0.0022855
0.00157855
0.00221091
0.00460849
0.00675862
0.00827995
0.00961535
0.0107297
0.0111667
0.010952
0.010385
0.00973372
0.00918426
0.0087977
0.00857402
0.00847117
0.0084423
0.00845071
0.00847225
0.00849502
0.00851579
0.0085343
0.00854788
0.00854703
0.00852156
0.00845838
0.00835143
0.00817893
0.00789915
0.00749662
0.00697158
0.00633126
0.00562063
0.0049091
0.00425939
0.00371577
0.00328638
0.00297508
0.00378623
0.0018196
0.00166019
0.00179695
0.00194744
0.00203823
0.0021153
0.00224198
0.0023255
0.00235436
0.00232483
0.00227326
0.00220379
0.00213672
0.00208737
0.00205734
0.00204234
0.00203738
0.00203783
0.00204023
0.00204256
0.00204411
0.00204482
0.00204468
0.00204352
0.00204127
0.00203714
0.00203029
0.00201729
0.0019944
0.00196124
0.0019168
0.0018618
0.00180053
0.0017378
0.00167851
0.00162733
0.00158626
0.00155164
0.00151797
0.00157652
0.00152315
)
;

boundaryField
{
    floor
    {
        type            compressible::alphatWallFunction;
        Prt             0.85;
        value           nonuniform List<scalar> 
29
(
0.000139157
9.91123e-05
0.000122595
0.000122622
0.000122254
0.000120071
0.000115975
0.000108691
0.00010089
9.36745e-05
8.72097e-05
8.14366e-05
7.63176e-05
7.17104e-05
6.74776e-05
6.346e-05
5.94396e-05
5.54487e-05
5.05604e-05
5.67031e-05
5.67024e-05
7.42277e-05
8.31141e-05
9.44392e-05
0.000139155
9.91112e-05
0.000144174
0.000155917
0.000197087
)
;
    }
    ceiling
    {
        type            compressible::alphatWallFunction;
        Prt             0.85;
        value           nonuniform List<scalar> 
43
(
0.000232663
0.000250762
0.000270512
0.000282418
0.000292461
0.000308834
0.000319575
0.000323279
0.0003195
0.000312885
0.000303944
0.000295284
0.000288893
0.000284998
0.000283049
0.000282406
0.000282464
0.000282777
0.000283081
0.000283283
0.000283375
0.000283356
0.000283206
0.000282914
0.000282376
0.000281486
0.000279794
0.000276812
0.000272487
0.000266677
0.000259466
0.000251406
0.000243122
0.000235261
0.000228452
0.000222969
0.000218335
0.000213819
0.000221666
0.000214516
0.000413641
0.000485581
0.000304625
)
;
    }
    sWall
    {
        type            compressible::alphatWallFunction;
        Prt             0.85;
        value           uniform 0.000231575;
    }
    nWall
    {
        type            compressible::alphatWallFunction;
        Prt             0.85;
        value           nonuniform List<scalar> 6(9.64699e-05 0.000116564 0.000136598 0.000221464 0.000253434 0.000214042);
    }
    sideWalls
    {
        type            empty;
    }
    glass1
    {
        type            compressible::alphatWallFunction;
        Prt             0.85;
        value           nonuniform List<scalar> 9(0.000162014 0.000213581 0.00025506 0.000293738 0.000332509 0.000373275 0.00041025 0.000418156 0.000408799);
    }
    glass2
    {
        type            compressible::alphatWallFunction;
        Prt             0.85;
        value           nonuniform List<scalar> 2(0.000165401 0.000180309);
    }
    sun
    {
        type            compressible::alphatWallFunction;
        Prt             0.85;
        value           nonuniform List<scalar> 
14
(
0.000165301
0.000181506
0.000186457
0.000195854
0.000204802
0.000213655
0.00022259
0.000229313
0.000232792
0.000232066
0.000226569
0.000215653
0.000195535
0.000166543
)
;
    }
    heatsource1
    {
        type            compressible::alphatWallFunction;
        Prt             0.85;
        value           nonuniform List<scalar> 3(0.000105932 0.000102932 9.6647e-05);
    }
    heatsource2
    {
        type            compressible::alphatWallFunction;
        Prt             0.85;
        value           nonuniform List<scalar> 4(0.000172516 0.000130926 0.000130924 0.00017071);
    }
    Table_master
    {
        type            compressible::alphatWallFunction;
        Prt             0.85;
        value           nonuniform List<scalar> 9(0.000149641 0.000129634 0.000113684 0.000100991 9.08028e-05 8.25807e-05 7.59311e-05 7.06239e-05 6.66814e-05);
    }
    Table_slave
    {
        type            compressible::alphatWallFunction;
        Prt             0.85;
        value           nonuniform List<scalar> 9(0.000164339 0.000148823 0.000138169 0.00013046 0.000124429 0.000119056 0.000113665 0.000108179 0.000101801);
    }
    inlet
    {
        type            fixedValue;
        value           uniform 1.94e-05;
    }
    outlet
    {
        type            zeroGradient;
    }
}


// ************************************************************************* //
