/*--------------------------------*- C++ -*----------------------------------*\
  =========                 |
  \\      /  F ield         | OpenFOAM: The Open Source CFD Toolbox
   \\    /   O peration     | Website:  https://openfoam.org
    \\  /    A nd           | Version:  6
     \\/     M anipulation  |
\*---------------------------------------------------------------------------*/
FoamFile
{
    version     2.0;
    format      ascii;
    class       volScalarField;
    location    "210";
    object      epsilon;
}
// * * * * * * * * * * * * * * * * * * * * * * * * * * * * * * * * * * * * * //

dimensions      [0 2 -3 0 0 0 0];

internalField   nonuniform List<scalar> 
459
(
0.000363317
0.000484564
0.000526848
0.000614203
0.000706425
0.000806849
0.000917979
0.00100835
0.00105744
0.00104697
0.000970523
0.000830563
0.000610854
0.000371068
0.000214173
7.8212e-05
0.000146339
0.0001465
0.000145223
0.000137645
0.000124166
0.000102528
8.24647e-05
6.6539e-05
5.42374e-05
4.46966e-05
3.72892e-05
3.14065e-05
2.66112e-05
2.25632e-05
1.89702e-05
1.58249e-05
1.24993e-05
1.67586e-05
0.000854575
0.00115031
0.000449427
0.000445191
0.000478047
0.000535511
0.000618429
0.000700833
0.000754361
0.000757217
0.000705642
0.000611135
0.000483819
0.000368998
0.000259001
0.000415749
0.000179273
0.000238675
0.000438844
0.000209989
0.000151376
0.000123346
0.000106525
0.000102913
8.31074e-05
6.51728e-05
5.10883e-05
4.03316e-05
3.22054e-05
2.60247e-05
2.13028e-05
1.7925e-05
1.61628e-05
2.0369e-05
2.49392e-05
3.45405e-05
0.00149382
0.00260226
0.000526509
0.000425707
0.00046611
0.000551983
0.000669708
0.000778742
0.000843812
0.00084853
0.000795122
0.000697013
0.000570548
0.000457197
0.000356544
0.000320062
0.000402541
0.000303207
0.000325777
0.000217998
0.000167931
0.000137336
0.000125601
0.000269083
0.000174295
0.000117899
8.33558e-05
6.13681e-05
4.69008e-05
3.71145e-05
3.04179e-05
2.60325e-05
2.04126e-05
2.22447e-05
3.61029e-05
4.73617e-05
0.00233922
0.00519669
0.000775085
0.00043769
0.000478838
0.000607737
0.000782607
0.000912838
0.000975322
0.000971176
0.00090667
0.000794044
0.000663394
0.00053999
0.000438268
0.000367605
0.000338494
0.000626467
0.000447804
0.000307119
0.000229178
0.000181579
0.000150604
0.00014123
0.000358719
0.000264813
0.000211388
0.000177829
0.000154344
0.000135341
0.000117999
0.000102021
8.54382e-05
5.08103e-05
3.6234e-05
6.17614e-05
6.81753e-05
0.0034772
0.00912973
0.00143351
0.000520389
0.000535475
0.00076921
0.00101877
0.00114007
0.00117417
0.00114331
0.00105369
0.000915391
0.000752019
0.000593965
0.000464347
0.000372057
0.000318995
0.000304704
0.000276637
0.00024811
0.000218369
0.000189628
0.000163907
0.000144141
0.000142549
0.00013222
0.000122434
0.000113711
0.000105321
9.63509e-05
8.62352e-05
7.5701e-05
6.54494e-05
5.30219e-05
4.23042e-05
6.15697e-05
7.1049e-05
9.5856e-05
8.81505e-05
7.3456e-05
0.00504229
0.0135863
0.00312015
0.000940282
0.000816579
0.00127329
0.0014683
0.00150323
0.00147095
0.00139294
0.00125894
0.00107098
0.000854292
0.000646737
0.000479668
0.000366797
0.000307337
0.000285
0.00027219
0.000256379
0.000235642
0.000211542
0.000186835
0.000164683
0.000149961
0.000141257
0.000135779
0.000130667
0.000124347
0.000115957
0.000105063
9.13099e-05
7.75316e-05
6.51665e-05
5.468e-05
5.72184e-05
6.86399e-05
7.59748e-05
0.000161775
0.000127682
0.00683892
0.0163877
0.0065481
0.00289064
0.00239354
0.00237512
0.00222525
0.00205443
0.00189985
0.00173723
0.00152884
0.00126643
0.00097883
0.000712767
0.00050853
0.000381016
0.00032309
0.000307156
0.00030057
0.000288833
0.000270076
0.000247036
0.000223564
0.000203452
0.000190447
0.00018458
0.00018149
0.000177136
0.000169746
0.00015941
0.000147236
0.000134195
0.000118342
0.00010527
9.63101e-05
9.23563e-05
9.57569e-05
0.000103436
0.000261363
0.00020515
0.00727922
0.0186989
0.010294
0.00694977
0.00524022
0.00402211
0.00324251
0.00276379
0.00245077
0.00217775
0.00186224
0.00149372
0.00111459
0.000783281
0.000551312
0.000423961
0.000376173
0.000366785
0.000362212
0.000350934
0.000333326
0.000314432
0.000298368
0.000287823
0.000283382
0.00028248
0.000280078
0.000271883
0.0002565
0.00023657
0.000217966
0.000207319
0.000207895
0.000213384
0.000236332
0.000272048
0.000325815
0.000396242
0.00146768
0.000372123
0.00677397
0.0113937
0.00946068
0.00720743
0.00558346
0.00450736
0.00381513
0.00338412
0.00305935
0.00268744
0.00221128
0.00168951
0.00121189
0.00083738
0.000640274
0.000557877
0.000530899
0.000527745
0.000527028
0.000520288
0.000510924
0.000505853
0.0005069
0.000513617
0.000522169
0.00052673
0.000520835
0.000498173
0.000455662
0.000398499
0.000340226
0.00029892
0.000288205
0.000310187
0.000359687
0.000441893
0.000557464
0.000706448
0.00087274
0.000485835
0.0041151
0.00580078
0.00514418
0.00463327
0.00434
0.0040961
0.00367607
0.00301851
0.00224163
0.00162402
0.00129849
0.00113347
0.00106264
0.0010461
0.00105621
0.00107673
0.00109909
0.00112053
0.00114168
0.00116297
0.00118692
0.00121725
0.00124362
0.00125519
0.00124317
0.0011944
0.00109514
0.000947696
0.000773648
0.000617658
0.000499918
0.000430743
0.000421845
0.000472745
0.00057211
0.000697921
0.000859516
0.00091356
0.00241412
0.00390359
0.00505894
0.00561548
0.00597817
0.00596416
0.00535538
0.00443575
0.00359412
0.00300878
0.00269771
0.00256522
0.00254321
0.00258265
0.00265838
0.00275433
0.00285609
0.002954
0.00304607
0.00313526
0.00322294
0.00330466
0.00337942
0.00344017
0.0034767
0.00346124
0.00335154
0.00312854
0.00279421
0.00236825
0.00190936
0.00148638
0.00115223
0.000934349
0.000821366
0.000797303
0.00194856
0.00139917
0.00103546
0.00131157
0.00166936
0.00193524
0.00217595
0.00259836
0.00290598
0.00302012
0.00291079
0.00272321
0.00248228
0.00226326
0.00211056
0.00202115
0.00197752
0.00196335
0.00196479
0.00197184
0.00197869
0.00198323
0.00198528
0.00198484
0.00198143
0.00197487
0.00196286
0.00194309
0.00190598
0.0018418
0.00175145
0.00163506
0.0014983
0.00135521
0.00121844
0.00109792
0.00100053
0.00092666
0.000867301
0.0008121
0.000909798
0.000820756
)
;

boundaryField
{
    floor
    {
        Cmu             0.09;
        kappa           0.41;
        E               9.8;
        type            epsilonWallFunction;
        value           nonuniform List<scalar> 
29
(
0.000214173
7.8212e-05
0.000146339
0.0001465
0.000145223
0.000137645
0.000124166
0.000102528
8.24647e-05
6.6539e-05
5.42374e-05
4.46966e-05
3.72892e-05
3.14065e-05
2.66112e-05
2.25632e-05
1.89702e-05
1.58249e-05
1.24993e-05
1.67586e-05
1.67586e-05
3.45405e-05
4.73617e-05
6.81753e-05
0.000214173
7.8212e-05
0.000238675
0.000303207
0.000626467
)
;
    }
    ceiling
    {
        Cmu             0.09;
        kappa           0.41;
        E               9.8;
        type            epsilonWallFunction;
        value           nonuniform List<scalar> 
43
(
0.00103546
0.00131157
0.00166936
0.00193524
0.00217595
0.00259836
0.00290598
0.00302012
0.00291079
0.00272321
0.00248228
0.00226326
0.00211056
0.00202115
0.00197752
0.00196335
0.00196479
0.00197184
0.00197869
0.00198323
0.00198528
0.00198484
0.00198143
0.00197487
0.00196286
0.00194309
0.00190598
0.0018418
0.00175145
0.00163506
0.0014983
0.00135521
0.00121844
0.00109792
0.00100053
0.00092666
0.000867301
0.0008121
0.000909798
0.000820756
0.00677397
0.0113937
0.00241412
)
;
    }
    sWall
    {
        Cmu             0.09;
        kappa           0.41;
        E               9.8;
        type            epsilonWallFunction;
        value           uniform 0.00103546;
    }
    nWall
    {
        Cmu             0.09;
        kappa           0.41;
        E               9.8;
        type            epsilonWallFunction;
        value           nonuniform List<scalar> 6(7.3456e-05 0.000127682 0.00020515 0.00091356 0.00139917 0.000820756);
    }
    sideWalls
    {
        type            empty;
    }
    glass1
    {
        Cmu             0.09;
        kappa           0.41;
        E               9.8;
        type            epsilonWallFunction;
        value           nonuniform List<scalar> 9(0.000363317 0.000854575 0.00149382 0.00233922 0.0034772 0.00504229 0.00683892 0.00727922 0.00677397);
    }
    glass2
    {
        Cmu             0.09;
        kappa           0.41;
        E               9.8;
        type            epsilonWallFunction;
        value           nonuniform List<scalar> 2(0.000372123 0.000485835);
    }
    sun
    {
        Cmu             0.09;
        kappa           0.41;
        E               9.8;
        type            epsilonWallFunction;
        value           nonuniform List<scalar> 
14
(
0.000363317
0.000484564
0.000526848
0.000614203
0.000706425
0.000806849
0.000917979
0.00100835
0.00105744
0.00104697
0.000970523
0.000830563
0.000610854
0.000371068
)
;
    }
    heatsource1
    {
        Cmu             0.09;
        kappa           0.41;
        E               9.8;
        type            epsilonWallFunction;
        value           nonuniform List<scalar> 3(9.5856e-05 8.81505e-05 7.3456e-05);
    }
    heatsource2
    {
        Cmu             0.09;
        kappa           0.41;
        E               9.8;
        type            epsilonWallFunction;
        value           nonuniform List<scalar> 4(0.000415749 0.000179273 0.000179273 0.000402541);
    }
    Table_master
    {
        Cmu             0.09;
        kappa           0.41;
        E               9.8;
        type            epsilonWallFunction;
        value           nonuniform List<scalar> 9(0.000269083 0.000174295 0.000117899 8.33558e-05 6.13681e-05 4.69008e-05 3.71145e-05 3.04179e-05 2.60325e-05);
    }
    Table_slave
    {
        Cmu             0.09;
        kappa           0.41;
        E               9.8;
        type            epsilonWallFunction;
        value           nonuniform List<scalar> 9(0.000358719 0.000264813 0.000211388 0.000177829 0.000154344 0.000135341 0.000117999 0.000102021 8.54382e-05);
    }
    inlet
    {
        type            turbulentMixingLengthDissipationRateInlet;
        mixingLength    0.01;
        phi             phi;
        k               k;
        value           uniform 3.01869e-05;
    }
    outlet
    {
        type            zeroGradient;
    }
}


// ************************************************************************* //
