/*--------------------------------*- C++ -*----------------------------------*\
  =========                 |
  \\      /  F ield         | OpenFOAM: The Open Source CFD Toolbox
   \\    /   O peration     | Website:  https://openfoam.org
    \\  /    A nd           | Version:  6
     \\/     M anipulation  |
\*---------------------------------------------------------------------------*/
FoamFile
{
    version     2.0;
    format      ascii;
    class       volScalarField;
    location    "210";
    object      nut;
}
// * * * * * * * * * * * * * * * * * * * * * * * * * * * * * * * * * * * * * //

dimensions      [0 2 -1 0 0 0 0];

internalField   nonuniform List<scalar> 
459
(
0.00100879
0.00111042
0.00114182
0.00120173
0.00125909
0.00131613
0.00137397
0.00141766
0.0014403
0.00143554
0.00139972
0.00132893
0.00119961
0.00101596
0.000845863
0.000604595
0.000745041
0.000745293
0.00074311
0.000729951
0.000705301
0.000661692
0.000615364
0.000572888
0.000535155
0.000501733
0.000472328
0.000446057
0.000422091
0.000399503
0.00037706
0.00035495
0.000328104
0.000361783
0.0013416
0.00338229
0.00328831
0.00383084
0.00438439
0.00489731
0.00528348
0.00565061
0.00597279
0.00621282
0.00633731
0.00631118
0.00608596
0.00554424
0.00386334
0.00105516
0.000797144
0.000876941
0.00280508
0.00259466
0.00279169
0.00293994
0.00282363
0.00204238
0.0017024
0.00147826
0.00131365
0.00118666
0.00107862
0.000982093
0.000891236
0.000803239
0.000728619
0.000730944
0.000694022
0.000460408
0.00161612
0.00457845
0.00408087
0.00487431
0.00527283
0.00557863
0.00583405
0.00613988
0.0064983
0.00687305
0.00721135
0.0074379
0.00746804
0.00719216
0.0063438
0.00423406
0.00104389
0.000949792
0.00248349
0.00297825
0.00347895
0.00380005
0.0034778
0.000912718
0.000789716
0.000693236
0.000617576
0.000557648
0.000509847
0.000471587
0.000441323
0.000419005
0.000477257
0.000629367
0.000807564
0.000511495
0.00187672
0.00569036
0.00410773
0.005023
0.00520902
0.00529565
0.00543853
0.00569029
0.00607275
0.00654012
0.00702593
0.0074142
0.00762321
0.00763141
0.00730754
0.00619422
0.00345923
0.00120973
0.0018693
0.00263697
0.00355402
0.0043253
0.00475089
0.00428059
0.00100452
0.000907864
0.000842173
0.000795016
0.000758353
0.000725857
0.000693428
0.000660599
0.000622671
0.000595656
0.000647774
0.000929142
0.000577531
0.00214184
0.00710371
0.00440099
0.0049269
0.00507889
0.00504568
0.00513068
0.00533574
0.00573302
0.00624795
0.00677865
0.00721338
0.00748206
0.00757606
0.00748361
0.00706231
0.00606113
0.00534837
0.00540225
0.00570081
0.0060104
0.00621081
0.00623068
0.00592008
0.00482332
0.00431731
0.00404099
0.0038612
0.00371371
0.00355571
0.00331831
0.00293996
0.00243983
0.00189825
0.0014598
0.00133918
0.00096175
0.000647005
0.000629184
0.00059208
0.00242431
0.00868437
0.00579271
0.00506852
0.00527507
0.00513753
0.00513078
0.00526766
0.00562536
0.0061603
0.00673241
0.00719383
0.00745841
0.00753563
0.00750213
0.00742819
0.00731414
0.00737475
0.00750281
0.00758119
0.00754958
0.00739217
0.00711559
0.00672039
0.00620191
0.00578046
0.00546088
0.00520761
0.00499265
0.00478938
0.00456013
0.00423198
0.00377692
0.00321466
0.00263156
0.00218117
0.00170178
0.00131179
0.00139427
0.000711899
0.00268354
0.00982215
0.00798391
0.00633371
0.00599057
0.00555555
0.00529164
0.00534534
0.00572564
0.0063239
0.00695533
0.00744359
0.00769845
0.00775539
0.0077544
0.00785641
0.00808271
0.00832789
0.00842583
0.00833058
0.00806749
0.00767918
0.00720987
0.00670643
0.00622639
0.00583461
0.00552865
0.00528571
0.00508896
0.00492046
0.00475224
0.00455238
0.00429498
0.0039246
0.00346778
0.00300662
0.00249805
0.00198913
0.00182686
0.000833809
0.00273994
0.00883703
0.00777436
0.00704647
0.00622373
0.00552235
0.00524402
0.00543881
0.00601645
0.00677802
0.00749201
0.00798548
0.0082048
0.00823688
0.00823493
0.00830889
0.00839867
0.00843615
0.00834631
0.0080816
0.00767087
0.00717878
0.00666267
0.00617963
0.00577552
0.00545977
0.00520648
0.00499237
0.00481051
0.00465744
0.00451581
0.00435804
0.00419928
0.00407095
0.00380834
0.00351364
0.00315858
0.00257061
0.00271498
0.00101689
0.00267502
0.00318128
0.00364735
0.00370847
0.0038178
0.00414685
0.00476732
0.00568418
0.00675278
0.00772195
0.0084076
0.00874734
0.00879578
0.008685
0.00837581
0.00805295
0.0078339
0.00766206
0.00745293
0.00717981
0.00685246
0.00649968
0.00616427
0.00586972
0.00562022
0.00539692
0.00517283
0.00493212
0.00467507
0.00440915
0.0041261
0.00377906
0.003354
0.00294574
0.00262439
0.00235206
0.00212138
0.0019319
0.00180564
0.00111141
0.00195782
0.00355585
0.00486095
0.00601103
0.00709812
0.00813434
0.0089106
0.00929403
0.0093469
0.00908997
0.00859029
0.00807511
0.00766962
0.00739844
0.00723107
0.00710858
0.00699126
0.0068709
0.00675428
0.00664568
0.00654103
0.00642669
0.0062961
0.00613394
0.00592257
0.00564554
0.00529161
0.00486691
0.00439457
0.0038954
0.00340747
0.00297497
0.00262441
0.002374
0.00220355
0.00206855
0.00198586
0.00137179
0.00189658
0.00396447
0.00582617
0.00715237
0.00832082
0.00929857
0.00968568
0.00950502
0.00901659
0.00845335
0.00797752
0.00764262
0.0074489
0.00735999
0.00733527
0.00734288
0.00736183
0.00738179
0.00739994
0.00741608
0.00742789
0.00742712
0.00740493
0.00734997
0.00725696
0.007107
0.00686381
0.00651397
0.00605768
0.00550124
0.00488372
0.00426543
0.00370088
0.00322853
0.00285545
0.00258501
0.00328998
0.00158124
0.00143029
0.00154755
0.00167712
0.00176179
0.00183196
0.00194357
0.00201744
0.00204354
0.0020186
0.00197427
0.00191425
0.00185621
0.00181348
0.0017875
0.00177454
0.00177029
0.00177072
0.00177283
0.00177488
0.00177623
0.00177685
0.00177671
0.00177569
0.00177373
0.00177013
0.00176416
0.00175286
0.00173296
0.00170414
0.00166552
0.00161772
0.00156449
0.00150998
0.00145846
0.00141399
0.0013783
0.00134823
0.001319
0.0013699
0.00132367
)
;

boundaryField
{
    floor
    {
        type            nutkWallFunction;
        Cmu             0.09;
        kappa           0.41;
        E               9.8;
        value           nonuniform List<scalar> 
29
(
0.00010242
7.29085e-05
9.02256e-05
9.02583e-05
8.99931e-05
8.83877e-05
8.53705e-05
8.00015e-05
7.4251e-05
6.89326e-05
6.41678e-05
5.99131e-05
5.61408e-05
5.27459e-05
4.96271e-05
4.66672e-05
4.37054e-05
4.07656e-05
3.71647e-05
4.16797e-05
4.16796e-05
5.46048e-05
6.11603e-05
6.95167e-05
0.00010242
7.29085e-05
0.000106145
0.000114811
0.000145161
)
;
    }
    ceiling
    {
        type            nutkWallFunction;
        Cmu             0.09;
        kappa           0.41;
        E               9.8;
        value           nonuniform List<scalar> 
43
(
0.00017028
0.000183471
0.000197924
0.000207347
0.000215113
0.000227372
0.000235446
0.000238294
0.000235581
0.000230749
0.000224184
0.000217814
0.000213112
0.000210247
0.000208816
0.000208347
0.000208395
0.000208629
0.000208856
0.000209005
0.000209073
0.000209059
0.000208946
0.000208729
0.000208331
0.000207671
0.000206421
0.000204218
0.000201024
0.000196733
0.000191407
0.000185455
0.000179338
0.000173533
0.000168505
0.000164457
0.000161036
0.000157704
0.000163502
0.000158237
0.00030608
0.000359145
0.000222079
)
;
    }
    sWall
    {
        type            nutkWallFunction;
        Cmu             0.09;
        kappa           0.41;
        E               9.8;
        value           uniform 0.000170323;
    }
    nWall
    {
        type            nutkWallFunction;
        Cmu             0.09;
        kappa           0.41;
        E               9.8;
        value           nonuniform List<scalar> 6(7.13286e-05 8.61744e-05 0.000100975 0.000163734 0.000187351 0.000158254);
    }
    sideWalls
    {
        type            empty;
    }
    glass1
    {
        type            nutkWallFunction;
        Cmu             0.09;
        kappa           0.41;
        E               9.8;
        value           nonuniform List<scalar> 9(0.00012184 0.000160415 0.000191412 0.000220301 0.000249248 0.00027967 0.000307261 0.000313231 0.000306373);
    }
    glass2
    {
        type            nutkWallFunction;
        Cmu             0.09;
        kappa           0.41;
        E               9.8;
        value           nonuniform List<scalar> 2(0.000122753 0.000133814);
    }
    sun
    {
        type            nutkWallFunction;
        Cmu             0.09;
        kappa           0.41;
        E               9.8;
        value           nonuniform List<scalar> 
14
(
0.000121778
0.000133666
0.000137314
0.000144243
0.000150841
0.000157368
0.000163955
0.00016891
0.000171471
0.000170932
0.000166876
0.000158825
0.000143992
0.000122615
)
;
    }
    heatsource1
    {
        type            nutkWallFunction;
        Cmu             0.09;
        kappa           0.41;
        E               9.8;
        value           nonuniform List<scalar> 3(7.81793e-05 7.59662e-05 7.13337e-05);
    }
    heatsource2
    {
        type            nutkWallFunction;
        Cmu             0.09;
        kappa           0.41;
        E               9.8;
        value           nonuniform List<scalar> 4(0.000127223 9.65539e-05 9.65539e-05 0.000125901);
    }
    Table_master
    {
        type            nutkWallFunction;
        Cmu             0.09;
        kappa           0.41;
        E               9.8;
        value           nonuniform List<scalar> 9(0.000110415 9.56535e-05 8.38853e-05 7.452e-05 6.70034e-05 6.09371e-05 5.60309e-05 5.2115e-05 4.92057e-05);
    }
    Table_slave
    {
        type            nutkWallFunction;
        Cmu             0.09;
        kappa           0.41;
        E               9.8;
        value           nonuniform List<scalar> 9(0.000121281 0.000109838 0.00010198 9.6295e-05 9.18479e-05 8.78848e-05 8.39087e-05 7.9861e-05 7.51541e-05);
    }
    inlet
    {
        type            calculated;
        value           uniform 6.7082e-05;
    }
    outlet
    {
        type            calculated;
        value           nonuniform List<scalar> 2(0.00143029 0.00154755);
    }
}


// ************************************************************************* //
