// -*- C++ -*-
// File generated by PyFoam - sorry for the ugliness

FoamFile
{
 version 2.0;
 format ascii;
 class volScalarField;
 location "1500";
 object T;
}

dimensions [ 0 0 0 1 0 0 0 ];

internalField nonuniform List<scalar> 459
(
  304.16
  303.885
  303.876
  303.875
  303.874
  303.873
  303.872
  303.871
  303.869
  303.867
  303.863
  303.857
  303.849
  303.839
  303.828
  303.702
  303.683
  303.675
  303.67
  303.667
  303.664
  303.662
  303.66
  303.659
  303.656
  303.654
  303.652
  303.649
  303.646
  303.644
  303.641
  303.637
  303.633
  303.637
  304.361
  303.921
  303.9
  303.904
  303.909
  303.913
  303.916
  303.918
  303.918
  303.916
  303.91
  303.898
  303.879
  303.854
  303.823
  303.798
  303.776
  303.699
  303.686
  303.675
  303.668
  303.664
  303.662
  303.657
  303.652
  303.646
  303.641
  303.636
  303.631
  303.626
  303.621
  303.617
  303.613
  303.611
  303.609
  303.623
  304.559
  303.967
  303.928
  303.939
  303.952
  303.964
  303.975
  303.983
  303.988
  303.988
  303.981
  303.963
  303.934
  303.896
  303.852
  303.811
  303.778
  303.701
  303.685
  303.675
  303.67
  303.668
  303.667
  303.661
  303.653
  303.644
  303.636
  303.628
  303.62
  303.613
  303.607
  303.602
  303.599
  303.598
  303.597
  303.615
  304.747
  304.025
  303.955
  303.969
  303.991
  304.013
  304.033
  304.051
  304.063
  304.068
  304.061
  304.04
  304.001
  303.95
  303.891
  303.831
  303.776
  303.74
  303.712
  303.694
  303.681
  303.674
  303.673
  303.674
  303.674
  303.673
  303.672
  303.671
  303.669
  303.667
  303.664
  303.661
  303.656
  303.637
  303.617
  303.602
  303.612
  304.921
  304.1
  303.986
  303.992
  304.019
  304.048
  304.078
  304.106
  304.129
  304.141
  304.139
  304.116
  304.072
  304.011
  303.943
  303.874
  303.814
  303.767
  303.731
  303.704
  303.686
  303.678
  303.679
  303.683
  303.685
  303.686
  303.686
  303.686
  303.684
  303.681
  303.677
  303.671
  303.663
  303.65
  303.63
  303.611
  303.608
  303.649
  303.682
  303.691
  305.07
  304.196
  304.045
  304.018
  304.038
  304.068
  304.102
  304.136
  304.169
  304.193
  304.199
  304.177
  304.128
  304.062
  303.987
  303.912
  303.845
  303.79
  303.746
  303.711
  303.688
  303.681
  303.684
  303.69
  303.695
  303.697
  303.698
  303.698
  303.696
  303.693
  303.687
  303.679
  303.669
  303.656
  303.639
  303.62
  303.61
  303.624
  303.633
  303.66
  305.19
  304.354
  304.204
  304.119
  304.094
  304.099
  304.122
  304.152
  304.186
  304.223
  304.233
  304.209
  304.158
  304.088
  304.01
  303.934
  303.864
  303.804
  303.754
  303.714
  303.688
  303.682
  303.689
  303.697
  303.703
  303.707
  303.709
  303.709
  303.707
  303.703
  303.696
  303.685
  303.673
  303.66
  303.646
  303.629
  303.618
  303.619
  303.623
  303.646
  305.39
  304.767
  304.604
  304.452
  304.332
  304.262
  304.233
  304.23
  304.246
  304.263
  304.254
  304.214
  304.152
  304.077
  304
  303.926
  303.861
  303.804
  303.755
  303.713
  303.686
  303.683
  303.693
  303.704
  303.711
  303.716
  303.718
  303.719
  303.717
  303.713
  303.707
  303.698
  303.683
  303.67
  303.659
  303.649
  303.644
  303.651
  303.665
  303.779
  305.67
  305.4
  305.124
  304.896
  304.711
  304.571
  304.476
  304.414
  304.375
  304.324
  304.254
  304.175
  304.094
  304.016
  303.944
  303.881
  303.827
  303.781
  303.739
  303.703
  303.68
  303.683
  303.696
  303.708
  303.717
  303.723
  303.727
  303.729
  303.73
  303.729
  303.728
  303.728
  303.73
  303.735
  303.748
  303.769
  303.796
  303.824
  303.843
  303.89
  297.922
  301.837
  303.206
  303.689
  303.893
  303.977
  304.002
  304.001
  303.982
  303.951
  303.912
  303.872
  303.832
  303.796
  303.764
  303.736
  303.708
  303.683
  303.672
  303.681
  303.697
  303.71
  303.721
  303.729
  303.735
  303.74
  303.744
  303.747
  303.751
  303.755
  303.759
  303.766
  303.777
  303.793
  303.812
  303.829
  303.839
  303.849
  298.673
  301.702
  302.689
  303.224
  303.501
  303.636
  303.695
  303.715
  303.726
  303.73
  303.727
  303.721
  303.712
  303.703
  303.694
  303.684
  303.671
  303.659
  303.662
  303.676
  303.693
  303.707
  303.718
  303.728
  303.736
  303.743
  303.749
  303.754
  303.759
  303.763
  303.768
  303.774
  303.783
  303.794
  303.806
  303.818
  303.81
  303.832
  302.52
  301.084
  300.662
  302.371
  302.889
  303.209
  303.438
  303.517
  303.555
  303.573
  303.585
  303.596
  303.606
  303.615
  303.623
  303.63
  303.634
  303.634
  303.627
  303.632
  303.646
  303.662
  303.677
  303.689
  303.7
  303.709
  303.717
  303.725
  303.732
  303.739
  303.746
  303.752
  303.759
  303.765
  303.772
  303.782
  303.79
  303.792
  303.79
  303.824
)
;

boundaryField
{
  floor
  {
    type wallHeatTransfer;
    Tinf uniform 305.2;
    alphaWall uniform 0.24;
    value nonuniform List<scalar> 29
(
  303.995
  304.033
  303.97
  303.952
  303.944
  303.94
  303.94
  303.947
  303.956
  303.965
  303.974
  303.982
  303.99
  303.998
  304.006
  304.014
  304.023
  304.033
  304.04
  304.065
  304.065
  303.999
  303.959
  303.93
  303.995
  304.033
  303.942
  303.902
  303.898
)
;
  }
  ceiling
  {
    type wallHeatTransfer;
    Tinf uniform 303.2;
    alphaWall uniform 0.24;
    value nonuniform List<scalar> 43
(
  302.566
  301.216
  300.812
  302.418
  302.907
  303.208
  303.423
  303.494
  303.528
  303.542
  303.551
  303.559
  303.566
  303.571
  303.574
  303.576
  303.576
  303.575
  303.569
  303.573
  303.586
  303.6
  303.612
  303.622
  303.63
  303.638
  303.644
  303.651
  303.658
  303.665
  303.673
  303.681
  303.69
  303.699
  303.708
  303.721
  303.728
  303.729
  303.724
  303.752
  305.552
  305.31
  298.924
)
;
  }
  sWall
  {
    type wallHeatTransfer;
    Tinf uniform 315.2;
    alphaWall uniform 0.36;
    value uniform 303.753;
  }
  nWall
  {
    type wallHeatTransfer;
    Tinf uniform 307.2;
    alphaWall uniform 0.36;
    value nonuniform List<scalar> 6
(
  304.366
  304.325
  304.267
  304.336
  304.314
  304.382
)
;
  }
  sideWalls
  {
    type empty;
  }
  glass1
  {
    type wallHeatTransfer;
    Tinf uniform 315.2;
    alphaWall uniform 4.3;
    value nonuniform List<scalar> 9
(
  312.449
  311.719
  311.219
  310.815
  310.484
  310.2
  309.963
  310.005
  310.2
)
;
  }
  glass2
  {
    type wallHeatTransfer;
    Tinf uniform 307.2;
    alphaWall uniform 4.3;
    value nonuniform List<scalar> 2
(
  305.94
  306.014
)
;
  }
  sun
  {
    type wallHeatTransfer;
    Tinf uniform 305.2;
    alphaWall uniform 0.24;
    value nonuniform List<scalar> 14
(
  304.307
  304.064
  304.059
  304.054
  304.049
  304.045
  304.041
  304.038
  304.034
  304.03
  304.026
  304.019
  304.012
  304.004
)
;
  }
  heatsource1
  {
    type fixedGradient;
    gradient uniform 0;
  }
  heatsource2
  {
    type fixedGradient;
    gradient uniform 0;
  }
  Table_master
  {
    type zeroGradient;
  }
  Table_slave
  {
    type zeroGradient;
  }
  inlet
  {
    type fixedValue;
    value uniform 293.15;
  }
  outlet
  {
    type zeroGradient;
  }
} 	// ************************************************************************* //

