// -*- C++ -*-
// File generated by PyFoam - sorry for the ugliness

FoamFile
{
 version 2.0;
 format ascii;
 class volScalarField;
 location "700";
 object T;
}

dimensions [ 0 0 0 1 0 0 0 ];

internalField nonuniform List<scalar> 459
(
  303.619
  303.36
  303.347
  303.344
  303.34
  303.336
  303.331
  303.326
  303.319
  303.308
  303.296
  303.284
  303.274
  303.267
  303.266
  303.341
  303.32
  303.312
  303.314
  303.316
  303.319
  303.322
  303.325
  303.329
  303.331
  303.334
  303.337
  303.34
  303.343
  303.346
  303.348
  303.351
  303.355
  303.372
  303.795
  303.403
  303.38
  303.383
  303.386
  303.387
  303.386
  303.381
  303.368
  303.348
  303.322
  303.296
  303.274
  303.259
  303.251
  303.247
  303.245
  303.341
  303.307
  303.3
  303.301
  303.304
  303.306
  303.308
  303.309
  303.309
  303.31
  303.311
  303.311
  303.312
  303.313
  303.314
  303.317
  303.322
  303.329
  303.356
  303.978
  303.454
  303.415
  303.425
  303.439
  303.45
  303.456
  303.455
  303.437
  303.403
  303.359
  303.315
  303.281
  303.258
  303.247
  303.245
  303.245
  303.285
  303.285
  303.291
  303.299
  303.307
  303.312
  303.311
  303.311
  303.31
  303.31
  303.31
  303.309
  303.309
  303.309
  303.309
  303.31
  303.313
  303.32
  303.349
  304.162
  303.516
  303.45
  303.465
  303.492
  303.519
  303.539
  303.544
  303.52
  303.466
  303.397
  303.333
  303.284
  303.253
  303.242
  303.241
  303.246
  303.256
  303.266
  303.281
  303.297
  303.312
  303.323
  303.332
  303.339
  303.346
  303.351
  303.356
  303.36
  303.363
  303.365
  303.366
  303.366
  303.347
  303.331
  303.324
  303.347
  304.34
  303.594
  303.49
  303.499
  303.535
  303.578
  303.618
  303.63
  303.594
  303.518
  303.421
  303.338
  303.279
  303.245
  303.234
  303.237
  303.248
  303.263
  303.281
  303.301
  303.321
  303.339
  303.353
  303.364
  303.374
  303.382
  303.388
  303.393
  303.396
  303.397
  303.395
  303.391
  303.385
  303.37
  303.349
  303.333
  303.343
  303.407
  303.451
  303.457
  304.501
  303.696
  303.562
  303.547
  303.578
  303.629
  303.687
  303.69
  303.631
  303.532
  303.421
  303.326
  303.26
  303.227
  303.221
  303.233
  303.254
  303.279
  303.306
  303.332
  303.355
  303.375
  303.39
  303.401
  303.41
  303.416
  303.422
  303.425
  303.426
  303.424
  303.419
  303.412
  303.402
  303.387
  303.366
  303.346
  303.344
  303.371
  303.387
  303.42
  304.646
  303.858
  303.724
  303.688
  303.697
  303.733
  303.763
  303.724
  303.625
  303.496
  303.37
  303.273
  303.215
  303.195
  303.206
  303.235
  303.272
  303.309
  303.344
  303.374
  303.397
  303.415
  303.428
  303.437
  303.443
  303.448
  303.451
  303.453
  303.452
  303.448
  303.44
  303.43
  303.417
  303.402
  303.383
  303.363
  303.354
  303.362
  303.371
  303.399
  304.86
  304.27
  304.123
  304.028
  303.973
  303.941
  303.851
  303.704
  303.529
  303.364
  303.239
  303.165
  303.142
  303.159
  303.201
  303.256
  303.311
  303.357
  303.395
  303.422
  303.44
  303.453
  303.462
  303.468
  303.472
  303.475
  303.476
  303.475
  303.473
  303.468
  303.461
  303.45
  303.437
  303.424
  303.409
  303.395
  303.39
  303.402
  303.42
  303.545
  305.164
  304.888
  304.629
  304.394
  304.186
  303.968
  303.673
  303.387
  303.167
  303.038
  302.992
  303.009
  303.071
  303.152
  303.235
  303.316
  303.379
  303.418
  303.445
  303.463
  303.476
  303.484
  303.49
  303.494
  303.496
  303.497
  303.497
  303.496
  303.494
  303.492
  303.491
  303.492
  303.494
  303.502
  303.516
  303.539
  303.571
  303.603
  303.624
  303.677
  296.494
  298.591
  299.864
  300.514
  301.099
  301.623
  302.072
  302.438
  302.724
  302.944
  303.13
  303.268
  303.352
  303.41
  303.447
  303.47
  303.486
  303.496
  303.504
  303.509
  303.513
  303.515
  303.517
  303.519
  303.52
  303.521
  303.522
  303.524
  303.526
  303.528
  303.533
  303.542
  303.556
  303.574
  303.597
  303.619
  303.637
  303.655
  297.15
  299.059
  300.379
  301.251
  301.829
  302.259
  302.601
  302.866
  303.065
  303.21
  303.313
  303.388
  303.437
  303.469
  303.489
  303.503
  303.512
  303.519
  303.523
  303.527
  303.529
  303.532
  303.534
  303.536
  303.538
  303.54
  303.541
  303.543
  303.545
  303.548
  303.552
  303.558
  303.568
  303.58
  303.595
  303.613
  303.61
  303.638
  299.708
  299.63
  299.625
  301.414
  302.211
  302.608
  302.852
  303.029
  303.164
  303.266
  303.343
  303.399
  303.44
  303.468
  303.487
  303.498
  303.506
  303.511
  303.515
  303.518
  303.521
  303.524
  303.527
  303.53
  303.533
  303.536
  303.539
  303.541
  303.544
  303.547
  303.549
  303.552
  303.556
  303.56
  303.566
  303.575
  303.585
  303.59
  303.591
  303.629
)
;

boundaryField
{
  floor
  {
    type wallHeatTransfer;
    Tinf uniform 305.2;
    alphaWall uniform 0.24;
    value nonuniform List<scalar> 29
(
  303.452
  303.699
  303.634
  303.605
  303.61
  303.621
  303.635
  303.651
  303.668
  303.685
  303.702
  303.718
  303.734
  303.748
  303.763
  303.777
  303.791
  303.807
  303.82
  303.857
  303.857
  303.771
  303.728
  303.703
  303.452
  303.699
  303.676
  303.492
  303.419
)
;
  }
  ceiling
  {
    type wallHeatTransfer;
    Tinf uniform 303.2;
    alphaWall uniform 0.24;
    value nonuniform List<scalar> 43
(
  299.956
  299.872
  299.86
  301.526
  302.275
  302.648
  302.876
  303.041
  303.166
  303.261
  303.331
  303.381
  303.415
  303.437
  303.45
  303.458
  303.462
  303.465
  303.467
  303.469
  303.471
  303.473
  303.476
  303.479
  303.482
  303.485
  303.488
  303.492
  303.496
  303.5
  303.504
  303.508
  303.513
  303.519
  303.525
  303.536
  303.545
  303.549
  303.548
  303.58
  305.073
  304.82
  297.538
)
;
  }
  sWall
  {
    type wallHeatTransfer;
    Tinf uniform 315.2;
    alphaWall uniform 0.36;
    value uniform 301.305;
  }
  nWall
  {
    type wallHeatTransfer;
    Tinf uniform 307.2;
    alphaWall uniform 0.36;
    value nonuniform List<scalar> 6
(
  304.163
  304.113
  304.041
  304.17
  304.148
  304.211
)
;
  }
  sideWalls
  {
    type empty;
  }
  glass1
  {
    type wallHeatTransfer;
    Tinf uniform 315.2;
    alphaWall uniform 4.3;
    value nonuniform List<scalar> 9
(
  311.584
  310.95
  310.548
  310.24
  309.983
  309.751
  309.577
  309.646
  309.869
)
;
  }
  glass2
  {
    type wallHeatTransfer;
    Tinf uniform 307.2;
    alphaWall uniform 4.3;
    value nonuniform List<scalar> 2
(
  305.825
  305.917
)
;
  }
  sun
  {
    type wallHeatTransfer;
    Tinf uniform 305.2;
    alphaWall uniform 0.24;
    value nonuniform List<scalar> 14
(
  303.789
  303.545
  303.531
  303.522
  303.513
  303.504
  303.496
  303.487
  303.477
  303.465
  303.454
  303.446
  303.442
  303.444
)
;
  }
  heatsource1
  {
    type fixedGradient;
    gradient uniform 0;
  }
  heatsource2
  {
    type fixedGradient;
    gradient uniform 0;
  }
  Table_master
  {
    type zeroGradient;
  }
  Table_slave
  {
    type zeroGradient;
  }
  inlet
  {
    type fixedValue;
    value uniform 293.15;
  }
  outlet
  {
    type zeroGradient;
  }
} 	// ************************************************************************* //

