/*--------------------------------*- C++ -*----------------------------------*\
  =========                 |
  \\      /  F ield         | OpenFOAM: The Open Source CFD Toolbox
   \\    /   O peration     | Website:  https://openfoam.org
    \\  /    A nd           | Version:  6
     \\/     M anipulation  |
\*---------------------------------------------------------------------------*/
FoamFile
{
    version     2.0;
    format      ascii;
    class       volScalarField;
    location    "100";
    object      nut;
}
// * * * * * * * * * * * * * * * * * * * * * * * * * * * * * * * * * * * * * //

dimensions      [0 2 -1 0 0 0 0];

internalField   nonuniform List<scalar> 
459
(
0.000745406
0.000763608
0.000686886
0.000710417
0.000737639
0.00076387
0.000789025
0.00081371
0.000838982
0.000863346
0.000882644
0.000895006
0.0008987
0.00089222
0.000870829
0.000476944
0.000553513
0.000548283
0.000451432
0.000379712
0.000323001
0.00027259
0.000248145
0.000238018
0.000228349
0.000219206
0.000210188
0.000201036
0.000205216
0.000273798
0.000446577
0.000565467
0.000563813
0.000483901
0.00129195
0.00232588
0.00167622
0.00229609
0.00251496
0.002724
0.00293929
0.00314145
0.00330244
0.003415
0.00346964
0.00342773
0.00322636
0.00276489
0.00193935
0.000921397
0.000642423
0.000564454
0.00132327
0.00140045
0.00126034
0.00100188
0.000736928
0.000538528
0.000552866
0.000506847
0.00047492
0.000443279
0.000407937
0.000378681
0.000404578
0.000671874
0.00115979
0.00150389
0.0015719
0.000577531
0.00176523
0.00386592
0.0017758
0.00320061
0.00375061
0.00398637
0.00417972
0.00434288
0.00446701
0.00455208
0.00458328
0.00451778
0.00428573
0.00379034
0.00295904
0.00190393
0.000955124
0.000849037
0.00209269
0.00177705
0.00143494
0.00115005
0.000886161
0.000308101
0.00022962
0.000216869
0.000211706
0.000217382
0.000244154
0.00029976
0.000391715
0.000560027
0.00143232
0.00179546
0.00140083
0.000636106
0.00220671
0.00575281
0.00206157
0.00328455
0.00434523
0.00461222
0.00476883
0.00490224
0.00501878
0.00511592
0.0052083
0.00526578
0.00521775
0.00494556
0.0042961
0.00318745
0.00186527
0.00101984
0.00197419
0.00214813
0.00189538
0.00164677
0.00138309
0.00109782
0.000854794
0.00088329
0.000919603
0.000959379
0.000999585
0.0010377
0.00107476
0.00108865
0.00108679
0.00161265
0.00201143
0.0023139
0.000967329
0.00261177
0.00775697
0.00280743
0.00296605
0.00443187
0.00479074
0.00492688
0.00503565
0.0051452
0.00526259
0.00544532
0.00570091
0.0059922
0.0062501
0.00637891
0.00628649
0.00593585
0.00535854
0.00481034
0.00438505
0.00412533
0.0039045
0.00375079
0.00364905
0.00361373
0.00369274
0.00383636
0.00400597
0.00415781
0.00425586
0.00429333
0.00426793
0.00419953
0.00412626
0.00387348
0.003447
0.00255356
0.0011392
0.00100479
0.00103646
0.00298881
0.00953222
0.00428076
0.00280751
0.00394489
0.00451534
0.00473916
0.00485904
0.00493366
0.00499867
0.00519192
0.00552156
0.00597196
0.00649734
0.00700362
0.00736233
0.00745024
0.00722502
0.00679284
0.00631772
0.00589979
0.00556244
0.00528758
0.00505433
0.00487624
0.00479672
0.00482331
0.00490737
0.00497464
0.00496707
0.00488125
0.00477145
0.004708
0.00471774
0.00478465
0.00469823
0.00428728
0.00357594
0.00253678
0.0012333
0.00333396
0.0108075
0.00679325
0.00380708
0.00318792
0.00364398
0.00418826
0.00453154
0.00464434
0.00463345
0.00475199
0.00499452
0.00538256
0.00592236
0.00655355
0.00713906
0.00751752
0.00759469
0.00741918
0.00712775
0.00683147
0.00656632
0.00631092
0.00603258
0.00573759
0.00549965
0.00539012
0.00538476
0.00537708
0.00526319
0.00503002
0.00477076
0.0046109
0.0045989
0.00467447
0.00468768
0.00443279
0.00400569
0.00316247
0.001352
0.0034021
0.0107146
0.00848201
0.00659312
0.00484724
0.00399675
0.00402366
0.00435687
0.00448024
0.00444119
0.00444015
0.00451367
0.00468658
0.00499868
0.00547683
0.00606848
0.00662342
0.00696233
0.00705923
0.00700852
0.00690599
0.00680489
0.00670731
0.00658323
0.00639942
0.00617241
0.00600087
0.0059547
0.00595549
0.00582418
0.00546679
0.00493281
0.00436374
0.00384474
0.00339318
0.00301526
0.00271513
0.0024321
0.00213799
0.00147838
0.00329104
0.00390139
0.00498306
0.00524884
0.00498418
0.00454722
0.00422282
0.00406224
0.00399404
0.00398334
0.00400703
0.0040473
0.0041071
0.00421218
0.00440705
0.00472612
0.0051391
0.00553901
0.00583609
0.00601763
0.00612329
0.00619885
0.00627045
0.00634507
0.00641916
0.00647785
0.00649532
0.0064778
0.00660134
0.00677632
0.00689295
0.00690894
0.00678024
0.00649565
0.00607824
0.00551105
0.00477181
0.00417153
0.00381111
0.00163246
0.00617611
0.00823455
0.00629509
0.00544686
0.00492035
0.00456675
0.00431918
0.00413221
0.00398166
0.00385551
0.003749
0.00366709
0.00362639
0.00365285
0.00376807
0.00396613
0.00421008
0.00445699
0.00468275
0.00488549
0.00507518
0.00526615
0.00547699
0.00572507
0.00600216
0.00627366
0.00655244
0.00684125
0.00710291
0.00728423
0.00735999
0.0073247
0.0072034
0.00701749
0.00669749
0.00600794
0.00531823
0.00163314
0.00375808
0.00838142
0.00660902
0.00570556
0.00511516
0.00466906
0.00431061
0.00400975
0.00373516
0.00347003
0.00322594
0.00301062
0.00283077
0.00269411
0.0026098
0.00258576
0.00262429
0.00271951
0.002859
0.00302817
0.00321487
0.00341362
0.00363038
0.00388476
0.00420071
0.00457983
0.00497215
0.00535552
0.00570325
0.00599506
0.00621225
0.00633578
0.00635218
0.00624249
0.00589463
0.00510166
0.00439129
0.00148857
0.00238915
0.00273675
0.00313277
0.00304615
0.00260573
0.00235617
0.00213663
0.00194652
0.00178175
0.00163744
0.00151265
0.00140502
0.00130941
0.00122309
0.00114476
0.00107392
0.00101057
0.00095492
0.000907143
0.000867224
0.000834916
0.000809787
0.000791319
0.000779056
0.000772823
0.000773083
0.00078127
0.000799758
0.000834184
0.000887364
0.000959893
0.00104842
0.00114482
0.00123665
0.00130925
0.00134751
0.0013441
0.00132156
0.00130039
0.00121248
)
;

boundaryField
{
    floor
    {
        type            nutkWallFunction;
        Cmu             0.09;
        kappa           0.41;
        E               9.8;
        value           nonuniform List<scalar> 
29
(
0.000105396
5.67859e-05
6.65388e-05
6.58631e-05
5.34794e-05
4.41066e-05
3.65324e-05
2.96564e-05
2.62572e-05
2.48354e-05
2.34698e-05
2.21703e-05
2.08811e-05
1.95651e-05
2.01683e-05
2.98258e-05
5.28825e-05
6.80512e-05
6.78357e-05
5.76727e-05
5.76727e-05
6.95448e-05
7.68527e-05
0.000116873
0.000105396
5.67859e-05
6.79043e-05
0.000102788
0.00012303
)
;
    }
    ceiling
    {
        type            nutkWallFunction;
        Cmu             0.09;
        kappa           0.41;
        E               9.8;
        value           nonuniform List<scalar> 
43
(
0.000275408
0.000312302
0.000353753
0.000344776
0.000298493
0.000271908
0.000248276
0.000227603
0.000209509
0.000193515
0.000179559
0.000167422
0.000156552
0.000146663
0.000137621
0.000129383
0.000121965
0.000115403
0.000109735
0.000104973
0.000101101
9.8077e-05
9.5848e-05
9.43646e-05
9.36097e-05
9.36413e-05
9.4633e-05
9.68682e-05
0.000101015
0.000107382
0.000115998
0.000126415
0.000137648
0.000148255
0.000156584
0.000160959
0.000160573
0.000158005
0.000155579
0.000145489
0.000370336
0.000432923
0.000418133
)
;
    }
    sWall
    {
        type            nutkWallFunction;
        Cmu             0.09;
        kappa           0.41;
        E               9.8;
        value           uniform 0.000275473;
    }
    nWall
    {
        type            nutkWallFunction;
        Cmu             0.09;
        kappa           0.41;
        E               9.8;
        value           nonuniform List<scalar> 6(0.000124987 0.000147783 0.000161431 0.000193055 0.000176894 0.0001455);
    }
    sideWalls
    {
        type            empty;
    }
    glass1
    {
        type            nutkWallFunction;
        Cmu             0.09;
        kappa           0.41;
        E               9.8;
        value           nonuniform List<scalar> 9(9.0259e-05 0.000154731 0.000207978 0.000256228 0.000299588 0.000339314 0.000375227 0.000382282 0.000370813);
    }
    glass2
    {
        type            nutkWallFunction;
        Cmu             0.09;
        kappa           0.41;
        E               9.8;
        value           nonuniform List<scalar> 2(0.000175781 0.000193055);
    }
    sun
    {
        type            nutkWallFunction;
        Cmu             0.09;
        kappa           0.41;
        E               9.8;
        value           nonuniform List<scalar> 
14
(
9.0278e-05
9.24908e-05
8.31182e-05
8.60046e-05
8.93299e-05
9.25204e-05
9.55676e-05
9.85469e-05
0.000101586
0.000104506
0.000106811
0.000108284
0.000108724
0.00010795
)
;
    }
    heatsource1
    {
        type            nutkWallFunction;
        Cmu             0.09;
        kappa           0.41;
        E               9.8;
        value           nonuniform List<scalar> 3(0.000136915 0.000121233 0.000124978);
    }
    heatsource2
    {
        type            nutkWallFunction;
        Cmu             0.09;
        kappa           0.41;
        E               9.8;
        value           nonuniform List<scalar> 4(0.000111415 7.76283e-05 7.76283e-05 0.000115407);
    }
    Table_master
    {
        type            nutkWallFunction;
        Cmu             0.09;
        kappa           0.41;
        E               9.8;
        value           nonuniform List<scalar> 9(3.45231e-05 2.3681e-05 2.18731e-05 2.1134e-05 2.19363e-05 2.57045e-05 3.33725e-05 4.56737e-05 6.73233e-05);
    }
    Table_slave
    {
        type            nutkWallFunction;
        Cmu             0.09;
        kappa           0.41;
        E               9.8;
        value           nonuniform List<scalar> 9(0.000103468 0.000106879 0.000111207 0.000115926 0.000120674 0.000125155 0.000129494 0.000131115 0.000130895);
    }
    inlet
    {
        type            calculated;
        value           uniform 3.3541e-05;
    }
    outlet
    {
        type            calculated;
        value           nonuniform List<scalar> 2(0.00238915 0.00273675);
    }
}


// ************************************************************************* //
