/*--------------------------------*- C++ -*----------------------------------*\
  =========                 |
  \\      /  F ield         | OpenFOAM: The Open Source CFD Toolbox
   \\    /   O peration     | Website:  https://openfoam.org
    \\  /    A nd           | Version:  6
     \\/     M anipulation  |
\*---------------------------------------------------------------------------*/
FoamFile
{
    version     2.0;
    format      ascii;
    class       volScalarField;
    location    "1300";
    object      nut;
}
// * * * * * * * * * * * * * * * * * * * * * * * * * * * * * * * * * * * * * //

dimensions      [0 2 -1 0 0 0 0];

internalField   nonuniform List<scalar> 
459
(
0.000781921
0.000828023
0.000829278
0.0008583
0.000882723
0.000903392
0.000921363
0.00093764
0.000953276
0.000967278
0.00097601
0.000977707
0.000971946
0.000961636
0.000950593
0.000576036
0.000552617
0.000528545
0.000505244
0.000482263
0.00045919
0.000436755
0.000414949
0.000393505
0.000372531
0.000352278
0.000332923
0.000314362
0.000296033
0.000276749
0.000254214
0.000224912
0.000220715
0.000221158
0.00113228
0.00197978
0.00174717
0.00199998
0.00217305
0.00235413
0.00253233
0.00269234
0.00281077
0.00288413
0.00291911
0.00288108
0.00271998
0.00236556
0.00172756
0.000968473
0.000863718
0.000694648
0.000983603
0.00115391
0.00123157
0.00124725
0.00122278
0.00110221
0.00099203
0.000891904
0.000803059
0.000724626
0.000653772
0.000587412
0.000524372
0.000470053
0.000429913
0.000370958
0.000486237
0.000356613
0.00144721
0.00279017
0.00196845
0.00270564
0.00292142
0.00307559
0.00318753
0.00326984
0.0033329
0.00338516
0.00343122
0.00344536
0.0033983
0.00326577
0.00300416
0.00241541
0.00104714
0.000790833
0.00134178
0.00161367
0.00174664
0.00178932
0.00164862
0.000504534
0.000448283
0.000407093
0.000375586
0.00035029
0.000329255
0.000311472
0.000296559
0.000284905
0.000309348
0.000320915
0.000544453
0.000424056
0.00177455
0.00400971
0.00186577
0.00294864
0.00322032
0.00330321
0.00331881
0.00331021
0.00331269
0.00334103
0.00338906
0.00342718
0.00342925
0.00339227
0.00333847
0.0032472
0.002921
0.000925956
0.00146808
0.00191805
0.00217051
0.00229999
0.0023556
0.00206639
0.00054017
0.000507095
0.000520368
0.000558558
0.000596722
0.000619784
0.000619547
0.000599234
0.000569167
0.000473195
0.000408839
0.000753463
0.000476851
0.00211939
0.0057223
0.00212984
0.00278165
0.00329421
0.00335487
0.00330593
0.00322905
0.00319249
0.00321985
0.00329432
0.00335937
0.00337406
0.00332762
0.00325686
0.00321361
0.00320198
0.00293604
0.00270991
0.00270415
0.0027759
0.00288754
0.00299978
0.00294444
0.00255305
0.00269353
0.00285219
0.0029569
0.0029938
0.00295662
0.00283495
0.00254683
0.00207818
0.00150844
0.00102096
0.000828298
0.00073684
0.00062142
0.000744256
0.000848356
0.00248504
0.00764608
0.00351353
0.0024196
0.00304069
0.0032644
0.00327432
0.00318246
0.00308931
0.00312797
0.0032491
0.00334229
0.00336195
0.00329204
0.0031806
0.00310272
0.00307918
0.00299566
0.00292032
0.00299945
0.00317424
0.00336117
0.00345315
0.00346143
0.00347143
0.00357313
0.00364848
0.00366832
0.0036333
0.00355235
0.00343393
0.00326727
0.00292451
0.00238748
0.00180827
0.00123349
0.00105769
0.000950762
0.00132912
0.000900869
0.0028607
0.0092394
0.00630483
0.00337619
0.00261875
0.00261382
0.00283462
0.00304782
0.00305017
0.0031643
0.00329152
0.00337448
0.00337614
0.00327625
0.00312933
0.00302881
0.00299879
0.00296945
0.00300434
0.00323032
0.00347887
0.00354577
0.0035426
0.00358186
0.00365393
0.00371145
0.00371889
0.003679
0.00361176
0.00353513
0.00346032
0.00340468
0.00331995
0.00297359
0.00250067
0.00201679
0.00178179
0.00177383
0.00179008
0.00112226
0.00296289
0.00917181
0.00758324
0.00607257
0.00465073
0.00370829
0.0033192
0.00333248
0.00337282
0.00339563
0.00343461
0.00345956
0.00340722
0.00324429
0.00305226
0.00294897
0.00294055
0.00295248
0.00309356
0.00339137
0.00350449
0.00345678
0.0034326
0.00346529
0.00349889
0.00349324
0.00344963
0.00338897
0.00333349
0.0032987
0.00329876
0.00335331
0.00346302
0.003506
0.00331211
0.00330302
0.00362871
0.00400498
0.00451786
0.00153721
0.00291613
0.00355396
0.00401262
0.00419128
0.00414318
0.00391984
0.00369837
0.0035791
0.0035137
0.00351367
0.00354089
0.0035314
0.00339622
0.00312801
0.00288786
0.00281991
0.00285491
0.00288572
0.00312477
0.00331765
0.00329342
0.00321683
0.00319059
0.00318782
0.0031742
0.00313273
0.00307635
0.00302148
0.00297498
0.00293423
0.00289348
0.00285051
0.00280941
0.00277874
0.00275464
0.00272823
0.00263105
0.00243753
0.00221504
0.00140826
0.00203599
0.0035666
0.00396168
0.00402007
0.00398316
0.0039457
0.00391149
0.00385637
0.00376247
0.00358152
0.00322861
0.00279773
0.00255868
0.00261668
0.00268932
0.00274407
0.00289187
0.00293833
0.00289597
0.00286949
0.00286383
0.00285837
0.00284367
0.00282419
0.00279987
0.00278642
0.00279105
0.00281194
0.00284222
0.0028744
0.00290027
0.00291398
0.00291289
0.00289506
0.00283958
0.00274227
0.00235847
0.00114261
0.0021923
0.0041251
0.0044291
0.00437669
0.00426817
0.00414409
0.00399244
0.00376789
0.00343871
0.00302712
0.00247807
0.00202462
0.00199316
0.00231544
0.00242955
0.0023429
0.00229017
0.00224693
0.00223917
0.00226341
0.00230333
0.00234995
0.00240169
0.00245575
0.00249457
0.00250504
0.00253521
0.00259708
0.00268296
0.00277146
0.00285134
0.00292792
0.00297883
0.00298984
0.00293286
0.00265257
0.00191075
0.00116645
0.00190319
0.0020145
0.00210475
0.00224803
0.00213626
0.00200078
0.00183755
0.00168613
0.00153067
0.00138511
0.00126245
0.00114338
0.00100935
0.000724328
0.000586612
0.00056705
0.000538198
0.000519687
0.000512381
0.000517048
0.000527839
0.000541312
0.000555417
0.000568782
0.000580524
0.000590983
0.000604486
0.000628316
0.000660325
0.000702134
0.000755953
0.000827011
0.000914816
0.001006
0.00109808
0.00117412
0.00115991
0.00104649
0.000977339
0.00113814
)
;

boundaryField
{
    floor
    {
        type            nutkWallFunction;
        Cmu             0.09;
        kappa           0.41;
        E               9.8;
        value           nonuniform List<scalar> 
29
(
0.000114886
6.93532e-05
6.64e-05
6.33498e-05
6.03815e-05
5.7437e-05
5.4463e-05
5.15538e-05
4.87079e-05
4.58907e-05
4.31171e-05
4.04204e-05
3.78251e-05
3.53179e-05
3.28226e-05
3.01741e-05
2.70467e-05
2.2924e-05
2.23396e-05
2.24093e-05
2.24092e-05
4.1017e-05
4.99121e-05
5.67518e-05
0.000114886
6.93531e-05
8.40727e-05
9.57887e-05
0.000111973
)
;
    }
    ceiling
    {
        type            nutkWallFunction;
        Cmu             0.09;
        kappa           0.41;
        E               9.8;
        value           nonuniform List<scalar> 
43
(
0.00022272
0.00023486
0.000244654
0.0002602
0.000248176
0.000233487
0.000215635
0.000198915
0.000181576
0.000165163
0.000151183
0.000137468
0.000121838
8.77648e-05
7.06678e-05
6.82092e-05
6.45719e-05
6.22207e-05
6.1291e-05
6.18857e-05
6.32584e-05
6.49675e-05
6.67518e-05
6.84377e-05
6.99154e-05
7.12272e-05
7.2912e-05
7.58777e-05
7.98413e-05
8.49853e-05
9.15552e-05
0.000100148
0.000110651
0.000121436
0.000132213
0.000141029
0.000139385
0.000126187
0.000118059
0.000136863
0.000331359
0.000397495
0.000254026
)
;
    }
    sWall
    {
        type            nutkWallFunction;
        Cmu             0.09;
        kappa           0.41;
        E               9.8;
        value           uniform 0.000222781;
    }
    nWall
    {
        type            nutkWallFunction;
        Cmu             0.09;
        kappa           0.41;
        E               9.8;
        value           nonuniform List<scalar> 6(0.000102721 0.000109001 0.000135039 0.000137393 0.000140153 0.000136872);
    }
    sideWalls
    {
        type            empty;
    }
    glass1
    {
        type            nutkWallFunction;
        Cmu             0.09;
        kappa           0.41;
        E               9.8;
        value           nonuniform List<scalar> 9(9.46984e-05 0.000136295 0.000172409 0.00020902 0.000246796 0.000286135 0.00032592 0.000336653 0.000331765);
    }
    glass2
    {
        type            nutkWallFunction;
        Cmu             0.09;
        kappa           0.41;
        E               9.8;
        value           nonuniform List<scalar> 2(0.000182401 0.000167864);
    }
    sun
    {
        type            nutkWallFunction;
        Cmu             0.09;
        kappa           0.41;
        E               9.8;
        value           nonuniform List<scalar> 
14
(
9.47022e-05
0.000100265
0.000100415
0.000103898
0.000106818
0.000109282
0.000111419
0.00011335
0.000115201
0.000116856
0.000117887
0.000118088
0.000117408
0.000116191
)
;
    }
    heatsource1
    {
        type            nutkWallFunction;
        Cmu             0.09;
        kappa           0.41;
        E               9.8;
        value           nonuniform List<scalar> 3(7.50225e-05 9.01373e-05 0.000102719);
    }
    heatsource2
    {
        type            nutkWallFunction;
        Cmu             0.09;
        kappa           0.41;
        E               9.8;
        value           nonuniform List<scalar> 4(0.000116998 0.000104551 0.000104551 0.000126245);
    }
    Table_master
    {
        type            nutkWallFunction;
        Cmu             0.09;
        kappa           0.41;
        E               9.8;
        value           nonuniform List<scalar> 9(6.02917e-05 5.30589e-05 4.7691e-05 4.35381e-05 4.01713e-05 3.73475e-05 3.4942e-05 3.29109e-05 3.13145e-05);
    }
    Table_slave
    {
        type            nutkWallFunction;
        Cmu             0.09;
        kappa           0.41;
        E               9.8;
        value           nonuniform List<scalar> 9(6.48161e-05 6.06118e-05 6.23104e-05 6.71547e-05 7.19524e-05 7.48334e-05 7.48061e-05 7.22704e-05 6.84991e-05);
    }
    inlet
    {
        type            calculated;
        value           uniform 0.000100623;
    }
    outlet
    {
        type            calculated;
        value           nonuniform List<scalar> 2(0.00190319 0.0020145);
    }
}


// ************************************************************************* //
