// -*- C++ -*-
// File generated by PyFoam - sorry for the ugliness

FoamFile
{
 version 2.0;
 format ascii;
 class volVectorField;
 location "600";
 object U;
}

dimensions [ 0 1 -1 0 0 0 0 ];

internalField nonuniform List<vector> 459
(
  (0.00311393 0.0917581 0)
  (-0.18764 0.0270068 0)
  (-0.219386 0.00612206 0)
  (-0.235328 -0.0107023 0)
  (-0.221831 -0.0288338 0)
  (-0.179832 -0.0493374 0)
  (-0.115533 -0.0678814 0)
  (-0.0413154 -0.0781671 0)
  (0.0506375 -0.0605958 0)
  (0.10071 -0.0429594 0)
  (0.138035 -0.027066 0)
  (0.157316 -0.0128737 0)
  (0.15556 0.00181391 0)
  (0.129473 0.0235273 0)
  (0.0988482 0.0714444 0)
  (-0.0385951 0.0192097 0)
  (-0.0588438 -0.00573585 0)
  (-0.0453917 -0.0235163 0)
  (-0.0188506 -0.0347185 0)
  (0.0209585 -0.0346306 0)
  (0.0510628 -0.0267752 0)
  (0.0735076 -0.0154458 0)
  (0.0879766 -0.00944524 0)
  (0.096042 -0.00750368 0)
  (0.101283 -0.00701505 0)
  (0.106095 -0.0067821 0)
  (0.110885 -0.00637456 0)
  (0.114974 -0.00547288 0)
  (0.117284 -0.00389945 0)
  (0.115874 -0.00127934 0)
  (0.108995 0.0029362 0)
  (0.0945708 0.00909774 0)
  (0.0709263 0.0183885 0)
  (0.0267164 0.0319407 0)
  (0.163855 0.192341 0)
  (-0.162975 0.0848147 0)
  (-0.173302 0.0464004 0)
  (-0.191637 0.0100081 0)
  (-0.181555 -0.032501 0)
  (-0.144583 -0.0770649 0)
  (-0.0890702 -0.11104 0)
  (-0.0273367 -0.122323 0)
  (0.0368096 -0.099402 0)
  (0.0811019 -0.0684845 0)
  (0.113669 -0.0385476 0)
  (0.131939 -0.0102265 0)
  (0.137496 0.0175986 0)
  (0.133992 0.0479431 0)
  (0.130702 0.0888847 0)
  (0.124731 0.0824557 0)
  (0.0794019 0.0750934 0)
  (-0.00147819 0.0499109 0)
  (-0.0241912 0.0109896 0)
  (0.0235492 -0.0413419 0)
  (0.0388488 -0.052022 0)
  (0.0582549 -0.050596 0)
  (0.0766341 -0.0412352 0)
  (0.0865217 -0.0198044 0)
  (0.0891801 -0.0068675 0)
  (0.0894051 -0.00284694 0)
  (0.0899109 -0.00238635 0)
  (0.0909006 -0.00278556 0)
  (0.0920176 -0.00292686 0)
  (0.0931126 -0.00174601 0)
  (0.093646 0.00164543 0)
  (0.0914522 0.00745032 0)
  (0.0845752 0.0174569 0)
  (0.0706021 0.0298784 0)
  (0.0512732 0.0450338 0)
  (0.00413156 0.0646637 0)
  (0.30993 0.28635 0)
  (-0.164677 0.130208 0)
  (-0.131598 0.0725254 0)
  (-0.150415 0.0126563 0)
  (-0.140577 -0.0553633 0)
  (-0.104633 -0.123514 0)
  (-0.0564283 -0.168719 0)
  (-0.00657095 -0.17587 0)
  (0.0380688 -0.145756 0)
  (0.0733087 -0.104125 0)
  (0.0990669 -0.0620922 0)
  (0.114231 -0.0229998 0)
  (0.121083 0.0137457 0)
  (0.122077 0.0493975 0)
  (0.121097 0.0835308 0)
  (0.109518 0.0918473 0)
  (0.085938 0.124047 0)
  (0.0432319 0.0198362 0)
  (0.0635167 -0.0324793 0)
  (0.079466 -0.0581411 0)
  (0.0865586 -0.0664241 0)
  (0.0930276 -0.0642755 0)
  (0.1011 -0.05873 0)
  (0.103534 -0.0433718 0)
  (0.0880575 -0.0277976 0)
  (0.0748886 -0.0195872 0)
  (0.0676839 -0.0153635 0)
  (0.0623952 -0.0129323 0)
  (0.0566629 -0.0110184 0)
  (0.0509518 -0.00814168 0)
  (0.0483265 -0.00305882 0)
  (0.0535976 0.00563629 0)
  (0.0570024 0.0262419 0)
  (0.0499281 0.0459039 0)
  (0.0402616 0.0676423 0)
  (-0.0129598 0.0947384 0)
  (0.441515 0.361409 0)
  (-0.18332 0.169452 0)
  (-0.091408 0.0973926 0)
  (-0.108063 0.0172916 0)
  (-0.0918343 -0.0767469 0)
  (-0.0541911 -0.166609 0)
  (-0.0148966 -0.216986 0)
  (0.0209657 -0.217604 0)
  (0.0494827 -0.181801 0)
  (0.0731314 -0.131159 0)
  (0.0895236 -0.0791033 0)
  (0.0987241 -0.0318509 0)
  (0.103223 0.00990099 0)
  (0.10552 0.0470943 0)
  (0.110721 0.0800477 0)
  (0.120952 0.101878 0)
  (0.138759 0.13477 0)
  (0.171621 0.108233 0)
  (0.143698 0.0380585 0)
  (0.139011 -0.0136746 0)
  (0.132726 -0.0471535 0)
  (0.122497 -0.060491 0)
  (0.110877 -0.0601582 0)
  (0.0976305 -0.0521124 0)
  (0.0924091 -0.0292269 0)
  (0.102697 -0.0168048 0)
  (0.108972 -0.0101124 0)
  (0.108117 -0.00596082 0)
  (0.10364 -0.00299626 0)
  (0.0975023 -0.000661554 0)
  (0.0898333 0.00146078 0)
  (0.0797584 0.00393855 0)
  (0.0653935 0.00761679 0)
  (0.051087 0.0291111 0)
  (0.0424163 0.054892 0)
  (0.040289 0.0832358 0)
  (-0.0195956 0.120634 0)
  (0.556277 0.418664 0)
  (-0.210707 0.200126 0)
  (-0.0542403 0.113124 0)
  (-0.0613414 0.0179312 0)
  (-0.027911 -0.102854 0)
  (0.00923533 -0.205224 0)
  (0.0356856 -0.249633 0)
  (0.0538334 -0.243229 0)
  (0.0668395 -0.202371 0)
  (0.0756285 -0.145111 0)
  (0.0796824 -0.0864502 0)
  (0.0802284 -0.0349826 0)
  (0.079908 0.00788495 0)
  (0.0818314 0.0431494 0)
  (0.0900221 0.0713294 0)
  (0.105152 0.0886434 0)
  (0.127956 0.0943266 0)
  (0.1467 0.0468672 0)
  (0.148405 0.00438868 0)
  (0.145243 -0.0255942 0)
  (0.134895 -0.0430584 0)
  (0.119616 -0.0491259 0)
  (0.102882 -0.0460818 0)
  (0.0871495 -0.0354599 0)
  (0.0779238 -0.0150379 0)
  (0.0752627 -0.00215533 0)
  (0.0718341 0.00414413 0)
  (0.0669498 0.00731392 0)
  (0.0615952 0.00936559 0)
  (0.0564236 0.0111391 0)
  (0.0513339 0.0132642 0)
  (0.0459727 0.0165331 0)
  (0.0397823 0.0224175 0)
  (0.0354955 0.038544 0)
  (0.0346338 0.0616746 0)
  (0.0489848 0.0892859 0)
  (0.0274167 0.122441 0)
  (0.0786796 0.0878735 0)
  (-0.0139506 0.00159894 0)
  (-0.25875 -0.0363034 0)
  (0.647507 0.463282 0)
  (-0.240301 0.217229 0)
  (-0.0190621 0.107242 0)
  (0.00894483 -0.00978741 0)
  (0.0535779 -0.14272 0)
  (0.0805769 -0.231035 0)
  (0.0919572 -0.265173 0)
  (0.0920107 -0.251415 0)
  (0.085445 -0.205177 0)
  (0.0756066 -0.143207 0)
  (0.064291 -0.0813113 0)
  (0.0539256 -0.0296335 0)
  (0.0468444 0.010145 0)
  (0.0474822 0.0390853 0)
  (0.0561743 0.0590845 0)
  (0.0712596 0.0683235 0)
  (0.0924152 0.0638658 0)
  (0.109457 0.0340007 0)
  (0.115266 0.00634651 0)
  (0.111733 -0.0143427 0)
  (0.100845 -0.0271866 0)
  (0.0858697 -0.031788 0)
  (0.0696165 -0.0291754 0)
  (0.0543691 -0.0207189 0)
  (0.0429625 -0.00753699 0)
  (0.0354756 0.00249743 0)
  (0.0306244 0.00780325 0)
  (0.0265634 0.0104066 0)
  (0.0230705 0.0120379 0)
  (0.0202665 0.0135429 0)
  (0.0181656 0.0155614 0)
  (0.0168003 0.0188991 0)
  (0.0161102 0.0249324 0)
  (0.0183873 0.0379283 0)
  (0.0246104 0.0574565 0)
  (0.0459688 0.0799936 0)
  (0.0540778 0.0957659 0)
  (0.0937832 0.07174 0)
  (0.106757 0.05301 0)
  (-0.0686825 0.0308072 0)
  (0.733141 0.501751 0)
  (-0.251575 0.195672 0)
  (0.0333847 0.031629 0)
  (0.108153 -0.0833366 0)
  (0.149324 -0.184033 0)
  (0.161511 -0.247498 0)
  (0.152642 -0.263241 0)
  (0.128819 -0.23782 0)
  (0.0974369 -0.186077 0)
  (0.0653446 -0.122163 0)
  (0.0369335 -0.0613593 0)
  (0.0159708 -0.0147681 0)
  (0.00472167 0.0161456 0)
  (0.00642223 0.0349373 0)
  (0.0160321 0.0465733 0)
  (0.0309238 0.0504766 0)
  (0.0491329 0.0446943 0)
  (0.0623279 0.0262794 0)
  (0.0661337 0.00732577 0)
  (0.0623096 -0.00693189 0)
  (0.052329 -0.0151319 0)
  (0.0389102 -0.017294 0)
  (0.0244346 -0.0143351 0)
  (0.0109797 -0.00752666 0)
  (7.93873e-05 0.00157037 0)
  (-0.00608136 0.00822585 0)
  (-0.0092323 0.0115242 0)
  (-0.0112512 0.0130333 0)
  (-0.0124674 0.0138319 0)
  (-0.0128859 0.0145 0)
  (-0.0124096 0.0155318 0)
  (-0.0109286 0.0175615 0)
  (-0.00843774 0.0215988 0)
  (-0.00340705 0.0299554 0)
  (0.00633577 0.043102 0)
  (0.0293553 0.0548914 0)
  (0.0558603 0.0502702 0)
  (0.0957312 0.0206762 0)
  (0.126417 0.0250387 0)
  (-0.0360871 0.0901502 0)
  (0.849314 0.483588 0)
  (0.000447389 0.164639 0)
  (0.14982 -0.0540434 0)
  (0.25787 -0.152883 0)
  (0.275629 -0.210554 0)
  (0.252143 -0.238227 0)
  (0.207633 -0.231642 0)
  (0.150041 -0.19506 0)
  (0.0885031 -0.141063 0)
  (0.0326755 -0.0800364 0)
  (-0.00998309 -0.026269 0)
  (-0.0327826 0.00414236 0)
  (-0.0387253 0.0192692 0)
  (-0.0352706 0.0283652 0)
  (-0.0260218 0.0340665 0)
  (-0.0132312 0.0354788 0)
  (0.000667794 0.0310117 0)
  (0.0094566 0.0199051 0)
  (0.0107789 0.00848611 0)
  (0.00624934 0.000114753 0)
  (-0.00224597 -0.00421923 0)
  (-0.0134094 -0.00436955 0)
  (-0.0248372 -0.00144218 0)
  (-0.0346077 0.00318793 0)
  (-0.0407778 0.00790113 0)
  (-0.0437374 0.0111757 0)
  (-0.0448913 0.0128442 0)
  (-0.045141 0.0134812 0)
  (-0.0447986 0.0135503 0)
  (-0.0439877 0.0134253 0)
  (-0.0428343 0.0135484 0)
  (-0.0416685 0.0145773 0)
  (-0.0411618 0.0175649 0)
  (-0.0417105 0.0239853 0)
  (-0.0434596 0.0338412 0)
  (-0.045897 0.0436851 0)
  (-0.0540529 0.0502776 0)
  (-0.0730664 0.0681104 0)
  (-0.138657 0.107077 0)
  (-0.41271 0.147789 0)
  (1.01567 0.415601 0)
  (0.484734 0.267798 0)
  (0.495985 0.136379 0)
  (0.481488 -0.00856937 0)
  (0.410723 -0.10904 0)
  (0.315755 -0.153972 0)
  (0.21701 -0.151991 0)
  (0.120574 -0.118049 0)
  (0.0325951 -0.0701476 0)
  (-0.0388505 -0.0191419 0)
  (-0.0697974 0.00439766 0)
  (-0.0809229 0.0138912 0)
  (-0.0815984 0.0187718 0)
  (-0.0770143 0.0222123 0)
  (-0.0691572 0.0245339 0)
  (-0.0597562 0.0248595 0)
  (-0.0509668 0.0224095 0)
  (-0.0459535 0.017198 0)
  (-0.0458494 0.0116396 0)
  (-0.0497249 0.00750997 0)
  (-0.0559651 0.00556099 0)
  (-0.0628885 0.00562497 0)
  (-0.0690308 0.00697623 0)
  (-0.0734965 0.00891048 0)
  (-0.0758596 0.0107895 0)
  (-0.0764926 0.0120387 0)
  (-0.0761155 0.0125409 0)
  (-0.0752934 0.0125062 0)
  (-0.0744021 0.0122302 0)
  (-0.0737817 0.0121472 0)
  (-0.0738321 0.0129379 0)
  (-0.0750311 0.0156022 0)
  (-0.0777943 0.0214008 0)
  (-0.08235 0.0314438 0)
  (-0.0893716 0.0455728 0)
  (-0.100312 0.0604938 0)
  (-0.116732 0.0673322 0)
  (-0.142479 0.0531237 0)
  (-0.210435 0.00692336 0)
  (-0.381806 -0.0761338 0)
  (0.0124342 -0.00119907 0)
  (0.145914 -0.0807312 0)
  (0.162737 -0.116865 0)
  (0.101703 -0.103257 0)
  (0.025902 -0.0661262 0)
  (-0.0508888 -0.0192884 0)
  (-0.0988942 0.00606038 0)
  (-0.12284 0.0171126 0)
  (-0.128303 0.018888 0)
  (-0.128116 0.0189187 0)
  (-0.124769 0.0190933 0)
  (-0.119603 0.0198629 0)
  (-0.113321 0.0208297 0)
  (-0.106771 0.021325 0)
  (-0.101133 0.0208558 0)
  (-0.0977663 0.0193784 0)
  (-0.0970831 0.0177129 0)
  (-0.0985013 0.0165845 0)
  (-0.101011 0.0163935 0)
  (-0.103574 0.01715 0)
  (-0.105426 0.0185575 0)
  (-0.106185 0.020286 0)
  (-0.105797 0.0220601 0)
  (-0.1045 0.0236768 0)
  (-0.102633 0.0250769 0)
  (-0.100461 0.0263102 0)
  (-0.098167 0.0274718 0)
  (-0.0958862 0.028714 0)
  (-0.0937139 0.0303035 0)
  (-0.0916227 0.0327674 0)
  (-0.0892575 0.0371377 0)
  (-0.0857521 0.0450526 0)
  (-0.0799689 0.0581461 0)
  (-0.071177 0.0763766 0)
  (-0.059298 0.0949305 0)
  (-0.0442769 0.100011 0)
  (0.000122223 0.0534206 0)
  (-0.0757588 -0.142324 0)
  (0.170526 0.104 0)
  (0.00922647 -0.00524568 0)
  (-0.0385993 -0.0485779 0)
  (-0.0999225 -0.0415763 0)
  (-0.147949 -0.028583 0)
  (-0.173395 -0.0214792 0)
  (-0.180531 -0.0208438 0)
  (-0.180276 -0.0221653 0)
  (-0.176636 -0.0251809 0)
  (-0.172212 -0.0273873 0)
  (-0.167322 -0.0282341 0)
  (-0.161974 -0.0280064 0)
  (-0.156169 -0.027425 0)
  (-0.150151 -0.0272826 0)
  (-0.144436 -0.0282252 0)
  (-0.139641 -0.0305712 0)
  (-0.136048 -0.0341005 0)
  (-0.133513 -0.0383821 0)
  (-0.131635 -0.042933 0)
  (-0.129947 -0.0473695 0)
  (-0.128074 -0.0515114 0)
  (-0.125808 -0.0553565 0)
  (-0.123106 -0.0590438 0)
  (-0.120065 -0.0627657 0)
  (-0.116847 -0.066607 0)
  (-0.113606 -0.070422 0)
  (-0.110431 -0.0737667 0)
  (-0.107283 -0.0758528 0)
  (-0.103905 -0.0755692 0)
  (-0.0996595 -0.071628 0)
  (-0.0933059 -0.0628606 0)
  (-0.0828563 -0.0486787 0)
  (-0.0658807 -0.0297802 0)
  (-0.0407502 -0.0092965 0)
  (-0.00539921 0.00459951 0)
  (0.0385184 -0.0242831 0)
  (0.101394 -0.0963292 0)
  (-0.0238853 -0.163116 0)
  (-0.0490019 -0.298443 0)
  (-0.382454 -0.105153 0)
  (-0.297699 0.0792162 0)
  (-0.295458 0.0770706 0)
  (-0.270047 0.0902041 0)
  (-0.2674 0.100024 0)
  (-0.263149 0.109132 0)
  (-0.254916 0.117278 0)
  (-0.244722 0.123289 0)
  (-0.234929 0.127987 0)
  (-0.226628 0.131659 0)
  (-0.219868 0.134486 0)
  (-0.213902 0.136832 0)
  (-0.207946 0.139276 0)
  (-0.201436 0.142403 0)
  (-0.194171 0.14665 0)
  (-0.186316 0.152248 0)
  (-0.17827 0.159186 0)
  (-0.170429 0.167215 0)
  (-0.163047 0.175911 0)
  (-0.156205 0.184782 0)
  (-0.149855 0.193408 0)
  (-0.143875 0.201567 0)
  (-0.138128 0.209253 0)
  (-0.132507 0.216624 0)
  (-0.126968 0.223876 0)
  (-0.121522 0.231113 0)
  (-0.116187 0.238264 0)
  (-0.110939 0.245044 0)
  (-0.105639 0.250942 0)
  (-0.0999354 0.255281 0)
  (-0.0931008 0.25742 0)
  (-0.0838979 0.257145 0)
  (-0.0708051 0.255177 0)
  (-0.0529424 0.253602 0)
  (-0.0309294 0.255848 0)
  (-0.00275889 0.261849 0)
  (0.0232018 0.282615 0)
  (0.087576 0.321617 0)
  (-0.235042 0.393343 0)
)
;

boundaryField
{
  floor
  {
    type noSlip;
  }
  ceiling
  {
    type noSlip;
  }
  sWall
  {
    type noSlip;
  }
  nWall
  {
    type noSlip;
  }
  sideWalls
  {
    type empty;
  }
  glass1
  {
    type noSlip;
  }
  glass2
  {
    type noSlip;
  }
  sun
  {
    type noSlip;
  }
  heatsource1
  {
    type noSlip;
  }
  heatsource2
  {
    type noSlip;
  }
  Table_master
  {
    type noSlip;
  }
  Table_slave
  {
    type noSlip;
  }
  inlet
  {
    type fixedValue;
    value uniform (0.277164 -0.114805 0);
  }
  outlet
  {
    type zeroGradient;
  }
} 	// ************************************************************************* //

