/*--------------------------------*- C++ -*----------------------------------*\
  =========                 |
  \\      /  F ield         | OpenFOAM: The Open Source CFD Toolbox
   \\    /   O peration     | Website:  https://openfoam.org
    \\  /    A nd           | Version:  6
     \\/     M anipulation  |
\*---------------------------------------------------------------------------*/
FoamFile
{
    version     2.0;
    format      ascii;
    class       volScalarField;
    location    "1300";
    object      alphat;
}
// * * * * * * * * * * * * * * * * * * * * * * * * * * * * * * * * * * * * * //

dimensions      [1 -1 -1 0 0 0 0];

internalField   nonuniform List<scalar> 
459
(
0.00099333
0.00110422
0.00116131
0.00101888
0.000978826
0.000911132
0.000822105
0.000712364
0.000660699
0.000631253
0.000614833
0.000608779
0.000609347
0.000611029
0.000615993
0.000537224
0.000520898
0.000395743
0.000308167
0.0002826
0.000277092
0.00027696
0.000289291
0.000304392
0.00031858
0.000329817
0.000336959
0.000337221
0.000339943
0.000358651
0.000405874
0.000471392
0.000621423
0.000584016
0.00117674
0.00189269
0.00240122
0.00294551
0.00329537
0.00353062
0.00298985
0.00255636
0.00276365
0.00282435
0.00260689
0.00232141
0.00203308
0.00172015
0.00132693
0.000725378
0.000548203
0.000721765
0.00188849
0.00135435
0.00109629
0.000860647
0.000701286
0.000606555
0.000697102
0.000820125
0.000927353
0.00100729
0.0010614
0.00108706
0.00115035
0.00133035
0.00180607
0.00196424
0.00250759
0.000854578
0.00262707
0.00292058
0.00289858
0.00292531
0.00313091
0.00348852
0.00365289
0.0033364
0.00337476
0.0039175
0.00387553
0.00352032
0.003092
0.00262854
0.00210479
0.00151161
0.000878473
0.000854054
0.0021271
0.0016244
0.0011939
0.000829851
0.000570388
0.000345611
0.000371943
0.000405724
0.000443514
0.000488147
0.000544025
0.000618081
0.00072336
0.0008848
0.00263133
0.00298915
0.00380236
0.00110519
0.0030851
0.00358574
0.00339374
0.00315607
0.00315222
0.00343726
0.00377698
0.00378308
0.00391041
0.00459393
0.00492951
0.0047767
0.00445124
0.00403277
0.00348549
0.00272211
0.00172561
0.000943258
0.00204791
0.00252003
0.00210534
0.0016221
0.00123332
0.000929244
0.000718014
0.000733698
0.000752642
0.000774913
0.00080292
0.000839868
0.000890795
0.000965202
0.00108392
0.00308598
0.00335371
0.00394756
0.0012221
0.0032826
0.00424177
0.00391909
0.00337115
0.00320447
0.00344266
0.00387513
0.00410742
0.00439306
0.00508063
0.00567453
0.00582154
0.00581389
0.00576763
0.00570322
0.00558193
0.00531966
0.00492176
0.00474587
0.00462308
0.00439598
0.00423429
0.00414197
0.00407531
0.00399694
0.00398127
0.00395736
0.0039253
0.00388627
0.00384301
0.00380002
0.00376467
0.00374567
0.00374812
0.0034023
0.00291107
0.00231096
0.00147664
0.00158654
0.00159907
0.00343881
0.00457892
0.00447497
0.00349237
0.00320439
0.00347645
0.00402807
0.00444206
0.00481806
0.00542881
0.0060118
0.00629953
0.00649896
0.00666293
0.00679771
0.00687963
0.00685264
0.0066801
0.0064407
0.00622914
0.00607157
0.00597888
0.00593276
0.00590367
0.00587014
0.00582822
0.00578097
0.0057286
0.00567047
0.00560564
0.00553224
0.00544685
0.00534357
0.00521061
0.0050321
0.00486947
0.00479458
0.00493684
0.00520915
0.00203435
0.00360174
0.00433208
0.00468115
0.00352685
0.00326447
0.00361893
0.00424494
0.00479726
0.00525525
0.00567975
0.00602202
0.00630487
0.00660125
0.00690285
0.00718509
0.00740726
0.00751661
0.00749514
0.00738292
0.00725701
0.00715281
0.00707915
0.0070277
0.00698001
0.00692422
0.00686021
0.006792
0.00672073
0.0066464
0.00657013
0.0064949
0.00642598
0.00637104
0.00633677
0.00632062
0.00631158
0.00631841
0.00661248
0.00761475
0.00242913
0.0038232
0.00406857
0.00315542
0.00335984
0.00356378
0.0040464
0.00470473
0.00534227
0.00573777
0.00587397
0.00606728
0.00633924
0.00663723
0.00694355
0.00725649
0.00755585
0.00779253
0.00791574
0.00794044
0.00791556
0.00787508
0.00783501
0.00779644
0.00774555
0.00768239
0.00760963
0.00753032
0.00744493
0.00735165
0.00725023
0.00714332
0.00703719
0.00694285
0.00687706
0.00686284
0.00692441
0.00704345
0.00724262
0.00873572
0.00285667
0.00421911
0.00487609
0.00485314
0.00298995
0.00391999
0.00501735
0.00566271
0.00618153
0.00631715
0.00652925
0.0068386
0.00713679
0.00737417
0.00757251
0.00776524
0.00796557
0.00815672
0.00830691
0.00840246
0.00845276
0.00847321
0.0084769
0.00847031
0.00844354
0.0083988
0.00834069
0.00827141
0.00819073
0.00809591
0.00798582
0.00786151
0.00772618
0.00758575
0.00745073
0.00734174
0.00730271
0.00739952
0.00768627
0.00874837
0.00287676
0.00755282
0.0076833
0.00472686
0.00666004
0.00741822
0.00777501
0.00806496
0.00843863
0.00877919
0.00902865
0.00916193
0.00921914
0.00924565
0.00927258
0.00931109
0.00935637
0.0093992
0.00943376
0.00945835
0.00947369
0.00948045
0.0094747
0.00945078
0.00941408
0.00936272
0.00929211
0.00920079
0.00908979
0.00896073
0.00881509
0.00865467
0.00848316
0.00830944
0.00815202
0.00803873
0.00797691
0.00755685
0.00210559
0.00540157
0.00842616
0.00849298
0.00756843
0.00766501
0.00834399
0.00917535
0.00988964
0.0103559
0.0105753
0.0106139
0.0105574
0.0104723
0.0103969
0.0103459
0.0103188
0.0103086
0.0103084
0.0103129
0.0103195
0.0103272
0.0103365
0.0103465
0.0103556
0.0103515
0.0103162
0.0102556
0.0101765
0.0100836
0.00997906
0.00986324
0.00973538
0.00959419
0.00943742
0.00925241
0.00897995
0.00789391
0.00224455
0.00191126
0.00196183
0.00342406
0.00328018
0.00309613
0.00289946
0.00272332
0.0026032
0.00254308
0.00252839
0.00253725
0.00254923
0.00255377
0.00254777
0.00253356
0.00251517
0.0024961
0.00247842
0.0024629
0.0024495
0.00243782
0.00242744
0.00241799
0.00240915
0.0024009
0.00239281
0.00238508
0.00237838
0.00237105
0.00236267
0.0023534
0.00234361
0.00233363
0.00232378
0.0023143
0.00230556
0.00229895
0.00229685
0.00221205
0.00195518
)
;

boundaryField
{
    floor
    {
        type            compressible::alphatWallFunction;
        Prt             0.85;
        value           nonuniform List<scalar> 
29
(
8.70618e-05
7.51477e-05
7.26621e-05
5.32663e-05
3.922e-05
3.50222e-05
3.41113e-05
3.40896e-05
3.61243e-05
3.86003e-05
4.09115e-05
4.27314e-05
4.38827e-05
4.39229e-05
4.4361e-05
4.73637e-05
5.48559e-05
6.50677e-05
8.78193e-05
8.22239e-05
8.22229e-05
0.00012191
0.000157333
0.000173541
8.70608e-05
7.51468e-05
0.000102648
0.00012184
0.000134597
)
;
    }
    ceiling
    {
        type            compressible::alphatWallFunction;
        Prt             0.85;
        value           nonuniform List<scalar> 
43
(
0.000266737
0.000273477
0.000458417
0.000440688
0.000417715
0.000392981
0.000370696
0.000355411
0.000347719
0.000345812
0.000346912
0.000348416
0.00034898
0.000348209
0.000346395
0.000344051
0.000341617
0.000339358
0.000337374
0.000335658
0.000334162
0.000332831
0.000331618
0.000330484
0.000329424
0.000328384
0.000327391
0.00032653
0.000325587
0.00032451
0.000323319
0.00032206
0.000320778
0.000319512
0.000318292
0.000317166
0.000316312
0.000316037
0.000305121
0.000271782
0.000554937
0.00063333
0.000695632
)
;
    }
    sWall
    {
        type            compressible::alphatWallFunction;
        Prt             0.85;
        value           uniform 0.000266194;
    }
    nWall
    {
        type            compressible::alphatWallFunction;
        Prt             0.85;
        value           nonuniform List<scalar> 6(0.000224578 0.000281913 0.000332757 0.000291166 0.000309122 0.000271602);
    }
    sideWalls
    {
        type            empty;
    }
    glass1
    {
        type            compressible::alphatWallFunction;
        Prt             0.85;
        value           nonuniform List<scalar> 9(0.000139564 0.000165062 0.000355494 0.000413034 0.000437591 0.000456858 0.000476771 0.000503611 0.000551249);
    }
    glass2
    {
        type            compressible::alphatWallFunction;
        Prt             0.85;
        value           nonuniform List<scalar> 2(0.000388049 0.000390589);
    }
    sun
    {
        type            compressible::alphatWallFunction;
        Prt             0.85;
        value           nonuniform List<scalar> 
14
(
0.000141716
0.000157252
0.000165183
0.000145306
0.000139655
0.000130042
0.000117275
0.000101322
9.37095e-05
8.93381e-05
8.68899e-05
8.59852e-05
8.60701e-05
8.63214e-05
)
;
    }
    heatsource1
    {
        type            compressible::alphatWallFunction;
        Prt             0.85;
        value           nonuniform List<scalar> 3(0.000207965 0.000222709 0.000224381);
    }
    heatsource2
    {
        type            compressible::alphatWallFunction;
        Prt             0.85;
        value           nonuniform List<scalar> 4(0.000103045 7.66814e-05 7.66805e-05 0.000125176);
    }
    Table_master
    {
        type            compressible::alphatWallFunction;
        Prt             0.85;
        value           nonuniform List<scalar> 9(4.51696e-05 4.93778e-05 5.47202e-05 6.06294e-05 6.7527e-05 7.60525e-05 8.71864e-05 0.00010274 0.000126076);
    }
    Table_slave
    {
        type            compressible::alphatWallFunction;
        Prt             0.85;
        value           nonuniform List<scalar> 9(0.000101961 0.000104255 0.000107018 0.000110256 0.000114311 0.000119637 0.000126932 0.000137504 0.000154178);
    }
    inlet
    {
        type            fixedValue;
        value           uniform 1.94e-05;
    }
    outlet
    {
        type            zeroGradient;
    }
}


// ************************************************************************* //
