/*--------------------------------*- C++ -*----------------------------------*\
  =========                 |
  \\      /  F ield         | OpenFOAM: The Open Source CFD Toolbox
   \\    /   O peration     | Website:  https://openfoam.org
    \\  /    A nd           | Version:  6
     \\/     M anipulation  |
\*---------------------------------------------------------------------------*/
FoamFile
{
    version     2.0;
    format      ascii;
    class       volScalarField;
    location    "260";
    object      epsilon;
}
// * * * * * * * * * * * * * * * * * * * * * * * * * * * * * * * * * * * * * //

dimensions      [0 2 -3 0 0 0 0];

internalField   nonuniform List<scalar> 
459
(
0.00019906
0.000302532
0.000376013
0.000492572
0.00060197
0.000681548
0.000651972
0.000585081
0.000509339
0.000437097
0.000372042
0.000317682
0.000267493
0.000216525
0.000165399
4.05927e-05
8.34243e-05
0.000116346
0.000133398
0.000127829
0.000115653
9.68463e-05
7.96362e-05
6.59745e-05
5.53527e-05
4.7036e-05
4.04352e-05
3.50861e-05
3.07052e-05
2.69398e-05
2.34915e-05
2.00676e-05
1.56216e-05
1.17794e-05
0.000370286
0.000401535
0.000311849
0.000376167
0.000442109
0.0004737
0.000454248
0.000388148
0.000318588
0.000263763
0.000225295
0.000199686
0.000179456
0.000159573
0.000136858
0.000168302
0.000114529
0.000103449
0.000265345
0.000146115
0.000117727
0.000103373
9.24393e-05
9.17657e-05
7.57408e-05
6.0679e-05
4.86455e-05
3.93334e-05
3.21644e-05
2.65759e-05
2.22224e-05
1.88673e-05
1.70193e-05
1.81629e-05
1.59319e-05
1.74857e-05
0.000587068
0.0007051
0.000424257
0.000453863
0.000449083
0.000449178
0.00044947
0.00038005
0.000295858
0.000231328
0.000188974
0.000161503
0.000142284
0.000126788
0.00011266
0.000112766
0.000124732
0.000123675
0.000317384
0.000171421
0.000127126
0.000107512
0.000100481
0.000218513
0.000149333
0.000104627
7.55936e-05
5.63287e-05
4.32145e-05
3.40862e-05
2.79336e-05
2.41213e-05
1.81227e-05
1.7665e-05
1.94692e-05
2.29102e-05
0.000870686
0.00123407
0.000645033
0.000577404
0.0004732
0.000468611
0.000484863
0.000403342
0.000291937
0.000209632
0.000160851
0.000133081
0.000116045
0.000104122
9.53077e-05
9.18299e-05
9.81855e-05
0.000127303
0.000136469
0.000119402
0.000113297
0.000111403
0.000107331
0.000108502
0.000290497
0.000220904
0.0001744
0.00014001
0.000112327
8.89518e-05
6.8757e-05
5.11805e-05
3.54858e-05
1.95583e-05
1.61383e-05
3.33284e-05
3.29417e-05
0.00122041
0.00196069
0.00101263
0.000728511
0.000523766
0.000536756
0.000566505
0.000460757
0.000303482
0.000191822
0.000132714
0.000106525
9.49193e-05
8.89676e-05
8.64478e-05
8.69428e-05
9.89132e-05
0.00011136
0.000113065
0.000123897
0.000134613
0.000137828
0.000131637
0.000120656
0.000120458
0.000114571
0.000108397
9.94801e-05
8.72709e-05
7.27206e-05
5.69818e-05
4.13344e-05
2.63364e-05
1.63059e-05
1.38805e-05
3.50498e-05
4.06312e-05
4.74437e-05
4.12147e-05
3.19826e-05
0.00159392
0.00268921
0.0016232
0.000855197
0.000611397
0.000648165
0.000690474
0.000544553
0.000319623
0.000170477
0.000104988
8.67445e-05
8.33244e-05
8.46355e-05
8.98865e-05
0.000100471
0.000122827
0.000146634
0.000168732
0.000185985
0.00019199
0.000183675
0.000164101
0.000139998
0.000120154
0.000106289
9.56146e-05
8.39815e-05
7.02702e-05
5.5203e-05
3.97808e-05
2.72085e-05
1.77677e-05
1.39965e-05
1.45394e-05
2.9121e-05
4.5558e-05
4.61637e-05
5.38781e-05
4.25635e-05
0.00176906
0.00291848
0.00183229
0.0009521
0.000729856
0.000806964
0.000858579
0.000644127
0.000324987
0.000148299
9.83181e-05
8.87132e-05
9.09362e-05
9.886e-05
0.000113201
0.000135287
0.000169254
0.000207103
0.000236609
0.000247445
0.000237664
0.000210808
0.000174884
0.000136973
0.000107917
9.02496e-05
7.67287e-05
6.34584e-05
5.01089e-05
3.77368e-05
2.76085e-05
2.09973e-05
1.77407e-05
1.83157e-05
2.26996e-05
2.90193e-05
5.1872e-05
6.12784e-05
0.000102494
6.03348e-05
0.00168384
0.00257425
0.00148858
0.000952638
0.000869158
0.00102652
0.00107155
0.000733056
0.000313999
0.000167564
0.000132145
0.00012867
0.000135558
0.00014885
0.000169627
0.000200131
0.000242456
0.000280474
0.000298463
0.000287131
0.000250536
0.000203331
0.000157688
0.000120975
9.54346e-05
7.80651e-05
6.43665e-05
5.24023e-05
4.21333e-05
3.41135e-05
2.87785e-05
2.62964e-05
2.66962e-05
3.07141e-05
3.92427e-05
5.24981e-05
7.19385e-05
9.48899e-05
0.000117236
8.28836e-05
0.00148513
0.001818
0.00117148
0.000923424
0.00106341
0.00133729
0.00130608
0.000742232
0.000364379
0.000265688
0.000247239
0.000250461
0.000260942
0.000276489
0.000297738
0.000324424
0.000352054
0.0003669
0.000357921
0.000325364
0.000278703
0.000230992
0.000190191
0.000159109
0.000136886
0.000121213
0.000110023
0.000102302
9.74414e-05
9.4455e-05
9.15745e-05
8.6603e-05
7.84459e-05
6.94694e-05
6.57633e-05
7.28709e-05
9.25117e-05
0.000130512
0.000206975
0.000396297
0.000369041
0.00107075
0.00169335
0.00185642
0.00110596
0.000671216
0.00057091
0.000567814
0.000585981
0.000603213
0.000616232
0.000626373
0.000634886
0.000640905
0.000640768
0.000629267
0.000605244
0.000572548
0.000537043
0.000503668
0.000475091
0.000452446
0.000436186
0.000426763
0.000424623
0.000429742
0.000440759
0.000453925
0.000462224
0.000455704
0.000424783
0.000367534
0.000296912
0.000237072
0.0002073
0.000225327
0.000323293
0.000608786
0.00411692
0.00582905
0.00441611
0.00262497
0.00154921
0.00128258
0.00128265
0.00134843
0.00141235
0.00145394
0.00147437
0.00148239
0.00148729
0.00149557
0.00150891
0.00152352
0.00153179
0.00152833
0.001513
0.00148979
0.00146368
0.00143967
0.00142291
0.00141878
0.00143205
0.0014659
0.00152042
0.00159
0.00165982
0.00170235
0.00167868
0.00155228
0.00131841
0.00102517
0.000748399
0.00071419
0.00127365
0.00111152
0.00124027
0.00151865
0.00193337
0.00215661
0.00187048
0.00156939
0.00134585
0.00122264
0.00117179
0.00115472
0.00115092
0.00115307
0.00115887
0.00116702
0.00117564
0.00118174
0.00118176
0.00117312
0.00115614
0.00113388
0.00111021
0.00108832
0.00107023
0.00105713
0.00104975
0.00104845
0.00105319
0.00106308
0.00107582
0.00108718
0.00109078
0.00107874
0.00104371
0.00098175
0.000893954
0.000785217
0.000670276
0.000619933
0.000673128
0.000588575
)
;

boundaryField
{
    floor
    {
        Cmu             0.09;
        kappa           0.41;
        E               9.8;
        type            epsilonWallFunction;
        value           nonuniform List<scalar> 
29
(
0.000165399
4.05927e-05
8.34243e-05
0.000116346
0.000133398
0.000127829
0.000115653
9.68463e-05
7.96362e-05
6.59745e-05
5.53527e-05
4.7036e-05
4.04352e-05
3.50861e-05
3.07052e-05
2.69398e-05
2.34915e-05
2.00676e-05
1.56216e-05
1.17794e-05
1.17794e-05
1.74857e-05
2.29102e-05
3.29417e-05
0.000165399
4.05927e-05
0.000103449
0.000123675
0.000127303
)
;
    }
    ceiling
    {
        Cmu             0.09;
        kappa           0.41;
        E               9.8;
        type            epsilonWallFunction;
        value           nonuniform List<scalar> 
43
(
0.00124027
0.00151865
0.00193337
0.00215661
0.00187048
0.00156939
0.00134585
0.00122264
0.00117179
0.00115472
0.00115092
0.00115307
0.00115887
0.00116702
0.00117564
0.00118174
0.00118176
0.00117312
0.00115614
0.00113388
0.00111021
0.00108832
0.00107023
0.00105713
0.00104975
0.00104845
0.00105319
0.00106308
0.00107582
0.00108718
0.00109078
0.00107874
0.00104371
0.00098175
0.000893954
0.000785217
0.000670276
0.000619933
0.000673128
0.000588575
0.00148513
0.001818
0.00411692
)
;
    }
    sWall
    {
        Cmu             0.09;
        kappa           0.41;
        E               9.8;
        type            epsilonWallFunction;
        value           uniform 0.00124027;
    }
    nWall
    {
        Cmu             0.09;
        kappa           0.41;
        E               9.8;
        type            epsilonWallFunction;
        value           nonuniform List<scalar> 6(3.19826e-05 4.25635e-05 6.03348e-05 0.000608786 0.00111152 0.000588575);
    }
    sideWalls
    {
        type            empty;
    }
    glass1
    {
        Cmu             0.09;
        kappa           0.41;
        E               9.8;
        type            epsilonWallFunction;
        value           nonuniform List<scalar> 9(0.00019906 0.000370286 0.000587068 0.000870686 0.00122041 0.00159392 0.00176906 0.00168384 0.00148513);
    }
    glass2
    {
        Cmu             0.09;
        kappa           0.41;
        E               9.8;
        type            epsilonWallFunction;
        value           nonuniform List<scalar> 2(8.28836e-05 0.000396297);
    }
    sun
    {
        Cmu             0.09;
        kappa           0.41;
        E               9.8;
        type            epsilonWallFunction;
        value           nonuniform List<scalar> 
14
(
0.00019906
0.000302532
0.000376013
0.000492572
0.00060197
0.000681548
0.000651972
0.000585081
0.000509339
0.000437097
0.000372042
0.000317682
0.000267493
0.000216525
)
;
    }
    heatsource1
    {
        Cmu             0.09;
        kappa           0.41;
        E               9.8;
        type            epsilonWallFunction;
        value           nonuniform List<scalar> 3(4.74437e-05 4.12147e-05 3.19826e-05);
    }
    heatsource2
    {
        Cmu             0.09;
        kappa           0.41;
        E               9.8;
        type            epsilonWallFunction;
        value           nonuniform List<scalar> 4(0.000168302 0.000114529 0.000114529 0.000124732);
    }
    Table_master
    {
        Cmu             0.09;
        kappa           0.41;
        E               9.8;
        type            epsilonWallFunction;
        value           nonuniform List<scalar> 9(0.000218513 0.000149333 0.000104627 7.55936e-05 5.63287e-05 4.32145e-05 3.40862e-05 2.79336e-05 2.41213e-05);
    }
    Table_slave
    {
        Cmu             0.09;
        kappa           0.41;
        E               9.8;
        type            epsilonWallFunction;
        value           nonuniform List<scalar> 9(0.000290497 0.000220904 0.0001744 0.00014001 0.000112327 8.89518e-05 6.8757e-05 5.11805e-05 3.54858e-05);
    }
    inlet
    {
        type            turbulentMixingLengthDissipationRateInlet;
        mixingLength    0.01;
        phi             phi;
        k               k;
        value           uniform 0.000101881;
    }
    outlet
    {
        type            zeroGradient;
    }
}


// ************************************************************************* //
