/*--------------------------------*- C++ -*----------------------------------*\
  =========                 |
  \\      /  F ield         | OpenFOAM: The Open Source CFD Toolbox
   \\    /   O peration     | Website:  https://openfoam.org
    \\  /    A nd           | Version:  6
     \\/     M anipulation  |
\*---------------------------------------------------------------------------*/
FoamFile
{
    version     2.0;
    format      ascii;
    class       volScalarField;
    location    "900";
    object      nut;
}
// * * * * * * * * * * * * * * * * * * * * * * * * * * * * * * * * * * * * * //

dimensions      [0 2 -1 0 0 0 0];

internalField   nonuniform List<scalar> 
459
(
0.00240615
0.00235454
0.00228369
0.00221687
0.00215927
0.00210878
0.00206354
0.0020215
0.00198052
0.00193861
0.00189363
0.0018428
0.00178158
0.00170032
0.00159151
0.000332806
0.000392511
0.000394196
0.000368352
0.000333961
0.000303042
0.000263714
0.000215858
0.000183282
0.000162107
0.000146281
0.000134273
0.000129427
0.000134758
0.000150283
0.000260115
0.000322906
0.00032826
0.000290935
0.00271029
0.00302683
0.00306592
0.00297935
0.00292523
0.00291204
0.00292246
0.0029229
0.00289858
0.00284686
0.00276606
0.0026526
0.00249444
0.0022539
0.00191691
0.00151915
0.00133868
0.000490267
0.000858526
0.000992234
0.00108014
0.00102271
0.000785736
0.00051872
0.000383182
0.000336348
0.000319648
0.000307446
0.000292768
0.000276477
0.000231384
0.000200572
0.000494625
0.000768347
0.000866182
0.000387473
0.00287559
0.00335883
0.00309895
0.00280255
0.00270938
0.00273999
0.00282835
0.00292628
0.00300485
0.00304393
0.00302971
0.00295252
0.00280258
0.00255632
0.00223404
0.00192933
0.00134878
0.000636828
0.00172469
0.00158113
0.00134913
0.00107155
0.000792526
0.000305269
0.000233751
0.000205567
0.00018918
0.000177922
0.000169204
0.000161817
0.000157061
0.000249664
0.00091736
0.00113931
0.000904834
0.000433686
0.00298826
0.00360143
0.00275384
0.00228524
0.00236682
0.00265317
0.00297016
0.00318457
0.00328959
0.00329983
0.00324378
0.00313485
0.00296895
0.00272104
0.00241194
0.00211891
0.00163788
0.00099048
0.00176952
0.001583
0.00137336
0.00116606
0.00099224
0.000848506
0.000710702
0.000744409
0.000778575
0.000811993
0.000843811
0.00087246
0.000896395
0.00090506
0.000896361
0.00134442
0.00156663
0.00172751
0.000742286
0.00308061
0.00364593
0.00212418
0.00200024
0.00300996
0.00390376
0.00446446
0.00457042
0.00422932
0.00382536
0.00350217
0.00325646
0.0030331
0.00276574
0.00246053
0.00217426
0.00177513
0.00142634
0.00210562
0.00252955
0.0026427
0.0027682
0.00292007
0.00305542
0.00319438
0.00336264
0.00352322
0.00366509
0.00377215
0.00382524
0.00381416
0.0037391
0.00360158
0.00348672
0.00321973
0.00280494
0.0020737
0.000896661
0.000802954
0.000864983
0.00317081
0.00348896
0.00156914
0.00272345
0.00446676
0.00496782
0.0051605
0.00509471
0.00449746
0.00392243
0.00350576
0.00321368
0.00296629
0.00269436
0.00241017
0.00214857
0.00186973
0.00180931
0.00263981
0.00327864
0.00354357
0.00376334
0.0039723
0.00415072
0.00430353
0.00443839
0.00455075
0.00462841
0.00464864
0.00458633
0.00443392
0.00421999
0.00400968
0.00387114
0.00383748
0.0037388
0.00342372
0.00276743
0.00203356
0.000981705
0.00327669
0.00318458
0.00149222
0.00253894
0.00427363
0.0044922
0.00444775
0.00430188
0.00399998
0.00362989
0.00330777
0.00304934
0.00281707
0.00257353
0.00233246
0.00212689
0.00197871
0.00218573
0.00309974
0.00377074
0.00408092
0.00432584
0.0045381
0.00470663
0.00484415
0.00495904
0.00505018
0.00510171
0.00507861
0.00493713
0.00465679
0.00427978
0.003917
0.00369316
0.00366363
0.00372053
0.00361948
0.00326161
0.00271025
0.00112188
0.00343016
0.00321743
0.00183142
0.00169104
0.00332302
0.00359167
0.00355017
0.0034956
0.00340177
0.00323057
0.00303815
0.00285172
0.00266693
0.00247336
0.0022863
0.00214852
0.00212192
0.00255882
0.00348528
0.00407947
0.00439214
0.00464141
0.0048467
0.00501629
0.00516928
0.0053161
0.00545941
0.00557907
0.00562278
0.00551012
0.00516818
0.004595
0.00389368
0.00322034
0.00269407
0.00233195
0.00207949
0.00188717
0.00170992
0.00122808
0.00370599
0.00412135
0.0031444
0.00161571
0.00239646
0.00298139
0.00301962
0.00302015
0.00299887
0.00293816
0.00284513
0.00273467
0.00261007
0.0024703
0.00232939
0.00223976
0.00229964
0.00290607
0.00375474
0.00429516
0.0046366
0.00485041
0.00501578
0.0051513
0.0052792
0.00543247
0.00564151
0.00589786
0.00615255
0.00631182
0.00627024
0.00598268
0.00551614
0.00495032
0.00435789
0.00379671
0.00333093
0.00304782
0.00289609
0.00148672
0.00491011
0.00218296
0.00247144
0.002792
0.00287792
0.00292768
0.00294322
0.00292693
0.00289359
0.00284376
0.00277309
0.00267544
0.00255776
0.00248036
0.00258609
0.00322417
0.00391233
0.00452553
0.00488139
0.00508954
0.0052119
0.00527789
0.00531775
0.00536827
0.00547452
0.00568067
0.00600983
0.00642869
0.00682848
0.00705334
0.00704717
0.00684399
0.0065382
0.00619754
0.00577113
0.00524816
0.00462892
0.00152446
0.00272743
0.00230288
0.00282237
0.00265893
0.00266636
0.00270457
0.00273247
0.00273213
0.00275215
0.0027761
0.00278706
0.00276465
0.00269467
0.00262896
0.0026277
0.0028096
0.00328912
0.00389929
0.00441455
0.00478561
0.0050114
0.00512227
0.00516194
0.00517655
0.00520985
0.00530031
0.00547502
0.00573345
0.00600766
0.00624223
0.00637334
0.00635773
0.0061988
0.00591079
0.00534144
0.00453237
0.0041861
0.00142077
0.00157196
0.00153299
0.00166825
0.00112359
0.00114758
0.0011613
0.00117725
0.00119071
0.00120315
0.00121556
0.00122691
0.00123745
0.00124629
0.00125148
0.00124921
0.00122554
0.00117433
0.00112525
0.00109631
0.00108094
0.00108564
0.00110385
0.00112676
0.00114755
0.00116286
0.00117252
0.00117853
0.00118397
0.00119215
0.00120556
0.00122962
0.00126391
0.00130175
0.00133498
0.00135267
0.0013398
0.00130311
0.00124976
0.00122001
0.00110211
)
;

boundaryField
{
    floor
    {
        type            nutkWallFunction;
        Cmu             0.09;
        kappa           0.41;
        E               9.8;
        value           nonuniform List<scalar> 
29
(
0.000188481
3.78111e-05
4.57652e-05
4.59898e-05
4.25753e-05
3.79795e-05
3.37931e-05
2.8388e-05
2.16594e-05
1.69573e-05
1.38392e-05
1.14711e-05
9.64827e-06
8.90201e-06
9.71509e-06
1.20574e-05
2.78538e-05
3.64645e-05
3.71959e-05
3.21269e-05
3.21269e-05
4.50983e-05
5.11496e-05
8.98844e-05
0.000188481
3.78111e-05
5.84591e-05
7.69305e-05
0.000119614
)
;
    }
    ceiling
    {
        type            nutkWallFunction;
        Cmu             0.09;
        kappa           0.41;
        E               9.8;
        value           nonuniform List<scalar> 
43
(
0.000186339
0.000181947
0.000197015
0.000135198
0.000137984
0.000139574
0.000141419
0.000142975
0.00014441
0.00014584
0.000147146
0.000148358
0.000149373
0.000149967
0.000149705
0.000146982
0.000141073
0.000135384
0.000132014
0.000130222
0.000130767
0.000132887
0.00013555
0.00013796
0.000139733
0.000140851
0.000141545
0.000142174
0.000143119
0.000144668
0.000147439
0.000151378
0.000155714
0.000159514
0.000161537
0.000160081
0.000155892
0.000149778
0.000146349
0.000132696
0.000413149
0.000455387
0.000311509
)
;
    }
    sWall
    {
        type            nutkWallFunction;
        Cmu             0.09;
        kappa           0.41;
        E               9.8;
        value           uniform 0.00018638;
    }
    nWall
    {
        type            nutkWallFunction;
        Cmu             0.09;
        kappa           0.41;
        E               9.8;
        value           nonuniform List<scalar> 6(0.000104697 0.000118551 0.00013498 0.000180933 0.000169247 0.000132704);
    }
    sideWalls
    {
        type            empty;
    }
    glass1
    {
        type            nutkWallFunction;
        Cmu             0.09;
        kappa           0.41;
        E               9.8;
        value           nonuniform List<scalar> 9(0.000277754 0.000310117 0.000327541 0.000339356 0.000349006 0.000358401 0.000369392 0.000385262 0.000413608);
    }
    glass2
    {
        type            nutkWallFunction;
        Cmu             0.09;
        kappa           0.41;
        E               9.8;
        value           nonuniform List<scalar> 2(0.00014725 0.000176729);
    }
    sun
    {
        type            nutkWallFunction;
        Cmu             0.09;
        kappa           0.41;
        E               9.8;
        value           nonuniform List<scalar> 
14
(
0.000277451
0.000271914
0.000264303
0.000257103
0.000250878
0.000245408
0.000240495
0.00023592
0.000231449
0.000226867
0.000221938
0.000216352
0.000209602
0.000200604
)
;
    }
    heatsource1
    {
        type            nutkWallFunction;
        Cmu             0.09;
        kappa           0.41;
        E               9.8;
        value           nonuniform List<scalar> 3(0.000108459 9.7226e-05 0.000104695);
    }
    heatsource2
    {
        type            nutkWallFunction;
        Cmu             0.09;
        kappa           0.41;
        E               9.8;
        value           nonuniform List<scalar> 4(0.000180369 0.000159944 0.000159944 0.000161095);
    }
    Table_master
    {
        type            nutkWallFunction;
        Cmu             0.09;
        kappa           0.41;
        E               9.8;
        value           nonuniform List<scalar> 9(3.41021e-05 2.41973e-05 2.01879e-05 1.78226e-05 1.61813e-05 1.49007e-05 1.38085e-05 1.31001e-05 2.63609e-05);
    }
    Table_slave
    {
        type            nutkWallFunction;
        Cmu             0.09;
        kappa           0.41;
        E               9.8;
        value           nonuniform List<scalar> 9(8.6039e-05 9.0157e-05 9.43096e-05 9.8351e-05 0.000102182 0.000105617 0.000108476 0.000109506 0.000108464);
    }
    inlet
    {
        type            calculated;
        value           uniform 3.3541e-05;
    }
    outlet
    {
        type            calculated;
        value           nonuniform List<scalar> 2(0.00157196 0.00153299);
    }
}


// ************************************************************************* //
