/*--------------------------------*- C++ -*----------------------------------*\
  =========                 |
  \\      /  F ield         | OpenFOAM: The Open Source CFD Toolbox
   \\    /   O peration     | Website:  https://openfoam.org
    \\  /    A nd           | Version:  6
     \\/     M anipulation  |
\*---------------------------------------------------------------------------*/
FoamFile
{
    version     2.0;
    format      ascii;
    class       surfaceScalarField;
    location    "700";
    object      phi;
}
// * * * * * * * * * * * * * * * * * * * * * * * * * * * * * * * * * * * * * //

dimensions      [1 0 -1 0 0 0 0];

internalField   nonuniform List<scalar> 
852
(
-0.00292518
0.00298143
-0.00394874
0.00102356
-0.00473307
0.000784326
-0.005354
0.00062093
-0.00578339
0.00042939
-0.00600005
0.000216658
-0.00598273
-1.73251e-05
-0.0057113
-0.000271434
-0.00519006
-0.000521241
-0.00446124
-0.000728821
-0.00359748
-0.000863767
-0.00268378
-0.000913699
-0.00179158
-0.000892201
-0.000934731
-0.000856852
-0.000933327
-0.000643352
0.000646023
-0.000283587
-0.000359765
0.000328319
-0.000611905
0.000788684
-0.000460365
0.00108669
-0.000298008
0.00126726
-0.000180572
0.00136362
-9.63539e-05
0.00141165
-4.80316e-05
0.00143862
-2.69691e-05
0.00145467
-1.60476e-05
0.00146307
-8.39869e-06
0.00146476
-1.69307e-06
0.00145764
7.12557e-06
0.0014331
2.45411e-05
0.00136851
6.45871e-05
0.00122598
0.00014253
0.000991017
0.000234969
0.000700544
0.000290475
0.000704159
-0.002085
0.00521781
-0.00307882
0.00201738
-0.00388021
0.00158571
-0.00448655
0.00122727
-0.00490434
0.000847171
-0.00512215
0.000434467
-0.00511554
-2.39368e-05
-0.00486599
-0.000520979
-0.00438762
-0.00099962
-0.00373315
-0.0013833
-0.00297903
-0.00161789
-0.00220597
-0.00168677
-0.00148774
-0.00161043
-0.000922017
-0.00142258
-0.000726889
-0.00112846
-0.000147642
-0.0005793
-0.000147694
0.000433113
0.000220451
0.000854078
-0.00078073
0.00109143
-0.000849255
0.00129187
-0.000660809
0.00143715
-0.000443281
0.00151791
-0.000261336
0.00152891
-0.000107353
0.00153209
-5.12116e-05
0.00153595
-3.08313e-05
0.00153918
-1.92722e-05
0.00154133
-1.0552e-05
0.00154229
-2.65002e-06
0.00154112
8.30144e-06
0.00153417
3.14847e-05
0.0014925
0.000106261
0.0013164
0.000318631
0.0010119
0.000539468
0.000627633
0.000674747
0.00134107
-0.00145921
0.00690844
-0.00231475
0.00287292
-0.00301863
0.00228958
-0.00353028
0.00173892
-0.00388915
0.00120604
-0.00408083
0.000626142
-0.00406332
-4.14496e-05
-0.00380602
-0.000778285
-0.00334083
-0.00146482
-0.0027371
-0.00198703
-0.00207316
-0.00228183
-0.00141811
-0.00234182
-0.000825926
-0.00220261
-0.000358196
-0.00189031
-4.42013e-05
-0.00144245
0.000190152
-0.000813655
4.24565e-05
0.00147415
-0.00124587
0.00168623
-0.000992812
0.00166931
-0.000832336
0.00167249
-0.000663988
0.00169325
-0.000464041
0.00169347
-0.000261558
0.00158627
0.00153521
0.00150454
0.00148542
0.00147502
0.00147253
0.00148098
0.00151262
0.00161904
0.00133827
0.000599396
0.000995115
0.000882627
0.000555156
0.00111471
0.00191036
-0.00102032
0.00822823
-0.00169891
0.00355151
-0.00215577
0.00274644
-0.00248226
0.00206541
-0.00271365
0.00143743
-0.00282489
0.00073738
-0.00274518
-0.000121164
-0.00244171
-0.00108175
-0.0019828
-0.00192374
-0.00145255
-0.00251727
-0.000918682
-0.00281571
-0.000426052
-0.00283446
5.42293e-06
-0.00263409
0.000366964
-0.00225186
0.000681331
-0.00175682
0.00105886
-0.00119118
0.00178501
-0.000683696
0.00238921
-0.000597028
0.00196998
-0.000826638
0.00185242
-0.000875249
0.00175623
-0.000736155
0.00167625
-0.000584009
0.001639
-0.000426783
0.00163919
-0.000261751
0.00174883
-0.000109792
0.00182294
-7.42643e-05
0.00188482
-6.20319e-05
0.0019335
-4.88265e-05
0.00195465
-2.12988e-05
0.00192693
2.75652e-05
0.00182575
0.000101034
0.00161918
0.000206414
0.00125371
0.000365322
0.00112596
0.000727149
0.000839862
0.00116873
0.000398704
0.00155587
0.00232761
-0.000716897
0.00930231
-0.00123409
0.0040687
-0.00131871
0.00283106
-0.00137054
0.00211724
-0.00139934
0.00146622
-0.00134482
0.000682856
-0.00111572
-0.000350267
-0.000738418
-0.00145905
-0.0003148
-0.00234736
8.24361e-05
-0.00291451
0.000416286
-0.00314956
0.000678057
-0.00309623
0.000874859
-0.00283089
0.00103623
-0.00241323
0.00119141
-0.00191201
0.00139281
-0.00139259
0.00166744
-0.000958327
0.00182136
-0.000750946
0.00172604
-0.000731321
0.00155782
-0.00070703
0.00142212
-0.000600446
0.0013155
-0.000477393
0.00124796
-0.000359244
0.00123177
-0.00024556
0.00128159
-0.000159607
0.00133573
-0.0001284
0.00139432
-0.000120624
0.0014533
-0.000107803
0.00150171
-6.97037e-05
0.00151979
9.48857e-06
0.00148718
0.000133645
0.00139263
0.000300968
0.00123692
0.000521031
0.00110173
0.000862345
0.000956572
0.00131389
0.000635364
0.00187708
0.000555457
0.00240752
-0.00097687
0.00153213
-0.00143967
0.000462596
-0.00139264
-0.000627638
0.0103358
-0.000986172
0.00442723
-0.000563093
0.00240798
-0.000206327
0.00176047
6.32565e-05
0.00119664
0.000397331
0.00034878
0.000850281
-0.000803219
0.00126872
-0.00187749
0.00157395
-0.00265259
0.00174779
-0.00308836
0.00180742
-0.0032092
0.00178346
-0.00307228
0.0017023
-0.00274974
0.00159948
-0.00231042
0.00150812
-0.00182065
0.00145597
-0.00134044
0.00143929
-0.00094164
0.00138353
-0.00069519
0.00123979
-0.000587582
0.00105224
-0.000519482
0.000891698
-0.000439901
0.000774314
-0.000360007
0.000704824
-0.000289752
0.000689064
-0.000229798
0.000721023
-0.000191563
0.000776378
-0.000183752
0.000845197
-0.00018944
0.000922992
-0.000185595
0.00100399
-0.000150701
0.00107633
-6.28415e-05
0.00112241
8.75663e-05
0.00113849
0.00028489
0.00113304
0.000526479
0.00115452
0.000840873
0.00125082
0.00121759
0.00143453
0.00169337
0.00187323
0.00196883
0.00212941
0.00127595
0.00173827
0.000853741
0.000402289
-0.000688919
0.0114745
-0.000577506
0.00431581
0.000539957
0.00129052
0.00130166
0.000998765
0.00191605
0.000582248
0.00256352
-0.000298683
0.00313144
-0.00137115
0.00346012
-0.00220617
0.00353993
-0.00273241
0.00340993
-0.00295837
0.0031261
-0.00292537
0.00274882
-0.00269501
0.00233119
-0.00233211
0.00191997
-0.0018992
0.0015517
-0.00145238
0.00124584
-0.00103457
0.00100288
-0.000698682
0.000793058
-0.000485367
0.000585212
-0.000379734
0.000391777
-0.000326046
0.000238549
-0.00028667
0.000134173
-0.000255629
7.77186e-05
-0.000233295
6.73522e-05
-0.000219429
9.42885e-05
-0.000218496
0.000143262
-0.000232722
0.000205542
-0.000251717
0.000280626
-0.000260676
0.000372864
-0.000242935
0.000487045
-0.000177019
0.000610213
-3.55985e-05
0.000732199
0.000162909
0.000864623
0.000394058
0.00104648
0.000659023
0.00132659
0.000937479
0.00176606
0.0012539
0.0024305
0.00130439
0.00296833
0.000738122
0.00299409
0.000827987
0.00345799
0.00257209
0.00940561
0.00326307
0.00362483
0.00363294
0.000920644
0.0042315
0.000400201
0.00496887
-0.000155116
0.00563121
-0.00096103
0.00591876
-0.0016587
0.00583121
-0.00211863
0.00543413
-0.00233535
0.0048142
-0.00233844
0.00406352
-0.00217469
0.00326689
-0.00189839
0.00248877
-0.001554
0.00177833
-0.00118876
0.00117017
-0.000844209
0.000675064
-0.000539467
0.000299029
-0.000322645
2.11908e-05
-0.000207527
-0.000190462
-0.000168079
-0.000351728
-0.000164778
-0.000468947
-0.000169448
-0.000547323
-0.00017725
-0.000592737
-0.000187878
-0.00061039
-0.000201773
-0.000607906
-0.000220976
-0.000595168
-0.000245456
-0.000577389
-0.000269492
-0.000553188
-0.000284873
-0.000513957
-0.000282161
-0.000440714
-0.000250258
-0.000303979
-0.00017233
-0.000122404
-1.86621e-05
8.91398e-05
0.000182518
0.000357005
0.000391162
0.000694439
0.000600048
0.00114372
0.000804626
0.00164268
0.000805425
0.00185911
0.000521698
0.00111091
0.00157619
0.00481848
0.00995727
0.0135739
0.0124166
0.00207787
0.0116844
0.00113242
0.0110498
0.000479514
0.0102312
-0.000142411
0.00914379
-0.000571339
0.00788676
-0.00086161
0.00655329
-0.00100189
0.00521526
-0.00100042
0.0039372
-0.00089664
0.00277327
-0.000734453
0.00174892
-0.000529641
0.000884837
-0.000324684
0.000192547
-0.000151917
-0.000312276
-3.46412e-05
-0.000638269
3.35045e-06
-0.000843218
-2.57497e-06
-0.000985124
-2.61689e-05
-0.00109496
-5.49435e-05
-0.00118166
-8.27368e-05
-0.00125049
-0.000108424
-0.00130639
-0.00013197
-0.00135452
-0.00015364
-0.00140136
-0.000174134
-0.00145478
-0.000192027
-0.00152203
-0.000202243
-0.00161003
-0.000196867
-0.00172727
-0.00016492
-0.00188427
-9.32519e-05
-0.00208663
3.00302e-05
-0.00232004
0.000214757
-0.00261199
0.000474468
-0.00304668
0.00082586
-0.00371486
0.00126823
-0.00468409
0.00177386
-0.00607144
0.00219278
-0.00776014
0.0022104
-0.00729825
0.00111431
-0.00220362
0.00469705
0.00354575
0.00390299
0.00192645
0.00436001
2.24561e-05
0.00439034
-0.000172765
0.00400832
-0.000189339
0.00339779
-0.000251075
0.0026588
-0.00026291
0.00185935
-0.000200966
0.00104828
-8.55647e-05
0.000264454
4.93792e-05
-0.00041991
0.000154728
-0.000934376
0.000189787
-0.00127415
0.00018786
-0.00147562
0.000166831
-0.00159785
0.00012559
-0.00168104
8.06175e-05
-0.00174817
4.09609e-05
-0.00181214
9.03388e-06
-0.00187732
-1.75585e-05
-0.00194485
-4.0889e-05
-0.00201598
-6.08333e-05
-0.0020932
-7.64169e-05
-0.00217892
-8.84038e-05
-0.00227517
-9.57722e-05
-0.00238296
-9.44522e-05
-0.0025012
-7.86252e-05
-0.00262575
-4.03641e-05
-0.00274913
3.0128e-05
-0.00285901
0.000139918
-0.00295201
0.000307764
-0.00303645
0.000558903
-0.0031182
0.000907617
-0.00319357
0.00134361
-0.0032186
0.00179889
-0.003143
0.00211719
-0.00279254
0.00185994
-0.00152839
-0.000149837
-0.00365978
-0.000556844
0.00416603
0.000302361
0.00106722
-6.11957e-07
0.000325425
-0.000289525
0.000116151
-0.000553391
7.45321e-05
-0.000879933
7.54735e-05
-0.00124608
0.000103238
-0.00159461
0.000147575
-0.00187315
0.000192982
-0.00205233
0.00022856
-0.00214388
0.00024628
-0.0021882
0.000234116
-0.00220317
0.000202835
-0.00220297
0.00016663
-0.00220737
0.000129997
-0.00222419
9.74438e-05
-0.00225364
7.04193e-05
-0.00229299
4.83829e-05
-0.00234198
3.14343e-05
-0.00240027
1.74123e-05
-0.00246596
4.8582e-06
-0.00253651
-5.86907e-06
-0.00261026
-1.46407e-05
-0.00268503
-2.10019e-05
-0.00275636
-2.31154e-05
-0.0028171
-1.78814e-05
-0.00285612
-1.34098e-06
-0.00286239
3.63981e-05
-0.00282664
0.000104175
-0.00272752
0.00020865
-0.0025337
0.000365083
-0.00221828
0.000592203
-0.00176203
0.000887361
-0.00113749
0.00117435
-0.000173677
0.00115338
0.00113721
0.000549055
0.00158807
-0.000600693
-0.00199257
-0.00723325
-0.0101181
-0.00590931
-0.00482178
-0.0044847
-0.00436118
-0.00428198
-0.00420388
-0.00409967
-0.00395252
-0.0037612
-0.00353545
-0.00329309
-0.00306396
-0.00286704
-0.00270707
-0.00258432
-0.00249456
-0.00243215
-0.00239202
-0.00236902
-0.00236017
-0.00236395
-0.00237847
-0.00240175
-0.00243131
-0.00246288
-0.00248906
-0.00249852
-0.00247
-0.00237345
-0.00217216
-0.00181417
-0.0012288
-0.000348027
0.000819938
0.0019669
0.00250931
0.0019016
)
;

boundaryField
{
    floor
    {
        type            calculated;
        value           nonuniform List<scalar> 
29
(
0
0
0
0
0
0
0
0
0
0
0
0
0
0
0
0
0
0
0
0
-3.61262e-06
-9.27309e-06
-1.4134e-05
-1.8545e-05
-1.40582e-06
-2.67098e-06
-7.5399e-06
-7.82604e-06
-7.17625e-06
)
;
    }
    ceiling
    {
        type            calculated;
        value           nonuniform List<scalar> 
43
(
-4.54202e-05
-4.40928e-05
-4.27751e-05
-2.03072e-05
-1.16396e-05
-7.36164e-06
-4.6604e-06
-2.61935e-06
-9.69065e-07
4.26447e-07
1.66466e-06
2.81708e-06
3.92927e-06
4.98751e-06
5.91725e-06
6.66928e-06
7.24808e-06
7.68525e-06
8.014e-06
8.25976e-06
8.4397e-06
8.56561e-06
8.64051e-06
8.66199e-06
8.63608e-06
8.56758e-06
8.45735e-06
8.30665e-06
8.1164e-06
7.8853e-06
7.63169e-06
7.36618e-06
7.09631e-06
6.83208e-06
6.59198e-06
6.39056e-06
6.42017e-06
6.64687e-06
7.02634e-06
8.23886e-06
1.13068e-05
8.22196e-06
-6.34517e-05
)
;
    }
    sWall
    {
        type            calculated;
        value           uniform -0.000274631;
    }
    nWall
    {
        type            calculated;
        value           nonuniform List<scalar> 6(-4.72307e-05 -5.66528e-05 -6.16054e-05 -7.22361e-05 -7.91343e-05 -9.92086e-05);
    }
    sideWalls
    {
        type            empty;
        value           nonuniform 0();
    }
    glass1
    {
        type            calculated;
        value           nonuniform List<scalar> 9(-5.62466e-05 -0.000151385 -0.000231417 -0.00029947 -0.000357186 -0.000405834 -0.000449811 -0.000503194 -0.000562973);
    }
    glass2
    {
        type            calculated;
        value           nonuniform List<scalar> 2(-0.000249576 -0.000276147);
    }
    sun
    {
        type            calculated;
        value           uniform 0;
    }
    heatsource1
    {
        type            calculated;
        value           nonuniform List<scalar> 3(2.03947e-07 2.03908e-07 2.03924e-07);
    }
    heatsource2
    {
        type            calculated;
        value           nonuniform List<scalar> 4(5.1072e-08 5.12014e-08 0 0);
    }
    Table_master
    {
        type            calculated;
        value           nonuniform List<scalar> 9(-1.5296e-07 -1.53035e-07 -1.53063e-07 -1.53081e-07 -1.53094e-07 -1.53103e-07 -1.53105e-07 -1.53099e-07 -1.53066e-07);
    }
    Table_slave
    {
        type            calculated;
        value           nonuniform List<scalar> 9(1.52842e-07 1.52865e-07 1.52848e-07 1.52834e-07 1.52829e-07 1.52833e-07 1.52849e-07 1.52891e-07 1.5297e-07);
    }
    inlet
    {
        type            calculated;
        value           uniform -0.00616493;
    }
    outlet
    {
        type            calculated;
        value           nonuniform List<scalar> 2(0.0075533 0.00292896);
    }
}


// ************************************************************************* //
