/*--------------------------------*- C++ -*----------------------------------*\
  =========                 |
  \\      /  F ield         | OpenFOAM: The Open Source CFD Toolbox
   \\    /   O peration     | Website:  https://openfoam.org
    \\  /    A nd           | Version:  6
     \\/     M anipulation  |
\*---------------------------------------------------------------------------*/
FoamFile
{
    version     2.0;
    format      ascii;
    class       surfaceScalarField;
    location    "300";
    object      phi;
}
// * * * * * * * * * * * * * * * * * * * * * * * * * * * * * * * * * * * * * //

dimensions      [1 0 -1 0 0 0 0];

internalField   nonuniform List<scalar> 
852
(
-0.00291225
0.00296879
-0.00391154
0.000999284
-0.00468775
0.000776219
-0.00531138
0.000623636
-0.00575481
0.000443432
-0.00599785
0.000243037
-0.00601863
2.07849e-05
-0.00579445
-0.000224171
-0.00532111
-0.00047334
-0.0046307
-0.000690404
-0.00378788
-0.000842824
-0.00287369
-0.000914184
-0.00195672
-0.00091697
-0.00104238
-0.000914337
-0.00104096
-0.000617114
0.000619862
-0.000234106
-0.000383003
0.000375994
-0.000610094
0.000819188
-0.000443189
0.00109833
-0.000279132
0.00126267
-0.000164335
0.00134815
-8.54727e-05
0.00139044
-4.2289e-05
0.00141366
-2.32107e-05
0.0014267
-1.30385e-05
0.00143262
-5.91586e-06
0.00143227
3.59467e-07
0.00142353
8.75152e-06
0.00139789
2.56436e-05
0.00133314
6.47548e-05
0.00119236
0.000140795
0.000962941
0.000229424
0.000688299
0.000274651
0.000692032
-0.00207513
0.005196
-0.00305391
0.00197807
-0.00385046
0.00157277
-0.00445962
0.0012328
-0.00489031
0.00087413
-0.00513332
0.000486053
-0.00516509
5.25597e-05
-0.00496215
-0.000427115
-0.00452806
-0.000907427
-0.00390667
-0.00131179
-0.00316908
-0.00158042
-0.00239584
-0.00168742
-0.00166307
-0.00164974
-0.00107572
-0.00150167
-0.000890855
-0.00122583
-0.000226597
-0.000664306
-0.000226644
0.000491132
0.000136427
0.00089569
-0.000787555
0.00111444
-0.00082884
0.00130281
-0.000631552
0.00143664
-0.000412959
0.00150712
-0.000234809
0.00151491
-9.3257e-05
0.00151734
-4.47134e-05
0.00152044
-2.63002e-05
0.00152305
-1.5642e-05
0.00152479
-7.6536e-06
0.00152545
-2.94286e-07
0.00152406
1.01465e-05
0.00151704
3.2671e-05
0.00147563
0.000106172
0.00130083
0.000315607
0.00099906
0.0005312
0.00062063
0.000653088
0.00132216
-0.00145391
0.00688223
-0.00230178
0.00282594
-0.00300288
0.00227387
-0.00351711
0.00174704
-0.00388782
0.00124483
-0.00410411
0.000702353
-0.0041279
7.6351e-05
-0.00391962
-0.000635396
-0.0034946
-0.00133245
-0.00291564
-0.00189075
-0.00225857
-0.00223748
-0.00159705
-0.00234894
-0.000990931
-0.00225586
-0.000505584
-0.00198702
-0.000174559
-0.00155685
0.0001091
-0.000947962
-0.00011754
0.0014439
-0.00129955
0.00165568
-0.000999329
0.00164127
-0.000814425
0.00164633
-0.000636612
0.00166665
-0.000433272
0.00165713
-0.000225287
0.00156403
0.00151948
0.00149334
0.00147786
0.00147036
0.00147023
0.00148053
0.00151336
0.0016197
0.00133883
0.000596478
0.000994957
0.000875084
0.000553663
0.00109439
0.00189025
-0.0010195
0.00820211
-0.00169825
0.0035047
-0.00215444
0.00273006
-0.00248521
0.00207781
-0.00273079
0.00149041
-0.00287206
0.000843625
-0.00284149
4.57849e-05
-0.00258579
-0.000891085
-0.00215648
-0.00176176
-0.00163736
-0.00240987
-0.00109779
-0.00277705
-0.000591458
-0.00285527
-0.000145004
-0.00270231
0.000229393
-0.00236141
0.000556377
-0.00188383
0.00093472
-0.0013263
0.0016252
-0.000808015
0.00229297
-0.000660419
0.00186438
-0.000870955
0.00176121
-0.000896157
0.00168322
-0.000736432
0.00161978
-0.000573162
0.00159828
-0.000411776
0.00162117
-0.000248172
0.00173
-0.000108971
0.00181003
-8.01755e-05
0.00187957
-6.96877e-05
0.00193595
-5.65287e-05
0.00196397
-2.81711e-05
0.00194131
2.25181e-05
0.00184291
9.82581e-05
0.00163691
0.000205856
0.00127026
0.000366499
0.0011385
0.000728246
0.000846043
0.00116755
0.000392798
0.00154764
0.00230194
-0.000718665
0.00927879
-0.00124191
0.00402795
-0.00132868
0.00281683
-0.00138816
0.0021373
-0.00143465
0.0015369
-0.00142641
0.00083539
-0.00125966
-0.000120958
-0.000919305
-0.00123144
-0.000506009
-0.00217505
-9.92602e-05
-0.00281662
0.000254332
-0.00313064
0.00053804
-0.00313897
0.000754096
-0.00291837
0.000924788
-0.00253211
0.00108543
-0.00204446
0.00128428
-0.00152516
0.00155101
-0.00107474
0.00172148
-0.000830887
0.00163332
-0.00078279
0.00147494
-0.000737771
0.00135336
-0.000614855
0.00126241
-0.000482199
0.00121142
-0.000360788
0.00121225
-0.000248994
0.00127333
-0.000170045
0.00133722
-0.000144057
0.00140522
-0.000137681
0.00147248
-0.000123786
0.00152748
-8.31599e-05
0.00154962
3.81416e-07
0.00151793
0.000129962
0.00142178
0.000302006
0.00126273
0.000525556
0.00112258
0.000868406
0.000970353
0.00131979
0.00063559
0.00188241
0.000533701
0.00240383
-0.000990946
0.00152445
-0.00145192
0.000460776
-0.00140448
-0.000631463
0.0103168
-0.00100092
0.00439741
-0.000585271
0.00240118
-0.000247433
0.00179947
-1.44983e-07
0.00128962
0.000264163
0.000571087
0.000654143
-0.000510934
0.00106184
-0.00163914
0.0013862
-0.00249941
0.00159158
-0.003022
0.00168078
-0.00321985
0.00168291
-0.00314111
0.00162269
-0.00285814
0.00153158
-0.002441
0.00144429
-0.00195717
0.00138972
-0.00147058
0.00136775
-0.00105277
0.00131358
-0.00077671
0.00117348
-0.000642687
0.000991637
-0.000555922
0.000840589
-0.000463802
0.000735629
-0.000377234
0.000680253
-0.000305406
0.000678792
-0.000247527
0.000722374
-0.000213621
0.000786811
-0.000208486
0.00086311
-0.000213973
0.000946973
-0.000207641
0.00103236
-0.000168541
0.00110778
-7.5034e-05
0.00115497
8.27864e-05
0.00116954
0.000287446
0.00116105
0.000534051
0.00117864
0.000850826
0.00127027
0.00122816
0.00144838
0.00170431
0.00188131
0.00197092
0.00213427
0.0012715
0.00174332
0.00085173
0.000395981
-0.000705716
0.0114727
-0.000608698
0.0043004
0.000485864
0.00130663
0.00119732
0.00108802
0.00171534
0.000771604
0.00229256
-6.12525e-06
0.00287943
-0.0010978
0.00324962
-0.00200933
0.00337902
-0.0026288
0.00329921
-0.00294219
0.00305837
-0.00297902
0.00271398
-0.00279671
0.00231882
-0.00246298
0.00191841
-0.00204058
0.00155059
-0.00158935
0.00123827
-0.00115825
0.000984443
-0.000798938
0.00076569
-0.000557952
0.000552451
-0.000429444
0.000358355
-0.00036182
0.000209552
-0.000314994
0.000113348
-0.000281024
6.67296e-05
-0.000258781
6.58954e-05
-0.000246686
0.000100113
-0.000247831
0.000154113
-0.000262479
0.000220013
-0.000279865
0.000297985
-0.000285605
0.000392757
-0.000263306
0.000509194
-0.000191462
0.000634302
-4.23142e-05
0.000757043
0.000164713
0.000888565
0.000402538
0.0010694
0.000669995
0.00134844
0.000949134
0.00178761
0.00126515
0.0024498
0.00130873
0.00298561
0.000735695
0.00301269
0.000824658
0.00347091
0.00254557
0.00943055
0.00321673
0.00362925
0.00354098
0.000982375
0.00403417
0.000594843
0.00466652
0.000139257
0.00533885
-0.000678453
0.00569006
-0.00144901
0.00568149
-0.00200075
0.00535984
-0.00230717
0.00480362
-0.00238598
0.00410046
-0.00227587
0.00333448
-0.00203073
0.00257356
-0.00170206
0.00186489
-0.00133191
0.00124587
-0.000970329
0.000732913
-0.000645293
0.000332476
-0.000398497
3.29238e-05
-0.000258396
-0.000192491
-0.000204023
-0.000359066
-0.000195239
-0.000475764
-0.00019829
-0.000550953
-0.000205829
-0.000592804
-0.000216923
-0.000607789
-0.000231693
-0.000604219
-0.000251394
-0.000591552
-0.000275138
-0.000574276
-0.000297133
-0.000550514
-0.000309359
-0.00051134
-0.000302471
-0.000437368
-0.000265426
-0.000297597
-0.000182076
-0.000111471
-2.14045e-05
0.00010374
0.000187336
0.000374026
0.000399718
0.000713244
0.000609924
0.00116371
0.000814695
0.00166009
0.000812355
0.00187208
0.000523713
0.00111615
0.0015806
0.00483898
0.00998237
0.0136034
0.0123824
0.00220337
0.0115711
0.00140615
0.0109306
0.000779767
0.0101788
7.33459e-05
0.00916657
-0.000436799
0.0079734
-0.000807597
0.00669195
-0.00102573
0.00539252
-0.00108655
0.00413681
-0.00102016
0.0029783
-0.000872229
0.00195102
-0.000674768
0.00106464
-0.000445529
0.000338335
-0.000244023
-0.00021008
-9.68723e-05
-0.000576919
-3.16521e-05
-0.000807094
-2.82151e-05
-0.000962231
-4.88799e-05
-0.00107898
-7.8479e-05
-0.00116915
-0.000108119
-0.00124034
-0.000134626
-0.001299
-0.000158255
-0.00135036
-0.000180332
-0.00140079
-0.000200947
-0.00145788
-0.000218046
-0.00152846
-0.000226547
-0.00161924
-0.000218571
-0.00173855
-0.000183149
-0.00189711
-0.000106854
-0.0021014
2.22174e-05
-0.00233621
0.000213413
-0.00262836
0.000479502
-0.00306547
0.000836829
-0.00373977
0.00128423
-0.00471809
0.00179303
-0.00611662
0.00221089
-0.00781447
0.00222157
-0.00734307
0.00110921
-0.00222516
0.00472375
0.00362401
0.00403331
0.00209652
0.00460763
0.000205379
0.00469658
-1.5673e-05
0.00434107
-8.13287e-05
0.00375011
-0.000216649
0.00301959
-0.000295218
0.00221633
-0.000283285
0.00139708
-0.000200905
0.000599268
-7.44062e-05
-0.000136619
6.11294e-05
-0.000731835
0.000149693
-0.00113852
0.000162665
-0.00138533
0.000149947
-0.00153033
0.000113359
-0.00162578
6.72413e-05
-0.00170064
2.59816e-05
-0.00177121
-7.90323e-06
-0.00184255
-3.67676e-05
-0.00191615
-6.10181e-05
-0.00199453
-7.98664e-05
-0.0020791
-9.57555e-05
-0.00217182
-0.000108221
-0.00227475
-0.000115101
-0.00238878
-0.000112514
-0.00251263
-9.47061e-05
-0.00264188
-5.3896e-05
-0.00276855
1.98225e-05
-0.00288045
0.000134124
-0.00297367
0.000306649
-0.0030575
0.000563338
-0.00313881
0.00091814
-0.0032148
0.00136024
-0.00324142
0.00181966
-0.00316703
0.0021365
-0.00281777
0.00187232
-0.00155132
-0.000157239
-0.00370337
-0.000576566
0.00426206
0.000362591
0.00115732
0.000172213
0.000395734
-2.22626e-05
0.000178795
-0.00020013
9.65378e-05
-0.000477079
6.03056e-05
-0.000840951
6.86638e-05
-0.00122895
0.000104719
-0.00157952
0.000149683
-0.00184403
0.000190109
-0.00200068
0.000217788
-0.00207465
0.000223667
-0.00211189
0.00019991
-0.00212679
0.000164855
-0.00214001
0.000126591
-0.00216341
9.06485e-05
-0.00219786
6.04336e-05
-0.00224212
3.63644e-05
-0.00229708
1.82017e-05
-0.00236082
2.73024e-06
-0.00243098
-9.70033e-06
-0.00250674
-1.99826e-05
-0.00258666
-2.82968e-05
-0.00266799
-3.37604e-05
-0.00274605
-3.44431e-05
-0.00281349
-2.72641e-05
-0.00285916
-8.21437e-06
-0.0028705
3.11667e-05
-0.00283807
0.000101703
-0.00274058
0.000209173
-0.00254619
0.000368955
-0.00222808
0.00060004
-0.00176831
0.000900475
-0.00114113
0.00119248
-0.000173609
0.00116899
0.00114146
0.000557257
0.00158636
-0.000602128
-0.00203688
-0.00727996
-0.0101458
-0.00584088
-0.00466253
-0.00425417
-0.00406703
-0.00396504
-0.00390141
-0.00383112
-0.00372618
-0.0035775
-0.00338952
-0.00317492
-0.00295546
-0.00276069
-0.00260172
-0.00248158
-0.00239779
-0.0023445
-0.00231548
-0.00230476
-0.0023096
-0.00232689
-0.00235445
-0.00239028
-0.00243151
-0.0024733
-0.00250778
-0.00252304
-0.00249871
-0.00240363
-0.00220086
-0.00183807
-0.00124398
-0.000349252
0.000837631
0.00200098
0.00255239
0.00194408
)
;

boundaryField
{
    floor
    {
        type            calculated;
        value           nonuniform List<scalar> 
29
(
0
0
0
0
0
0
0
0
0
0
0
0
0
0
0
0
0
0
0
0
-3.72467e-06
-9.48852e-06
-1.44159e-05
-1.88856e-05
-1.41272e-06
-2.74232e-06
-7.69164e-06
-7.91889e-06
-7.35088e-06
)
;
    }
    ceiling
    {
        type            calculated;
        value           nonuniform List<scalar> 
43
(
-4.54798e-05
-4.41553e-05
-4.28369e-05
-2.1027e-05
-1.26159e-05
-8.3273e-06
-5.44837e-06
-3.30809e-06
-1.61947e-06
-2.15687e-07
1.00986e-06
2.13132e-06
3.1967e-06
4.21813e-06
5.14091e-06
5.89339e-06
6.45941e-06
6.86706e-06
7.15507e-06
7.35523e-06
7.48906e-06
7.56918e-06
7.59816e-06
7.58904e-06
7.54549e-06
7.46873e-06
7.36008e-06
7.22086e-06
7.05173e-06
6.85125e-06
6.63128e-06
6.40403e-06
6.17587e-06
5.95547e-06
5.75919e-06
5.60411e-06
5.64815e-06
5.85505e-06
6.19229e-06
7.35079e-06
1.13286e-05
8.22045e-06
-6.15154e-05
)
;
    }
    sWall
    {
        type            calculated;
        value           uniform -0.000274255;
    }
    nWall
    {
        type            calculated;
        value           nonuniform List<scalar> 6(-4.76342e-05 -5.71288e-05 -6.22331e-05 -7.30983e-05 -8.01249e-05 -0.000100143);
    }
    sideWalls
    {
        type            empty;
        value           nonuniform 0();
    }
    glass1
    {
        type            calculated;
        value           nonuniform List<scalar> 9(-5.65303e-05 -0.000152077 -0.000232316 -0.000300387 -0.000358004 -0.000406506 -0.000450207 -0.000503444 -0.000563141);
    }
    glass2
    {
        type            calculated;
        value           nonuniform List<scalar> 2(-0.000251915 -0.000278915);
    }
    sun
    {
        type            calculated;
        value           uniform 0;
    }
    heatsource1
    {
        type            calculated;
        value           nonuniform List<scalar> 3(2.04002e-07 2.03957e-07 2.03973e-07);
    }
    heatsource2
    {
        type            calculated;
        value           nonuniform List<scalar> 4(5.1058e-08 5.11949e-08 0 0);
    }
    Table_master
    {
        type            calculated;
        value           nonuniform List<scalar> 9(-1.52999e-07 -1.53067e-07 -1.53092e-07 -1.5311e-07 -1.53122e-07 -1.53131e-07 -1.53133e-07 -1.53127e-07 -1.53096e-07);
    }
    Table_slave
    {
        type            calculated;
        value           nonuniform List<scalar> 9(1.52883e-07 1.52901e-07 1.52882e-07 1.52865e-07 1.52859e-07 1.52864e-07 1.52878e-07 1.5292e-07 1.53e-07);
    }
    inlet
    {
        type            calculated;
        value           uniform -0.00614441;
    }
    outlet
    {
        type            calculated;
        value           nonuniform List<scalar> 2(0.00759969 0.00290998);
    }
}


// ************************************************************************* //
