// -*- C++ -*-
// File generated by PyFoam - sorry for the ugliness

FoamFile
{
 version 2.0;
 format ascii;
 class volScalarField;
 location "300";
 object T;
}

dimensions [ 0 0 0 1 0 0 0 ];

internalField nonuniform List<scalar> 459
(
  303.597
  303.337
  303.325
  303.321
  303.318
  303.314
  303.31
  303.305
  303.298
  303.287
  303.275
  303.263
  303.252
  303.245
  303.243
  303.311
  303.291
  303.284
  303.285
  303.287
  303.289
  303.292
  303.294
  303.297
  303.299
  303.301
  303.304
  303.306
  303.308
  303.31
  303.312
  303.314
  303.317
  303.332
  303.774
  303.38
  303.357
  303.361
  303.364
  303.366
  303.365
  303.361
  303.349
  303.33
  303.304
  303.278
  303.256
  303.239
  303.229
  303.224
  303.22
  303.31
  303.279
  303.273
  303.273
  303.275
  303.277
  303.278
  303.278
  303.278
  303.278
  303.278
  303.278
  303.278
  303.278
  303.278
  303.281
  303.284
  303.29
  303.316
  303.959
  303.431
  303.392
  303.403
  303.417
  303.429
  303.436
  303.436
  303.42
  303.388
  303.345
  303.301
  303.264
  303.24
  303.227
  303.223
  303.223
  303.259
  303.26
  303.265
  303.272
  303.279
  303.283
  303.282
  303.281
  303.28
  303.279
  303.277
  303.276
  303.275
  303.274
  303.273
  303.274
  303.276
  303.281
  303.309
  304.144
  303.492
  303.426
  303.442
  303.469
  303.496
  303.517
  303.525
  303.505
  303.455
  303.387
  303.321
  303.27
  303.237
  303.223
  303.221
  303.225
  303.234
  303.243
  303.257
  303.272
  303.285
  303.295
  303.303
  303.309
  303.314
  303.319
  303.323
  303.327
  303.329
  303.33
  303.331
  303.33
  303.311
  303.294
  303.285
  303.307
  304.323
  303.571
  303.466
  303.475
  303.51
  303.553
  303.594
  303.611
  303.582
  303.511
  303.416
  303.33
  303.267
  303.23
  303.216
  303.217
  303.227
  303.24
  303.257
  303.276
  303.294
  303.31
  303.323
  303.333
  303.342
  303.349
  303.354
  303.358
  303.361
  303.361
  303.359
  303.355
  303.348
  303.333
  303.311
  303.294
  303.303
  303.366
  303.409
  303.416
  304.483
  303.672
  303.536
  303.52
  303.55
  303.599
  303.66
  303.674
  303.624
  303.53
  303.42
  303.321
  303.251
  303.213
  303.203
  303.213
  303.232
  303.255
  303.28
  303.305
  303.326
  303.344
  303.357
  303.367
  303.375
  303.381
  303.385
  303.388
  303.389
  303.387
  303.381
  303.374
  303.364
  303.349
  303.328
  303.307
  303.304
  303.331
  303.345
  303.379
  304.629
  303.834
  303.697
  303.658
  303.664
  303.695
  303.737
  303.713
  303.625
  303.5
  303.373
  303.271
  303.207
  303.182
  303.188
  303.213
  303.248
  303.283
  303.316
  303.343
  303.365
  303.381
  303.393
  303.401
  303.407
  303.411
  303.413
  303.414
  303.413
  303.409
  303.401
  303.39
  303.378
  303.363
  303.344
  303.324
  303.314
  303.321
  303.33
  303.358
  304.842
  304.248
  304.097
  303.999
  303.94
  303.917
  303.845
  303.713
  303.545
  303.379
  303.247
  303.164
  303.132
  303.142
  303.179
  303.23
  303.282
  303.327
  303.364
  303.388
  303.405
  303.416
  303.424
  303.43
  303.434
  303.436
  303.437
  303.436
  303.433
  303.429
  303.421
  303.41
  303.398
  303.384
  303.37
  303.355
  303.351
  303.362
  303.381
  303.506
  305.147
  304.869
  304.609
  304.376
  304.176
  303.987
  303.717
  303.436
  303.206
  303.06
  302.997
  303.001
  303.051
  303.127
  303.206
  303.284
  303.346
  303.384
  303.409
  303.426
  303.438
  303.445
  303.451
  303.454
  303.456
  303.457
  303.457
  303.456
  303.454
  303.452
  303.451
  303.452
  303.455
  303.462
  303.477
  303.501
  303.533
  303.565
  303.586
  303.639
  296.58
  298.791
  300.106
  300.695
  301.197
  301.662
  302.073
  302.417
  302.692
  302.907
  303.083
  303.229
  303.316
  303.373
  303.41
  303.433
  303.447
  303.457
  303.464
  303.469
  303.472
  303.474
  303.476
  303.478
  303.479
  303.48
  303.482
  303.483
  303.486
  303.489
  303.494
  303.503
  303.516
  303.535
  303.558
  303.581
  303.597
  303.615
  297.238
  299.181
  300.442
  301.255
  301.816
  302.227
  302.558
  302.821
  303.021
  303.169
  303.275
  303.35
  303.399
  303.431
  303.451
  303.464
  303.472
  303.478
  303.482
  303.485
  303.488
  303.491
  303.493
  303.495
  303.497
  303.499
  303.501
  303.503
  303.505
  303.508
  303.512
  303.518
  303.528
  303.541
  303.556
  303.573
  303.57
  303.598
  299.699
  299.621
  299.617
  301.373
  302.157
  302.555
  302.807
  302.988
  303.124
  303.227
  303.305
  303.361
  303.402
  303.429
  303.447
  303.459
  303.466
  303.471
  303.475
  303.478
  303.481
  303.484
  303.487
  303.49
  303.493
  303.496
  303.498
  303.501
  303.504
  303.507
  303.509
  303.512
  303.516
  303.52
  303.526
  303.536
  303.545
  303.55
  303.551
  303.589
)
;

boundaryField
{
  floor
  {
    type wallHeatTransfer;
    Tinf uniform 305.2;
    alphaWall uniform 0.24;
    value nonuniform List<scalar> 29
(
  303.432
  303.678
  303.613
  303.585
  303.59
  303.601
  303.614
  303.631
  303.648
  303.664
  303.681
  303.696
  303.712
  303.726
  303.74
  303.753
  303.767
  303.783
  303.794
  303.83
  303.83
  303.74
  303.695
  303.669
  303.432
  303.678
  303.653
  303.471
  303.401
)
;
  }
  ceiling
  {
    type wallHeatTransfer;
    Tinf uniform 303.2;
    alphaWall uniform 0.24;
    value nonuniform List<scalar> 43
(
  299.946
  299.863
  299.851
  301.486
  302.224
  302.598
  302.834
  303.004
  303.13
  303.225
  303.296
  303.346
  303.38
  303.402
  303.415
  303.422
  303.426
  303.429
  303.431
  303.433
  303.436
  303.438
  303.441
  303.444
  303.447
  303.45
  303.454
  303.457
  303.461
  303.465
  303.469
  303.473
  303.478
  303.483
  303.49
  303.501
  303.51
  303.514
  303.513
  303.545
  305.056
  304.802
  297.618
)
;
  }
  sWall
  {
    type wallHeatTransfer;
    Tinf uniform 315.2;
    alphaWall uniform 0.36;
    value uniform 301.292;
  }
  nWall
  {
    type wallHeatTransfer;
    Tinf uniform 307.2;
    alphaWall uniform 0.36;
    value nonuniform List<scalar> 6
(
  304.127
  304.077
  304.004
  304.135
  304.113
  304.175
)
;
  }
  sideWalls
  {
    type empty;
  }
  glass1
  {
    type wallHeatTransfer;
    Tinf uniform 315.2;
    alphaWall uniform 4.3;
    value nonuniform List<scalar> 9
(
  311.597
  310.958
  310.552
  310.241
  309.981
  309.746
  309.569
  309.637
  309.86
)
;
  }
  glass2
  {
    type wallHeatTransfer;
    Tinf uniform 307.2;
    alphaWall uniform 4.3;
    value nonuniform List<scalar> 2
(
  305.806
  305.9
)
;
  }
  sun
  {
    type wallHeatTransfer;
    Tinf uniform 305.2;
    alphaWall uniform 0.24;
    value nonuniform List<scalar> 14
(
  303.77
  303.526
  303.512
  303.503
  303.494
  303.486
  303.478
  303.469
  303.459
  303.448
  303.437
  303.428
  303.424
  303.425
)
;
  }
  heatsource1
  {
    type fixedGradient;
    gradient uniform 0;
  }
  heatsource2
  {
    type fixedGradient;
    gradient uniform 0;
  }
  Table_master
  {
    type zeroGradient;
  }
  Table_slave
  {
    type zeroGradient;
  }
  inlet
  {
    type fixedValue;
    value uniform 293.15;
  }
  outlet
  {
    type zeroGradient;
  }
} 	// ************************************************************************* //

