// -*- C++ -*-
// File generated by PyFoam - sorry for the ugliness

FoamFile
{
 version 2.0;
 format ascii;
 class volVectorField;
 location "100";
 object U;
}

dimensions [ 0 1 -1 0 0 0 0 ];

internalField nonuniform List<vector> 459
(
  (0.00107839 0.0921436 0)
  (-0.190103 0.0259889 0)
  (-0.220189 0.00288073 0)
  (-0.230995 -0.0158709 0)
  (-0.208876 -0.0364422 0)
  (-0.157804 -0.0595183 0)
  (-0.0866969 -0.0779046 0)
  (0.00827397 -0.0766153 0)
  (0.0809414 -0.0570994 0)
  (0.132082 -0.0392986 0)
  (0.165289 -0.0237311 0)
  (0.179053 -0.0099393 0)
  (0.171474 0.00490509 0)
  (0.139932 0.0271374 0)
  (0.105633 0.0769475 0)
  (-0.0393896 0.0175373 0)
  (-0.0553907 -0.0101077 0)
  (-0.0338464 -0.0290066 0)
  (-0.00492234 -0.0363284 0)
  (0.0304625 -0.0301656 0)
  (0.0562415 -0.0217226 0)
  (0.0748044 -0.0127178 0)
  (0.0862723 -0.00778593 0)
  (0.0921578 -0.0058466 0)
  (0.095332 -0.00501163 0)
  (0.0975709 -0.00445336 0)
  (0.0993069 -0.0039708 0)
  (0.100432 -0.00343228 0)
  (0.100525 -0.00255263 0)
  (0.0985625 -0.000724912 0)
  (0.0925583 0.00291961 0)
  (0.0801826 0.00776936 0)
  (0.0599329 0.0148605 0)
  (0.028386 0.0294124 0)
  (0.161636 0.194187 0)
  (-0.163843 0.0851278 0)
  (-0.172872 0.0423745 0)
  (-0.186584 0.00163066 0)
  (-0.168943 -0.0461726 0)
  (-0.124328 -0.0943934 0)
  (-0.0636463 -0.126108 0)
  (0.00677197 -0.122312 0)
  (0.0647141 -0.0928216 0)
  (0.108098 -0.0607315 0)
  (0.136704 -0.0305704 0)
  (0.150321 -0.0023985 0)
  (0.151276 0.0248771 0)
  (0.143958 0.0549474 0)
  (0.138551 0.0964011 0)
  (0.131412 0.0886388 0)
  (0.0826698 0.0791333 0)
  (0.00180669 0.0498635 0)
  (-0.00802758 -0.00217384 0)
  (0.0298538 -0.045343 0)
  (0.046243 -0.0509353 0)
  (0.0637712 -0.0439683 0)
  (0.0788525 -0.0318777 0)
  (0.0861505 -0.0152867 0)
  (0.0884083 -0.00521667 0)
  (0.0887843 -0.00135597 0)
  (0.0892038 8.65157e-05 0)
  (0.0897727 0.000860921 0)
  (0.0902254 0.00144958 0)
  (0.0905015 0.0022583 0)
  (0.0905071 0.00396087 0)
  (0.089398 0.00779302 0)
  (0.0837371 0.0172872 0)
  (0.070148 0.0270287 0)
  (0.0497973 0.0387179 0)
  (0.00697557 0.0596991 0)
  (0.306488 0.288748 0)
  (-0.164087 0.130171 0)
  (-0.131419 0.0657057 0)
  (-0.145635 -0.00103798 0)
  (-0.128684 -0.0760367 0)
  (-0.0866188 -0.147465 0)
  (-0.0356629 -0.186536 0)
  (0.0174234 -0.176906 0)
  (0.0604694 -0.138293 0)
  (0.094494 -0.0933978 0)
  (0.116929 -0.0504694 0)
  (0.128371 -0.0116309 0)
  (0.131711 0.0243662 0)
  (0.130092 0.0590533 0)
  (0.127665 0.0922325 0)
  (0.115105 0.098366 0)
  (0.0902004 0.130135 0)
  (0.0533118 0.00537344 0)
  (0.0749528 -0.0437619 0)
  (0.0867542 -0.0635686 0)
  (0.0929369 -0.0648932 0)
  (0.098369 -0.055824 0)
  (0.104126 -0.0446641 0)
  (0.101933 -0.0343033 0)
  (0.0894941 -0.0222368 0)
  (0.0799863 -0.0156174 0)
  (0.0753387 -0.0118453 0)
  (0.0728581 -0.00939501 0)
  (0.0709906 -0.00768097 0)
  (0.0696112 -0.00625761 0)
  (0.0696297 -0.00431691 0)
  (0.073352 0.00120667 0)
  (0.0708308 0.0244416 0)
  (0.0560753 0.0417457 0)
  (0.0404897 0.0599073 0)
  (-0.0139931 0.0902035 0)
  (0.435829 0.3641 0)
  (-0.180708 0.169364 0)
  (-0.0926086 0.0885996 0)
  (-0.103381 -0.000980739 0)
  (-0.0802538 -0.104163 0)
  (-0.0389304 -0.195454 0)
  (0.000917386 -0.235193 0)
  (0.0357954 -0.219708 0)
  (0.0648204 -0.173386 0)
  (0.0872069 -0.117519 0)
  (0.100977 -0.0640046 0)
  (0.107443 -0.0173151 0)
  (0.109491 0.022998 0)
  (0.110496 0.0582204 0)
  (0.115594 0.089129 0)
  (0.126923 0.108668 0)
  (0.147263 0.140408 0)
  (0.184276 0.109026 0)
  (0.163129 0.0319959 0)
  (0.15155 -0.0227759 0)
  (0.140774 -0.051947 0)
  (0.129436 -0.0589648 0)
  (0.119479 -0.0525946 0)
  (0.111129 -0.0393051 0)
  (0.11064 -0.0224989 0)
  (0.118174 -0.0131383 0)
  (0.120971 -0.00749885 0)
  (0.117476 -0.00370093 0)
  (0.110307 -0.000776834 0)
  (0.100874 0.00176506 0)
  (0.0891388 0.00436816 0)
  (0.0740489 0.00771074 0)
  (0.0496113 0.013083 0)
  (0.03729 0.0381136 0)
  (0.0325944 0.0554862 0)
  (0.0334368 0.0758556 0)
  (-0.0303811 0.116139 0)
  (0.547861 0.421565 0)
  (-0.205319 0.199866 0)
  (-0.0567622 0.102485 0)
  (-0.0524633 -0.0056639 0)
  (-0.0166867 -0.135193 0)
  (0.0207185 -0.235323 0)
  (0.0442413 -0.266168 0)
  (0.0614449 -0.245587 0)
  (0.0739784 -0.192991 0)
  (0.0814797 -0.129158 0)
  (0.0836774 -0.0688576 0)
  (0.0826517 -0.0184647 0)
  (0.0812654 0.0221658 0)
  (0.0835536 0.0543719 0)
  (0.0930139 0.0794709 0)
  (0.110171 0.0935154 0)
  (0.135868 0.0949136 0)
  (0.156269 0.0408018 0)
  (0.157756 -0.00583836 0)
  (0.151349 -0.0328545 0)
  (0.13899 -0.0456778 0)
  (0.123496 -0.0473468 0)
  (0.108322 -0.0408103 0)
  (0.0955541 -0.0284607 0)
  (0.0878821 -0.0110174 0)
  (0.0838115 0.000524525 0)
  (0.07851 0.0069865 0)
  (0.0716261 0.0108621 0)
  (0.0639306 0.0137586 0)
  (0.0558875 0.0164969 0)
  (0.0474041 0.0197423 0)
  (0.038451 0.0242939 0)
  (0.0272596 0.0309832 0)
  (0.0203012 0.0447575 0)
  (0.0218862 0.0585788 0)
  (0.0421585 0.0783732 0)
  (0.0236222 0.113562 0)
  (0.0645082 0.0672343 0)
  (0.0976105 0.0259358 0)
  (-0.208859 0.0334053 0)
  (0.636754 0.466035 0)
  (-0.232377 0.215905 0)
  (-0.0221777 0.0934549 0)
  (0.0201069 -0.0446221 0)
  (0.0628955 -0.176231 0)
  (0.0868944 -0.257863 0)
  (0.0943681 -0.279893 0)
  (0.0917563 -0.252561 0)
  (0.0834254 -0.194204 0)
  (0.0722924 -0.125294 0)
  (0.0601793 -0.0622653 0)
  (0.0497927 -0.0126621 0)
  (0.0441111 0.0235398 0)
  (0.0469718 0.0485415 0)
  (0.0579042 0.0649084 0)
  (0.0752541 0.0703951 0)
  (0.0983545 0.0617266 0)
  (0.115741 0.0289757 0)
  (0.12013 0.000807401 0)
  (0.11446 -0.0183174 0)
  (0.102203 -0.0286212 0)
  (0.0870939 -0.0305061 0)
  (0.0718243 -0.0256279 0)
  (0.0582434 -0.0159055 0)
  (0.0477027 -0.00316061 0)
  (0.0396262 0.00669083 0)
  (0.0334776 0.0125577 0)
  (0.027639 0.0161896 0)
  (0.0220668 0.019045 0)
  (0.016936 0.0219255 0)
  (0.0125213 0.0254434 0)
  (0.00960687 0.0302405 0)
  (0.00792565 0.036443 0)
  (0.0102132 0.0430541 0)
  (0.018739 0.0505459 0)
  (0.0424624 0.0656212 0)
  (0.0498886 0.0811196 0)
  (0.0703027 0.0348717 0)
  (0.106172 0.0155154 0)
  (-0.183548 0.0610915 0)
  (0.728028 0.504471 0)
  (-0.240046 0.191726 0)
  (0.0335318 0.0102477 0)
  (0.119889 -0.117881 0)
  (0.15762 -0.215248 0)
  (0.163815 -0.269824 0)
  (0.148611 -0.273438 0)
  (0.119937 -0.235833 0)
  (0.0854773 -0.172787 0)
  (0.0524835 -0.102772 0)
  (0.0251375 -0.0423932 0)
  (0.00617114 0.000259545 0)
  (0.000414306 0.0258999 0)
  (0.00516969 0.0412136 0)
  (0.0170565 0.0498529 0)
  (0.0336143 0.0507209 0)
  (0.0524427 0.0421909 0)
  (0.0650746 0.0225384 0)
  (0.0674448 0.00365248 0)
  (0.0621757 -0.0095799 0)
  (0.0511915 -0.0160912 0)
  (0.0376273 -0.0163672 0)
  (0.0237098 -0.0117183 0)
  (0.0110248 -0.00362979 0)
  (0.000521772 0.00602988 0)
  (-0.00562387 0.0132898 0)
  (-0.00980752 0.0177015 0)
  (-0.0131011 0.0205887 0)
  (-0.0156387 0.022831 0)
  (-0.0171444 0.0248724 0)
  (-0.0169063 0.0269604 0)
  (-0.0137071 0.0292893 0)
  (-0.00716411 0.0317411 0)
  (0.00401744 0.0328198 0)
  (0.0184745 0.0343838 0)
  (0.0402487 0.0442424 0)
  (0.0591908 0.0521865 0)
  (0.0780891 0.0302445 0)
  (0.130845 0.0325245 0)
  (-0.108989 0.108553 0)
  (0.848461 0.483047 0)
  (0.0103881 0.158354 0)
  (0.169431 -0.0709406 0)
  (0.271611 -0.175065 0)
  (0.282124 -0.231329 0)
  (0.249557 -0.252015 0)
  (0.195889 -0.23487 0)
  (0.131504 -0.188513 0)
  (0.0659829 -0.125068 0)
  (0.0114566 -0.0603129 0)
  (-0.0252537 -0.011727 0)
  (-0.0416321 0.0123101 0)
  (-0.0433828 0.0246841 0)
  (-0.0375423 0.0320368 0)
  (-0.0266538 0.0358511 0)
  (-0.0130424 0.0352358 0)
  (0.000604169 0.0290943 0)
  (0.00849886 0.0173702 0)
  (0.0087008 0.00606093 0)
  (0.00347417 -0.00167508 0)
  (-0.00587526 -0.0047584 0)
  (-0.0171541 -0.00352455 0)
  (-0.0283139 0.000721283 0)
  (-0.0374888 0.00652513 0)
  (-0.0432409 0.0123106 0)
  (-0.0463171 0.016811 0)
  (-0.0477996 0.0198819 0)
  (-0.0482562 0.0218738 0)
  (-0.0477212 0.0230101 0)
  (-0.0458273 0.0232609 0)
  (-0.0417214 0.0223674 0)
  (-0.0341336 0.0199804 0)
  (-0.0225169 0.0158253 0)
  (-0.00779334 0.00968981 0)
  (0.00990691 0.0032201 0)
  (0.0267393 0.00635513 0)
  (0.0427061 0.0092049 0)
  (0.0501992 -0.000820827 0)
  (0.125182 0.0564824 0)
  (-0.448152 0.195285 0)
  (1.0193 0.410225 0)
  (0.481174 0.259527 0)
  (0.488233 0.124619 0)
  (0.474321 -0.0283665 0)
  (0.403402 -0.127142 0)
  (0.30237 -0.163466 0)
  (0.195094 -0.149739 0)
  (0.0922021 -0.107395 0)
  (-0.00063832 -0.0508386 0)
  (-0.0588833 -0.00792747 0)
  (-0.082908 0.0104529 0)
  (-0.0891759 0.0177798 0)
  (-0.0875432 0.0217205 0)
  (-0.0813702 0.0242903 0)
  (-0.0725643 0.0254941 0)
  (-0.0629239 0.0246209 0)
  (-0.0545844 0.021202 0)
  (-0.0503581 0.0155256 0)
  (-0.0510744 0.00996289 0)
  (-0.0555453 0.0062791 0)
  (-0.0620933 0.00516137 0)
  (-0.0689273 0.00621089 0)
  (-0.0747387 0.00866777 0)
  (-0.0787322 0.0117879 0)
  (-0.0805895 0.0148955 0)
  (-0.0806757 0.0173894 0)
  (-0.0795622 0.0190328 0)
  (-0.0776971 0.0197997 0)
  (-0.0754192 0.0196407 0)
  (-0.073133 0.0184264 0)
  (-0.0714953 0.0160415 0)
  (-0.0718775 0.0128205 0)
  (-0.0770679 0.010563 0)
  (-0.0897141 0.0128608 0)
  (-0.109005 0.0224997 0)
  (-0.133156 0.0392198 0)
  (-0.16699 0.0600569 0)
  (-0.213666 0.0795473 0)
  (-0.277822 0.0905341 0)
  (-0.508564 0.0792305 0)
  (0.0921414 -0.0964624 0)
  (0.178262 -0.124824 0)
  (0.163498 -0.127468 0)
  (0.0877397 -0.0992575 0)
  (-0.00267852 -0.0489474 0)
  (-0.0769512 -0.00647317 0)
  (-0.118857 0.0133463 0)
  (-0.135484 0.0195527 0)
  (-0.13877 0.0201913 0)
  (-0.136928 0.0197556 0)
  (-0.132446 0.0197248 0)
  (-0.126402 0.0201516 0)
  (-0.119615 0.0205876 0)
  (-0.113011 0.0204852 0)
  (-0.107726 0.0195126 0)
  (-0.104927 0.0177623 0)
  (-0.10485 0.0161002 0)
  (-0.106753 0.0152993 0)
  (-0.109505 0.0157533 0)
  (-0.112003 0.0173676 0)
  (-0.113492 0.0197949 0)
  (-0.113595 0.0226491 0)
  (-0.11226 0.0255978 0)
  (-0.109716 0.0283697 0)
  (-0.106308 0.030817 0)
  (-0.102392 0.032903 0)
  (-0.098343 0.0346442 0)
  (-0.0946254 0.0360879 0)
  (-0.0918155 0.0372772 0)
  (-0.0905564 0.0381689 0)
  (-0.0913719 0.0388266 0)
  (-0.0941117 0.0404829 0)
  (-0.0973469 0.0463753 0)
  (-0.0990512 0.0595338 0)
  (-0.0983864 0.0775805 0)
  (-0.0926726 0.0870594 0)
  (-0.0813387 0.0576988 0)
  (-0.0927459 -0.180621 0)
  (0.116176 0.0662762 0)
  (-0.04866 -0.00580963 0)
  (-0.0864668 -0.0337345 0)
  (-0.14138 -0.0287856 0)
  (-0.178716 -0.017723 0)
  (-0.194006 -0.0132719 0)
  (-0.196333 -0.0137053 0)
  (-0.193433 -0.0163556 0)
  (-0.188417 -0.0195828 0)
  (-0.182915 -0.0218177 0)
  (-0.177156 -0.0227344 0)
  (-0.171125 -0.0228167 0)
  (-0.164903 -0.022773 0)
  (-0.158784 -0.023295 0)
  (-0.153269 -0.0249229 0)
  (-0.148888 -0.0278956 0)
  (-0.145815 -0.0319516 0)
  (-0.143775 -0.0366087 0)
  (-0.14224 -0.0413554 0)
  (-0.140639 -0.0458297 0)
  (-0.138531 -0.0498758 0)
  (-0.135661 -0.0535291 0)
  (-0.131964 -0.0569653 0)
  (-0.127542 -0.060409 0)
  (-0.122594 -0.0639841 0)
  (-0.117351 -0.0676101 0)
  (-0.112013 -0.0709599 0)
  (-0.106701 -0.0734305 0)
  (-0.101417 -0.0741651 0)
  (-0.0960435 -0.0721758 0)
  (-0.0902116 -0.0664415 0)
  (-0.0827495 -0.055831 0)
  (-0.0710549 -0.0394898 0)
  (-0.0520512 -0.0187865 0)
  (-0.0268453 -0.000174813 0)
  (0.0148441 -0.00940405 0)
  (0.0898755 -0.0892126 0)
  (-0.0462319 -0.145485 0)
  (-0.0689121 -0.289734 0)
  (-0.365137 -0.0937723 0)
  (-0.314948 0.0845351 0)
  (-0.307808 0.0816415 0)
  (-0.293372 0.0873554 0)
  (-0.290278 0.0958089 0)
  (-0.283632 0.104495 0)
  (-0.272811 0.111183 0)
  (-0.260748 0.115874 0)
  (-0.249842 0.119481 0)
  (-0.24089 0.122302 0)
  (-0.233593 0.124611 0)
  (-0.227128 0.126815 0)
  (-0.220733 0.129431 0)
  (-0.213923 0.132947 0)
  (-0.20656 0.137731 0)
  (-0.198819 0.143986 0)
  (-0.191065 0.15171 0)
  (-0.183618 0.160655 0)
  (-0.176622 0.170372 0)
  (-0.170038 0.180326 0)
  (-0.163702 0.190072 0)
  (-0.157401 0.199382 0)
  (-0.150924 0.208271 0)
  (-0.144117 0.216909 0)
  (-0.13691 0.225499 0)
  (-0.129305 0.234149 0)
  (-0.121332 0.242799 0)
  (-0.113001 0.251189 0)
  (-0.104248 0.25884 0)
  (-0.0949175 0.265069 0)
  (-0.084716 0.2691 0)
  (-0.0730852 0.270219 0)
  (-0.0590753 0.268004 0)
  (-0.0418656 0.263098 0)
  (-0.0219543 0.258644 0)
  (0.00273829 0.259293 0)
  (0.0305806 0.270381 0)
  (0.0837603 0.319944 0)
  (-0.192589 0.357599 0)
)
;

boundaryField
{
  floor
  {
    type noSlip;
  }
  ceiling
  {
    type noSlip;
  }
  sWall
  {
    type noSlip;
  }
  nWall
  {
    type noSlip;
  }
  sideWalls
  {
    type empty;
  }
  glass1
  {
    type noSlip;
  }
  glass2
  {
    type noSlip;
  }
  sun
  {
    type noSlip;
  }
  heatsource1
  {
    type noSlip;
  }
  heatsource2
  {
    type noSlip;
  }
  Table_master
  {
    type noSlip;
  }
  Table_slave
  {
    type noSlip;
  }
  inlet
  {
    type fixedValue;
    value uniform (0.277164 -0.114805 0);
  }
  outlet
  {
    type zeroGradient;
  }
} 	// ************************************************************************* //

