// -*- C++ -*-
// File generated by PyFoam - sorry for the ugliness

FoamFile
{
 version 2.0;
 format ascii;
 class volScalarField;
 location "1100";
 object T;
}

dimensions [ 0 0 0 1 0 0 0 ];

internalField nonuniform List<scalar> 459
(
  303.613
  303.359
  303.344
  303.338
  303.333
  303.327
  303.321
  303.312
  303.301
  303.289
  303.278
  303.27
  303.267
  303.271
  303.284
  303.409
  303.384
  303.373
  303.375
  303.379
  303.383
  303.387
  303.392
  303.397
  303.403
  303.411
  303.422
  303.436
  303.454
  303.475
  303.497
  303.518
  303.524
  303.511
  303.781
  303.4
  303.375
  303.375
  303.375
  303.373
  303.367
  303.353
  303.331
  303.303
  303.278
  303.259
  303.25
  303.25
  303.256
  303.262
  303.282
  303.414
  303.362
  303.355
  303.36
  303.367
  303.374
  303.376
  303.378
  303.379
  303.381
  303.385
  303.392
  303.403
  303.419
  303.441
  303.466
  303.492
  303.506
  303.504
  303.958
  303.451
  303.412
  303.42
  303.431
  303.438
  303.436
  303.417
  303.378
  303.329
  303.284
  303.253
  303.238
  303.237
  303.243
  303.251
  303.261
  303.344
  303.335
  303.342
  303.357
  303.373
  303.386
  303.385
  303.383
  303.382
  303.381
  303.383
  303.389
  303.4
  303.418
  303.438
  303.46
  303.484
  303.5
  303.501
  304.139
  303.514
  303.451
  303.467
  303.494
  303.517
  303.526
  303.497
  303.431
  303.355
  303.289
  303.244
  303.225
  303.225
  303.235
  303.246
  303.256
  303.268
  303.287
  303.314
  303.344
  303.374
  303.402
  303.423
  303.439
  303.451
  303.462
  303.471
  303.478
  303.486
  303.494
  303.504
  303.518
  303.512
  303.51
  303.508
  303.503
  304.317
  303.593
  303.497
  303.511
  303.553
  303.598
  303.616
  303.569
  303.468
  303.365
  303.282
  303.23
  303.21
  303.214
  303.231
  303.251
  303.271
  303.293
  303.322
  303.357
  303.394
  303.43
  303.463
  303.491
  303.515
  303.535
  303.552
  303.568
  303.581
  303.592
  303.598
  303.6
  303.598
  303.577
  303.549
  303.526
  303.507
  303.582
  303.626
  303.631
  304.478
  303.697
  303.573
  303.571
  303.62
  303.685
  303.676
  303.593
  303.47
  303.347
  303.253
  303.201
  303.188
  303.204
  303.236
  303.272
  303.306
  303.343
  303.383
  303.426
  303.469
  303.51
  303.547
  303.578
  303.605
  303.629
  303.651
  303.67
  303.683
  303.69
  303.691
  303.685
  303.671
  303.639
  303.594
  303.554
  303.525
  303.55
  303.565
  303.597
  304.629
  303.86
  303.739
  303.727
  303.762
  303.779
  303.703
  303.563
  303.406
  303.271
  303.183
  303.149
  303.161
  303.204
  303.262
  303.32
  303.374
  303.424
  303.474
  303.522
  303.568
  303.61
  303.647
  303.68
  303.707
  303.731
  303.752
  303.768
  303.776
  303.775
  303.766
  303.752
  303.729
  303.693
  303.644
  303.598
  303.566
  303.569
  303.577
  303.601
  304.844
  304.271
  304.139
  304.082
  304.013
  303.855
  303.635
  303.409
  303.224
  303.107
  303.065
  303.087
  303.15
  303.237
  303.331
  303.414
  303.482
  303.54
  303.592
  303.639
  303.682
  303.72
  303.754
  303.782
  303.804
  303.821
  303.832
  303.836
  303.833
  303.824
  303.809
  303.791
  303.768
  303.738
  303.694
  303.656
  303.64
  303.653
  303.666
  303.76
  305.152
  304.88
  304.633
  304.38
  303.965
  303.509
  303.145
  302.92
  302.829
  302.847
  302.941
  303.073
  303.211
  303.344
  303.475
  303.56
  303.622
  303.672
  303.715
  303.754
  303.789
  303.82
  303.845
  303.863
  303.874
  303.878
  303.874
  303.866
  303.854
  303.84
  303.826
  303.813
  303.801
  303.794
  303.796
  303.809
  303.835
  303.862
  303.882
  303.937
  296.011
  297.294
  298.764
  300.031
  301.002
  301.75
  302.311
  302.727
  303.059
  303.302
  303.453
  303.559
  303.638
  303.695
  303.74
  303.779
  303.812
  303.842
  303.867
  303.888
  303.903
  303.911
  303.914
  303.911
  303.904
  303.894
  303.882
  303.87
  303.857
  303.846
  303.838
  303.835
  303.838
  303.849
  303.867
  303.889
  303.915
  303.985
  296.642
  298.455
  300.176
  301.396
  302.133
  302.635
  302.988
  303.239
  303.417
  303.549
  303.641
  303.708
  303.758
  303.797
  303.829
  303.856
  303.879
  303.899
  303.915
  303.926
  303.934
  303.938
  303.938
  303.935
  303.929
  303.922
  303.912
  303.902
  303.891
  303.88
  303.872
  303.866
  303.864
  303.868
  303.879
  303.902
  303.937
  303.965
  299.945
  299.867
  299.864
  301.846
  302.641
  303.007
  303.227
  303.393
  303.52
  303.617
  303.691
  303.748
  303.79
  303.823
  303.848
  303.868
  303.885
  303.899
  303.911
  303.921
  303.928
  303.934
  303.939
  303.941
  303.942
  303.942
  303.94
  303.937
  303.932
  303.927
  303.92
  303.912
  303.904
  303.897
  303.891
  303.891
  303.899
  303.915
  303.971
  304.069
)
;

boundaryField
{
  floor
  {
    type wallHeatTransfer;
    Tinf uniform 305.2;
    alphaWall uniform 0.24;
    value nonuniform List<scalar> 29
(
  303.475
  303.728
  303.668
  303.632
  303.63
  303.637
  303.649
  303.665
  303.682
  303.7
  303.719
  303.738
  303.759
  303.782
  303.809
  303.838
  303.872
  303.91
  303.948
  303.992
  303.992
  303.905
  303.869
  303.851
  303.475
  303.728
  303.725
  303.55
  303.423
)
;
  }
  ceiling
  {
    type wallHeatTransfer;
    Tinf uniform 303.2;
    alphaWall uniform 0.24;
    value nonuniform List<scalar> 43
(
  300.179
  300.095
  300.085
  301.93
  302.676
  303.019
  303.225
  303.379
  303.496
  303.584
  303.649
  303.697
  303.732
  303.757
  303.776
  303.791
  303.804
  303.814
  303.823
  303.831
  303.837
  303.842
  303.845
  303.848
  303.849
  303.849
  303.847
  303.845
  303.841
  303.837
  303.832
  303.827
  303.822
  303.818
  303.816
  303.818
  303.824
  303.833
  303.879
  303.98
  305.061
  304.812
  297.08
)
;
  }
  sWall
  {
    type wallHeatTransfer;
    Tinf uniform 315.2;
    alphaWall uniform 0.36;
    value uniform 301.54;
  }
  nWall
  {
    type wallHeatTransfer;
    Tinf uniform 307.2;
    alphaWall uniform 0.36;
    value nonuniform List<scalar> 6
(
  304.318
  304.275
  304.196
  304.473
  304.448
  304.53
)
;
  }
  sideWalls
  {
    type empty;
  }
  glass1
  {
    type wallHeatTransfer;
    Tinf uniform 315.2;
    alphaWall uniform 4.3;
    value nonuniform List<scalar> 9
(
  311.447
  310.852
  310.477
  310.193
  309.953
  309.733
  309.574
  309.648
  309.872
)
;
  }
  glass2
  {
    type wallHeatTransfer;
    Tinf uniform 307.2;
    alphaWall uniform 4.3;
    value nonuniform List<scalar> 2
(
  305.924
  306.042
)
;
  }
  sun
  {
    type wallHeatTransfer;
    Tinf uniform 305.2;
    alphaWall uniform 0.24;
    value nonuniform List<scalar> 14
(
  303.775
  303.534
  303.517
  303.505
  303.495
  303.484
  303.474
  303.462
  303.45
  303.438
  303.429
  303.426
  303.432
  303.447
)
;
  }
  heatsource1
  {
    type fixedGradient;
    gradient uniform 0;
  }
  heatsource2
  {
    type fixedGradient;
    gradient uniform 0;
  }
  Table_master
  {
    type zeroGradient;
  }
  Table_slave
  {
    type zeroGradient;
  }
  inlet
  {
    type fixedValue;
    value uniform 293.15;
  }
  outlet
  {
    type zeroGradient;
  }
} 	// ************************************************************************* //

