/*--------------------------------*- C++ -*----------------------------------*\
  =========                 |
  \\      /  F ield         | OpenFOAM: The Open Source CFD Toolbox
   \\    /   O peration     | Website:  https://openfoam.org
    \\  /    A nd           | Version:  6
     \\/     M anipulation  |
\*---------------------------------------------------------------------------*/
FoamFile
{
    version     2.0;
    format      ascii;
    class       surfaceScalarField;
    location    "1800";
    object      phi;
}
// * * * * * * * * * * * * * * * * * * * * * * * * * * * * * * * * * * * * * //

dimensions      [1 0 -1 0 0 0 0];

internalField   nonuniform List<scalar> 
852
(
-0.00299472
0.0030505
-0.00411489
0.00112015
-0.00493316
0.000818254
-0.00553135
0.000598174
-0.00587596
0.00034459
-0.00593934
6.33714e-05
-0.00569757
-0.000241789
-0.00515171
-0.000545878
-0.00435396
-0.000797766
-0.00339921
-0.000954769
-0.00239734
-0.00100188
-0.0014581
-0.000939257
-0.000687153
-0.000770966
-0.000188583
-0.000498589
-0.000187007
-0.000807103
0.000809577
-0.000592583
-0.000214545
8.56767e-06
-0.000601175
0.000560974
-0.000552431
0.000966903
-0.000405952
0.0012449
-0.000278018
0.00140491
-0.000160037
0.00148391
-7.90291e-05
0.00152963
-4.57424e-05
0.00156002
-3.04143e-05
0.0015798
-1.98098e-05
0.00159074
-1.09657e-05
0.00159107
-3.58201e-07
0.00157201
1.90354e-05
0.00150967
6.23103e-05
0.00136306
0.000146582
0.00111038
0.000252654
0.000760875
0.000349472
0.00076406
-0.00214346
0.00534462
-0.00320558
0.00218225
-0.00403603
0.00164869
-0.00462667
0.0011888
-0.00496953
0.000687434
-0.00504191
0.000135725
-0.00481952
-0.000464189
-0.00431627
-0.00104914
-0.00359883
-0.00151522
-0.0027672
-0.00178642
-0.00191913
-0.00184996
-0.00113993
-0.00171847
-0.000494269
-0.00141665
-3.28428e-05
-0.000960032
0.000255243
-0.000475112
0.000292908
-3.77356e-05
0.000292835
0.000151224
0.000665704
0.000594334
-0.000657678
0.000912425
-0.000919288
0.00117383
-0.000813862
0.00138757
-0.000619708
0.00153233
-0.000422802
0.00156234
-0.000190077
0.00156939
-8.60977e-05
0.00157738
-5.37595e-05
0.00158403
-3.7089e-05
0.00158848
-2.42843e-05
0.00159114
-1.36591e-05
0.00159131
-5.53804e-07
0.00158521
2.51142e-05
0.00154352
0.000103971
0.00136598
0.000324088
0.00105652
0.000562086
0.000655949
0.000750016
0.00142855
-0.00149984
0.00707549
-0.00239846
0.00308085
-0.0031302
0.00238041
-0.00363635
0.00169493
-0.00393037
0.000981434
-0.00397761
0.000182951
-0.00373406
-0.00070775
-0.00323547
-0.00154775
-0.00257246
-0.00217825
-0.00185148
-0.00250741
-0.00114908
-0.00255237
-0.000521204
-0.00234636
4.02915e-06
-0.00194189
0.000414114
-0.00137013
0.000680067
-0.000741082
0.000707975
-6.56607e-05
0.00100079
0.00149154
-0.000817486
0.00173777
-0.000903931
0.00173132
-0.000912858
0.00174063
-0.000823191
0.00177806
-0.000657165
0.00184406
-0.000488821
0.00165411
0.00156814
0.00151451
0.00147755
0.0014534
0.00143986
0.00143944
0.00146468
0.00156877
0.00129661
0.000596221
0.00096727
0.000891399
0.000548634
0.00116862
0.00199041
-0.00104123
0.00841664
-0.00173543
0.00377503
-0.00221703
0.00286199
-0.00254509
0.00202297
-0.00271764
0.00115397
-0.00266136
0.000126657
-0.00232941
-0.00103971
-0.00181876
-0.00205842
-0.00123352
-0.0027635
-0.000663914
-0.00307702
-0.000148534
-0.00306776
0.00029187
-0.00278678
0.000655234
-0.00230527
0.0009797
-0.00169461
0.00127738
-0.00103878
0.00162322
-0.000411521
0.00255611
6.78817e-05
0.00275362
-0.000190247
0.00245474
-0.000518621
0.00227896
-0.000728166
0.00209988
-0.000733799
0.00194264
-0.000665968
0.00183109
-0.000545641
0.00171902
-0.000376772
0.00186455
-0.000145706
0.00193019
-6.58192e-05
0.00196823
-3.82127e-05
0.00198606
-1.80076e-05
0.00197435
1.15374e-05
0.00191762
5.65514e-05
0.00179432
0.000123128
0.00157278
0.000221364
0.00119694
0.000375657
0.00106556
0.000727577
0.00079495
0.00116198
0.000399322
0.00156422
0.00240719
-0.000722288
0.00949765
-0.00122961
0.00428233
-0.00132229
0.00295465
-0.00136593
0.00206659
-0.00131157
0.00109959
-0.00102341
-0.000161516
-0.000555234
-0.00150791
-6.18529e-05
-0.00255182
0.000369548
-0.00319491
0.000712469
-0.00341995
0.000967432
-0.00332273
0.00115598
-0.00297534
0.00130653
-0.00245583
0.00145263
-0.00184073
0.00162417
-0.00121033
0.00186597
-0.000653339
0.00221538
-0.000281541
0.0022923
-0.000267191
0.00218786
-0.000414195
0.00198463
-0.000524957
0.00178384
-0.00053303
0.00160171
-0.000483852
0.00145396
-0.000397915
0.00135678
-0.000279612
0.00136192
-0.000150873
0.00137754
-8.1463e-05
0.0013945
-5.51951e-05
0.00141341
-3.69404e-05
0.00142622
-1.2959e-06
0.00141783
6.49187e-05
0.00137245
0.000168485
0.00127694
0.000316848
0.00113032
0.000522249
0.0010086
0.000849269
0.00088518
0.00128538
0.000611424
0.00183795
0.000617541
0.00240104
-0.000924574
0.00154188
-0.0013918
0.000466996
-0.00134634
-0.000619435
0.0105255
-0.000942452
0.00460533
-0.000491118
0.0025033
-6.26118e-05
0.00163807
0.000419202
0.000617754
0.00102345
-0.000765787
0.00155129
-0.00203576
0.00191195
-0.00291248
0.00209257
-0.00337554
0.00214046
-0.00346786
0.00208646
-0.00326874
0.00197141
-0.0028603
0.00183918
-0.00232362
0.00172867
-0.00173024
0.00166757
-0.00114925
0.00167295
-0.000658732
0.00172636
-0.000334975
0.00169598
-0.000236821
0.00155804
-0.000276273
0.00135967
-0.00032661
0.00116344
-0.000336818
0.000991125
-0.000311562
0.000854616
-0.000261428
0.000768362
-0.000193381
0.000743054
-0.000125588
0.000752806
-9.12385e-05
0.000782249
-8.46619e-05
0.000826764
-8.14795e-05
0.000882751
-5.73064e-05
0.000937161
1.04842e-05
0.000975668
0.000129954
0.000997808
0.000294683
0.00100735
0.00051268
0.00104666
0.000809934
0.00116191
0.0011701
0.00136754
0.0016323
0.00183278
0.00193577
0.00210517
0.00126947
0.0017199
0.000852235
0.000428411
-0.000642577
0.0116218
-0.000465057
0.00442779
0.000767651
0.00127057
0.00173457
0.000671129
0.0026398
-0.000287497
0.00341186
-0.00153787
0.00385024
-0.00247415
0.00396132
-0.00302358
0.00380778
-0.003222
0.00347136
-0.00313145
0.00302637
-0.00282375
0.00254112
-0.00237507
0.00207562
-0.00185812
0.00167291
-0.00132756
0.00135679
-0.00083314
0.0011396
-0.000441567
0.00100248
-0.000197866
0.000877317
-0.000111683
0.000724999
-0.000123976
0.000556034
-0.000157667
0.000394544
-0.00017535
0.000255543
-0.000172583
0.00014888
-0.000154788
8.46106e-05
-0.000129135
6.71747e-05
-0.000108176
8.37468e-05
-0.000107835
0.000122574
-0.000123513
0.000180728
-0.000139658
0.000261292
-0.000137895
0.000367344
-9.55927e-05
0.000485528
1.17451e-05
0.000610386
0.000169799
0.000754594
0.000368447
0.000948721
0.000615781
0.00123817
0.000880624
0.00168121
0.00118922
0.0023557
0.00126126
0.00290162
0.000723514
0.00292492
0.00082891
0.0034125
0.00271847
0.00941119
0.00349941
0.00364683
0.00410581
0.000664153
0.00514921
-0.00037229
0.00606948
-0.00120779
0.00646099
-0.00192939
0.00638372
-0.00239688
0.00593252
-0.00257238
0.00521794
-0.00250743
0.00435389
-0.00226741
0.00343884
-0.00190871
0.00255456
-0.0014908
0.0017655
-0.00106908
0.00110979
-0.00067186
0.000605595
-0.000328968
0.000266354
-0.000102347
6.09702e-05
7.4955e-06
-7.59497e-05
2.5215e-05
-0.000195943
-4.00417e-06
-0.00031424
-3.93927e-05
-0.000424831
-6.4782e-05
-0.000519515
-7.79232e-05
-0.00059144
-8.28868e-05
-0.000635049
-8.55506e-05
-0.000649727
-9.35226e-05
-0.000644465
-0.000113121
-0.000627422
-0.000140582
-0.000600055
-0.000167049
-0.000555707
-0.00018227
-0.000477919
-0.000173406
-0.000346227
-0.000119972
-0.000176649
1.95428e-07
2.80765e-05
0.000163695
0.000294363
0.000349469
0.000627674
0.000547286
0.0010685
0.000748371
0.00156671
0.000763015
0.00178663
0.000503571
0.00106254
0.00155297
0.00471586
0.00996863
0.0136076
0.0125289
0.00174283
0.0118571
0.000299514
0.0110132
-0.000363855
0.00987525
-0.00079145
0.00849241
-0.00101403
0.00698583
-0.0010658
0.00546259
-0.000984199
0.00401086
-0.000815687
0.00268984
-0.000587702
0.00154499
-0.000345964
0.000601147
-0.000125258
-0.000117994
4.72571e-05
-0.000582939
0.000135954
-0.000832235
0.000146926
-0.000957191
0.000132429
-0.00103233
0.000100327
-0.00109734
6.09899e-05
-0.00116284
2.60796e-05
-0.0012288
1.15269e-06
-0.00129089
-1.58602e-05
-0.00134487
-2.89308e-05
-0.00138927
-4.11773e-05
-0.0014272
-5.5616e-05
-0.00146728
-7.30671e-05
-0.00151973
-8.81589e-05
-0.00159397
-9.28378e-05
-0.00169939
-7.68687e-05
-0.00184712
-2.57084e-05
-0.00203929
7.21778e-05
-0.00226626
0.000227138
-0.00256
0.000457403
-0.00299108
0.000780526
-0.00364161
0.00119779
-0.00457972
0.00168645
-0.00592448
0.00210775
-0.00757625
0.00215532
-0.0071437
0.00112039
-0.00216268
0.00464396
0.00332611
0.00354189
0.00140162
0.003707
-0.000528943
0.00354278
-0.000627228
0.00297374
-0.000445009
0.00219596
-0.000288031
0.00132194
-0.000110208
0.00042741
7.88235e-05
-0.000380777
0.000220458
-0.00100012
0.00027335
-0.00140533
0.000279936
-0.00163073
0.000272629
-0.00174188
0.000247084
-0.00180383
0.000208846
-0.00184148
0.000170055
-0.00187448
0.000133308
-0.00191334
9.98164e-05
-0.0019589
7.16153e-05
-0.00200747
4.96977e-05
-0.00205616
3.28027e-05
-0.00210515
2.00391e-05
-0.00215595
9.59766e-06
-0.00221217
5.76883e-07
-0.00227844
-6.82931e-06
-0.00235785
-8.77494e-06
-0.00245114
4.2309e-07
-0.0025544
2.63654e-05
-0.00265904
7.89061e-05
-0.00275654
0.000169648
-0.00284704
0.000317615
-0.00293351
0.000543849
-0.00301758
0.000864568
-0.00309105
0.00127123
-0.00310757
0.00170294
-0.00301868
0.00201884
-0.00263821
0.00177481
-0.00137964
-0.0001382
-0.00347394
-0.00037198
0.00376799
0.000248052
0.000781602
-0.000439691
0.000158795
-0.0010991
3.21633e-05
-0.00162494
8.08136e-05
-0.00206152
0.00014852
-0.00238541
0.000213654
-0.00257523
0.000268625
-0.00265609
0.000301293
-0.00267784
0.000295075
-0.00266074
0.00026281
-0.00261443
0.000226293
-0.00255926
0.000191891
-0.0025123
0.000161853
-0.00248005
0.000137787
-0.00246517
0.000118397
-0.00246753
0.000102149
-0.00248428
8.83463e-05
-0.00251135
7.67406e-05
-0.00254552
6.69426e-05
-0.00258413
5.86183e-05
-0.00262562
5.10649e-05
-0.00266874
4.36734e-05
-0.00271284
3.72395e-05
-0.00275406
3.24179e-05
-0.00278567
3.20063e-05
-0.00280198
4.26482e-05
-0.00279337
7.02661e-05
-0.00274686
0.000123108
-0.00264138
0.00021211
-0.00244927
0.000351708
-0.00214466
0.000559938
-0.00170418
0.000830715
-0.00109138
0.00109012
-0.000142194
0.00106962
0.00113828
0.000494314
0.00160356
-0.000603511
-0.00179567
0.00131231
-0.0100139
-0.00620548
-0.00540743
-0.00524094
-0.0052051
-0.00512306
-0.00497521
-0.00476384
-0.00449898
-0.00420283
-0.00391423
-0.00365907
-0.00344141
-0.00325894
-0.00310714
-0.00297996
-0.00287263
-0.00278197
-0.00270548
-0.0026409
-0.00258639
-0.00254041
-0.00250214
-0.00247136
-0.00244706
-0.00242753
-0.00240829
-0.00237818
-0.00232015
-0.00220892
-0.00200827
-0.00166758
-0.0011182
-0.000297608
0.000782791
0.0018427
0.00232695
0.0017128
)
;

boundaryField
{
    floor
    {
        type            calculated;
        value           nonuniform List<scalar> 
29
(
0
0
0
0
0
0
0
0
0
0
0
0
0
0
0
0
0
0
0
0
-3.21579e-06
-8.5682e-06
-1.32582e-05
-1.74914e-05
-1.59674e-06
-2.4992e-06
-7.37772e-06
-8.37215e-06
-7.27891e-06
)
;
    }
    ceiling
    {
        type            calculated;
        value           nonuniform List<scalar> 
43
(
-1.76951e-05
-3.79e-05
-4.04596e-05
-1.6476e-05
-7.72686e-06
-3.69822e-06
-1.25738e-06
6.44412e-07
2.26662e-06
3.7321e-06
5.12281e-06
6.4456e-06
7.62435e-06
8.60506e-06
9.39486e-06
1.00365e-05
1.05751e-05
1.10442e-05
1.14602e-05
1.18256e-05
1.21389e-05
1.24002e-05
1.26108e-05
1.27701e-05
1.28728e-05
1.2908e-05
1.28646e-05
1.27334e-05
1.25129e-05
1.22126e-05
1.18471e-05
1.1433e-05
1.09876e-05
1.05315e-05
1.00983e-05
9.69823e-06
9.68353e-06
1.00331e-05
1.06169e-05
1.20965e-05
1.07918e-05
7.81515e-06
-6.98789e-05
)
;
    }
    sWall
    {
        type            calculated;
        value           uniform -0.000224251;
    }
    nWall
    {
        type            calculated;
        value           nonuniform List<scalar> 6(-4.56997e-05 -5.48796e-05 -5.92029e-05 -6.84099e-05 -7.47358e-05 -9.49942e-05);
    }
    sideWalls
    {
        type            empty;
        value           nonuniform 0();
    }
    glass1
    {
        type            calculated;
        value           nonuniform List<scalar> 9(-5.57976e-05 -0.000150671 -0.000231048 -0.000299936 -0.000358737 -0.00040846 -0.000453667 -0.000507915 -0.000568247);
    }
    glass2
    {
        type            calculated;
        value           nonuniform List<scalar> 2(-0.000240841 -0.000265195);
    }
    sun
    {
        type            calculated;
        value           uniform 0;
    }
    heatsource1
    {
        type            calculated;
        value           nonuniform List<scalar> 3(2.03754e-07 2.03718e-07 2.03741e-07);
    }
    heatsource2
    {
        type            calculated;
        value           nonuniform List<scalar> 4(5.11302e-08 5.1198e-08 0 0);
    }
    Table_master
    {
        type            calculated;
        value           nonuniform List<scalar> 9(-1.52848e-07 -1.52962e-07 -1.52999e-07 -1.53022e-07 -1.53037e-07 -1.53046e-07 -1.53051e-07 -1.53041e-07 -1.53004e-07);
    }
    Table_slave
    {
        type            calculated;
        value           nonuniform List<scalar> 9(1.52705e-07 1.52741e-07 1.52728e-07 1.52719e-07 1.52717e-07 1.5272e-07 1.52741e-07 1.52786e-07 1.52866e-07);
    }
    inlet
    {
        type            calculated;
        value           uniform -0.00622722;
    }
    outlet
    {
        type            calculated;
        value           nonuniform List<scalar> 2(-0.00107038 0.0113641);
    }
}


// ************************************************************************* //
