/*--------------------------------*- C++ -*----------------------------------*\
  =========                 |
  \\      /  F ield         | OpenFOAM: The Open Source CFD Toolbox
   \\    /   O peration     | Website:  https://openfoam.org
    \\  /    A nd           | Version:  6
     \\/     M anipulation  |
\*---------------------------------------------------------------------------*/
FoamFile
{
    version     2.0;
    format      ascii;
    class       volVectorField;
    location    "40";
    object      U;
}
// * * * * * * * * * * * * * * * * * * * * * * * * * * * * * * * * * * * * * //

dimensions      [0 1 -1 0 0 0 0];

internalField   nonuniform List<vector> 
459
(
(-0.121315 -0.141165 0)
(0.191092 -0.0670111 0)
(0.240491 -0.0479753 0)
(0.253999 -0.0350307 0)
(0.270618 -0.0231597 0)
(0.281509 -0.0148067 0)
(0.283712 -0.00919238 0)
(0.279531 -0.00482989 0)
(0.27141 -0.00100617 0)
(0.259734 0.00269312 0)
(0.243818 0.00674509 0)
(0.222271 0.0119236 0)
(0.19244 0.0199049 0)
(0.146348 0.0364522 0)
(0.125253 0.0810334 0)
(-0.131208 -0.00893786 0)
(0.0462298 -0.00403405 0)
(0.0248025 0.00150327 0)
(0.0112247 0.000385707 0)
(0.0123966 -0.000743353 0)
(0.0140485 -0.000937483 0)
(0.0145536 -0.000404193 0)
(0.0145344 0.000113673 0)
(0.0142139 0.000255862 0)
(0.0139147 0.000280033 0)
(0.0136473 0.000334519 0)
(0.013264 0.000452363 0)
(0.0125844 0.000709352 0)
(0.0113908 0.00132298 0)
(0.0100794 0.00280122 0)
(0.00685893 0.00497056 0)
(-0.0213414 0.00451163 0)
(-0.0477071 -0.0020318 0)
(0.136647 -0.0145598 0)
(-0.31355 -0.191248 0)
(0.193601 -0.0767841 0)
(0.173532 -0.0632738 0)
(0.183015 -0.0391538 0)
(0.200265 -0.0170997 0)
(0.209629 -0.00315282 0)
(0.211662 0.00533637 0)
(0.209036 0.011328 0)
(0.203729 0.0164287 0)
(0.196015 0.021561 0)
(0.185639 0.0276675 0)
(0.1723 0.0359095 0)
(0.156314 0.0479629 0)
(0.13812 0.0668062 0)
(0.135495 0.101521 0)
(0.123729 0.0912453 0)
(0.0772128 0.0777499 0)
(-0.17359 -0.0100609 0)
(0.0325834 -0.0115875 0)
(0.00941792 -0.00415997 0)
(0.0104983 -0.0018662 0)
(0.0129901 -0.00104263 0)
(0.0136789 -0.000530839 0)
(0.014175 -0.000466892 0)
(0.014557 0.00039678 0)
(0.0144297 0.000763859 0)
(0.0142355 0.000912888 0)
(0.0141089 0.00106793 0)
(0.0140009 0.00132521 0)
(0.013869 0.00182634 0)
(0.0136614 0.00283889 0)
(0.013853 0.00499249 0)
(0.0150369 0.00887417 0)
(0.00657143 0.0108129 0)
(-0.0405579 0.00459303 0)
(0.19581 -0.00995374 0)
(-0.451346 -0.246135 0)
(0.21267 -0.135016 0)
(0.101923 -0.106906 0)
(0.113205 -0.0613926 0)
(0.128409 -0.0299604 0)
(0.133769 -0.0118051 0)
(0.134996 -0.000198984 0)
(0.134915 0.00884066 0)
(0.133903 0.0167691 0)
(0.131709 0.0246758 0)
(0.128173 0.0336458 0)
(0.123358 0.0447693 0)
(0.117808 0.0591316 0)
(0.111357 0.0774421 0)
(0.109435 0.100279 0)
(0.0961547 0.0958373 0)
(0.0732678 0.112144 0)
(-0.196728 -0.00231487 0)
(0.0347447 -0.0224057 0)
(0.0162286 -0.0137191 0)
(0.0169747 -0.00531014 0)
(0.0169573 -0.00130197 0)
(0.0148709 4.60536e-05 0)
(0.0128958 -0.00472656 0)
(0.0128173 -0.00400204 0)
(0.0125633 -0.0040469 0)
(0.0128362 -0.00439921 0)
(0.01331 -0.00460207 0)
(0.01385 -0.0045806 0)
(0.0145955 -0.00425783 0)
(0.0156569 -0.00331378 0)
(0.0193966 0.00124572 0)
(0.0259461 0.0074153 0)
(0.0261401 0.0107302 0)
(-0.00907328 0.00968826 0)
(0.208528 0.0100168 0)
(-0.556275 -0.272396 0)
(0.226797 -0.176489 0)
(0.0223139 -0.127255 0)
(0.0464341 -0.064135 0)
(0.0567406 -0.0304938 0)
(0.059155 -0.0127411 0)
(0.0615734 -0.00111025 0)
(0.0661952 0.00819716 0)
(0.0702139 0.0166283 0)
(0.0734678 0.0252651 0)
(0.0759363 0.035048 0)
(0.0777846 0.0467664 0)
(0.0794539 0.061001 0)
(0.0810173 0.0779206 0)
(0.0864993 0.0977896 0)
(0.0927888 0.107543 0)
(0.102468 0.127018 0)
(0.123669 0.0120822 0)
(0.0767131 -0.00269532 0)
(0.0658332 -0.0182337 0)
(0.0441422 -0.0111658 0)
(0.0311508 -0.00150402 0)
(0.0245112 0.00244872 0)
(0.0209405 0.00348978 0)
(0.017738 -0.00030071 0)
(0.015106 -0.00117599 0)
(0.0143243 -0.00143614 0)
(0.0138481 -0.00177047 0)
(0.0139801 -0.00221974 0)
(0.0149856 -0.00283868 0)
(0.0169902 -0.00365137 0)
(0.0199954 -0.00465103 0)
(0.0251897 -0.00615003 0)
(0.031745 -0.00158694 0)
(0.036683 0.00353104 0)
(0.014156 0.0109302 0)
(0.216121 0.0432915 0)
(-0.613005 -0.272763 0)
(0.203006 -0.19426 0)
(-0.0524791 -0.132266 0)
(-0.00750083 -0.0623191 0)
(-0.00375784 -0.0320573 0)
(-0.000572204 -0.0164718 0)
(0.00444185 -0.00625867 0)
(0.0113978 0.00245167 0)
(0.0185889 0.0112123 0)
(0.0250657 0.0204499 0)
(0.0311781 0.030741 0)
(0.0372481 0.0425696 0)
(0.0437859 0.0562337 0)
(0.0513343 0.0718048 0)
(0.0628496 0.0891394 0)
(0.0764458 0.099894 0)
(0.092904 0.105055 0)
(0.10582 0.0435633 0)
(0.0938311 0.0204079 0)
(0.071929 0.00975969 0)
(0.0494921 0.0104966 0)
(0.0341157 0.0116579 0)
(0.0253734 0.0101113 0)
(0.0202329 0.00758822 0)
(0.0167234 0.00472385 0)
(0.0145774 0.00272507 0)
(0.0135344 0.00135656 0)
(0.0132103 0.000247845 0)
(0.0135636 -0.000913806 0)
(0.0146374 -0.00227456 0)
(0.0164765 -0.00387744 0)
(0.0190606 -0.0056691 0)
(0.0225927 -0.00717838 0)
(0.0274167 -0.00686075 0)
(0.0327022 -0.0045927 0)
(0.0253928 0.00257169 0)
(0.0941408 0.0414901 0)
(0.0486751 0.0484622 0)
(-0.100599 0.0406517 0)
(0.313162 -0.0435774 0)
(-0.648744 -0.249235 0)
(0.154315 -0.189848 0)
(-0.0896865 -0.132643 0)
(-0.0488818 -0.0642513 0)
(-0.0484562 -0.0364692 0)
(-0.0439475 -0.0226421 0)
(-0.0377114 -0.0136339 0)
(-0.030585 -0.00557825 0)
(-0.0225256 0.00323743 0)
(-0.0148181 0.0127839 0)
(-0.00726078 0.0231091 0)
(0.000860962 0.0346772 0)
(0.00999432 0.047436 0)
(0.0205531 0.0610934 0)
(0.0342938 0.0749948 0)
(0.0491684 0.0830536 0)
(0.0670447 0.082943 0)
(0.0750007 0.0500672 0)
(0.0659003 0.0315768 0)
(0.0498763 0.0263243 0)
(0.0356308 0.0250469 0)
(0.026101 0.0216713 0)
(0.0202548 0.016377 0)
(0.0165605 0.0112439 0)
(0.0141619 0.00706748 0)
(0.0127235 0.00401664 0)
(0.0119795 0.00182634 0)
(0.0118057 3.83676e-05 0)
(0.0121654 -0.00172401 0)
(0.0130485 -0.00366115 0)
(0.0144265 -0.00582329 0)
(0.0161982 -0.00808299 0)
(0.0182324 -0.0099348 0)
(0.0204948 -0.0103297 0)
(0.0218637 -0.00875304 0)
(0.0163308 -0.00287073 0)
(0.0301308 0.0298819 0)
(0.0173722 0.0610642 0)
(-0.138558 0.0681113 0)
(0.355579 -0.0610719 0)
(-0.688957 -0.201663 0)
(0.10777 -0.169007 0)
(-0.121809 -0.134412 0)
(-0.0805679 -0.0649474 0)
(-0.0825832 -0.0410344 0)
(-0.0762606 -0.0293123 0)
(-0.0691803 -0.021169 0)
(-0.0619098 -0.0133912 0)
(-0.0547268 -0.00480608 0)
(-0.0470185 0.00481846 0)
(-0.0396167 0.0148946 0)
(-0.0315729 0.0254502 0)
(-0.0223261 0.0365419 0)
(-0.011529 0.0480053 0)
(0.00208787 0.0595348 0)
(0.0167694 0.066968 0)
(0.0333641 0.0675702 0)
(0.0383238 0.0504533 0)
(0.0331764 0.04108 0)
(0.0252284 0.0374329 0)
(0.0190301 0.0332652 0)
(0.0153459 0.0268555 0)
(0.0132047 0.0196263 0)
(0.0118127 0.0132635 0)
(0.0108546 0.00834158 0)
(0.0102198 0.00473857 0)
(0.00985327 0.00206075 0)
(0.00977 -0.000180955 0)
(0.00999551 -0.00238069 0)
(0.0105353 -0.00473028 0)
(0.011348 -0.00724926 0)
(0.0123535 -0.00973212 0)
(0.0134388 -0.0115544 0)
(0.0144231 -0.0115597 0)
(0.0144147 -0.00827625 0)
(0.0111433 0.00186578 0)
(0.0165363 0.033417 0)
(0.019455 0.0784791 0)
(-0.18138 0.084109 0)
(0.468488 -0.0677172 0)
(-0.732327 -0.119405 0)
(0.054047 -0.130053 0)
(-0.163873 -0.154321 0)
(-0.102257 -0.0765524 0)
(-0.107036 -0.0479 0)
(-0.098165 -0.0357338 0)
(-0.0910628 -0.0277785 0)
(-0.0845255 -0.0199829 0)
(-0.0784004 -0.0114943 0)
(-0.0723061 -0.00227472 0)
(-0.0656996 0.00743291 0)
(-0.058741 0.0171595 0)
(-0.0506418 0.0268599 0)
(-0.0410683 0.0364909 0)
(-0.0295379 0.0457846 0)
(-0.0167129 0.0530762 0)
(-0.00250844 0.0564521 0)
(0.00363876 0.049934 0)
(0.00431411 0.0457587 0)
(0.00388927 0.0417295 0)
(0.0041949 0.0357639 0)
(0.00519105 0.0282482 0)
(0.00621314 0.0207031 0)
(0.00689574 0.0143276 0)
(0.00722301 0.00945384 0)
(0.00730431 0.00585924 0)
(0.00725015 0.00311908 0)
(0.0071582 0.00076401 0)
(0.0071255 -0.00158644 0)
(0.00719919 -0.00406464 0)
(0.00734576 -0.00667818 0)
(0.00757355 -0.00923269 0)
(0.00797147 -0.0111166 0)
(0.00869595 -0.0111796 0)
(0.00996118 -0.00757598 0)
(0.0131844 0.00343264 0)
(0.0267481 0.0308511 0)
(0.0526216 0.0727545 0)
(-0.113004 0.0657534 0)
(0.78707 -0.0122764 0)
(-0.790387 0.0312194 0)
(-0.0283155 -0.103665 0)
(-0.233014 -0.196178 0)
(-0.0892853 -0.0992738 0)
(-0.109546 -0.051512 0)
(-0.105888 -0.0376708 0)
(-0.102427 -0.0301469 0)
(-0.0985345 -0.0220359 0)
(-0.0944636 -0.0133504 0)
(-0.0902037 -0.0046142 0)
(-0.0853617 0.00400859 0)
(-0.0799379 0.0124912 0)
(-0.0734091 0.0207658 0)
(-0.0654494 0.0288452 0)
(-0.0558612 0.0365846 0)
(-0.0448475 0.0432346 0)
(-0.0328582 0.0476656 0)
(-0.0241549 0.0472023 0)
(-0.0179943 0.0450816 0)
(-0.012624 0.0408936 0)
(-0.00757169 0.0346899 0)
(-0.00319249 0.0275588 0)
(0.000113046 0.0208404 0)
(0.00229476 0.0153617 0)
(0.00358864 0.0111948 0)
(0.0042376 0.00809471 0)
(0.00442347 0.00569379 0)
(0.00426712 0.00357916 0)
(0.00392057 0.00132734 0)
(0.00343994 -0.00103129 0)
(0.0027435 -0.0035353 0)
(0.00187668 -0.0060928 0)
(0.00104119 -0.00825047 0)
(0.000606577 -0.00923769 0)
(0.0015507 -0.00790999 0)
(0.00726406 -0.00166443 0)
(0.0260979 0.0157902 0)
(0.0561688 0.0418659 0)
(-0.0813587 0.0355023 0)
(0.790527 0.0468273 0)
(-0.290295 -0.137224 0)
(-0.0248996 -0.0936109 0)
(-0.0810326 -0.0569252 0)
(-0.0988721 -0.0506993 0)
(-0.102448 -0.0433665 0)
(-0.103227 -0.0312873 0)
(-0.103311 -0.0177533 0)
(-0.102275 -0.00478599 0)
(-0.0997966 0.00658114 0)
(-0.0957265 0.0151059 0)
(-0.0904862 0.0213048 0)
(-0.0838275 0.0266613 0)
(-0.0754831 0.0314654 0)
(-0.0654237 0.0355097 0)
(-0.0540085 0.0381191 0)
(-0.0430682 0.0377848 0)
(-0.0330272 0.0350909 0)
(-0.0237322 0.0301374 0)
(-0.0155642 0.0236411 0)
(-0.0090422 0.0168349 0)
(-0.00435214 0.0107894 0)
(-0.00126594 0.00600135 0)
(0.000608829 0.00246051 0)
(0.00161261 -0.000135653 0)
(0.0019765 -0.00219116 0)
(0.00182802 -0.00410257 0)
(0.00125819 -0.00646079 0)
(0.000197356 -0.00902504 0)
(-0.0015109 -0.0117118 0)
(-0.00385427 -0.0144264 0)
(-0.00677401 -0.0167884 0)
(-0.0101729 -0.0183967 0)
(-0.0133696 -0.0188929 0)
(-0.0134776 -0.0165196 0)
(-0.00663121 -0.00525753 0)
(-0.00364281 0.0153413 0)
(-0.15593 0.0180462 0)
(0.468503 0.0843193 0)
(-0.242995 -0.184001 0)
(-0.0392863 -0.147214 0)
(-0.0666349 -0.118023 0)
(-0.0755275 -0.107983 0)
(-0.0811067 -0.109082 0)
(-0.0878505 -0.111152 0)
(-0.0955284 -0.112768 0)
(-0.101697 -0.11371 0)
(-0.105216 -0.112321 0)
(-0.10569 -0.105668 0)
(-0.103405 -0.0964272 0)
(-0.0985922 -0.0877709 0)
(-0.0912845 -0.0796841 0)
(-0.0815467 -0.0723126 0)
(-0.0697257 -0.0664315 0)
(-0.0569186 -0.0633979 0)
(-0.0441665 -0.0633319 0)
(-0.0323014 -0.065919 0)
(-0.0221133 -0.0701271 0)
(-0.0140792 -0.0747452 0)
(-0.0082377 -0.0789615 0)
(-0.00430801 -0.0824237 0)
(-0.00190524 -0.0851449 0)
(-0.000667215 -0.0873964 0)
(-0.000280631 -0.0895476 0)
(-0.000542694 -0.0918788 0)
(-0.00151048 -0.0941687 0)
(-0.00332492 -0.0954884 0)
(-0.00597483 -0.0963457 0)
(-0.00955389 -0.097354 0)
(-0.0143155 -0.0984571 0)
(-0.0204488 -0.0995379 0)
(-0.0274395 -0.100615 0)
(-0.0330537 -0.101207 0)
(-0.0372995 -0.0964532 0)
(-0.0570913 -0.073799 0)
(-0.131578 -0.0541219 0)
(0.371998 -0.0207036 0)
(-0.820146 -0.0627365 0)
(0.203909 0.193223 0)
(0.103827 0.551923 0)
(0.0517874 0.469963 0)
(0.0344197 0.378968 0)
(0.00150077 0.344219 0)
(-0.036222 0.345063 0)
(-0.0605443 0.350488 0)
(-0.0788963 0.35825 0)
(-0.0913723 0.366904 0)
(-0.0990815 0.373019 0)
(-0.102667 0.37171 0)
(-0.10234 0.367921 0)
(-0.098467 0.365428 0)
(-0.0914484 0.363807 0)
(-0.0816334 0.362938 0)
(-0.0695608 0.363108 0)
(-0.0562604 0.364785 0)
(-0.0430123 0.36773 0)
(-0.0309581 0.3715 0)
(-0.0210133 0.375377 0)
(-0.0135427 0.378742 0)
(-0.00845046 0.381184 0)
(-0.00541855 0.382577 0)
(-0.00403075 0.383232 0)
(-0.00387833 0.383629 0)
(-0.00469504 0.384084 0)
(-0.00642186 0.384807 0)
(-0.00913723 0.385181 0)
(-0.0128241 0.383521 0)
(-0.0174277 0.380768 0)
(-0.0230616 0.377929 0)
(-0.029948 0.375016 0)
(-0.0377951 0.372161 0)
(-0.0441503 0.369572 0)
(-0.0460586 0.367867 0)
(-0.0528555 0.365611 0)
(-0.0952062 0.351431 0)
(-0.171275 0.356374 0)
(0.496067 0.407618 0)
)
;

boundaryField
{
    floor
    {
        type            noSlip;
    }
    ceiling
    {
        type            noSlip;
    }
    sWall
    {
        type            noSlip;
    }
    nWall
    {
        type            noSlip;
    }
    sideWalls
    {
        type            empty;
    }
    glass1
    {
        type            noSlip;
    }
    glass2
    {
        type            noSlip;
    }
    sun
    {
        type            noSlip;
    }
    heatsource1
    {
        type            noSlip;
    }
    heatsource2
    {
        type            noSlip;
    }
    Table_master
    {
        type            noSlip;
    }
    Table_slave
    {
        type            noSlip;
    }
    inlet
    {
        type            fixedValue;
        value           uniform (0.2 0 0);
    }
    outlet
    {
        type            zeroGradient;
    }
}


// ************************************************************************* //
