/*--------------------------------*- C++ -*----------------------------------*\
  =========                 |
  \\      /  F ield         | OpenFOAM: The Open Source CFD Toolbox
   \\    /   O peration     | Website:  https://openfoam.org
    \\  /    A nd           | Version:  6
     \\/     M anipulation  |
\*---------------------------------------------------------------------------*/
FoamFile
{
    version     2.0;
    format      ascii;
    class       surfaceScalarField;
    location    "600";
    object      phi;
}
// * * * * * * * * * * * * * * * * * * * * * * * * * * * * * * * * * * * * * //

dimensions      [1 0 -1 0 0 0 0];

internalField   nonuniform List<scalar> 
852
(
-0.00291311
0.00296962
-0.00391413
0.00100103
-0.00469081
0.000776679
-0.0053142
0.000623397
-0.00575668
0.000442487
-0.00599803
0.000241346
-0.00601644
1.84185e-05
-0.00578941
-0.000227029
-0.00531331
-0.000476102
-0.00462089
-0.000692413
-0.00377725
-0.000843639
-0.00286362
-0.000913629
-0.00194849
-0.000915124
-0.00103736
-0.000911128
-0.00103594
-0.000617958
0.000620699
-0.000234514
-0.00038344
0.00037718
-0.000611689
0.000822528
-0.000445343
0.00110388
-0.000281342
0.00127016
-0.00016628
0.00135694
-8.67751e-05
0.00139994
-4.29939e-05
0.00142366
-2.37135e-05
0.00143715
-1.3487e-05
0.00144348
-6.32071e-06
0.00144348
5.52065e-09
0.001435
8.48084e-06
0.00140948
2.55281e-05
0.00134455
6.49382e-05
0.00120299
0.000141563
0.000971672
0.000231326
0.000692682
0.000278996
0.0006964
-0.00207563
0.00519726
-0.00305532
0.00198072
-0.00385194
0.0015733
-0.00446071
0.00123217
-0.00489041
0.000872186
-0.00513169
0.000482627
-0.00516099
4.77266e-05
-0.00495515
-0.000432868
-0.00451844
-0.000912806
-0.00389534
-0.00131551
-0.0031572
-0.00158178
-0.00238459
-0.00168624
-0.00165334
-0.00164637
-0.00106792
-0.00149654
-0.000883469
-0.0012204
-0.00022347
-0.000660047
-0.000223517
0.000489152
0.000139225
0.000895812
-0.000790096
0.00111649
-0.000832365
0.00130645
-0.0006353
0.00144181
-0.000416695
0.00151361
-0.000238071
0.00152174
-9.4906e-05
0.0015242
-4.54487e-05
0.00152734
-2.68465e-05
0.00152999
-1.61288e-05
0.00153176
-8.08448e-06
0.00153243
-6.61759e-07
0.00153104
9.87862e-06
0.00152397
3.26004e-05
0.00148239
0.000106524
0.00130701
0.000316948
0.00100406
0.000534286
0.000623549
0.000659516
0.00132943
-0.00145406
0.00688355
-0.00230229
0.00282895
-0.00300324
0.00227425
-0.00351703
0.00174596
-0.00388672
0.00124188
-0.00410119
0.000697096
-0.0041221
6.86479e-05
-0.00391049
-0.000644482
-0.0034829
-0.00134039
-0.00290267
-0.00189575
-0.00224555
-0.00223889
-0.001585
-0.00234679
-0.000980354
-0.00225102
-0.000496709
-0.00198018
-0.000167214
-0.00154989
0.000113441
-0.000940699
-0.000110073
0.00144725
-0.00130012
0.00165914
-0.00100198
0.00164503
-0.000818246
0.00165047
-0.000640739
0.00167136
-0.000437579
0.00166362
-0.000230324
0.00156887
0.00152358
0.00149689
0.00148092
0.001473
0.00147249
0.00148253
0.00151529
0.00162197
0.00134103
0.000597896
0.000996971
0.000878354
0.000555245
0.00110125
0.00189907
-0.00101935
0.0082032
-0.00169793
0.00350754
-0.00215384
0.00273016
-0.00248401
0.00207614
-0.00272845
0.00148632
-0.00286771
0.000836366
-0.00283335
3.42875e-05
-0.00257369
-0.000904142
-0.00214222
-0.00177185
-0.00162262
-0.00241535
-0.0010837
-0.00277781
-0.000578783
-0.0028517
-0.000133816
-0.00269598
0.00023926
-0.00235325
0.000565108
-0.00187573
0.000943306
-0.00131889
0.00163553
-0.000802297
0.00230129
-0.000658417
0.00187236
-0.000871192
0.00176814
-0.000897757
0.00168895
-0.000739052
0.00162441
-0.000576196
0.00160166
-0.00041482
0.00162205
-0.000250715
0.00173152
-0.000109612
0.00181123
-7.98605e-05
0.00188015
-6.90706e-05
0.0019358
-5.57959e-05
0.00196307
-2.7415e-05
0.00193977
2.3153e-05
0.00184097
9.86581e-05
0.00163487
0.000205954
0.00126841
0.000366313
0.00113761
0.0007287
0.00084631
0.00116966
0.000395089
0.00155248
0.00231304
-0.000718393
0.0092795
-0.00124105
0.00403019
-0.00132734
0.00281645
-0.00138563
0.00213444
-0.00143
0.00153069
-0.00141746
0.000823837
-0.00124608
-0.000137089
-0.000903486
-0.00124673
-0.000489496
-0.00218584
-8.33847e-05
-0.00282146
0.000268588
-0.00312978
0.000550356
-0.00313347
0.000764662
-0.00291029
0.000934296
-0.00252289
0.00109418
-0.00203561
0.00129288
-0.00151759
0.00155982
-0.00106923
0.00172958
-0.000828173
0.00164062
-0.000782235
0.00148138
-0.000738505
0.00135869
-0.000616362
0.00126648
-0.00048398
0.00121407
-0.000362406
0.00121337
-0.00025001
0.00127368
-0.000169917
0.00133689
-0.000143059
0.00140411
-0.000136283
0.00147057
-0.000122249
0.00152479
-8.16297e-05
0.0015463
1.65122e-06
0.00151425
0.000130712
0.00141804
0.000302168
0.00125912
0.000525237
0.00111954
0.000868291
0.000968311
0.0013209
0.000635376
0.00188542
0.000537258
0.00241116
-0.000990909
0.00152797
-0.00145198
0.00046087
-0.00140457
-0.000631109
0.010317
-0.000999728
0.00439882
-0.000583461
0.00240019
-0.000243565
0.00179455
6.12765e-06
0.001281
0.000275593
0.000554377
0.000670701
-0.000532192
0.00107991
-0.00165594
0.0014033
-0.00250923
0.0016066
-0.00302476
0.00169344
-0.00321662
0.00169355
-0.00313359
0.00163155
-0.00284828
0.00153924
-0.00243057
0.00145125
-0.00194762
0.00139646
-0.00146279
0.00137451
-0.00104727
0.00132003
-0.000773695
0.00117939
-0.000641588
0.000996811
-0.000555923
0.000844768
-0.000464313
0.000738599
-0.000377806
0.000681884
-0.000305685
0.000679108
-0.000247228
0.000721718
-0.00021252
0.000785435
-0.000206769
0.000861095
-0.000211937
0.000944352
-0.000205498
0.00102918
-0.000166447
0.00110399
-7.31535e-05
0.00115065
8.40559e-05
0.00116503
0.000287798
0.00115653
0.00053374
0.00117432
0.000850513
0.00126654
0.00122868
0.00144553
0.00170644
0.00188022
0.00197647
0.00213352
0.00127468
0.00174225
0.000852144
0.000394777
-0.000704128
0.0114713
-0.000606209
0.0043009
0.000489676
0.00130431
0.00120544
0.00107879
0.00173137
0.000755075
0.0023138
-2.80447e-05
0.00290023
-0.00111862
0.00326836
-0.00202407
0.00339473
-0.0026356
0.00331152
-0.00294156
0.00306753
-0.00297263
0.00272063
-0.00278669
0.00232363
-0.00245128
0.00192213
-0.00202907
0.00155391
-0.00157941
0.00124167
-0.00115054
0.000988193
-0.000793796
0.000769626
-0.000555123
0.000556262
-0.000428219
0.000361652
-0.000361308
0.000212001
-0.000314657
0.000114745
-0.000280543
6.70277e-05
-0.000257962
6.52131e-05
-0.000245406
9.87501e-05
-0.00024605
0.000152321
-0.000260333
0.000217911
-0.000277519
0.000295599
-0.000283178
0.00039006
-0.000260901
0.000506119
-0.000189205
0.00063063
-4.04474e-05
0.000752814
0.000165622
0.000884046
0.000402515
0.00106463
0.000669938
0.00134373
0.00094959
0.0017832
0.00126698
0.00244693
0.00131275
0.00298352
0.000738103
0.00301128
0.000824394
0.00346827
0.00254727
0.0094274
0.00321986
0.00362832
0.00354715
0.000977015
0.0040461
0.000579856
0.00468622
0.000114955
0.00536122
-0.000703031
0.0057101
-0.00146751
0.00569664
-0.00201061
0.00536976
-0.00230873
0.0048089
-0.00238071
0.00410215
-0.00226588
0.00333377
-0.00201831
0.00257137
-0.00168888
0.00186237
-0.00132007
0.00124388
-0.000960916
0.000731896
-0.000638551
0.000332702
-0.000394597
3.4022e-05
-0.000256438
-0.000191189
-0.000203002
-0.00035814
-0.000194351
-0.000475489
-0.000197301
-0.000551382
-0.000204643
-0.000593843
-0.000215494
-0.000609257
-0.000229984
-0.000605878
-0.000249422
-0.000593219
-0.000272983
-0.000575856
-0.000294875
-0.000551961
-0.000307065
-0.00051264
-0.000300214
-0.000438544
-0.000263292
-0.000298908
-0.000180076
-0.000113601
-1.96764e-05
0.000100652
0.00018827
0.00037042
0.000400178
0.000709567
0.00061045
0.00116095
0.000815605
0.00165995
0.000813754
0.00187361
0.000524452
0.0011176
0.00158041
0.00483757
0.00997917
0.0135993
0.0123841
0.0021922
0.011582
0.00138195
0.010945
0.000751968
0.0101897
5.22554e-05
0.00917082
-0.000448645
0.0079719
-0.000811704
0.00668587
-0.00102271
0.00538307
-0.00107792
0.00412534
-0.00100815
0.0029663
-0.000859273
0.00193908
-0.000661652
0.00105442
-0.000435405
0.000330614
-0.000237108
-0.000214993
-9.29373e-05
-0.000579608
-2.99763e-05
-0.000808781
-2.72581e-05
-0.000963729
-4.80474e-05
-0.00108064
-7.74319e-05
-0.00117107
-0.000106861
-0.00124249
-0.000133216
-0.00130122
-0.000156757
-0.00135251
-0.000178686
-0.00140274
-0.000199186
-0.00145951
-0.000216211
-0.00152969
-0.000224679
-0.00162003
-0.000216716
-0.00173888
-0.000181364
-0.00189692
-0.000105243
-0.00210048
2.34956e-05
-0.00233436
0.000214209
-0.00262582
0.000479736
-0.0030622
0.000836564
-0.00373542
0.00128368
-0.00471244
0.00179264
-0.00610967
0.00221099
-0.00780729
0.00222208
-0.00733797
0.0011111
-0.00222174
0.00472051
0.00361785
0.00401877
0.00208362
0.00457814
0.000192516
0.00466092
-3.05952e-05
0.00430577
-9.35331e-05
0.00371574
-0.000221693
0.0029866
-0.000293573
0.00218554
-0.000276851
0.00136899
-0.000191587
0.000573498
-6.37763e-05
-0.000157709
6.95668e-05
-0.000746112
0.000153006
-0.00114759
0.000164373
-0.00139137
0.000150855
-0.00153524
0.000113902
-0.00163036
6.7869e-05
-0.00170517
2.67706e-05
-0.00177572
-6.87572e-06
-0.00184701
-3.55644e-05
-0.00192045
-5.97635e-05
-0.00199849
-7.87161e-05
-0.00208267
-9.44902e-05
-0.00217495
-0.000106902
-0.00227739
-0.000113763
-0.00239088
-0.000111184
-0.00251417
-9.3414e-05
-0.00264285
-5.26743e-05
-0.002769
2.09154e-05
-0.00288044
0.000134941
-0.00297336
0.000307138
-0.00305698
0.000563358
-0.00313805
0.000917644
-0.00321375
0.00135938
-0.00324006
0.00181895
-0.00316563
0.00213657
-0.0028171
0.00187355
-0.00155077
-0.000155225
-0.00369948
-0.000575155
0.00425467
0.000358429
0.00115
0.000161047
0.000389873
-4.20908e-05
0.000172534
-0.000228951
9.33257e-05
-0.000511377
6.07388e-05
-0.000876089
7.11492e-05
-0.00126097
0.00010804
-0.00160563
0.00015309
-0.00186243
0.000193026
-0.00201274
0.000219889
-0.00208419
0.000224467
-0.00211988
0.000200071
-0.00213393
0.000164908
-0.00214681
0.000126789
-0.00217005
9.11153e-05
-0.00220442
6.11552e-05
-0.00224851
3.72165e-05
-0.00230326
1.91964e-05
-0.00236685
3.82976e-06
-0.00243691
-8.64486e-06
-0.00251246
-1.89326e-05
-0.00259209
-2.72649e-05
-0.00267306
-3.27776e-05
-0.0027507
-3.35405e-05
-0.00281763
-2.64729e-05
-0.00286272
-7.57568e-06
-0.00287354
3.17344e-05
-0.00284068
0.000102095
-0.00274288
0.000209347
-0.00254836
0.00036884
-0.00223025
0.000599548
-0.00177043
0.000899572
-0.00114299
0.00119152
-0.00017534
0.00116893
0.00114057
0.000557647
0.00158707
-0.000601717
-0.00203236
-0.00727537
-0.0101434
-0.00584582
-0.00467481
-0.00427236
-0.00409155
-0.00399281
-0.0039288
-0.00385606
-0.00374783
-0.00359579
-0.00340492
-0.00318827
-0.00296806
-0.00277317
-0.00261421
-0.00249393
-0.00240974
-0.00235581
-0.00232602
-0.00231439
-0.00231821
-0.00233454
-0.00236116
-0.00239606
-0.0024364
-0.0024774
-0.00251118
-0.00252591
-0.00250111
-0.00240574
-0.00220288
-0.0018403
-0.00124679
-0.000353055
0.000832789
0.001996
0.00254772
0.00193973
)
;

boundaryField
{
    floor
    {
        type            calculated;
        value           nonuniform List<scalar> 
29
(
0
0
0
0
0
0
0
0
0
0
0
0
0
0
0
0
0
0
0
0
-3.71155e-06
-9.46999e-06
-1.43964e-05
-1.88645e-05
-1.41143e-06
-2.73519e-06
-7.67285e-06
-7.90272e-06
-7.33318e-06
)
;
    }
    ceiling
    {
        type            calculated;
        value           nonuniform List<scalar> 
43
(
-4.55088e-05
-4.41844e-05
-4.28665e-05
-2.10003e-05
-1.25628e-05
-8.26823e-06
-5.39876e-06
-3.26546e-06
-1.57981e-06
-1.7688e-07
1.04912e-06
2.17239e-06
3.24086e-06
4.26669e-06
5.19331e-06
5.95003e-06
6.52144e-06
6.93527e-06
7.22952e-06
7.43558e-06
7.5748e-06
7.66001e-06
7.69377e-06
7.68775e-06
7.64651e-06
7.57123e-06
7.46319e-06
7.32371e-06
7.15348e-06
6.95105e-06
6.72881e-06
6.49882e-06
6.26752e-06
6.04369e-06
5.84382e-06
5.68478e-06
5.72735e-06
5.93568e-06
6.27666e-06
7.43959e-06
1.13256e-05
8.22006e-06
-6.16907e-05
)
;
    }
    sWall
    {
        type            calculated;
        value           uniform -0.000274372;
    }
    nWall
    {
        type            calculated;
        value           nonuniform List<scalar> 6(-4.75984e-05 -5.70932e-05 -6.22107e-05 -7.30246e-05 -8.004e-05 -0.000100058);
    }
    sideWalls
    {
        type            empty;
        value           nonuniform 0();
    }
    glass1
    {
        type            calculated;
        value           nonuniform List<scalar> 9(-5.65059e-05 -0.000152014 -0.000232228 -0.000300288 -0.000357906 -0.000406413 -0.000450136 -0.000503385 -0.00056309);
    }
    glass2
    {
        type            calculated;
        value           nonuniform List<scalar> 2(-0.000251696 -0.000278652);
    }
    sun
    {
        type            calculated;
        value           uniform 0;
    }
    heatsource1
    {
        type            calculated;
        value           nonuniform List<scalar> 3(2.03995e-07 2.03951e-07 2.03967e-07);
    }
    heatsource2
    {
        type            calculated;
        value           nonuniform List<scalar> 4(5.10585e-08 5.1195e-08 0 0);
    }
    Table_master
    {
        type            calculated;
        value           nonuniform List<scalar> 9(-1.52995e-07 -1.53064e-07 -1.53089e-07 -1.53107e-07 -1.53119e-07 -1.53128e-07 -1.5313e-07 -1.53124e-07 -1.53092e-07);
    }
    Table_slave
    {
        type            calculated;
        value           nonuniform List<scalar> 9(1.5288e-07 1.52898e-07 1.52879e-07 1.52863e-07 1.52857e-07 1.52862e-07 1.52876e-07 1.52918e-07 1.52998e-07);
    }
    inlet
    {
        type            calculated;
        value           uniform -0.00614619;
    }
    outlet
    {
        type            calculated;
        value           nonuniform List<scalar> 2(0.00759525 0.00291216);
    }
}


// ************************************************************************* //
