/*--------------------------------*- C++ -*----------------------------------*\
  =========                 |
  \\      /  F ield         | OpenFOAM: The Open Source CFD Toolbox
   \\    /   O peration     | Website:  https://openfoam.org
    \\  /    A nd           | Version:  6
     \\/     M anipulation  |
\*---------------------------------------------------------------------------*/
FoamFile
{
    version     2.0;
    format      ascii;
    class       surfaceScalarField;
    location    "700";
    object      phi;
}
// * * * * * * * * * * * * * * * * * * * * * * * * * * * * * * * * * * * * * //

dimensions      [1 0 -1 0 0 0 0];

internalField   nonuniform List<scalar> 
852
(
-0.00318418
0.00324864
-0.00434462
0.00116044
-0.00523826
0.000893639
-0.0059051
0.000666845
-0.0062959
0.000390795
-0.00636156
6.56625e-05
-0.00604577
-0.00031579
-0.005308
-0.000737774
-0.00417852
-0.00112947
-0.0027762
-0.00140232
-0.00128555
-0.00149065
5.6711e-05
-0.00134226
0.000793602
-0.000736891
0.000839745
-4.6143e-05
0.000842991
-0.00105758
0.00106226
-0.000842386
-0.000215195
-0.000183739
-0.000658647
0.000463438
-0.000647177
0.00095578
-0.000492343
0.00129561
-0.000339834
0.00148267
-0.000187052
0.00156568
-8.30183e-05
0.00160769
-4.20055e-05
0.00163172
-2.40286e-05
0.00164354
-1.18178e-05
0.00164577
-2.23159e-06
0.00163782
7.94148e-06
0.00161193
2.58969e-05
0.00154573
6.62018e-05
0.00140172
0.000144006
0.00117012
0.0002316
0.000886482
0.000283636
0.000892661
-0.00230967
0.00573245
-0.00347007
0.00232083
-0.00442356
0.00184713
-0.00511748
0.00136076
-0.005538
0.000811313
-0.00564558
0.000173249
-0.00538886
-0.000572517
-0.00473804
-0.00138859
-0.00374847
-0.00211905
-0.00256483
-0.00258596
-0.00137624
-0.00267923
-0.000380565
-0.00233794
0.000365055
-0.00148251
0.00081943
-0.000500518
0.00134919
0.000313232
0.000771684
0.000577454
0.000771632
-3.64916e-05
0.00111278
0.000366644
-0.000618331
0.000782308
-0.00107431
0.00110856
-0.000973431
0.00137642
-0.000760198
0.00156601
-0.000529429
0.00160506
-0.000226097
0.00161253
-9.04894e-05
0.00162127
-5.07534e-05
0.00162853
-3.12852e-05
0.00163302
-1.63104e-05
0.00163519
-4.40122e-06
0.00163462
8.50905e-06
0.00162797
3.25458e-05
0.00158554
0.000108634
0.00140346
0.000326086
0.00109426
0.000540798
0.000722345
0.000655552
0.00163062
-0.00164154
0.00764099
-0.00266106
0.00334036
-0.00355249
0.00273857
-0.00419583
0.0020041
-0.00461177
0.00122725
-0.00475611
0.000317596
-0.00455208
-0.000776554
-0.00396168
-0.00197898
-0.00308161
-0.00299912
-0.00207755
-0.00359002
-0.00111242
-0.00364436
-0.000308598
-0.00314176
0.000335119
-0.00212623
0.000853067
-0.00101847
0.00120803
-4.1735e-05
0.00106784
0.000717646
0.00183947
0.00164773
-0.000516839
0.00185782
-0.000828414
0.0017436
-0.000960092
0.00171986
-0.000949698
0.0017713
-0.000811639
0.00189321
-0.000651334
0.00166727
0.00157693
0.00152633
0.0014952
0.00147904
0.0014748
0.00148346
0.00151616
0.00162495
0.0013245
0.00062653
0.000972565
0.000892738
0.000574266
0.00105385
0.00222822
-0.0011505
0.00913801
-0.00196756
0.00415742
-0.0026248
0.0033958
-0.00311433
0.00249362
-0.00346157
0.00157449
-0.00360889
0.000464916
-0.00343037
-0.000955072
-0.0028762
-0.00253316
-0.00211878
-0.00375653
-0.0013213
-0.0043875
-0.000594912
-0.00437075
3.85916e-08
-0.00373672
0.000516864
-0.00264305
0.000969189
-0.00147079
0.00136463
-0.000437173
0.00175176
0.000330511
0.0028197
0.000771536
0.00263058
0.000204566
0.00235554
-0.000241799
0.00219391
-0.000666792
0.0020296
-0.000795778
0.00187999
-0.000800088
0.00177653
-0.000708182
0.00165656
-0.000531364
0.00190079
-0.000244379
0.00204237
-0.000141742
0.0021483
-0.000106083
0.00222435
-7.61974e-05
0.00225364
-2.94462e-05
0.0022124
4.10823e-05
0.00207491
0.000137332
0.00180736
0.000267395
0.00135041
0.000456798
0.00114477
0.000832173
0.000770524
0.00126698
0.000227766
0.00159661
0.00248636
-0.00078461
0.010337
-0.00139774
0.00477055
-0.00165218
0.00365024
-0.00188606
0.0027275
-0.00207703
0.00176547
-0.00215701
0.0005449
-0.00193713
-0.00117496
-0.00141781
-0.00305248
-0.000842556
-0.00433178
-0.000318272
-0.00491179
0.000109441
-0.00479847
0.000438752
-0.00406603
0.000740228
-0.00294453
0.00101988
-0.00175044
0.00131479
-0.000732078
0.00166604
-2.07425e-05
0.00209789
0.000339685
0.00214084
0.000161622
0.0020983
-0.000199261
0.00191022
-0.000478716
0.00171506
-0.00060062
0.0015367
-0.000621721
0.00139826
-0.000569743
0.00132322
-0.000456327
0.00138906
-0.000310219
0.00147324
-0.000225923
0.00155615
-0.000188993
0.00163364
-0.000153693
0.00169212
-8.79261e-05
0.00170699
2.62108e-05
0.00165575
0.000188572
0.00152893
0.000394212
0.0013327
0.000653035
0.00114408
0.00102079
0.000927741
0.00148332
0.000442317
0.00208203
0.000278382
0.0026503
-0.00119313
0.0014713
-0.00166037
0.000467034
-0.00160082
-0.000646244
0.0114551
-0.00103943
0.00516374
-0.000704419
0.00331523
-0.000587046
0.00261013
-0.000565456
0.00174388
-0.000439914
0.000419357
-5.37789e-05
-0.00156109
0.000363959
-0.00347022
0.000678269
-0.00464609
0.000858217
-0.00509173
0.000922246
-0.0048625
0.000925884
-0.00406967
0.000918214
-0.00293686
0.00092538
-0.00175761
0.000983137
-0.000789836
0.00113194
-0.000169549
0.00134741
0.000124217
0.00143849
7.05386e-05
0.00137714
-0.00013791
0.00122186
-0.000323434
0.00105191
-0.000430672
0.000898058
-0.000467867
0.000780746
-0.000452431
0.000723389
-0.00039897
0.000745219
-0.00033205
0.000813231
-0.000293935
0.000902576
-0.000278338
0.00100302
-0.000254141
0.00110573
-0.000190636
0.00119212
-6.01831e-05
0.00124038
0.000140321
0.00125237
0.000382217
0.00123916
0.000666239
0.00124739
0.00101256
0.00133212
0.00139859
0.00150033
0.00191382
0.00202629
0.00212434
0.00233178
0.00116582
0.00195182
0.000846994
0.000421945
-0.000772182
0.0127492
-0.00060432
0.00499588
0.000488729
0.00222218
0.000886051
0.0022128
0.00112897
0.00150096
0.00161018
-6.18496e-05
0.00214471
-0.00209563
0.00236616
-0.00369166
0.00234137
-0.00462131
0.00210985
-0.00486021
0.00174442
-0.00449706
0.00132979
-0.00365504
0.000937733
-0.00254481
0.000624391
-0.00144427
0.000440184
-0.00060563
0.000418275
-0.00014764
0.000498382
4.41094e-05
0.000543374
2.5546e-05
0.000499199
-9.37354e-05
0.00039397
-0.000218205
0.00026704
-0.000303743
0.000146538
-0.000347366
5.3878e-05
-0.000359772
8.38382e-06
-0.000353477
2.00127e-05
-0.00034368
7.33701e-05
-0.000347293
0.000151693
-0.000356662
0.000250023
-0.000352472
0.000372033
-0.000312646
0.000522012
-0.000210163
0.000675687
-1.3355e-05
0.000821574
0.000236329
0.000978504
0.000509309
0.00118565
0.000805411
0.00149645
0.00108779
0.00199938
0.00141088
0.0027878
0.00133592
0.00342771
0.000525907
0.00350496
0.000769748
0.00400124
0.00292275
0.0104082
0.00362045
0.00429818
0.00344746
0.00239516
0.003489
0.00217126
0.00388992
0.00110003
0.00450296
-0.000674892
0.00474273
-0.00233539
0.00455329
-0.00350222
0.00400878
-0.0040768
0.00321857
-0.00407
0.00231555
-0.00359404
0.0014145
-0.00275399
0.000620729
-0.00175103
2.30692e-05
-0.000846609
-0.000289954
-0.000292607
-0.000384045
-5.35487e-05
-0.000370758
3.08214e-05
-0.000355546
1.03341e-05
-0.000385201
-6.40812e-05
-0.000457153
-0.000146253
-0.000549787
-0.000211109
-0.000641577
-0.000255576
-0.000716112
-0.000285238
-0.000762326
-0.000307263
-0.00077731
-0.000328697
-0.000770703
-0.000353901
-0.000750673
-0.000376693
-0.000717075
-0.00038607
-0.000659536
-0.000370186
-0.000554592
-0.000315107
-0.000366874
-0.000201074
-0.0001345
3.95375e-06
0.000119088
0.00025572
0.000420642
0.000503856
0.000765721
0.000742712
0.00120634
0.000970267
0.00162988
0.000912373
0.00165929
0.000496497
0.000764747
0.00166429
0.00509528
0.0110548
0.0153534
0.0126266
0.00512194
0.0111673
0.00363057
0.0101838
0.00208354
0.00916959
0.000339304
0.00792872
-0.00109453
0.00654953
-0.00212303
0.00510151
-0.00262877
0.00359547
-0.00256396
0.00213724
-0.00213582
0.000802697
-0.00141945
-0.000234608
-0.00071373
-0.000846356
-0.000234861
-0.00109854
-4.0421e-05
-0.00118221
3.01136e-05
-0.00119203
4.06449e-05
-0.001194
1.22987e-05
-0.00121932
-3.87568e-05
-0.00127222
-9.33558e-05
-0.00134223
-0.000141099
-0.00141802
-0.000179792
-0.00149231
-0.000210948
-0.00156281
-0.000236762
-0.00163255
-0.000258957
-0.00170965
-0.000276798
-0.00180223
-0.000284116
-0.00191797
-0.000270333
-0.00206592
-0.000222238
-0.00225743
-0.000123597
-0.0025032
4.46971e-05
-0.00278754
0.000288295
-0.00315954
0.000627719
-0.00373751
0.00108182
-0.00462789
0.00163309
-0.00587212
0.0022145
-0.00756874
0.00260899
-0.00953986
0.00246762
-0.00878444
0.000908872
-0.00332288
0.00922743
0.00743966
0.00737758
0.00548042
0.00684403
0.00261709
0.00637734
0.000806002
0.00559007
-0.000307248
0.00453546
-0.00106842
0.00329628
-0.00138959
0.00183096
-0.00109864
0.000371929
-0.000676791
-0.00078841
-0.000259108
-0.00147262
-2.95235e-05
-0.00177035
6.28725e-05
-0.00188495
7.41743e-05
-0.00191737
6.25348e-05
-0.0019209
4.4171e-05
-0.00192507
1.64742e-05
-0.00194121
-2.26217e-05
-0.00197266
-6.19022e-05
-0.00201792
-9.58391e-05
-0.00207502
-0.000122697
-0.00214443
-0.000141535
-0.00222912
-0.000152082
-0.0023333
-0.000154773
-0.00246054
-0.000149555
-0.00261033
-0.000134335
-0.00277626
-0.000104403
-0.00294474
-5.3752e-05
-0.00309054
2.22005e-05
-0.00320479
0.000158943
-0.00329714
0.000380646
-0.00338245
0.00071303
-0.00347862
0.00117799
-0.00359695
0.00175142
-0.00366825
0.00228579
-0.00356054
0.00250129
-0.00304686
0.00195394
-0.00165501
-0.000482984
-0.00488477
-0.000642557
0.00814625
0.00109116
0.0037467
0.00166694
0.00204132
0.00174655
0.000726388
0.00146937
-3.00663e-05
0.000804873
-0.00040392
-0.000184868
-0.000399848
-0.00121718
-6.63262e-05
-0.00196766
7.36839e-05
-0.00235736
0.000130595
-0.00251137
0.000124484
-0.00253827
8.97658e-05
-0.00252506
6.09661e-05
-0.00250126
3.87307e-05
-0.00247677
1.96875e-05
-0.00246106
7.6055e-07
-0.00245772
-2.59612e-05
-0.00246527
-5.43587e-05
-0.00248455
-7.65597e-05
-0.0025143
-9.29445e-05
-0.00255282
-0.000103017
-0.00259873
-0.000106174
-0.00265118
-0.000102324
-0.00270941
-9.13256e-05
-0.0027715
-7.22453e-05
-0.00283309
-4.28096e-05
-0.00288817
1.32486e-06
-0.0029215
5.55283e-05
-0.00289898
0.000136422
-0.00278933
0.000271
-0.00255269
0.000476386
-0.00215915
0.000784444
-0.00162598
0.00121826
-0.000945376
0.00160518
0.00012213
0.00143378
0.0014051
0.000670971
0.00160956
-0.000687446
-0.0031729
-0.0134667
-0.017298
-0.00909853
-0.00531442
-0.00324058
-0.00248528
-0.00248968
-0.00287022
-0.00324813
-0.00329348
-0.00319933
-0.00304844
-0.00290357
-0.00279323
-0.00271152
-0.00265186
-0.00261101
-0.00258884
-0.00259314
-0.0026256
-0.00268002
-0.00275064
-0.00283119
-0.00291478
-0.0029945
-0.00306325
-0.00311306
-0.00313367
-0.00311052
-0.00303366
-0.00287651
-0.00258547
-0.0020898
-0.00128691
-5.106e-05
0.00157044
0.00302007
0.00370703
0.00303635
)
;

boundaryField
{
    floor
    {
        type            calculated;
        value           nonuniform List<scalar> 
29
(
0
0
0
0
0
0
0
0
0
0
0
0
0
0
0
0
0
0
0
0
-6.17953e-06
-1.56108e-05
-2.33388e-05
-3.03782e-05
-3.24564e-06
-4.67895e-06
-1.40301e-05
-1.81126e-05
-1.54424e-05
)
;
    }
    ceiling
    {
        type            calculated;
        value           nonuniform List<scalar> 
43
(
-5.49307e-05
-5.40325e-05
-5.31868e-05
-3.74045e-05
-3.25194e-05
-2.89161e-05
-2.56682e-05
-2.33794e-05
-2.19428e-05
-2.09828e-05
-2.04627e-05
-2.02986e-05
-2.03886e-05
-2.0569e-05
-2.07476e-05
-2.09337e-05
-2.11548e-05
-2.14119e-05
-2.16612e-05
-2.19083e-05
-2.21335e-05
-2.23252e-05
-2.24756e-05
-2.25754e-05
-2.26125e-05
-2.25717e-05
-2.24378e-05
-2.21965e-05
-2.18336e-05
-2.13295e-05
-2.07302e-05
-2.00409e-05
-1.92784e-05
-1.84552e-05
-1.75878e-05
-1.63185e-05
-1.5848e-05
-1.59928e-05
-1.67706e-05
-1.71368e-05
1.70328e-06
-4.11179e-07
-6.40319e-05
)
;
    }
    sWall
    {
        type            calculated;
        value           uniform -0.000251167;
    }
    nWall
    {
        type            calculated;
        value           nonuniform List<scalar> 6(-5.97513e-05 -7.09507e-05 -7.43348e-05 -9.31224e-05 -0.000102307 -0.000119414);
    }
    sideWalls
    {
        type            empty;
        value           nonuniform 0();
    }
    glass1
    {
        type            calculated;
        value           nonuniform List<scalar> 9(-6.44614e-05 -0.000174138 -0.000267008 -0.000346511 -0.000414403 -0.000471797 -0.000521959 -0.000581745 -0.000648294);
    }
    glass2
    {
        type            calculated;
        value           nonuniform List<scalar> 2(-0.000329295 -0.000366282);
    }
    sun
    {
        type            calculated;
        value           uniform 0;
    }
    heatsource1
    {
        type            calculated;
        value           nonuniform List<scalar> 3(2.05985e-07 2.05822e-07 2.05843e-07);
    }
    heatsource2
    {
        type            calculated;
        value           nonuniform List<scalar> 4(5.16188e-08 5.17301e-08 0 0);
    }
    Table_master
    {
        type            calculated;
        value           nonuniform List<scalar> 9(-1.54505e-07 -1.54634e-07 -1.54677e-07 -1.54703e-07 -1.54722e-07 -1.54733e-07 -1.54737e-07 -1.5473e-07 -1.54696e-07);
    }
    Table_slave
    {
        type            calculated;
        value           nonuniform List<scalar> 9(1.54347e-07 1.54349e-07 1.54309e-07 1.54278e-07 1.54266e-07 1.54268e-07 1.54286e-07 1.5434e-07 1.54441e-07);
    }
    inlet
    {
        type            calculated;
        value           uniform -0.0115451;
    }
    outlet
    {
        type            calculated;
        value           nonuniform List<scalar> 2(0.0137728 0.00388528);
    }
}


// ************************************************************************* //
