/*--------------------------------*- C++ -*----------------------------------*\
  =========                 |
  \\      /  F ield         | OpenFOAM: The Open Source CFD Toolbox
   \\    /   O peration     | Website:  https://openfoam.org
    \\  /    A nd           | Version:  6
     \\/     M anipulation  |
\*---------------------------------------------------------------------------*/
FoamFile
{
    version     2.0;
    format      ascii;
    class       volVectorField;
    location    "1200";
    object      U;
}
// * * * * * * * * * * * * * * * * * * * * * * * * * * * * * * * * * * * * * //

dimensions      [0 1 -1 0 0 0 0];

internalField   nonuniform List<vector> 
459
(
(0.04067 0.0837231 0)
(-0.162584 0.0233318 0)
(-0.183376 0.017331 0)
(-0.21334 0.0128507 0)
(-0.236577 0.00777637 0)
(-0.252428 0.00240955 0)
(-0.259798 -0.00335684 0)
(-0.257156 -0.00961183 0)
(-0.24399 -0.0163504 0)
(-0.220698 -0.0228584 0)
(-0.188927 -0.0282731 0)
(-0.151123 -0.0321824 0)
(-0.110054 -0.035176 0)
(-0.0715207 -0.0393169 0)
(-0.0535065 -0.0459796 0)
(0.00853672 0.00613763 0)
(-0.0161321 -0.0190004 0)
(0.00966275 -0.0250625 0)
(0.0275505 -0.0175017 0)
(0.0418608 -0.011249 0)
(0.0512554 -0.00697888 0)
(0.0561127 -0.00423425 0)
(0.0581663 -0.00282092 0)
(0.0589305 -0.0021695 0)
(0.0592324 -0.00183436 0)
(0.059319 -0.00162342 0)
(0.0592118 -0.00144626 0)
(0.0588446 -0.00122144 0)
(0.0580173 -0.000790179 0)
(0.056192 0.000217794 0)
(0.0522438 0.00231008 0)
(0.0449734 0.00432462 0)
(0.0399407 0.00516073 0)
(-0.0189812 0.0193027 0)
(0.21848 0.171919 0)
(-0.154694 0.0618418 0)
(-0.148083 0.050132 0)
(-0.179196 0.0408437 0)
(-0.201948 0.0303495 0)
(-0.21769 0.0187693 0)
(-0.225471 0.00564297 0)
(-0.223606 -0.00926752 0)
(-0.211621 -0.0250318 0)
(-0.190364 -0.0394255 0)
(-0.16193 -0.050198 0)
(-0.12934 -0.056099 0)
(-0.0960786 -0.0573562 0)
(-0.0669385 -0.0556227 0)
(-0.048256 -0.050493 0)
(-0.032273 -0.0289111 0)
(-0.0104992 -0.000680067 0)
(0.0801204 0.0224661 0)
(0.0389192 -0.0182984 0)
(0.0416251 -0.0267563 0)
(0.0513615 -0.0213454 0)
(0.058625 -0.0136389 0)
(0.0627492 -0.00707098 0)
(0.0640694 -0.00235983 0)
(0.0639996 0.000135697 0)
(0.0637936 0.00124761 0)
(0.0637903 0.00180107 0)
(0.0638662 0.00216177 0)
(0.0638988 0.00246212 0)
(0.0638647 0.00287216 0)
(0.0637149 0.00372008 0)
(0.0629158 0.00587478 0)
(0.0590774 0.011958 0)
(0.0493934 0.0166112 0)
(0.0463386 0.0184754 0)
(-0.0553806 0.0423483 0)
(0.380566 0.257549 0)
(-0.175219 0.0996814 0)
(-0.111399 0.0814963 0)
(-0.142007 0.0642085 0)
(-0.161849 0.0467768 0)
(-0.176173 0.0280105 0)
(-0.18373 0.00672567 0)
(-0.181797 -0.0173852 0)
(-0.169716 -0.0425343 0)
(-0.149177 -0.0647269 0)
(-0.122934 -0.0803548 0)
(-0.0941856 -0.0877837 0)
(-0.0660746 -0.0872395 0)
(-0.0415645 -0.0800951 0)
(-0.0228223 -0.0659933 0)
(-0.0079694 -0.0422243 0)
(0.00911409 -0.0106981 0)
(0.104151 -0.0529088 0)
(0.065479 -0.0463315 0)
(0.0617627 -0.0372123 0)
(0.0651519 -0.027445 0)
(0.0673444 -0.0181055 0)
(0.0681467 -0.0105412 0)
(0.0666726 -0.00880704 0)
(0.0640316 -0.00658347 0)
(0.0624509 -0.00541926 0)
(0.0619373 -0.00477896 0)
(0.0618982 -0.0043889 0)
(0.0620667 -0.00409425 0)
(0.0625015 -0.00375307 0)
(0.063652 -0.0030597 0)
(0.0666757 -0.000131873 0)
(0.0646486 0.016849 0)
(0.050939 0.0282521 0)
(0.054227 0.0346134 0)
(-0.0864429 0.0667582 0)
(0.524896 0.326601 0)
(-0.212684 0.134093 0)
(-0.0724864 0.108063 0)
(-0.10245 0.0837793 0)
(-0.116491 0.0616444 0)
(-0.127142 0.0377321 0)
(-0.132953 0.00940418 0)
(-0.129001 -0.0241058 0)
(-0.115422 -0.0589175 0)
(-0.0954882 -0.0881689 0)
(-0.0725115 -0.107324 0)
(-0.0491949 -0.115128 0)
(-0.0278107 -0.1124 0)
(-0.00950764 -0.101242 0)
(0.00622506 -0.0818236 0)
(0.0207928 -0.0572344 0)
(0.0420202 -0.0320544 0)
(0.0723979 -0.00591898 0)
(0.082773 -0.03781 0)
(0.0700806 -0.0391533 0)
(0.063894 -0.0319288 0)
(0.0626296 -0.0245968 0)
(0.0625484 -0.0172035 0)
(0.063762 -0.00897895 0)
(0.0673315 -0.0058234 0)
(0.0725136 -0.00534077 0)
(0.0772276 -0.0050443 0)
(0.0811981 -0.00464144 0)
(0.0842349 -0.00386779 0)
(0.0856554 -0.00252535 0)
(0.0840015 -0.000403161 0)
(0.0780509 0.00272679 0)
(0.0652506 0.00736894 0)
(0.053364 0.0274867 0)
(0.0410897 0.0438264 0)
(0.0582437 0.0556825 0)
(-0.121652 0.0889006 0)
(0.647723 0.380565 0)
(-0.255906 0.163214 0)
(-0.033898 0.123275 0)
(-0.0610827 0.0949755 0)
(-0.0670963 0.070356 0)
(-0.0715774 0.0434989 0)
(-0.0733293 0.00992667 0)
(-0.0629436 -0.0324076 0)
(-0.046951 -0.0754648 0)
(-0.029076 -0.10885 0)
(-0.0119472 -0.128584 0)
(0.00322131 -0.134594 0)
(0.0151892 -0.128656 0)
(0.0243821 -0.114404 0)
(0.0318638 -0.0941972 0)
(0.0394051 -0.0710544 0)
(0.0494288 -0.0496694 0)
(0.0604231 -0.0383934 0)
(0.0637223 -0.0412489 0)
(0.0587089 -0.0369949 0)
(0.0525594 -0.0296616 0)
(0.0488687 -0.02295 0)
(0.0471744 -0.0170343 0)
(0.047525 -0.0116624 0)
(0.0499573 -0.00796464 0)
(0.0540028 -0.00647793 0)
(0.0581934 -0.00589784 0)
(0.0622581 -0.00507806 0)
(0.0659354 -0.00321004 0)
(0.0686269 0.00030955 0)
(0.0692683 0.00547761 0)
(0.066951 0.012252 0)
(0.0612008 0.0211775 0)
(0.0538627 0.0369235 0)
(0.0429886 0.0553406 0)
(0.0659585 0.0752225 0)
(-0.0248877 0.102118 0)
(0.0444988 0.0281083 0)
(-0.064547 -0.0357972 0)
(-0.27418 -0.0585121 0)
(0.734777 0.426154 0)
(-0.296214 0.183791 0)
(-0.00494253 0.119503 0)
(-0.0182835 0.0962892 0)
(-0.0144479 0.0732262 0)
(-0.0109835 0.0455761 0)
(-0.004716 0.00658394 0)
(0.018077 -0.0467697 0)
(0.0343764 -0.0923258 0)
(0.0467548 -0.123914 0)
(0.054736 -0.140218 0)
(0.0584534 -0.142689 0)
(0.0587513 -0.134111 0)
(0.0567914 -0.117833 0)
(0.0537978 -0.0969099 0)
(0.0511937 -0.074547 0)
(0.050072 -0.0542725 0)
(0.0496054 -0.0404693 0)
(0.0463677 -0.0345448 0)
(0.0397752 -0.0297503 0)
(0.0329348 -0.0243134 0)
(0.0282894 -0.0195129 0)
(0.0260292 -0.0156465 0)
(0.0260747 -0.0125024 0)
(0.0281068 -0.0105805 0)
(0.0314893 -0.0102385 0)
(0.035425 -0.0103327 0)
(0.0396555 -0.00977222 0)
(0.044018 -0.00765768 0)
(0.0481899 -0.00312411 0)
(0.0518917 0.00416124 0)
(0.0535124 0.0135094 0)
(0.0534653 0.0248323 0)
(0.0534259 0.0397631 0)
(0.0514534 0.0578664 0)
(0.0744745 0.080754 0)
(0.0519977 0.0973103 0)
(0.0932408 0.0673004 0)
(0.116909 0.0442239 0)
(-0.132166 -0.00899811 0)
(0.781659 0.467757 0)
(-0.315363 0.17081 0)
(0.0197641 0.0704907 0)
(0.0385843 0.0757329 0)
(0.0509485 0.0658733 0)
(0.0626441 0.0360817 0)
(0.0883598 -0.0120258 0)
(0.110826 -0.0639532 0)
(0.12332 -0.104543 0)
(0.12658 -0.129953 0)
(0.122233 -0.140492 0)
(0.112116 -0.138403 0)
(0.0983476 -0.126807 0)
(0.0829602 -0.10899 0)
(0.0676401 -0.0880159 0)
(0.0537653 -0.0667909 0)
(0.0421043 -0.0479313 0)
(0.0325903 -0.0342757 0)
(0.0236813 -0.0265494 0)
(0.0151943 -0.0220021 0)
(0.00823197 -0.0185083 0)
(0.0036989 -0.0159659 0)
(0.00146292 -0.0143124 0)
(0.00122959 -0.013315 0)
(0.00259456 -0.0131223 0)
(0.00496601 -0.0137241 0)
(0.00785451 -0.014375 0)
(0.0111645 -0.0142813 0)
(0.0150106 -0.0126167 0)
(0.0195549 -0.00833895 0)
(0.0256824 -0.000368588 0)
(0.0322078 0.0102748 0)
(0.0377286 0.0220607 0)
(0.0445947 0.035501 0)
(0.051965 0.0504244 0)
(0.0745174 0.0689625 0)
(0.0872078 0.0756686 0)
(0.119741 0.0519346 0)
(0.159737 0.0433899 0)
(-0.0347841 0.0938364 0)
(0.884944 0.472608 0)
(-0.0776369 0.15116 0)
(0.102541 -0.00439937 0)
(0.164621 -0.00881436 0)
(0.171463 -0.00479482 0)
(0.178986 -0.0297595 0)
(0.207188 -0.0621679 0)
(0.22169 -0.0911344 0)
(0.219885 -0.112501 0)
(0.205239 -0.124123 0)
(0.181852 -0.125608 0)
(0.153353 -0.118282 0)
(0.122944 -0.104499 0)
(0.0931383 -0.0866994 0)
(0.0656691 -0.0672765 0)
(0.0417376 -0.0486091 0)
(0.0218308 -0.0325879 0)
(0.00670949 -0.0216535 0)
(-0.00504613 -0.0160935 0)
(-0.0131055 -0.0140665 0)
(-0.018894 -0.0131657 0)
(-0.0227335 -0.0129 0)
(-0.0250451 -0.0131067 0)
(-0.0261668 -0.0136617 0)
(-0.0264322 -0.0145671 0)
(-0.0262291 -0.0157257 0)
(-0.0258256 -0.0167899 0)
(-0.0252333 -0.0173248 0)
(-0.0242392 -0.0168342 0)
(-0.0224088 -0.0147235 0)
(-0.0187029 -0.0102726 0)
(-0.00921932 -0.0026923 0)
(0.000495644 0.00706418 0)
(0.0114069 0.0161536 0)
(0.0233015 0.0234367 0)
(0.0437112 0.0307728 0)
(0.0622524 0.0229778 0)
(0.0813766 -0.00564895 0)
(0.140544 0.0402005 0)
(-0.419124 0.208628 0)
(1.02842 0.427636 0)
(0.491425 0.283173 0)
(0.502644 0.19546 0)
(0.512118 0.136678 0)
(0.475927 0.0952006 0)
(0.439962 0.0524538 0)
(0.402995 0.00661331 0)
(0.359295 -0.0338494 0)
(0.310364 -0.0629823 0)
(0.25873 -0.0789232 0)
(0.207189 -0.0827974 0)
(0.157839 -0.0775754 0)
(0.112437 -0.0666034 0)
(0.0720583 -0.0523981 0)
(0.0373245 -0.0371076 0)
(0.00873146 -0.022974 0)
(-0.0139338 -0.0122179 0)
(-0.0269203 -0.00809608 0)
(-0.0355079 -0.00731828 0)
(-0.0415591 -0.00792059 0)
(-0.0462644 -0.00883541 0)
(-0.0500401 -0.00986705 0)
(-0.0531898 -0.0109756 0)
(-0.0559681 -0.0121413 0)
(-0.0586418 -0.0133547 0)
(-0.0615098 -0.0145145 0)
(-0.0648474 -0.0153638 0)
(-0.0688955 -0.0155094 0)
(-0.0739359 -0.0144092 0)
(-0.0803846 -0.0113575 0)
(-0.0887601 -0.00555005 0)
(-0.0993821 0.00364591 0)
(-0.109654 0.0154301 0)
(-0.124732 0.0298153 0)
(-0.149076 0.0468079 0)
(-0.185164 0.0652 0)
(-0.236444 0.0808147 0)
(-0.294526 0.0911049 0)
(-0.363298 0.0962166 0)
(-0.625588 0.0969565 0)
(-0.195533 0.0303003 0)
(0.143514 0.0613294 0)
(0.237335 0.0390604 0)
(0.231143 0.0116325 0)
(0.215483 -0.0117965 0)
(0.199809 -0.027923 0)
(0.174488 -0.037294 0)
(0.142156 -0.0407165 0)
(0.106159 -0.0388584 0)
(0.0693717 -0.0331077 0)
(0.0343748 -0.0247119 0)
(0.00163262 -0.0140041 0)
(-0.0260713 -0.00397916 0)
(-0.0437961 0.00112898 0)
(-0.0543553 0.00244899 0)
(-0.0602676 0.00152402 0)
(-0.0646228 2.10849e-05 0)
(-0.0685509 -0.00165471 0)
(-0.0723241 -0.00319702 0)
(-0.0761056 -0.00455826 0)
(-0.0800091 -0.00574672 0)
(-0.0841495 -0.00675265 0)
(-0.0886531 -0.00752773 0)
(-0.0936377 -0.00794216 0)
(-0.0991666 -0.00775985 0)
(-0.105207 -0.00665229 0)
(-0.111612 -0.00422823 0)
(-0.118091 -7.79101e-05 0)
(-0.124074 0.00618305 0)
(-0.128389 0.0150887 0)
(-0.131752 0.027807 0)
(-0.134534 0.0446192 0)
(-0.137719 0.0644775 0)
(-0.141911 0.0835307 0)
(-0.143909 0.0916575 0)
(-0.126206 0.0679495 0)
(-0.0800827 -0.0274291 0)
(-0.281627 -0.206933 0)
(-0.0387411 0.216366 0)
(0.0574824 0.105996 0)
(0.0334627 0.0380007 0)
(0.0341939 0.0214084 0)
(0.0356798 0.0115036 0)
(0.0322563 0.00108325 0)
(0.0215297 -0.00660465 0)
(0.00277206 -0.00870225 0)
(-0.0207552 -0.00556773 0)
(-0.0431412 -0.00123824 0)
(-0.0615597 0.00227988 0)
(-0.0741118 0.00396972 0)
(-0.0802945 0.00312443 0)
(-0.0829002 0.000569295 0)
(-0.0841469 -0.00254074 0)
(-0.0852105 -0.00564554 0)
(-0.0866224 -0.0080802 0)
(-0.0884005 -0.00972762 0)
(-0.090674 -0.0107287 0)
(-0.0933754 -0.0113793 0)
(-0.096488 -0.0118253 0)
(-0.0999834 -0.0121047 0)
(-0.103815 -0.0122129 0)
(-0.107901 -0.0120872 0)
(-0.112087 -0.011585 0)
(-0.11611 -0.0104678 0)
(-0.11957 -0.00838452 0)
(-0.1219 -0.00483385 0)
(-0.122375 0.00074675 0)
(-0.120032 0.00888657 0)
(-0.113398 0.0204761 0)
(-0.101237 0.0362383 0)
(-0.0834475 0.0556457 0)
(-0.0610858 0.0743359 0)
(-0.037194 0.0849867 0)
(0.00375619 0.0685059 0)
(0.143543 -0.00326663 0)
(-0.208409 -0.117966 0)
(0.935609 0.0219716 0)
(-0.480827 -0.463938 0)
(-0.329515 0.0746084 0)
(-0.226851 -0.0197103 0)
(-0.175135 -0.0407871 0)
(-0.146641 -0.0357521 0)
(-0.132956 -0.0307284 0)
(-0.128548 -0.0252536 0)
(-0.12851 -0.0176427 0)
(-0.130363 -0.00942576 0)
(-0.130323 -0.00196284 0)
(-0.127568 0.00434916 0)
(-0.122831 0.00998051 0)
(-0.116528 0.0149581 0)
(-0.109697 0.0190358 0)
(-0.103512 0.0222419 0)
(-0.0986504 0.0247453 0)
(-0.0953445 0.0265347 0)
(-0.0934881 0.0275517 0)
(-0.0928235 0.0277652 0)
(-0.0930996 0.027289 0)
(-0.094137 0.0264946 0)
(-0.095793 0.0255752 0)
(-0.0979514 0.0245987 0)
(-0.100501 0.0236152 0)
(-0.103307 0.0226764 0)
(-0.106165 0.0218442 0)
(-0.108769 0.0211895 0)
(-0.110661 0.0207902 0)
(-0.111139 0.0207426 0)
(-0.10899 0.0214401 0)
(-0.102195 0.0236862 0)
(-0.0882204 0.0282254 0)
(-0.0652362 0.0359331 0)
(-0.0340933 0.047282 0)
(0.016459 0.0621979 0)
(0.0620337 0.0631964 0)
(0.105671 0.0472069 0)
(0.165761 0.0162639 0)
(-0.211457 -0.0412556 0)
)
;

boundaryField
{
    floor
    {
        type            noSlip;
    }
    ceiling
    {
        type            noSlip;
    }
    sWall
    {
        type            noSlip;
    }
    nWall
    {
        type            noSlip;
    }
    sideWalls
    {
        type            empty;
    }
    glass1
    {
        type            noSlip;
    }
    glass2
    {
        type            noSlip;
    }
    sun
    {
        type            noSlip;
    }
    heatsource1
    {
        type            noSlip;
    }
    heatsource2
    {
        type            noSlip;
    }
    Table_master
    {
        type            noSlip;
    }
    Table_slave
    {
        type            noSlip;
    }
    inlet
    {
        type            fixedValue;
        value           uniform (0.277164 -0.114805 0);
    }
    outlet
    {
        type            zeroGradient;
    }
}


// ************************************************************************* //
