/*--------------------------------*- C++ -*----------------------------------*\
  =========                 |
  \\      /  F ield         | OpenFOAM: The Open Source CFD Toolbox
   \\    /   O peration     | Website:  https://openfoam.org
    \\  /    A nd           | Version:  6
     \\/     M anipulation  |
\*---------------------------------------------------------------------------*/
FoamFile
{
    version     2.0;
    format      ascii;
    class       volScalarField;
    location    "1200";
    object      epsilon;
}
// * * * * * * * * * * * * * * * * * * * * * * * * * * * * * * * * * * * * * //

dimensions      [0 2 -3 0 0 0 0];

internalField   nonuniform List<scalar> 
459
(
0.000520635
0.00068931
0.000741792
0.00085966
0.000981465
0.00110958
0.00125285
0.00137749
0.0014543
0.00146064
0.00138531
0.00122922
0.00100164
0.000710276
0.000394293
4.68026e-05
8.02797e-05
0.000122884
0.000137883
0.000131128
0.000117563
9.68382e-05
7.79344e-05
6.30531e-05
5.16381e-05
4.28388e-05
3.5978e-05
3.0535e-05
2.61879e-05
2.25977e-05
1.94854e-05
1.65862e-05
1.4245e-05
1.04871e-05
0.00125344
0.00172662
0.000648644
0.000637949
0.000677835
0.000745361
0.000845482
0.000954433
0.00103718
0.00106429
0.00102487
0.000924434
0.000782381
0.00061674
0.000479973
0.000621387
0.000206209
4.93409e-05
0.000117234
0.000140984
0.000138588
0.000125733
0.000111153
0.000106088
8.55763e-05
6.68635e-05
5.2182e-05
4.10426e-05
3.26401e-05
2.62508e-05
2.14091e-05
1.77982e-05
1.55188e-05
1.44019e-05
2.55007e-05
1.92736e-05
0.00221395
0.00401147
0.000778413
0.000612645
0.000660464
0.000767848
0.000920383
0.00107633
0.00118472
0.00121734
0.00117491
0.00106671
0.000920133
0.000752823
0.000619285
0.000560662
0.000736611
0.000289497
0.000251195
0.000216752
0.000184879
0.000156329
0.000140123
0.000275685
0.000183569
0.000126562
9.04729e-05
6.68988e-05
5.1003e-05
3.99751e-05
3.22406e-05
2.69024e-05
2.01368e-05
1.65183e-05
4.1578e-05
2.75492e-05
0.00349252
0.00812757
0.00118873
0.000632986
0.000673661
0.000837089
0.00108233
0.00128982
0.00140432
0.00142072
0.00135821
0.00122227
0.00104837
0.000869506
0.000719628
0.000629976
0.000621253
0.00114897
0.000676763
0.000434921
0.00030946
0.00023561
0.000187839
0.000167417
0.000403313
0.000297229
0.000232176
0.000188106
0.000155439
0.00012978
0.000107893
8.79963e-05
6.86679e-05
3.8905e-05
2.42535e-05
6.27795e-05
3.58902e-05
0.00522189
0.014352
0.00229425
0.000781705
0.000759029
0.00104015
0.00143806
0.00165839
0.00173191
0.00170252
0.00159518
0.00141919
0.00119696
0.000961961
0.000752267
0.000594379
0.000500411
0.000469993
0.000403056
0.000337848
0.000281959
0.000234136
0.000193626
0.000163356
0.000157087
0.000142878
0.000128483
0.000114539
0.000101059
8.8062e-05
7.55833e-05
6.38917e-05
5.31295e-05
4.01063e-05
2.90287e-05
4.89722e-05
3.82752e-05
6.43651e-05
0.000115797
0.000164752
0.00760664
0.0213092
0.00512868
0.00155023
0.00129108
0.00186329
0.00219353
0.00226846
0.00222059
0.0021084
0.00193275
0.00168771
0.0013884
0.00107412
0.000794448
0.000585053
0.000456425
0.000393158
0.000353568
0.000314986
0.000272844
0.000230461
0.000191687
0.000160357
0.000140509
0.000127848
0.000118117
0.000108627
9.83799e-05
8.69167e-05
7.46571e-05
6.26846e-05
5.18736e-05
4.21235e-05
3.53207e-05
4.08581e-05
4.09846e-05
5.04584e-05
0.000213184
0.000187557
0.0102879
0.0255013
0.010512
0.00492527
0.00399069
0.00384504
0.00354001
0.00321702
0.00293437
0.00267503
0.00238692
0.00203411
0.00162544
0.00120794
0.000847444
0.000590581
0.000442511
0.000372192
0.000332524
0.000294964
0.000253721
0.000213049
0.000177533
0.00015048
0.000133682
0.000124815
0.000119544
0.000115204
0.000110638
0.000104757
9.54406e-05
8.489e-05
7.45864e-05
6.54782e-05
6.15771e-05
6.6549e-05
8.20864e-05
0.000127785
0.000289705
0.000284462
0.0108463
0.0269707
0.0155177
0.0109458
0.00840252
0.00648414
0.00518612
0.00435774
0.00381978
0.00340115
0.00296384
0.00244768
0.00187549
0.00131244
0.000852855
0.00055699
0.000403789
0.000334074
0.000293328
0.000254948
0.000216846
0.000182989
0.000156329
0.000138239
0.000128545
0.000125285
0.000126111
0.000129996
0.000136948
0.000147072
0.000159402
0.000168235
0.000179131
0.00019924
0.000238625
0.000352152
0.000634703
0.00118714
0.00351621
0.00105531
0.010007
0.0165016
0.0130922
0.0100508
0.00787234
0.00650092
0.00567989
0.00517687
0.0047785
0.00429958
0.00362712
0.00280374
0.00196138
0.00118952
0.000658933
0.000427969
0.000324645
0.000272495
0.000236909
0.000205867
0.000177966
0.000154811
0.000137796
0.000127262
0.000122713
0.000123209
0.000128159
0.000137929
0.000153724
0.000177343
0.00021118
0.000259364
0.000326963
0.000429032
0.000577958
0.00078099
0.00101791
0.00123241
0.00140037
0.000886157
0.0031766
0.00496976
0.00655438
0.00697855
0.00695535
0.00655703
0.00575769
0.0045712
0.00307102
0.00183451
0.00108247
0.000648105
0.000415277
0.000303533
0.000247449
0.000214133
0.000189188
0.000168207
0.000150665
0.000136795
0.000126453
0.000119318
0.000115068
0.00011368
0.000115607
0.000121857
0.000133952
0.00015378
0.000184185
0.000228927
0.000293086
0.000383116
0.000502543
0.000642529
0.000770478
0.000840221
0.000813374
0.00052838
0.00258571
0.00698104
0.00758019
0.00631465
0.00533262
0.00429908
0.00322104
0.00226363
0.00147992
0.000920789
0.00058671
0.000404015
0.000309714
0.000262916
0.000238969
0.000225448
0.000216421
0.000209294
0.000202966
0.000196922
0.000190847
0.000184673
0.000178595
0.000173102
0.000169094
0.000167882
0.000171115
0.000180922
0.000199879
0.000231305
0.00027951
0.000348749
0.000439466
0.000544451
0.00062331
0.000711838
0.000765443
0.000566766
0.0019787
0.00236403
0.00266404
0.00344439
0.00313181
0.00282118
0.00255727
0.00218498
0.00174758
0.00132453
0.00096599
0.000697816
0.0005225
0.000414965
0.000347384
0.000301183
0.000266225
0.000237504
0.000213052
0.000192427
0.000175521
0.000162063
0.000151685
0.000144111
0.000139304
0.000137496
0.000139113
0.000144713
0.00015496
0.000170546
0.00019239
0.000221814
0.000260703
0.000311424
0.000375654
0.000462231
0.000491455
0.000451789
0.000378384
0.000310682
)
;

boundaryField
{
    floor
    {
        Cmu             0.09;
        kappa           0.41;
        E               9.8;
        type            epsilonWallFunction;
        value           nonuniform List<scalar> 
29
(
0.000394293
4.68026e-05
8.02797e-05
0.000122884
0.000137883
0.000131128
0.000117563
9.68382e-05
7.79344e-05
6.30531e-05
5.16381e-05
4.28388e-05
3.5978e-05
3.0535e-05
2.61879e-05
2.25977e-05
1.94854e-05
1.65862e-05
1.4245e-05
1.04871e-05
1.04871e-05
1.92736e-05
2.75492e-05
3.58902e-05
0.000394293
4.68026e-05
4.93409e-05
0.000289497
0.00114897
)
;
    }
    ceiling
    {
        Cmu             0.09;
        kappa           0.41;
        E               9.8;
        type            epsilonWallFunction;
        value           nonuniform List<scalar> 
43
(
0.0019787
0.00236403
0.00266404
0.00344439
0.00313181
0.00282118
0.00255727
0.00218498
0.00174758
0.00132453
0.00096599
0.000697816
0.0005225
0.000414965
0.000347384
0.000301183
0.000266225
0.000237504
0.000213052
0.000192427
0.000175521
0.000162063
0.000151685
0.000144111
0.000139304
0.000137496
0.000139113
0.000144713
0.00015496
0.000170546
0.00019239
0.000221814
0.000260703
0.000311424
0.000375654
0.000462231
0.000491455
0.000451789
0.000378384
0.000310682
0.010007
0.0165016
0.00258571
)
;
    }
    sWall
    {
        Cmu             0.09;
        kappa           0.41;
        E               9.8;
        type            epsilonWallFunction;
        value           uniform 0.0019787;
    }
    nWall
    {
        Cmu             0.09;
        kappa           0.41;
        E               9.8;
        type            epsilonWallFunction;
        value           nonuniform List<scalar> 6(0.000164752 0.000187557 0.000284462 0.00052838 0.000566766 0.000310682);
    }
    sideWalls
    {
        type            empty;
    }
    glass1
    {
        Cmu             0.09;
        kappa           0.41;
        E               9.8;
        type            epsilonWallFunction;
        value           nonuniform List<scalar> 9(0.000520635 0.00125344 0.00221395 0.00349252 0.00522189 0.00760664 0.0102879 0.0108463 0.010007);
    }
    glass2
    {
        Cmu             0.09;
        kappa           0.41;
        E               9.8;
        type            epsilonWallFunction;
        value           nonuniform List<scalar> 2(0.00105531 0.000886157);
    }
    sun
    {
        Cmu             0.09;
        kappa           0.41;
        E               9.8;
        type            epsilonWallFunction;
        value           nonuniform List<scalar> 
14
(
0.000520635
0.00068931
0.000741792
0.00085966
0.000981465
0.00110958
0.00125285
0.00137749
0.0014543
0.00146064
0.00138531
0.00122922
0.00100164
0.000710276
)
;
    }
    heatsource1
    {
        Cmu             0.09;
        kappa           0.41;
        E               9.8;
        type            epsilonWallFunction;
        value           nonuniform List<scalar> 3(6.43651e-05 0.000115797 0.000164752);
    }
    heatsource2
    {
        Cmu             0.09;
        kappa           0.41;
        E               9.8;
        type            epsilonWallFunction;
        value           nonuniform List<scalar> 4(0.000621387 0.000206209 0.000206209 0.000736611);
    }
    Table_master
    {
        Cmu             0.09;
        kappa           0.41;
        E               9.8;
        type            epsilonWallFunction;
        value           nonuniform List<scalar> 9(0.000275685 0.000183569 0.000126562 9.04729e-05 6.68988e-05 5.1003e-05 3.99751e-05 3.22406e-05 2.69024e-05);
    }
    Table_slave
    {
        Cmu             0.09;
        kappa           0.41;
        E               9.8;
        type            epsilonWallFunction;
        value           nonuniform List<scalar> 9(0.000403313 0.000297229 0.000232176 0.000188106 0.000155439 0.00012978 0.000107893 8.79963e-05 6.86679e-05);
    }
    inlet
    {
        type            turbulentMixingLengthDissipationRateInlet;
        mixingLength    0.01;
        phi             phi;
        k               k;
        value           uniform 0.000101881;
    }
    outlet
    {
        type            zeroGradient;
    }
}


// ************************************************************************* //
