/*--------------------------------*- C++ -*----------------------------------*\
  =========                 |
  \\      /  F ield         | OpenFOAM: The Open Source CFD Toolbox
   \\    /   O peration     | Website:  https://openfoam.org
    \\  /    A nd           | Version:  6
     \\/     M anipulation  |
\*---------------------------------------------------------------------------*/
FoamFile
{
    version     2.0;
    format      ascii;
    class       volScalarField;
    location    "1200";
    object      nut;
}
// * * * * * * * * * * * * * * * * * * * * * * * * * * * * * * * * * * * * * //

dimensions      [0 2 -1 0 0 0 0];

internalField   nonuniform List<scalar> 
459
(
0.00113733
0.00124886
0.00127978
0.00134426
0.00140497
0.00146361
0.00152408
0.00157303
0.00160174
0.00160406
0.001576
0.00151444
0.00141453
0.00126141
0.00103674
0.000509483
0.000609877
0.000702863
0.000730365
0.000718235
0.000692561
0.000649207
0.000603872
0.000562692
0.000526452
0.000494669
0.000466712
0.000441878
0.000419827
0.000399691
0.000380429
0.00036054
0.000342709
0.00030945
0.00152433
0.00383167
0.00372127
0.00433897
0.00496051
0.00555606
0.00601144
0.00640725
0.00675005
0.00700824
0.0071559
0.00716889
0.00700926
0.00658451
0.00537185
0.00120641
0.000835215
0.000518536
0.00122542
0.00179903
0.00224987
0.00252365
0.00251628
0.00187903
0.00157742
0.00137297
0.0012212
0.00110366
0.00100996
0.000934397
0.000863717
0.000792605
0.000726846
0.000670178
0.000745484
0.000379053
0.00184261
0.00521374
0.00464218
0.00565632
0.00617372
0.00656283
0.00686021
0.00715954
0.00748402
0.00780922
0.00810118
0.00832188
0.00840493
0.00826018
0.00762635
0.0057148
0.0012768
0.000935259
0.00151643
0.00214057
0.00275664
0.00320254
0.00311419
0.000920109
0.000803468
0.000709803
0.000634663
0.000573911
0.000524289
0.000483395
0.00044996
0.000423614
0.000461885
0.000539292
0.000841901
0.000426991
0.00214499
0.00655533
0.00469052
0.00592232
0.00626977
0.00640778
0.00654282
0.00676148
0.00706906
0.00743706
0.00782353
0.00817574
0.00839723
0.00846228
0.00829502
0.00751239
0.00455453
0.00148074
0.00181956
0.00245282
0.0032089
0.00390551
0.00436898
0.00409188
0.00104452
0.000943481
0.000868912
0.000810037
0.000760136
0.000715773
0.000673033
0.000628823
0.000578929
0.000537516
0.0005514
0.000950921
0.000466347
0.00245276
0.00827004
0.00511933
0.00580097
0.00618796
0.00618834
0.00622337
0.00639424
0.00668762
0.00707783
0.00750337
0.00787427
0.00811495
0.00820185
0.00814745
0.00789125
0.007147
0.00618082
0.00594001
0.00601418
0.00618735
0.00632742
0.00634512
0.00607261
0.00498116
0.00442393
0.0040794
0.00381135
0.00352953
0.00318498
0.00277331
0.00230352
0.00179873
0.00131004
0.000964868
0.000987434
0.000620919
0.00056659
0.000689101
0.000775046
0.00278042
0.0101632
0.00691343
0.00597557
0.00630867
0.00625617
0.00624829
0.00632581
0.00655458
0.00694208
0.00739895
0.00779396
0.00802141
0.00805674
0.00796964
0.00787155
0.00782229
0.00784371
0.00796081
0.00804896
0.00803469
0.00790756
0.00767159
0.00730651
0.00675163
0.00624788
0.00581168
0.0054081
0.00500263
0.00454855
0.00403783
0.00345853
0.00281486
0.00214825
0.00159529
0.0012231
0.000893244
0.000749183
0.00105972
0.000809274
0.00307484
0.011467
0.00950837
0.007639
0.0072428
0.00681486
0.00648301
0.00640692
0.00661918
0.0070573
0.00757505
0.0079977
0.00820211
0.00817953
0.00806088
0.0080647
0.00833383
0.00874106
0.00902817
0.00907669
0.00890724
0.00858463
0.00815955
0.00765727
0.00709335
0.0065415
0.00602315
0.00553431
0.00507467
0.00465246
0.00426437
0.00381147
0.00327867
0.00268735
0.00215289
0.00170302
0.00135593
0.001243
0.00125091
0.000929812
0.00312949
0.0100222
0.00902544
0.00820434
0.00736184
0.0066435
0.00629676
0.00637739
0.00681666
0.00745602
0.00808075
0.00849425
0.00860614
0.00848062
0.00835687
0.0085154
0.00896837
0.00935995
0.00944475
0.00924963
0.00884964
0.0083119
0.00768766
0.00701918
0.00635212
0.00573035
0.00516847
0.00467303
0.00425798
0.00394104
0.00373177
0.00359039
0.00330704
0.00293616
0.00263287
0.00247324
0.00253798
0.00287993
0.00350381
0.00143939
0.00304659
0.00359933
0.00394246
0.00401501
0.00419375
0.00466104
0.00544009
0.00645342
0.00753381
0.00846742
0.00905248
0.00918657
0.00895778
0.00865491
0.00871588
0.00891461
0.00907441
0.00905355
0.00880522
0.00835699
0.00775844
0.00705767
0.00631192
0.00557799
0.00490294
0.00431145
0.0038078
0.00339101
0.00305697
0.00279441
0.00258543
0.00242622
0.00231249
0.00223198
0.00219671
0.00219646
0.00217629
0.00208694
0.00195072
0.00135796
0.00132901
0.00300097
0.00572681
0.00772181
0.00910255
0.0099807
0.010378
0.0103312
0.00993612
0.00931264
0.00866147
0.00825836
0.00816775
0.00809844
0.00789044
0.00751973
0.00700188
0.00637804
0.00570584
0.00504453
0.00443323
0.00389482
0.00343544
0.00305106
0.00273856
0.00249618
0.00232041
0.00220676
0.00214808
0.00212745
0.00213244
0.00215435
0.00218184
0.00218992
0.00214132
0.00202537
0.00184321
0.00114296
0.00194048
0.00588607
0.00851855
0.0094885
0.00980066
0.00967048
0.00918978
0.00850517
0.00779566
0.00717585
0.00668648
0.00634038
0.00605852
0.00574914
0.0053956
0.00500315
0.00458477
0.00416802
0.00378304
0.00344782
0.00316453
0.0029264
0.00272447
0.00255184
0.00240487
0.0022838
0.00219145
0.00213041
0.00210275
0.00210834
0.00214446
0.00220252
0.00226406
0.00230705
0.00228164
0.00230757
0.00238986
0.00116999
0.00177489
0.00188335
0.00195986
0.00213508
0.00206844
0.00199765
0.00193331
0.00183453
0.0017029
0.00155262
0.00139755
0.00125397
0.00113867
0.00105448
0.000993801
0.000947627
0.000909441
0.000875482
0.00084434
0.000816164
0.000791525
0.000770756
0.000753941
0.00074118
0.000732849
0.000729669
0.000732523
0.000742228
0.000759355
0.00078401
0.000816152
0.000855806
0.000903157
0.000958297
0.00102011
0.00109313
0.0011157
0.00108483
0.00102257
0.000957535
)
;

boundaryField
{
    floor
    {
        type            nutkWallFunction;
        Cmu             0.09;
        kappa           0.41;
        E               9.8;
        value           nonuniform List<scalar> 
29
(
0.000125035
6.09192e-05
7.35779e-05
8.50769e-05
8.84422e-05
8.69602e-05
8.3813e-05
7.84663e-05
7.28288e-05
6.76634e-05
6.30793e-05
5.90268e-05
5.54352e-05
5.22224e-05
4.93504e-05
4.67113e-05
4.41706e-05
4.15299e-05
3.91463e-05
3.46564e-05
3.46563e-05
4.3987e-05
5.02833e-05
5.53855e-05
0.000125035
6.09192e-05
6.2072e-05
0.000113077
0.000175976
)
;
    }
    ceiling
    {
        type            nutkWallFunction;
        Cmu             0.09;
        kappa           0.41;
        E               9.8;
        value           nonuniform List<scalar> 
43
(
0.000208624
0.00022054
0.000228904
0.000248036
0.000240855
0.000233174
0.000226159
0.000215331
0.000200799
0.000184054
0.000166586
0.00015022
0.000136926
0.000127122
0.000120001
0.000114549
0.000110016
0.000105967
0.000102238
9.88494e-05
9.58751e-05
9.33595e-05
9.13168e-05
8.9763e-05
8.87466e-05
8.8358e-05
8.87059e-05
8.9889e-05
9.19727e-05
9.49626e-05
9.88442e-05
0.000103609
0.000109264
0.000115807
0.000123091
0.00013163
0.000134257
0.000130664
0.000123381
0.000115718
0.000344988
0.000402136
0.00022664
)
;
    }
    sWall
    {
        type            nutkWallFunction;
        Cmu             0.09;
        kappa           0.41;
        E               9.8;
        value           uniform 0.000208682;
    }
    nWall
    {
        type            nutkWallFunction;
        Cmu             0.09;
        kappa           0.41;
        E               9.8;
        value           nonuniform List<scalar> 6(9.3875e-05 9.80144e-05 0.000112435 0.000137431 0.000140561 0.000115723);
    }
    sideWalls
    {
        type            empty;
    }
    glass1
    {
        type            nutkWallFunction;
        Cmu             0.09;
        kappa           0.41;
        E               9.8;
        value           nonuniform List<scalar> 9(0.000136888 0.000181109 0.000216529 0.000249563 0.000282677 0.000317453 0.000348336 0.000354045 0.000345414);
    }
    glass2
    {
        type            nutkWallFunction;
        Cmu             0.09;
        kappa           0.41;
        E               9.8;
        value           nonuniform List<scalar> 2(0.000171384 0.000162152);
    }
    sun
    {
        type            nutkWallFunction;
        Cmu             0.09;
        kappa           0.41;
        E               9.8;
        value           nonuniform List<scalar> 
14
(
0.000136768
0.000149628
0.000153171
0.000160529
0.000167421
0.000174047
0.000180848
0.000186332
0.00018954
0.000189799
0.000186663
0.000179764
0.000168502
0.000151065
)
;
    }
    heatsource1
    {
        type            nutkWallFunction;
        Cmu             0.09;
        kappa           0.41;
        E               9.8;
        value           nonuniform List<scalar> 3(6.81531e-05 8.33852e-05 9.38752e-05);
    }
    heatsource2
    {
        type            nutkWallFunction;
        Cmu             0.09;
        kappa           0.41;
        E               9.8;
        value           nonuniform List<scalar> 4(0.000144743 0.000101139 0.000101139 0.000152825);
    }
    Table_master
    {
        type            nutkWallFunction;
        Cmu             0.09;
        kappa           0.41;
        E               9.8;
        value           nonuniform List<scalar> 9(0.00011128 9.73154e-05 8.59287e-05 7.66646e-05 6.90776e-05 6.2808e-05 5.75863e-05 5.3276e-05 4.98514e-05);
    }
    Table_slave
    {
        type            nutkWallFunction;
        Cmu             0.09;
        kappa           0.41;
        E               9.8;
        value           nonuniform List<scalar> 9(0.000125952 0.000114053 0.000105178 9.81077e-05 9.20678e-05 8.66588e-05 8.14098e-05 7.59379e-05 6.97063e-05);
    }
    inlet
    {
        type            calculated;
        value           uniform 0.000100623;
    }
    outlet
    {
        type            calculated;
        value           nonuniform List<scalar> 2(0.00177489 0.00188335);
    }
}


// ************************************************************************* //
