/*--------------------------------*- C++ -*----------------------------------*\
  =========                 |
  \\      /  F ield         | OpenFOAM: The Open Source CFD Toolbox
   \\    /   O peration     | Website:  https://openfoam.org
    \\  /    A nd           | Version:  6
     \\/     M anipulation  |
\*---------------------------------------------------------------------------*/
FoamFile
{
    version     2.0;
    format      ascii;
    class       volScalarField;
    location    "1100";
    object      T;
}
// * * * * * * * * * * * * * * * * * * * * * * * * * * * * * * * * * * * * * //

dimensions      [0 0 0 1 0 0 0];

internalField   nonuniform List<scalar> 
459
(
307.322
307.132
307.126
307.129
307.13
307.131
307.131
307.131
307.131
307.129
307.127
307.123
307.117
307.109
307.096
306.223
306.196
306.164
306.143
306.142
306.152
306.167
306.177
306.184
306.191
306.197
306.198
306.2
306.213
306.242
306.294
306.34
306.424
306.511
307.487
307.239
307.22
307.22
307.222
307.223
307.221
307.219
307.216
307.21
307.202
307.191
307.175
307.152
307.122
307.091
306.977
306.344
306.372
306.371
306.374
306.382
306.391
306.395
306.399
306.406
306.418
306.439
306.47
306.503
306.543
306.597
306.653
306.63
306.613
306.691
307.639
307.351
307.318
307.311
307.309
307.307
307.304
307.3
307.295
307.288
307.278
307.263
307.24
307.206
307.159
307.103
307.052
306.632
306.64
306.654
306.669
306.672
306.656
306.598
306.623
306.653
306.685
306.718
306.754
306.798
306.851
306.92
306.985
306.962
306.905
306.896
307.784
307.486
307.454
307.44
307.429
307.416
307.404
307.393
307.384
307.375
307.364
307.348
307.324
307.286
307.232
307.156
307.059
306.96
306.901
306.978
307.037
307.085
307.119
307.141
307.159
307.16
307.161
307.162
307.162
307.163
307.163
307.161
307.157
307.143
307.139
307.128
307.083
307.926
307.637
307.627
307.622
307.599
307.57
307.541
307.514
307.492
307.474
307.459
307.443
307.422
307.392
307.353
307.303
307.25
307.203
307.17
307.174
307.186
307.2
307.21
307.214
307.215
307.214
307.214
307.213
307.213
307.214
307.214
307.215
307.215
307.214
307.215
307.218
307.226
307.241
307.25
307.258
308.063
307.798
307.83
307.837
307.799
307.754
307.709
307.667
307.629
307.597
307.568
307.544
307.521
307.495
307.461
307.42
307.377
307.338
307.309
307.293
307.286
307.282
307.279
307.276
307.272
307.268
307.265
307.263
307.261
307.259
307.258
307.257
307.256
307.254
307.252
307.251
307.252
307.257
307.264
307.274
308.196
307.968
308.024
308.007
307.965
307.915
307.864
307.814
307.767
307.726
307.69
307.656
307.625
307.596
307.563
307.526
307.488
307.451
307.42
307.397
307.379
307.366
307.355
307.347
307.339
307.332
307.325
307.319
307.314
307.31
307.305
307.301
307.297
307.292
307.285
307.278
307.274
307.273
307.277
307.284
308.356
308.202
308.154
308.107
308.061
308.011
307.962
307.914
307.867
307.825
307.788
307.754
307.723
307.69
307.657
307.623
307.589
307.555
307.524
307.497
307.474
307.456
307.44
307.426
307.414
307.403
307.393
307.383
307.374
307.366
307.358
307.35
307.342
307.333
307.322
307.311
307.3
307.292
307.29
307.292
308.573
308.495
308.158
308.08
308.036
308.002
307.97
307.936
307.902
307.869
307.838
307.81
307.783
307.757
307.73
307.702
307.672
307.643
307.615
307.589
307.565
307.544
307.525
307.507
307.491
307.476
307.462
307.449
307.436
307.424
307.411
307.399
307.387
307.374
307.36
307.345
307.329
307.314
307.304
307.3
307.294
307.783
307.877
307.905
307.905
307.895
307.881
307.863
307.844
307.825
307.806
307.787
307.768
307.747
307.726
307.704
307.681
307.658
307.636
307.615
307.595
307.575
307.557
307.539
307.522
307.505
307.489
307.473
307.458
307.442
307.426
307.41
307.392
307.374
307.354
307.335
307.318
307.307
307.404
307.669
307.729
307.772
307.81
307.829
307.835
307.833
307.826
307.816
307.804
307.792
307.778
307.763
307.748
307.731
307.714
307.695
307.676
307.657
307.638
307.619
307.599
307.581
307.562
307.543
307.525
307.507
307.489
307.47
307.452
307.432
307.412
307.391
307.369
307.345
307.323
307.31
310.449
310.12
307.686
307.669
307.671
307.69
307.729
307.759
307.776
307.783
307.785
307.782
307.777
307.77
307.762
307.752
307.741
307.729
307.716
307.702
307.687
307.671
307.654
307.637
307.619
307.601
307.582
307.563
307.544
307.524
307.504
307.483
307.462
307.44
307.417
307.392
307.364
307.332
307.29
307.226
)
;

boundaryField
{
    floor
    {
        type            wallHeatTransfer;
        Tinf            uniform 305.2;
        alphaWall       uniform 0.24;
        value           nonuniform List<scalar> 
29
(
306.815
305.984
305.954
305.904
305.864
305.852
305.857
305.87
305.884
305.897
305.908
305.915
305.916
305.919
305.933
305.967
306.024
306.077
306.182
306.237
306.237
306.448
306.661
306.826
306.815
305.984
306.12
306.392
306.722
)
;
    }
    ceiling
    {
        type            wallHeatTransfer;
        Tinf            uniform 303.2;
        alphaWall       uniform 0.24;
        value           nonuniform List<scalar> 
43
(
309.818
309.627
307.527
307.483
307.442
307.41
307.423
307.439
307.447
307.448
307.445
307.44
307.434
307.427
307.419
307.411
307.402
307.392
307.381
307.369
307.356
307.342
307.326
307.31
307.294
307.277
307.259
307.241
307.223
307.205
307.186
307.167
307.147
307.125
307.103
307.077
307.048
307.013
306.966
306.874
308.311
308.263
307.299
)
;
    }
    sWall
    {
        type            wallHeatTransfer;
        Tinf            uniform 315.2;
        alphaWall       uniform 0.36;
        value           uniform 311.045;
    }
    nWall
    {
        type            wallHeatTransfer;
        Tinf            uniform 307.2;
        alphaWall       uniform 0.36;
        value           nonuniform List<scalar> 6(307.246 307.26 307.27 307.295 307.299 307.223);
    }
    sideWalls
    {
        type            empty;
    }
    glass1
    {
        type            wallHeatTransfer;
        Tinf            uniform 315.2;
        alphaWall       uniform 4.3;
        value           nonuniform List<scalar> 9(313.326 312.616 312.159 311.846 311.64 311.504 311.452 311.559 311.761);
    }
    glass2
    {
        type            wallHeatTransfer;
        Tinf            uniform 307.2;
        alphaWall       uniform 4.3;
        value           nonuniform List<scalar> 2(307.23 307.235);
    }
    sun
    {
        type            wallHeatTransfer;
        Tinf            uniform 305.2;
        alphaWall       uniform 0.24;
        value           nonuniform List<scalar> 
14
(
307.005
306.85
306.811
306.813
306.816
306.819
306.823
306.826
306.829
306.831
306.832
306.832
306.83
306.825
)
;
    }
    heatsource1
    {
        type            fixedGradient;
        gradient        uniform 0;
    }
    heatsource2
    {
        type            fixedGradient;
        gradient        uniform 0;
    }
    Table_master
    {
        type            zeroGradient;
    }
    Table_slave
    {
        type            zeroGradient;
    }
    inlet
    {
        type            fixedValue;
        value           uniform 299.15;
    }
    outlet
    {
        type            zeroGradient;
    }
}


// ************************************************************************* //
