// -*- C++ -*-
// File generated by PyFoam - sorry for the ugliness

FoamFile
{
 version 2.0;
 format ascii;
 class volVectorField;
 location "130";
 object U;
}

dimensions [ 0 1 -1 0 0 0 0 ];

internalField nonuniform List<vector> 459
(
  (-0.00641547 -0.00621769 0)
  (-0.0202591 -0.0609985 0)
  (0.0656469 -0.0799863 0)
  (0.126515 -0.0588367 0)
  (0.175839 -0.0392104 0)
  (0.206359 -0.0253566 0)
  (0.220239 -0.0161326 0)
  (0.223232 -0.0098058 0)
  (0.219048 -0.00483695 0)
  (0.210107 -0.000594962 0)
  (0.196942 0.00346383 0)
  (0.179031 0.00808173 0)
  (0.154636 0.0146967 0)
  (0.117589 0.0279488 0)
  (0.0988922 0.0641458 0)
  (-0.0814786 0.00669779 0)
  (-0.00100829 0.0022947 0)
  (-0.00494843 -0.0156265 0)
  (0.0203341 -0.0233835 0)
  (0.0389147 -0.0184925 0)
  (0.0554337 -0.0127092 0)
  (0.0666378 -0.00779495 0)
  (0.073087 -0.00517234 0)
  (0.0765062 -0.00409069 0)
  (0.07867 -0.00358779 0)
  (0.0804004 -0.00323866 0)
  (0.0817937 -0.00290028 0)
  (0.0826566 -0.00243322 0)
  (0.0824651 -0.0015451 0)
  (0.0801529 0.000346223 0)
  (0.0737104 0.00418261 0)
  (0.0610183 0.00985252 0)
  (0.0227582 0.0211269 0)
  (0.079563 0.012064 0)
  (0.0734822 0.0481278 0)
  (0.0188293 -0.0845348 0)
  (0.0706586 -0.115024 0)
  (0.119316 -0.0856924 0)
  (0.154369 -0.0505775 0)
  (0.173875 -0.0246742 0)
  (0.181252 -0.00752309 0)
  (0.180482 0.00405671 0)
  (0.174547 0.0122053 0)
  (0.165565 0.018458 0)
  (0.154309 0.0241067 0)
  (0.141059 0.0305386 0)
  (0.126403 0.039498 0)
  (0.110997 0.053796 0)
  (0.108646 0.0814533 0)
  (0.100335 0.0722368 0)
  (0.0619265 0.0618924 0)
  (-0.125116 0.0115839 0)
  (0.0296806 -0.00940083 0)
  (0.0336019 -0.0294887 0)
  (0.0468073 -0.033522 0)
  (0.0594559 -0.0268668 0)
  (0.0689938 -0.0174439 0)
  (0.0731898 -0.00815899 0)
  (0.0743086 -0.00289474 0)
  (0.074474 -0.000829709 0)
  (0.0747628 -1.38645e-05 0)
  (0.075165 0.000451255 0)
  (0.0755019 0.000909942 0)
  (0.0757261 0.00176981 0)
  (0.0756697 0.00363564 0)
  (0.0745763 0.00770951 0)
  (0.0692503 0.0174885 0)
  (0.058134 0.0275725 0)
  (0.0144197 0.0421547 0)
  (0.136476 0.0314519 0)
  (0.177662 0.0272065 0)
  (0.0331071 -0.0948622 0)
  (0.0649875 -0.149564 0)
  (0.100761 -0.118776 0)
  (0.121289 -0.071682 0)
  (0.128024 -0.0361113 0)
  (0.127464 -0.0126378 0)
  (0.122089 0.00343183 0)
  (0.11587 0.0149813 0)
  (0.109715 0.0236981 0)
  (0.103741 0.0312903 0)
  (0.0979887 0.039374 0)
  (0.092877 0.049405 0)
  (0.0882392 0.0624636 0)
  (0.0882244 0.0797709 0)
  (0.079651 0.0759969 0)
  (0.0613566 0.0944445 0)
  (-0.115047 -0.0130883 0)
  (0.0584256 -0.0441662 0)
  (0.0680401 -0.0516842 0)
  (0.0741839 -0.0471079 0)
  (0.0798135 -0.0362447 0)
  (0.0835206 -0.0250647 0)
  (0.0808302 -0.019944 0)
  (0.0734715 -0.0136572 0)
  (0.0678845 -0.0102217 0)
  (0.0648082 -0.00825596 0)
  (0.0628604 -0.00698531 0)
  (0.0613037 -0.00605303 0)
  (0.0602107 -0.00509703 0)
  (0.0606336 -0.00337039 0)
  (0.0649307 0.00174531 0)
  (0.0630315 0.0232743 0)
  (0.0536749 0.0392088 0)
  (0.00321752 0.0582083 0)
  (0.174804 0.0591786 0)
  (0.249633 -0.0336956 0)
  (-0.00437793 -0.107336 0)
  (0.0366273 -0.174338 0)
  (0.062415 -0.136226 0)
  (0.0735374 -0.0753079 0)
  (0.0696855 -0.0320554 0)
  (0.0628868 -0.00514948 0)
  (0.0571622 0.0113004 0)
  (0.0550517 0.0212615 0)
  (0.0546725 0.028316 0)
  (0.0553168 0.0347121 0)
  (0.0567812 0.041797 0)
  (0.059311 0.050431 0)
  (0.0629937 0.0610625 0)
  (0.0715179 0.0746301 0)
  (0.0840232 0.0816183 0)
  (0.10101 0.100681 0)
  (0.132707 0.0192591 0)
  (0.124244 -0.0109975 0)
  (0.118399 -0.0393469 0)
  (0.107477 -0.0496761 0)
  (0.0985735 -0.0459344 0)
  (0.0928852 -0.0354485 0)
  (0.089321 -0.022031 0)
  (0.0902628 -0.0122508 0)
  (0.0931873 -0.00716225 0)
  (0.0922226 -0.00378979 0)
  (0.0874253 -0.00141996 0)
  (0.0802691 0.000435412 0)
  (0.0715075 0.00204893 0)
  (0.06113 0.00367798 0)
  (0.0485377 0.00569465 0)
  (0.0257927 0.00917108 0)
  (0.0266567 0.0341433 0)
  (0.0354328 0.0470168 0)
  (-0.00875236 0.0647023 0)
  (0.201417 0.0929531 0)
  (0.209643 -0.0269051 0)
  (-0.0788587 -0.110902 0)
  (-0.00622136 -0.197475 0)
  (0.0101284 -0.147053 0)
  (0.0201431 -0.0690929 0)
  (0.0127561 -0.0223913 0)
  (0.00601447 0.00192482 0)
  (0.00574931 0.0136288 0)
  (0.00820165 0.0203194 0)
  (0.0121336 0.0256929 0)
  (0.0171833 0.0310942 0)
  (0.0233345 0.0371178 0)
  (0.0309695 0.0441204 0)
  (0.0406559 0.0522507 0)
  (0.0552254 0.0617106 0)
  (0.0745705 0.0662281 0)
  (0.0988818 0.0640414 0)
  (0.119667 0.0147784 0)
  (0.122211 -0.0156123 0)
  (0.11431 -0.0341661 0)
  (0.102669 -0.0398541 0)
  (0.0906701 -0.0361975 0)
  (0.0803656 -0.0274927 0)
  (0.0724028 -0.0163748 0)
  (0.0670466 -0.00444225 0)
  (0.0624436 0.00345776 0)
  (0.0570163 0.0079731 0)
  (0.0503224 0.0107821 0)
  (0.0428609 0.0129382 0)
  (0.0348307 0.0149658 0)
  (0.0261189 0.0172748 0)
  (0.0171249 0.0201656 0)
  (0.00485756 0.0233404 0)
  (0.00445252 0.0320891 0)
  (0.0249765 0.0401244 0)
  (0.00164772 0.0505139 0)
  (0.117586 0.087697 0)
  (0.0903035 0.0730255 0)
  (0.0152668 0.0589037 0)
  (0.108444 0.0243251 0)
  (0.166783 0.00668623 0)
  (-0.103853 -0.116922 0)
  (-0.0425981 -0.215074 0)
  (-0.0324845 -0.161074 0)
  (-0.021955 -0.0671393 0)
  (-0.0244187 -0.0203391 0)
  (-0.0263325 0.000358363 0)
  (-0.0244166 0.00972183 0)
  (-0.0209046 0.0150776 0)
  (-0.0158149 0.0193797 0)
  (-0.00930622 0.0236241 0)
  (-0.00120338 0.0282278 0)
  (0.00885452 0.03332 0)
  (0.020963 0.038397 0)
  (0.0366907 0.0427191 0)
  (0.0555819 0.041805 0)
  (0.077301 0.0323194 0)
  (0.0915557 0.00620909 0)
  (0.0930357 -0.0138416 0)
  (0.0857532 -0.0247459 0)
  (0.0744719 -0.0276176 0)
  (0.0622017 -0.0242553 0)
  (0.0508182 -0.0170578 0)
  (0.0412253 -0.00778101 0)
  (0.033066 0.00214524 0)
  (0.0270119 0.00911624 0)
  (0.0215203 0.0133706 0)
  (0.0157808 0.0163464 0)
  (0.00968392 0.0189877 0)
  (0.00326696 0.0217819 0)
  (-0.00357919 0.0250055 0)
  (-0.00890657 0.0275422 0)
  (-0.0133782 0.0275209 0)
  (-0.0110379 0.0239039 0)
  (0.0060274 0.0225966 0)
  (-0.0094873 0.0181682 0)
  (0.0476657 0.0501679 0)
  (0.0414943 0.0472174 0)
  (-0.0235808 0.0550536 0)
  (0.143676 0.0148474 0)
  (0.193279 0.0480918 0)
  (-0.120604 -0.124792 0)
  (-0.0561216 -0.240868 0)
  (-0.0489937 -0.181301 0)
  (-0.0426634 -0.0718499 0)
  (-0.0407137 -0.0218225 0)
  (-0.0412338 -0.00148532 0)
  (-0.0401165 0.00646984 0)
  (-0.0373031 0.0103206 0)
  (-0.0327227 0.0131103 0)
  (-0.0265449 0.0157603 0)
  (-0.0187859 0.0184836 0)
  (-0.00932862 0.0212864 0)
  (0.00247012 0.0238355 0)
  (0.0163894 0.0250909 0)
  (0.0315838 0.0227367 0)
  (0.0465037 0.0154632 0)
  (0.0543168 0.00199558 0)
  (0.0535864 -0.00939147 0)
  (0.0464603 -0.0155555 0)
  (0.0359372 -0.0163451 0)
  (0.0245031 -0.0128406 0)
  (0.0137408 -0.00654467 0)
  (0.00408571 0.00131177 0)
  (-0.00295011 0.00896554 0)
  (-0.0075114 0.0143625 0)
  (-0.0114213 0.0181721 0)
  (-0.015285 0.0212928 0)
  (-0.0192319 0.0242266 0)
  (-0.0230207 0.0270422 0)
  (-0.0260556 0.0292063 0)
  (-0.0272107 0.0291643 0)
  (-0.0265683 0.0248237 0)
  (-0.0231263 0.016171 0)
  (-0.0176185 0.0100459 0)
  (-0.0235681 0.0068241 0)
  (0.00418713 0.0308745 0)
  (0.0153981 0.0505748 0)
  (-0.059455 0.0684749 0)
  (0.177556 0.00681637 0)
  (0.325815 0.102067 0)
  (-0.103725 -0.108723 0)
  (-0.0361226 -0.257536 0)
  (-0.0310831 -0.197745 0)
  (-0.0421758 -0.069388 0)
  (-0.0441803 -0.0186813 0)
  (-0.0486446 -0.000264581 0)
  (-0.0501357 0.00533921 0)
  (-0.0488946 0.00711772 0)
  (-0.0456245 0.00814524 0)
  (-0.0407933 0.0092111 0)
  (-0.0346277 0.0103866 0)
  (-0.0272435 0.0115472 0)
  (-0.018637 0.0124815 0)
  (-0.00903632 0.0127794 0)
  (0.000888394 0.0113478 0)
  (0.00900068 0.00752602 0)
  (0.0117331 0.00112363 0)
  (0.00941308 -0.00442256 0)
  (0.00263375 -0.00695042 0)
  (-0.00666743 -0.0059343 0)
  (-0.0162319 -0.00223852 0)
  (-0.0248787 0.00291371 0)
  (-0.0310093 0.00829893 0)
  (-0.0348664 0.0133075 0)
  (-0.037251 0.0174682 0)
  (-0.0389852 0.0209697 0)
  (-0.0403803 0.0240457 0)
  (-0.0413913 0.0267464 0)
  (-0.0416677 0.0287834 0)
  (-0.0406795 0.0293638 0)
  (-0.0380702 0.0272096 0)
  (-0.0344238 0.0214089 0)
  (-0.0307224 0.0135548 0)
  (-0.0284151 0.00822468 0)
  (-0.0282965 0.007774 0)
  (-0.0149455 0.022652 0)
  (0.00811878 0.0492709 0)
  (-0.0846862 0.067581 0)
  (0.325872 0.0292826 0)
  (0.41557 0.198012 0)
  (0.0863382 0.167612 0)
  (0.0148109 -0.200163 0)
  (0.0158215 -0.179903 0)
  (-0.029775 -0.0452849 0)
  (-0.0467216 -0.00387976 0)
  (-0.0585949 0.007428 0)
  (-0.0625244 0.00840504 0)
  (-0.0627416 0.00748252 0)
  (-0.0610204 0.00678342 0)
  (-0.0580975 0.00659437 0)
  (-0.0543268 0.00677899 0)
  (-0.0499476 0.0071572 0)
  (-0.0451655 0.00757634 0)
  (-0.0402749 0.00783628 0)
  (-0.035856 0.00756825 0)
  (-0.0330006 0.00644872 0)
  (-0.033179 0.00436682 0)
  (-0.0362905 0.0026499 0)
  (-0.0415703 0.00246604 0)
  (-0.0478155 0.00395727 0)
  (-0.0533903 0.00650896 0)
  (-0.0574962 0.00960933 0)
  (-0.0599952 0.0129859 0)
  (-0.0609997 0.0164361 0)
  (-0.060863 0.0196949 0)
  (-0.0599272 0.0226832 0)
  (-0.0583094 0.0253161 0)
  (-0.0559406 0.027396 0)
  (-0.0526512 0.0285164 0)
  (-0.0483438 0.0280232 0)
  (-0.0432796 0.0252159 0)
  (-0.0383117 0.0200398 0)
  (-0.0344532 0.0139405 0)
  (-0.0322083 0.00929824 0)
  (-0.0302249 0.00854641 0)
  (-0.0217404 0.0178271 0)
  (-0.00477978 0.0392549 0)
  (-0.0842542 0.0460921 0)
  (0.328961 0.0405343 0)
  (0.0555747 -0.150585 0)
  (0.0387023 -0.115741 0)
  (-0.0424853 0.00713583 0)
  (-0.0690885 0.0242376 0)
  (-0.0788176 0.0224188 0)
  (-0.0810742 0.0182986 0)
  (-0.0811475 0.0150971 0)
  (-0.0804332 0.0130936 0)
  (-0.079301 0.0119802 0)
  (-0.0779082 0.0114633 0)
  (-0.0763793 0.0113672 0)
  (-0.0748368 0.0116058 0)
  (-0.0734288 0.0121024 0)
  (-0.0723987 0.0127063 0)
  (-0.0721473 0.013216 0)
  (-0.073145 0.0135158 0)
  (-0.0753042 0.0139997 0)
  (-0.0779999 0.0150932 0)
  (-0.0804522 0.0167912 0)
  (-0.0820582 0.0188319 0)
  (-0.0825443 0.021039 0)
  (-0.0818349 0.0232968 0)
  (-0.0799504 0.0254788 0)
  (-0.0770033 0.0273952 0)
  (-0.0731262 0.0288786 0)
  (-0.0684151 0.0297604 0)
  (-0.0629558 0.0298426 0)
  (-0.0568884 0.0288694 0)
  (-0.0505139 0.0265402 0)
  (-0.0444125 0.0226667 0)
  (-0.0394283 0.0175315 0)
  (-0.0363032 0.0121748 0)
  (-0.0350805 0.00818235 0)
  (-0.0342307 0.00784846 0)
  (-0.0305347 0.0147051 0)
  (-0.027651 0.0278704 0)
  (-0.0743713 0.0274793 0)
  (0.19073 0.0573721 0)
  (-0.195493 -0.0965297 0)
  (-0.0943628 -0.0742591 0)
  (-0.11227 -0.0535101 0)
  (-0.109772 -0.0580997 0)
  (-0.105002 -0.0682321 0)
  (-0.10208 -0.0762315 0)
  (-0.100827 -0.0810952 0)
  (-0.100433 -0.0835281 0)
  (-0.100413 -0.0843106 0)
  (-0.100495 -0.0839854 0)
  (-0.100521 -0.0829141 0)
  (-0.100387 -0.0813921 0)
  (-0.100042 -0.079755 0)
  (-0.0995169 -0.0784348 0)
  (-0.0989704 -0.077888 0)
  (-0.0986302 -0.078363 0)
  (-0.0985533 -0.0795929 0)
  (-0.0985431 -0.0810611 0)
  (-0.0982872 -0.0823839 0)
  (-0.097512 -0.0833441 0)
  (-0.0960236 -0.083778 0)
  (-0.0936777 -0.0836103 0)
  (-0.0903746 -0.0828817 0)
  (-0.0860783 -0.0817231 0)
  (-0.0808123 -0.0802786 0)
  (-0.0746528 -0.0787131 0)
  (-0.0677427 -0.0772639 0)
  (-0.0603306 -0.0762969 0)
  (-0.0528312 -0.0763048 0)
  (-0.0458744 -0.077773 0)
  (-0.0402616 -0.0808876 0)
  (-0.0366847 -0.0852007 0)
  (-0.0350572 -0.0893475 0)
  (-0.033735 -0.0906472 0)
  (-0.0310855 -0.0862404 0)
  (-0.0320254 -0.0800196 0)
  (-0.0492792 -0.0925383 0)
  (0.146837 -0.109001 0)
  (-0.242047 -0.186107 0)
  (-0.185928 0.0275941 0)
  (-0.170878 0.306852 0)
  (-0.162905 0.275304 0)
  (-0.156524 0.264022 0)
  (-0.143732 0.27007 0)
  (-0.133388 0.277864 0)
  (-0.127113 0.283251 0)
  (-0.123952 0.286087 0)
  (-0.122706 0.287075 0)
  (-0.122515 0.286853 0)
  (-0.122801 0.285886 0)
  (-0.123149 0.284546 0)
  (-0.123239 0.283208 0)
  (-0.122815 0.282311 0)
  (-0.121727 0.282324 0)
  (-0.119991 0.283617 0)
  (-0.117767 0.286264 0)
  (-0.115216 0.28995 0)
  (-0.112381 0.294196 0)
  (-0.109213 0.298596 0)
  (-0.105623 0.302867 0)
  (-0.101504 0.30682 0)
  (-0.0967393 0.310359 0)
  (-0.0912347 0.313463 0)
  (-0.0849619 0.316127 0)
  (-0.0779756 0.318312 0)
  (-0.0704184 0.319955 0)
  (-0.0625306 0.32102 0)
  (-0.0546652 0.321557 0)
  (-0.0473046 0.321758 0)
  (-0.041061 0.321973 0)
  (-0.0365962 0.322677 0)
  (-0.0342769 0.324283 0)
  (-0.0334813 0.326647 0)
  (-0.0327151 0.328479 0)
  (-0.0334457 0.329081 0)
  (-0.0449905 0.335158 0)
  (-0.0619277 0.369859 0)
  (0.190863 0.449479 0)
)
;

boundaryField
{
  floor
  {
    type noSlip;
  }
  ceiling
  {
    type noSlip;
  }
  sWall
  {
    type noSlip;
  }
  nWall
  {
    type noSlip;
  }
  sideWalls
  {
    type empty;
  }
  glass1
  {
    type noSlip;
  }
  glass2
  {
    type noSlip;
  }
  sun
  {
    type noSlip;
  }
  heatsource1
  {
    type noSlip;
  }
  heatsource2
  {
    type noSlip;
  }
  Table_master
  {
    type noSlip;
  }
  Table_slave
  {
    type noSlip;
  }
  inlet
  {
    type fixedValue;
    value uniform (0.277164 -0.114805 0);
  }
  outlet
  {
    type zeroGradient;
  }
} 	// ************************************************************************* //

