// -*- C++ -*-
// File generated by PyFoam - sorry for the ugliness

FoamFile
{
 version 2.0;
 format ascii;
 class volVectorField;
 location "900";
 object U;
}

dimensions [ 0 1 -1 0 0 0 0 ];

internalField nonuniform List<vector> 459
(
  (0.0762914 0.058571 0)
  (-0.119188 0.00310755 0)
  (-0.104645 0.00326562 0)
  (-0.112737 0.00352424 0)
  (-0.119958 0.00254915 0)
  (-0.125693 0.00117904 0)
  (-0.129548 -0.000429102 0)
  (-0.131227 -0.00229311 0)
  (-0.13034 -0.00449247 0)
  (-0.12651 -0.0072203 0)
  (-0.118929 -0.0106525 0)
  (-0.106131 -0.0151085 0)
  (-0.0865705 -0.0214091 0)
  (-0.0624467 -0.0310219 0)
  (-0.0469715 -0.0439541 0)
  (-0.0206875 -0.00664723 0)
  (0.00944875 -0.00128081 0)
  (0.00725514 0.00018226 0)
  (0.00402349 -0.000508617 0)
  (0.00478792 -0.000670588 0)
  (0.00654245 -0.000824158 0)
  (0.00846851 -0.00154528 0)
  (0.0107232 -0.00156116 0)
  (0.0127987 -0.00150408 0)
  (0.0144674 -0.00154924 0)
  (0.0157669 -0.00168731 0)
  (0.0168066 -0.00169398 0)
  (0.0171818 -0.00138205 0)
  (0.0162722 -0.000385655 0)
  (0.0145214 0.00104588 0)
  (0.0121555 0.00278307 0)
  (0.0087621 0.00466958 0)
  (-0.00987166 0.00713788 0)
  (0.0396576 -0.00176056 0)
  (0.24688 0.126813 0)
  (-0.134628 0.0180664 0)
  (-0.0900843 0.0127019 0)
  (-0.101258 0.0122116 0)
  (-0.10866 0.0103543 0)
  (-0.114371 0.00787397 0)
  (-0.118349 0.00497122 0)
  (-0.120511 0.00160444 0)
  (-0.120582 -0.0023654 0)
  (-0.118366 -0.00709268 0)
  (-0.113538 -0.012748 0)
  (-0.105451 -0.019659 0)
  (-0.0936522 -0.0287061 0)
  (-0.0792617 -0.0412954 0)
  (-0.0657839 -0.0564624 0)
  (-0.0552821 -0.0629655 0)
  (0.0340339 0.015829 0)
  (-0.0422225 -0.00164612 0)
  (-0.00376389 0.00451904 0)
  (-0.0114828 0.0034087 0)
  (-0.0148618 0.00138262 0)
  (-0.0158747 -0.000120917 0)
  (-0.0156297 -0.00170414 0)
  (-0.0147661 -0.00316804 0)
  (-0.0134843 -0.00207118 0)
  (-0.0128952 -0.000928355 0)
  (-0.0130564 0.000173922 0)
  (-0.0136985 0.00149599 0)
  (-0.0151339 0.00313204 0)
  (-0.0167306 0.00484246 0)
  (-0.0179718 0.00619767 0)
  (-0.0180203 0.0060053 0)
  (-0.0154802 0.00346672 0)
  (-0.011637 0.00495016 0)
  (-0.0222028 0.00655338 0)
  (0.076689 -0.000243693 0)
  (0.388204 0.192147 0)
  (-0.169791 0.0398541 0)
  (-0.0715443 0.0239995 0)
  (-0.0866287 0.0197767 0)
  (-0.0935876 0.0158262 0)
  (-0.0984255 0.0116023 0)
  (-0.10178 0.00698945 0)
  (-0.103778 0.0018149 0)
  (-0.104306 -0.00405816 0)
  (-0.103291 -0.0107703 0)
  (-0.10084 -0.0184912 0)
  (-0.09695 -0.0274836 0)
  (-0.0918796 -0.0381743 0)
  (-0.0864121 -0.0506268 0)
  (-0.0817086 -0.0627636 0)
  (-0.0804237 -0.0696374 0)
  (-0.0909005 -0.0699462 0)
  (-0.069903 0.0289114 0)
  (-0.0350463 0.0107052 0)
  (-0.040436 0.00550916 0)
  (-0.0414064 0.00169914 0)
  (-0.0407494 -0.00160961 0)
  (-0.0392783 -0.00466561 0)
  (-0.0371212 -0.00624839 0)
  (-0.0420312 -0.00632993 0)
  (-0.0444492 -0.00578753 0)
  (-0.0459581 -0.0054289 0)
  (-0.0466099 -0.00519067 0)
  (-0.0462537 -0.00506801 0)
  (-0.0453079 -0.00531826 0)
  (-0.0438146 -0.0063829 0)
  (-0.0401152 -0.00915629 0)
  (-0.0317103 -0.0116228 0)
  (-0.0226173 -0.00835421 0)
  (-0.0276631 -0.00633275 0)
  (0.103239 -0.000210085 0)
  (0.499144 0.245276 0)
  (-0.20413 0.0647309 0)
  (-0.05156 0.0349182 0)
  (-0.0694016 0.0269521 0)
  (-0.0760046 0.0208337 0)
  (-0.0792475 0.015144 0)
  (-0.0811825 0.00938123 0)
  (-0.082166 0.00314054 0)
  (-0.082245 -0.00379121 0)
  (-0.0816414 -0.011431 0)
  (-0.0807943 -0.0197785 0)
  (-0.0801904 -0.028981 0)
  (-0.0805406 -0.039103 0)
  (-0.0827874 -0.049549 0)
  (-0.0884758 -0.058237 0)
  (-0.101377 -0.0613279 0)
  (-0.122859 -0.0517001 0)
  (-0.124735 -0.0171115 0)
  (-0.0960974 0.0176332 0)
  (-0.07655 0.00804969 0)
  (-0.0730266 0.00443549 0)
  (-0.0722543 0.00112887 0)
  (-0.0729403 -0.0021204 0)
  (-0.0744421 -0.00485011 0)
  (-0.0743154 -0.00446635 0)
  (-0.0716062 -0.00406944 0)
  (-0.0688428 -0.00444077 0)
  (-0.0658647 -0.00488017 0)
  (-0.0626224 -0.00545848 0)
  (-0.0589471 -0.00626057 0)
  (-0.0542252 -0.00743932 0)
  (-0.0474123 -0.00937898 0)
  (-0.0388558 -0.0127579 0)
  (-0.0341838 -0.0180765 0)
  (-0.0320651 -0.0201518 0)
  (-0.0284439 -0.0200094 0)
  (0.0859715 -0.00605497 0)
  (0.581839 0.288074 0)
  (-0.229614 0.0902228 0)
  (-0.0345052 0.0427194 0)
  (-0.047661 0.0319138 0)
  (-0.0537463 0.0240252 0)
  (-0.0553388 0.0168354 0)
  (-0.055505 0.00997213 0)
  (-0.0549093 0.00301505 0)
  (-0.0536372 -0.00428953 0)
  (-0.0525725 -0.0118592 0)
  (-0.0521334 -0.0195664 0)
  (-0.0529262 -0.0274824 0)
  (-0.0555761 -0.0355687 0)
  (-0.0605886 -0.0432768 0)
  (-0.0684795 -0.0492415 0)
  (-0.0798103 -0.0510285 0)
  (-0.0915747 -0.0439729 0)
  (-0.0941591 -0.0235295 0)
  (-0.0864498 -0.00605436 0)
  (-0.0766005 -0.000510601 0)
  (-0.070571 0.000872174 0)
  (-0.0667137 2.18443e-05 0)
  (-0.0646043 -0.00163184 0)
  (-0.0637016 -0.0028918 0)
  (-0.0627158 -0.00286994 0)
  (-0.0611642 -0.00311681 0)
  (-0.0595145 -0.00338491 0)
  (-0.0578599 -0.00369118 0)
  (-0.0561978 -0.00412599 0)
  (-0.0545038 -0.00481678 0)
  (-0.0526129 -0.00599526 0)
  (-0.0502797 -0.00822057 0)
  (-0.0479506 -0.0124901 0)
  (-0.0475249 -0.0190405 0)
  (-0.0503029 -0.0239102 0)
  (-0.0527743 -0.0262228 0)
  (-0.0440972 -0.0232649 0)
  (-0.0280017 -0.0293539 0)
  (0.019127 -0.02886 0)
  (-0.0799573 0.0109454 0)
  (0.631023 0.325175 0)
  (-0.247303 0.109847 0)
  (-0.0216717 0.0396109 0)
  (-0.0165544 0.0316219 0)
  (-0.0194596 0.0267209 0)
  (-0.0208788 0.0176974 0)
  (-0.0203784 0.00905625 0)
  (-0.0190386 0.00139375 0)
  (-0.0169655 -0.00585737 0)
  (-0.0159194 -0.0126795 0)
  (-0.0159938 -0.0190577 0)
  (-0.0177572 -0.0250791 0)
  (-0.0217369 -0.03084 0)
  (-0.0282015 -0.0361189 0)
  (-0.0371268 -0.040009 0)
  (-0.0478625 -0.0405102 0)
  (-0.0575606 -0.034663 0)
  (-0.061825 -0.0222486 0)
  (-0.0599782 -0.0115334 0)
  (-0.0555994 -0.00620104 0)
  (-0.0518117 -0.0037294 0)
  (-0.0489821 -0.00320534 0)
  (-0.047212 -0.00373459 0)
  (-0.046248 -0.00438598 0)
  (-0.0455198 -0.00459876 0)
  (-0.0447154 -0.00482243 0)
  (-0.0438843 -0.00509511 0)
  (-0.0430736 -0.00540499 0)
  (-0.042322 -0.00579376 0)
  (-0.0416976 -0.00634264 0)
  (-0.0412865 -0.00721253 0)
  (-0.0412744 -0.00877301 0)
  (-0.0422239 -0.0115952 0)
  (-0.0451328 -0.0157103 0)
  (-0.0505092 -0.0196353 0)
  (-0.056592 -0.022502 0)
  (-0.0576058 -0.0244038 0)
  (-0.048662 -0.0289264 0)
  (-0.0444459 -0.0234701 0)
  (-0.119785 0.0149253 0)
  (0.650642 0.358746 0)
  (-0.250518 0.0972946 0)
  (0.00589638 -0.00693906 0)
  (0.0372703 0.0167762 0)
  (0.0375001 0.0282064 0)
  (0.0329488 0.0197428 0)
  (0.0317784 0.00894731 0)
  (0.0315325 0.000621272 0)
  (0.030663 -0.00651005 0)
  (0.0292163 -0.0126489 0)
  (0.0269626 -0.0177255 0)
  (0.023446 -0.0218284 0)
  (0.0181586 -0.0252081 0)
  (0.0107897 -0.0280921 0)
  (0.00125137 -0.030302 0)
  (-0.00956319 -0.0305098 0)
  (-0.0190558 -0.0269122 0)
  (-0.0249519 -0.0198651 0)
  (-0.0267269 -0.0130565 0)
  (-0.0261624 -0.00862177 0)
  (-0.0250179 -0.0060705 0)
  (-0.0239567 -0.00498276 0)
  (-0.0232995 -0.00482922 0)
  (-0.0230436 -0.00503495 0)
  (-0.0229571 -0.00523953 0)
  (-0.0228659 -0.00548259 0)
  (-0.0227467 -0.00576006 0)
  (-0.0226031 -0.00605138 0)
  (-0.0224633 -0.00635569 0)
  (-0.0223909 -0.00670451 0)
  (-0.0225003 -0.00717825 0)
  (-0.0230311 -0.007957 0)
  (-0.02447 -0.00929529 0)
  (-0.0275458 -0.0112612 0)
  (-0.0330606 -0.0136208 0)
  (-0.0412666 -0.0165935 0)
  (-0.0488835 -0.0219494 0)
  (-0.0483441 -0.0335857 0)
  (-0.0546287 -0.0520911 0)
  (-0.151548 -0.0761712 0)
  (0.740013 0.367172 0)
  (-0.0609618 0.0614988 0)
  (0.102291 -0.0777546 0)
  (0.15396 -0.0251095 0)
  (0.134323 0.00946018 0)
  (0.112066 0.0108215 0)
  (0.102804 0.00480825 0)
  (0.097006 -0.000468344 0)
  (0.089484 -0.00557187 0)
  (0.0819074 -0.0103486 0)
  (0.0749265 -0.0142037 0)
  (0.0678628 -0.0169355 0)
  (0.0601828 -0.018677 0)
  (0.0515479 -0.0197356 0)
  (0.0418566 -0.0203419 0)
  (0.031519 -0.0202167 0)
  (0.021826 -0.0184897 0)
  (0.0144045 -0.0149884 0)
  (0.00995311 -0.0111126 0)
  (0.00768752 -0.00810436 0)
  (0.006533 -0.00611856 0)
  (0.00584884 -0.00505548 0)
  (0.00524673 -0.0046716 0)
  (0.00458333 -0.00466868 0)
  (0.0038988 -0.00482195 0)
  (0.00326123 -0.00506605 0)
  (0.00269133 -0.00535966 0)
  (0.00219967 -0.00566402 0)
  (0.00176884 -0.00594152 0)
  (0.00136924 -0.00619559 0)
  (0.000964979 -0.00644907 0)
  (0.000474524 -0.00673922 0)
  (-0.000286976 -0.00708394 0)
  (-0.00159791 -0.00736914 0)
  (-0.00393711 -0.0073818 0)
  (-0.00815694 -0.0070788 0)
  (-0.0134912 -0.00753239 0)
  (-0.0143978 -0.0158968 0)
  (-0.0270284 -0.0469761 0)
  (-0.184058 -0.111635 0)
  (0.862497 0.360022 0)
  (0.402342 0.211573 0)
  (0.283483 0.0860683 0)
  (0.332269 0.089943 0)
  (0.257978 0.0783758 0)
  (0.2009 0.0565956 0)
  (0.175037 0.0381999 0)
  (0.158947 0.0245038 0)
  (0.14459 0.0139088 0)
  (0.131269 0.00545981 0)
  (0.119104 -0.000913327 0)
  (0.107917 -0.00518117 0)
  (0.0974757 -0.00760788 0)
  (0.0875326 -0.00877331 0)
  (0.0778721 -0.00917995 0)
  (0.0684359 -0.00905958 0)
  (0.0596077 -0.00829279 0)
  (0.0521468 -0.00683663 0)
  (0.046551 -0.00511415 0)
  (0.0426177 -0.00359865 0)
  (0.0398245 -0.00247084 0)
  (0.0377221 -0.00176519 0)
  (0.0359828 -0.00142359 0)
  (0.0344273 -0.00134168 0)
  (0.0329894 -0.00141451 0)
  (0.0316523 -0.00158667 0)
  (0.0304117 -0.00182396 0)
  (0.0292753 -0.00209411 0)
  (0.0282142 -0.00234846 0)
  (0.0272087 -0.00259892 0)
  (0.026276 -0.00286738 0)
  (0.0254473 -0.00316615 0)
  (0.0247538 -0.00347244 0)
  (0.0242535 -0.0036712 0)
  (0.0240326 -0.00352043 0)
  (0.0241488 -0.00260076 0)
  (0.0251429 -0.000490224 0)
  (0.0277164 -0.000307753 0)
  (0.0289865 -0.0227348 0)
  (-0.111373 -0.105944 0)
  (-1.11368 -0.0177229 0)
  (0.158231 0.0879896 0)
  (0.0969957 0.063107 0)
  (0.103664 0.050926 0)
  (0.121679 0.0410967 0)
  (0.130479 0.031585 0)
  (0.130682 0.0236251 0)
  (0.12739 0.0178616 0)
  (0.122837 0.0140816 0)
  (0.117493 0.0117203 0)
  (0.111552 0.0102323 0)
  (0.105368 0.00933727 0)
  (0.0991427 0.00876959 0)
  (0.0929734 0.00835564 0)
  (0.0870086 0.00807417 0)
  (0.0815374 0.00795168 0)
  (0.0768273 0.00791151 0)
  (0.072925 0.00784642 0)
  (0.069705 0.00770995 0)
  (0.0669997 0.00748011 0)
  (0.0646568 0.0071134 0)
  (0.0625571 0.00656765 0)
  (0.0605966 0.00591221 0)
  (0.0587172 0.00517184 0)
  (0.056891 0.00434368 0)
  (0.0551185 0.00342639 0)
  (0.0533721 0.00249075 0)
  (0.0516503 0.0014679 0)
  (0.0500001 0.000292568 0)
  (0.0484816 -0.00109291 0)
  (0.0471729 -0.00272902 0)
  (0.0462026 -0.00459968 0)
  (0.0457959 -0.00658079 0)
  (0.0463059 -0.00834913 0)
  (0.0481458 -0.00939271 0)
  (0.0500409 -0.0109799 0)
  (0.0482034 -0.0260667 0)
  (0.0019689 -0.0939646 0)
  (-0.523227 0.0731403 0)
  (0.205703 0.00500941 0)
  (0.0749338 -0.020646 0)
  (0.0680775 -0.0120849 0)
  (0.0893464 -0.0118043 0)
  (0.104304 -0.0217419 0)
  (0.11155 -0.034406 0)
  (0.114659 -0.0464609 0)
  (0.115289 -0.056784 0)
  (0.114117 -0.0649384 0)
  (0.111692 -0.0708775 0)
  (0.108569 -0.0748428 0)
  (0.105184 -0.0772528 0)
  (0.101799 -0.0785466 0)
  (0.0985544 -0.0790921 0)
  (0.0955564 -0.0791992 0)
  (0.0928818 -0.0791628 0)
  (0.090536 -0.0792087 0)
  (0.0884592 -0.0794398 0)
  (0.0865692 -0.0798664 0)
  (0.0847719 -0.0804151 0)
  (0.0829584 -0.0809725 0)
  (0.0810615 -0.0815145 0)
  (0.0790479 -0.0820301 0)
  (0.0768885 -0.082524 0)
  (0.0745702 -0.0829363 0)
  (0.0721501 -0.0829118 0)
  (0.0696897 -0.0827355 0)
  (0.0672259 -0.0825583 0)
  (0.0647525 -0.0824431 0)
  (0.0622679 -0.0824066 0)
  (0.0598259 -0.0824475 0)
  (0.0576081 -0.0825645 0)
  (0.0560625 -0.0827459 0)
  (0.0561612 -0.0828293 0)
  (0.0586065 -0.082468 0)
  (0.0720418 -0.0894347 0)
  (0.0294247 -0.163288 0)
  (0.602125 0.206285 0)
  (0.198164 -0.242563 0)
  (-0.269992 0.152043 0)
  (0.134074 0.0820611 0)
  (0.0602328 0.126362 0)
  (0.0148048 0.179629 0)
  (0.0354381 0.199123 0)
  (0.0547017 0.213609 0)
  (0.0676403 0.227571 0)
  (0.0768397 0.240471 0)
  (0.083678 0.251423 0)
  (0.0886838 0.259978 0)
  (0.0922568 0.266123 0)
  (0.0948082 0.270117 0)
  (0.0966825 0.272389 0)
  (0.0981096 0.273401 0)
  (0.0992251 0.273551 0)
  (0.100111 0.273177 0)
  (0.100804 0.27259 0)
  (0.101295 0.27205 0)
  (0.101543 0.271712 0)
  (0.101502 0.271627 0)
  (0.101144 0.271741 0)
  (0.100459 0.271943 0)
  (0.0994512 0.272207 0)
  (0.0981153 0.272518 0)
  (0.0964444 0.272887 0)
  (0.0944225 0.273258 0)
  (0.0920191 0.273044 0)
  (0.0892329 0.272679 0)
  (0.0859891 0.27239 0)
  (0.0821729 0.272248 0)
  (0.0776266 0.272258 0)
  (0.0721302 0.272426 0)
  (0.065384 0.272821 0)
  (0.0569199 0.273624 0)
  (0.0459208 0.274965 0)
  (0.0322811 0.276406 0)
  (0.0558224 0.286714 0)
  (-0.175119 0.442117 0)
)
;

boundaryField
{
  floor
  {
    type noSlip;
  }
  ceiling
  {
    type noSlip;
  }
  sWall
  {
    type noSlip;
  }
  nWall
  {
    type noSlip;
  }
  sideWalls
  {
    type empty;
  }
  glass1
  {
    type noSlip;
  }
  glass2
  {
    type noSlip;
  }
  sun
  {
    type noSlip;
  }
  heatsource1
  {
    type noSlip;
  }
  heatsource2
  {
    type noSlip;
  }
  Table_master
  {
    type noSlip;
  }
  Table_slave
  {
    type noSlip;
  }
  inlet
  {
    type fixedValue;
    value uniform (0.0707107 -0.0707107 0);
  }
  outlet
  {
    type zeroGradient;
  }
} 	// ************************************************************************* //

