// -*- C++ -*-
// File generated by PyFoam - sorry for the ugliness

FoamFile
{
 version 2.0;
 format ascii;
 class volScalarField;
 location "520";
 object T;
}

dimensions [ 0 0 0 1 0 0 0 ];

internalField nonuniform List<scalar> 459
(
  301.04
  301.004
  301.005
  301.006
  301.007
  301.008
  301.009
  301.011
  301.015
  301.022
  301.037
  301.049
  301.053
  301.053
  301.047
  301.125
  301.152
  301.169
  301.181
  301.191
  301.199
  301.203
  301.206
  301.208
  301.209
  301.21
  301.212
  301.213
  301.215
  301.216
  301.217
  301.219
  301.219
  301.212
  301.06
  301.009
  301.006
  301.007
  301.007
  301.006
  301.006
  301.005
  301.008
  301.019
  301.039
  301.058
  301.068
  301.069
  301.063
  301.066
  301.068
  301.143
  301.155
  301.172
  301.19
  301.208
  301.221
  301.226
  301.23
  301.233
  301.236
  301.239
  301.242
  301.244
  301.246
  301.247
  301.246
  301.243
  301.237
  301.233
  301.079
  301.012
  301.007
  301.007
  301.006
  301.005
  301.003
  300.998
  300.998
  301.009
  301.037
  301.063
  301.079
  301.084
  301.081
  301.079
  301.076
  301.127
  301.146
  301.173
  301.2
  301.226
  301.245
  301.247
  301.249
  301.252
  301.254
  301.257
  301.26
  301.263
  301.266
  301.267
  301.267
  301.262
  301.252
  301.245
  301.1
  301.017
  301.009
  301.01
  301.011
  301.011
  301.006
  300.995
  300.987
  300.999
  301.033
  301.068
  301.093
  301.103
  301.102
  301.097
  301.09
  301.094
  301.115
  301.146
  301.184
  301.222
  301.256
  301.282
  301.305
  301.324
  301.339
  301.353
  301.366
  301.376
  301.385
  301.393
  301.399
  301.36
  301.321
  301.287
  301.264
  301.122
  301.024
  301.012
  301.014
  301.019
  301.023
  301.015
  300.995
  300.979
  300.991
  301.029
  301.075
  301.111
  301.129
  301.131
  301.126
  301.123
  301.134
  301.159
  301.193
  301.232
  301.271
  301.305
  301.334
  301.36
  301.381
  301.397
  301.411
  301.422
  301.431
  301.436
  301.437
  301.434
  301.412
  301.374
  301.331
  301.295
  301.297
  301.301
  301.33
  301.143
  301.035
  301.019
  301.02
  301.027
  301.037
  301.022
  300.993
  300.973
  300.984
  301.028
  301.087
  301.136
  301.164
  301.172
  301.172
  301.174
  301.191
  301.22
  301.255
  301.293
  301.33
  301.362
  301.389
  301.411
  301.429
  301.442
  301.453
  301.461
  301.466
  301.467
  301.465
  301.459
  301.444
  301.416
  301.38
  301.343
  301.33
  301.325
  301.341
  301.163
  301.054
  301.036
  301.035
  301.042
  301.046
  301.022
  300.985
  300.962
  300.978
  301.034
  301.109
  301.174
  301.212
  301.227
  301.231
  301.239
  301.261
  301.29
  301.325
  301.359
  301.391
  301.418
  301.439
  301.455
  301.467
  301.475
  301.48
  301.483
  301.484
  301.483
  301.48
  301.473
  301.461
  301.441
  301.415
  301.384
  301.363
  301.349
  301.352
  301.194
  301.106
  301.085
  301.077
  301.077
  301.055
  301.008
  300.959
  300.941
  300.974
  301.054
  301.149
  301.228
  301.273
  301.292
  301.299
  301.312
  301.335
  301.364
  301.394
  301.421
  301.444
  301.462
  301.475
  301.483
  301.487
  301.488
  301.488
  301.486
  301.484
  301.48
  301.476
  301.471
  301.463
  301.448
  301.43
  301.408
  301.389
  301.374
  301.405
  301.235
  301.194
  301.165
  301.14
  301.102
  301.022
  300.94
  300.896
  300.911
  300.985
  301.103
  301.22
  301.303
  301.341
  301.358
  301.37
  301.385
  301.406
  301.429
  301.449
  301.466
  301.479
  301.486
  301.49
  301.491
  301.489
  301.486
  301.482
  301.477
  301.472
  301.466
  301.459
  301.451
  301.444
  301.437
  301.431
  301.429
  301.431
  301.438
  301.462
  300.338
  300.431
  300.473
  300.538
  300.636
  300.762
  300.908
  301.064
  301.23
  301.329
  301.38
  301.404
  301.418
  301.43
  301.444
  301.458
  301.471
  301.482
  301.488
  301.491
  301.491
  301.49
  301.486
  301.482
  301.478
  301.473
  301.468
  301.463
  301.457
  301.453
  301.448
  301.444
  301.441
  301.44
  301.441
  301.447
  301.459
  301.491
  300.391
  300.542
  300.69
  300.854
  300.971
  301.081
  301.187
  301.283
  301.36
  301.406
  301.432
  301.448
  301.458
  301.467
  301.475
  301.482
  301.487
  301.49
  301.49
  301.489
  301.487
  301.483
  301.48
  301.476
  301.473
  301.469
  301.465
  301.462
  301.459
  301.456
  301.453
  301.45
  301.447
  301.446
  301.447
  301.45
  301.461
  301.48
  300.769
  300.761
  300.76
  300.921
  301.059
  301.174
  301.254
  301.314
  301.363
  301.401
  301.429
  301.446
  301.457
  301.464
  301.468
  301.471
  301.473
  301.474
  301.474
  301.472
  301.469
  301.465
  301.462
  301.458
  301.455
  301.452
  301.45
  301.448
  301.446
  301.445
  301.444
  301.444
  301.444
  301.443
  301.443
  301.443
  301.444
  301.446
  301.448
  301.472
)
;

boundaryField
{
  floor
  {
    type wallHeatTransfer;
    Tinf uniform 299.755;
    alphaWall uniform 0.24;
    value nonuniform List<scalar> 29
(
  300.846
  300.834
  300.913
  300.94
  300.953
  300.961
  300.963
  300.958
  300.949
  300.94
  300.93
  300.921
  300.912
  300.904
  300.895
  300.887
  300.878
  300.866
  300.846
  300.816
  300.816
  300.871
  300.898
  300.936
  300.846
  300.834
  300.919
  300.916
  300.92
)
;
  }
  ceiling
  {
    type wallHeatTransfer;
    Tinf uniform 299.755;
    alphaWall uniform 0.24;
    value nonuniform List<scalar> 43
(
  300.681
  300.676
  300.679
  300.838
  300.965
  301.068
  301.137
  301.188
  301.228
  301.258
  301.278
  301.289
  301.296
  301.301
  301.305
  301.308
  301.31
  301.31
  301.31
  301.308
  301.305
  301.302
  301.298
  301.294
  301.291
  301.287
  301.283
  301.279
  301.274
  301.269
  301.265
  301.26
  301.257
  301.254
  301.253
  301.253
  301.253
  301.253
  301.254
  301.272
  301.116
  301.093
  300.324
)
;
  }
  sWall
  {
    type wallHeatTransfer;
    Tinf uniform 303.161;
    alphaWall uniform 0.36;
    value uniform 301.07;
  }
  nWall
  {
    type wallHeatTransfer;
    Tinf uniform 303.145;
    alphaWall uniform 0.36;
    value nonuniform List<scalar> 6
(
  301.82
  301.748
  301.712
  301.744
  301.718
  301.749
)
;
  }
  sideWalls
  {
    type empty;
  }
  glass1
  {
    type wallHeatTransfer;
    Tinf uniform 303.161;
    alphaWall uniform 4.3;
    value nonuniform List<scalar> 9
(
  302.658
  302.589
  302.54
  302.499
  302.461
  302.423
  302.39
  302.391
  302.414
)
;
  }
  glass2
  {
    type wallHeatTransfer;
    Tinf uniform 303.145;
    alphaWall uniform 4.3;
    value nonuniform List<scalar> 2
(
  302.633
  302.636
)
;
  }
  sun
  {
    type wallHeatTransfer;
    Tinf uniform 299.755;
    alphaWall uniform 0.24;
    value nonuniform List<scalar> 14
(
  300.846
  300.829
  300.836
  300.843
  300.851
  300.857
  300.864
  300.87
  300.876
  300.884
  300.894
  300.895
  300.886
  300.87
)
;
  }
  heatsource1
  {
    type fixedGradient;
    gradient uniform 0;
  }
  heatsource2
  {
    type fixedGradient;
    gradient uniform 0;
  }
  Table_master
  {
    type zeroGradient;
  }
  Table_slave
  {
    type zeroGradient;
  }
  inlet
  {
    type fixedValue;
    value uniform 300.15;
  }
  outlet
  {
    type zeroGradient;
  }
} 	// ************************************************************************* //

