/*--------------------------------*- C++ -*----------------------------------*\
  =========                 |
  \\      /  F ield         | OpenFOAM: The Open Source CFD Toolbox
   \\    /   O peration     | Website:  https://openfoam.org
    \\  /    A nd           | Version:  6
     \\/     M anipulation  |
\*---------------------------------------------------------------------------*/
FoamFile
{
    version     2.0;
    format      ascii;
    class       volScalarField;
    location    "100";
    object      alphat;
}
// * * * * * * * * * * * * * * * * * * * * * * * * * * * * * * * * * * * * * //

dimensions      [1 -1 -1 0 0 0 0];

internalField   nonuniform List<scalar> 
459
(
0.00163504
0.00183215
0.00191775
0.00204307
0.00218199
0.00230474
0.0023868
0.00241816
0.00230464
0.00217371
0.00202885
0.0018699
0.00171504
0.00156126
0.00138749
0.000826099
0.00097238
0.0011356
0.00125358
0.0012923
0.00126638
0.00118255
0.00109376
0.00101561
0.000949108
0.000892576
0.000844334
0.000802699
0.000766282
0.000733688
0.000702774
0.000670536
0.000632947
0.000577027
0.00208303
0.00579568
0.00596892
0.00692422
0.00768209
0.00826955
0.00873427
0.00914391
0.00933568
0.00904043
0.00848657
0.00774164
0.00656675
0.00506097
0.00333738
0.00154082
0.00131219
0.000806333
0.00208373
0.0036197
0.00473918
0.00539839
0.00523257
0.00349355
0.00284471
0.00244115
0.00215956
0.00195308
0.00179649
0.00167623
0.00157235
0.00145433
0.00133312
0.00121475
0.00112209
0.000620997
0.00245549
0.00806642
0.00759422
0.00829359
0.00861969
0.0088204
0.00911498
0.00970601
0.0102713
0.0104335
0.0102326
0.00976314
0.00893996
0.00761651
0.00582265
0.00366441
0.00145362
0.000821537
0.00213482
0.00374861
0.00550007
0.00670166
0.00628447
0.00158638
0.00137151
0.0011992
0.00106295
0.000955017
0.000868932
0.000799787
0.000745458
0.000708117
0.000831648
0.00100114
0.00117949
0.000638352
0.00281261
0.0100426
0.00843201
0.00884981
0.0086771
0.00841511
0.00854905
0.00926484
0.0100267
0.010473
0.0105295
0.0102982
0.00980591
0.00892724
0.00756453
0.00564865
0.00302879
0.00156888
0.00176058
0.00293199
0.00495395
0.0070499
0.00843809
0.00782762
0.0018105
0.00164868
0.00152075
0.0014137
0.00131608
0.00122168
0.0011266
0.00102747
0.000917651
0.000854765
0.000931955
0.00119239
0.00065034
0.00317369
0.0123428
0.00994083
0.00980512
0.00894868
0.00816413
0.00824495
0.00901073
0.00990707
0.0104952
0.0106663
0.0105427
0.0102345
0.00972715
0.0088998
0.00767422
0.00608817
0.00559108
0.00652467
0.00800947
0.00960075
0.0108723
0.0115657
0.0113431
0.00926077
0.00806127
0.00713735
0.00623235
0.00534778
0.00448458
0.00364086
0.00281808
0.00202953
0.00140519
0.0011352
0.0012054
0.000787826
0.000638596
0.000661795
0.000786225
0.00354094
0.0147386
0.0127807
0.0111326
0.00915347
0.0080815
0.00817611
0.00906694
0.0100997
0.010787
0.0110283
0.0110203
0.0109745
0.0108856
0.0106431
0.0102504
0.00989722
0.0103984
0.0117185
0.012903
0.0137472
0.0141596
0.0141233
0.013603
0.0124923
0.0112417
0.00989272
0.00854523
0.00723488
0.00597794
0.00478154
0.00365723
0.00263968
0.00184598
0.00143944
0.0013311
0.00101881
0.000879319
0.00115427
0.000828729
0.00379628
0.0158367
0.014876
0.0113174
0.00880622
0.00782718
0.00821144
0.00938737
0.010605
0.0113899
0.0117569
0.0120844
0.0125795
0.0128939
0.0130535
0.0132198
0.0135975
0.014449
0.0154318
0.016017
0.016169
0.0159254
0.0153394
0.0144543
0.013279
0.0118855
0.0104047
0.00893611
0.00752598
0.0062059
0.00500015
0.00392936
0.00299801
0.00226261
0.00187874
0.00169775
0.00145456
0.00133709
0.00127432
0.000921937
0.00381013
0.0122905
0.0109777
0.00859341
0.00722156
0.00724609
0.00840026
0.0100508
0.0114357
0.0122955
0.012983
0.0139201
0.0144977
0.0148081
0.015088
0.0154685
0.0159997
0.0166381
0.0170923
0.0171294
0.0167496
0.016025
0.0150309
0.0138361
0.0125
0.0110867
0.00964933
0.00824385
0.00691789
0.00571354
0.00466698
0.00380404
0.00313109
0.00264252
0.0023252
0.00224481
0.0022237
0.00217375
0.00286471
0.00128675
0.00367726
0.00421688
0.00440508
0.00441951
0.0052287
0.00704434
0.0093306
0.0113338
0.0124813
0.0135681
0.0143457
0.0149579
0.0152432
0.015459
0.0157505
0.0161199
0.0164921
0.0167271
0.0166612
0.0162187
0.0154345
0.0143938
0.0131891
0.0118996
0.0105866
0.00928335
0.00800434
0.00676437
0.00557881
0.00445721
0.0034144
0.00253411
0.00198038
0.00178327
0.00178199
0.00183336
0.00187645
0.00187642
0.00181453
0.00130259
0.000933407
0.00371381
0.00804126
0.011054
0.0127018
0.0134341
0.0133953
0.0136604
0.0138989
0.013985
0.0140669
0.0142394
0.0144747
0.0146854
0.0147589
0.0145798
0.0140841
0.0132891
0.0122778
0.0111571
0.0100199
0.00892602
0.00789877
0.00693086
0.00600727
0.00512229
0.00428205
0.00350467
0.00282512
0.00229707
0.0019692
0.00183784
0.00184129
0.0019022
0.00195327
0.00194556
0.00183544
0.00129751
0.002726
0.0111266
0.0123619
0.0123922
0.0118673
0.0112884
0.0108219
0.010493
0.0102574
0.0101575
0.0101936
0.0103107
0.0104383
0.0105014
0.0104269
0.0101604
0.00969526
0.00907846
0.00838752
0.0076963
0.00705111
0.00646699
0.00593812
0.0054506
0.00499227
0.00455561
0.00413753
0.0037396
0.00336894
0.0030368
0.00275345
0.00252369
0.00234764
0.00221926
0.00211728
0.0020727
0.00253703
0.00139816
0.00229691
0.00247453
0.00261931
0.00281544
0.00249544
0.00231103
0.00216222
0.00202629
0.00192641
0.00186707
0.00183702
0.00182527
0.00182235
0.00182078
0.00181459
0.00179909
0.0017713
0.00173099
0.00168135
0.00162767
0.0015751
0.00152688
0.00148388
0.00144519
0.00140909
0.00137381
0.00133808
0.00130143
0.00126425
0.0012278
0.00119409
0.00116557
0.00114482
0.00113426
0.0011353
0.00114593
0.00115711
0.00115014
0.00114809
0.00115248
)
;

boundaryField
{
    floor
    {
        type            compressible::alphatWallFunction;
        Prt             0.85;
        value           nonuniform List<scalar> 
29
(
0.00019579
0.000117595
0.000138458
0.000161309
0.000177591
0.000182899
0.000179354
0.000167819
0.0001555
0.000144562
0.000135176
0.000127138
0.000120232
0.000114233
0.000108956
0.000104208
9.96807e-05
9.49336e-05
8.93631e-05
8.10005e-05
8.09995e-05
8.75835e-05
9.01655e-05
9.19447e-05
0.000195788
0.000117593
0.000114741
0.000116928
0.000220243
)
;
    }
    ceiling
    {
        type            compressible::alphatWallFunction;
        Prt             0.85;
        value           nonuniform List<scalar> 
43
(
0.000315586
0.000338293
0.000356676
0.000381516
0.000341108
0.000317566
0.000298417
0.000280802
0.000267779
0.00026001
0.000256068
0.000254526
0.000254146
0.000253942
0.000253128
0.000251087
0.000247421
0.00024209
0.000235505
0.000228361
0.00022134
0.000214876
0.000209092
0.000203873
0.000198987
0.000194199
0.000189336
0.000184332
0.000179238
0.000174227
0.000169577
0.00016563
0.00016275
0.00016128
0.000161421
0.000162894
0.000164448
0.000163503
0.000163243
0.000163861
0.000488246
0.000553703
0.000369793
)
;
    }
    sWall
    {
        type            compressible::alphatWallFunction;
        Prt             0.85;
        value           uniform 0.000314452;
    }
    nWall
    {
        type            compressible::alphatWallFunction;
        Prt             0.85;
        value           nonuniform List<scalar> 6(0.000111688 0.000117812 0.000131117 0.000183504 0.000197212 0.000163583);
    }
    sideWalls
    {
        type            empty;
    }
    glass1
    {
        type            compressible::alphatWallFunction;
        Prt             0.85;
        value           nonuniform List<scalar> 9(0.000223691 0.00028182 0.000329231 0.000374054 0.000418829 0.000463877 0.000494981 0.000496817 0.000480959);
    }
    glass2
    {
        type            compressible::alphatWallFunction;
        Prt             0.85;
        value           nonuniform List<scalar> 2(0.00018108 0.000183391);
    }
    sun
    {
        type            compressible::alphatWallFunction;
        Prt             0.85;
        value           nonuniform List<scalar> 
14
(
0.000229051
0.000255123
0.000266355
0.000282701
0.000300695
0.000316492
0.000327
0.000331007
0.000316479
0.000299631
0.000280861
0.000260096
0.000239679
0.000219202
)
;
    }
    heatsource1
    {
        type            compressible::alphatWallFunction;
        Prt             0.85;
        value           nonuniform List<scalar> 3(9.02668e-05 9.36695e-05 0.000111887);
    }
    heatsource2
    {
        type            compressible::alphatWallFunction;
        Prt             0.85;
        value           nonuniform List<scalar> 4(0.000216619 0.000185696 0.000185694 0.000204891);
    }
    Table_master
    {
        type            compressible::alphatWallFunction;
        Prt             0.85;
        value           nonuniform List<scalar> 9(0.00022275 0.000193802 0.000170218 0.000151296 0.000136106 0.000123848 0.000113897 0.000106006 0.000100543);
    }
    Table_slave
    {
        type            compressible::alphatWallFunction;
        Prt             0.85;
        value           nonuniform List<scalar> 9(0.000252486 0.000231062 0.00021396 0.000199526 0.000186255 0.000173316 0.000160169 0.000146324 0.000130804);
    }
    inlet
    {
        type            fixedValue;
        value           uniform 1.94e-05;
    }
    outlet
    {
        type            zeroGradient;
    }
}


// ************************************************************************* //
