/*--------------------------------*- C++ -*----------------------------------*\
  =========                 |
  \\      /  F ield         | OpenFOAM: The Open Source CFD Toolbox
   \\    /   O peration     | Website:  https://openfoam.org
    \\  /    A nd           | Version:  6
     \\/     M anipulation  |
\*---------------------------------------------------------------------------*/
FoamFile
{
    version     2.0;
    format      ascii;
    class       volScalarField;
    location    "100";
    object      nut;
}
// * * * * * * * * * * * * * * * * * * * * * * * * * * * * * * * * * * * * * //

dimensions      [0 2 -1 0 0 0 0];

internalField   nonuniform List<scalar> 
459
(
0.0014058
0.00157395
0.00164739
0.00175501
0.00187431
0.00197972
0.0020502
0.00207725
0.00198025
0.00186799
0.00174367
0.00160715
0.00147411
0.00134199
0.00119268
0.000711941
0.000837816
0.000978287
0.0010799
0.00111338
0.00109117
0.00101902
0.000942596
0.00087532
0.000818068
0.000769403
0.000727877
0.00069204
0.000660696
0.000632645
0.000606041
0.000578296
0.000545948
0.000497822
0.0017919
0.00497942
0.00512763
0.00594807
0.0065989
0.00710314
0.00750196
0.00785448
0.00802156
0.00776966
0.00729482
0.00665509
0.00564528
0.00435081
0.00286905
0.00132462
0.00112811
0.000694976
0.0017953
0.00311758
0.0040819
0.00465036
0.00450822
0.00301024
0.00245138
0.00210381
0.0018613
0.00168349
0.00154865
0.00144511
0.00135567
0.00125403
0.00114962
0.00104766
0.000967876
0.000535772
0.0021135
0.0069316
0.00652466
0.00712531
0.00740519
0.00757656
0.00782844
0.0083369
0.00882558
0.00896811
0.00879759
0.00839507
0.00768744
0.00654926
0.00500651
0.00315069
0.00124981
0.000708042
0.00183856
0.00322788
0.00473672
0.00577303
0.00541496
0.00136698
0.00118192
0.00103352
0.00091618
0.00082323
0.000749101
0.000689562
0.000642786
0.000610647
0.000717252
0.000863516
0.00101747
0.000550779
0.00242231
0.00863199
0.00724596
0.00760499
0.00745637
0.00722902
0.00734192
0.00795752
0.00861563
0.00900362
0.00905555
0.00885834
0.00843509
0.00767884
0.00650606
0.0048578
0.00260452
0.00134919
0.00151444
0.00252279
0.00426437
0.00607152
0.00727042
0.00674697
0.00156101
0.00142182
0.00131176
0.00121966
0.00113564
0.00105436
0.000972468
0.000887041
0.000792351
0.000737773
0.000804184
0.00102881
0.000561172
0.0027349
0.0106127
0.00854515
0.00842895
0.00769231
0.00701387
0.00708035
0.00773883
0.00851334
0.00902482
0.00917674
0.00907289
0.00880808
0.00837069
0.00765759
0.00660218
0.00523723
0.00481
0.00561455
0.00689508
0.00826926
0.00936952
0.00997213
0.00978422
0.00799093
0.0069578
0.00616174
0.00538142
0.00461828
0.00387328
0.00314485
0.0024343
0.00175314
0.00121348
0.000979943
0.00104029
0.000679888
0.000551447
0.000572769
0.000680173
0.00305312
0.0126781
0.0109912
0.00957536
0.00787013
0.00694286
0.00702051
0.00778672
0.0086799
0.00927897
0.00949327
0.00948975
0.00945101
0.00937334
0.00916284
0.00882355
0.00851932
0.00895247
0.0100929
0.0111187
0.0118526
0.0122146
0.0121889
0.0117443
0.0107886
0.00971087
0.00854698
0.00738371
0.00625203
0.00516616
0.00413233
0.00316064
0.00228106
0.00159475
0.00124304
0.00114912
0.000879411
0.000759229
0.000997379
0.000716336
0.00327529
0.0136313
0.0128019
0.00973959
0.00757199
0.00672273
0.00704914
0.00806163
0.00911656
0.00980297
0.0101279
0.0104143
0.0108418
0.0111112
0.0112469
0.0113894
0.0117159
0.0124536
0.0133072
0.013819
0.0139573
0.0137533
0.0132522
0.0124911
0.011478
0.0102749
0.00899555
0.00772626
0.00650725
0.00536588
0.00432322
0.00339718
0.00259163
0.00195538
0.00162306
0.00146623
0.00125596
0.00115463
0.00110076
0.000796663
0.00328982
0.0105941
0.00946066
0.00739874
0.00620647
0.006219
0.00720809
0.00863213
0.00983618
0.010592
0.0111954
0.012008
0.0125063
0.0127728
0.0130133
0.0133419
0.0138032
0.0143598
0.0147592
0.0147983
0.0144763
0.0138548
0.0129986
0.0119675
0.0108128
0.00959064
0.00834738
0.00713152
0.00598434
0.00494229
0.00403673
0.00329001
0.00270762
0.00228466
0.00200969
0.00193968
0.00192111
0.00187806
0.00247549
0.00111246
0.00317876
0.00364211
0.0038017
0.00380067
0.00448315
0.0060351
0.00800273
0.0097406
0.010749
0.0117059
0.0123853
0.0129164
0.0131629
0.0133492
0.0136016
0.0139228
0.0142483
0.014457
0.0144061
0.0140287
0.0133542
0.0124563
0.0114152
0.0102997
0.00916335
0.00803517
0.0069279
0.00585442
0.00482805
0.00385709
0.00295442
0.0021925
0.00171326
0.0015426
0.00154139
0.00158581
0.00162321
0.00162342
0.00157006
0.00112746
0.000781246
0.00312325
0.00682191
0.00944539
0.0109119
0.011582
0.0115662
0.011804
0.0120135
0.0120893
0.012161
0.0123111
0.0125163
0.0127011
0.0127681
0.0126169
0.0121914
0.0115059
0.0106321
0.0096624
0.00867781
0.00773044
0.00684056
0.00600204
0.00520191
0.00443527
0.00370745
0.00303413
0.00244561
0.00198831
0.00170436
0.00159054
0.00159344
0.00164613
0.00169044
0.00168406
0.00158922
0.00112471
0.00230224
0.00950088
0.0106114
0.0106752
0.0102458
0.00975803
0.00936006
0.0090783
0.0088759
0.00879051
0.00882268
0.00892518
0.00903696
0.00909323
0.00903051
0.00880135
0.00839973
0.00786623
0.00726799
0.00666915
0.00610998
0.00560363
0.0051451
0.00472243
0.00432505
0.00394648
0.00358404
0.00323908
0.00291778
0.00262988
0.00238428
0.00218512
0.00203252
0.00192128
0.00183301
0.0017947
0.00219772
0.00121186
0.00197279
0.00212483
0.002249
0.00242934
0.00215757
0.0019998
0.00187192
0.00175479
0.00166864
0.00161748
0.00159164
0.00158162
0.00157924
0.00157802
0.0015728
0.00155951
0.00153554
0.00150069
0.00145771
0.00141119
0.0013656
0.00132376
0.00128643
0.00125283
0.00122148
0.00119083
0.0011598
0.00112798
0.00109568
0.00106402
0.00103474
0.00100995
0.000991897
0.000982665
0.000983488
0.000992632
0.00100232
0.000996501
0.000995176
0.000999594
)
;

boundaryField
{
    floor
    {
        type            nutkWallFunction;
        Cmu             0.09;
        kappa           0.41;
        E               9.8;
        value           nonuniform List<scalar> 
29
(
0.000143168
8.621e-05
0.000101476
0.000118197
0.000130119
0.00013402
0.000131435
0.000122996
0.00011398
0.000105974
9.91044e-05
9.32206e-05
8.81651e-05
8.37746e-05
7.99121e-05
7.64366e-05
7.31228e-05
6.9648e-05
6.55702e-05
5.94477e-05
5.94476e-05
6.42791e-05
6.61767e-05
6.74872e-05
0.000143168
8.621e-05
8.41277e-05
8.57264e-05
0.000161101
)
;
    }
    ceiling
    {
        type            nutkWallFunction;
        Cmu             0.09;
        kappa           0.41;
        E               9.8;
        value           nonuniform List<scalar> 
43
(
0.000230437
0.000246959
0.00026036
0.000279788
0.000250627
0.000233508
0.000219521
0.000206619
0.000197071
0.000191377
0.000188495
0.000187378
0.000187114
0.000186979
0.000186396
0.000184907
0.00018222
0.000178302
0.000173456
0.000168194
0.000163019
0.000158253
0.000153985
0.000150133
0.000146528
0.000142993
0.000139404
0.000135711
0.000131952
0.000128253
0.000124821
0.000121906
0.000119777
0.000118686
0.000118781
0.000119859
0.000121003
0.000120332
0.000120188
0.000120708
0.000358691
0.000406452
0.00026576
)
;
    }
    sWall
    {
        type            nutkWallFunction;
        Cmu             0.09;
        kappa           0.41;
        E               9.8;
        value           uniform 0.000230496;
    }
    nWall
    {
        type            nutkWallFunction;
        Cmu             0.09;
        kappa           0.41;
        E               9.8;
        value           nonuniform List<scalar> 6(8.22719e-05 8.67191e-05 9.64771e-05 0.000135335 0.000145427 0.000120714);
    }
    sideWalls
    {
        type            empty;
    }
    glass1
    {
        type            nutkWallFunction;
        Cmu             0.09;
        kappa           0.41;
        E               9.8;
        value           nonuniform List<scalar> 9(0.000167712 0.000210922 0.000246127 0.000279394 0.000312615 0.00034603 0.000369146 0.000370664 0.000359156);
    }
    glass2
    {
        type            nutkWallFunction;
        Cmu             0.09;
        kappa           0.41;
        E               9.8;
        value           nonuniform List<scalar> 2(0.000133886 0.000135644);
    }
    sun
    {
        type            nutkWallFunction;
        Cmu             0.09;
        kappa           0.41;
        E               9.8;
        value           nonuniform List<scalar> 
14
(
0.000167508
0.000186419
0.000194612
0.000206545
0.000219681
0.000231212
0.000238884
0.000241822
0.00023127
0.00021899
0.000205296
0.000190136
0.000175225
0.000160269
)
;
    }
    heatsource1
    {
        type            nutkWallFunction;
        Cmu             0.09;
        kappa           0.41;
        E               9.8;
        value           nonuniform List<scalar> 3(6.62553e-05 6.89077e-05 8.22745e-05);
    }
    heatsource2
    {
        type            nutkWallFunction;
        Cmu             0.09;
        kappa           0.41;
        E               9.8;
        value           nonuniform List<scalar> 4(0.000158289 0.000135698 0.000135698 0.000149739);
    }
    Table_master
    {
        type            nutkWallFunction;
        Cmu             0.09;
        kappa           0.41;
        E               9.8;
        value           nonuniform List<scalar> 9(0.000163153 0.000141961 0.000124697 0.000110845 9.97269e-05 9.0754e-05 8.34708e-05 7.76958e-05 7.36987e-05);
    }
    Table_slave
    {
        type            nutkWallFunction;
        Cmu             0.09;
        kappa           0.41;
        E               9.8;
        value           nonuniform List<scalar> 9(0.000185037 0.000169376 0.000156871 0.000146316 0.000136609 0.000127141 0.000117516 0.000107376 9.60008e-05);
    }
    inlet
    {
        type            calculated;
        value           uniform 0.000100623;
    }
    outlet
    {
        type            calculated;
        value           nonuniform List<scalar> 2(0.00197279 0.00212483);
    }
}


// ************************************************************************* //
