/*--------------------------------*- C++ -*----------------------------------*\
  =========                 |
  \\      /  F ield         | OpenFOAM: The Open Source CFD Toolbox
   \\    /   O peration     | Website:  https://openfoam.org
    \\  /    A nd           | Version:  6
     \\/     M anipulation  |
\*---------------------------------------------------------------------------*/
FoamFile
{
    version     2.0;
    format      ascii;
    class       volScalarField;
    location    "200";
    object      nut;
}
// * * * * * * * * * * * * * * * * * * * * * * * * * * * * * * * * * * * * * //

dimensions      [0 2 -1 0 0 0 0];

internalField   nonuniform List<scalar> 
459
(
0.00121228
0.00133585
0.00137405
0.00144706
0.0015188
0.00159301
0.00165845
0.00170052
0.00171102
0.00168569
0.00162061
0.00145912
0.00129549
0.00110717
0.000939043
0.000545629
0.000640638
0.000747644
0.00080561
0.000809145
0.000787554
0.000738649
0.000686596
0.000639634
0.000598675
0.00056307
0.000532037
0.000504732
0.000480549
0.000458611
0.00043773
0.000416246
0.000395972
0.000359514
0.00160742
0.00412422
0.00403491
0.00468859
0.00533216
0.00585726
0.00627977
0.006639
0.00690338
0.00704614
0.00703642
0.00681228
0.00629771
0.00533213
0.00357746
0.00116654
0.000921142
0.000536314
0.00135223
0.0021307
0.00277388
0.00315933
0.00310945
0.00219785
0.00181725
0.00157036
0.00139193
0.00125651
0.00115022
0.00106555
0.000988881
0.000908398
0.000831005
0.000762514
0.000826516
0.000422616
0.00193039
0.00560638
0.00500053
0.0058559
0.00627201
0.00658675
0.00687363
0.00717832
0.00749714
0.00780035
0.00801837
0.00805305
0.00783929
0.00730489
0.00609946
0.00400156
0.00115309
0.000752581
0.00145489
0.00234079
0.00328686
0.00395653
0.00378181
0.00101395
0.000881587
0.0007754
0.000690694
0.000622686
0.000567534
0.000522389
0.000485953
0.000458569
0.000514986
0.000618146
0.000956581
0.000467289
0.00223531
0.00699839
0.00514775
0.00608062
0.00625819
0.00638687
0.00655628
0.0068046
0.00715268
0.00755938
0.00789931
0.00807175
0.0080616
0.00783958
0.00723818
0.0059451
0.00325999
0.00131204
0.00160379
0.00235797
0.00343716
0.00450297
0.00520315
0.0048255
0.00115386
0.00104406
0.000960022
0.000891579
0.000832166
0.000776522
0.000721228
0.000663505
0.00059867
0.000551973
0.000606268
0.00111015
0.000500957
0.0025434
0.0087522
0.00572354
0.00622157
0.0063481
0.00632276
0.00636545
0.00655101
0.00691036
0.0073434
0.00771074
0.00790716
0.0079186
0.00779095
0.00751497
0.00693477
0.0058218
0.00514249
0.00543698
0.00599781
0.0066135
0.0070815
0.00727464
0.0069977
0.00566549
0.00495717
0.00448536
0.00406418
0.00360809
0.00311344
0.0025866
0.0020448
0.00151655
0.00106976
0.000843046
0.00105679
0.000631251
0.00059309
0.000712679
0.000801118
0.00286857
0.0106931
0.00767091
0.00688875
0.00685211
0.00657306
0.00641646
0.00651239
0.00686654
0.00733326
0.00772002
0.00789296
0.0078552
0.00773073
0.00765251
0.00765367
0.00762763
0.00783929
0.00833418
0.00873589
0.00894838
0.00894662
0.00873596
0.00830228
0.00758957
0.00691267
0.00629648
0.00568285
0.00505072
0.00438903
0.003697
0.00298495
0.0022842
0.00166302
0.00126665
0.00112277
0.000864158
0.000763288
0.00109956
0.000840236
0.00315116
0.0119855
0.0102987
0.00860852
0.00766271
0.00686202
0.00649444
0.00658
0.00700417
0.00754415
0.00795653
0.00809729
0.00802091
0.00797385
0.00823155
0.00875272
0.00926637
0.00975698
0.0101434
0.0102416
0.0100916
0.00974277
0.00924387
0.00862548
0.00790892
0.00720762
0.00654027
0.00589393
0.00525593
0.00463025
0.00401367
0.00339909
0.00278421
0.00219634
0.00176994
0.00149021
0.00126016
0.00123168
0.00128957
0.000984273
0.00319892
0.010233
0.00935101
0.00813219
0.00701969
0.0063638
0.00627209
0.00666873
0.00734696
0.00801476
0.00841918
0.00847831
0.0083988
0.00864556
0.00941778
0.00998612
0.010375
0.0106334
0.0106966
0.0104837
0.0100326
0.00940743
0.00866583
0.00785324
0.00702264
0.00624267
0.00552534
0.00488077
0.00433147
0.00390465
0.00358945
0.00332067
0.0030103
0.00266362
0.00245723
0.00243261
0.00265095
0.00318774
0.00392905
0.00149983
0.00311155
0.00365612
0.00392463
0.00400744
0.0042953
0.00498541
0.0060117
0.0071839
0.00822968
0.00886148
0.00897273
0.00879018
0.00904608
0.0095349
0.00999767
0.0102526
0.0103357
0.0102616
0.00998323
0.0094764
0.00877402
0.00793159
0.00700384
0.00605568
0.00516068
0.00437037
0.00371341
0.00319513
0.0028147
0.00255683
0.00239388
0.00229899
0.00224938
0.00223199
0.00224304
0.00226445
0.00224497
0.00214274
0.00199432
0.00139145
0.00122917
0.00306964
0.00615135
0.00822043
0.00944916
0.0100321
0.0100693
0.00965373
0.00903532
0.0086952
0.00887226
0.00913509
0.00923471
0.00917484
0.00897937
0.00862122
0.00807124
0.00734214
0.0064915
0.00559879
0.00474364
0.00399084
0.00337622
0.00290595
0.00257009
0.00234886
0.00221877
0.00215715
0.00214547
0.00216979
0.00221891
0.00228215
0.00234384
0.00237722
0.00235203
0.0022715
0.00209185
0.00116638
0.00205315
0.00697324
0.00918634
0.00957227
0.00933978
0.0087607
0.00805471
0.00746115
0.00705597
0.0068554
0.0067665
0.00665436
0.00650568
0.00631727
0.00605568
0.00568539
0.0052023
0.00464663
0.00408716
0.00358815
0.00318408
0.00287741
0.00265171
0.00248584
0.00236225
0.00226991
0.00220513
0.00216993
0.0021685
0.00220324
0.00227112
0.00236037
0.00244951
0.00251615
0.00249806
0.00254609
0.00251968
0.00118787
0.00184177
0.00195342
0.00203459
0.00218975
0.00202918
0.00188906
0.00177432
0.00164282
0.00150127
0.00136622
0.00125425
0.0011736
0.00111803
0.0010776
0.00104447
0.00101275
0.000978559
0.000940515
0.000899981
0.000860075
0.000823988
0.00079368
0.000769595
0.000751233
0.000737994
0.000729827
0.000727497
0.000732416
0.000746183
0.000770045
0.000804617
0.000850019
0.000906166
0.00097267
0.00104981
0.00113142
0.00114967
0.00110641
0.00104361
0.000970951
)
;

boundaryField
{
    floor
    {
        type            nutkWallFunction;
        Cmu             0.09;
        kappa           0.41;
        E               9.8;
        value           nonuniform List<scalar> 
29
(
0.000113529
6.55173e-05
7.741e-05
9.05536e-05
9.75798e-05
9.80075e-05
9.54002e-05
8.94614e-05
8.30887e-05
7.72893e-05
7.21893e-05
6.77215e-05
6.3799e-05
6.03242e-05
5.72274e-05
5.44012e-05
5.16952e-05
4.8894e-05
4.62331e-05
4.14041e-05
4.14041e-05
4.97221e-05
5.5514e-05
5.98332e-05
0.000113529
6.55173e-05
6.43377e-05
9.11402e-05
0.000156839
)
;
    }
    ceiling
    {
        type            nutkWallFunction;
        Cmu             0.09;
        kappa           0.41;
        E               9.8;
        value           nonuniform List<scalar> 
43
(
0.000215998
0.000228219
0.000237058
0.000253959
0.000236598
0.000221306
0.000208689
0.000194116
0.000178284
0.000163028
0.000150253
0.000140974
0.000134538
0.000129834
0.000125964
0.000122245
0.000118219
0.000113721
0.000108905
0.000104138
9.98056e-05
9.61493e-05
9.32318e-05
9.1e-05
8.93864e-05
8.83885e-05
8.81022e-05
8.87004e-05
9.03759e-05
9.32733e-05
9.74537e-05
0.000102913
0.000109618
0.0001175
0.000126564
0.000136074
0.000138189
0.000133167
0.000125838
0.000117297
0.000351712
0.000407896
0.000238897
)
;
    }
    sWall
    {
        type            nutkWallFunction;
        Cmu             0.09;
        kappa           0.41;
        E               9.8;
        value           uniform 0.000216057;
    }
    nWall
    {
        type            nutkWallFunction;
        Cmu             0.09;
        kappa           0.41;
        E               9.8;
        value           nonuniform List<scalar> 6(9.70267e-05 0.000101737 0.000118867 0.00014014 0.000142622 0.000117303);
    }
    sideWalls
    {
        type            empty;
    }
    glass1
    {
        type            nutkWallFunction;
        Cmu             0.09;
        kappa           0.41;
        E               9.8;
        value           nonuniform List<scalar> 9(0.000145571 0.000190425 0.000226166 0.000259317 0.000292325 0.00032671 0.000356263 0.000361241 0.000352167);
    }
    glass2
    {
        type            nutkWallFunction;
        Cmu             0.09;
        kappa           0.41;
        E               9.8;
        value           nonuniform List<scalar> 2(0.000178189 0.000165949);
    }
    sun
    {
        type            nutkWallFunction;
        Cmu             0.09;
        kappa           0.41;
        E               9.8;
        value           nonuniform List<scalar> 
14
(
0.000145423
0.000159564
0.000163907
0.00017217
0.000180246
0.000188555
0.000195846
0.000200517
0.000201678
0.000198868
0.000191629
0.000173515
0.000154952
0.000133258
)
;
    }
    heatsource1
    {
        type            nutkWallFunction;
        Cmu             0.09;
        kappa           0.41;
        E               9.8;
        value           nonuniform List<scalar> 3(7.14796e-05 8.62761e-05 9.70261e-05);
    }
    heatsource2
    {
        type            nutkWallFunction;
        Cmu             0.09;
        kappa           0.41;
        E               9.8;
        value           nonuniform List<scalar> 4(0.000140133 0.000111403 0.000111403 0.000138574);
    }
    Table_master
    {
        type            nutkWallFunction;
        Cmu             0.09;
        kappa           0.41;
        E               9.8;
        value           nonuniform List<scalar> 9(0.000122369 0.000106698 9.39271e-05 8.35921e-05 7.51848e-05 6.82854e-05 6.25769e-05 5.79253e-05 5.44007e-05);
    }
    Table_slave
    {
        type            nutkWallFunction;
        Cmu             0.09;
        kappa           0.41;
        E               9.8;
        value           nonuniform List<scalar> 9(0.000138683 0.000125901 0.000116015 0.000107889 0.000100777 9.4061e-05 8.73309e-05 8.02392e-05 7.21845e-05);
    }
    inlet
    {
        type            calculated;
        value           uniform 0.000100623;
    }
    outlet
    {
        type            calculated;
        value           nonuniform List<scalar> 2(0.00184177 0.00195342);
    }
}


// ************************************************************************* //
