/*--------------------------------*- C++ -*----------------------------------*\
  =========                 |
  \\      /  F ield         | OpenFOAM: The Open Source CFD Toolbox
   \\    /   O peration     | Website:  https://openfoam.org
    \\  /    A nd           | Version:  6
     \\/     M anipulation  |
\*---------------------------------------------------------------------------*/
FoamFile
{
    version     2.0;
    format      ascii;
    class       surfaceScalarField;
    location    "100";
    object      phi;
}
// * * * * * * * * * * * * * * * * * * * * * * * * * * * * * * * * * * * * * //

dimensions      [1 0 -1 0 0 0 0];

internalField   nonuniform List<scalar> 
852
(
0.00453507
-0.00450972
0.00848556
-0.00395028
0.010594
-0.00210821
0.0116814
-0.00108725
0.012309
-0.000627418
0.0126343
-0.000325028
0.012693
-5.84849e-05
0.0125119
0.000181239
0.0121034
0.000408777
0.0114567
0.000646823
0.0105383
0.00091869
0.00927942
0.00125905
0.0075325
0.00174713
0.00488849
0.00264422
0.00488709
8.22992e-05
-8.40218e-05
-7.6781e-06
8.99726e-05
-5.73561e-05
4.96769e-05
1.39968e-05
-7.13538e-05
0.000142572
-0.000128575
0.000199007
-5.64389e-05
0.000108022
9.09807e-05
3.03791e-05
7.76367e-05
-1.9373e-05
4.97442e-05
-4.87234e-05
2.93426e-05
-6.89813e-05
2.02505e-05
-8.9191e-05
2.02025e-05
-0.000116584
2.73855e-05
-0.000160866
4.42736e-05
-0.000231504
7.06304e-05
-0.000253544
2.20308e-05
-0.000221846
-3.17018e-05
-0.000201341
-2.0506e-05
-0.000203104
0.00470136
-0.00913968
0.00718449
-0.00643321
0.00849957
-0.0034231
0.00927653
-0.00186401
0.00976411
-0.0011148
0.0100419
-0.000602654
0.0101351
-0.000151502
0.0100402
0.000276365
0.0097498
0.000699381
0.00925136
0.00114546
0.00853073
0.00163951
0.00758278
0.0022072
0.00644856
0.00288155
0.0054209
0.00367209
0.00580628
0.00450192
0.00230268
0.00350376
0.00230284
-0.000266708
0.0001784
-0.000350415
0.000173678
-0.000353051
5.23127e-05
-0.000300378
-0.000124026
-0.000184265
-0.000244688
-7.069e-05
-0.000170017
-7.7962e-05
9.82459e-05
-7.61001e-05
7.57685e-05
-7.50972e-05
4.87361e-05
-7.44359e-05
2.86769e-05
-7.44636e-05
2.02742e-05
-7.54083e-05
2.11426e-05
-7.81129e-05
3.00842e-05
-8.5338e-05
5.14908e-05
-0.000122367
0.000107652
-4.98541e-05
-5.04797e-05
1.12522e-06
-8.2675e-05
4.64771e-05
-6.58518e-05
-0.000161227
0.00339416
-0.012419
0.00492962
-0.00796847
0.00567779
-0.00417108
0.00616867
-0.0023547
0.00652777
-0.00147373
0.00677298
-0.000847685
0.00692712
-0.000305468
0.00697153
0.000232134
0.00687507
0.000796016
0.00661537
0.00140533
0.00618516
0.0020699
0.00560022
0.00279232
0.00491938
0.00356258
0.00423999
0.00435167
0.00356445
0.00517767
0.00209032
0.0049781
0.00439336
-0.000618456
0.000790418
-0.000731927
0.000287149
-0.000741562
6.19494e-05
-0.000726523
-0.000139064
-0.000656295
-0.000314915
-0.000366637
-0.000459677
-0.000268245
-0.000192329
-0.000143444
-0.000114618
-9.41949e-05
-7.29034e-05
-4.2671e-05
8.96669e-06
0.000116763
0.000447842
-0.000381552
0.00048663
-0.000121454
0.000359325
6.14587e-05
0.000191003
0.00205038
-0.0143123
0.0028824
-0.00880027
0.00325301
-0.00454151
0.00341864
-0.00252016
0.00361413
-0.00166906
0.0038084
-0.0010418
0.00399662
-0.000493554
0.00413426
9.46383e-05
0.00417002
0.000760399
0.00408212
0.00149338
0.00386092
0.00229126
0.00351204
0.00314137
0.00305121
0.00402358
0.00248961
0.00491346
0.00188119
0.00578629
0.00113828
0.00572121
0.000550497
0.00498136
-0.00115359
0.00169508
-0.0010384
0.000675238
-0.00108853
0.000337283
-0.00115943
0.000132847
-0.00123098
-6.75029e-05
-0.00130107
-0.000244821
-0.00142974
-0.000331005
-0.00115275
-0.000277129
-0.000873836
-0.000279065
-0.000574577
-0.000299406
-0.000262347
-0.000312378
4.50303e-05
-0.000307527
0.000335636
-0.000290754
0.000618259
-0.000282771
0.000902363
-0.000284252
0.00119798
-0.000295764
0.00113222
-0.000315787
0.00111576
-0.00010499
0.000899341
0.000277885
0.00108112
0.000937571
-0.0150517
0.00130329
-0.00916579
0.00134053
-0.00457857
0.00110313
-0.00228262
0.00118972
-0.00175552
0.00138235
-0.00123431
0.00158738
-0.000698464
0.0017471
-6.49652e-05
0.00182768
0.000679941
0.0018168
0.00150439
0.00170701
0.00240118
0.00149796
0.00335057
0.00119079
0.00433092
0.000801459
0.00530296
0.000415954
0.00617198
-4.31559e-05
0.00618053
-0.000378
0.00531642
-0.000769778
0.00208698
-0.00105188
0.000957356
-0.00118418
0.000469585
-0.0012527
0.000201384
-0.00128678
-3.34188e-05
-0.00129521
-0.000236368
-0.0012557
-0.000370494
-0.00109182
-0.000440992
-0.000870926
-0.000499942
-0.000622376
-0.000547943
-0.000360345
-0.0005744
-9.4395e-05
-0.000573472
0.000163257
-0.000548403
0.00040566
-0.000525169
0.000640361
-0.000518949
0.000857701
-0.0005131
0.00100457
-0.000462655
0.00116857
-0.000268985
0.00141475
3.17188e-05
0.00204151
0.000454364
0.00160462
0.000436693
0.00107162
0.000532803
0.00108596
-3.86745e-06
-0.0148092
2.6498e-05
-0.00919595
-0.000280965
-0.00427094
-0.000810931
-0.00175252
-0.000795829
-0.0017705
-0.000644778
-0.00138524
-0.00049103
-0.000852097
-0.000371825
-0.000184059
-0.00029599
0.000604218
-0.000271803
0.00148032
-0.000301019
0.00243053
-0.0003872
0.0034369
-0.000530183
0.00447407
-0.000709479
0.00548244
-0.000841198
0.0063039
-0.000968621
0.00630817
-0.000891943
0.00523997
-0.00100253
0.00219768
-0.00110198
0.00105683
-0.0011783
0.000545913
-0.00120695
0.000230057
-0.0012025
-3.78375e-05
-0.0011723
-0.000266532
-0.00110335
-0.000439403
-0.000979304
-0.000564993
-0.000814132
-0.000665072
-0.000623291
-0.000738751
-0.000421626
-0.000776043
-0.000222884
-0.000772203
-3.31689e-05
-0.000738113
0.000142601
-0.000700936
0.000305974
-0.000682318
0.000463906
-0.000671028
0.000622722
-0.000621468
0.000815835
-0.000462094
0.00102955
-0.000181992
0.00128731
0.000196609
0.00127144
0.000452566
0.000857631
0.000946616
0.00195943
-0.000960746
-0.0135714
-0.00157299
-0.00858349
-0.00213813
-0.00370563
-0.00280074
-0.00108978
-0.00282969
-0.00174141
-0.0026996
-0.00151521
-0.00254957
-0.001002
-0.00242133
-0.000312173
-0.00231586
0.000498862
-0.00222705
0.00139164
-0.00214755
0.00235117
-0.00207589
0.00336539
-0.00200736
0.00440571
-0.00192064
0.0053959
-0.00175543
0.0061389
-0.00154005
0.00609301
-0.00118018
0.00488033
-0.0011107
0.0021283
-0.00108065
0.00102681
-0.00105968
0.000524971
-0.00102065
0.000191055
-0.000969617
-8.88184e-05
-0.000915836
-0.000320244
-0.00085447
-0.000500685
-0.000774833
-0.000644542
-0.000675463
-0.00076436
-0.000559495
-0.000854652
-0.000436537
-0.000898957
-0.000320311
-0.000888407
-0.000223193
-0.000835223
-0.000150421
-0.000773705
-9.97634e-05
-0.000732974
-6.04357e-05
-0.000710353
-1.37613e-05
-0.000668139
7.59208e-05
-0.000551774
0.000248059
-0.000354128
0.000523181
-7.85099e-05
0.000770411
0.000205339
0.000699224
0.00101781
0.00267584
-0.00351512
-0.00974447
-0.00538055
-0.00671785
-0.0054082
-0.00367778
-0.00553849
-0.000959335
-0.00508639
-0.00219337
-0.00471204
-0.00188941
-0.00446345
-0.00125046
-0.00428271
-0.000492783
-0.00412144
0.000337732
-0.00394667
0.00121702
-0.00373304
0.00213769
-0.00346822
0.00310074
-0.00314345
0.00408112
-0.00274622
0.00499888
-0.0022572
0.00565009
-0.00173097
0.00556701
-0.00118462
0.0043342
-0.000966773
0.00191053
-0.000839247
0.000899306
-0.000733819
0.000419571
-0.000621835
7.91175e-05
-0.00052514
-0.000185434
-0.000465155
-0.000380115
-0.00043452
-0.000531182
-0.000417801
-0.000661113
-0.000403193
-0.000778825
-0.000383739
-0.000873985
-0.000361828
-0.000920784
-0.000348086
-0.000902105
-0.000359944
-0.000823351
-0.000413263
-0.000720384
-0.000519065
-0.000627173
-0.000681188
-0.00054823
-0.000899046
-0.00045028
-0.0011684
-0.000282416
-0.00149895
-2.35758e-05
-0.00187187
0.000294405
-0.00226294
0.000596412
-0.00211362
0.00086849
0.000633931
-0.00942488
-0.016159
-0.0112933
-0.00854321
-0.00778406
-0.00446842
-0.00663663
-0.00334063
-0.00611702
-0.00240887
-0.00587614
-0.00149117
-0.00573014
-0.00063863
-0.00556692
0.000174672
-0.00531244
0.000962699
-0.00495422
0.00177964
-0.00447646
0.00262316
-0.00387117
0.00347602
-0.00314201
0.00426993
-0.00231708
0.00482539
-0.00150435
0.00475452
-0.000785256
0.00361531
-0.000442896
0.00156823
-0.000241592
0.000698025
-6.97887e-05
0.000247797
8.85257e-05
-7.91497e-05
0.000186755
-0.000283554
0.000215112
-0.000408317
0.000188933
-0.000504811
0.00012604
-0.000598005
4.01693e-05
-0.000692732
-5.70711e-05
-0.000776544
-0.00015705
-0.000820656
-0.000259782
-0.000799288
-0.000378646
-0.000704456
-0.000536751
-0.000562275
-0.00076496
-0.000398968
-0.00108725
-0.000225941
-0.00149843
-3.91042e-05
-0.00195106
0.000170217
-0.00241488
0.000440244
-0.00290722
0.000786746
-0.00337855
0.00106774
-0.00301595
0.000505888
-0.00231055
-0.00894217
0.000129776
-0.00699039
-0.00641997
-0.00662884
-0.00370199
-0.0066733
-0.00236423
-0.00671581
-0.00144849
-0.00666332
-0.000690943
-0.00649874
1.02681e-05
-0.00620231
0.000666448
-0.00573324
0.00131076
-0.00506385
0.00195396
-0.00419008
0.00260246
-0.00313354
0.00321361
-0.00195746
0.00364953
-0.000828317
0.00362561
0.000197133
0.00259006
0.000637605
0.00112783
0.000872735
0.000462937
0.00103927
8.13074e-05
0.00112968
-0.000169481
0.00113373
-0.000287471
0.00107118
-0.000345583
0.00096047
-0.000393865
0.000811655
-0.000448918
0.000630252
-0.000511034
0.000422852
-0.000568855
0.0002034
-0.000600961
-9.67384e-06
-0.00058605
-0.000196281
-0.000517778
-0.00035168
-0.000406859
-0.000478649
-0.000272003
-0.000574985
-0.000129612
-0.000655793
4.16992e-05
-0.000739017
0.000253437
-0.000776672
0.000477898
-0.000631372
0.000641446
-0.000108917
0.000545286
0.000332151
6.48203e-05
-0.00196272
-0.000299238
0.000401203
-0.00356386
-0.00315507
-0.00531111
-0.00195455
-0.00643802
-0.00123713
-0.00711178
-0.00077455
-0.00740002
-0.000402509
-0.00731972
-6.98416e-05
-0.00698096
0.000327872
-0.00637833
0.000708323
-0.00550026
0.00107609
-0.00434178
0.00144419
-0.0029358
0.00180784
-0.00133649
0.00205045
0.000343021
0.00194634
0.00166866
0.00126461
0.00218851
0.000608103
0.00238814
0.000263401
0.00240571
6.38432e-05
0.00227705
-4.07004e-05
0.00209656
-0.000106822
0.00190651
-0.000155316
0.00170724
-0.000194331
0.00148778
-0.000229146
0.00123841
-0.000261313
0.000960233
-0.000290317
0.000672077
-0.000312466
0.000405721
-0.000319433
0.000188839
-0.000300747
3.53682e-05
-0.000253334
-5.62437e-05
-0.000180389
-9.74377e-05
-8.8429e-05
-5.70594e-05
1.31078e-06
0.000100856
9.55153e-05
0.000405176
0.000173574
0.000864934
0.000181685
0.00135808
5.21421e-05
0.00175566
-0.000332761
-0.000191831
0.00494856
0.000503388
0.000847658
-0.00237211
-0.004394
-0.00570062
-0.00654562
-0.00701914
-0.00716021
-0.00690346
-0.00626622
-0.00526111
-0.00388765
-0.00215017
-0.000169533
0.00170916
0.00290866
0.00345419
0.00365773
0.00366437
0.00356928
0.00341065
0.00320544
0.00296251
0.00268565
0.0023774
0.00204095
0.00168328
0.0013196
0.00097547
0.000679353
0.000456503
0.000325617
0.000283887
0.000335541
0.000463943
0.000598927
0.000602812
0.000221287
)
;

boundaryField
{
    floor
    {
        type            calculated;
        value           nonuniform List<scalar> 
29
(
0
0
0
0
0
0
0
0
0
0
0
0
0
0
0
0
0
0
0
0
1.76184e-06
4.60252e-06
7.09811e-06
9.22732e-06
1.60795e-06
1.71722e-06
4.28435e-06
6.43793e-06
9.12139e-06
)
;
    }
    ceiling
    {
        type            calculated;
        value           nonuniform List<scalar> 
43
(
9.64887e-05
9.63783e-05
5.75382e-05
6.50389e-05
6.75452e-05
6.96971e-05
7.06628e-05
7.12127e-05
7.14292e-05
7.13229e-05
7.12869e-05
7.11805e-05
7.09394e-05
7.05568e-05
7.00224e-05
6.78941e-05
6.52982e-05
6.27526e-05
6.00368e-05
5.73745e-05
5.45842e-05
5.20225e-05
5.01441e-05
4.89017e-05
4.80559e-05
4.73465e-05
4.65771e-05
4.56632e-05
4.46469e-05
4.36747e-05
4.29216e-05
4.24923e-05
4.24476e-05
4.30218e-05
4.38476e-05
4.51629e-05
4.66967e-05
4.82544e-05
4.87649e-05
5.12015e-05
1.94768e-05
1.65091e-05
2.8159e-05
)
;
    }
    sWall
    {
        type            calculated;
        value           uniform -0.000120708;
    }
    nWall
    {
        type            calculated;
        value           nonuniform List<scalar> 6(-1.45326e-05 -1.58416e-05 -1.71757e-05 -1.56824e-05 -1.52312e-05 -2.17432e-05);
    }
    sideWalls
    {
        type            empty;
        value           nonuniform 0();
    }
    glass1
    {
        type            calculated;
        value           nonuniform List<scalar> 9(-2.51614e-05 -7.11995e-05 -0.000114662 -0.000156819 -0.000198055 -0.000238374 -0.000276875 -0.000311558 -0.000338834);
    }
    glass2
    {
        type            calculated;
        value           nonuniform List<scalar> 2(-7.17153e-05 -7.14639e-05);
    }
    sun
    {
        type            calculated;
        value           uniform 0;
    }
    heatsource1
    {
        type            calculated;
        value           nonuniform List<scalar> 3(1.99852e-07 2.00072e-07 2.00343e-07);
    }
    heatsource2
    {
        type            calculated;
        value           nonuniform List<scalar> 4(4.90387e-08 4.94425e-08 0 0);
    }
    Table_master
    {
        type            calculated;
        value           nonuniform List<scalar> 9(-1.50511e-07 -1.50566e-07 -1.50596e-07 -1.50613e-07 -1.50623e-07 -1.5063e-07 -1.50638e-07 -1.50646e-07 -1.50617e-07);
    }
    Table_slave
    {
        type            calculated;
        value           nonuniform List<scalar> 9(1.50091e-07 1.50191e-07 1.50283e-07 1.50381e-07 1.50468e-07 1.50458e-07 1.50364e-07 1.50269e-07 1.50166e-07);
    }
    inlet
    {
        type            calculated;
        value           uniform 0.000269487;
    }
    outlet
    {
        type            calculated;
        value           nonuniform List<scalar> 2(-0.00492391 0.00434923);
    }
}


// ************************************************************************* //
